/*--------------------------------*- C++ -*----------------------------------*\
  =========                 |
  \\      /  F ield         | OpenFOAM: The Open Source CFD Toolbox
   \\    /   O peration     | Website:  https://openfoam.org
    \\  /    A nd           | Version:  7
     \\/     M anipulation  |
\*---------------------------------------------------------------------------*/
FoamFile
{
    version     2.0;
    format      ascii;
    class       volScalarField;
    location    "600";
    object      epsilon;
}
// * * * * * * * * * * * * * * * * * * * * * * * * * * * * * * * * * * * * * //

dimensions      [0 2 -3 0 0 0 0];

internalField   nonuniform List<scalar> 
120313
(
68.5179
74.9205
82.0368
87.7917
90.7211
91.9615
92.3479
91.4897
89.8826
86.3053
82.3103
78.3207
73.455
68.578
64.3303
61.2134
58.016
55
51.8731
49.0417
46.1945
43.5289
40.8632
38.3304
68.5921
73.4046
80.4013
86.8375
90.1971
92.0052
92.8208
91.651
89.5503
86.8375
83.3166
79.0961
74.515
70.2711
66.3113
62.7238
59.3792
56.14
52.8827
49.8879
46.9373
43.8378
40.6087
39.4535
66.1553
70.1322
76.6383
82.7843
86.2886
88.2349
89.3578
88.8179
86.8949
84.1975
80.5222
76.3226
71.9206
67.7818
63.9679
60.4796
57.2478
54.1403
51.0489
48.1825
45.3711
42.3759
39.165
38.5269
65.1406
68.8668
75.2355
81.4055
84.9635
87.0547
88.3561
88.1035
86.3011
83.5817
79.7901
75.5597
71.2095
67.0742
63.3015
59.8211
56.6141
53.5573
50.5346
47.7324
44.9741
42.0301
38.8359
38.3795
65.0147
68.7707
75.1718
81.3795
84.9529
87.0814
88.4238
88.1827
86.4127
83.6904
79.8796
75.6282
71.2777
67.1223
63.3574
59.8788
56.6711
53.6139
50.5944
47.7888
45.0328
42.0916
38.879
38.4481
65.8356
69.9066
76.5089
82.8068
86.3746
88.4302
89.6743
89.1632
87.3846
84.7006
80.9442
76.6603
72.268
68.0803
64.3073
60.7984
57.5448
54.4117
51.3065
48.4117
45.5999
42.6083
39.3417
38.7187
68.4506
73.4681
80.6631
87.3594
90.94
92.8675
93.7627
92.4853
90.7957
88.158
84.4176
79.9514
75.4418
71.131
67.233
63.5841
60.1774
56.8624
53.5695
50.5221
47.5604
44.4549
41.1231
39.9674
70.1881
76.9198
84.4715
90.9644
94.1415
95.6627
96.1176
95.1941
93.5044
89.5914
85.5179
81.1896
76.105
71.2134
67.0133
63.7155
60.3796
57.1734
53.9165
50.9609
48.0547
45.315
42.3429
39.6556
2.12696
4.36891
7.13123
10.5515
14.8114
20.2409
27.4724
37.2337
46.7166
55.3192
63.9751
70.8908
75.3403
78.0546
79.2379
79.3827
78.7494
77.5435
75.7189
73.2859
70.1375
66.577
62.7947
59.0035
55.5466
52.1499
48.9231
45.8448
42.9462
40.2368
37.68
35.2901
33.0374
30.9359
29.0231
27.6452
2.05103
4.2809
7.03573
10.4318
14.6776
20.1507
27.5221
37.2701
47.7871
62.7146
74.5113
83.5471
89.3799
92.3533
93.4324
93.4993
92.5484
91.1244
88.0964
84.5931
80.2222
75.748
71.172
66.6491
62.3178
58.0842
54.1334
50.3238
46.9065
43.5876
40.6099
37.7683
34.777
32.0358
29.8257
27.8892
1.87582
4.09157
6.78457
10.0876
14.2033
19.5107
26.6788
36.1798
46.987
62.4991
76.6751
87.2717
92.8736
96.442
97.8924
98.3869
97.212
95.2308
92.0675
88.0815
83.6834
78.8948
74.0044
69.2445
64.7425
60.3036
56.1847
52.2133
48.6834
45.233
42.0999
39.124
35.7857
32.6044
30.7229
28.433
1.79978
3.99553
6.63492
9.85195
13.8396
18.9741
25.9037
35.0678
45.7894
61.6067
76.5997
87.3261
94.2134
97.8551
99.4435
100.216
99.3398
96.8321
93.7107
89.4441
84.7706
79.8393
74.9123
70.089
65.5287
61.0312
56.8712
52.8551
49.2714
45.7974
42.6014
39.6123
36.0199
32.9945
30.7735
28.5725
1.87025
4.02226
6.63248
9.80428
13.7197
18.7543
25.5185
34.4184
45.0526
60.9929
76.1967
87.0423
94.2292
98.0702
99.8306
100.888
99.6831
97.265
94.0756
89.748
84.9841
80.0071
75.085
70.2272
65.6744
61.1407
57.007
52.984
49.4217
45.9549
42.7741
39.784
36.1574
33.1583
30.9854
28.7533
1.90837
4.02739
6.61795
9.76645
13.6485
18.642
25.3477
34.1738
44.8402
60.8353
76.0169
86.8981
94.1136
97.9867
99.7797
100.906
99.6212
97.2667
94.0368
89.7208
84.946
79.9679
75.0511
70.2027
65.6391
61.1202
56.9886
52.9739
49.4138
45.9561
42.7857
39.7969
36.2195
33.1247
31.1953
28.8971
1.85806
3.9679
6.5548
9.70653
13.606
18.6303
25.3977
34.323
45.1192
61.1893
76.1027
86.9341
93.8638
97.6004
99.3159
100.282
99.2237
96.8666
93.6452
89.4286
84.7117
79.786
74.8627
70.0872
65.5114
61.0211
56.8792
52.8638
49.2912
45.8351
42.6626
39.6698
36.1901
32.9948
31.2903
28.9483
1.75648
3.87689
6.47121
9.652
13.6172
18.7485
25.7132
34.9834
46.1294
62.152
76.2349
87.0241
92.6463
96.3237
97.9247
98.7137
97.6842
95.6408
92.198
88.3779
83.9277
79.0359
74.1693
69.4657
64.924
60.4997
56.3896
52.4274
48.8924
45.4517
42.3248
39.3204
36.0647
32.8114
31.3981
28.9842
1.75515
3.87239
6.50058
9.7635
13.8817
19.2557
26.6104
36.5299
47.9424
63.3053
75.4355
85.1845
90.1523
93.447
94.8666
95.1689
94.3418
93.1814
89.3051
85.8641
81.4476
76.8245
72.1187
67.5699
63.2142
58.9652
54.9768
51.1346
47.6743
44.3408
41.3173
38.4166
35.451
32.4468
31.2237
29.0255
1.76935
3.87217
6.51728
9.82843
14.0355
19.5473
27.1242
37.4631
48.7207
62.3003
72.4377
80.6497
85.829
88.5461
89.5858
89.6862
88.8549
87.4551
85.3813
82.246
78.2067
73.8887
69.5936
65.2193
61.1856
57.2444
53.4817
49.8805
46.5338
43.4296
40.5138
37.9178
35.3086
32.2951
31.2103
29.0215
1.75819
3.87159
6.54649
9.90054
14.1568
19.702
27.269
37.5094
47.2297
56.5639
65.56
72.1705
76.8133
79.6189
80.9195
81.1546
80.5689
79.3874
77.5963
75.1196
71.9674
68.2151
64.2955
60.4136
56.7772
53.3279
50.0318
46.8527
43.8461
41.0378
38.4048
35.955
33.6662
31.4986
29.6356
27.9776
1.6069
3.76837
6.4512
9.83736
14.1248
19.6208
26.9068
36.6229
46.4885
54.9235
63.6378
70.7477
75.3466
78.2755
79.6426
79.9397
79.4257
78.2592
76.4155
73.9908
70.9927
67.3998
63.5412
59.7062
56.0997
52.6088
49.2829
46.0913
43.0624
40.2124
37.5517
35.0908
32.8102
30.7762
28.8873
27.4479
90.2904
105.513
121.012
130.527
135.136
135.9
134.24
130.449
125.114
119.076
112.849
106.849
99.794
93.0482
86.4441
80.1296
74.1365
68.5071
63.2597
58.4035
53.982
49.9248
46.2674
43.1966
2.054
3.94844
6.7077
10.4684
15.5349
22.3041
31.1745
42.3976
59.2153
87.3754
103.283
118.646
127.747
132.204
133.026
131.602
128.116
123.021
117.016
110.379
104.966
97.7645
91.8408
85.1957
78.9864
73.1084
67.6272
62.5159
57.7958
53.4546
49.5078
45.8374
42.6545
39.6764
36.3392
33.7473
1.94113
3.80177
6.5497
10.2969
15.3731
22.2153
31.2576
42.7165
59.9002
88.7172
105.028
120.55
129.382
133.664
134.12
132.466
128.626
123.2
116.83
110.564
104.24
97.5232
90.9425
84.4713
78.3483
72.5326
67.1373
62.0933
57.4911
53.2087
49.3491
45.7114
42.4254
39.2524
36.877
34.073
1.79887
3.61988
6.30649
9.97784
14.9683
21.7468
30.7889
42.3465
59.4657
89.1054
106.229
122.192
131.068
135.318
135.51
133.486
128.988
122.955
117.641
111.092
104.488
97.7273
91.0438
84.5731
78.4592
72.6434
67.2771
62.2426
57.6791
53.3831
49.5474
45.8832
42.5179
39.1972
36.7544
34.0129
1.71407
3.50495
6.13174
9.71717
14.5921
21.2328
30.1343
41.5718
58.4935
88.2318
105.822
121.984
131.074
135.348
135.328
132.892
128.173
122.397
117.585
110.948
104.208
97.3934
90.6999
84.2409
78.1736
72.372
67.0599
62.064
57.5635
53.3024
49.5181
45.8782
42.4976
39.1232
36.6894
33.8428
1.73324
3.48924
6.08259
9.61448
14.4157
20.9518
29.718
40.9872
57.7136
87.3366
105.042
121.275
130.388
134.717
134.594
131.803
127.445
121.734
117.126
110.462
103.68
96.8629
90.3099
83.7171
77.7814
71.8105
66.6428
61.5723
57.2132
52.931
49.2569
45.6355
42.3288
38.9906
36.5918
33.6944
1.75029
3.48003
6.05272
9.55643
14.3216
20.8076
29.5078
40.6915
57.3643
86.982
104.699
120.993
130.136
134.483
134.333
131.475
127.167
121.493
116.871
110.208
103.444
96.6225
90.1073
83.4682
77.5497
71.6288
66.4735
61.4282
57.0773
52.8169
49.1632
45.5498
42.2655
38.9316
36.5472
33.6333
1.71428
3.43301
5.99029
9.48184
14.2418
20.736
29.466
40.7057
57.4911
87.12
104.74
121.077
130.228
134.582
134.534
131.977
127.383
121.624
116.926
110.319
103.567
96.7813
90.135
83.734
77.7607
71.9454
66.7327
61.6965
57.2537
53.0205
49.2869
45.6775
42.3498
38.9873
36.5692
33.686
1.65953
3.3835
5.93998
9.44147
14.2364
20.8008
29.6428
41.0473
58.0454
87.4649
104.835
121.072
130.091
134.406
134.595
132.515
127.732
122.086
116.766
110.362
103.767
97.0522
90.4177
84.0359
77.9846
72.2484
66.9433
61.9721
57.4543
53.1979
49.3969
45.7441
42.4134
39.0768
36.641
33.8172
1.66886
3.39722
5.97433
9.52237
14.4078
21.1132
30.1452
41.7641
59.0123
87.8256
104.699
120.529
129.288
133.534
133.912
132.169
128.162
122.391
116.385
110.157
103.644
97.0258
90.4576
84.0651
78.0202
72.2795
66.96
61.9662
57.4083
53.1434
49.2886
45.6601
42.3771
39.1138
36.7108
33.9764
1.70086
3.43544
6.03973
9.63855
14.6096
21.4298
30.5752
42.2401
59.4151
87.5261
103.917
119.213
127.906
132.126
132.641
131.038
127.325
122.159
115.926
109.694
103.433
96.8942
90.383
84.0332
78.0379
72.3192
66.9921
62.0056
57.4213
53.175
49.2958
45.7115
42.4558
39.2563
36.8919
34.1335
1.69639
3.44694
6.05947
9.67711
14.6748
21.5041
30.6086
42.1469
59.2913
87.7925
104.281
119.841
128.924
133.394
134.162
132.604
128.955
123.756
117.705
111.058
105.401
98.5175
91.8989
85.3744
79.1617
73.2495
67.7299
62.5783
57.8437
53.463
49.5183
45.823
42.5878
39.5774
36.2181
33.6333
1.63138
3.3978
5.9779
9.5676
14.5154
21.2637
30.2881
41.8469
59.3435
88.7785
106.301
122.636
132.31
136.984
137.75
136.072
132.156
126.529
120.304
113.466
107.966
100.631
93.7181
86.8912
80.3871
74.2296
68.5035
63.1954
58.3299
53.854
49.8589
46.0969
42.8795
39.7716
36.2411
33.5193
147.676
154.014
163.906
167.536
166.384
161.36
153.615
144.509
134.877
125.3
116.134
107.424
99.3257
91.8049
84.9691
78.6754
72.8359
67.5599
62.5721
58.144
53.9445
50.2535
46.8756
43.9667
1.74509
3.57182
6.89181
12.5183
21.5551
34.0034
49.4508
67.7401
100.192
148.011
152.965
163.322
167.737
166.617
161.837
154.322
145.331
135.767
126.171
116.874
108.152
99.9723
92.5643
85.6849
79.4114
73.4481
68.0882
63.0638
58.5555
54.3582
50.5968
47.0211
44.088
40.6651
40.1043
37.5756
1.64783
3.42039
6.74567
12.529
21.9196
34.9393
51.1578
70.1236
103.497
150.202
154.689
163.845
167.054
165.567
160.13
152.245
143.091
133.382
123.635
114.382
105.795
97.7527
90.5274
83.7321
77.638
71.8534
66.659
61.7966
57.4525
53.4061
49.776
46.3484
43.2198
40.1678
37.7165
34.8099
1.52287
3.1847
6.37213
12.0733
21.3672
34.4528
50.8553
70.117
103.298
149.189
153.864
162.412
164.492
162.329
156.269
147.991
138.502
128.584
119.107
110.045
101.637
93.7944
86.8187
80.3699
74.5456
69.167
64.2994
59.7433
55.6519
51.8412
48.4681
45.2728
42.3514
39.3881
36.6923
34.2206
1.42879
3.01332
6.08077
11.5847
20.6036
33.4583
49.5291
68.5631
101.373
147.121
151.94
159.828
161.609
158.765
152.273
143.664
133.809
124.006
114.668
105.681
97.3626
89.842
83.1181
76.9196
71.4113
66.2692
61.7385
57.4988
53.7222
50.1652
47.0616
44.0807
41.371
38.5057
35.8414
33.3838
1.42432
2.97698
5.96376
11.3025
20.2245
32.9029
48.7471
67.5806
100.025
145.573
150.403
158.194
159.543
156.486
149.789
140.996
131.058
121.261
111.888
102.916
94.6447
87.3213
81.705
73.8342
69.7021
62.8429
59.8136
54.4784
52.0348
47.6927
45.5421
42.4202
40.178
37.5879
35.0799
32.7116
1.43782
2.96666
5.91726
11.2068
20.09
32.7107
48.4722
67.1574
99.4784
145.237
150.025
157.903
159.209
156.078
149.291
140.413
130.429
120.602
111.2
102.225
94.0766
86.6238
81.3183
72.7467
68.9136
62.249
59.2938
54.0088
51.5972
47.3319
45.2549
42.0619
39.8691
37.3209
34.8307
32.4828
1.41953
2.93196
5.86756
11.1484
19.9575
32.527
48.3161
67.0996
99.4733
145.72
150.514
158.898
160.413
157.481
150.819
142.038
132.056
122.212
112.795
103.799
95.4777
88.0529
81.6219
75.2606
70.5269
64.5296
60.9083
55.7556
52.4993
49.0038
46.1215
43.3103
40.6895
37.8752
35.2356
32.7958
1.37659
2.90494
5.85594
11.1181
20.0303
32.7142
48.4944
67.3342
99.8843
146.799
151.674
160.7
162.806
160.277
153.877
145.323
135.532
125.583
116.138
107.066
98.6985
91.1215
84.329
78.1229
72.5241
67.3765
62.7292
58.3934
54.4575
50.7965
47.5419
44.4465
41.591
38.6261
35.9024
33.3971
1.39309
2.94102
5.95112
11.3339
20.4218
33.3364
49.2699
68.2593
101.155
148.367
153.41
163.198
165.679
163.634
157.587
149.339
139.935
129.942
120.265
111.177
102.771
94.8536
87.8669
81.3467
75.5298
70.0785
65.1709
60.5268
56.3665
52.4508
48.9672
45.6439
42.5877
39.5235
36.833
34.1531
1.43654
3.01738
6.09951
11.6128
20.9038
34.0645
50.3013
69.5561
102.804
149.878
154.965
165.208
168.042
166.253
160.457
152.41
143.179
133.402
123.675
114.441
105.89
97.9602
90.8467
84.2364
78.2627
72.5209
67.335
62.4293
58.0288
53.8928
50.1753
46.6674
43.4402
40.3696
37.6399
34.9694
1.43821
3.06491
6.15481
11.6235
20.9407
33.9168
49.9306
69.1563
102.767
149.812
155.037
165.827
169.401
167.862
162.38
154.507
145.37
135.743
126.052
116.747
108.104
100.052
92.7889
86.0176
79.8131
73.8789
68.5036
63.4433
58.8746
54.6121
50.7451
47.1595
43.876
41.4738
40.0504
37.3345
1.38997
2.98158
5.8937
11.0384
19.7802
32.1366
47.6152
66.571
100.629
148.209
153.476
164.757
169.587
168.292
162.992
155.215
146.144
136.547
126.879
117.605
108.974
100.827
93.4606
86.4406
80.0711
74.0309
68.5818
63.477
58.8702
54.5798
50.7373
47.0575
43.7835
41.4384
40.0494
37.2957
117.34
97.9405
83.8085
71.8548
61.6504
53.2716
46.7932
41.5518
37.2276
33.6552
30.6238
28.25
26.234
24.5262
23.0321
21.8856
20.8248
20.0262
19.1947
18.5631
17.8806
17.2909
16.7941
15.6113
49.3309
140.56
193.8
213.281
216.637
214.679
211.88
208.737
210.162
118.702
98.6971
84.0204
71.9829
61.7942
53.1925
46.4985
41.1664
36.8015
33.2158
30.2301
27.8664
25.9027
24.1916
22.749
21.5405
20.5333
19.644
18.8912
18.1907
17.5866
17.0065
16.4793
16.0297
14.8252
18.4356
19.8242
47.4177
148.68
202.894
222.156
223.703
221.14
217.725
213.237
209.701
112.882
93.8254
79.3863
67.5922
57.4524
49.5924
43.4358
38.5059
34.4347
31.3341
28.788
26.6067
24.7604
23.1523
21.7338
20.4577
19.4129
18.5282
17.8003
17.1649
16.6066
16.1683
15.6772
15.4107
14.7193
14.2939
12.9778
42.7075
141.218
201.089
223.047
225.401
222.429
218.485
213.749
207.566
108.541
90.081
75.4349
63.4169
53.4037
45.9636
40.0887
35.4582
32.0038
29.2809
26.9912
24.9743
23.2162
21.6734
20.3115
19.1284
18.0957
17.1954
16.4677
15.8923
15.4026
15.0502
14.7008
14.488
13.8867
13.3319
12.1384
41.5896
131.637
195.717
220.883
223.92
220.996
216.385
211.834
205.702
107.486
88.8268
73.6438
61.1771
51.0807
43.7177
37.7121
33.4388
30.2624
27.7237
25.5317
23.5879
21.8954
20.4176
19.113
17.9696
16.9813
16.1249
15.3804
14.8057
14.367
14.0706
13.8113
13.6595
13.0772
12.4958
11.318
39.0126
130.264
192.296
221.001
223.965
219.658
214.61
210.135
204.923
107.739
88.8535
73.2984
60.5785
50.2454
42.8034
36.616
32.4547
29.3528
26.8549
24.6898
22.7421
21.1068
19.622
18.4105
17.178
16.2396
15.3442
14.6592
14.1075
13.7101
13.4705
13.2737
13.163
12.6165
12.0467
10.9052
36.3364
133.264
193.65
218.941
222.335
218.976
214.161
209.74
205.867
107.938
88.9521
73.303
60.4871
50.0799
42.5801
36.3683
32.2256
29.1316
26.6567
24.4641
22.539
20.9168
19.4306
18.2042
16.9841
16.058
15.1725
14.4942
13.9338
13.5317
13.2881
13.0928
12.9676
12.4228
11.8536
10.7175
41.3048
135.019
195.195
220.307
223.487
219.433
214.281
209.74
205.815
108.152
89.0222
73.7012
61.0794
50.7549
43.2688
37.1129
32.8344
29.6757
27.1309
24.9582
23.006
21.332
19.8653
18.6139
17.4698
16.5256
15.6519
14.9128
14.3129
13.8665
13.5745
13.3247
13.152
12.5495
11.9618
10.8142
40.1149
131.656
193.402
220.789
224.128
219.883
214.753
210.585
205.861
108.298
89.7599
75.0042
62.7044
52.4853
44.8631
38.82
34.236
30.856
28.2219
25.9486
23.9883
22.2735
20.7918
19.4752
18.3333
17.3399
16.4718
15.7208
15.1271
14.634
14.2752
13.9268
13.6561
12.9703
12.3548
11.1884
41.5377
133.411
195.15
222.595
226.174
221.684
215.92
211.541
207.597
109.099
90.9394
76.6647
64.8411
54.6346
46.9524
40.9835
36.0683
32.4626
29.6386
27.2469
25.2368
23.4552
21.9206
20.553
19.3758
18.3331
17.4463
16.7131
16.1179
15.5689
15.1543
14.6822
14.3276
13.5864
12.9789
11.8251
43.7581
137.962
196.045
223.099
227.504
223.184
217.573
213.203
208.896
109.561
91.5744
77.6573
66.1628
56.15
48.5519
42.6164
37.783
33.9229
30.9544
28.4804
26.3631
24.5695
23.0236
21.6722
20.472
19.4701
18.6314
17.8945
17.2612
16.6339
16.1421
15.5177
15.1039
14.2553
13.7545
12.6256
38.839
137.284
194.951
223.182
227.601
222.813
217.842
214.564
210.761
111.729
93.4026
79.43
67.9571
58.0231
50.2847
44.2179
39.3575
35.3275
32.1612
29.5722
27.3989
25.5725
23.9673
22.5943
21.4007
20.4546
19.568
18.8222
18.1065
17.4302
16.8544
16.1387
15.753
14.3907
17.4333
18.7671
44.8656
117.273
176.467
208.343
215.611
214.114
210.971
208.97
209.344
113.724
94.7824
80.5128
68.8288
58.7817
50.9599
44.9056
40.0155
35.9969
32.7509
30.1407
27.9416
26.0958
24.4467
23.0553
21.8057
20.824
19.8818
19.116
18.3541
17.6667
17.0538
16.3227
15.9285
14.5671
17.6523
18.9646
1.5991
1.90713
2.10793
2.21085
2.24693
2.24109
2.20929
2.16105
2.10376
2.0461
1.98953
1.94183
1.89922
1.86741
1.84454
1.83252
1.82882
1.83474
1.84717
1.86663
1.89026
1.91779
1.948
1.81342
0.00997206
0.00936768
0.00889476
0.00850665
0.00816532
0.00785294
0.00935014
0.0210487
0.0506053
0.083189
0.179083
0.4926
1.21236
1.74443
1.36269
1.70398
1.92964
2.057
2.11107
2.11994
2.09762
2.05683
2.00561
1.95013
1.8995
1.85094
1.812
1.78005
1.75922
1.74871
1.74529
1.74994
1.76242
1.78053
1.80421
1.83354
1.86384
1.89395
1.78999
2.47153
2.8412
0.00997235
0.00935313
0.00891021
0.0085041
0.00815242
0.00784035
0.00776601
0.0110834
0.0209617
0.0345812
0.0998757
0.310103
0.796217
1.32693
1.15424
1.48062
1.69023
1.80398
1.85452
1.86484
1.84804
1.81509
1.77195
1.72642
1.68002
1.6411
1.60439
1.57616
1.55538
1.54296
1.53837
1.54149
1.5522
1.56963
1.59435
1.62747
1.67001
1.71903
1.7481
1.75915
1.73346
0.00997231
0.00934843
0.00890789
0.00848214
0.00815871
0.00788246
0.00762456
0.00924848
0.0117526
0.0200491
0.0612306
0.195613
0.514205
1.03901
1.03121
1.34326
1.53164
1.62801
1.66492
1.66853
1.64576
1.60927
1.56419
1.51887
1.47554
1.43903
1.40389
1.37465
1.3513
1.33554
1.32722
1.32652
1.33334
1.34793
1.37043
1.40046
1.43903
1.47882
1.50679
1.5139
1.52972
0.00990758
0.00931627
0.00889328
0.00847522
0.00816885
0.00788016
0.00764327
0.0086438
0.010116
0.018329
0.0552092
0.165819
0.429095
0.982572
1.00922
1.31119
1.48405
1.56479
1.58893
1.57751
1.54295
1.49731
1.44808
1.40111
1.35672
1.31908
1.28262
1.25233
1.22657
1.20713
1.19392
1.18808
1.18936
1.1979
1.21415
1.23708
1.26619
1.29461
1.31413
1.31713
1.33084
0.00990649
0.009331
0.00890803
0.00850844
0.00815734
0.00783699
0.0075896
0.00845139
0.0110847
0.0210083
0.0612191
0.178169
0.458004
1.01519
1.02791
1.32814
1.49453
1.56183
1.5857
1.56298
1.51739
1.464
1.40914
1.3579
1.30973
1.26802
1.22828
1.19415
1.16568
1.14193
1.12552
1.1153
1.11334
1.11882
1.13271
1.15322
1.17923
1.20492
1.22427
1.23022
1.23913
0.00990677
0.00934119
0.00890461
0.00849945
0.00815587
0.00785008
0.0076437
0.0100004
0.0155814
0.0266006
0.0698994
0.18845
0.468708
1.04191
1.03098
1.33467
1.5
1.56452
1.58505
1.56001
1.51232
1.45738
1.40134
1.3484
1.30138
1.25666
1.21728
1.18192
1.15298
1.12894
1.11198
1.10087
1.09787
1.10188
1.11381
1.13201
1.15536
1.17867
1.19652
1.19825
1.21068
0.00990761
0.00931326
0.00886246
0.00849874
0.0081506
0.00788321
0.00759913
0.00875201
0.0103762
0.0177198
0.0529306
0.168562
0.454847
1.04132
1.02032
1.32262
1.49334
1.56865
1.58888
1.57137
1.52998
1.47878
1.4252
1.3746
1.32736
1.28645
1.24754
1.21473
1.18747
1.16556
1.15011
1.14052
1.13745
1.14118
1.1521
1.16911
1.19134
1.21352
1.22978
1.23259
1.23901
0.00997321
0.00933545
0.00888648
0.00849922
0.00815852
0.00784476
0.00756082
0.00808675
0.010743
0.0200813
0.0568398
0.162263
0.413778
0.966409
1.00632
1.31882
1.50558
1.59681
1.62856
1.62113
1.58966
1.54398
1.49282
1.44271
1.39792
1.35609
1.32009
1.28875
1.26308
1.24442
1.23227
1.22742
1.22889
1.23685
1.25108
1.27008
1.29341
1.31518
1.32946
1.33059
1.3357
0.00990748
0.00933557
0.00889036
0.00849689
0.0081529
0.00787002
0.00758053
0.00811902
0.0108951
0.0206325
0.0583182
0.167695
0.427175
0.994755
1.03664
1.35322
1.55202
1.65664
1.69559
1.70332
1.68011
1.64301
1.5964
1.54763
1.50323
1.46193
1.42703
1.39662
1.37351
1.35794
1.35141
1.34957
1.35586
1.36792
1.38596
1.40753
1.43186
1.4546
1.47134
1.47408
1.48662
0.00990758
0.00932138
0.00889599
0.00847231
0.00816993
0.00787106
0.00759872
0.00824726
0.0103066
0.0198657
0.0636099
0.193919
0.490595
1.03586
1.03753
1.36141
1.56936
1.68504
1.74035
1.75589
1.74486
1.71809
1.68129
1.64207
1.60189
1.5688
1.5379
1.51538
1.5008
1.49726
1.49739
1.50517
1.51922
1.53789
1.56026
1.58516
1.60961
1.63289
1.64766
1.66725
1.66382
0.00997266
0.00935301
0.00891592
0.00849859
0.00814522
0.0078425
0.00764928
0.00899117
0.0155153
0.0268614
0.0720426
0.207911
0.527873
1.07824
1.11244
1.43935
1.6538
1.77551
1.83575
1.855
1.84779
1.82395
1.79068
1.75364
1.72014
1.68805
1.6644
1.64561
1.63955
1.63577
1.64336
1.65588
1.67492
1.69655
1.72165
1.74798
1.77482
1.80103
1.67447
2.27926
2.56001
0.00991023
0.00931274
0.00885451
0.0085023
0.00814802
0.00784513
0.00823692
0.0138039
0.031323
0.0459981
0.0958226
0.272647
0.704294
1.25628
1.18826
1.50934
1.72117
1.84021
1.89809
1.91587
1.90833
1.8849
1.85249
1.81637
1.7847
1.75431
1.73288
1.7162
1.71236
1.70855
1.71649
1.72813
1.74667
1.76707
1.79161
1.81671
1.84417
1.87208
1.71574
2.34877
2.66706
0.00592241
0.00625803
0.0067513
0.00735143
0.00801621
0.00872048
0.00944213
0.0101684
0.0108892
0.0116092
0.0123335
0.0130782
0.013853
0.0146859
0.0155946
0.0166079
0.0177479
0.0190454
0.0205104
0.0221798
0.0240465
0.0261432
0.0283381
0.0276126
0.00995171
0.00952284
0.00910559
0.00871151
0.00834287
0.00799905
0.0076772
0.00737472
0.00709187
0.00682678
0.00657767
0.00634203
0.0061175
0.00580934
0.00580294
0.00604994
0.00645204
0.00696601
0.00755619
0.00819234
0.00885319
0.00952063
0.0101875
0.0108489
0.0115182
0.0121969
0.0129071
0.013661
0.0144907
0.0154102
0.0164532
0.0176293
0.0189716
0.0204881
0.0222116
0.0241762
0.026457
0.028696
0.0273318
0.0422253
0.0522574
0.00995025
0.00951563
0.00910211
0.00870962
0.00834115
0.00799605
0.00767218
0.00736913
0.00708473
0.00681788
0.0065674
0.00632998
0.00610353
0.00588232
0.00574541
0.00590881
0.00620143
0.0065786
0.00701774
0.00749826
0.00800025
0.0085127
0.00902435
0.00953606
0.0100446
0.0105644
0.0110964
0.0116639
0.0122777
0.012965
0.0137384
0.0146272
0.0156466
0.0168258
0.0182019
0.0198526
0.021889
0.0243697
0.0265731
0.0286284
0.0300976
0.00994758
0.00951098
0.0090971
0.00870485
0.0083364
0.00799107
0.007667
0.00736375
0.00707913
0.00681243
0.00656165
0.00632426
0.00609903
0.00588406
0.00571426
0.00582935
0.00605383
0.00634599
0.00668388
0.00705048
0.00742933
0.00781029
0.00818272
0.00854764
0.0089077
0.00927315
0.00964463
0.0100351
0.0104534
0.0109179
0.0114408
0.0120483
0.0127565
0.0135941
0.0145913
0.0157949
0.017258
0.018969
0.0206172
0.0222474
0.0237985
0.00994794
0.00951131
0.00909733
0.00870523
0.0083369
0.00799168
0.00766766
0.00736415
0.00707953
0.00681268
0.00656093
0.00632294
0.00609926
0.0058842
0.00570612
0.00581486
0.00601782
0.00628012
0.00657616
0.00688892
0.00720233
0.00750744
0.00779884
0.00808112
0.00835609
0.00863365
0.00891294
0.00920674
0.0095188
0.00986297
0.0102476
0.0106906
0.0112062
0.011816
0.0125388
0.013391
0.0143877
0.015489
0.0166165
0.017819
0.0189983
0.00994816
0.00951145
0.00909743
0.00870533
0.00833704
0.00799198
0.00766774
0.0073641
0.00708015
0.00681297
0.00656093
0.00632288
0.00609856
0.00588445
0.00571152
0.00582716
0.00603597
0.006299
0.00659113
0.00689149
0.00718375
0.00746136
0.00772111
0.00796799
0.00820444
0.00843871
0.00867121
0.00891214
0.0091669
0.00944497
0.00975595
0.0101135
0.0105325
0.0110308
0.0116223
0.0123154
0.0131144
0.0139995
0.0149666
0.0160076
0.0170603
0.00994807
0.00951139
0.00909752
0.00870555
0.00833733
0.00799227
0.00766816
0.00736493
0.00708095
0.00681346
0.00656118
0.00632307
0.00609966
0.00588401
0.0057131
0.00583211
0.0060441
0.00630911
0.00660097
0.00689893
0.00718674
0.0074587
0.00771202
0.00795144
0.00818153
0.00840664
0.00863043
0.00886134
0.00910513
0.00937181
0.00966951
0.0100115
0.0104098
0.0108814
0.0114364
0.0120815
0.0128209
0.0136465
0.0145549
0.0155449
0.0165286
0.00994826
0.00951163
0.00909769
0.00870548
0.0083371
0.00799196
0.00766793
0.00736471
0.00708025
0.00681273
0.00656079
0.00632318
0.00609982
0.00588366
0.00570878
0.00582228
0.00603056
0.00629624
0.00659245
0.00690061
0.00720381
0.00749393
0.00776728
0.00802824
0.00827999
0.00853043
0.00878059
0.00904148
0.00931861
0.00962238
0.00996018
0.0103452
0.0107863
0.0113009
0.0118991
0.0125894
0.0133791
0.0142593
0.0152235
0.0162548
0.0172949
0.0099483
0.00951166
0.00909774
0.00870562
0.00833728
0.00799212
0.00766783
0.00736438
0.00708058
0.0068129
0.00656062
0.006323
0.00609917
0.00588294
0.00570474
0.00581649
0.00603172
0.00631141
0.00663021
0.00696873
0.00731039
0.00764359
0.00796133
0.00826689
0.00856499
0.00886223
0.00916363
0.00947981
0.00981685
0.0101901
0.0106081
0.0110895
0.0116437
0.0122879
0.013034
0.0138874
0.0148574
0.0159344
0.0171018
0.0183269
0.019571
0.00994812
0.00951142
0.00909741
0.00870524
0.00833678
0.00799149
0.00766727
0.00736367
0.00707988
0.00681229
0.00656005
0.00632244
0.00609862
0.0058834
0.00571272
0.00583481
0.00606882
0.00637449
0.00672877
0.0071137
0.00750975
0.00790844
0.00829827
0.00867784
0.00905164
0.00942715
0.00981085
0.0102141
0.0106485
0.0111314
0.0116767
0.0123036
0.0130261
0.0138589
0.0148152
0.0159043
0.0171304
0.018504
0.019996
0.0216717
0.0231779
0.00994822
0.00951185
0.00909789
0.00870555
0.00833697
0.0079916
0.00766719
0.00736345
0.0070797
0.0068127
0.0065607
0.006323
0.00609887
0.00588231
0.00571321
0.00583676
0.00607813
0.00639879
0.00677869
0.00720046
0.00764584
0.00810529
0.00856835
0.00903555
0.00950482
0.00998902
0.0104903
0.0110302
0.0116205
0.0122872
0.0130448
0.0139157
0.0149103
0.0160437
0.0173264
0.0187666
0.0203632
0.0221192
0.0239347
0.0260971
0.0278843
0.00994796
0.00951313
0.00909869
0.00870535
0.00833628
0.00799098
0.00766688
0.00736343
0.00708024
0.00681282
0.00656072
0.00632368
0.00609864
0.0058841
0.00573262
0.00588095
0.00615686
0.00651846
0.00694699
0.007423
0.00793069
0.0084573
0.00899755
0.0095489
0.0101197
0.0107131
0.0113462
0.0120302
0.0127925
0.0136479
0.0146247
0.0157325
0.0169954
0.0184144
0.0200153
0.0217926
0.0237599
0.0259266
0.0243616
0.0369469
0.0449915
0.00994981
0.00952114
0.00910096
0.00870551
0.00833566
0.00799042
0.00766727
0.00736451
0.00708086
0.00681319
0.0065612
0.00632404
0.00610051
0.00588376
0.00574277
0.0059109
0.00620991
0.00659625
0.0070531
0.00755943
0.00810144
0.00866624
0.00925015
0.00984958
0.0104768
0.0111327
0.0118386
0.0126026
0.0134586
0.0144111
0.0154942
0.0167081
0.0180881
0.0196246
0.0213545
0.0232563
0.0253887
0.0277318
0.0253847
0.0398976
0.0484273
0.00555793
0.005435
0.00517182
0.00499312
0.00484625
0.00470504
0.00457021
0.0044392
0.00431302
0.0041892
0.00406876
0.00395026
0.00383532
0.00372226
0.00361272
0.00350522
0.00340152
0.00330024
0.00320301
0.00310852
0.00301836
0.00293212
0.00285459
0.00278445
0.00994999
0.0095203
0.0091032
0.00870896
0.00833914
0.00799281
0.00766835
0.00736396
0.00707801
0.0068091
0.00655595
0.0063171
0.00608915
0.00584951
0.00560034
0.00541509
0.00523006
0.00499734
0.00484895
0.00470806
0.00457219
0.00444184
0.00431484
0.00419184
0.00407095
0.00395324
0.00383783
0.0037256
0.00361555
0.00350873
0.00340449
0.00330378
0.00320599
0.00311191
0.00302099
0.0029338
0.0028496
0.00276812
0.0027035
0.00266988
0.00260055
0.00994894
0.00951258
0.00909927
0.00870721
0.00833759
0.00799071
0.00766553
0.00736047
0.00707389
0.00680442
0.0065508
0.00631143
0.00608498
0.00585584
0.00561689
0.00538148
0.00525742
0.00501029
0.00484277
0.00470147
0.00456576
0.00443522
0.00430826
0.00418507
0.00406411
0.00394604
0.00383042
0.00371792
0.00360768
0.00350063
0.0033961
0.00329514
0.00319694
0.00310254
0.00301096
0.00292325
0.00283802
0.00275607
0.00267755
0.0026029
0.00253814
0.00994843
0.00951039
0.00909672
0.00870581
0.00833654
0.00798958
0.00766413
0.00735886
0.00707226
0.006803
0.00654985
0.0063112
0.00608582
0.00585176
0.00560804
0.0053918
0.00525013
0.00504136
0.00484098
0.00470107
0.00456596
0.00443622
0.00430964
0.00418708
0.00406638
0.00394877
0.00383334
0.00372109
0.00361094
0.003504
0.00339939
0.00329834
0.00319976
0.00310498
0.00301265
0.00292403
0.00283758
0.00275472
0.00267482
0.00259979
0.00253536
0.00994804
0.00950971
0.00909601
0.00870541
0.00833652
0.00798988
0.00766464
0.00735949
0.00707304
0.00680398
0.00655092
0.00631229
0.0060869
0.005849
0.00560248
0.00539858
0.00524359
0.00505279
0.00484192
0.00470294
0.00456788
0.00443774
0.00431086
0.00418774
0.00406666
0.00394858
0.00383284
0.00372025
0.00360978
0.00350255
0.00339764
0.00329631
0.00319747
0.00310235
0.0030097
0.00292073
0.00283403
0.00275116
0.00267092
0.00259512
0.00252967
0.00994795
0.00950968
0.00909605
0.00870563
0.0083369
0.00799035
0.00766518
0.00736009
0.00707366
0.00680456
0.00655132
0.00631243
0.00608667
0.00584986
0.00560482
0.00539518
0.00524654
0.0050499
0.00484161
0.00470287
0.0045683
0.0044386
0.00431194
0.00418898
0.00406795
0.00394995
0.00383422
0.00372162
0.00361114
0.00350386
0.00339892
0.00329752
0.00319862
0.00310339
0.00301058
0.00292147
0.00283463
0.00275172
0.00267133
0.00259522
0.00252959
0.00994793
0.00950972
0.00909614
0.00870582
0.00833723
0.00799074
0.00766552
0.00736025
0.00707361
0.00680425
0.00655088
0.00631207
0.00608634
0.00585039
0.00560561
0.00539422
0.00524781
0.00504719
0.00484363
0.00470403
0.00456852
0.00443835
0.00431158
0.00418869
0.00406775
0.00394995
0.00383431
0.00372179
0.0036113
0.00350399
0.00339898
0.00329749
0.00319851
0.00310318
0.00301033
0.00292115
0.00283432
0.0027514
0.00267088
0.00259463
0.00252901
0.00994791
0.00950963
0.00909602
0.00870559
0.0083369
0.00799035
0.00766513
0.00735991
0.0070733
0.00680386
0.00655048
0.00631189
0.00608632
0.00585023
0.00560495
0.0053953
0.00524604
0.00504918
0.00484316
0.00470375
0.00456835
0.00443812
0.00431128
0.00418825
0.00406726
0.00394934
0.00383367
0.00372115
0.00361069
0.00350346
0.00339852
0.00329713
0.00319829
0.00310309
0.00301042
0.00292141
0.00283474
0.00275192
0.00267145
0.00259533
0.00252948
0.00994797
0.00950964
0.00909594
0.00870546
0.00833665
0.00799003
0.00766478
0.00735958
0.00707311
0.00680388
0.00655053
0.00631171
0.00608596
0.00585059
0.00560657
0.00539299
0.00524744
0.00504691
0.0048407
0.00470129
0.00456687
0.00443733
0.00431091
0.00418808
0.00406713
0.00394912
0.0038333