/*--------------------------------*- C++ -*----------------------------------*\
  =========                 |
  \\      /  F ield         | OpenFOAM: The Open Source CFD Toolbox
   \\    /   O peration     | Website:  https://openfoam.org
    \\  /    A nd           | Version:  7
     \\/     M anipulation  |
\*---------------------------------------------------------------------------*/
FoamFile
{
    version     2.0;
    format      ascii;
    class       volScalarField;
    location    "600";
    object      k;
}
// * * * * * * * * * * * * * * * * * * * * * * * * * * * * * * * * * * * * * //

dimensions      [0 2 -2 0 0 0 0];

internalField   nonuniform List<scalar> 
120313
(
1.11623
1.27584
1.37032
1.43914
1.4728
1.4867
1.49091
1.48188
1.46453
1.42588
1.38153
1.33611
1.28079
1.22261
1.17229
1.13338
1.09398
1.05517
1.01478
0.97681
0.937512
0.897133
0.850475
0.754179
1.20053
1.43994
1.557
1.64949
1.69535
1.71904
1.72957
1.71542
1.68915
1.65519
1.61049
1.55485
1.49501
1.43696
1.38276
1.332
1.28438
1.23675
1.18826
1.1418
1.09399
1.03811
0.968826
0.827085
1.18366
1.41917
1.53908
1.63319
1.68349
1.71026
1.72541
1.71909
1.69414
1.65886
1.61084
1.55399
1.49364
1.43565
1.38111
1.33033
1.28241
1.23532
1.18737
1.14128
1.09342
1.03604
0.961085
0.822271
1.17492
1.40916
1.53001
1.62644
1.67844
1.70765
1.72543
1.72287
1.69925
1.66337
1.61307
1.55541
1.49497
1.43647
1.38184
1.33065
1.28256
1.23573
1.18828
1.14262
1.09482
1.03712
0.960637
0.822732
1.17303
1.40731
1.52855
1.62547
1.67769
1.70741
1.72577
1.72338
1.70025
1.66445
1.61375
1.55596
1.49552
1.43675
1.38232
1.33116
1.28309
1.23623
1.18888
1.14319
1.09544
1.03778
0.960973
0.823339
1.17839
1.41412
1.53512
1.63121
1.68237
1.71061
1.72743
1.72162
1.69875
1.66365
1.61461
1.55701
1.49689
1.43839
1.38458
1.33364
1.28546
1.23807
1.19009
1.1437
1.09587
1.03855
0.962638
0.823913
1.19516
1.43592
1.55518
1.65082
1.69933
1.72457
1.73627
1.7212
1.70044
1.66702
1.62034
1.56226
1.50308
1.44512
1.3918
1.34082
1.29235
1.24414
1.19526
1.14838
1.10058
1.04475
0.973877
0.83169
1.12503
1.2896
1.38849
1.46467
1.50056
1.51741
1.52259
1.51316
1.49547
1.45361
1.4098
1.36112
1.30437
1.24701
1.19809
1.15784
1.11734
1.07686
1.0355
0.996467
0.95694
0.916
0.864954
0.765502
0.182792
0.353623
0.532726
0.726702
0.939473
1.17456
1.43523
1.71727
2.09068
2.33902
2.6629
2.92235
3.09743
3.19884
3.24863
3.26301
3.25375
3.22656
3.18243
3.1293
3.05164
2.95742
2.84955
2.73605
2.62566
2.51184
2.39981
2.28938
2.18483
2.08607
1.98842
1.89963
1.81087
1.7293
1.66176
1.61152
0.176399
0.34627
0.524607
0.716493
0.925786
1.15614
1.40879
1.66396
1.99237
2.86631
3.43122
3.79135
4.0181
4.13198
4.17578
4.17989
4.14923
4.1015
4.01656
3.93155
3.81497
3.68131
3.53597
3.38879
3.24188
3.09481
2.952
2.81186
2.68126
2.55341
2.43035
2.3276
2.11966
2.01198
1.70575
1.59468
0.164255
0.335016
0.511905
0.70077
0.905181
1.12834
1.36991
1.60143
1.87727
2.74531
3.46456
3.87928
4.1328
4.25347
4.2955
4.29951
4.2579
4.20728
4.13202
4.02796
3.89949
3.75659
3.60691
3.45512
3.3059
3.15595
3.01223
2.8706
2.73938
2.60974
2.48239
2.37555
2.09735
1.96689
1.69101
1.58519
0.158011
0.32917
0.504276
0.689856
0.888993
1.10429
1.33424
1.54766
1.79791
2.66851
3.43978
3.87853
4.13488
4.25987
4.30427
4.30961
4.27843
4.23313
4.14953
4.03535
3.90144
3.75423
3.60247
3.45029
3.30181
3.15342
3.01182
2.87267
2.74351
2.6162
2.49037
2.37802
2.0836
1.94457
1.67459
1.57445
0.16325
0.330724
0.503812
0.686615
0.881733
1.09142
1.31377
1.5179
1.76033
2.63494
3.4178
3.86292
4.11971
4.24684
4.29276
4.30055
4.27481
4.23141
4.143
4.02471
3.88731
3.73844
3.5856
3.43353
3.28601
3.1401
3.00142
2.86532
2.73898
2.61435
2.49148
2.37802
2.08232
1.94219
1.6738
1.57551
0.166591
0.33134
0.503042
0.68438
0.877704
1.08525
1.30527
1.50753
1.75121
2.62938
3.41122
3.85707
4.11462
4.24169
4.28731
4.29567
4.27038
4.22764
4.1383
4.01969
3.88141
3.73237
3.57946
3.4281
3.28082
3.13549
2.99728
2.86159
2.73559
2.61157
2.48955
2.37633
2.0823
1.94478
1.67662
1.57878
0.16336
0.327811
0.499548
0.681604
0.876469
1.08649
1.30993
1.51616
1.76701
2.65388
3.42195
3.8625
4.12124
4.24595
4.29017
4.29726
4.26688
4.22483
4.13857
4.02356
3.88666
3.73953
3.58782
3.43711
3.28896
3.14204
3.00172
2.86369
2.73568
2.61008
2.48633
2.37433
2.08226
1.95338
1.68227
1.58221
0.156304
0.322336
0.494926
0.679341
0.878627
1.09569
1.3295
1.54959
1.82493
2.73347
3.44886
3.86705
4.12468
4.24221
4.28433
4.29006
4.24631
4.20598
4.12576
4.01981
3.88643
3.744
3.59434
3.44451
3.29571
3.14774
3.00558
2.8654
2.7351
2.60676
2.4807
2.37262
2.09852
1.97746
1.69687
1.59111
0.156368
0.32141
0.494948
0.682878
0.889135
1.11796
1.37042
1.62228
1.95653
2.88998
3.4621
3.827
4.06167
4.16825
4.20758
4.21065
4.17792
4.13227
4.0442
3.95566
3.82937
3.6946
3.54872
3.40237
3.25641
3.11043
2.96845
2.82914
2.69864
2.57136
2.4481
2.34135
2.13391
2.03533
1.7369
1.61778
0.158501
0.321594
0.495518
0.685682
0.896503
1.13337
1.4002
1.68119
2.08547
2.99466
3.38146
3.70172
3.91029
4.01297
4.05458
4.06027
4.03341
3.98645
3.91834
3.84163
3.73444
3.60852
3.47339
3.33209
3.19435
3.05481
2.91673
2.78249
2.65379
2.53204
2.41268
2.30939
2.17373
2.09844
1.78107
1.64457
0.158081
0.321462
0.497339
0.690563
0.905223
1.14607
1.41672
1.70393
2.0851
2.33123
2.63329
2.88946
3.06368
3.16376
3.21469
3.23096
3.22446
3.19695
3.15363
3.09964
3.02924
2.93383
2.8257
2.71571
2.6036
2.49204
2.38026
2.27101
2.16596
2.06642
1.9708
1.88087
1.79207
1.71561
1.66321
1.6144
0.147081
0.31674
0.495857
0.693656
0.914626
1.16342
1.44411
1.75706
2.14977
2.39417
2.7085
2.97355
3.15196
3.25694
3.30952
3.3259
3.31878
3.2902
3.25012
3.19733
3.12881
3.03346
2.9222
2.80843
2.69197
2.57477
2.4584
2.34469
2.23474
2.12942
2.02842
1.9331
1.84314
1.76452
1.69475
1.63484
3.96203
4.46502
4.92005
5.19818
5.33453
5.36842
5.33928
5.27038
5.18165
5.08338
4.94539
4.79335
4.61651
4.4294
4.23721
4.0474
3.8604
3.67308
3.49646
3.32213
3.16261
3.0071
2.86153
2.74791
0.240375
0.431253
0.654397
0.910402
1.20572
1.54847
1.94625
2.40331
3.0135
3.90004
4.39419
4.86063
5.1152
5.24425
5.27579
5.24367
5.17796
5.09155
4.99066
4.87837
4.7468
4.56634
4.37607
4.18971
3.99864
3.81482
3.6307
3.45782
3.28812
3.13143
2.97996
2.83908
2.7071
2.60067
2.44343
2.32334
0.228546
0.41775
0.641396
0.896603
1.19089
1.53387
1.93407
2.39285
3.00759
3.87966
4.38004
4.84333
5.09139
5.21244
5.23369
5.19695
5.12993
5.04459
4.94829
4.83877
4.68182
4.5101
4.32214
4.13476
3.94314
3.76069
3.58025
3.41132
3.24748
3.09525
2.94797
2.81558
2.67774
2.55235
2.45058
2.32832
0.214705
0.402303
0.623867
0.876084
1.16636
1.5052
1.90148
2.35475
2.95051
3.81994
4.34861
4.80632
5.06241
5.18485
5.20792
5.17539
5.11539
5.0447
4.94744
4.8079
4.64256
4.46534
4.27726
4.0901
3.90408
3.72295
3.5478
3.38115
3.22199
3.07255
2.92887
2.80213
2.66127
2.52728
2.42503
2.30595
0.205808
0.392665
0.611289
0.859593
1.14451
1.47671
1.86473
2.30645
2.88475
3.7579
4.30173
4.76054
5.01308
5.14254
5.1702
5.14094
5.09082
5.03195
4.9103
4.76458
4.59513
4.41226
4.22448
4.03844
3.85714
3.67993
3.51118
3.34885
3.1964
3.05086
2.91187
2.78849
2.64922
2.51256
2.4114
2.29162
0.207693
0.391171
0.606932
0.851942
1.1328
1.45977
1.84097
2.27344
2.84283
3.71847
4.26579
4.72396
4.97484
5.1087
5.13657
5.11177
5.06752
5.00609
4.87933
4.72806
4.55495
4.37053
4.18168
3.99637
3.81743
3.64543
3.48178
3.32473
3.17755
3.03666
2.90246
2.78275
2.64593
2.50993
2.40984
2.2902
0.20984
0.390532
0.604397
0.847603
1.12657
1.45131
1.82985
2.25907
2.82812
3.70884
4.25616
4.715
4.96603
5.10029
5.12656
5.10229
5.05904
4.99651
4.86917
4.71674
4.54292
4.35825
4.16923
3.9851
3.807
3.63601
3.47317
3.31677
3.17016
3.03019
2.89728
2.77849
2.64296
2.50841
2.40917
2.28992
0.206756
0.386815
0.60018
0.843338
1.12289
1.44914
1.83037
2.26388
2.84079
3.72864
4.27252
4.73345
4.98655
5.11696
5.14181
5.1144
5.06709
5.00759
4.88305
4.73547
4.56292
4.37994
4.19275
4.00856
3.82921
3.65487
3.48846
3.32813
3.17821
3.03524
2.89943
2.77854
2.64176
2.50753
2.40849
2.28894
0.201729
0.382791
0.596922
0.841573
1.12428
1.45588
1.84506
2.29052
2.88517
3.77744
4.31135
4.77267
5.02762
5.14845
5.17086
5.14028
5.08467
5.02159
4.91348
4.77185
4.60448
4.42571
4.23952
4.05455
3.87264
3.6948
3.52428
3.35979
3.20364
3.05574
2.91371
2.7881
2.64906
2.51563
2.41515
2.29478
0.203025
0.383683
0.598977
0.846424
1.13452
1.47467
1.87628
2.33983
2.96275
3.85218
4.36454
4.82256
5.06864
5.18431
5.2042
5.16932
5.1051
5.02776
4.9353
4.80666
4.64607
4.47363
4.28544
4.1007
3.9138
3.73467
3.55816
3.39156
3.23004
3.07953
2.93328
2.80334
2.66592
2.53575
2.4348
2.31353
0.207173
0.386978
0.603631
0.853958
1.14719
1.49457
1.9058
2.38287
3.02369
3.90468
4.39669
4.84896
5.08882
5.20559
5.22826
5.19084
5.12297
5.03615
4.93937
4.83152
4.68514
4.51291
4.32888
4.14654
3.95881
3.77862
3.59812
3.42888
3.26302
3.10961
2.95966
2.8247
2.68869
2.56311
2.46176
2.33699
0.207563
0.388454
0.606061
0.858551
1.15493
1.50538
1.9185
2.39574
3.03189
3.92682
4.42558
4.88923
5.14271
5.26923
5.30155
5.26949
5.20418
5.11678
5.01613
4.90494
4.76432
4.5845
4.39628
4.20922
4.01587
3.83004
3.64299
3.46785
3.29599
3.13673
2.98379
2.84248
2.70524
2.59484
2.43578
2.31441
0.202194
0.38588
0.602945
0.856331
1.15355
1.50429
1.91688
2.39288
3.03032
3.93128
4.44612
4.93349
5.19381
5.32037
5.35098
5.32441
5.26384
5.18001
5.08335
4.97133
4.81099
4.63109
4.43638
4.24205
4.04063
3.84921
3.65779
3.47931
3.30435
3.14327
2.98883
2.84605
2.70777
2.59817
2.4381
2.31179
4.34483
4.76289
5.18289
5.35699
5.38813
5.31449
5.17442
4.99673
4.80076
4.60525
4.41423
4.24412
4.02992
3.87442
3.68557
3.54027
3.3928
3.21742
3.10291
2.94011
2.84228
2.69201
2.59875
2.509
0.230324
0.392659
0.614131
0.915454
1.29866
1.74803
2.24791
2.80316
3.53811
4.36835
4.71761
5.23047
5.39484
5.42851
5.35809
5.22351
5.04693
4.85083
4.64964
4.4539
4.2727
4.09446
3.90591
3.75955
3.55513
3.4284
3.23721
3.12859
2.96062
2.86542
2.71187
2.62203
2.48252
2.4216
2.41237
2.34561
0.21928
0.378288
0.599711
0.903929
1.29338
1.7515
2.26424
2.8339
3.59235
4.36201
4.74227
5.16541
5.32697
5.3495
5.27489
5.13604
4.95859
4.76341
4.5662
4.37826
4.19007
4.02751
3.8166
3.67447
3.46677
3.34601
3.16353
3.06
2.90056
2.81153
2.6708
2.58812
2.45814
2.37395
2.26411
2.1714
0.206477
0.360596
0.576346
0.877073
1.26301
1.71987
2.2347
2.81106
3.56789
4.28699
4.70988
5.05097
5.18604
5.1978
5.11124
4.96336
4.78401
4.59172
4.40768
4.23491
4.02175
3.86162
3.67533
3.52728
3.36231
3.22874
3.07629
2.96403
2.8207
2.73094
2.60493
2.53451
2.4169
2.33813
2.20749
2.11293
0.196615
0.347985
0.558425
0.852616
1.23093
1.68106
2.18838
2.75935
3.5106
4.21453
4.65058
4.95172
5.06545
5.0546
4.95493
4.79744
4.61123
4.43933
4.24572
4.06716
3.86814
3.68779
3.52513
3.3763
3.23697
3.10623
2.98303
2.86859
2.75782
2.66192
2.55142
2.48441
2.38146
2.30645
2.16893
2.069
0.196352
0.34445
0.55049
0.838812
1.21352
1.65921
2.1609
2.72626
3.47187
4.17225
4.6081
4.89125
4.99712
4.97522
4.86595
4.70086
4.51969
4.34465
4.15119
3.95568
3.75671
3.57899
3.41581
3.26919
3.14108
3.02511
2.91538
2.81174
2.71687
2.62766
2.5312
2.46933
2.37317
2.2999
2.16051
2.05868
0.197893
0.34306
0.546648
0.832677
1.20575
1.64956
2.14894
2.71139
3.45597
4.16516
4.59984
4.88256
4.98681
4.96205
4.84947
4.68087
4.49987
4.32401
4.12918
3.92974
3.73076
3.55345
3.38963
3.24712
3.12052
3.00674
2.89839
2.79585
2.70171
2.61471
2.52166
2.46017
2.36638
2.29469
2.15536
2.05365
0.195855
0.340094
0.543069
0.828453
1.20017
1.64375
2.14481
2.71031
3.45919
4.18796
4.62075
4.92404
5.0351
5.01647
4.90834
4.74318
4.55548
4.38018
4.18339
3.9976
3.79396
3.61716
3.4562
3.31036
3.17663
3.05181
2.93437
2.82282
2.72232
2.62899
2.5278
2.46197
2.36358
2.29064
2.15205
2.05102
0.191904
0.338035
0.542245
0.827989
1.20248
1.64999
2.15359
2.72374
3.48143
4.24139
4.6685
5.01315
5.1373
5.1301
5.02996
4.87162
4.68356
4.49737
4.30336
4.12973
3.92528
3.75314
3.5868
3.4355
3.2915
3.15696
3.02836
2.9084
2.78334
2.68711
2.56662
2.49699
2.38418
2.30573
2.16548
2.06436
0.193776
0.340708
0.547566
0.837407
1.21742
1.67225
2.18257
2.76012
3.52976
4.31282
4.7362
5.12562
5.26478
5.26858
5.1797
5.02925
4.84633
4.65241
4.45721
4.28306
4.07591
3.92075
3.71039
3.5761
3.39125
3.27231
3.10538
3.0023
2.8506
2.76317
2.62994
2.55356
2.42643
2.34363
2.20508
2.10556
0.198594
0.346179
0.55631
0.850486
1.23708
1.69999
2.21842
2.80228
3.57607
4.36256
4.78289
5.21191
5.36011
5.37022
5.28922
5.14804
4.96976
4.77565
4.57937
4.3879
4.20715
4.04156
3.85051
3.71617
3.51046
3.39072
3.20489
3.09909
2.93423
2.84059
2.69213
2.60206
2.47961
2.38289
2.273
2.17203
0.199477
0.349655
0.560693
0.854745
1.24342
1.70564
2.22149
2.8018
3.57109
4.36816
4.76717
5.24894
5.40854
5.42758
5.35311
5.21713
5.04199
4.84874
4.65176
4.45962
4.2793
4.11071
3.91997
3.78144
3.57806
3.45297
3.25904
3.14924
2.9764
2.87674
2.7237
2.62743
2.50412
2.42509
2.39741
2.31705
0.196216
0.347505
0.553357
0.841445
1.22037
1.67346
2.18139
2.75405
3.52151
4.34091
4.68864
5.24065
5.40614
5.43209
5.36259
5.22857
5.05602
4.86417
4.66759
4.48267
4.29535
4.13354
3.91875
3.77746
3.56317
3.44093
3.24884
3.14062
2.96813
2.87175
2.71225
2.62196
2.47754
2.41393
2.39406
2.32033
2.34786
2.15829
2.02386
1.8733
1.74664
1.64252
1.55102
1.46837
1.39337
1.32722
1.26852
1.22311
1.1842
1.15449
1.12814
1.11279
1.09758
1.09121
1.07994
1.07636
1.06609
1.06573
1.05894
1.03424
0.953651
1.8286
2.41852
2.78135
3.03627
3.2597
3.49101
3.66925
3.80807
2.35655
2.16019
2.01971
1.87293
1.74085
1.63208
1.53674
1.45202
1.3762
1.30979
1.25145
1.20337
1.166
1.13566
1.11271
1.09502
1.0816
1.07046
1.0625
1.05531
1.05006
1.04783
1.04798
1.04318
1.01605
1.24356
1.34777
0.943486
1.89265
2.48809
2.84166
3.08662
3.31278
3.52576
3.69867
3.78767
2.24564
2.05515
1.90726
1.75486
1.63444
1.53453
1.44711
1.36787
1.29797
1.23591
1.18093
1.13443
1.09762
1.06913
1.04528
1.02666
1.01421
1.00387
0.998629
0.993866
0.992864
0.995817
0.999159
1.00607
0.999168
0.98799
0.949618
0.86665
1.80932
2.45452
2.8164
3.05676
3.27151
3.48179
3.65841
3.71522
2.1611
1.97684
1.8038
1.64735
1.52756
1.42959
1.34263
1.26641
1.19709
1.14343
1.09635
1.05616
1.01768
0.985579
0.960046
0.942122
0.929354
0.922503
0.918533
0.918548
0.921116
0.926994
0.9364
0.945774
0.942177
0.924616
0.885058
0.826347
1.69597
2.3949
2.78013
3.02337
3.2321
3.43248
3.60325
3.67163
2.13038
1.94341
1.7507
1.58538
1.45974
1.35691
1.26574
1.18984
1.13075
1.08322
1.03819
0.997681
0.960372
0.929031
0.900559
0.879264
0.865067
0.856305
0.853751
0.854334
0.860444
0.869052
0.883134
0.894847
0.889863
0.869952
0.828192
0.813079
1.67835
2.36289
2.78855
3.02948
3.2261
3.41829
3.58314
3.66333
2.13292
1.94068
1.73825
1.5656
1.43238
1.32586
1.22687
1.15443
1.0972
1.05004
1.0048
0.961898
0.9246
0.891516
0.863542
0.839696
0.826039
0.816567
0.81622
0.819948
0.829211
0.841367
0.860263
0.874463
0.870354
0.849027
0.80727
0.776575
1.69716
2.37536
2.78495
3.03067
3.2241
3.4114
3.57546
3.65935
2.13637
1.94331
1.73792
1.56241
1.42708
1.31845
1.21911
1.14679
1.08967
1.04264
0.996498
0.953707
0.916156
0.882563
0.855192
0.832002
0.818223
0.808128
0.807608
0.811198
0.819527
0.831637
0.850529
0.864102
0.859726
0.838579
0.795021
0.831672
1.72892
2.38279
2.77043
3.00685
3.20294
3.40354
3.57357
3.65646
2.13616
1.9438
1.74873
1.57907
1.4475
1.34129
1.24401
1.16816
1.10934
1.06068
1.01649
0.973421
0.936499
0.904285
0.877445
0.853849
0.839118
0.829127
0.824186
0.825563
0.83123
0.840821
0.856597
0.868057
0.861364
0.839306
0.797205
0.832738
1.6891
2.36785
2.78158
3.02106
3.2098
3.40056
3.57301
3.66397
2.14518
1.96372
1.78842
1.62474
1.49952
1.39232
1.30158
1.21855
1.15342
1.10272
1.0556
1.01528
0.978692
0.9476
0.919686
0.900183
0.886492
0.879128
0.874149
0.874315
0.87609
0.883407
0.891569
0.896219
0.883754
0.860259
0.818275
0.838887
1.70718
2.38901
2.80431
3.04564
3.23276
3.42029
3.59283
3.68211
2.16881
1.99569
1.83853
1.6855
1.56216
1.46168
1.36933
1.29242
1.219
1.15937
1.1087
1.06903
1.03011
0.999495
0.975049
0.957057
0.945469
0.937509
0.933288
0.931486
0.932226
0.933853
0.935147
0.935759
0.921138
0.899825
0.86112
0.865863
1.75117
2.39781
2.81229
3.06086
3.26575
3.46134
3.63399
3.7062
2.17339
2.00509
1.8647
1.72091
1.60681
1.51047
1.42491
1.34867
1.2803
1.22079
1.16744
1.12316
1.08864
1.06292
1.04294
1.0287
1.01911
1.0108
1.00546
0.999682
0.994809
0.991096
0.984711
0.983087
0.964839
0.949995
0.919005
0.807841
1.74603
2.39876
2.8317
3.07912
3.27209
3.47666
3.6557
3.7337
2.202
2.03347
1.90129
1.76294
1.65102
1.55597
1.47272
1.39688
1.33085
1.2722
1.22161
1.17736
1.14563
1.11852
1.10132
1.08523
1.07643
1.06493
1.0583
1.04864
1.04137
1.03338
1.0253
1.02213
0.982639
1.17212
1.2722
0.848484
1.53477
2.201
2.67453
2.96185
3.18165
3.4027
3.59222
3.72388
2.23441
2.05113
1.91792
1.77855
1.66664
1.57302
1.49175
1.41743
1.35242
1.29393
1.24493
1.20142
1.16992
1.14285
1.12393
1.10438
1.09354
1.07936
1.07188
1.06035
1.05346
1.04372
1.03553
1.03178
0.992912
1.18701
1.28707
0.0437657
0.0562881
0.0670983
0.0754251
0.0819531
0.0872804
0.0916072
0.0950989
0.0979365
0.100419
0.102681
0.10506
0.107487
0.110327
0.113538
0.117306
0.121562
0.126435
0.131728
0.137524
0.143585
0.149702
0.156771
0.149151
0.000997306
0.000975154
0.000953024
0.00093183
0.000911629
0.000892312
0.000895877
0.00102759
0.00143562
0.00206325
0.00425258
0.0115908
0.0287554
0.0408795
0.0369647
0.0500518
0.0612025
0.0700105
0.0768614
0.0823959
0.0868451
0.0904119
0.0932975
0.0957175
0.0980271
0.100178
0.102565
0.105193
0.108343
0.111949
0.116105
0.120702
0.125825
0.13136
0.13729
0.143292
0.150464
0.157072
0.151281
0.215048
0.255394
0.000997559
0.000975469
0.000953496
0.000932089
0.000912464
0.000892545
0.000877522
0.000908172
0.00103462
0.00128319
0.00272594
0.00773616
0.0198389
0.0320667
0.0318098
0.0439389
0.0539759
0.0616736
0.0678656
0.0729092
0.0769861
0.0802841
0.0829655
0.0851942
0.0870624
0.0889678
0.0908332
0.0930131
0.0955435
0.0985545
0.102072
0.106089
0.110659
0.115729
0.121422
0.127839
0.135231
0.142727
0.149731
0.154023
0.1574
0.000997535
0.000975324
0.000953257
0.000932003
0.000912179
0.00089351
0.000874492
0.000881635
0.000906988
0.00105838
0.00194134
0.0051317
0.0133582
0.026192
0.0287023
0.0401654
0.0490824
0.0557837
0.0611221
0.0653723
0.0687116
0.0713482
0.0732864
0.0748941
0.0763337
0.077839
0.0792436
0.0807897
0.0825779
0.0847826
0.0874465
0.0907012
0.0945272
0.098976
0.104103
0.109913
0.116604
0.123501
0.129469
0.133127
0.139275
0.000997439
0.000975184
0.000953276
0.000931969
0.000911666
0.000893543
0.000874237
0.00087353
0.000886102
0.00103045
0.00180704
0.00444492
0.0113789
0.024787
0.0280787
0.0391406
0.0474167
0.0534575
0.0581046
0.0616242
0.0642515
0.0661761
0.0676501
0.0689225
0.0700542
0.0712447
0.0723215
0.0735481
0.0748944
0.0765303
0.0785373
0.0810286
0.0840964
0.0877583
0.0920917
0.0970127
0.102576
0.108117
0.113103
0.116452
0.121142
0.000997525
0.000975287
0.00095315
0.000932145
0.00091183
0.000891867
0.000874354
0.000872195
0.000897829
0.00106659
0.00192131
0.00472696
0.0121225
0.0255053
0.0285382
0.0395683
0.0476541
0.0534107
0.0576681
0.0607722
0.0629137
0.0644552
0.0656121
0.0666074
0.0674659
0.0683404
0.0691239
0.0699975
0.0710368
0.0722633
0.0739157
0.0759793
0.078688
0.0820139
0.0860618
0.0906883
0.0959143
0.101163
0.106051
0.109736
0.113597
0.000997662
0.000975433
0.000953347
0.000931914
0.000911401
0.000894217
0.000874236
0.000891039
0.000955442
0.0011633
0.00211226
0.00497153
0.0124195
0.025839
0.02863
0.0397599
0.0478291
0.0535173
0.0576746
0.060666
0.0627051
0.0641605
0.0652432
0.0661526
0.0670139
0.0677443
0.0685014
0.0692808
0.0702729
0.0714642
0.0730572
0.0750327
0.0776257
0.0808063
0.0846658
0.0890847
0.0940711
0.0990936
0.103798
0.106985
0.11128
0.000997629
0.000975407
0.00095329
0.000931965
0.000912136
0.000893394
0.000874294
0.000875469
0.00088845
0.00101812
0.00176324
0.00451053
0.0119889
0.0255626
0.028269
0.0393632
0.0476003
0.0535201
0.0579603
0.0612424
0.063562
0.0652165
0.0664574
0.0675108
0.0684556
0.0694124
0.070291
0.071298
0.0724808
0.0738631
0.0756063
0.0777289
0.0803424
0.0835202
0.0873166
0.0916577
0.0965697
0.101515
0.106111
0.1095
0.113173
0.000997465
0.000975137
0.000953017
0.00093205
0.0009118
0.000891964
0.000873672
0.00086756
0.000893087
0.00105077
0.00183266
0.00435507
0.0109824
0.0244043
0.0279578
0.0393345
0.048134
0.0545888
0.0595977
0.0633724
0.0662336
0.0682743
0.0697659
0.0710019
0.0721753
0.0732786
0.0744536
0.0757234
0.0771704
0.0789626
0.0811469
0.0838394
0.0870156
0.0907187
0.0949568
0.0996401
0.104792
0.109833
0.114005
0.118175
0.121826
0.000997486
0.000975128
0.000953042
0.000932203
0.000911985
0.000893202
0.000873977
0.000868186
0.000896044
0.00106306
0.00186718
0.00448501
0.0113159
0.0249671
0.0288153
0.0404851
0.0498071
0.0568412
0.0623982
0.0668111
0.0701867
0.0729172
0.0748945
0.0764257
0.0778363
0.0791952
0.0806421
0.0821976
0.084073
0.086353
0.0891389
0.0924295
0.0962593
0.100536
0.105341
0.11046
0.115912
0.121287
0.126167
0.129403
0.136562
0.000997577
0.000975531
0.000953563
0.000932309
0.000911996
0.000894036
0.000873907
0.000869677
0.000888806
0.00105159
0.00197825
0.00508526
0.0129123
0.0254801
0.0287947
0.0406069
0.0503054
0.0578044
0.0639333
0.068946
0.0730003
0.0763361
0.0790488
0.081336
0.0832922
0.0853086
0.0873168
0.0896676
0.0924165
0.0956836
0.0994894
0.103755
0.10849
0.113563
0.118981
0.12461
0.130343
0.135716
0.141021
0.14518
0.151616
0.000997342
0.000975043
0.000952905
0.000931918
0.00091174
0.000892349
0.000875252
0.000880196
0.000958391
0.00114907
0.00212749
0.00537881
0.0137604
0.0265622
0.0304576
0.0425119
0.0526094
0.0605342
0.0670534
0.0724542
0.0769464
0.0806815
0.0838777
0.0866663
0.0893299
0.0918528
0.0946433
0.0976245
0.101162
0.105135
0.109689
0.114562
0.119919
0.125469
0.131356
0.137277
0.14348
0.149714
0.142149
0.19182
0.224362
0.000997288
0.000975139
0.00095289
0.000931772
0.000912221
0.000893205
0.00088386
0.000936704
0.00115154
0.00140592
0.00252786
0.00666688
0.0174047
0.0297535
0.0320287
0.0440117
0.0541884
0.0622049
0.0688284
0.0743791
0.0790602
0.083019
0.0864477
0.0894835
0.0924461
0.0952665
0.0983811
0.101682
0.105529
0.109691
0.114402
0.119344
0.124792
0.130377
0.136184
0.142323
0.1482
0.155371
0.144967
0.203309
0.241714
0.00074727
0.000753625
0.000768599
0.000790864
0.000819656
0.000854893
0.00089611
0.000943014
0.000995248
0.00105313
0.00111709
0.0011882
0.00126741
0.00135707
0.00145909
0.00157647
0.00171206
0.00186973
0.00205174
0.00226285
0.00250369
0.00277771
0.00307204
0.00308371
0.000997073
0.000974332
0.000951804
0.000930089
0.000909357
0.000889652
0.000870833
0.000852783
0.000835617
0.00081926
0.000803628
0.000788567
0.000773965
0.000759642
0.000744268
0.000747351
0.000758051
0.000776295
0.000800962
0.000831863
0.00086864
0.000910759
0.000958043
0.00101033
0.00106843
0.00113259
0.00120441
0.00128518
0.0013778
0.00148403
0.00160769
0.00175065
0.00191706
0.00210907
0.00233105
0.00258727
0.00288939
0.00320682
0.00309481
0.00508182
0.00612613
0.000997014
0.000973984
0.000951657
0.000930047
0.000909351
0.000889602
0.000870728
0.000852756
0.000835595
0.000819231
0.000803605
0.000788511
0.000773944
0.000758659
0.000742334
0.000742587
0.000748907
0.000761213
0.000778761
0.000801302
0.000828591
0.000860396
0.00089631
0.000936398
0.000980429
0.00102928
0.0010832
0.00114404
0.00121305
0.00129289
0.00138543
0.00149397
0.00162101
0.00177048
0.00194747
0.00216158
0.0024274
0.00275348
0.00306567
0.00336617
0.00360665
0.000997338
0.000974317
0.000952014
0.000930436
0.000909751
0.000889987
0.000871087
0.000853075
0.000835857
0.000819466
0.000803778
0.000788623
0.000774064
0.000758126
0.000741219
0.000739735
0.000743568
0.000751893
0.000764644
0.000781092
0.000801101
0.000824385
0.000850338
0.00087898
0.000910409
0.000945257
0.000983625
0.0010265
0.00107478
0.00113024
0.00119439
0.00127021
0.00136005
0.0014676
0.00159715
0.001755
0.001949
0.00217981
0.0024145
0.00265501
0.00289179
0.000997424
0.000974424
0.000952137
0.000930577
0.000909903
0.000890146
0.000871247
0.000853213
0.000836008
0.000819604
0.000803832
0.000788649
0.000774101
0.000757994
0.000740951
0.000739011
0.000742067
0.000749036
0.000759635
0.000773323
0.000789558
0.000808004
0.000828331
0.000850759
0.000875323
0.000902608
0.000932584
0.00096618
0.00100379
0.0010467
0.00109594
0.00115348
0.00122132
0.00130224
0.0013991
0.00151472
0.00165204
0.00180779
0.00197406
0.00215537
0.00233659
0.000997465
0.000974475
0.00095219
0.00093063
0.000909959
0.000890216
0.000871306
0.000853272
0.000836108
0.000819649
0.000803833
0.000788604
0.000774046
0.000758061
0.000741082
0.000739385
0.000742612
0.000749693
0.000759971
0.000772857
0.000787865
0.000804649
0.000822928
0.000842898
0.000864594
0.000888453
0.000914486
0.000943393
0.000975635
0.00101209
0.00105384
0.00110241
0.00115976
0.00122823
0.0013101
0.00140718
0.00152103
0.00165032
0.00179536
0.00195548
0.00211783
0.000997483
0.000974499
0.000952232
0.000930686
0.000910013
0.000890248
0.000871325
0.000853308
0.000836124
0.000819641
0.000803814
0.000788584
0.000774034
0.000758096
0.000741132
0.000739571
0.00074294
0.000750056
0.000760528
0.000773438
0.000788084
0.000804428
0.00082224
0.000841705
0.000862948
0.000886178
0.000911553
0.000939652
0.000970952
0.00100637
0.00104684
0.00109384
0.00114903
0.00121463
0.00129248
0.00138417
0.00149113
0.00161321
0.00175086
0.00190376
0.00205757
0.000997484
0.000974496
0.000952219
0.000930657
0.000909977
0.000890213
0.000871295
0.000853266
0.000836044
0.000819581
0.000803821
0.000788626
0.000774073
0.000758023
0.000740974
0.000739206
0.000742414
0.000749508
0.000760179
0.000773666
0.000789257
0.000806749
0.000825888
0.000846854
0.000869739
0.000894959
0.000922574
0.00095336
0.000987815
0.00102688
0.00107147
0.00112303
0.00118294
0.00125344
0.00133638
0.0014335
0.00154664
0.00167562
0.00182055
0.0019796
0.00214063
0.000997493
0.0009745
0.000952212
0.000930646
0.000909965
0.00089021
0.000871292
0.000853274
0.000836123
0.00081964
0.000803826
0.000788622
0.000774052
0.000757948
0.000740842
0.000739028
0.000742485
0.000750292
0.000762027
0.000776888
0.00079473
0.000815008
0.000837254
0.000861573
0.000888136
0.000917352
0.000949539
0.000985529
0.0010259
0.00107209
0.00112521
0.00118735
0.00126005
0.00134566
0.00144625
0.00156342
0.00169926
0.00185365
0.00202487
0.00221169
0.00240203
0.000997478
0.000974474
0.000952172
0.000930593
0.000909901
0.000890138
0.000871227
0.000853194
0.000836052
0.000819572
0.000803755
0.000788589
0.000774012
0.000757985
0.000741088
0.000739683
0.000743895
0.000752884
0.000766508
0.000783969
0.00080504
0.000829553
0.000856854
0.000886789
0.000919524
0.000955555
0.000995314
0.00103975
0.00108996
0.00114767
0.00121453
0.00129297
0.00138505
0.001493
0.00161921
0.00176567
0.00193416
0.00212678
0.00234157
0.00258549
0.00281907
0.000997481
0.000974495
0.000952197
0.000930608
0.000909903
0.000890131
0.000871203
0.000853151
0.000835996
0.000819552
0.000803752
0.000788577
0.000773994
0.000757971
0.000741003
0.000739685
0.000744109
0.000753788
0.000768592
0.000788039
0.000811987
0.000840298
0.000872583
0.000908927
0.00094921
0.00099428
0.0010445
0.00110165
0.00116706
0.00124323
0.00133241
0.00143733
0.00156001
0.00170286
0.00186814
0.00205779
0.00227312
0.0025148
0.00277412
0.00308214
0.0033579
0.000997407
0.000974483
0.000952151
0.000930507
0.000909775
0.000890005
0.000871082
0.000853035
0.000835918
0.000819438
0.00080363
0.000788506
0.000773955
0.000758245
0.000741447
0.000740983
0.000746549
0.000757977
0.000774955
0.000797176
0.00082468
0.000857227
0.000894846
0.000937587
0.000986074
0.00104072
0.00110294
0.001174
0.00125648
0.00135257
0.00146539
0.00159678
0.00175013
0.00192673
0.00213044
0.00236181
0.00262419
0.00291948
0.00277424
0.00446467
0.00533493
0.000997427
0.000974835
0.000952202
0.000930447
0.000909687
0.000889931
0.000871072
0.000853066
0.000835898
0.000819402
0.000803618
0.00078851
0.000773988
0.000758559
0.000741776
0.000741949
0.000748204
0.000760669
0.000778773
0.000802449
0.000831845
0.000866773
0.000907383
0.000953739
0.00100675
0.00106677
0.00113555
0.00121422
0.00130589
0.00141201
0.00153616
0.00167944
0.00184617
0.00203681
0.0022559
0.00250313
0.00278524
0.00310411
0.00292404
0.00477842
0.00566419
0.000740923
0.000725001
0.000715987
0.000701489
0.000687212
0.000677045
0.000667275
0.000657627
0.000648246
0.000638843
0.000629574
0.000620252
0.000611077
0.000601856
0.000592776
0.000583684
0.00057478
0.000565917
0.000557289
0.000548758
0.000540514
0.00053251
0.000525242
0.000518083
0.000997159
0.000974456
0.000951956
0.000930231
0.000909431
0.000889562
0.00087058
0.000852434
0.000835086
0.000818498
0.000802623
0.000787414
0.00077282
0.000755893
0.000738431
0.00072853
0.000713291
0.000704856
0.000687178
0.000677123
0.000667281
0.000657758
0.000648311
0.000639044
0.000629731
0.000620514
0.000611288
0.000602167
0.000593035
0.000584021
0.000575053
0.000566252
0.000557555
0.000549067
0.000540739
0.000532653
0.000524751
0.000516958
0.000510757
0.000507622
0.000501062
0.000997516
0.000974547
0.000952293
0.000930725
0.000909968
0.000890095
0.000871099
0.000852936
0.000835565
0.000818951
0.000803041
0.00078776
0.00077307
0.000755891
0.000738373
0.000728734
0.000713171
0.000704904
0.00069051
0.000676956
0.000667097
0.000657514
0.000648034
0.000638707
0.000629357
0.00062008
0.000610806
0.000601632
0.000592454
0.000583393
0.00057437
0.00056552
0.000556754
0.000548207
0.000539788
0.000531609
0.000523568
0.000515733
0.000508154
0.000500854
0.00049447
0.000997678
0.000974621
0.000952334
0.000930821
0.000910063
0.000890153
0.000871102
0.000852888
0.000835462
0.000818772
0.000802767
0.000787402
0.000772679
0.00075666
0.000739885
0.000726859
0.000715114
0.000702671
0.000692538
0.000677258
0.000667119
0.00065758
0.000648114
0.000638846
0.000629525
0.000620305
0.000611061
0.000601932
0.000592779
0.000583743
0.000574726
0.00056588
0.000557095
0.000548517
0.000540033
0.000531761
0.000523586
0.000515632
0.000507885
0.000500509
0.000494084
0.000997546
0.000974414
0.000952082
0.000930551
0.00090979
0.00088988
0.000870832
0.000852616
0.00083519
0.000818509
0.000802529
0.000787212
0.000772556
0.00075673
0.000740055
0.000726615
0.000715285
0.000703101
0.000690379
0.000678831
0.000667817
0.000657905
0.00064814
0.000638627
0.00062914
0.000619811
0.000610506
0.000601352
0.000592185
0.000583158