/*--------------------------------*- C++ -*----------------------------------*\
  =========                 |
  \\      /  F ield         | OpenFOAM: The Open Source CFD Toolbox
   \\    /   O peration     | Website:  https://openfoam.org
    \\  /    A nd           | Version:  7
     \\/     M anipulation  |
\*---------------------------------------------------------------------------*/
FoamFile
{
    version     2.0;
    format      ascii;
    class       volScalarField;
    location    "600";
    object      nut;
}
// * * * * * * * * * * * * * * * * * * * * * * * * * * * * * * * * * * * * * //

dimensions      [0 2 -1 0 0 0 0];

internalField   nonuniform List<scalar> 
120313
(
0.00163662
0.0019554
0.00206004
0.00212321
0.00215191
0.00216314
0.00216629
0.00216022
0.00214766
0.00212016
0.00208693
0.00205139
0.00200991
0.0019617
0.00192263
0.00188864
0.00185658
0.0018219
0.00178666
0.00175105
0.0017124
0.00166409
0.00159306
0.00133551
0.00189111
0.00254218
0.00271365
0.00281992
0.00286793
0.0028907
0.00290052
0.00288966
0.00286757
0.00283944
0.00280175
0.00275083
0.00269953
0.00264457
0.00259506
0.00254577
0.00250032
0.00245208
0.00240301
0.00235194
0.00229485
0.00221249
0.00208025
0.00156048
0.00190605
0.00258459
0.00278177
0.00289981
0.00295603
0.00298351
0.00299845
0.00299462
0.00297267
0.00294147
0.00290021
0.00284764
0.00279179
0.00273668
0.00268373
0.00263361
0.00258546
0.00253675
0.00248557
0.00243298
0.00237157
0.00227968
0.0021226
0.00157946
0.00190725
0.0025951
0.00280033
0.00292459
0.00298417
0.00301472
0.00303251
0.00303219
0.0030112
0.00297927
0.00293493
0.00288166
0.00282468
0.00276873
0.00271484
0.00266389
0.00261503
0.0025661
0.00251472
0.00246169
0.00239865
0.00230325
0.00213859
0.00158731
0.00190481
0.00259188
0.00279734
0.00292202
0.00298186
0.00301296
0.00303138
0.00303125
0.00301086
0.00297928
0.00293411
0.00288109
0.00282405
0.0027678
0.00271434
0.00266337
0.00261452
0.00256544
0.00251428
0.00246125
0.00239824
0.00230281
0.00213771
0.00158681
0.00189829
0.00257451
0.00277215
0.002892
0.00294917
0.00297813
0.00299485
0.00299181
0.00297211
0.0029409
0.00289861
0.00284613
0.00279045
0.00273511
0.002683
0.00263284
0.00258436
0.00253537
0.00248443
0.00243175
0.00237028
0.00227825
0.0021199
0.00157792
0.00187809
0.00252583
0.00269854
0.00280757
0.00285787
0.00288231
0.00289365
0.00288292
0.00286616
0.00283701
0.00279912
0.00274742
0.00269523
0.00264237
0.00259308
0.0025447
0.00249789
0.00244995
0.0024002
0.00234928
0.00229213
0.00220978
0.0020757
0.00155761
0.00162295
0.00194588
0.00205408
0.00212251
0.00215264
0.00216624
0.00217074
0.00216472
0.0021526
0.00212261
0.0020917
0.0020537
0.00201202
0.00196526
0.00192779
0.00189364
0.0018609
0.00182543
0.00178986
0.0017536
0.00171504
0.00166645
0.00159019
0.00132994
0.00141383
0.00257603
0.00358168
0.00450443
0.00536308
0.00613429
0.0067482
0.00712826
0.00842063
0.00890095
0.00997563
0.0108422
0.0114608
0.0117985
0.011987
0.0120712
0.0120994
0.012083
0.012038
0.0120258
0.0119497
0.0118234
0.0116378
0.0114186
0.0111702
0.0108886
0.0105946
0.0102893
0.0100036
0.00973366
0.00944382
0.00920294
0.00893329
0.00870006
0.00856319
0.00845467
0.0013654
0.00252079
0.00352047
0.00442902
0.00525544
0.00597
0.00649015
0.00668605
0.00747605
0.0117901
0.0142206
0.0154846
0.0162571
0.0166382
0.0167966
0.0168176
0.0167421
0.0166147
0.0164814
0.0164451
0.0163279
0.0161018
0.0158107
0.0155073
0.0151783
0.0148406
0.0144881
0.0141402
0.0137939
0.0134623
0.0130902
0.0129101
0.0116274
0.0113724
0.00877981
0.0082064
0.00129445
0.00246879
0.00347615
0.00438135
0.00519188
0.00587283
0.00633079
0.00637958
0.00675026
0.0108531
0.0140891
0.0155193
0.0165516
0.0168835
0.0169637
0.0169099
0.0167847
0.016729
0.0166902
0.0165779
0.0163538
0.0160984
0.0158218
0.0155161
0.0151926
0.0148648
0.0145345
0.0142038
0.0138729
0.0135513
0.0131735
0.0129816
0.0110631
0.0106789
0.00837672
0.00795395
0.00124854
0.00244067
0.0034494
0.00434748
0.00513944
0.00578431
0.00618516
0.00614731
0.00635352
0.0104029
0.013902
0.0155036
0.0163326
0.0166898
0.0167674
0.0166794
0.016584
0.016655
0.0165368
0.0163852
0.0161602
0.0158879
0.0155916
0.0152863
0.0149732
0.014664
0.0143552
0.0140517
0.0137486
0.0134507
0.0131023
0.0128483
0.0108475
0.0103145
0.00820133
0.00780826
0.00128247
0.0024474
0.00344432
0.00432766
0.00510003
0.00571644
0.00608729
0.00602471
0.00619026
0.0102449
0.0137974
0.0154292
0.0162103
0.0165515
0.0166131
0.0164988
0.0164989
0.0165675
0.0164208
0.0162438
0.0160031
0.0157215
0.0154104
0.0151084
0.0147974
0.0145144
0.0142222
0.0139458
0.0136616
0.0133856
0.013061
0.0127928
0.010793
0.0102385
0.00813749
0.00776955
0.00130883
0.00245339
0.00344133
0.00431618
0.00507988
0.00568604
0.00604929
0.00598522
0.0061553
0.0102281
0.0137769
0.015408
0.0161901
0.0165254
0.0165795
0.0164584
0.016475
0.0165377
0.0163904
0.0162082
0.0159617
0.0156782
0.0153646
0.015066
0.0147586
0.0144767
0.0141876
0.0139122
0.01363
0.0133568
0.0130373
0.0127704
0.0107743
0.0102762
0.00811007
0.007763
0.00129262
0.00243741
0.0034264
0.00430767
0.00508141
0.00570258
0.00608053
0.00602761
0.00622812
0.0103593
0.0138481
0.0154451
0.0162855
0.0166242
0.0166791
0.0165731
0.0165139
0.0165839
0.016461
0.0162925
0.0160492
0.0157743
0.0154753
0.0151702
0.0148608
0.0145608
0.014257
0.0139617
0.0136648
0.0133768
0.0130411
0.0127898
0.0107826
0.0104081
0.00813995
0.007783
0.00125181
0.00241199
0.00340673
0.00430329
0.00510229
0.00576305
0.00618679
0.00617754
0.00649768
0.0108197
0.0140424
0.0154655
0.0165271
0.0168148
0.01687
0.01678
0.0166128
0.0166469
0.0166161
0.0164554
0.0161972
0.0159621
0.0156768
0.0153719
0.0150568
0.0147397
0.0144178
0.0140947
0.0137704
0.0134553
0.0130857
0.0128849
0.0109897
0.0107258
0.00825346
0.00786108
0.00125379
0.00240094
0.00339164
0.00429856
0.0051255
0.00584165
0.00635179
0.00648402
0.00718611
0.0118738
0.0143004
0.0154739
0.0164693
0.0167334
0.0167955
0.0167667
0.0166517
0.0164927
0.0164828
0.016401
0.0162038
0.0159911
0.0157159
0.0154188
0.0150975
0.0147668
0.0144252
0.0140876
0.0137482
0.0134204
0.0130547
0.0128427
0.0115602
0.0114906
0.00869577
0.00811528
0.00127788
0.00240384
0.00339074
0.0043053
0.00515368
0.00591427
0.00650524
0.00679003
0.00803414
0.0129553
0.0142065
0.0152914
0.0160334
0.0163684
0.0165156
0.0165435
0.016478
0.0163542
0.0161839
0.0161495
0.016049
0.0158607
0.015602
0.0153214
0.0150092
0.0146717
0.0143163
0.0139694
0.0136209
0.0132861
0.0129313
0.0126589
0.012044
0.0122715
0.00914756
0.00838737
0.0012792
0.00240222
0.00340047
0.00433501
0.00520941
0.00600008
0.00662428
0.00696638
0.00828479
0.00864719
0.00951922
0.0104115
0.0109975
0.0113145
0.0114939
0.0115769
0.0116142
0.0115868
0.0115351
0.011511
0.0114756
0.0113562
0.0111767
0.0109868
0.0107452
0.0104809
0.0101916
0.00990706
0.00962966
0.00936472
0.00910207
0.00885529
0.00858537
0.00840984
0.00840084
0.00838412
0.00121163
0.00239605
0.00343016
0.00440202
0.00533024
0.00620866
0.00697561
0.00758684
0.00894709
0.00939274
0.0103749
0.0112482
0.011867
0.0121965
0.0123773
0.0124537
0.0124807
0.0124495
0.0124411
0.0124348
0.0124105
0.0122874
0.012095
0.0118892
0.0116258
0.0113413
0.011037
0.0107348
0.0104375
0.0101485
0.00986121
0.00958424
0.00931855
0.009105
0.00894842
0.0087636
0.0156472
0.0170052
0.0180034
0.0186314
0.0189523
0.019086
0.0191129
0.019164
0.019314
0.0195308
0.019505
0.019353
0.0192205
0.0189768
0.0186925
0.0183993
0.0180916
0.0177242
0.0173929
0.0170073
0.0166757
0.0163013
0.0159281
0.0157325
0.00253175
0.00423917
0.00574581
0.00712572
0.00842215
0.00967523
0.0109355
0.0122608
0.0138023
0.0156672
0.0168257
0.0179214
0.0184339
0.0187226
0.0188314
0.0188039
0.0188347
0.0189654
0.0191564
0.0194047
0.0193196
0.0191954
0.0187661
0.0185436
0.0182186
0.0179153
0.0175429
0.017213
0.0168361
0.0165098
0.0161432
0.0158263
0.0154627
0.015342
0.0147865
0.0143955
0.00242179
0.00413134
0.00565293
0.00702647
0.00830271
0.00953162
0.0107704
0.0120637
0.013591
0.0152694
0.0164396
0.0175131
0.0180319
0.018294
0.0183807
0.01835
0.0184135
0.0185902
0.0188625
0.0190589
0.0189251
0.0187718
0.0184873
0.0182152
0.0178606
0.0175487
0.0171833
0.0168672
0.0165095
0.0162051
0.0158493
0.0156083
0.0152109
0.0149368
0.0146563
0.0143192
0.00230635
0.00402398
0.00555441
0.00692304
0.00817964
0.00937645
0.0105689
0.0117846
0.0131756
0.0147384
0.0160214
0.0170147
0.0175979
0.0178796
0.0180135
0.018059
0.0182578
0.018628
0.018726
0.018727
0.0185649
0.0183626
0.0180852
0.0178024
0.0174838
0.017172
0.0168381
0.0165304
0.0161984
0.0159161
0.015582
0.0154016
0.0149916
0.0146654
0.0144002
0.0140701
0.00222402
0.00395918
0.00548469
0.00684366
0.00807919
0.00924326
0.0103852
0.0115168
0.0128041
0.0144048
0.0157381
0.0167206
0.0172559
0.0175851
0.0177775
0.0178989
0.0181979
0.0186185
0.0184547
0.0184151
0.0182364
0.0179902
0.0177085
0.017424
0.0171282
0.0168404
0.0165457
0.0162627
0.0159741
0.0157159
0.0154107
0.0152536
0.0148632
0.0145225
0.014264
0.0139657
0.00223989
0.00394679
0.00545047
0.00679418
0.00801146
0.00915351
0.010264
0.0113491
0.0126028
0.0142487
0.0155912
0.0165609
0.0170829
0.0174358
0.0176427
0.0178427
0.0181348
0.018528
0.0182941
0.0182135
0.0180101
0.0177482
0.0174264
0.0171696
0.016862
0.0166553
0.0163717
0.0161573
0.0158829
0.0156792
0.0153925
0.0152717
0.0148855
0.0145414
0.0142836
0.0140098
0.00226417
0.00394434
0.0054317
0.006766
0.00797566
0.00911052
0.0102126
0.0112875
0.0125486
0.0142328
0.0155716
0.0165365
0.0170554
0.0174086
0.0176081
0.0178209
0.0181136
0.0184937
0.0182576
0.0181683
0.0179559
0.0176925
0.0173618
0.0171238
0.0168201
0.0166114
0.0163323
0.0161178
0.0158468
0.0156462
0.0153668
0.0152537
0.0148743
0.0145458
0.014293
0.0140318
0.00224427
0.00392261
0.005412
0.00675076
0.00796808
0.00911464
0.0102329
0.0113317
0.0126334
0.0143624
0.0156854
0.0166547
0.0171845
0.0175098
0.0176865
0.0178375
0.0181404
0.0185559
0.0183532
0.0182944
0.0180928
0.0178397
0.0175529
0.017271
0.0169707
0.0167103
0.0164124
0.0161578
0.0158783
0.0156381
0.0153509
0.0152116
0.0148313
0.0145149
0.0142764
0.0139978
0.00220697
0.00389762
0.00539875
0.00675128
0.00799089
0.00917089
0.0103358
0.0115034
0.0129068
0.0146826
0.0159573
0.0169325
0.0174873
0.0177491
0.0178789
0.0179454
0.0182165
0.0185891
0.0186082
0.0185693
0.0183884
0.0181636
0.0178905
0.0176061
0.017308
0.0170058
0.0166985
0.0163935
0.0160771
0.0157972
0.0154681
0.0152941
0.0148909
0.0145753
0.0143273
0.0140148
0.0022229
0.00389999
0.00540473
0.00677133
0.00804019
0.00926994
0.0105104
0.011798
0.0133872
0.0152067
0.0163748
0.0173662
0.0178842
0.0181148
0.0182025
0.0181962
0.0183017
0.0185884
0.0188352
0.0188763
0.0187442
0.0185642
0.0182721
0.0180029
0.0176698
0.0173673
0.0170168
0.0167065
0.0163562
0.0160606
0.015711
0.0154902
0.0150941
0.0147953
0.0145337
0.0141781
0.00227112
0.00392313
0.00542961
0.00680932
0.00810728
0.00938115
0.0106913
0.0120982
0.0138491
0.0156775
0.016742
0.0177507
0.0182216
0.0184583
0.0185472
0.0185064
0.0185512
0.018686
0.0189411
0.0191525
0.0190998
0.0189173
0.0186598
0.0184146
0.0180745
0.0177687
0.0173929
0.0170654
0.0166882
0.0163662
0.0159925
0.0157095
0.0153245
0.0150615
0.0147844
0.0144004
0.00228568
0.00393992
0.00545558
0.00685534
0.00818056
0.00948451
0.0108224
0.0122562
0.0139533
0.0158076
0.0169035
0.0179522
0.0184626
0.0187328
0.0188546
0.0188462
0.018902
0.0190402
0.0192392
0.0194967
0.019382
0.0192005
0.0189279
0.0186775
0.0183352
0.0180237
0.0176351
0.0172957
0.0169028
0.0165631
0.0161813
0.0158692
0.0154657
0.0153115
0.0147432
0.0143336
0.00225539
0.00394411
0.0054733
0.006898
0.0082507
0.00957782
0.0109184
0.0123146
0.0139266
0.0156676
0.0167366
0.0178621
0.0183494
0.0185975
0.0187075
0.0187507
0.0188695
0.0190859
0.0193314
0.0196029
0.0192941
0.0191812
0.0189006
0.0186388
0.0182791
0.0179642
0.0175779
0.0172403
0.016847
0.0165116
0.0161251
0.0158146
0.0153892
0.0152759
0.014762
0.0143497
0.0115048
0.0132564
0.01475
0.0154162
0.0157039
0.0157532
0.0156868
0.0155496
0.0153789
0.0152334
0.0151005
0.0150909
0.0147155
0.014716
0.0143877
0.0143376
0.0142238
0.0137901
0.0138484
0.0133803
0.0134781
0.0129786
0.0129665
0.0128861
0.00273592
0.00388494
0.00492528
0.00602518
0.00704178
0.00808754
0.00919661
0.0104398
0.0112448
0.0116033
0.0130947
0.0150758
0.015616
0.0159179
0.0159656
0.0159125
0.0157739
0.0155984
0.0154213
0.0152758
0.015192
0.0150924
0.0148335
0.014846
0.0143242
0.0144028
0.013852
0.0139688
0.0134723
0.0135942
0.0130815
0.013159
0.0125807
0.0129785
0.0130598
0.0131779
0.0026262
0.00376541
0.00479846
0.00586942
0.0068685
0.00790223
0.00901936
0.0103073
0.011222
0.011401
0.0130845
0.0146561
0.0152878
0.0155559
0.0156386
0.015594
0.0154649
0.0153102
0.0151779
0.0150831
0.0149355
0.0149343
0.0144816
0.0145125
0.0139321
0.0140233
0.0135123
0.0136371
0.0131795
0.013321
0.0128975
0.013007
0.0125826
0.0126272
0.0122323
0.0121904
0.00251955
0.00367465
0.00469163
0.00573441
0.00671911
0.00772699
0.00883782
0.0101428
0.0110911
0.0110869
0.0129756
0.0141376
0.0147153
0.0149792
0.015046
0.0149817
0.0148721
0.0147573
0.01468
0.0146677
0.0143226
0.0143088
0.0140031
0.0139325
0.0136488
0.0135646
0.0132461
0.0132348
0.012867
0.0129476
0.0126002
0.0127701
0.0124134
0.0124915
0.0119527
0.0117416
0.00243506
0.00361674
0.00461545
0.00564761
0.00661863
0.00760159
0.0087022
0.0099946
0.0109416
0.0108659
0.012811
0.0138071
0.0142894
0.0144831
0.0145109
0.0144182
0.0143018
0.0143033
0.0141482
0.0140873
0.013831
0.0136237
0.0134554
0.0133379
0.0132055
0.0131038
0.0129719
0.0128801
0.0127415
0.0127125
0.0124492
0.012602
0.0123377
0.0124338
0.0118127
0.0115406
0.00243616
0.00358689
0.00457321
0.00560271
0.00655329
0.00753027
0.0086211
0.00989813
0.0108458
0.0107622
0.0127066
0.0136111
0.0140865
0.0142361
0.0142265
0.0141056
0.014028
0.0140097
0.0138613
0.0136837
0.0134203
0.0132021
0.0128523
0.0130276
0.0127395
0.013106
0.0127889
0.0130607
0.0127669
0.0130295
0.0126614
0.0129368
0.0126157
0.0126652
0.0119756
0.0116605
0.00245132
0.00357038
0.00454504
0.00556819
0.00651297
0.00748664
0.00857429
0.0098522
0.0108057
0.0107504
0.012693
0.0135877
0.0140579
0.0141979
0.0141774
0.0140439
0.0139724
0.0139527
0.0137996
0.0135961
0.0133155
0.0131192
0.0127163
0.0130444
0.0127172
0.0130708
0.012751
0.0130259
0.0127319
0.0129997
0.0126459
0.0129504
0.0126408
0.0126981
0.0120038
0.0116854
0.00243203
0.00355043
0.00452371
0.00554072
0.0064956
0.007476
0.00856897
0.00985283
0.0108264
0.0108325
0.0127671
0.0137331
0.0142239
0.0143817
0.0143766
0.0142553
0.0141433
0.014129
0.0139641
0.0138563
0.0135683
0.0133732
0.0131715
0.0131046
0.0128772
0.0129897
0.0127231
0.0128624
0.0127048
0.0126938
0.0124688
0.0125955
0.0123566
0.0124681
0.0118295
0.0115442
0.00240772
0.0035402
0.00451894
0.0055496
0.00649699
0.00748974
0.0086075
0.00991602
0.0109209
0.011029
0.0129326
0.014075
0.0145896
0.0147783
0.0147979
0.0146978
0.0145665
0.0144954
0.014351
0.0143361
0.0140499
0.0139127
0.0137303
0.0135971
0.0134446
0.0133129
0.013158
0.0130373
0.0128031
0.0127932
0.0124706
0.0126252
0.0123005
0.0123874
0.0117552
0.0114843
0.00242583
0.0035523
0.00453437
0.00556846
0.00653169
0.00754963
0.00870156
0.0100447
0.0110853
0.0112831
0.0131598
0.0144884
0.0150569
0.0152671
0.0153225
0.0152431
0.0151057
0.0149916
0.0148672
0.0148503
0.0145487
0.0145857
0.0141012
0.0141489
0.0137039
0.013752
0.0133174
0.0134031
0.0129746
0.013101
0.0127124
0.0128573
0.0124421
0.0125074
0.0118811
0.0116828
0.00247091
0.00357449
0.00456648
0.00560581
0.00658889
0.00763543
0.00880543
0.0101609
0.0111955
0.0114284
0.0132859
0.0147981
0.0153876
0.015612
0.0156916
0.0156499
0.0155251
0.0153867
0.0152606
0.0151417
0.015044
0.0150069
0.0146882
0.0147548
0.0141715
0.014268
0.0137287
0.0138459
0.0133533
0.013475
0.0130001
0.0130576
0.0127385
0.0126589
0.0123536
0.0121418
0.00249003
0.00359009
0.00459704
0.00565693
0.00664491
0.00771972
0.0088954
0.0102161
0.0111684
0.0114629
0.0131926
0.0149531
0.0155413
0.0157943
0.0158826
0.0158547
0.0157388
0.0155878
0.01545
0.0153318
0.0152456
0.0152003
0.0149043
0.0149613
0.0144365
0.0145247
0.0139543
0.0140692
0.0135424
0.0136381
0.0131573
0.0131746
0.0128625
0.0127622
0.0129158
0.0129421
0.00249291
0.00364517
0.0046759
0.00577282
0.00677634
0.00784287
0.00899419
0.0102542
0.0110912
0.0114427
0.0128913
0.0150026
0.0155105
0.0157802
0.0158791
0.0158517
0.0157427
0.0155948
0.0154539
0.0153777
0.0152376
0.0152514
0.014788
0.0148568
0.0142705
0.014394
0.0138513
0.0139848
0.0134683
0.0135989
0.0130489
0.0131482
0.0126175
0.0126558
0.01288
0.0129922
0.00422805
0.00428055
0.0043986
0.00439543
0.00445361
0.00455795
0.00462692
0.0046701
0.00469361
0.00471061
0.00472911
0.00476597
0.00481088
0.0048909
0.00497317
0.00509229
0.00520634
0.00535128
0.00546836
0.00561707
0.00572066
0.00591181
0.00600936
0.00616662
0.00165922
0.002141
0.00271636
0.0032644
0.00382994
0.00445459
0.0051767
0.00580493
0.00621008
0.00421053
0.00425521
0.00436953
0.00438588
0.00441387
0.00450687
0.00457095
0.00460941
0.00463167
0.00464841
0.00466265
0.00467692
0.00472382
0.00479817
0.00489831
0.00500995
0.00512762
0.00524995
0.00537822
0.00551002
0.00564274
0.00581047
0.00599807
0.0061099
0.00626719
0.00754953
0.00824669
0.00168956
0.00216836
0.00274603
0.00327137
0.00383299
0.00446643
0.00513853
0.00577392
0.00615727
0.00402069
0.00405144
0.00412397
0.00410044
0.00418476
0.00427347
0.00433908
0.00437329
0.00440326
0.00438731
0.0043599
0.00435316
0.00437918
0.00444334
0.0045245
0.00463699
0.00476877
0.00489515
0.00504224
0.00517913
0.00534247
0.00551998
0.00573118
0.00591121
0.00610425
0.00614604
0.00625371
0.0015828
0.00208632
0.00269642
0.00320062
0.00373085
0.00433058
0.00499374
0.00563538
0.00598486
0.00387254
0.00390437
0.00388192
0.00385133
0.00393248
0.00400177
0.00404698
0.00407078
0.00402991
0.00401863
0.00400794
0.00401981
0.00401491
0.00403366
0.00408399
0.00417616
0.00429566
0.00445415
0.00461103
0.00477814
0.00495766
0.0051387
0.00536813
0.00555661
0.00575319
0.00577128
0.00580798
0.00147769
0.00196654
0.00263749
0.00314926
0.00367393
0.0042543
0.00490041
0.00551615
0.00589824
0.00380018
0.00382672
0.00374566
0.00369761
0.00375435
0.00379039
0.00382341
0.0038104
0.00380254
0.00380912
0.00379942
0.00379783
0.00379113
0.0038045
0.0038189
0.00387206
0.00396616
0.00409262
0.00426517
0.00443678
0.00463789
0.00483081
0.00508232
0.00527602
0.00544973
0.00545089
0.00545424
0.00152512
0.00194618
0.00261312
0.00316669
0.00368805
0.00426433
0.00490017
0.00549885
0.00589391
0.00380033
0.00381483
0.00370999
0.00364152
0.00367504
0.00369626
0.00369973
0.00369574
0.00369117
0.00369515
0.00368033
0.00366159
0.00364525
0.00364549
0.00364538
0.00369415
0.00378154
0.00391095
0.00409022
0.00428909
0.00451371
0.00472965
0.0050178
0.00522843
0.00540375
0.00538538
0.00537832
0.00149371
0.00194525
0.00262231
0.00318822
0.00371803
0.00427231
0.00489066
0.00548563
0.00585417
0.00380559
0.00382094
0.00370837
0.00363218
0.00365994
0.00367422
0.00367792
0.00367291
0.00366829
0.00367032
0.00365314
0.00363194
0.00361149
0.00360785
0.00361574
0.00366816
0.00375228
0.00387388
0.00404994
0.00425037
0.00446699
0.00468434
0.00497264
0.00518218
0.00535477
0.00533927
0.00530772
0.00150712
0.00199249
0.00261785
0.00313551
0.00364094
0.00420763
0.00486542
0.0054798
0.00584639
0.00379729
0.00381987
0.00373435
0.00367408
0.00371536
0.0037421
0.0037529
0.00374041
0.00373227
0.00373205
0.00372593
0.00370683
0.0037002
0.00370474
0.00372258
0.00375593
0.0038347
0.00395292
0.00409953
0.00428565
0.00448454
0.00468734
0.00495606
0.00515641
0.00532094
0.00530013
0.00528917
0.0015558
0.00195035
0.00260909
0.0031539
0.00366493
0.00421704
0.00484623
0.00545612
0.00586912
0.00382426
0.00386651
0.00383791
0.00378892
0.00385578
0.00388897
0.00392762
0.00390342
0.00388043
0.00387778
0.00386483
0.00386736
0.00387031
0.00388688
0.00390876
0.00397798
0.00407892
0.00422285
0.00437461
0.00454801
0.00472037
0.0049202
0.0051369
0.00529352
0.00541947
0.00539095
0.0053861
0.00152478
0.00196612
0.00263213
0.00317964
0.0036911
0.00424281
0.00487612
0.00549188
0.00587779
0.00388032
0.00394164
0.00396815
0.00394322
0.00402
0.00409534
0.00411766
0.00416798
0.00411967
0.00408156
0.00406027
0.00407556
0.00407163
0.00410158
0.00416313
0.0042546
0.00438834
0.00453409
0.00469047
0.00484492
0.00502375
0.00517921
0.00536057
0.00550043
0.00562065
0.00561463
0.00564374
0.00154199
0.0020005
0.00263948
0.00319055
0.00370631
0.00430076
0.00495593
0.00557463
0.00591795
0.00388026
0.00395125
0.00402975
0.00402853
0.0041383
0.00422921
0.00428789
0.00433269
0.00434887
0.00433315
0.00430687
0.00430656
0.00434126
0.00441646
0.00451707
0.00465219
0.00480087
0.00493543
0.00508459
0.0052107
0.00535462
0.00547664
0.00562385
0.00575886
0.00587729
0.00590529
0.00602039
0.00151226
0.0019986
0.00265638
0.00323353
0.00374905
0.00432465
0.00499375
0.00560568
0.00595293
0.00390581
0.00398435
0.00409594
0.00411606
0.00422811
0.0043332
0.00441455
0.00446202
0.00451219
0.00452923
0.00454176
0.00455329
0.00461915
0.00469798
0.00483141
0.00495287
0.00509822
0.00521599
0.00535539
0.00546593
0.00559952
0.00570224
0.00586239
0.00596883
0.00603877
0.00709267
0.00776165
0.00144416
0.00180773
0.00247068
0.00309001
0.00366182
0.00425503
0.0049393
0.00555756
0.00596174
0.00395106
0.00399486
0.00411185
0.00413624
0.0042529
0.00437001
0.00445997
0.00451873
0.00457298
0.00460089
0.00462782
0.00464926
0.00472041
0.00480837
0.00493118
0.00503392
0.00516832
0.00527377
0.00540931
0.00551327
0.00565357
0.00574893
0.00591252
0.00601513
0.00609101
0.0071838
0.0078614
0.000107804
0.000149519
0.000192225
0.000231587
0.00026902
0.000305926
0.000341861
0.000376642
0.000410333
0.000443552
0.000476951
0.000511576
0.000547489
0.000586628
0.00062898
0.000675828
0.000727223
0.000784152
0.000845461
0.00091188
0.000981611
0.00105171
0.0011355
0.00110407
8.97665e-06
9.13601e-06
9.19001e-06
9.18666e-06
9.16022e-06
9.12522e-06
7.7254e-06
4.515e-06
3.66541e-06
4.60553e-06
9.08853e-06
2.45456e-05
6.13831e-05
8.62187e-05
9.02442e-05
0.000132318
0.000174704
0.000214454
0.000251858
0.000288223
0.000323598
0.00035768
0.000390603
0.000422826
0.000455298
0.000487976
0.000522498
0.000559476
0.00060052
0.000645006
0.000695153
0.000749287
0.000808472
0.000872211
0.000940231
0.00100785
0.00109319
0.00117239
0.0011507
0.00168402
0.00206616
8.98094e-06
9.15614e-06
9.18316e-06
9.19451e-06
9.19151e-06
9.14466e-06
8.92401e-06
6.69738e-06
4.59598e-06
4.28535e-06
6.696e-06
1.73695e-05
4.44884e-05
6.97436e-05
7.88985e-05
0.000117354
0.00015513
0.000189762
0.000223517
0.000256547
0.000288639
0.000319597
0.000349612
0.000378369
0.000406059
0.000434083
0.00046283
0.000494004
0.000528213
0.000566552
0.000609528
0.00065712
0.000710014
0.000767943
0.000832254
0.000903765
0.00098554
0.00106652
0.00115424
0.00121369
0.00128629
8.98055e-06
9.15802e-06
9.18096e-06
9.21661e-06
9.17869e-06
9.11548e-06
9.02692e-06
7.56397e-06
6.29958e-06
5.02841e-06
5.53957e-06
1.21162e-05
3.12323e-05
5.9424e-05
7.19003e-05
0.00010809
0.00014156
0.000172028
0.000201951
0.000230514
0.000258189
0.000284695
0.00030903
0.000332368
0.000355406
0.000378938
0.000402568
0.000427327
0.00045417
0.000484395
0.000518544
0.000558156
0.000603138
0.000654085
0.000711724
0.000776377
0.00085036
0.00092825
0.0010012
0.0010536
0.00114125
9.03748e-06
9.187e-06
9.1964e-06
9.22348e-06
9.157e-06
9.11882e-06
8.99957e-06
7.945e-06
6.98554e-06
5.21385e-06
5.32311e-06
1.07235e-05
2.71576e-05
5.62763e-05
7.03089e-05
0.000105156
0.00013635
0.000164362
0.000191231
0.000216657
0.000240801
0.000263228
0.000284437
0.000305135
0.000325553
0.00034632
0.00036701
0.000388748
0.000411575
0.000436673
0.000464966
0.000497364
0.000535162
0.000578625
0.000628654
0.000684703
0.00074788
0.000812633
0.000876089
0.000926632
0.000992448
9.04004e-06
9.17444e-06
9.17875e-06
9.19093e-06
9.17321e-06
9.13467e-06
9.06563e-06
8.10105e-06
6.54496e-06
4.87358e-06
5.42688e-06
1.12869e-05
2.88774e-05
5.76708e-05
7.1308e-05
0.000106095
0.000136754
0.000164386
0.000188752
0.000212666
0.000234767
0.000255397
0.000274952
0.000294049
0.000312772
0.000331492
0.000350106
0.000369275
0.00038961
0.000411565
0.000436879
0.000465843
0.000500529
0.000541074
0.000588496
0.000641849
0.000702119
0.000764418
0.000826796
0.000880968
0.000937253
9.04227e-06
9.16717e-06
9.18607e-06
9.19609e-06
9.16625e-06
9.16757e-06
8.99905e-06
7.1453e-06
5.27284e-06
4.57861e-06
5.74463e-06
1.18039e-05
2.96177e-05
5.76721e-05
7.1554e-05
0.0001066
0.000137258
0.000164759
0.000188872
0.000212328
0.000233993
0.000254218
0.000273382
0.000292091
0.000310576
0.000328678
0.000346938
0.000365494
0.000385475
0.000407143
0.000431989
0.000460265
0.000493974
0.000533333
0.000579225
0.000630954
0.000689345
0.000749793
0.000810403
0.000859688
0.00092055
9.0409e-06
9.19417e-06
9.22865e-06
9.19787e-06
9.18696e-06
9.11225e-06
9.05303e-06
7.88163e-06
6.84652e-06
5.26482e-06
5.2864e-06
1.08627e-05
2.84406e-05
5.64761e-05
7.04899e-05
0.000105436
0.000136553
0.000164343
0.000190288
0.000214816
0.000237658
0.000258853
0.000278903
0.00029841
0.000317739
0.000337074
0.00035644
0.000376633
0.000398167
0.000421274
0.00044732
0.000476765
0.000510738
0.000550138
0.000595589
0.000646731
0.000704513
0.000764291
0.000824009
0.000875494
0.000930361
8.97847e-06
9.16724e-06
9.19844e-06
9.19902e-06
9.17128e-06
9.12762e-06
9.08595e-06
8.3766e-06
6.68199e-06
4.94842e-06
5.31809e-06
1.05199e-05
2.62344e-05
5.54642e-05
6.99055e-05
0.000105585
0.000138498
0.000167956
0.00019629
0.000222959
0.000248367
0.000271715
0.000293443
0.000314487
0.00033538
0.000356375
0.000377929
0.000400436
0.000424339
0.000450939
0.000480926
0.000515399
0.000554526
0.000598852
0.000648647
0.000703523
0.000764115
0.000825509
0.000879869
0.000944608
0.00100003
9.03843e-06
9.16695e-06
9.1949e-06
9.20457e-06
9.18133e-06
9.12359e-06
9.06865e-06
8.35534e-06
6.63237e-06
4.92952e-06
5.38035e-06
1.07957e-05
2.69785e-05
5.63981e-05
7.20876e-05
0.00010901
0.000143856
0.000175526
0.000206665
0.000235854
0.000263884
0.000291248
0.000316228
0.000339667
0.000362729
0.000386111
0.00041014
0.000435395
0.000463153
0.000494216
0.000529161
0.000569728
0.000615054
0.000665009
0.000720583
0.000780181
0.000844491
0.000910184
0.000973689
0.00102238
0.00112902
9.03998e-06
9.1885e-06
9.19913e-06
9.23337e-06
9.16241e-06
9.13945e-06
9.0455e-06
8.2537e-06
6.89829e-06
5.00993e-06
5.53706e-06
1.20019e-05
3.05864e-05
5.64085e-05
7.19227e-05
0.000109007
0.000145127
0.000178466
0.000211378
0.000243648
0.000274872
0.000305251
0.000334495
0.000362592
0.000389779
0.000417503
0.00044618
0.000477522
0.000512177
0.000550326
0.000594925
0.000643688
0.000697267
0.000754732
0.000816588
0.000881607
0.000949938
0.00101519
0.00108629
0.00113778
0.00124345
8.97677e-06
9.14825e-06
9.16591e-06
9.1971e-06
9.18504e-06
9.13812e-06
9.01339e-06
7.75507e-06
5.32805e-06
4.42391e-06
5.65442e-06
1.25238e-05
3.22829e-05
5.88921e-05
7.50514e-05
0.000113005
0.000150621
0.000185746
0.00022043
0.000254698
0.000288381
0.000321201
0.000353605
0.000385481
0.000417515
0.000449822
0.000484355
0.000521235
0.000561766
0.000608155
0.00065892
0.000713334
0.000772724
0.000835124
0.000901983
0.000970286
0.00104393
0.00112007
0.00108606
0.0014529
0.0017697
9.03233e-06
9.18964e-06
9.22919e-06
9.1902e-06
9.19159e-06
9.15259e-06
8.53582e-06
5.72067e-06
3.81013e-06
3.86743e-06
6.00177e-06
1.46719e-05
3.87101e-05
6.34209e-05
7.76982e-05
0.000115502
0.000153544
0.000189245
0.000224627
0.000259883
0.000294785
0.000329086
0.000363072
0.000396756
0.000430977
0.000465604
0.000502688
0.000542198
0.00058532
0.000633806
0.00068623
0.000741769
0.000802423
0.000865746
0.00093165
0.00100347
0.00107186
0.00116053
0.00110237
0.00158385
0.00197157
8.48592e-06
8.16798e-06
7.87508e-06
7.65727e-06
7.54287e-06
7.54268e-06
7.65411e-06
7.87093e-06
8.18674e-06
8.59815e-06
9.10605e-06
9.71575e-06
1.0436e-05
1.12862e-05
1.22866e-05
1.34679e-05
1.4864e-05
1.652e-05
1.84719e-05
2.07777e-05
2.34613e-05
2.65617e-05
2.99728e-05
3.09943e-05
8.99081e-06
8.97201e-06
8.95425e-06
8.93713e-06
8.92063e-06
8.90521e-06
8.89016e-06
8.87512e-06
8.86127e-06
8.84851e-06
8.8365e-06
8.82452e-06
8.81276e-06
8.93992e-06
8.5912e-06
8.30886e-06
8.01571e-06
7.78595e-06
7.64123e-06
7.60219e-06
7.67048e-06
7.84122e-06
8.10858e-06
8.46798e-06
8.91973e-06
9.46541e-06
1.0115e-05
1.08815e-05
1.17904e-05
1.28624e-05
1.41383e-05
1.56461e-05
1.74345e-05
1.95399e-05
2.20174e-05
2.49194e-05
2.83999e-05
3.22529e-05
3.15386e-05
5.50437e-05
6.4635e-05
8.99105e-06
8.9724e-06
8.95491e-06
8.93826e-06
8.92236e-06
8.90754e-06
8.89382e-06
8.88128e-06
8.86974e-06
8.85943e-06
8.84981e-06
8.84007e-06
8.83244e-06
8.80618e-06
8.63218e-06
8.39917e-06
8.13965e-06
7.92722e-06
7.77774e-06
7.70681e-06
7.72358e-06
7.82659e-06
8.01204e-06
8.27551e-06
8.61276e-06
9.02539e-06
9.51655e-06
1.00991e-05
1.07865e-05
1.16036e-05
1.25741e-05
1.37329e-05
1.51146e-05
1.67668e-05
1.87529e-05
2.1182e-05
2.42271e-05
2.79999e-05
3.18311e-05
3.56219e-05
3.88972e-05
8.99932e-06
8.98292e-06
8.96658e-06
8.95065e-06
8.9353e-06
8.92082e-06
8.90718e-06
8.89442e-06
8.88231e-06
8.8716e-06
8.86139e-06
8.85057e-06
8.84169e-06
8.7912e-06
8.65317e-06
8.4484e-06
8.21966e-06
8.0178e-06
7.87287e-06
7.78804e-06
7.77441e-06
7.83132e-06
7.95295e-06
8.13494e-06
8.37434e-06
8.67191e-06
9.0285e-06
9.45019e-06
9.94543e-06
1.05304e-05
1.12222e-05
1.20522e-05
1.30503e-05
1.42596e-05
1.57341e-05
1.75502e-05
1.98096e-05
2.25443e-05
2.54489e-05
2.85165e-05
3.16248e-05
9.00055e-06
8.98459e-06
8.96865e-06
8.95297e-06
8.93775e-06
8.92333e-06
8.90967e-06
8.89681e-06
8.88503e-06
8.87426e-06
8.86354e-06
8.85302e-06
8.8422e-06
8.78794e-06
8.65925e-06
8.45287e-06
8.23549e-06
8.04046e-06
7.89733e-06
7.81292e-06
7.78999e-06
7.82667e-06
7.91809e-06
8.06092e-06
8.25233e-06
8.49272e-06
8.78207e-06
9.12541e-06
9.52683e-06
9.99716e-06
1.05487e-05
1.12012e-05
1.19797e-05
1.29167e-05
1.40502e-05
1.54204e-05
1.70723e-05
1.89896e-05
2.11069e-05
2.34641e-05
2.58638e-05
9.00109e-06
8.98539e-06
8.96955e-06
8.95389e-06
8.9387e-06
8.92441e-06
8.9108e-06
8.89811e-06
8.88638e-06
8.87488e-06
8.86357e-06
8.85209e-06
8.84197e-06
8.78911e-06
8.65413e-06
8.4436e-06
8.22279e-06
8.03042e-06
7.88636e-06
7.80059e-06
7.77671e-06
7.80976e-06
7.8938e-06
8.02498e-06
8.20008e-06
8.41851e-06