/*--------------------------------*- C++ -*----------------------------------*\
  =========                 |
  \\      /  F ield         | OpenFOAM: The Open Source CFD Toolbox
   \\    /   O peration     | Website:  https://openfoam.org
    \\  /    A nd           | Version:  7
     \\/     M anipulation  |
\*---------------------------------------------------------------------------*/
FoamFile
{
    version     2.0;
    format      ascii;
    class       volScalarField;
    location    "600";
    object      p;
}
// * * * * * * * * * * * * * * * * * * * * * * * * * * * * * * * * * * * * * //

dimensions      [0 2 -2 0 0 0 0];

internalField   nonuniform List<scalar> 
120313
(
-20.4968
-19.7529
-18.6679
-17.3415
-15.8658
-14.3262
-12.7761
-11.2398
-9.8123
-8.44067
-7.15954
-6.01729
-5.01278
-4.14739
-3.3986
-2.75753
-2.21784
-1.76609
-1.38752
-1.07477
-0.80762
-0.592597
-0.391681
-0.22215
-20.4719
-19.7775
-18.7011
-17.3765
-15.8893
-14.3407
-12.8374
-11.3296
-9.84327
-8.45094
-7.1753
-6.03448
-5.03349
-4.16325
-3.41046
-2.77202
-2.23331
-1.78089
-1.40098
-1.08847
-0.820563
-0.605079
-0.397059
-0.235938
-20.453
-19.7662
-18.6897
-17.3638
-15.8748
-14.3236
-12.8252
-11.3288
-9.83524
-8.43044
-7.15819
-6.02042
-5.02371
-4.15417
-3.40133
-2.76427
-2.22663
-1.77472
-1.39536
-1.08294
-0.81591
-0.598184
-0.390978
-0.239353
-20.4504
-19.7686
-18.693
-17.3657
-15.8747
-14.3234
-12.83
-11.3264
-9.82401
-8.41786
-7.14526
-6.00986
-5.01465
-4.14599
-3.39493
-2.75951
-2.22243
-1.77147
-1.39281
-1.08076
-0.814282
-0.596441
-0.389956
-0.242161
-20.4509
-19.7704
-18.6949
-17.367
-15.8746
-14.3224
-12.8302
-11.3232
-9.81866
-8.41256
-7.13978
-6.00543
-5.01057
-4.14222
-3.39214
-2.75741
-2.22013
-1.76973
-1.39154
-1.07987
-0.813888
-0.596317
-0.390257
-0.24195
-20.4559
-19.7711
-18.6956
-17.3677
-15.8743
-14.32
-12.8255
-11.3198
-9.82002
-8.41484
-7.1417
-6.0074
-5.01206
-4.14337
-3.39277
-2.75752
-2.2194
-1.76924
-1.39143
-1.08024
-0.814755
-0.597677
-0.390871
-0.246173
-20.4803
-19.7851
-18.71
-17.3823
-15.8888
-14.3352
-12.8354
-11.3147
-9.82081
-8.42712
-7.14914
-6.01452
-5.01599
-4.14724
-3.39678
-2.76106
-2.2223
-1.77252
-1.3951
-1.08445
-0.819082
-0.604518
-0.398552
-0.241599
-20.5075
-19.7622
-18.6768
-17.3467
-15.8625
-14.3154
-12.7583
-11.2146
-9.79204
-8.407
-7.123
-5.99028
-4.99115
-4.12997
-3.38076
-2.74265
-2.20366
-1.75416
-1.37848
-1.06857
-0.805012
-0.59184
-0.39272
-0.227347
-19.4241
-19.6957
-19.9904
-20.288
-20.578
-20.8352
-21.0279
-21.1856
-21.0417
-20.7433
-20.1234
-19.1274
-17.8738
-16.454
-14.9493
-13.4163
-11.8911
-10.4148
-9.01035
-7.70918
-6.51408
-5.44405
-4.5224
-3.73058
-3.04974
-2.4866
-2.00816
-1.60632
-1.27223
-0.990788
-0.749793
-0.54352
-0.35864
-0.209172
-0.0757062
-0.00670573
-19.4351
-19.7006
-19.9936
-20.2905
-20.5799
-20.8357
-21.0261
-21.2013
-21.0631
-20.6484
-20.0374
-18.931
-17.6316
-16.1877
-14.6799
-13.1533
-11.6396
-10.175
-8.78418
-7.48238
-6.32171
-5.29083
-4.39714
-3.63058
-2.98341
-2.43683
-1.97656
-1.58579
-1.26068
-0.98133
-0.758105
-0.541691
-0.385387
-0.280233
-0.0135758
-0.0713716
-19.4482
-19.7046
-19.9969
-20.2936
-20.5825
-20.8374
-21.0256
-21.1937
-21.0643
-20.6654
-20.1102
-18.9809
-17.6744
-16.2299
-14.7256
-13.2067
-11.6897
-10.1941
-8.79073
-7.49686
-6.33851
-5.31611
-4.42879
-3.65701
-3.00453
-2.46151
-1.99978
-1.60714
-1.28073
-0.998444
-0.773331
-0.550611
-0.414706
-0.302823
-0.0149885
-0.0993485
-19.4545
-19.7106
-20.0021
-20.2979
-20.5855
-20.8383
-21.0226
-21.1801
-21.0383
-20.6598
-20.1395
-18.9999
-17.688
-16.2407
-14.7364
-13.2188
-11.6968
-10.1867
-8.77426
-7.48524
-6.32943
-5.3115
-4.42502
-3.65279
-3.00146
-2.46045
-1.99962
-1.60709
-1.28116
-0.99853
-0.774934
-0.551383
-0.436774
-0.311715
-0.0115517
-0.107588
-19.4647
-19.7211
-20.0092
-20.3022
-20.5875
-20.8371
-21.0176
-21.1723
-21.0292
-20.6623
-20.1552
-19.0116
-17.6978
-16.2489
-14.7445
-13.2255
-11.6971
-10.1782
-8.76564
-7.47588
-6.32192
-5.30614
-4.4202
-3.64959
-3.00025
-2.46042
-2.00032
-1.60816
-1.2827
-1.00013
-0.777361
-0.554116
-0.448938
-0.314804
-0.0127155
-0.111959
-19.4723
-19.7294
-20.0142
-20.3046
-20.5878
-20.8353
-21.0142
-21.1688
-21.0231
-20.6621
-20.1572
-19.0143
-17.7003
-16.2507
-14.7454
-13.2252
-11.694
-10.1731
-8.76084
-7.47044
-6.3173
-5.30197
-4.41641
-3.64669
-2.99813
-2.45867
-1.99888
-1.60714
-1.28203
-1.00007
-0.777752
-0.555291
-0.451742
-0.314525
-0.0137593
-0.11459
-19.4796
-19.7323
-20.0151
-20.3041
-20.5864
-20.8336
-21.0129
-21.1675
-21.0259
-20.6595
-20.1449
-19.0077
-17.696
-16.2467
-14.74
-13.2188
-11.6896
-10.1741
-8.76258
-7.47194
-6.31825
-5.30187
-4.41607
-3.64633
-2.9973
-2.45741
-1.99739
-1.60602
-1.28108
-1.00007
-0.777485
-0.554206
-0.439584
-0.325541
-0.0198086
-0.11424
-19.4839
-19.7309
-20.0126
-20.301
-20.5829
-20.8308
-21.0124
-21.1701
-21.036
-20.6662
-20.119
-18.9925
-17.6864
-16.2398
-14.7317
-13.2074
-11.6812
-10.1777
-8.77291
-7.47727
-6.32345
-5.30351
-4.41769
-3.64915
-2.99947
-2.45787
-1.99727
-1.60621
-1.28119
-1.00106
-0.77777
-0.557954
-0.426038
-0.31547
-0.0253669
-0.112865
-19.4876
-19.7312
-20.0098
-20.2964
-20.5775
-20.8254
-21.0094
-21.1823
-21.0645
-20.6461
-20.0451
-18.9423
-17.6438
-16.1983
-14.6859
-13.1527
-11.6315
-10.1583
-8.75868
-7.45601
-6.30595
-5.27684
-4.38708
-3.62359
-2.97652
-2.4326
-1.97299
-1.58367
-1.26048
-0.984458
-0.763902
-0.551467
-0.400875
-0.305294
-0.0279528
-0.107208
-19.4931
-19.7321
-20.0063
-20.2905
-20.5703
-20.8172
-21.002
-21.1821
-21.0851
-20.627
-19.9614
-18.9
-17.6117
-16.1714
-14.6582
-13.1219
-11.603
-10.1377
-8.74727
-7.46507
-6.30577
-5.27498
-4.38751
-3.61831
-2.96202
-2.41839
-1.95708
-1.56816
-1.24262
-0.967247
-0.738229
-0.545136
-0.381342
-0.283115
-0.0227791
-0.0945238
-19.5022
-19.7324
-20.0023
-20.2859
-20.5658
-20.813
-20.9983
-21.167
-21.0249
-20.7216
-20.1109
-19.1256
-17.8794
-16.4596
-14.9512
-13.4087
-11.8768
-10.3922
-8.98532
-7.68332
-6.50572
-5.43259
-4.50961
-3.71911
-3.03758
-2.47493
-1.99667
-1.59853
-1.26614
-0.984582
-0.746385
-0.541179
-0.370807
-0.233247
-0.107368
-0.0736194
-19.5116
-19.7267
-19.9971
-20.2831
-20.5658
-20.8168
-21.0074
-21.1908
-21.034
-20.7157
-20.0998
-19.129
-17.8847
-16.4703
-14.9645
-13.4236
-11.8937
-10.412
-9.01017
-7.71098
-6.53257
-5.45484
-4.5334
-3.73902
-3.05986
-2.49291
-2.01525
-1.61824
-1.28309
-0.998171
-0.75385
-0.546321
-0.377803
-0.231328
-0.10766
-0.0770226
-20.7069
-19.9818
-19.0124
-17.7265
-16.3054
-14.8145
-13.2923
-11.7792
-10.3185
-8.93572
-7.66253
-6.51213
-5.49194
-4.60523
-3.83579
-3.17923
-2.62079
-2.14934
-1.75037
-1.41316
-1.12305
-0.875038
-0.669439
-0.511185
-19.582
-19.7926
-20.0398
-20.321
-20.6131
-20.8783
-21.0701
-21.1898
-21.1226
-20.7149
-20.0221
-19.0082
-17.7243
-16.3033
-14.8124
-13.2924
-11.7805
-10.3198
-8.9344
-7.65906
-6.50782
-5.48954
-4.60225
-3.83043
-3.17063
-2.61096
-2.13743
-1.7375
-1.39908
-1.11141
-0.865004
-0.658466
-0.468316
-0.360513
-0.0442051
-0.0391751
-19.5878
-19.7923
-20.0405
-20.3223
-20.6142
-20.8783
-21.0655
-21.1861
-21.1011
-20.7037
-20.0481
-19.0118
-17.7342
-16.3158
-14.8267
-13.309
-11.7963
-10.3319
-8.94441
-7.66421
-6.51753
-5.5011
-4.6136
-3.84335
-3.18424
-2.62457
-2.14964
-1.74638
-1.40657
-1.1165
-0.872717
-0.664357
-0.484428
-0.327289
-0.208619
0.0409286
-19.5949
-19.7944
-20.0439
-20.326
-20.6171
-20.8794
-21.062
-21.1806
-21.0866
-20.715
-20.0772
-19.0262
-17.7474
-16.3313
-14.8459
-13.3328
-11.8133
-10.3321
-8.94463
-7.67077
-6.5264
-5.5138
-4.6286
-3.85697
-3.19625
-2.63764
-2.16133
-1.7564
-1.41557
-1.12354
-0.879441
-0.670714
-0.496162
-0.328256
-0.217657
0.0778546
-19.5998
-19.799
-20.0488
-20.3309
-20.6209
-20.8799
-21.0579
-21.1701
-21.0658
-20.7118
-20.0913
-19.0342
-17.7511
-16.332
-14.8474
-13.3352
-11.8112
-10.3238
-8.9348
-7.66206
-6.51931
-5.50987
-4.62577
-3.85474
-3.19518
-2.6378
-2.16172
-1.75681
-1.41597
-1.12324
-0.880662
-0.66887
-0.504282
-0.333121
-0.225406
0.0869724
-19.61
-19.8068
-20.0536
-20.3351
-20.6239
-20.8794
-21.0532
-21.1611
-21.0541
-20.7123
-20.1016
-19.0424
-17.7579
-16.3362
-14.8509
-13.3375
-11.8094
-10.3184
-8.92875
-7.65525
-6.51361
-5.50595
-4.62271
-3.85398
-3.19699
-2.64044
-2.16438
-1.75951
-1.41873
-1.12592
-0.8841
-0.670708
-0.509495
-0.335218
-0.2297
0.0896304
-19.618
-19.813
-20.057
-20.337
-20.6242
-20.8777
-21.0492
-21.1552
-21.0488
-20.7127
-20.1045
-19.0455
-17.7606
-16.3382
-14.8518
-13.3365
-11.8061
-10.3142
-8.92436
-7.65064
-6.50951
-5.50225
-4.61993
-3.85205
-3.19534
-2.63901
-2.16326
-1.75872
-1.41837
-1.12598
-0.884529
-0.671801
-0.510978
-0.335852
-0.232255
0.0892162
-19.6225
-19.8155
-20.0579
-20.3359
-20.6218
-20.8743
-21.0457
-21.1526
-21.048
-20.7131
-20.0998
-19.0436
-17.7603
-16.3391
-14.8511
-13.3337
-11.8029
-10.3128
-8.92379
-7.65043
-6.50939
-5.50152
-4.61848
-3.84923
-3.19144
-2.63521
-2.16022
-1.75668
-1.41721
-1.12565
-0.883797
-0.672231
-0.508373
-0.336011
-0.232762
0.0862738
-19.6235
-19.8156
-20.0566
-20.3329
-20.6176
-20.869
-21.0413
-21.1521
-21.0546
-20.7201
-20.0937
-19.0396
-17.7596
-16.3417
-14.8513
-13.3309
-11.8011
-10.3152
-8.92731
-7.65384
-6.5131
-5.50221
-4.61884
-3.8497
-3.19114
-2.6338
-2.15852
-1.75488
-1.41505
-1.1245
-0.881805
-0.67443
-0.504571
-0.332561
-0.232365
0.0806898
-19.6252
-19.8156
-20.0544
-20.3286
-20.6117
-20.862
-21.0356
-21.1506
-21.0634
-20.7136
-20.0702
-19.0251
-17.7491
-16.3314
-14.8357
-13.3089
-11.7872
-10.3148
-8.92354
-7.64668
-6.50651
-5.49154
-4.60784
-3.84053
-3.18225
-2.62387
-2.149
-1.74634
-1.40749
-1.11926
-0.877489
-0.670091
-0.493753
-0.334371
-0.237427
0.0669256
-19.6288
-19.8157
-20.0509
-20.3233
-20.6052
-20.8546
-21.0301
-21.1515
-21.0724
-20.6985
-20.0414
-19.0105
-17.7358
-16.3164
-14.8189
-13.2901
-11.7709
-10.302
-8.91444
-7.64227
-6.49974
-5.4847
-4.60044
-3.83095
-3.16967
-2.61173
-2.13752
-1.73614
-1.39709
-1.11029
-0.865989
-0.663184
-0.485019
-0.339698
-0.237389
0.0265278
-19.6342
-19.8153
-20.0461
-20.3188
-20.6012
-20.8508
-21.0298
-21.1565
-21.0924
-20.6995
-20.0302
-19.0114
-17.7315
-16.3101
-14.8103
-13.2795
-11.7606
-10.2929
-8.90878
-7.64021
-6.49728
-5.48154
-4.59514
-3.82696
-3.16836
-2.6107
-2.13766
-1.73867
-1.40003
-1.11403
-0.865925
-0.665285
-0.475736
-0.370466
-0.0560263
-0.0725206
-19.637
-19.8131
-20.0425
-20.3167
-20.6004
-20.8516
-21.0353
-21.1624
-21.0927
-20.7053
-20.05
-19.0281
-17.7355
-16.3117
-14.8105
-13.2772
-11.7573
-10.2885
-8.90523
-7.63869
-6.49698
-5.48302
-4.59713
-3.83139
-3.17666
-2.62214
-2.15131
-1.75382
-1.41469
-1.1275
-0.875345
-0.675182
-0.475665
-0.39012
-0.0245643
-0.0457026
-20.4037
-19.6429
-18.7491
-17.5645
-16.2138
-14.7825
-13.2906
-11.7977
-10.3489
-8.98687
-7.73461
-6.60694
-5.60774
-4.73405
-3.97139
-3.32083
-2.76241
-2.2899
-1.88066
-1.53729
-1.23301
-0.989527
-0.749475
-0.61127
-19.6666
-19.8073
-20.0461
-20.337
-20.6337
-20.8995
-21.0753
-21.144
-20.9195
-20.444
-19.6957
-18.792
-17.6025
-16.2438
-14.8041
-13.3097
-11.8099
-10.3565
-8.988
-7.73468
-6.60776
-5.61133
-4.73507
-3.97137
-3.3156
-2.75741
-2.28032
-1.87363
-1.52641
-1.22968
-0.976583
-0.757583
-0.553557
-0.445592
-0.0975344
-0.0263321
-19.6805
-19.805
-20.041
-20.3334
-20.6298
-20.8961
-21.0637
-21.123
-20.897
-20.4429
-19.6911
-18.7832
-17.6024
-16.2431
-14.796
-13.3012
-11.7983
-10.3416
-8.9763
-7.72764
-6.60555
-5.6084
-4.73349
-3.97255
-3.31744
-2.75849
-2.28
-1.87265
-1.5247
-1.22705
-0.974011
-0.753363
-0.564702
-0.384593
-0.243521
-0.040361
-19.6793
-19.8007
-20.0479
-20.3388
-20.6301
-20.8943
-21.0545
-21.1072
-20.8877
-20.4509
-19.7035
-18.7946
-17.6065
-16.2421
-14.7916
-13.2957
-11.7867
-10.3278
-8.97229
-7.73032
-6.6096
-5.61077
-4.73413
-3.97385
-3.31929
-2.76157
-2.28319
-1.87535
-1.52728
-1.22847
-0.975363
-0.752312
-0.565765
-0.376201
-0.244739
-0.0349789
-19.6756
-19.8012
-20.0563
-20.346
-20.6356
-20.8932
-21.0483
-21.0969
-20.8776
-20.4568
-19.7175
-18.8049
-17.609
-16.2373
-14.784
-13.2855
-11.7754
-10.322
-8.97111
-7.72821
-6.60712
-5.60797
-4.73111
-3.97052
-3.31584
-2.7587
-2.28078
-1.87364
-1.52561
-1.22698
-0.974645
-0.750489
-0.566545
-0.373702
-0.24506
-0.0304515
-19.6852
-19.8096
-20.0558
-20.3531
-20.6433
-20.8926
-21.0431
-21.0886
-20.8699
-20.462
-19.7301
-18.8155
-17.6155
-16.2398
-14.7838
-13.2829
-11.7726
-10.3209
-8.97045
-7.72741
-6.60511
-5.60665
-4.73082
-3.96918
-3.31299
-2.75608
-2.27889
-1.87295
-1.5254
-1.22729
-0.975628
-0.751922
-0.569229
-0.374865
-0.247575
-0.0295231
-19.6955
-19.8163
-20.057
-20.3568
-20.6448
-20.8903
-21.0386
-21.0823
-20.8641
-20.465
-19.7349
-18.8199
-17.6191
-16.2421
-14.7844
-13.281
-11.7694
-10.3177
-8.96665
-7.72383
-6.60094
-5.6029
-4.72756
-3.96608
-3.31042
-2.75393
-2.27708
-1.87151
-1.52413
-1.22628
-0.974913
-0.751534
-0.568715
-0.375055
-0.248901
-0.0294355
-19.699
-19.8181
-20.0596
-20.3539
-20.6396
-20.8855
-21.0343
-21.0767
-20.8601
-20.4652
-19.7325
-18.8201
-17.6227
-16.2475
-14.7883
-13.2824
-11.7676
-10.3141
-8.96243
-7.71967
-6.59805
-5.59922
-4.72421
-3.9649
-3.31119
-2.75476
-2.27744
-1.87128
-1.52396
-1.22633
-0.974963
-0.751995
-0.568002
-0.374281
-0.249686
-0.031435
-19.6983
-19.8233
-20.0596
-20.3508
-20.6369
-20.876
-21.0244
-21.072
-20.8619
-20.467
-19.731
-18.8197
-17.6292
-16.2581
-14.7975
-13.2893
-11.7711
-10.312
-8.95716
-7.71583
-6.59581
-5.59654
-4.72115
-3.9627
-3.31047
-2.75433
-2.27756
-1.87151
-1.52473
-1.2276
-0.975134
-0.752648
-0.5668
-0.373398
-0.249726
-0.034339
-19.6976
-19.8254
-20.0608
-20.3461
-20.6314
-20.8669
-21.0161
-21.0694
-20.8654
-20.4549
-19.7185
-18.8131
-17.6327
-16.2656
-14.8033
-13.294
-11.7786
-10.3154
-8.95213
-7.70833
-6.5902
-5.59306
-4.71879
-3.96013
-3.30814
-2.75161
-2.2749
-1.8689
-1.52248
-1.22652
-0.973786
-0.752751
-0.567062
-0.378452
-0.255738
-0.0406869
-19.703
-19.8271
-20.0564
-20.3403
-20.6247
-20.8597
-21.0127
-21.0712
-20.8665
-20.4277
-19.6983
-18.8012
-17.6264
-16.2621
-14.8007
-13.2925
-11.7815
-10.3182
-8.94937
-7.70302
-6.58546
-5.59068
-4.71734
-3.95857
-3.30621
-2.74986
-2.27335
-1.86771
-1.52075
-1.22576
-0.9709
-0.755396
-0.568737
-0.391637
-0.265618
-0.0506719
-19.7139
-19.8255
-20.0434
-20.3389
-20.6231
-20.8551
-21.0157
-21.0821
-20.8618
-20.4126
-19.6901
-18.7957
-17.6211
-16.2614
-14.8016
-13.2936
-11.7856
-10.3264
-8.95688
-7.71088
-6.59268
-5.59823
-4.72333
-3.96578
-3.31306
-2.75686
-2.27982
-1.87492
-1.52653
-1.23218
-0.973111
-0.765815
-0.566256
-0.454926
-0.110152
-0.0429398
-19.7124
-19.8113
-20.0392
-20.3441
-20.6283
-20.8618
-21.0267
-21.1007
-20.8593
-20.4068
-19.6733
-18.7824
-17.6075
-16.2505
-14.7945
-13.2864
-11.7824
-10.3269
-8.96081
-7.71799
-6.60063
-5.60654
-4.73287
-3.97709
-3.3242
-2.76799
-2.29039
-1.88565
-1.53557
-1.2407
-0.978939
-0.770713
-0.565897
-0.486662
-0.081756
-0.00612659
-19.7035
-18.6334
-17.9957
-17.047
-15.8136
-14.4495
-13.0464
-11.6487
-10.2801
-8.98293
-7.80013
-6.7359
-5.77043
-4.91543
-4.16579
-3.52373
-2.9622
-2.48136
-2.05569
-1.6923
-1.36874
-1.09106
-0.843185
-0.608231
-19.5033
-19.7154
-19.8668
-20.0787
-20.3451
-20.5854
-20.7177
-20.6392
-20.2188
-19.7579
-18.6356
-17.9956
-17.0602
-15.8253
-14.4644
-13.0584
-11.6556
-10.2904
-8.98983
-7.80463
-6.73726
-5.77601
-4.9171
-4.17036
-3.52295
-2.96322
-2.47533
-2.05372
-1.68604
-1.3674
-1.08703
-0.83724
-0.610973
-0.399642
-0.0464771
-0.0160029
-19.5856
-19.6962
-19.8331
-20.054
-20.3314
-20.5747
-20.6893
-20.5907
-20.1757
-19.7213
-18.5935
-17.9663
-17.0179
-15.783
-14.4349
-13.0412
-11.6425
-10.2783
-8.98613
-7.80112
-6.74252
-5.78279
-4.92517
-4.17814
-3.53045
-2.96575
-2.47604
-2.05292
-1.68578
-1.36542
-1.0868
-0.837962
-0.620171
-0.418084
-0.244113
-0.0714806
-19.5806
-19.6891
-19.8611
-20.0641
-20.3212
-20.5681
-20.6723
-20.5542
-20.1604
-19.7052
-18.5747
-17.9628
-17.0034
-15.7665
-14.4232
-13.0342
-11.6343
-10.2701
-8.98399
-7.80548
-6.75215
-5.79348
-4.93263
-4.18322
-3.53479
-2.97115
-2.48039
-2.05669
-1.68879
-1.36834
-1.08945
-0.841336
-0.627143
-0.420914
-0.248803
-0.076037
-19.5554
-19.6935
-19.8921
-20.0765
-20.3312
-20.5659
-20.667
-20.5465
-20.1542
-19.7013
-18.5777
-17.9665
-17.0018
-15.7582
-14.4134
-13.0245
-11.6234
-10.2606
-8.9807
-7.80736
-6.75553
-5.79592
-4.93454
-4.1841
-3.5352
-2.97173
-2.48145
-2.0574
-1.68922
-1.36918
-1.09102
-0.842344
-0.628327
-0.422054
-0.252923
-0.0784601
-19.5741
-19.7121
-19.8821
-20.0922
-20.3514
-20.5653
-20.6663
-20.5435
-20.1501
-19.701
-18.5926
-17.9796
-17.0078
-15.76
-14.4133
-13.0214
-11.619
-10.2586
-8.98064
-7.8116
-6.7593
-5.79904
-4.93799
-4.18472
-3.53238
-2.96897
-2.4804
-2.05716
-1.68953
-1.36955
-1.09226
-0.845016
-0.63287
-0.428048
-0.259527
-0.0803661
-19.5894
-19.7188
-19.8771
-20.1087
-20.3602
-20.5655
-20.6628
-20.5407
-20.1343
-19.7082
-18.5898
-17.9779
-17.0089
-15.7604
-14.4121
-13.0183
-11.6153
-10.2551
-8.97491
-7.81055
-6.7559
-5.79594
-4.93409
-4.18098
-3.52996
-2.96718
-2.47928
-2.05633
-1.6887
-1.36873
-1.09211
-0.844144
-0.632494
-0.427894
-0.259265
-0.0801915
-19.5996
-19.7165
-19.8885
-20.0943
-20.3426
-20.5633
-20.6614
-20.5323
-20.1233
-19.7247
-18.5817
-17.9771
-17.0122
-15.7646
-14.4145
-13.0196
-11.615
-10.2527
-8.97146
-7.80278
-6.75064
-5.78993
-4.93041
-4.18184
-3.53431
-2.97073
-2.48109
-2.05661
-1.6882
-1.36819
-1.09182
-0.84463
-0.632647
-0.426991
-0.258753
-0.0803141
-19.582
-19.7333
-19.8854
-20.091
-20.3492
-20.544
-20.6436
-20.518
-20.1018
-19.7271
-18.5789
-17.976
-17.0179
-15.7728
-14.4204
-13.0227
-11.6171
-10.2521
-8.96506
-7.79433
-6.73904
-5.78269
-4.92389
-4.17587
-3.53007
-2.96752
-2.47856
-2.05559
-1.68896
-1.36918
-1.09189
-0.844256
-0.631138
-0.423421
-0.254456
-0.0792489
-19.5679
-19.7367
-19.892
-20.0811
-20.3429
-20.5292
-20.6311
-20.5078
-20.0848
-19.7318
-18.583
-17.9686
-17.0231
-15.783
-14.428
-13.0276
-11.6216
-10.256
-8.96395
-7.78693
-6.73133
-5.7782
-4.9197
-4.17148
-3.52651
-2.96462
-2.47539
-2.05302
-1.68688
-1.36756
-1.09039
-0.844271
-0.631983
-0.423283
-0.25237
-0.079225
-19.5751
-19.7366
-19.8828
-20.0715
-20.3333
-20.5223
-20.6292
-20.5046
-20.0694
-19.724
-18.587
-17.9583
-17.0192
-15.7822
-14.4254
-13.0238
-11.6196
-10.2536
-8.96045
-7.77878
-6.72316
-5.76707
-4.91028
-4.16506
-3.5224
-2.96214
-2.47396
-2.05236
-1.68621
-1.36798
-1.09029
-0.846131
-0.630916
-0.421969
-0.252533
-0.0780451
-19.592
-19.7277
-19.8519
-20.0773
-20.3311
-20.5093
-20.6356
-20.5308
-20.0836
-19.7082
-18.5939
-17.9629
-17.0328
-15.794
-14.4331
-13.0285
-11.6247
-10.2598
-8.96296
-7.78255
-6.72241
-5.76852
-4.911
-4.16898
-3.52371
-2.96604
-2.47681
-2.05834
-1.68899
-1.37385
-1.0892
-0.849286
-0.631717
-0.402895
-0.0777934
-0.0360471
-19.6615
-19.6865
-19.8768
-20.1073
-20.352
-20.5362
-20.6643
-20.5931
-20.1253
-19.7259
-18.5929
-17.956
-17.0346
-15.7939
-14.4278
-13.0231
-11.6219
-10.2573
-8.95979
-7.78198
-6.72301
-5.76996
-4.91537
-4.17558
-3.52829
-2.97044
-2.481
-2.0631
-1.6928
-1.37769
-1.09046
-0.851555
-0.631764
-0.417582
-0.0406182
0.0026201
-18.436
-17.8749
-17.2136
-16.2843
-15.1594
-13.9442
-12.7144
-11.4726
-10.233
-9.03721
-7.97015
-7.00274
-6.08585
-5.24791
-4.51206
-3.86899
-3.29033
-2.78361
-2.32691
-1.9326
-1.57266
-1.26296
-0.994281
-0.73268
-17.9651
-17.9026
-17.8558
-17.7194
-17.5438
-18.2559
-18.879
-19.178
-19.5087
-19.7778
-19.9388
-19.9843
-19.8196
-19.2799
-18.4024
-17.8657
-17.2038
-16.2806
-15.1612
-13.9506
-12.7155
-11.4766
-10.2541
-9.04819
-7.9644
-7.00192
-6.0971
-5.25377
-4.51057
-3.86578
-3.2944
-2.78258
-2.33225
-1.93077
-1.57914
-1.26019
-0.980908
-0.724424
-0.501262
-0.32719
-0.105764
-17.9314
-17.9269
-17.8864
-17.7706
-17.6225
-18.2536
-18.8924
-19.256
-19.5333
-19.7881
-19.9463
-19.9665
-19.7701
-19.2544
-18.3865
-17.8564
-17.1994
-16.2767
-15.1531
-13.9496
-12.711
-11.4774
-10.2516
-9.05973
-7.95371
-6.99625
-6.1074
-5.26235
-4.5095
-3.86324
-3.29089
-2.78293
-2.33127
-1.9326
-1.57784
-1.26154
-0.977515
-0.725826
-0.494352
-0.291212
-0.114167
-17.9368
-17.943
-17.9124
-17.8159
-17.6936
-18.3004
-18.8955
-19.2625
-19.5458
-19.8061
-19.9614
-19.9461
-19.7273
-19.2399
-18.3601
-17.8348
-17.2028
-16.2822
-15.1576
-13.9528
-12.7157
-11.48
-10.2562
-9.06456
-7.95625
-6.99982
-6.11674
-5.27062
-4.51521
-3.8657
-3.29217
-2.78472
-2.33322
-1.93616
-1.58051
-1.26731
-0.977928
-0.726076
-0.483996
-0.276751
-0.110114
-17.9489
-17.9586
-17.9353
-17.8535
-17.7525
-18.328
-18.9108
-19.2801
-19.5684
-19.8241
-19.9803
-19.9505
-19.7133
-19.2215
-18.3526
-17.8327
-17.206
-16.2919
-15.1623
-13.9559
-12.7166
-11.4811
-10.2534
-9.0618
-7.95978
-7.00571
-6.11715
-5.27003
-4.51536
-3.86634
-3.29224
-2.78473
-2.33267
-1.93617
-1.58109
-1.26799
-0.976816
-0.720278
-0.475074
-0.268593
-0.107935
-17.9605
-17.9719
-17.9525
-17.8773
-17.796
-18.3413
-18.9113
-19.2946
-19.586
-19.8315
-19.9855
-19.9694
-19.7202
-19.2262
-18.3385
-17.8284
-17.209
-16.2976
-15.1662
-13.9573
-12.718
-11.4814
-10.2541
-9.06096
-7.96735
-7.01223
-6.11842
-5.27061
-4.51759
-3.86865
-3.29418
-2.78724
-2.33403
-1.93835
-1.58289
-1.27043
-0.97802
-0.72037
-0.473114
-0.269367
-0.110806
-17.9699
-17.9818
-17.9633
-17.8847
-17.7843
-18.3513
-18.9251
-19.2879
-19.5765
-19.8301
-19.9986
-19.9497
-19.7359
-19.2244
-18.3317
-17.8218
-17.2106
-16.3041
-15.1698
-13.9587
-12.7176
-11.4801
-10.2548
-9.04952
-7.9689
-7.01739
-6.11245
-5.2669
-4.51407
-3.86718
-3.29289
-2.78605
-2.33236
-1.93699
-1.58136
-1.26944
-0.976241
-0.719266
-0.471441
-0.26647
-0.107609
-17.9766
-17.9888
-17.9701
-17.8898
-17.7765
-18.3586
-18.9263
-19.2943
-19.5699
-19.8211
-19.9743
-19.9421
-19.7354
-19.2241
-18.3374
-17.8204
-17.2111
-16.2993
-15.167
-13.9561
-12.7152
-11.4772
-10.2494
-9.05337
-7.96232
-7.00818
-6.11282
-5.26591
-4.51384
-3.86729
-3.29322
-2.78703
-2.33325
-1.9378
-1.58168
-1.26995
-0.977103
-0.721125
-0.473147
-0.26961
-0.11117
-17.9804
-17.993
-17.9757
-17.9032
-17.8153
-18.3398
-18.9282
-19.3072
-19.5857
-19.826
-19.9764
-19.9433
-19.718
-19.2136
-18.3531
-17.8256
-17.2015
-16.2884
-15.1611
-13.9527
-12.7112
-11.473
-10.2507
-9.04713
-7.95408
-6.99955
-6.10551
-5.26591
-4.5098
-3.86254
-3.28886
-2.78334
-2.33118
-1.9361
-1.5797
-1.26817
-0.976091
-0.72236
-0.474471
-0.271411
-0.111788
-17.9815
-17.9936
-17.9762
-17.9058
-17.8256
-18.3267
-18.9266
-19.3231
-19.5883
-19.8227
-19.9586
-19.9543
-19.7078
-19.2084
-18.392
-17.8335
-17.1809
-16.2702
-15.151
-13.9456
-12.7059
-11.468
-10.2488
-9.04543
-7.9476
-6.99106
-6.1022
-5.26486
-4.50737
-3.86019
-3.28779
-2.78313
-2.33126
-1.93652
-1.57903
-1.26871
-0.976346
-0.72748
-0.482283
-0.278295
-0.112652
-17.9812
-17.99
-17.9679
-17.891
-17.7989
-18.3114
-18.9258
-19.3117
-19.5948
-19.8144
-19.9565
-19.9262
-19.6998
-19.1975
-18.4343
-17.8353
-17.165
-16.2566
-15.1396
-13.9351
-12.6956
-11.4603
-10.2376
-9.04341
-7.93853
-6.9815
-6.09779
-5.25672
-4.50327
-3.85791
-3.28748
-2.78256
-2.3313
-1.93519
-1.57919
-1.26653
-0.978037
-0.73246
-0.491152
-0.29387
-0.118143
-17.9874
-17.9818
-17.9512
-17.8581
-17.7559
-18.3059
-18.9231
-19.2854
-19.5585
-19.7891
-19.9435
-19.9444
-19.7117
-19.2053
-18.4322
-17.8467
-17.173
-16.2591
-15.1429
-13.9347
-12.6976
-11.4589
-10.2424
-9.03779
-7.94318
-6.98353
-6.09384
-5.2571
-4.50629
-3.8605
-3.2934
-2.785
-2.33603
-1.93606
-1.58362
-1.26321
-0.982086
-0.744694
-0.492478
-0.340307
-0.125514
-18.0518
-17.9638
-17.9291
-17.8058
-17.6515
-18.3492
-18.9245
-19.2549
-19.5164
-19.7749
-19.9427
-19.9677
-19.73
-19.2299
-18.4023
-17.8459
-17.1749
-16.2561
-15.1388
-13.9266
-12.6944
-11.452
-10.2387
-9.03127
-7.94416
-6.98488
-6.09123
-5.25402
-4.50905
-3.86407
-3.29731
-2.78592
-2.33842
-1.93608
-1.58535
-1.2622
-0.984502
-0.753389
-0.503072
-0.35033
-0.102284
-17.973
-17.3487
-16.6038
-15.7058
-14.6905
-13.6099
-12.4913
-11.3635
-10.2429
-9.16663
-8.15364
-7.21797
-6.33977
-5.53302
-4.8004
-4.14678
-3.55663
-3.03062
-2.55848
-2.13848
-1.75567
-1.41129
-1.11368
-0.832382
-17.9949
-17.9814
-17.9647
-17.9543
-18.0347
-18.3573
-18.7156
-18.9666
-19.1562
-19.29
-19.342
-19.2886
-19.1023
-18.6407
-17.9394
-17.3552
-16.6022
-15.7024
-14.6916
-13.6094
-12.4936
-11.3635
-10.2478
-9.16662
-8.15299
-7.21531
-6.34205
-5.53445
-4.80171
-4.14728
-3.55867
-3.03126
-2.5594
-2.13852
-1.75729
-1.41302
-1.0968
-0.815945
-0.577954
-0.370361
-0.142759
-17.9964
-17.9905
-17.978
-17.974
-18.0588
-18.3734
-18.729
-18.9833
-19.1675
-19.2961
-19.3404
-19.2809
-19.0922
-18.623
-17.9328
-17.3601
-16.6051
-15.7041
-14.6893
-13.6087
-12.49
-11.3632
-10.2447
-9.16679
-8.14863
-7.21162
-6.34117
-5.53601
-4.79938
-4.14745
-3.55718
-3.033
-2.55751
-2.13913
-1.75602
-1.41491
-1.09268
-0.815712
-0.558406
-0.330603
-0.144225
-18.0046
-18.0025
-17.996
-17.9999
-18.0896
-18.3971
-18.7442
-18.9956
-19.1756
-19.3043
-19.3407
-19.2736
-19.0797
-18.6166
-17.9156
-17.3597
-16.6149
-15.7098
-14.6933
-13.6094
-12.4923
-11.3633
-10.2466
-9.16733
-8.15014
-7.21198
-6.34427
-5.53788
-4.80124
-4.14774
-3.55831
-3.03383
-2.55896
-2.14006
-1.75802
-1.41768
-1.09696
-0.813581
-0.549598
-0.32068
-0.138243
-18.0153
-18.0153
-18.0134
-18.0235
-18.1169
-18.4173
-18.7576
-19.0064
-19.1803
-19.3097
-19.3458
-19.2726
-19.0728
-18.6151
-17.9095
-17.3636
-16.6232
-15.7165
-14.6932
-13.6086
-12.4883
-11.3604
-10.2414
-9.16404
-8.1464
-7.21125
-6.34148
-5.53588
-4.79788
-4.14547
-3.55534
-3.0322
-2.55705
-2.1396
-1.75708
-1.41787
-1.09864
-0.813274
-0.53972
-0.310226
-0.134116
-18.0256
-18.0267
-18.0273
-18.0403
-18.135
-18.4307
-18.7661
-19.0143
-19.1872
-19.3105
-19.3498
-19.2738
-19.0714
-18.6037
-17.9027
-17.363
-16.629
-15.7194
-14.6945
-13.6077
-12.4883
-11.3594
-10.2417
-9.1638
-8.14884
-7.21422
-6.34333
-5.53681
-4.79936
-4.14649
-3.55632
-3.03312
-2.55823
-2.14111
-1.7585
-1.41938
-1.10076
-0.814519
-0.540599
-0.307486
-0.129953
-18.034
-18.0356
-18.0369
-18.0496
-18.1418
-18.4372
-18.7726
-19.0193
-19.1923
-19.3147
-19.3496
-19.2714
-19.0699
-18.599
-17.9029
-17.3677
-16.6351
-15.7251
-14.696
-13.6083
-12.4867
-11.3578
-10.239
-9.16071
-8.14458
-7.21473
-6.3399
-5.53425
-4.79581
-4.14376
-3.55331
-3.03091
-2.55579
-2.13945
-1.7565
-1.41807
-1.09931
-0.814813
-0.539827
-0.306195
-0.129513
-18.0401
-18.0421
-18.0437
-18.0558
-18.1464
-18.4406
-18.7763
-19.0222
-19.1937
-19.314
-19.347
-19.2687
-19.065
-18.5974
-17.9022
-17.3634
-16.6284
-15.7199
-14.6944
-13.6066
-12.486
-11.3566
-10.2382
-9.15969
-8.14459
-7.2117
-6.34005
-5.53441
-4.79687
-4.14542
-3.55575
-3.0335
-2.55816
-2.14156
-1.7584
-1.41995
-1.10112
-0.816617
-0.543791
-0.307471
-0.128264
-18.0437
-18.0456
-18.0476
-18.0613
-18.1529
-18.4425
-18.7759
-19.0238
-19.1914
-19.3052
-19.3452
-19.2665
-19.0619
-18.5966
-17.9022
-17.3542
-16.6144
-15.7121
-14.691
-13.6057
-12.4845
-11.3559
-10.2372
-9.15841
-8.13976
-7.20877
-6.33597
-5.53324
-4.79501
-4.14395
-3.55426
-3.0326
-2.55702
-2.1404
-1.75744
-1.41908
-1.09935
-0.813808
-0.542298
-0.310269
-0.130813
-18.0448
-18.0462
-18.0478
-18.0614
-18.1532
-18.4397
-18.7739
-19.0227
-19.1856
-19.299
-19.3409
-19.263
-19.0589
-18.5978
-17.9065
-17.3396
-16.5965
-15.6997
-14.6863
-13.6023
-12.4838
-11.3547
-10.2381
-9.15799
-8.13922
-7.20683
-6.33597
-5.53416
-4.79686
-4.14572
-3.55697
-3.03501
-2.55958
-2.14253
-1.75915
-1.42026
-1.09717
-0.812378
-0.54649
-0.320765
-0.137667
-18.044
-18.0438
-18.0424
-18.0526
-18.1433
-18.432
-18.7692
-19.017
-19.1786
-19.294
-19.3365
-19.2603
-19.0586
-18.6058
-17.9133
-17.3319
-16.5826
-15.6897
-14.679
-13.5972
-12.4793
-11.3517
-10.2351
-9.15604
-8.13818
-7.20339
-6.33523
-5.53252
-4.7963
-4.14594
-3.55755
-3.03518
-2.56002
-2.14245
-1.7588
-1.41762
-1.09036
-0.813011
-0.553306
-0.331334
-0.142874
-18.0438
-18.0393
-18.033
-18.0371
-18.1255
-18.4236
-18.7622
-19.0076
-19.1737
-19.2883
-19.3361
-19.2636
-19.0641
-18.6083
-17.9168
-17.3335
-16.5834
-15.6883
-14.6806
-13.5972
-12.4821
-11.3519
-10.239
-9.15639
-8.14173
-7.20506
-6.33718
-5.53376
-4.80045
-4.14857
-3.56168
-3.03697
-2.56389
-2.14486
-1.76169
-1.42026
-1.09705
-0.83015
-0.568643
-0.369094
-0.156416
-18.0482
-18.0348
-18.0252
-18.0232
-18.107
-18.4195
-18.7581
-18.9982
-19.1676
-19.288
-19.336
-19.2677
-19.0682
-18.5987
-17.8984
-17.3184
-16.5719
-15.6785
-14.6736
-13.5918
-12.4788
-11.3486
-10.2375
-9.15475
-8.14224
-7.2056
-6.33729
-5.53397
-4.80204
-4.14994
-3.56282
-3.03674
-2.5655
-2.1448
-1.76317
-1.41935
-1.10151
-0.836311
-0.582304
-0.378932
-0.138857
-17.367
-16.73
-16.0331
-15.2202
-14.3093
-13.3265
-12.3051
-11.2682
-10.2373
-9.23111
-8.26974
-7.37102
-6.52729
-5.74444
-5.02335
-4.37123
-3.77672
-3.24113
-2.75347
-2.3137
-1.91148
-1.54793
-1.22256
-0.919396
-18.0494
-18.05
-18.0588
-18.0935
-18.1889
-18.367
-18.5737
-18.7447
-18.8617
-18.9153
-18.89
-18.7696
-18.5409
-18.0984
-17.3512
-16.7397
-16.0337
-15.2172
-14.3078
-13.3256
-12.3062
-11.2685
-10.2403
-9.23373
-8.27306
-7.37158
-6.53172
-5.7473
-5.02794
-4.37224
-3.78105
-3.24177
-2.75801
-2.3139
-1.91642
-1.54493
-1.21257
-0.889144
-0.636993
-0.421746
-0.161021
-18.0539
-18.0563
-18.0675
-18.105
-18.2011
-18.3771
-18.5821
-18.7525
-18.8676
-18.9186
-18.8902
-18.7672
-18.5385
-18.0862
-17.3544
-16.7442
-16.0306
-15.2165
-14.3043
-13.3242
-12.3021
-11.2667
-10.2359
-9.23209
-8.26805
-7.36833
-6.52744
-5.74704
-5.02365
-4.3715
-3.77578
-3.24211
-2.75232
-2.31603
-1.911
-1.54934
-1.20809
-0.907179
-0.619532
-0.368216
-0.143845
-18.0616
-18.0653
-18.0794
-18.1195
-18.2169
-18.3907
-18.5926
-18.7612
-18.8739
-18.9223
-18.8904
-18.7637
-18.5317
-18.0809
-17.3491
-16.7429
-16.0341
-15.2189
-14.3081
-13.3257
-12.306
-11.268
-10.2397
-9.23341
-8.27184
-7.36924
-6.53176
-5.74887
-5.02791
-4.37244
-3.77949
-3.24267
-2.75607
-2.31672
-1.91549
-1.55138
-1.21402
-0.906321
-0.618908
-0.357341
-0.135861
-18.0705
-18.0751
-18.0914
-18.1339
-18.2318
-18.4037
-18.6024
-18.7688
-18.8792
-18.9258
-18.8918
-18.762
-18.527
-18.074
-17.3459
-16.7453
-16.0362
-15.2214
-14.3069
-13.3251
-12.3026
-11.2657
-10.2348
-9.22989
-8.26637
-7.36655
-6.52675
-5.74579
-5.02248
-4.36948
-3.77452
-3.24056
-2.75193
-2.3156
-1.91233
-1.5513
-1.21144
-0.905029
-0.613533
-0.350567
-0.133512
-18.0791
-18.0843
-18.1018
-18.1454
-18.2433
-18.4135
-18.61
-18.7749
-18.8837
-18.9283
-18.8929
-18.7609
-18.5238
-18.0701
-17.3439
-16.7444
-16.0381
-15.222
-14.3088
-13.3257
-12.3048
-11.2666
-10.2372
-9.23078
-8.26938
-7.36903
-6.52975
-5.74725
-5.02479
-4.3712
-3.7769
-3.24261