/*--------------------------------*- C++ -*----------------------------------*\
  =========                 |
  \\      /  F ield         | OpenFOAM: The Open Source CFD Toolbox
   \\    /   O peration     | Website:  https://openfoam.org
    \\  /    A nd           | Version:  7
     \\/     M anipulation  |
\*---------------------------------------------------------------------------*/
FoamFile
{
    version     2.0;
    format      ascii;
    class       volVectorField;
    location    "600";
    object      U;
}
// * * * * * * * * * * * * * * * * * * * * * * * * * * * * * * * * * * * * * //

dimensions      [0 1 -1 0 0 0 0];

internalField   nonuniform List<vector> 
120313
(
(-2.94467 -0.0344658 -0.00472949)
(-2.9279 -0.0247071 -0.0486811)
(-2.88468 -0.0344738 -0.0707013)
(-2.76496 -0.0391251 -0.0983823)
(-2.60151 -0.044953 -0.118323)
(-2.40106 -0.0479034 -0.135539)
(-2.17417 -0.0471106 -0.151782)
(-1.92393 -0.054077 -0.168701)
(-1.67243 -0.0646583 -0.191467)
(-1.29694 -0.0719509 -0.195348)
(-1.01164 -0.0720813 -0.174921)
(-0.701354 -0.06354 -0.183375)
(-0.415752 -0.056266 -0.182261)
(-0.137713 -0.0520877 -0.188111)
(0.125288 -0.0485429 -0.179338)
(0.379434 -0.0478784 -0.157521)
(0.620785 -0.0463206 -0.138753)
(0.841736 -0.0434629 -0.126459)
(1.05431 -0.0438241 -0.112504)
(1.23503 -0.0392676 -0.102376)
(1.42607 -0.0414784 -0.0912914)
(1.56287 -0.034747 -0.0946195)
(1.75751 -0.0389264 -0.0845575)
(1.8308 -0.0316071 -0.0559973)
(-2.81616 -0.00840297 -0.0119201)
(-2.76313 -0.00306079 -0.0474693)
(-2.71745 -0.00783343 -0.0810365)
(-2.58686 -0.0120142 -0.113706)
(-2.41915 -0.0162086 -0.139051)
(-2.21607 -0.0178845 -0.16341)
(-2.00216 -0.0157619 -0.191381)
(-1.67965 -0.026858 -0.207981)
(-1.39436 -0.0579722 -0.199851)
(-1.09915 -0.0558399 -0.205907)
(-0.810661 -0.0520201 -0.203744)
(-0.517054 -0.047763 -0.20684)
(-0.236694 -0.0427193 -0.21273)
(0.0367221 -0.0414614 -0.217893)
(0.301196 -0.0389516 -0.188467)
(0.540989 -0.0373065 -0.161201)
(0.776409 -0.0352671 -0.153166)
(0.988262 -0.0330178 -0.14141)
(1.19612 -0.0319235 -0.128358)
(1.36801 -0.0297304 -0.118025)
(1.55986 -0.0287135 -0.106636)
(1.68334 -0.0268314 -0.102449)
(1.86617 -0.027435 -0.0940817)
(1.89212 -0.0224869 -0.0604391)
(-2.82242 -0.0100831 -0.0138448)
(-2.76684 -0.00933088 -0.0505404)
(-2.7154 -0.0130669 -0.091059)
(-2.57989 -0.0164993 -0.125151)
(-2.4067 -0.0198331 -0.149222)
(-2.19728 -0.0230885 -0.174685)
(-1.97633 -0.0261372 -0.206158)
(-1.66823 -0.0351347 -0.228517)
(-1.364 -0.0483659 -0.215499)
(-1.08215 -0.0491197 -0.21585)
(-0.782601 -0.0472469 -0.218214)
(-0.492773 -0.044328 -0.222019)
(-0.212427 -0.0414037 -0.231421)
(0.0593831 -0.0396795 -0.233033)
(0.324012 -0.0375683 -0.19914)
(0.564956 -0.0347212 -0.170611)
(0.799643 -0.0323642 -0.161648)
(1.01218 -0.0300982 -0.149984)
(1.22012 -0.0279126 -0.136284)
(1.39557 -0.0264283 -0.125709)
(1.5835 -0.0241978 -0.114194)
(1.71708 -0.0236902 -0.11197)
(1.88956 -0.0222428 -0.0996082)
(1.90813 -0.0204245 -0.0665145)
(-2.82394 -0.000481526 -0.0133315)
(-2.76822 -0.00122558 -0.0513678)
(-2.71493 -0.00340371 -0.093451)
(-2.57666 -0.00597945 -0.128591)
(-2.40066 -0.00869373 -0.153619)
(-2.18892 -0.0112995 -0.1805)
(-1.96777 -0.0141364 -0.213606)
(-1.64556 -0.0220741 -0.235449)
(-1.35484 -0.0260055 -0.220699)
(-1.0626 -0.0265418 -0.225504)
(-0.766253 -0.0267076 -0.226161)
(-0.475414 -0.0249814 -0.23067)
(-0.195924 -0.0243885 -0.241161)
(0.0756358 -0.0228612 -0.240376)
(0.338848 -0.0209566 -0.203747)
(0.581837 -0.0184668 -0.175268)
(0.815694 -0.0169394 -0.165806)
(1.02882 -0.0152743 -0.153949)
(1.23691 -0.0135844 -0.14007)
(1.4141 -0.0122655 -0.129521)
(1.60142 -0.0106797 -0.117737)
(1.73794 -0.00972359 -0.115746)
(1.90915 -0.0084949 -0.102795)
(1.9266 -0.00807341 -0.0720669)
(-2.82082 -0.000492264 -0.0132751)
(-2.76541 -0.000917758 -0.0513523)
(-2.71197 -0.00112549 -0.0938156)
(-2.57337 -0.00192296 -0.129177)
(-2.39682 -0.00306412 -0.154454)
(-2.18446 -0.00401574 -0.181682)
(-1.96327 -0.00440754 -0.215301)
(-1.63603 -0.00420134 -0.236248)
(-1.35072 -0.00230943 -0.220556)
(-1.05411 -0.00305625 -0.226627)
(-0.759588 -0.00318845 -0.22641)
(-0.46763 -0.00267028 -0.23141)
(-0.188471 -0.00297009 -0.242208)
(0.0825585 -0.00277949 -0.240248)
(0.344836 -0.0021453 -0.202807)
(0.589001 -0.00118652 -0.175175)
(0.82228 -0.00102392 -0.165903)
(1.0354 -0.000504345 -0.153924)
(1.24362 0.000306574 -0.140284)
(1.42089 0.00116184 -0.129611)
(1.60817 0.00210837 -0.118054)
(1.74531 0.00304673 -0.116097)
(1.91656 0.003542 -0.103116)
(1.93519 0.00399112 -0.0725303)
(-2.81158 0.00943555 -0.0129774)
(-2.7577 0.00693703 -0.0502737)
(-2.70584 0.0085943 -0.0916398)
(-2.56925 0.00908692 -0.126439)
(-2.39443 0.00889426 -0.151388)
(-2.18306 0.00877786 -0.178099)
(-1.96173 0.00882144 -0.211219)
(-1.63954 0.0122648 -0.231775)
(-1.34931 0.0230512 -0.217728)
(-1.05527 0.022137 -0.222919)
(-0.760545 0.0205744 -0.223033)
(-0.467889 0.0204066 -0.228264)
(-0.189456 0.0181104 -0.238067)
(0.0822495 0.0177439 -0.236443)
(0.343633 0.0175213 -0.20011)
(0.588167 0.0175626 -0.173657)
(0.820834 0.0169907 -0.164774)
(1.0333 0.0167805 -0.15232)
(1.24112 0.0170285 -0.138624)
(1.41669 0.0172632 -0.127442)
(1.60411 0.0173118 -0.1163)
(1.73957 0.0179861 -0.114009)
(1.91272 0.018339 -0.10145)
(1.92953 0.0166732 -0.065708)
(-2.79326 0.00635204 -0.0113451)
(-2.74331 -0.000770218 -0.04807)
(-2.69676 0.00223472 -0.0830052)
(-2.56504 0.00437175 -0.116901)
(-2.39585 0.0057731 -0.143486)
(-2.19067 0.00437682 -0.169082)
(-1.97712 -0.000825539 -0.198845)
(-1.63066 0.0104022 -0.212438)
(-1.36773 0.0406505 -0.205888)
(-1.05481 0.0342133 -0.216523)
(-0.775769 0.0333578 -0.211501)
(-0.476872 0.0321208 -0.216593)
(-0.19958 0.0286529 -0.223588)
(0.0735714 0.0283128 -0.22461)
(0.33416 0.0273952 -0.192494)
(0.579422 0.0266651 -0.167774)
(0.81155 0.0264286 -0.158773)
(1.02286 0.0254493 -0.146074)
(1.23021 0.0259853 -0.132876)
(1.40234 0.0246223 -0.122178)
(1.59308 0.0252016 -0.11113)
(1.71974 0.0238625 -0.107688)
(1.90215 0.0260678 -0.098628)
(1.93088 0.0219993 -0.065009)
(-2.90304 0.0288633 -0.00884318)
(-2.88669 0.0190192 -0.0529748)
(-2.84357 0.0304721 -0.0743728)
(-2.72246 0.0365057 -0.101606)
(-2.5595 0.0423616 -0.121613)
(-2.35795 0.0439876 -0.140064)
(-2.12939 0.0414586 -0.158241)
(-1.8778 0.0495005 -0.177628)
(-1.62766 0.0604487 -0.204666)
(-1.22054 0.0704802 -0.197627)
(-0.973804 0.0710326 -0.177613)
(-0.646454 0.0661291 -0.194728)
(-0.371866 0.0614037 -0.190707)
(-0.0931497 0.0580721 -0.198978)
(0.167869 0.0547912 -0.182713)
(0.41969 0.0539122 -0.15957)
(0.658118 0.0535267 -0.143292)
(0.877541 0.0503739 -0.129592)
(1.08844 0.0512288 -0.115619)
(1.26995 0.0459313 -0.106191)
(1.46024 0.0491122 -0.0957349)
(1.60271 0.0412569 -0.100339)
(1.79986 0.0479822 -0.0881854)
(1.87646 0.0461361 -0.0582736)
(-0.395448 0.00807044 0.391349)
(-0.733625 -0.00191737 0.307737)
(-0.991889 -0.00582145 0.258351)
(-1.21967 -0.00790992 0.236137)
(-1.42933 -0.00937302 0.220977)
(-1.61884 -0.0103206 0.204049)
(-1.78156 -0.00973664 0.183996)
(-1.9281 -0.00705426 0.160067)
(-2.05556 -0.00277832 0.128967)
(-2.17966 0.0103999 0.0735033)
(-2.19674 0.0108108 0.00600166)
(-2.13661 0.000860198 -0.0487023)
(-2.01636 -0.00256855 -0.0938662)
(-1.85114 -0.00514198 -0.12536)
(-1.65187 -0.00635106 -0.149184)
(-1.42691 -0.00821088 -0.168175)
(-1.18045 -0.010872 -0.182972)
(-0.917266 -0.0137228 -0.195396)
(-0.641815 -0.0172691 -0.203048)
(-0.355599 -0.0196422 -0.213448)
(-0.0721597 -0.0223815 -0.21479)
(0.208901 -0.0190006 -0.209265)
(0.479419 -0.0162819 -0.202562)
(0.732298 -0.0157162 -0.19357)
(0.976434 -0.0154247 -0.178841)
(1.20123 -0.0141451 -0.165037)
(1.41025 -0.0139578 -0.151118)
(1.60474 -0.0135123 -0.137918)
(1.7871 -0.0124768 -0.12719)
(1.95591 -0.0113077 -0.119)
(2.11068 -0.00926886 -0.111248)
(2.25554 -0.00637008 -0.104989)
(2.38954 -0.00571412 -0.0957196)
(2.51862 -0.00109156 -0.0865802)
(2.6237 0.00857527 -0.083367)
(2.75294 0.0284255 -0.080709)
(-0.394701 0.0165568 0.387768)
(-0.723211 -0.00478566 0.304703)
(-0.981964 -0.0111656 0.255246)
(-1.21183 -0.0147216 0.232545)
(-1.42443 -0.0172621 0.216943)
(-1.61776 -0.0189139 0.19974)
(-1.78725 -0.0188079 0.17986)
(-1.95712 -0.0143078 0.158241)
(-2.07764 -0.0036351 0.128597)
(-1.82405 0.0157678 0.0977085)
(-1.64205 0.0283772 -0.0119673)
(-1.54996 0.00798991 -0.0983754)
(-1.39323 0.00378926 -0.162626)
(-1.21318 -0.000684368 -0.208399)
(-1.00377 -0.00351339 -0.244288)
(-0.773718 -0.00647045 -0.27625)
(-0.525233 -0.0142668 -0.301102)
(-0.26312 -0.0249877 -0.328707)
(0.0130614 -0.0333421 -0.339712)
(0.281591 -0.039575 -0.336391)
(0.551197 -0.0394071 -0.333526)
(0.810023 -0.0373451 -0.324396)
(1.0597 -0.0358755 -0.313687)
(1.29721 -0.0334904 -0.298982)
(1.52202 -0.0313642 -0.279856)
(1.73052 -0.028809 -0.258998)
(1.92324 -0.0261454 -0.239432)
(2.10197 -0.0247489 -0.219414)
(2.26513 -0.0225447 -0.202557)
(2.41963 -0.0227196 -0.185852)
(2.55093 -0.0177186 -0.170593)
(2.67859 -0.0176505 -0.164435)
(2.75534 -0.0124136 -0.135988)
(2.78552 0.000965352 -0.115034)
(2.67602 0.00294383 -0.115106)
(2.74333 0.0154878 -0.0967403)
(-0.353764 0.00541079 0.385347)
(-0.687642 -0.00770529 0.304555)
(-0.951447 -0.0132287 0.253058)
(-1.18377 -0.0170649 0.228957)
(-1.39755 -0.019561 0.21185)
(-1.59132 -0.0206394 0.192548)
(-1.76114 -0.0195219 0.169556)
(-1.93285 -0.0170297 0.14216)
(-2.05561 -0.00200361 0.116403)
(-1.77542 0.0263411 0.100071)
(-1.46817 0.0346779 -0.00941314)
(-1.34311 0.0208008 -0.11636)
(-1.16461 0.0155661 -0.187969)
(-0.973646 0.0113737 -0.239439)
(-0.755257 0.00900461 -0.280514)
(-0.518463 0.00693638 -0.327683)
(-0.263546 -0.00147778 -0.359606)
(-0.00494614 -0.0166764 -0.372965)
(0.262411 -0.0255656 -0.380412)
(0.525608 -0.0281979 -0.379978)
(0.786644 -0.0283649 -0.374236)
(1.03828 -0.0262736 -0.363931)
(1.28085 -0.0241197 -0.352042)
(1.50966 -0.0228668 -0.33416)
(1.72486 -0.0221387 -0.312026)
(1.92656 -0.0203658 -0.289792)
(2.11152 -0.0185866 -0.268911)
(2.28389 -0.0175105 -0.247817)
(2.43882 -0.0157634 -0.22988)
(2.58853 -0.0156909 -0.212725)
(2.70429 -0.0128074 -0.193465)
(2.82612 -0.0148389 -0.188887)
(2.84211 -0.00986008 -0.148227)
(2.83046 -0.00427551 -0.122824)
(2.71671 -0.00561904 -0.130392)
(2.77748 0.000381367 -0.10495)
(-0.329846 0.013019 0.388607)
(-0.67231 -0.00215532 0.303571)
(-0.937901 -0.0111014 0.250799)
(-1.1713 -0.0159633 0.225831)
(-1.38635 -0.0184039 0.207632)
(-1.58163 -0.0187082 0.186936)
(-1.75408 -0.0160648 0.162405)
(-1.93264 -0.00964528 0.135981)
(-2.06314 0.00177461 0.11433)
(-1.77071 0.0153956 0.108789)
(-1.40833 0.0229891 -0.0021128)
(-1.2624 0.0160338 -0.121554)
(-1.07003 0.0123292 -0.197813)
(-0.869715 0.00899298 -0.250427)
(-0.643296 0.00641238 -0.294592)
(-0.399882 0.00325864 -0.346154)
(-0.141159 -0.00408302 -0.383868)
(0.117145 -0.0145593 -0.397591)
(0.380631 -0.0208771 -0.402675)
(0.643648 -0.0231558 -0.401911)
(0.90129 -0.0236023 -0.394925)
(1.15022 -0.0226368 -0.384633)
(1.38946 -0.0215619 -0.372552)
(1.61486 -0.0204651 -0.353101)
(1.82708 -0.0190942 -0.329404)
(2.02607 -0.0173443 -0.305727)
(2.20827 -0.0156004 -0.283929)
(2.37833 -0.014251 -0.262094)
(2.53039 -0.0126399 -0.243508)
(2.67802 -0.0119475 -0.225731)
(2.78787 -0.00992384 -0.207179)
(2.906 -0.0106021 -0.195426)
(2.89229 -0.00658102 -0.153653)
(2.87285 -0.00459905 -0.132191)
(2.75553 -0.00647124 -0.138453)
(2.81629 -0.00387322 -0.108675)
(-0.359958 0.0189166 0.385763)
(-0.688461 0.0011422 0.299763)
(-0.948232 -0.00827896 0.248306)
(-1.18016 -0.0126115 0.223983)
(-1.39551 -0.014123 0.205939)
(-1.59145 -0.0133652 0.185431)
(-1.7635 -0.00996234 0.161204)
(-1.94009 -0.00466088 0.13531)
(-2.06657 0.00217053 0.116753)
(-1.76952 0.00821766 0.111586)
(-1.38922 0.0110958 -0.000994217)
(-1.23514 0.00910168 -0.123377)
(-1.03525 0.00750758 -0.202172)
(-0.82901 0.005524 -0.256051)
(-0.597565 0.00350031 -0.302183)
(-0.349759 0.000744398 -0.356413)
(-0.0881369 -0.00408687 -0.394914)
(0.168947 -0.00916704 -0.408712)
(0.43372 -0.0119882 -0.414225)
(0.69632 -0.0136458 -0.4128)
(0.953412 -0.0139566 -0.405627)
(1.20151 -0.013709 -0.395266)
(1.43961 -0.013149 -0.382888)
(1.66345 -0.0121407 -0.362432)
(1.87501 -0.0108216 -0.33772)
(2.07311 -0.00950319 -0.312974)
(2.25496 -0.0082416 -0.290692)
(2.4246 -0.00710478 -0.268501)
(2.57634 -0.00591645 -0.24977)
(2.72359 -0.00501161 -0.231586)
(2.83194 -0.00375105 -0.213361)
(2.94822 -0.00348686 -0.200016)
(2.92639 -0.0018087 -0.158232)
(2.90327 -0.00130273 -0.136281)
(2.78674 -0.00304623 -0.143862)
(2.8482 -0.00255192 -0.112822)
(-0.376092 0.0135406 0.382167)
(-0.697945 -0.000451095 0.296463)
(-0.95376 -0.00633557 0.246458)
(-1.18434 -0.00848805 0.222886)
(-1.39932 -0.00859959 0.205204)
(-1.59493 -0.00735047 0.185066)
(-1.76601 -0.00502165 0.161237)
(-1.94138 -0.00259027 0.136202)
(-2.06545 -0.000404924 0.117676)
(-1.76683 -0.00365388 0.112129)
(-1.38695 -0.00407292 -0.0004732)
(-1.23177 -0.00158381 -0.123645)
(-1.03097 -0.00087763 -0.202722)
(-0.823519 -0.00102601 -0.257051)
(-0.590895 -0.00199971 -0.303757)
(-0.341742 -0.00330329 -0.358979)
(-0.0790031 -0.00395137 -0.397273)
(0.178126 -0.00324778 -0.411034)
(0.444002 -0.00295933 -0.416888)
(0.706666 -0.00315664 -0.415344)
(0.964124 -0.0030186 -0.408334)
(1.21218 -0.00305685 -0.397886)
(1.45004 -0.002882 -0.385076)
(1.67365 -0.0023243 -0.36427)
(1.88502 -0.00165299 -0.339479)
(2.08287 -0.00108974 -0.314535)
(2.26454 -0.000557376 -0.292212)
(2.43416 0.000186181 -0.270027)
(2.58582 0.000834198 -0.251154)
(2.73325 0.00179409 -0.232875)
(2.84172 0.00228251 -0.214497)
(2.95854 0.00306983 -0.201201)
(2.93695 0.0024153 -0.159022)
(2.91373 0.00348839 -0.137149)
(2.8011 0.00223411 -0.144952)
(2.86405 0.00147216 -0.11413)
(-0.365957 0.00817686 0.379105)
(-0.687429 -0.00267145 0.295687)
(-0.943711 -0.00427355 0.245878)
(-1.17418 -0.00388648 0.22226)
(-1.38875 -0.00257463 0.204473)
(-1.58393 -0.0010513 0.184205)
(-1.75517 -5.85048e-05 0.160471)
(-1.93093 -0.000527475 0.135451)
(-2.05505 -0.00221456 0.116735)
(-1.76148 -0.011779 0.111434)
(-1.40089 -0.017698 -0.000356201)
(-1.25205 -0.0105314 -0.121149)
(-1.05687 -0.00731061 -0.19898)
(-0.853102 -0.00557746 -0.25334)
(-0.623136 -0.00560944 -0.299296)
(-0.375723 -0.00598087 -0.353698)
(-0.113538 -0.00291064 -0.390646)
(0.145412 0.00361961 -0.404423)
(0.411941 0.00725536 -0.41052)
(0.675295 0.00817002 -0.409401)
(0.933671 0.00897378 -0.402701)
(1.18244 0.00851281 -0.3921)
(1.4211 0.00827306 -0.37925)
(1.64551 0.00858522 -0.358922)
(1.85705 0.00886877 -0.334799)
(2.05499 0.00883173 -0.3103)
(2.23658 0.0087233 -0.288184)
(2.40621 0.00906395 -0.266124)
(2.55801 0.0089344 -0.247062)
(2.70596 0.00970911 -0.229043)
(2.81595 0.00897783 -0.210194)
(2.93515 0.0106783 -0.198825)
(2.9227 0.00792991 -0.157092)
(2.90515 0.00739486 -0.134284)
(2.79647 0.00744861 -0.142008)
(2.86041 0.00607303 -0.112774)
(-0.337487 0.00303369 0.37857)
(-0.667451 -0.00181292 0.296961)
(-0.92679 -0.00159678 0.246752)
(-1.15727 0.000213159 0.222945)
(-1.37054 0.00262272 0.205063)
(-1.56392 0.00491951 0.184722)
(-1.7342 0.00628928 0.161012)
(-1.91058 0.00479264 0.135416)
(-2.03988 -0.00113079 0.111596)
(-1.7564 -0.0263885 0.105965)
(-1.4512 -0.0331954 -0.00661597)
(-1.32146 -0.0193109 -0.116311)
(-1.13918 -0.0136142 -0.190715)
(-0.94393 -0.0102597 -0.245034)
(-0.720582 -0.00989585 -0.288876)
(-0.478417 -0.0105602 -0.340395)
(-0.217763 -0.00430837 -0.37037)
(0.0430306 0.00823521 -0.38406)
(0.313795 0.014561 -0.393309)
(0.576962 0.0168808 -0.392001)
(0.838867 0.0183382 -0.386261)
(1.08967 0.0170883 -0.375415)
(1.33116 0.0159514 -0.362977)
(1.55839 0.0160215 -0.343828)
(1.77221 0.0162235 -0.320959)
(1.97214 0.0158674 -0.297391)
(2.15555 0.0152924 -0.275852)
(2.32696 0.0154126 -0.254451)
(2.48101 0.0144456 -0.236147)
(2.63062 0.0152926 -0.218976)
(2.74633 0.0130854 -0.199802)
(2.86875 0.015834 -0.194712)
(2.88616 0.0128884 -0.15658)
(2.8763 0.00846216 -0.126936)
(2.77511 0.0106417 -0.134851)
(2.83982 0.00876312 -0.10822)
(-0.344056 0.0133254 0.376782)
(-0.67014 0.00123207 0.297238)
(-0.927232 -5.18985e-05 0.248654)
(-1.1563 0.00197858 0.225756)
(-1.36828 0.00491565 0.208803)
(-1.56041 0.00789935 0.189721)
(-1.73022 0.0102683 0.168096)
(-1.9053 0.0128215 0.145998)
(-2.04232 0.00542199 0.121128)
(-1.79788 -0.0209441 0.104216)
(-1.60688 -0.0273804 -0.00831798)
(-1.51044 -0.00830238 -0.099243)
(-1.34962 -0.00202227 -0.166118)
(-1.16626 0.00233467 -0.216507)
(-0.951675 0.00370416 -0.255144)
(-0.716043 0.00481152 -0.290058)
(-0.462821 0.0118587 -0.316122)
(-0.19627 0.0212203 -0.346108)
(0.0825302 0.0297279 -0.353454)
(0.34762 0.036297 -0.348607)
(0.618796 0.0369718 -0.346763)
(0.874066 0.0355281 -0.336538)
(1.12227 0.0341693 -0.326149)
(1.3573 0.0325769 -0.309756)
(1.57883 0.0309521 -0.289212)
(1.78496 0.029777 -0.266916)
(1.97528 0.0280653 -0.246274)
(2.15243 0.0275518 -0.225795)
(2.3142 0.02513 -0.208702)
(2.4683 0.0255164 -0.192176)
(2.59876 0.0202422 -0.176989)
(2.72635 0.0213521 -0.171063)
(2.79973 0.0181134 -0.140975)
(2.82898 0.00871001 -0.118125)
(2.73974 0.0111236 -0.130345)
(2.80708 0.00727588 -0.104693)
(-0.359503 0.00669126 0.372225)
(-0.677857 -0.00203773 0.297329)
(-0.931558 -0.00188886 0.251266)
(-1.15943 0.00065501 0.230079)
(-1.37031 0.00357481 0.215094)
(-1.56046 0.00635702 0.198875)
(-1.72577 0.00847501 0.181101)
(-1.88864 0.00744843 0.164473)
(-2.00961 0.00106413 0.136446)
(-1.84382 -0.0242103 0.0936874)
(-1.7828 -0.0263308 -0.0112042)
(-1.7061 -0.0063669 -0.078602)
(-1.56294 -0.00142714 -0.137495)
(-1.38657 0.00312694 -0.181369)
(-1.17683 0.00533008 -0.21572)
(-0.944035 0.00779286 -0.24479)
(-0.691568 0.0130859 -0.268091)
(-0.424903 0.020163 -0.287928)
(-0.14906 0.0285843 -0.294637)
(0.127444 0.036558 -0.297074)
(0.401736 0.0384351 -0.296894)
(0.663946 0.0380507 -0.289269)
(0.918113 0.0375618 -0.280178)
(1.15793 0.0363946 -0.265391)
(1.38274 0.0342361 -0.246346)
(1.59416 0.0320177 -0.227395)
(1.7896 0.0293456 -0.208755)
(1.9708 0.0280623 -0.190604)
(2.13827 0.0256029 -0.175034)
(2.29408 0.0248662 -0.161122)
(2.43717 0.0194736 -0.147936)
(2.56776 0.0185358 -0.140693)
(2.69361 0.0154219 -0.124475)
(2.77939 0.00334481 -0.115166)
(2.71124 0.00720197 -0.127902)
(2.78282 0.00153216 -0.10181)
(-0.370065 0.00454705 0.367343)
(-0.675797 -0.00776553 0.297693)
(-0.928316 -0.00458363 0.252919)
(-1.15817 -0.00131747 0.232014)
(-1.37178 0.000983282 0.217607)
(-1.56523 0.002041 0.202901)
(-1.73379 0.000907788 0.18785)
(-1.90075 -0.00489902 0.172667)
(-2.06734 -0.0208347 0.127212)
(-2.21963 -0.0138938 0.0702581)
(-2.23785 -0.00727463 0.00917345)
(-2.18693 0.00760462 -0.043684)
(-2.06617 0.0134154 -0.0894471)
(-1.90123 0.0172803 -0.121992)
(-1.70045 0.0190222 -0.147376)
(-1.47248 0.0207703 -0.168062)
(-1.22249 0.0235927 -0.184671)
(-0.955426 0.0273461 -0.197881)
(-0.676255 0.0320931 -0.204521)
(-0.389128 0.0359759 -0.207834)
(-0.101259 0.0376628 -0.217981)
(0.178625 0.0338208 -0.211527)
(0.449657 0.0309232 -0.203947)
(0.70593 0.02859 -0.195359)
(0.948766 0.0271457 -0.179864)
(1.17567 0.024504 -0.165036)
(1.38632 0.0216884 -0.150381)
(1.5826 0.01973 -0.136751)
(1.7645 0.0179907 -0.125615)
(1.93303 0.0160301 -0.117113)
(2.09039 0.0127662 -0.108745)
(2.23755 0.00846526 -0.100396)
(2.37582 0.00457193 -0.091304)
(2.50613 -0.00264931 -0.0826381)
(2.63155 0.00168311 -0.0793577)
(2.76369 -0.00613402 -0.0914107)
(-0.315399 -0.0317726 0.365722)
(-0.63077 -0.0113666 0.303246)
(-0.893373 -0.00375436 0.254319)
(-1.12771 -0.00056409 0.230755)
(-1.34347 0.00122181 0.213592)
(-1.53888 0.00221948 0.194885)
(-1.71017 0.00185691 0.173318)
(-1.86178 -0.00258605 0.152846)
(-1.9952 -0.0172783 0.141985)
(-2.12164 -0.00820539 0.0701713)
(-2.14104 -0.00155149 0.00255247)
(-2.08476 0.00282274 -0.0540111)
(-1.96742 0.00513517 -0.101028)
(-1.8034 0.00699121 -0.133594)
(-1.60474 0.00849465 -0.158476)
(-1.37899 0.0101197 -0.177745)
(-1.13152 0.012195 -0.192228)
(-0.866679 0.0148021 -0.202224)
(-0.588581 0.017681 -0.208234)
(-0.30274 0.0200034 -0.211891)
(-0.0180541 0.0225699 -0.220885)
(0.260771 0.0225182 -0.21288)
(0.533351 0.0229011 -0.202935)
(0.790306 0.0214731 -0.193506)
(1.035 0.019799 -0.180269)
(1.26377 0.0171119 -0.167805)
(1.47741 0.0147241 -0.155765)
(1.67594 0.0128545 -0.145185)
(1.85934 0.0113664 -0.136235)
(2.02936 0.00926946 -0.128846)
(2.18625 0.00692583 -0.119747)
(2.33241 0.00429158 -0.111377)
(2.46593 0.00338065 -0.100665)
(2.59579 5.84511e-05 -0.098062)
(2.70341 -0.00103728 -0.0913187)
(2.8305 -0.00310633 -0.10559)
(0.0768651 -0.00827573 0.028626)
(0.100316 -0.00671916 -0.14572)
(0.250303 -0.00454162 -0.260016)
(0.412334 -0.00239969 -0.348609)
(0.599017 -0.00168989 -0.414889)
(0.802018 -0.00142284 -0.463672)
(1.01942 -0.00108377 -0.503454)
(1.24329 -0.00111568 -0.531365)
(1.46982 -0.00140604 -0.548828)
(1.6945 -0.00208351 -0.558103)
(1.91631 -0.00279006 -0.558195)
(2.12895 -0.0033352 -0.547118)
(2.33071 -0.00315304 -0.526544)
(2.52072 -0.00298222 -0.501031)
(2.69986 -0.00291517 -0.473064)
(2.86546 -0.00300872 -0.441948)
(3.01938 -0.00288401 -0.411726)
(3.16134 -0.00298319 -0.381757)
(3.29154 -0.00305038 -0.354378)
(3.41182 -0.00336272 -0.327787)
(3.52297 -0.00304977 -0.305568)
(3.6237 -0.00322657 -0.283195)
(3.71792 0.000120951 -0.266609)
(3.80632 0.000731304 -0.248679)
(-0.223448 0.0131865 0.646646)
(-0.354207 0.00237402 0.496391)
(-0.445368 -0.00165211 0.425727)
(-0.532462 -0.00398254 0.393946)
(-0.607514 -0.00587053 0.36262)
(-0.659775 -0.0084758 0.320626)
(-0.682767 -0.0120926 0.267604)
(-0.670004 -0.0143005 0.212665)
(-0.468367 -0.0162541 0.148249)
(-0.0568323 0.00731613 0.0458366)
(0.0252182 0.0215544 -0.138881)
(0.174248 0.0108287 -0.247627)
(0.337194 0.00972321 -0.335102)
(0.523861 0.00932136 -0.400536)
(0.727577 0.00857809 -0.450519)
(0.944685 0.00834883 -0.491015)
(1.17058 0.00696174 -0.520618)
(1.3997 0.00403781 -0.539785)
(1.62922 0.000667972 -0.548936)
(1.85381 -0.003335 -0.546752)
(2.07048 -0.00516519 -0.537496)
(2.27532 -0.0051206 -0.51894)
(2.46947 -0.00504309 -0.493805)
(2.6499 -0.00478826 -0.465868)
(2.81946 -0.00481327 -0.436256)
(2.97438 -0.00456001 -0.406295)
(3.11887 -0.00471539 -0.377055)
(3.24973 -0.00502469 -0.34882)
(3.37231 -0.00561893 -0.323111)
(3.48288 -0.00548333 -0.299598)
(3.58664 -0.00556506 -0.278814)
(3.67483 -0.00303997 -0.259583)
(3.77718 -0.0070682 -0.244752)
(3.83605 -0.00515388 -0.223157)
(3.73882 0.000870188 -0.218878)
(3.79761 0.00298632 -0.205358)
(-0.212012 0.0249881 0.645522)
(-0.337135 0.00379088 0.494643)
(-0.428451 -0.0030524 0.421844)
(-0.515743 -0.00705957 0.388628)
(-0.591307 -0.0101653 0.35605)
(-0.646515 -0.0137708 0.312691)
(-0.680398 -0.0181473 0.259648)
(-0.697508 -0.0211298 0.21036)
(-0.541026 -0.018945 0.159218)
(-0.0350021 0.0121717 0.0387285)
(0.14379 0.0270869 -0.158321)
(0.31664 0.019245 -0.264949)
(0.498923 0.017645 -0.350172)
(0.695331 0.0164123 -0.415702)
(0.905538 0.0150966 -0.467641)
(1.1252 0.0143524 -0.509405)
(1.35024 0.0108085 -0.539262)
(1.57702 0.00373615 -0.558376)
(1.8017 -0.00197735 -0.565577)
(2.01875 -0.00659433 -0.560339)
(2.22991 -0.0087019 -0.548797)
(2.42848 -0.00898239 -0.528013)
(2.61707 -0.00888314 -0.503572)
(2.79088 -0.00864164 -0.476208)
(2.9548 -0.00835524 -0.447152)
(3.10433 -0.00757751 -0.416984)
(3.24366 -0.0067808 -0.388314)
(3.36978 -0.00663603 -0.35971)
(3.48646 -0.00597653 -0.334299)
(3.59142 -0.0064398 -0.309525)
(3.68519 -0.00433012 -0.289269)
(3.76353 -0.00468558 -0.268439)
(3.82424 0.000985313 -0.2521)
(3.88166 -0.00545201 -0.229697)
(3.92996 0.00298134 -0.237175)
(4.13556 -0.00106144 -0.250981)
(-0.186903 0.020808 0.64085)
(-0.310795 0.00343393 0.494176)
(-0.40438 -0.00392454 0.418765)
(-0.49269 -0.00882356 0.383352)
(-0.568948 -0.0121399 0.348719)
(-0.62585 -0.0149077 0.302944)
(-0.66548 -0.0168398 0.248093)
(-0.69694 -0.0155701 0.201514)
(-0.550418 -0.00519912 0.158698)
(0.0304505 0.0199794 0.0342986)
(0.288853 0.0325532 -0.173146)
(0.496749 0.0282577 -0.285048)
(0.701655 0.0252086 -0.371508)
(0.912605 0.0225842 -0.439868)
(1.13328 0.0208024 -0.494834)
(1.35914 0.0196923 -0.540365)
(1.58573 0.0155061 -0.573136)
(1.8083 0.00675041 -0.589989)
(2.02739 0.000192947 -0.5961)
(2.2386 -0.00345974 -0.590505)
(2.44309 -0.00577274 -0.575821)
(2.63511 -0.00629612 -0.554812)
(2.81665 -0.00622634 -0.530532)
(2.98353 -0.00641606 -0.501357)
(3.13964 -0.00656038 -0.470106)
(3.28306 -0.00601052 -0.438913)
(3.41528 -0.00524451 -0.409487)
(3.5353 -0.00491561 -0.37998)
(3.6443 -0.00389721 -0.354)
(3.74249 -0.00424012 -0.32824)
(3.82194 -0.00230362 -0.306881)
(3.88902 -0.0037774 -0.284016)
(3.90957 -0.000642237 -0.266774)
(3.95133 -0.00147704 -0.242285)
(3.98533 0.00277104 -0.255371)
(4.22833 0.00350016 -0.266593)
(-0.167371 0.0220615 0.639243)
(-0.294921 0.005879 0.492437)
(-0.389426 -0.00379226 0.415606)
(-0.478637 -0.00948724 0.379384)
(-0.556223 -0.0130096 0.343567)
(-0.614605 -0.0150036 0.296468)
(-0.656526 -0.0150537 0.241171)
(-0.690746 -0.0113619 0.197138)
(-0.544981 -0.00142067 0.162128)
(0.0584146 0.0134952 0.0397625)
(0.361969 0.0239945 -0.175206)
(0.5941 0.0234525 -0.293148)
(0.818318 0.0216859 -0.38311)
(1.04106 0.0191661 -0.453013)
(1.27065 0.0172003 -0.510118)
(1.50303 0.0152883 -0.557459)
(1.73297 0.0114041 -0.593537)
(1.95496 0.00530412 -0.612394)
(2.17301 0.000364975 -0.617677)
(2.38249 -0.0030826 -0.610664)
(2.58324 -0.00520159 -0.594743)
(2.77302 -0.00605244 -0.573636)
(2.95078 -0.00640172 -0.549063)
(3.11427 -0.00641724 -0.518859)
(3.26681 -0.00599614 -0.486467)
(3.40711 -0.00532131 -0.454278)
(3.53567 -0.00450307 -0.424161)
(3.65267 -0.00392872 -0.393824)
(3.75706 -0.00287582 -0.367483)
(3.85153 -0.00282053 -0.34081)
(3.92188 -0.00115229 -0.319748)
(3.98104 -0.0023388 -0.294822)
(3.98191 -0.000204329 -0.278256)
(4.01397 -0.00013879 -0.253092)
(4.04493 0.0027218 -0.269332)
(4.29723 0.00329228 -0.278007)
(-0.180461 0.0233949 0.636049)
(-0.298116 0.00626477 0.486343)
(-0.388577 -0.00414859 0.411643)
(-0.477556 -0.00979007 0.376787)
(-0.556138 -0.0129219 0.340923)
(-0.615634 -0.0140245 0.293936)
(-0.658551 -0.012876 0.239473)
(-0.692399 -0.00838658 0.197249)
(-0.544093 -0.000834231 0.165843)
(0.0671326 0.00578512 0.0429367)
(0.387631 0.0115664 -0.174538)
(0.630685 0.0126763 -0.295371)
(0.865489 0.0125796 -0.387438)
(1.09599 0.0115643 -0.459104)
(1.33182 0.0102876 -0.517859)
(1.56923 0.00852362 -0.566873)
(1.80163 0.00555196 -0.604535)
(2.02444 0.00209651 -0.623891)
(2.24345 -0.000575863 -0.629043)
(2.45297 -0.00275335 -0.62146)
(2.65316 -0.00402489 -0.605541)
(2.84207 -0.00467979 -0.584361)
(3.01872 -0.00489905 -0.559631)
(3.18016 -0.00465449 -0.528675)
(3.33316 -0.00401699 -0.495618)
(3.47239 -0.00331884 -0.462663)
(3.60117 -0.00257869 -0.432183)
(3.71699 -0.00189959 -0.401353)
(3.82082 -0.00102394 -0.374916)
(3.9137 -0.000517694 -0.347752)
(3.9813 0.000521086 -0.326743)
(4.03702 0.000397661 -0.301083)
(4.03072 0.00142571 -0.285248)
(4.05831 0.00114836 -0.25949)
(4.08823 0.00253996 -0.276845)
(4.34301 0.00277482 -0.284711)
(-0.18942 0.017731 0.632193)
(-0.302314 0.00239405 0.481263)
(-0.389889 -0.00578441 0.408593)
(-0.478372 -0.0100703 0.374856)
(-0.557304 -0.0118684 0.33935)
(-0.617166 -0.0118758 0.29282)
(-0.660269 -0.0103163 0.239045)
(-0.693373 -0.00702767 0.197669)
(-0.543406 -0.00300529 0.166777)
(0.0664316 -0.00423149 0.0443144)
(0.386697 -0.0037884 -0.173491)
(0.631641 -0.00197515 -0.295301)
(0.868445 -0.000601326 -0.387991)
(1.10099 0.000315883 -0.460436)
(1.33856 0.000173944 -0.519836)
(1.57765 -0.000902363 -0.569557)
(1.81124 -0.00223279 -0.607629)
(2.03467 -0.00280163 -0.626891)
(2.25466 -0.00309314 -0.632111)
(2.46442 -0.00343697 -0.624404)
(2.66513 -0.00349165 -0.608667)
(2.85389 -0.00355573 -0.587433)
(3.0305 -0.00346562 -0.56231)
(3.19207 -0.00320966 -0.531041)
(3.34484 -0.0027886 -0.497869)
(3.48388 -0.00223004 -0.4648)
(3.61254 -0.00157512 -0.434293)
(3.72833 -0.000738121 -0.403492)
(3.83208 1.12478e-05 -0.376984)
(3.9252 0.000939586 -0.349723)
(3.99284 0.00139475 -0.328658)
(4.04904 0.0021694 -0.302845)
(4.04325 0.002266 -0.287337)
(4.07177 0.00217252 -0.261315)
(4.10224 0.00230858 -0.278813)
(4.35801 0.00209494 -0.286903)
(-0.184338 0.0112356 0.628721)
(-0.298291 -0.0024896 0.48024)
(-0.386557 -0.00749974 0.40762)
(-0.475148 -0.00978523 0.373881)
(-0.554036 -0.0103975 0.338419)
(-0.613506 -0.00959877 0.291921)
(-0.656272 -0.00782457 0.238086)
(-0.689531 -0.00609732 0.196523)
(-0.54247 -0.00525335 0.164696)
(0.0554006 -0.0129848 0.0439253)
(0.358671 -0.0180801 -0.171684)
(0.595857 -0.0156991 -0.2921)
(0.826006 -0.0126234 -0.38397)
(1.05478 -0.0097042 -0.456247)
(1.28969 -0.00875288 -0.515355)
(1.52745 -0.00928151 -0.564751)
(1.76112 -0.00914249 -0.601912)
(1.98574 -0.00682229 -0.620986)
(2.20644 -0.00482735 -0.62657)
(2.41748 -0.00351923 -0.619294)
(2.61896 -0.00228857 -0.60357)
(2.80914 -0.00185086 -0.582257)
(2.98636 -0.00144091 -0.556958)
(3.14901 -0.000870906 -0.525981)
(3.30098 -0.000280114 -0.493083)
(3.44015 0.00027368 -0.460332)
(3.56865 0.000776514 -0.429999)
(3.68504 0.00157832 -0.399523)
(3.78951 0.00185137 -0.372873)
(3.88453 0.00291091 -0.345954)
(3.9547 0.00254127 -0.324702)
(4.01516 0.00410558 -0.29975)
(4.01653 0.00347854 -0.283292)
(4.05168 0.00300885 -0.259344)
(4.08374 0.00211647 -0.275987)
(4.34023 0.00165122 -0.284747)
(-0.172289 0.00507093 0.626734)
(-0.293355 -0.00474894 0.482067)
(-0.383984 -0.00834413 0.409023)
(-0.472993 -0.00955303 0.375218)
(-0.551418 -0.00955323 0.339291)
(-0.609573 -0.00824704 0.292546)
(-0.65114 -0.00603257 0.238621)
(-0.684615 -0.00477004 0.19623)
(-0.544993 -0.00631982 0.161106)
(0.0245967 -0.0228835 0.0408725)
(0.288479 -0.0317648 -0.167985)
(0.505493 -0.0269653 -0.284323)
(0.719175 -0.0221882 -0.373687)
(0.938954 -0.0183455 -0.445196)
(1.16745 -0.0172771 -0.503121)
(1.40147 -0.0181604 -0.551368)
(1.63436 -0.016129 -0.585599)
(1.86108 -0.0101835 -0.603471)
(2.08394 -0.00650825 -0.610784)
(2.29647 -0.00415063 -0.604545)
(2.50195 -0.0018463 -0.589424)
(2.69425 -0.0010696 -0.568103)
(2.87443 -0.000317267 -0.543065)
(3.0401 0.00092362 -0.512897)
(3.19407 0.00199432 -0.480611)
(3.33576 0.00264283 -0.448462)
(3.46598 0.00295527 -0.418324)
(3.585 0.00368298 -0.388454)
(3.69237 0.00343004 -0.362302)
(3.79036 0.00452159 -0.336373)