/*--------------------------------*- C++ -*----------------------------------*\
  =========                 |
  \\      /  F ield         | OpenFOAM: The Open Source CFD Toolbox
   \\    /   O peration     | Website:  https://openfoam.org
    \\  /    A nd           | Version:  7
     \\/     M anipulation  |
\*---------------------------------------------------------------------------*/
FoamFile
{
    version     2.0;
    format      ascii;
    class       volScalarField;
    location    "81";
    object      ddt0(h);
}
// * * * * * * * * * * * * * * * * * * * * * * * * * * * * * * * * * * * * * //

dimensions      [0 1 -1 0 0 0 0];

internalField   nonuniform List<scalar> 
400
(
1.17596e-09
-2.71309e-10
-3.22734e-10
-6.21073e-10
2.92117e-09
-2.58433e-09
-2.51754e-09
-4.32752e-08
5.74066e-10
7.85793e-10
-8.61381e-10
-7.37048e-10
-3.63567e-10
-1.40763e-10
5.84152e-11
9.41447e-11
-1.45173e-10
-2.90217e-10
-1.97251e-10
-6.95275e-11
-1.22949e-11
2.15659e-10
3.07694e-10
1.46064e-10
-2.33944e-09
1.55468e-09
6.46456e-09
3.77604e-08
3.14286e-09
-9.71946e-10
-4.04665e-10
2.58037e-11
2.92012e-11
-2.86736e-11
2.84056e-11
2.46028e-11
-1.64574e-10
-2.00365e-10
2.91743e-11
9.5075e-11
-7.56115e-10
6.64352e-10
2.23258e-10
1.5409e-09
-1.49755e-09
3.71965e-09
-7.53373e-09
6.6206e-09
-2.52865e-09
-1.51807e-09
3.85904e-10
4.98655e-10
2.33725e-10
8.6851e-11
-4.84395e-11
-1.44043e-10
-1.47185e-10
4.68475e-11
3.78595e-10
2.81876e-10
-2.47391e-10
3.25535e-10
1.25408e-10
7.28814e-10
2.31674e-10
-6.43294e-10
1.63693e-09
5.90419e-10
-2.19135e-09
4.15163e-11
8.70649e-10
3.87296e-10
7.65025e-11
-2.63894e-11
-1.98177e-10
-2.72737e-10
-5.12898e-11
2.87716e-10
4.76475e-10
2.56214e-10
4.48147e-10
6.46194e-11
4.97112e-10
-6.44002e-10
1.60076e-09
-2.01059e-09
1.81587e-09
-9.49127e-10
-7.55381e-10
1.50621e-09
5.52827e-10
-9.17433e-11
-1.19028e-10
-2.45562e-10
-3.75954e-10
-2.92651e-10
6.13958e-11
2.60857e-10
1.04112e-10
-2.18674e-11
6.07481e-10
-6.14881e-11
5.21562e-10
-9.69455e-10
6.47373e-10
-6.15597e-10
1.03281e-09
-1.28731e-09
1.29711e-09
1.05096e-09
-7.00602e-10
-4.31947e-10
-1.44065e-10
-3.96171e-10
-4.28889e-10
-9.36935e-11
1.92928e-10
-1.00446e-10
-6.1089e-10
-4.01873e-10
4.4403e-10
6.21024e-11
2.98076e-11
1.05596e-10
-9.3673e-10
3.89866e-10
-2.74067e-10
-1.62657e-13
1.04083e-09
-8.0421e-10
-8.5845e-10
-1.81968e-10
-1.56884e-10
-2.91989e-10
-2.09463e-10
1.80243e-10
3.04112e-10
-3.92231e-10
-1.12299e-09
-6.55957e-10
-1.75889e-11
4.97683e-10
-4.99544e-10
5.88133e-10
-6.68236e-10
4.8796e-10
-8.10433e-10
4.89954e-10
-3.12158e-10
-9.0157e-10
1.3133e-10
-2.92266e-10
-4.38555e-10
1.45824e-10
2.46657e-10
1.82449e-10
1.8067e-10
-2.32435e-10
-7.72539e-10
-4.81011e-10
-1.99596e-10
2.78151e-10
-1.14049e-10
1.65769e-10
1.39773e-10
2.71975e-10
-2.41107e-10
2.19645e-10
-5.46705e-10
-1.03902e-10
2.36338e-10
-4.25723e-10
-2.18461e-10
4.67518e-10
4.09005e-10
-9.77579e-11
-2.52367e-10
7.47687e-11
3.17991e-10
1.66165e-10
1.0805e-10
-3.76773e-10
1.78596e-10
-7.49426e-11
5.22503e-10
-2.72265e-11
3.74604e-10
-2.98545e-10
-7.65655e-11
2.66101e-10
-9.22345e-11
2.44113e-10
1.97542e-10
-1.38486e-10
1.83522e-11
-1.15766e-10
-4.3494e-10
2.06896e-10
1.11442e-09
7.00678e-10
1.57568e-10
-5.10506e-10
2.98142e-10
-1.64852e-10
5.22861e-10
-2.44861e-10
4.74276e-10
-4.69369e-10
2.84775e-11
3.35679e-10
-1.85035e-10
4.6574e-10
2.93887e-10
-4.11329e-10
-1.93706e-10
-1.23775e-10
-4.34869e-10
1.61178e-10
1.10814e-09
7.18513e-10
-2.11766e-10
5.47706e-11
1.71618e-10
-1.69391e-10
1.90739e-10
-2.01205e-10
3.19854e-11
9.40961e-13
-4.10895e-10
2.65485e-10
1.94541e-10
-8.61952e-11
6.14487e-11
1.86468e-10
4.7152e-11
-2.7581e-10
-3.64631e-10
2.60018e-11
4.07408e-10
2.50273e-10
-2.9373e-10
5.1905e-10
-5.28844e-10
2.34452e-10
-5.95269e-10
2.44983e-10
-6.11339e-10
7.61215e-10
-4.78074e-10
-3.31749e-10
7.02614e-10
-3.7986e-11
-2.05684e-10
3.04142e-10
1.77083e-10
-2.99354e-11
7.14741e-11
-1.60412e-10
-6.23506e-10
-4.06018e-10
9.93658e-11
2.21729e-11
-6.05993e-10
2.95099e-10
-1.2832e-09
7.70646e-10
-5.78107e-10
8.55588e-10
7.14166e-10
-9.47847e-10
-2.68677e-12
3.8523e-10
1.49648e-10
1.11549e-10
5.91686e-11
2.69842e-10
4.02066e-10
-2.64454e-10
-1.03713e-09
-6.31358e-10
2.8113e-10
-4.71742e-10
-7.21812e-11
-6.89757e-10
-2.57426e-11
3.67489e-10
5.36073e-10
-7.3371e-10
1.96215e-09
2.87771e-10
-7.5865e-10
4.09167e-12
2.9913e-10
1.06322e-10
7.62604e-11
3.28355e-10
4.38865e-10
-4.22416e-11
-6.01496e-10
-3.87782e-10
1.08733e-10
-6.40341e-10
1.71826e-10
-8.44698e-10
1.72443e-09
-1.82686e-09
1.43213e-09
-1.92704e-09
5.76577e-11
1.53137e-09
-1.49073e-10
-3.06403e-10
6.73097e-11
1.48565e-10
1.7742e-10
2.30251e-10
3.31455e-10
2.91216e-10
7.14069e-11
-3.2168e-11
-6.96113e-10
-2.91551e-10
3.63996e-10
2.45624e-10
1.15264e-09
-2.71447e-09
2.60348e-09
-5.13348e-10
-1.61338e-09
7.04851e-10
6.32217e-10
-8.38886e-11
-1.27996e-10
7.86514e-11
1.52894e-10
1.0165e-10
1.70808e-10
3.56138e-10
4.39848e-10
2.15725e-10
-1.54011e-09
-4.25671e-11
8.84954e-10
1.21065e-09
-1.44705e-09
3.94638e-10
-8.97338e-10
2.90753e-09
-2.87362e-09
-4.08279e-11
7.14646e-10
9.87759e-11
-2.00262e-10
-9.61243e-11
2.10087e-11
4.08787e-11
4.79152e-11
1.84194e-10
4.09446e-10
2.63513e-10
-4.3328e-10
-3.39846e-11
-2.09462e-12
5.14242e-10
-3.77592e-09
1.93384e-08
-8.72668e-09
-1.40783e-08
-9.23141e-10
-6.68996e-10
-1.31062e-11
1.47225e-10
2.5613e-11
-4.13679e-11
1.65511e-11
5.70834e-11
-4.79105e-11
-4.94554e-11
1.4391e-10
1.34941e-10
9.75541e-10
-5.51724e-12
-1.62968e-09
-1.59828e-09
2.91459e-09
-1.6672e-08
5.78817e-09
1.33265e-08
3.89361e-09
-4.85525e-10
-3.94229e-10
4.19005e-10
5.4097e-10
1.81149e-10
-3.37527e-11
-6.34025e-11
-1.58743e-10
-1.63442e-10
-3.49529e-11
4.68822e-12
)
;

boundaryField
{
    sides
    {
        type            calculated;
        value           nonuniform List<scalar> 
40
(
9.75541e-10
-5.51724e-12
-1.62968e-09
-1.59828e-09
2.91459e-09
-1.6672e-08
5.78817e-09
1.33265e-08
3.89361e-09
-4.85525e-10
-3.94229e-10
4.19005e-10
5.4097e-10
1.81149e-10
-3.37527e-11
-6.34025e-11
-1.58743e-10
-1.63442e-10
-3.49529e-11
4.68822e-12
1.17596e-09
-2.71309e-10
-3.22734e-10
-6.21073e-10
2.92117e-09
-2.58433e-09
-2.51754e-09
-4.32752e-08
5.74066e-10
7.85793e-10
-8.61381e-10
-7.37048e-10
-3.63567e-10
-1.40763e-10
5.84152e-11
9.41447e-11
-1.45173e-10
-2.90217e-10
-1.97251e-10
-6.95275e-11
)
;
    }
    inlet
    {
        type            calculated;
        value           nonuniform List<scalar> 
20
(
1.17596e-09
-1.22949e-11
-7.56115e-10
-2.47391e-10
4.48147e-10
6.07481e-10
4.4403e-10
-1.75889e-11
-1.99596e-10
1.0805e-10
1.57568e-10
-2.11766e-10
-2.9373e-10
9.93658e-11
2.8113e-10
1.08733e-10
-6.96113e-10
-1.54011e-09
-4.3328e-10
9.75541e-10
)
;
    }
    outlet
    {
        type            calculated;
        value           uniform 0;
    }
    frontAndBack
    {
        type            empty;
    }
}


// ************************************************************************* //
