/*--------------------------------*- C++ -*----------------------------------*\
  =========                 |
  \\      /  F ield         | OpenFOAM: The Open Source CFD Toolbox
   \\    /   O peration     | Website:  https://openfoam.org
    \\  /    A nd           | Version:  7
     \\/     M anipulation  |
\*---------------------------------------------------------------------------*/
FoamFile
{
    version     2.0;
    format      ascii;
    class       volVectorField;
    location    "81";
    object      ddtCorrDdt0(hU);
}
// * * * * * * * * * * * * * * * * * * * * * * * * * * * * * * * * * * * * * //

dimensions      [0 2 -2 0 0 0 0];

internalField   nonuniform List<vector> 
400
(
(2.70419e-11 -1.39548e-11 0)
(-5.07419e-11 5.38743e-11 0)
(-8.09923e-12 -3.71246e-12 0)
(-9.53653e-11 -1.06988e-11 0)
(-1.09762e-10 1.28979e-10 0)
(-2.41349e-10 4.91654e-10 0)
(1.32029e-09 4.25374e-10 0)
(-4.54042e-09 -2.52536e-09 0)
(-9.31035e-10 2.59025e-10 0)
(4.20405e-10 -2.39487e-10 0)
(-2.72869e-10 -2.23e-10 0)
(-1.90088e-10 -6.77272e-11 0)
(4.22189e-12 2.57045e-11 0)
(1.09365e-10 6.06119e-11 0)
(1.1544e-10 5.09266e-11 0)
(4.63223e-11 3.84831e-11 0)
(-3.94142e-11 3.29603e-11 0)
(-5.07144e-11 4.22198e-11 0)
(-4.94193e-11 2.48237e-11 0)
(-9.26799e-12 -1.89445e-11 0)
(-4.01765e-11 -5.23511e-11 0)
(1.94863e-11 5.61223e-11 0)
(-3.06883e-11 -1.1e-10 0)
(1.10526e-10 3.87445e-11 0)
(-1.38147e-10 -1.20482e-10 0)
(4.90489e-10 6.77231e-10 0)
(-7.1029e-10 -3.8107e-10 0)
(3.33001e-09 -1.18361e-09 0)
(1.73078e-09 3.48519e-10 0)
(-2.9144e-10 -3.98915e-10 0)
(-6.79816e-11 -2.85428e-10 0)
(1.04462e-10 -6.03139e-11 0)
(1.28772e-10 3.88578e-11 0)
(1.11515e-10 5.7615e-11 0)
(7.17455e-11 2.46999e-11 0)
(3.03272e-11 -2.43728e-12 0)
(-5.52546e-12 1.69543e-11 0)
(-8.49725e-12 5.75922e-11 0)
(-2.90572e-11 6.52555e-11 0)
(-2.89048e-11 1.50258e-11 0)
(-6.37947e-11 -5.25802e-11 0)
(4.55863e-11 3.58712e-11 0)
(3.81311e-12 3.80826e-12 0)
(1.07705e-10 1.97168e-10 0)
(5.66232e-11 -1.78563e-10 0)
(1.53399e-10 2.42095e-10 0)
(-1.05745e-09 -7.26941e-10 0)
(1.17368e-09 1.51239e-09 0)
(-3.89504e-10 -1.79701e-10 0)
(-4.7738e-10 -2.46447e-10 0)
(2.11185e-10 -5.09272e-11 0)
(2.66253e-10 2.31256e-11 0)
(1.76049e-10 4.16872e-11 0)
(1.0289e-10 5.34069e-11 0)
(2.36733e-11 5.10435e-11 0)
(-4.96773e-12 6.40892e-11 0)
(1.20913e-11 6.07314e-11 0)
(3.31947e-11 5.71479e-11 0)
(-1.02148e-11 2.33468e-11 0)
(-2.83567e-11 -4.50096e-11 0)
(-4.6606e-12 -2.94444e-11 0)
(5.80523e-11 2.26721e-11 0)
(7.27613e-11 1.35408e-10 0)
(-1.71039e-11 1.50749e-10 0)
(1.57266e-10 2.04502e-10 0)
(-2.25317e-10 -1.24803e-10 0)
(4.30978e-11 3.25217e-10 0)
(2.97845e-10 1.36593e-10 0)
(-5.7843e-10 -3.58885e-10 0)
(-1.73426e-11 5.68424e-11 0)
(3.26531e-10 1.62202e-10 0)
(1.90755e-10 6.81037e-11 0)
(9.21104e-11 3.3844e-11 0)
(4.95485e-11 3.29914e-11 0)
(3.6136e-12 5.61996e-11 0)
(-3.30909e-12 1.20092e-10 0)
(3.39702e-11 1.0152e-10 0)
(6.50636e-11 3.63331e-11 0)
(2.03505e-11 -1.58446e-11 0)
(-1.90006e-11 -7.47243e-11 0)
(6.41784e-11 3.14787e-11 0)
(4.34511e-11 1.10004e-11 0)
(1.09251e-10 1.00141e-10 0)
(-6.37386e-11 7.6308e-13 0)
(1.02998e-10 2.95457e-10 0)
(-2.76814e-10 -2.29281e-10 0)
(2.25341e-10 3.68581e-10 0)
(-1.94647e-10 -1.45404e-10 0)
(-2.3803e-10 -6.74875e-11 0)
(4.04771e-10 2.55309e-10 0)
(2.26367e-10 1.10698e-10 0)
(8.85811e-12 -2.13564e-11 0)
(-7.3841e-12 -1.09638e-11 0)
(-2.26676e-11 1.8706e-11 0)
(-9.2155e-12 7.1274e-11 0)
(4.23153e-12 1.70869e-10 0)
(5.4178e-12 1.52521e-10 0)
(2.99018e-11 4.9073e-11 0)
(3.54628e-12 -2.42208e-11 0)
(-4.848e-12 -8.50631e-11 0)
(4.06059e-11 9.26323e-11 0)
(4.56447e-12 4.07704e-11 0)
(5.75269e-11 1.20719e-10 0)
(-2.8064e-11 9.17696e-13 0)
(-2.16478e-11 1.59554e-10 0)
(-1.5502e-10 2.9896e-11 0)
(1.43389e-10 2.06583e-10 0)
(-2.82516e-10 -7.89098e-11 0)
(2.45506e-10 2.42704e-10 0)
(3.2412e-10 1.3905e-10 0)
(-1.05263e-10 -1.23471e-10 0)
(-5.5178e-11 -1.04902e-10 0)
(2.30419e-11 -3.75987e-11 0)
(-8.96756e-12 4.42377e-11 0)
(4.07144e-11 1.36881e-10 0)
(5.49939e-11 2.36614e-10 0)
(-3.63768e-11 2.18955e-10 0)
(-8.46279e-11 1.31763e-10 0)
(-1.0472e-10 1.62734e-11 0)
(-3.91687e-11 -1.07959e-10 0)
(-1.01865e-11 5.02401e-11 0)
(-2.254e-11 6.39622e-11 0)
(-3.91121e-11 5.70619e-11 0)
(1.01954e-11 1.10959e-10 0)
(-1.06198e-10 -1.34674e-11 0)
(5.47268e-11 1.90619e-10 0)
(7.13622e-12 8.61001e-11 0)
(3.12717e-11 8.704e-11 0)
(2.73932e-10 2.24577e-10 0)
(-1.40245e-10 -1.3837e-10 0)
(-1.84104e-10 -1.7022e-10 0)
(-3.40481e-12 -5.30157e-11 0)
(-1.71748e-11 -5.8691e-11 0)
(-1.00375e-11 3.5408e-11 0)
(8.0021e-11 1.48637e-10 0)
(1.05957e-10 1.96302e-10 0)
(3.42134e-12 1.85376e-10 0)
(-1.0635e-10 1.76762e-10 0)
(-1.51326e-10 9.47744e-11 0)
(-6.69694e-11 -7.02785e-11 0)
(-3.46748e-11 -3.09302e-11 0)
(-2.80399e-12 9.5495e-11 0)
(-7.08621e-11 6.34791e-11 0)
(1.77514e-11 2.10105e-10 0)
(-8.16516e-11 8.84104e-11 0)
(1.06327e-10 2.25014e-10 0)
(-6.56817e-11 4.7951e-11 0)
(1.4269e-10 1.11408e-10 0)
(-2.60328e-11 -7.15171e-11 0)
(-2.10247e-10 -2.27461e-10 0)
(6.17122e-11 -1.10426e-10 0)
(-5.03692e-12 -7.61235e-11 0)
(-7.11862e-11 -5.15101e-11 0)
(9.17378e-11 9.6626e-11 0)
(1.3859e-10 1.76452e-10 0)
(7.07024e-11 1.65483e-10 0)
(5.10653e-12 1.30065e-10 0)
(-6.66617e-11 1.50052e-10 0)
(-1.46604e-10 8.63113e-11 0)
(-9.38509e-11 -8.46155e-11 0)
(6.48103e-12 -2.8703e-11 0)
(2.77182e-11 4.93543e-11 0)
(-2.25273e-11 1.49073e-10 0)
(3.85443e-13 1.82537e-10 0)
(7.8352e-12 2.5959e-10 0)
(5.69876e-11 2.18632e-10 0)
(-1.79411e-11 1.45466e-10 0)
(5.8324e-11 1.02005e-10 0)
(-1.13127e-10 -1.33055e-10 0)
(-3.96547e-11 -5.8168e-11 0)
(7.77413e-11 -8.37933e-11 0)
(-5.65037e-11 -1.25944e-10 0)
(-1.58446e-11 4.72813e-11 0)
(1.21408e-10 1.66223e-10 0)
(6.81675e-11 1.15631e-10 0)
(-2.08667e-11 1.0038e-10 0)
(-1.14918e-12 1.04481e-10 0)
(2.99691e-11 1.13518e-10 0)
(1.76453e-11 4.13634e-11 0)
(-6.76158e-13 -1.03972e-10 0)
(1.29389e-11 4.34838e-11 0)
(1.83142e-12 4.04242e-11 0)
(5.23777e-11 1.69082e-10 0)
(1.23324e-11 1.49774e-10 0)
(7.46588e-11 2.54911e-10 0)
(-8.91099e-12 1.83929e-10 0)
(3.37755e-11 1.62755e-10 0)
(-8.82639e-11 7.25337e-11 0)
(-5.03255e-11 -7.7155e-11 0)
(3.66594e-11 -9.81594e-12 0)
(-3.62498e-11 -9.40137e-11 0)
(8.3156e-11 -1.0131e-10 0)
(1.16194e-10 8.78624e-11 0)
(-5.01831e-11 1.68416e-10 0)
(-1.0158e-10 1.13794e-10 0)
(-2.21965e-11 1.41083e-10 0)
(3.13619e-11 1.43463e-10 0)
(5.42275e-11 1.03249e-10 0)
(1.02099e-10 5.79858e-12 0)
(9.78519e-11 -1.2767e-10 0)
(3.72766e-12 7.2871e-11 0)
(-2.50083e-11 1.43601e-10 0)
(5.66761e-11 1.01717e-10 0)
(-2.67174e-13 1.42369e-10 0)
(8.26609e-11 1.05788e-10 0)
(-3.66779e-11 1.38202e-10 0)
(4.43361e-11 8.13735e-11 0)
(-1.2449e-10 5.14598e-11 0)
(-1.98219e-11 1.18347e-11 0)
(6.93415e-11 -7.28192e-11 0)
(-6.61319e-11 -4.62261e-11 0)
(1.17418e-10 -3.75114e-11 0)
(1.33361e-10 -4.81968e-11 0)
(-1.27892e-10 6.54351e-11 0)
(-1.74652e-10 2.00632e-10 0)
(-4.49075e-11 2.73382e-10 0)
(1.94791e-11 1.94178e-10 0)
(4.37736e-11 1.0078e-10 0)
(1.33558e-10 2.29264e-11 0)
(1.42548e-10 -1.12804e-10 0)
(6.42604e-12 8.31683e-11 0)
(-1.57381e-11 1.37806e-10 0)
(-2.46462e-11 7.20332e-11 0)
(-4.16134e-11 1.51377e-10 0)
(3.3735e-11 5.77184e-11 0)
(4.40285e-12 1.25858e-10 0)
(1.16578e-11 6.80774e-11 0)
(-9.51494e-13 2.87678e-11 0)
(-8.57098e-11 1.14078e-10 0)
(5.3163e-11 -9.57391e-11 0)
(2.27948e-11 -5.44533e-11 0)
(-4.7129e-11 7.54528e-12 0)
(2.68178e-11 -1.02154e-10 0)
(4.4573e-11 -1.28632e-11 0)
(-4.12665e-11 2.06089e-10 0)
(-9.57031e-11 3.31597e-10 0)
(-5.95226e-11 2.47028e-10 0)
(7.60978e-12 1.31106e-10 0)
(6.48175e-11 5.02695e-11 0)
(6.85233e-11 -9.65136e-11 0)
(-3.17178e-11 4.14287e-11 0)
(-2.28282e-11 2.15056e-11 0)
(-8.81821e-11 1.44484e-10 0)
(-1.96029e-11 1.31366e-10 0)
(-6.04682e-11 2.16935e-10 0)
(7.80857e-11 1.18055e-10 0)
(-6.53736e-11 1.69349e-10 0)
(1.67104e-10 -1.98733e-11 0)
(-6.99331e-11 1.15829e-10 0)
(-9.83446e-11 1.17361e-11 0)
(1.22604e-10 -1.22869e-10 0)
(-7.08019e-11 -5.23443e-11 0)
(-1.15073e-10 -1.5905e-11 0)
(6.86629e-11 2.70635e-11 0)
(6.1797e-11 1.36369e-10 0)
(-4.44153e-11 2.82902e-10 0)
(-5.75964e-11 2.66498e-10 0)
(-4.61997e-11 1.5749e-10 0)
(-3.89245e-11 3.94743e-11 0)
(-9.48365e-12 -1.09389e-10 0)
(-1.77856e-11 -5.82463e-11 0)
(-1.72805e-11 -9.70443e-12 0)
(-6.31042e-11 1.66106e-10 0)
(2.82391e-11 1.29968e-10 0)
(-1.25454e-10 3.42002e-10 0)
(9.73245e-11 5.06244e-11 0)
(-9.03579e-11 2.07486e-10 0)
(1.41209e-10 -1.05612e-11 0)
(1.80971e-10 -7.8428e-11 0)
(-2.36281e-10 1.29987e-10 0)
(-6.87692e-11 -2.56532e-11 0)
(2.36484e-11 -9.94124e-11 0)
(-4.85606e-11 5.63461e-12 0)
(1.28602e-11 4.70581e-11 0)
(7.28308e-11 5.66791e-11 0)
(4.05319e-11 1.62384e-10 0)
(-4.05498e-11 1.92291e-10 0)
(-1.17728e-10 1.432e-10 0)
(-1.27544e-10 6.42145e-11 0)
(-4.56237e-11 -7.35156e-11 0)
(3.56565e-11 -9.17227e-11 0)
(1.15383e-11 5.31035e-11 0)
(2.56971e-11 1.21417e-10 0)
(1.7228e-11 2.15708e-10 0)
(-7.40266e-11 1.84093e-10 0)
(-1.35142e-11 8.24189e-11 0)
(8.35002e-11 5.73424e-11 0)
(-1.67319e-10 1.49396e-10 0)
(4.18552e-10 -3.00232e-10 0)
(9.36709e-11 -1.07507e-10 0)
(-2.62732e-10 1.54841e-11 0)
(-1.16639e-10 -4.8592e-11 0)
(-6.45562e-11 4.52617e-12 0)
(-6.2233e-11 6.75123e-11 0)
(3.31183e-11 6.90623e-11 0)
(8.09312e-11 1.06154e-10 0)
(2.33601e-11 1.19077e-10 0)
(-4.25217e-11 1.35509e-10 0)
(-3.38791e-11 8.86182e-11 0)
(-2.121e-11 -6.19e-11 0)
(7.84461e-11 -6.79472e-12 0)
(5.71318e-11 8.99621e-11 0)
(1.00482e-10 6.73397e-13 0)
(-5.34273e-11 1.193e-10 0)
(5.00945e-11 -1.77263e-10 0)
(-2.40663e-10 3.30627e-10 0)
(2.68382e-10 -1.61765e-10 0)
(-3.76893e-10 2.87121e-10 0)
(-5.88655e-11 -2.3479e-11 0)
(3.92707e-10 -2.6671e-10 0)
(-4.0169e-11 -5.88865e-11 0)
(-1.53039e-10 3.0161e-11 0)
(-9.53678e-11 4.19406e-11 0)
(-7.50726e-11 7.82022e-11 0)
(2.01692e-12 6.89049e-11 0)
(5.77269e-11 4.45551e-11 0)
(5.99602e-11 5.02454e-11 0)
(4.10653e-11 1.08997e-10 0)
(2.38428e-11 9.44906e-11 0)
(-3.4474e-11 -3.1746e-11 0)
(1.61713e-11 8.77081e-11 0)
(1.82013e-11 1.51332e-10 0)
(3.85438e-11 -1.56923e-11 0)
(-9.09622e-11 -1.38204e-11 0)
(2.34022e-10 -1.71842e-10 0)
(-2.62022e-10 5.63349e-10 0)
(2.70047e-10 -3.63494e-10 0)
(8.26761e-11 3.11386e-10 0)
(-4.34265e-10 2.43975e-10 0)
(1.4374e-10 -1.58745e-10 0)
(1.89553e-10 -1.24298e-10 0)
(-6.45965e-11 8.00217e-14 0)
(-1.49148e-10 4.23537e-11 0)
(-1.40188e-10 9.69316e-11 0)
(-8.44005e-11 1.05754e-10 0)
(-4.52234e-12 7.73935e-11 0)
(8.70596e-11 4.96651e-11 0)
(1.11082e-10 6.40861e-11 0)
(8.07771e-11 3.28317e-11 0)
(-1.4964e-11 -5.65586e-11 0)
(-3.81505e-11 5.05389e-11 0)
(-3.6352e-12 8.69667e-14 0)
(-5.1033e-11 6.41022e-11 0)
(-2.63661e-11 -9.11075e-11 0)
(3.05122e-10 1.88572e-10 0)
(-1.39174e-10 7.50963e-11 0)
(-1.98175e-10 -8.33919e-10 0)
(8.23434e-10 -6.56272e-10 0)
(-7.52332e-10 2.67168e-10 0)
(-1.02561e-10 9.59029e-11 0)
(1.98565e-10 -8.36794e-11 0)
(-8.65141e-12 -8.72831e-11 0)
(-1.40099e-10 -2.76187e-11 0)
(-1.51134e-10 6.81652e-11 0)
(-1.21374e-10 1.24119e-10 0)
(-4.15062e-11 1.2447e-10 0)
(7.41384e-11 6.33517e-11 0)
(1.09544e-10 4.9558e-12 0)
(1.05757e-10 -4.00362e-11 0)
(7.56851e-12 -7.17994e-11 0)
(-2.39156e-11 4.90758e-11 0)
(-5.96145e-12 -1.87757e-10 0)
(-1.15368e-10 3.74985e-11 0)
(3.45513e-11 1.03927e-10 0)
(-7.26132e-11 4.47603e-10 0)
(9.61425e-10 -9.61889e-10 0)
(-1.58937e-09 1.98789e-09 0)
(-1.3204e-10 -2.31546e-10 0)
(4.66809e-10 -1.46203e-10 0)
(-3.28047e-10 2.46416e-10 0)
(-7.33115e-11 -1.86256e-11 0)
(-2.71428e-11 -9.93725e-11 0)
(-4.88062e-11 -4.15272e-11 0)
(-6.99187e-11 4.29286e-11 0)
(-9.54972e-11 1.0026e-10 0)
(-8.23556e-11 1.03837e-10 0)
(-1.95713e-11 4.28315e-11 0)
(2.77267e-11 -3.63202e-11 0)
(7.23961e-11 -5.95946e-11 0)
(3.64236e-11 -3.64318e-11 0)
(-2.66319e-11 5.37837e-11 0)
(-1.2113e-10 -7.77905e-11 0)
(-3.61677e-12 1.4192e-11 0)
(9.7519e-11 2.00439e-10 0)
(-3.15123e-10 2.76626e-10 0)
(-4.03898e-10 -7.19562e-10 0)
(1.34347e-09 2.58978e-09 0)
(-3.40948e-10 5.84382e-10 0)
(4.3065e-10 -3.34382e-10 0)
(2.76131e-12 6.88319e-11 0)
(-2.59651e-10 -3.99758e-11 0)
(3.55982e-12 -5.92069e-11 0)
(7.25982e-11 -3.14691e-12 0)
(5.86281e-12 5.35738e-11 0)
(-8.36515e-11 8.55992e-11 0)
(-1.26577e-10 8.98268e-11 0)
(-9.52901e-11 4.44619e-11 0)
(-2.92709e-11 -6.8889e-12 0)
(6.75384e-11 -4.21867e-11 0)
(6.44445e-11 -4.66055e-11 0)
)
;

boundaryField
{
    sides
    {
        type            calculated;
        value           nonuniform List<vector> 
40
(
(-2.66319e-11 0 0)
(-1.2113e-10 0 0)
(-3.61677e-12 0 0)
(9.7519e-11 0 0)
(-3.15123e-10 0 0)
(-4.03898e-10 0 0)
(1.34347e-09 0 0)
(-3.40948e-10 0 0)
(4.3065e-10 0 0)
(2.76131e-12 0 0)
(-2.59651e-10 0 0)
(3.55982e-12 0 0)
(7.25982e-11 0 0)
(5.86281e-12 0 0)
(-8.36515e-11 0 0)
(-1.26577e-10 0 0)
(-9.52901e-11 0 0)
(-2.92709e-11 0 0)
(6.75384e-11 0 0)
(6.44445e-11 0 0)
(2.70419e-11 0 0)
(-5.07419e-11 0 0)
(-8.09923e-12 0 0)
(-9.53653e-11 0 0)
(-1.09762e-10 0 0)
(-2.41349e-10 0 0)
(1.32029e-09 0 0)
(-4.54042e-09 0 0)
(-9.31035e-10 0 0)
(4.20405e-10 0 0)
(-2.72869e-10 0 0)
(-1.90088e-10 0 0)
(4.22189e-12 0 0)
(1.09365e-10 0 0)
(1.1544e-10 0 0)
(4.63223e-11 0 0)
(-3.94142e-11 0 0)
(-5.07144e-11 0 0)
(-4.94193e-11 0 0)
(-9.26799e-12 0 0)
)
;
    }
    inlet
    {
        type            calculated;
        value           uniform (0 0 0);
    }
    outlet
    {
        type            calculated;
        value           nonuniform List<vector> 
20
(
(-9.26799e-12 -1.89445e-11 0)
(-2.89048e-11 1.50258e-11 0)
(-2.83567e-11 -4.50096e-11 0)
(-1.90006e-11 -7.47243e-11 0)
(-4.848e-12 -8.50631e-11 0)
(-3.91687e-11 -1.07959e-10 0)
(-6.69694e-11 -7.02785e-11 0)
(-9.38509e-11 -8.46155e-11 0)
(-6.76158e-13 -1.03972e-10 0)
(9.78519e-11 -1.2767e-10 0)
(1.42548e-10 -1.12804e-10 0)
(6.85233e-11 -9.65136e-11 0)
(-9.48365e-12 -1.09389e-10 0)
(-4.56237e-11 -7.35156e-11 0)
(-2.121e-11 -6.19e-11 0)
(-3.4474e-11 -3.1746e-11 0)
(-1.4964e-11 -5.65586e-11 0)
(7.56851e-12 -7.17994e-11 0)
(3.64236e-11 -3.64318e-11 0)
(6.44445e-11 -4.66055e-11 0)
)
;
    }
    frontAndBack
    {
        type            empty;
    }
}


// ************************************************************************* //
