/*--------------------------------*- C++ -*----------------------------------*\
  =========                 |
  \\      /  F ield         | OpenFOAM: The Open Source CFD Toolbox
   \\    /   O peration     | Website:  https://openfoam.org
    \\  /    A nd           | Version:  7
     \\/     M anipulation  |
\*---------------------------------------------------------------------------*/
FoamFile
{
    version     2.0;
    format      ascii;
    class       surfaceScalarField;
    location    "81";
    object      ddtCorrDdt0(phi);
}
// * * * * * * * * * * * * * * * * * * * * * * * * * * * * * * * * * * * * * //

dimensions      [0 4 -2 0 0 0 0];

internalField   nonuniform List<scalar> 
760
(
-8.42735e-13
3.19875e-14
7.82514e-13
2.08927e-13
-8.03993e-13
-4.53489e-13
3.72763e-13
5.25728e-14
-3.52453e-12
1.45046e-12
3.49373e-12
-3.33231e-10
-1.8448e-12
2.80009e-10
-2.23828e-11
-1.1374e-10
3.28545e-12
-6.75872e-12
-5.20398e-13
-7.08016e-13
-1.3537e-12
-1.00876e-12
-4.59462e-13
-4.53962e-13
3.83824e-13
7.85743e-15
6.60612e-13
2.18834e-13
3.94229e-13
1.67849e-13
-5.36201e-14
7.99565e-14
-2.37339e-13
1.16342e-13
-2.17832e-13
2.4132e-13
-1.43208e-13
1.97193e-13
7.72116e-15
-1.28982e-13
-9.99793e-13
2.55793e-13
3.82501e-13
-9.48918e-13
-1.21747e-13
1.93612e-12
5.83163e-13
-1.83579e-12
-1.79904e-12
6.3224e-12
7.32161e-12
-6.15831e-12
-1.84515e-11
2.36454e-11
1.80232e-11
-1.34168e-14
1.40902e-12
-9.8574e-13
-1.90097e-12
2.17553e-13
-9.74913e-13
6.04192e-13
-8.72398e-14
6.54131e-13
1.93532e-13
4.78639e-13
2.63582e-13
1.79453e-13
2.07392e-13
2.94837e-14
1.82877e-13
3.1973e-14
2.25115e-13
-5.21826e-14
3.046e-13
-1.90143e-13
1.83534e-13
-9.91018e-14
5.39018e-13
-3.34141e-13
-7.17961e-13
2.31824e-13
1.05579e-12
2.52342e-13
-9.94581e-13
1.06938e-12
3.6806e-12
-5.63626e-13
-6.58632e-12
1.53703e-12
3.00828e-12
-7.57866e-13
2.48309e-12
2.84744e-12
-3.94219e-12
-2.55728e-12
-5.28738e-14
-9.22754e-13
1.40467e-12
2.50125e-13
1.07284e-12
3.72082e-13
7.34636e-13
2.85915e-13
2.86199e-13
2.22195e-13
-7.04933e-14
2.42105e-13
2.00232e-14
4.16329e-13
2.41523e-13
3.48801e-13
7.565e-14
1.8465e-13
-1.79838e-13
-1.88033e-14
-3.09313e-13
5.82366e-13
-2.11788e-14
-3.23307e-13
1.15047e-13
1.17363e-12
4.81708e-13
-1.71316e-12
6.40808e-13
3.35142e-12
1.41756e-12
-4.86341e-12
-1.75271e-12
4.58802e-12
3.14539e-12
-2.34818e-12
-5.69611e-13
-1.81176e-12
-1.43069e-12
1.37018e-12
5.74668e-13
1.31627e-12
8.71741e-13
6.40753e-13
1.93796e-13
3.44171e-13
6.83838e-14
9.84614e-14
1.36246e-13
-5.52122e-14
3.4603e-13
9.19249e-14
7.79877e-13
3.34911e-13
6.22321e-13
2.2994e-13
1.16836e-13
-5.30378e-14
-1.69155e-13
-4.13752e-13
5.25415e-13
4.16305e-13
1.8294e-14
8.83381e-14
6.85327e-13
5.71481e-13
-4.89968e-13
-2.58391e-13
7.93884e-14
1.75227e-12
-9.0045e-13
-8.48495e-13
1.39566e-12
1.315e-12
-2.6571e-12
-9.22266e-13
1.10265e-12
5.06056e-13
1.9414e-12
1.75111e-12
3.29805e-13
2.29966e-13
1.22804e-14
-3.74412e-13
-1.3935e-13
-1.33246e-13
-1.07512e-13
1.58752e-13
8.05452e-14
5.13413e-13
1.11396e-14
1.0656e-12
5.93964e-15
9.5999e-13
1.42037e-13
4.03739e-13
1.67626e-14
-4.19093e-14
-4.67834e-13
9.15671e-15
4.52061e-13
3.22213e-13
1.90762e-13
-3.37828e-13
5.48169e-13
8.96551e-13
3.00588e-14
-1.84204e-12
9.84102e-14
1.07956e-12
8.98955e-13
-7.42748e-13
8.39763e-13
-7.04901e-13
1.1212e-13
2.49516e-12
1.94138e-12
1.84827e-13
2.37165e-14
-6.03139e-13
-1.0724e-12
7.80944e-14
-4.78842e-13
-9.40906e-14
-2.01676e-13
5.24099e-14
2.32028e-13
4.72348e-13
7.53267e-13
1.67113e-14
1.14861e-12
-5.52248e-13
1.11017e-12
-3.76833e-13
8.74168e-13
-2.59008e-13
3.27636e-13
-4.3759e-13
-4.67348e-13
6.66095e-14
3.59816e-13
4.66483e-13
-8.05396e-13
1.06419e-13
6.79098e-13
1.08145e-12
-1.09295e-12
-1.95312e-13
1.14853e-12
1.0662e-12
-9.01422e-13
2.26356e-14
1.49246e-12
6.12359e-13
3.8438e-13
2.10921e-13
-1.29147e-12
-1.42974e-12
-2.51678e-13
-7.24067e-13
-4.26398e-15
-1.52668e-13
-2.35058e-13
-3.72776e-13
2.13765e-13
2.06949e-13
6.82505e-13
8.16782e-13
2.47812e-13
8.92336e-13
-4.94247e-13
7.78861e-13
-5.80118e-13
9.02558e-13
-4.56653e-13
5.76006e-13
-3.37892e-13
-2.11468e-13
-3.57893e-13
-2.23158e-13
5.28997e-13
3.27861e-14
5.10846e-13
-4.59565e-13
1.02188e-12
2.86561e-13
1.01961e-12
1.46213e-13
1.13832e-12
-1.3057e-13
4.74053e-13
1.02671e-12
5.55375e-13
-1.28464e-12
-7.66779e-13
-2.75807e-13
-6.94839e-13
4.70992e-13
-3.51035e-13
-4.86899e-13
-6.02868e-13
7.82232e-15
-1.48013e-13
7.45343e-13
6.67558e-13
5.54431e-13
7.88611e-13
1.55667e-13
6.30102e-13
-2.10392e-13
4.9678e-13
-5.06338e-13
6.21263e-13
-5.88391e-13
3.1604e-13
-4.83786e-13
3.94341e-13
5.01118e-14
-4.05855e-13
-2.42677e-14
3.70519e-13
9.91521e-13
-4.61595e-13
8.07714e-13
5.93101e-13
1.60985e-12
-1.97202e-13
1.06349e-12
2.90273e-13
9.72905e-13
-3.95407e-14
4.22961e-13
-7.58064e-13
-5.84571e-13
3.69242e-13
1.55336e-14
7.58877e-14
-5.5018e-13
-3.87591e-13
-6.45142e-13
4.02949e-13
6.24904e-13
5.57097e-13
1.01855e-12
-4.33805e-14
4.24857e-13
-3.55975e-14
4.23407e-13
2.12228e-13
5.85467e-13
5.43727e-14
5.38388e-13
-1.93464e-14
2.34196e-14
-6.62409e-13
1.91887e-15
3.69616e-13
2.99087e-13
4.10308e-13
1.99003e-14
7.27396e-13
3.10607e-13
6.85388e-13
1.32246e-13
9.32703e-13
1.76725e-14
7.64939e-13
3.85685e-14
6.36434e-13
-6.84671e-13
3.05536e-13
2.60031e-13
-1.55121e-13
-1.16669e-13
-1.22129e-13
-5.3753e-14
-3.57391e-13
8.04161e-13
-3.51277e-13
2.61671e-13
1.82815e-13
-6.39098e-13
6.13501e-13
-4.89941e-13
7.21851e-13
2.25451e-13
9.88944e-13
4.4071e-13
8.4507e-13
1.56195e-13
5.10172e-13
4.03981e-13
5.08847e-14
-6.15483e-13
-2.30585e-13
3.76981e-13
4.15369e-13
1.03783e-12
-1.81286e-13
2.6623e-13
4.6551e-13
7.22197e-13
-3.38864e-14
1.093e-13
4.6522e-14
6.02122e-13
-3.35535e-14
1.78315e-13
-8.22771e-13
2.16487e-13
6.26558e-13
2.98631e-13
-2.22279e-13
-5.61281e-13
-1.11631e-13
-9.63227e-14
1.07044e-12
-2.25166e-14
8.62459e-14
-6.49176e-13
-1.09361e-12
2.36414e-14
-6.95453e-13
1.23702e-12
1.59889e-13
1.70938e-12
3.55113e-13
1.08141e-12
1.92745e-13
4.87858e-13
6.1078e-13
2.04543e-13
-4.63245e-13
2.16931e-13
4.87411e-13
-4.25264e-13
3.33229e-13
8.19119e-14
4.11995e-13
-3.15404e-13
7.88378e-13
4.57737e-13
4.76099e-13
-2.74696e-13
6.95019e-13
3.32412e-13
5.38942e-13
-4.70996e-13
5.83079e-14
-5.97574e-14
7.68765e-13
3.86352e-13
-4.01796e-13
-2.53997e-13
-4.88828e-13
-7.09018e-14
6.45373e-14
3.49547e-13
-2.97501e-13
5.86461e-15
-6.91397e-14
-4.81332e-13
8.58162e-13
-3.85668e-13
1.62731e-12
-4.96766e-14
1.36754e-12
1.13556e-13
7.62805e-13
3.20021e-13
2.63588e-13
-4.79115e-13
-1.09745e-13
-7.87485e-14
-5.97024e-13
-1.55487e-13
2.14082e-13
1.04546e-12
-8.13938e-13
4.94195e-13
6.49946e-13
1.69535e-12
-3.18208e-13
5.11039e-13
2.55088e-13
1.19546e-12
6.8383e-13
-1.82833e-13
-1.06957e-12
4.26698e-13
4.12466e-13
6.4015e-13
2.75909e-13
-5.9587e-13
-8.41519e-13
-5.60234e-13
-5.08667e-14
7.85311e-14
5.60307e-13
2.52868e-13
4.06137e-14
4.17731e-13
-3.73133e-13
1.1026e-12
-3.48307e-13
1.20881e-12
-1.61496e-13
7.6179e-13
-6.5445e-14
2.05241e-13
-4.90514e-13
-4.93618e-13
-5.45208e-13
2.6857e-13
8.31192e-14
-4.86742e-13
6.71493e-13
1.54172e-13
9.04785e-13
-5.11728e-13
1.83037e-12
6.06614e-13
-1.10671e-13
-7.95766e-13
7.46078e-13
1.84116e-12
-5.91523e-14
-5.87714e-13
-1.48275e-12
-9.88661e-13
3.86696e-13
2.07516e-13
2.43685e-13
-2.17674e-13
-4.5261e-13
-2.0843e-13
-3.1931e-14
3.64801e-13
2.72891e-13
4.65287e-13
2.62849e-13
-8.1371e-14
6.36239e-13
-6.26725e-13
7.61009e-13
-5.51954e-13
6.69998e-13
-3.25566e-13
3.53047e-13
-3.49779e-13
-1.61301e-13
-3.70199e-13
6.53146e-13
4.44607e-13
-5.84951e-13
3.21533e-13
1.1309e-12
1.13989e-12
-2.04028e-12
-5.43176e-13
1.85998e-12
9.09582e-13
-1.44665e-12
-1.54586e-13
9.1221e-13
2.0315e-12
1.98654e-12
-1.29337e-12
-1.01016e-12
-1.46137e-12
-9.48162e-13
4.22519e-15
-3.35839e-13
1.17756e-13
-4.6885e-13
1.26801e-13
-5.77179e-14
3.13241e-13
5.29033e-13
2.70602e-13
2.37306e-13
2.64368e-13
-2.82168e-13
3.54386e-13
-1.30549e-13
6.42238e-13
-3.5852e-14
5.17817e-13
-2.10348e-13
5.046e-13
2.2903e-13
4.94549e-13
5.66141e-13
1.68151e-13
5.04534e-14
1.37285e-13
2.08092e-13
-1.30887e-12
-1.3831e-12
7.29669e-13
3.17945e-12
2.22507e-13
-1.48997e-12
-2.59944e-12
6.93447e-13
2.00042e-12
1.37513e-12
8.25067e-13
-1.20711e-12
-7.4895e-13
-8.01589e-13
-5.33444e-13
6.15803e-14
-5.35331e-13
2.87222e-13
-2.26799e-13
5.18431e-13
2.93333e-13
4.91267e-13
3.20431e-13
2.95275e-13
1.80103e-13
2.52725e-13
2.10407e-13
4.99252e-13
3.10488e-15
3.4994e-13
-2.34799e-13
6.74271e-13
5.86611e-13
-4.54869e-13
1.75655e-13
7.65907e-13
-4.45035e-14
-1.56654e-12
-5.4134e-13
2.71451e-12
7.96833e-13
-2.95824e-12
1.60091e-12
3.56461e-12
-2.79456e-12
-2.48802e-12
3.41137e-12
-7.00002e-13
1.31222e-12
1.37979e-12
-2.98708e-16
2.2297e-13
-5.67594e-13
-5.70579e-13
-2.04217e-13
-7.98233e-13
1.50388e-13
-6.28117e-13
5.21777e-13
-2.30002e-13
6.08665e-13
2.56003e-13
4.71382e-13
6.06435e-13
2.45005e-13
4.88135e-13
1.52565e-13
1.06577e-13
-1.76209e-14
-3.14292e-13
1.0446e-12
-1.01508e-12
-1.29016e-12
-6.13562e-13
4.94271e-13
7.57563e-14
-1.57261e-12
-6.41161e-14
5.95555e-12
3.31942e-12
-8.40208e-12
-8.51537e-12
8.14628e-12
1.97929e-12
-2.81899e-12
-1.53429e-11
-2.32776e-12
1.14803e-12
8.70409e-13
1.02109e-12
5.19251e-13
-1.11009e-13
-4.47504e-13
-4.31041e-13
-7.53333e-13
-1.89755e-13
-7.34745e-13
2.58131e-13
-4.91993e-13
5.56311e-13
1.11219e-13
5.98824e-13
6.22053e-13
2.89217e-13
5.42738e-13
-7.79696e-14
2.18878e-13
-2.32866e-13
-2.71276e-13
-9.83438e-14
4.99658e-14
4.8558e-14
-6.69949e-13
-1.17925e-12
4.27041e-13
6.32956e-13
1.20468e-12
5.25598e-12
-1.65124e-13
-9.19551e-12
8.39905e-11
5.37054e-13
4.63106e-10
2.16977e-12
2.4019e-10
-1.5992e-12
2.37491e-12
-8.14504e-13
3.18939e-13
-1.83095e-13
-4.8838e-14
-1.9894e-13
-3.67115e-13
-2.27373e-13
-2.44929e-13
-4.00776e-13
1.12612e-13
-5.36801e-13
4.01055e-13
-2.97861e-13
4.90836e-13
9.73537e-14
2.37745e-13
2.66697e-13
-9.65674e-14
2.53477e-13
-2.26678e-13
-2.11877e-13
-1.74844e-12
5.19316e-13
2.65574e-13
1.67087e-12
-1.09677e-11
1.82439e-11
-1.03256e-11
3.76137e-12
2.01196e-12
-1.46217e-12
-5.33375e-13
2.71547e-13
2.85969e-13
-1.34648e-13
-5.96139e-13
-6.54076e-13
-3.24809e-13
1.0779e-13
3.8619e-13
)
;

boundaryField
{
    sides
    {
        type            calculated;
        value           uniform 0;
    }
    inlet
    {
        type            calculated;
        value           uniform 0;
    }
    outlet
    {
        type            calculated;
        value           nonuniform List<scalar> 
20
(
-6.27536e-14
-1.64787e-13
-1.23403e-13
-9.30129e-14
-8.1726e-14
-3.38214e-13
-4.58346e-13
-5.41634e-13
7.96133e-14
8.06763e-13
1.05906e-12
4.70258e-13
-1.051e-13
-3.41853e-13
-2.41536e-13
-2.98886e-13
-1.13915e-13
2.34158e-14
1.95926e-13
3.33474e-13
)
;
    }
    frontAndBack
    {
        type            empty;
        value           nonuniform 0();
    }
}


// ************************************************************************* //
