/*--------------------------------*- C++ -*----------------------------------*\
  =========                 |
  \\      /  F ield         | OpenFOAM: The Open Source CFD Toolbox
   \\    /   O peration     | Website:  https://openfoam.org
    \\  /    A nd           | Version:  7
     \\/     M anipulation  |
\*---------------------------------------------------------------------------*/
FoamFile
{
    version     2.0;
    format      ascii;
    class       volVectorField;
    location    "81";
    object      hU;
}
// * * * * * * * * * * * * * * * * * * * * * * * * * * * * * * * * * * * * * //

dimensions      [0 2 -1 0 0 0 0];

internalField   nonuniform List<vector> 
400
(
(0.001 -8.74e-09 0)
(0.000999999 -2.37545e-08 0)
(0.001 -3.60023e-08 0)
(0.001 -4.67467e-08 0)
(0.00100001 -5.69265e-08 0)
(0.00100001 -6.73754e-08 0)
(0.00100002 -7.81357e-08 0)
(0.00100003 -8.94057e-08 0)
(0.00100004 -1.00005e-07 0)
(0.00100006 -1.11967e-07 0)
(0.00100007 -1.22661e-07 0)
(0.0010001 -1.36136e-07 0)
(0.00100011 -1.46485e-07 0)
(0.00100015 -1.6331e-07 0)
(0.00100017 -1.72152e-07 0)
(0.00100024 -1.96307e-07 0)
(0.00100026 -2.00828e-07 0)
(0.00100038 -2.43067e-07 0)
(0.00100038 -2.39215e-07 0)
(0.00100061 -3.31864e-07 0)
(0.001 3.95866e-09 0)
(0.001 1.21121e-08 0)
(0.00100001 2.02453e-08 0)
(0.00100001 2.79675e-08 0)
(0.00100002 3.51767e-08 0)
(0.00100002 4.17303e-08 0)
(0.00100003 4.76711e-08 0)
(0.00100004 5.2963e-08 0)
(0.00100005 5.83779e-08 0)
(0.00100007 6.22477e-08 0)
(0.00100008 6.6934e-08 0)
(0.0010001 6.85754e-08 0)
(0.00100012 7.26977e-08 0)
(0.00100016 6.98872e-08 0)
(0.00100018 7.40371e-08 0)
(0.00100023 6.16849e-08 0)
(0.00100026 6.71675e-08 0)
(0.00100035 3.17702e-08 0)
(0.00100037 3.985e-08 0)
(0.0010005 -5.45971e-08 0)
(0.001 -3.97448e-09 0)
(0.000999999 -1.30163e-08 0)
(0.001 -2.30611e-08 0)
(0.001 -3.36624e-08 0)
(0.00100001 -4.42407e-08 0)
(0.00100001 -5.5064e-08 0)
(0.00100002 -6.57219e-08 0)
(0.00100003 -7.73176e-08 0)
(0.00100004 -8.89154e-08 0)
(0.00100005 -1.02558e-07 0)
(0.00100006 -1.15249e-07 0)
(0.00100009 -1.3237e-07 0)
(0.0010001 -1.46445e-07 0)
(0.00100014 -1.69965e-07 0)
(0.00100016 -1.85091e-07 0)
(0.00100021 -2.21126e-07 0)
(0.00100023 -2.35716e-07 0)
(0.00100031 -2.97631e-07 0)
(0.00100033 -3.06301e-07 0)
(0.00100046 -4.22218e-07 0)
(0.001 -1.35345e-10 0)
(0.001 -2.73223e-11 0)
(0.00100001 6.16583e-10 0)
(0.00100001 1.30758e-09 0)
(0.00100001 1.97453e-09 0)
(0.00100002 1.857e-09 0)
(0.00100003 1.49334e-09 0)
(0.00100004 -3.983e-10 0)
(0.00100004 -2.44882e-09 0)
(0.00100006 -7.07863e-09 0)
(0.00100007 -1.11921e-08 0)
(0.00100009 -2.04232e-08 0)
(0.00100011 -2.70953e-08 0)
(0.00100013 -4.41943e-08 0)
(0.00100016 -5.34879e-08 0)
(0.00100019 -8.49542e-08 0)
(0.00100022 -9.55285e-08 0)
(0.00100028 -1.54745e-07 0)
(0.0010003 -1.61104e-07 0)
(0.00100039 -2.75934e-07 0)
(0.001 -2.88307e-09 0)
(0.001 -9.21729e-09 0)
(0.001 -1.62918e-08 0)
(0.001 -2.43676e-08 0)
(0.00100001 -3.30505e-08 0)
(0.00100001 -4.27992e-08 0)
(0.00100002 -5.28841e-08 0)
(0.00100002 -6.45951e-08 0)
(0.00100003 -7.65011e-08 0)
(0.00100004 -9.12356e-08 0)
(0.00100005 -1.05592e-07 0)
(0.00100007 -1.25353e-07 0)
(0.00100009 -1.42657e-07 0)
(0.00100011 -1.70847e-07 0)
(0.00100013 -1.9116e-07 0)
(0.00100016 -2.34293e-07 0)
(0.00100018 -2.55826e-07 0)
(0.00100024 -3.26637e-07 0)
(0.00100025 -3.41697e-07 0)
(0.00100033 -4.64493e-07 0)
(0.001 -2.54499e-09 0)
(0.001 -7.52094e-09 0)
(0.001 -1.22136e-08 0)
(0.00100001 -1.69836e-08 0)
(0.00100001 -2.17794e-08 0)
(0.00100001 -2.73503e-08 0)
(0.00100002 -3.32996e-08 0)
(0.00100002 -4.09486e-08 0)
(0.00100003 -4.89912e-08 0)
(0.00100004 -6.01833e-08 0)
(0.00100005 -7.12786e-08 0)
(0.00100006 -8.81794e-08 0)
(0.00100008 -1.03078e-07 0)
(0.0010001 -1.29339e-07 0)
(0.00100011 -1.48246e-07 0)
(0.00100014 -1.90248e-07 0)
(0.00100016 -2.11075e-07 0)
(0.0010002 -2.80631e-07 0)
(0.00100021 -2.94766e-07 0)
(0.00100027 -4.15109e-07 0)
(0.001 -2.88669e-09 0)
(0.001 -8.86069e-09 0)
(0.001 -1.51626e-08 0)
(0.001 -2.22129e-08 0)
(0.00100001 -2.99672e-08 0)
(0.00100001 -3.89764e-08 0)
(0.00100001 -4.87855e-08 0)
(0.00100002 -6.0547e-08 0)
(0.00100002 -7.29587e-08 0)
(0.00100003 -8.87226e-08 0)
(0.00100004 -1.04508e-07 0)
(0.00100005 -1.2633e-07 0)
(0.00100006 -1.46225e-07 0)
(0.00100007 -1.77727e-07 0)
(0.00100009 -2.01733e-07 0)
(0.00100011 -2.49163e-07 0)
(0.00100012 -2.74774e-07 0)
(0.00100015 -3.49647e-07 0)
(0.00100016 -3.67433e-07 0)
(0.00100021 -4.92309e-07 0)
(0.001 -3.19108e-09 0)
(0.001 -9.74216e-09 0)
(0.001 -1.65488e-08 0)
(0.001 -2.39425e-08 0)
(0.001 -3.18205e-08 0)
(0.00100001 -4.07385e-08 0)
(0.00100001 -5.02551e-08 0)
(0.00100001 -6.16008e-08 0)
(0.00100002 -7.35728e-08 0)
(0.00100002 -8.88773e-08 0)
(0.00100003 -1.04313e-07 0)
(0.00100004 -1.25901e-07 0)
(0.00100004 -1.45756e-07 0)
(0.00100005 -1.77296e-07 0)
(0.00100006 -2.01617e-07 0)
(0.00100008 -2.49225e-07 0)
(0.00100009 -2.75326e-07 0)
(0.00100011 -3.49927e-07 0)
(0.00100012 -3.67846e-07 0)
(0.00100015 -4.90951e-07 0)
(0.001 -3.36128e-09 0)
(0.001 -1.02408e-08 0)
(0.001 -1.73289e-08 0)
(0.001 -2.50079e-08 0)
(0.001 -3.31741e-08 0)
(0.001 -4.25091e-08 0)
(0.00100001 -5.25738e-08 0)
(0.00100001 -6.46805e-08 0)
(0.00100001 -7.75837e-08 0)
(0.00100001 -9.40073e-08 0)
(0.00100002 -1.10735e-07 0)
(0.00100002 -1.33807e-07 0)
(0.00100003 -1.55213e-07 0)
(0.00100003 -1.8854e-07 0)
(0.00100004 -2.14581e-07 0)
(0.00100005 -2.64166e-07 0)
(0.00100005 -2.91843e-07 0)
(0.00100007 -3.68445e-07 0)
(0.00100007 -3.87399e-07 0)
(0.00100009 -5.12604e-07 0)
(0.001 -3.43167e-09 0)
(0.001 -1.04732e-08 0)
(0.001 -1.77184e-08 0)
(0.001 -2.55803e-08 0)
(0.001 -3.39697e-08 0)
(0.001 -4.35839e-08 0)
(0.001 -5.39794e-08 0)
(0.001 -6.64548e-08 0)
(0.001 -7.97403e-08 0)
(0.001 -9.65501e-08 0)
(0.00100001 -1.13677e-07 0)
(0.00100001 -1.37125e-07 0)
(0.00100001 -1.58941e-07 0)
(0.00100001 -1.92636e-07 0)
(0.00100001 -2.19103e-07 0)
(0.00100002 -2.6897e-07 0)
(0.00100002 -2.97052e-07 0)
(0.00100002 -3.73724e-07 0)
(0.00100002 -3.9298e-07 0)
(0.00100003 -5.17596e-07 0)
(0.001 -3.42816e-09 0)
(0.001 -1.04626e-08 0)
(0.001 -1.77235e-08 0)
(0.000999999 -2.55842e-08 0)
(0.000999999 -3.39869e-08 0)
(0.000999999 -4.35924e-08 0)
(0.000999998 -5.39899e-08 0)
(0.000999997 -6.64558e-08 0)
(0.000999996 -7.97357e-08 0)
(0.000999995 -9.65565e-08 0)
(0.000999994 -1.13676e-07 0)
(0.000999993 -1.37124e-07 0)
(0.000999991 -1.58951e-07 0)
(0.000999989 -1.9264e-07 0)
(0.000999987 -2.19093e-07 0)
(0.000999984 -2.68954e-07 0)
(0.000999982 -2.97044e-07 0)
(0.000999978 -3.73728e-07 0)
(0.000999977 -3.92992e-07 0)
(0.00099997 -5.17599e-07 0)
(0.001 -3.34792e-09 0)
(0.001 -1.02283e-08 0)
(0.000999999 -1.73379e-08 0)
(0.000999998 -2.50184e-08 0)
(0.000999997 -3.32043e-08 0)
(0.000999996 -4.25254e-08 0)
(0.000999994 -5.25876e-08 0)
(0.000999992 -6.46816e-08 0)
(0.000999989 -7.75654e-08 0)
(0.000999986 -9.40121e-08 0)
(0.000999983 -1.10735e-07 0)
(0.000999978 -1.338e-07 0)
(0.000999973 -1.55224e-07 0)
(0.000999967 -1.88543e-07 0)
(0.000999961 -2.14564e-07 0)
(0.000999952 -2.64123e-07 0)
(0.000999946 -2.9181e-07 0)
(0.000999934 -3.68427e-07 0)
(0.00099993 -3.87404e-07 0)
(0.000999911 -5.12567e-07 0)
(0.001 -3.17763e-09 0)
(0.001 -9.74513e-09 0)
(0.000999999 -1.65487e-08 0)
(0.000999997 -2.39562e-08 0)
(0.000999996 -3.18238e-08 0)
(0.000999993 -4.07493e-08 0)
(0.000999991 -5.02477e-08 0)
(0.000999987 -6.16035e-08 0)
(0.000999983 -7.35499e-08 0)
(0.000999977 -8.88607e-08 0)
(0.000999971 -1.04319e-07 0)
(0.000999964 -1.25904e-07 0)
(0.000999956 -1.45761e-07 0)
(0.000999945 -1.77309e-07 0)
(0.000999936 -2.01628e-07 0)
(0.000999921 -2.49211e-07 0)
(0.000999911 -2.75315e-07 0)
(0.000999889 -3.49935e-07 0)
(0.000999882 -3.67881e-07 0)
(0.000999852 -4.90957e-07 0)
(0.001 -2.89116e-09 0)
(0.000999999 -8.86893e-09 0)
(0.000999998 -1.51555e-08 0)
(0.000999996 -2.22132e-08 0)
(0.000999994 -2.99354e-08 0)
(0.000999991 -3.89794e-08 0)
(0.000999987 -4.87651e-08 0)
(0.000999982 -6.05465e-08 0)
(0.000999977 -7.29584e-08 0)
(0.000999969 -8.86811e-08 0)
(0.000999962 -1.04484e-07 0)
(0.000999951 -1.26312e-07 0)
(0.000999941 -1.46203e-07 0)
(0.000999925 -1.77701e-07 0)
(0.000999913 -2.01718e-07 0)
(0.000999891 -2.49115e-07 0)
(0.000999878 -2.74723e-07 0)
(0.000999847 -3.49561e-07 0)
(0.000999839 -3.67361e-07 0)
(0.000999792 -4.9217e-07 0)
(0.001 -2.56505e-09 0)
(0.000999999 -7.52523e-09 0)
(0.000999997 -1.22098e-08 0)
(0.000999995 -1.69639e-08 0)
(0.000999991 -2.1764e-08 0)
(0.000999987 -2.73519e-08 0)
(0.000999982 -3.33107e-08 0)
(0.000999975 -4.09497e-08 0)
(0.000999968 -4.90406e-08 0)
(0.000999959 -6.01953e-08 0)
(0.000999949 -7.12683e-08 0)
(0.000999935 -8.81761e-08 0)
(0.000999922 -1.0308e-07 0)
(0.000999903 -1.29341e-07 0)
(0.000999886 -1.48263e-07 0)
(0.000999859 -1.90263e-07 0)
(0.000999841 -2.11089e-07 0)
(0.000999802 -2.80611e-07 0)
(0.000999787 -2.94742e-07 0)
(0.000999731 -4.15078e-07 0)
(0.001 -2.90325e-09 0)
(0.001 -9.21189e-09 0)
(0.000999999 -1.62854e-08 0)
(0.000999997 -2.43394e-08 0)
(0.000999994 -3.30694e-08 0)
(0.00099999 -4.27613e-08 0)
(0.000999984 -5.2923e-08 0)
(0.000999977 -6.45667e-08 0)
(0.000999969 -7.65188e-08 0)
(0.000999958 -9.12698e-08 0)
(0.000999946 -1.0559e-07 0)
(0.00099993 -1.25327e-07 0)
(0.000999915 -1.42636e-07 0)
(0.000999891 -1.70809e-07 0)
(0.000999872 -1.91138e-07 0)
(0.000999837 -2.34254e-07 0)
(0.000999817 -2.55801e-07 0)
(0.000999764 -3.2653e-07 0)
(0.000999752 -3.41597e-07 0)
(0.00099967 -4.64316e-07 0)
(0.001 -1.51981e-10 0)
(0.000999998 -1.89271e-11 0)
(0.000999995 6.18504e-10 0)
(0.000999991 1.30782e-09 0)
(0.000999986 1.93831e-09 0)
(0.00099998 1.904e-09 0)
(0.000999973 1.41799e-09 0)
(0.000999965 -4.04523e-10 0)
(0.000999955 -2.44394e-09 0)
(0.000999943 -7.1259e-09 0)
(0.00099993 -1.12283e-08 0)
(0.000999912 -2.04325e-08 0)
(0.000999894 -2.71003e-08 0)
(0.000999867 -4.41842e-08 0)
(0.000999845 -5.34835e-08 0)
(0.000999805 -8.49432e-08 0)
(0.000999779 -9.55301e-08 0)
(0.00099972 -1.54708e-07 0)
(0.000999698 -1.61065e-07 0)
(0.000999611 -2.75866e-07 0)
(0.001 -3.9568e-09 0)
(0.001 -1.30163e-08 0)
(0.001 -2.30618e-08 0)
(0.000999998 -3.36958e-08 0)
(0.000999995 -4.42414e-08 0)
(0.000999989 -5.50222e-08 0)
(0.000999983 -6.57796e-08 0)
(0.000999974 -7.74301e-08 0)
(0.000999963 -8.88883e-08 0)
(0.000999949 -1.02546e-07 0)
(0.000999936 -1.15268e-07 0)
(0.000999914 -1.32384e-07 0)
(0.000999896 -1.46463e-07 0)
(0.000999864 -1.69962e-07 0)
(0.000999841 -1.851e-07 0)
(0.000999791 -2.21109e-07 0)
(0.000999767 -2.3574e-07 0)
(0.000999687 -2.97611e-07 0)
(0.000999671 -3.06317e-07 0)
(0.000999539 -4.22145e-07 0)
(0.001 4.01135e-09 0)
(0.000999996 1.20929e-08 0)
(0.000999991 2.02158e-08 0)
(0.000999987 2.7942e-08 0)
(0.000999982 3.52216e-08 0)
(0.000999976 4.15735e-08 0)
(0.000999968 4.79155e-08 0)
(0.000999959 5.30378e-08 0)
(0.000999948 5.84112e-08 0)
(0.000999934 6.23252e-08 0)
(0.000999919 6.69562e-08 0)
(0.000999897 6.85793e-08 0)
(0.000999878 7.26955e-08 0)
(0.000999845 6.99049e-08 0)
(0.000999819 7.40523e-08 0)
(0.000999767 6.17296e-08 0)
(0.000999738 6.71862e-08 0)
(0.000999654 3.18254e-08 0)
(0.000999629 3.98819e-08 0)
(0.000999495 -5.44813e-08 0)
(0.001 -8.71188e-09 0)
(0.001 -2.37678e-08 0)
(0.001 -3.60308e-08 0)
(0.000999997 -4.67503e-08 0)
(0.000999993 -5.69032e-08 0)
(0.000999986 -6.75658e-08 0)
(0.000999979 -7.78931e-08 0)
(0.000999968 -8.92591e-08 0)
(0.000999958 -1.00023e-07 0)
(0.000999942 -1.11956e-07 0)
(0.000999928 -1.22686e-07 0)
(0.000999903 -1.36178e-07 0)
(0.000999886 -1.46535e-07 0)
(0.000999846 -1.63359e-07 0)
(0.000999826 -1.72208e-07 0)
(0.00099976 -1.96361e-07 0)
(0.000999742 -2.00896e-07 0)
(0.000999623 -2.43148e-07 0)
(0.000999618 -2.39303e-07 0)
(0.000999394 -3.31996e-07 0)
)
;

boundaryField
{
    sides
    {
        type            slip;
    }
    inlet
    {
        type            fixedValue;
        value           uniform (0.001 0 0);
    }
    outlet
    {
        type            zeroGradient;
    }
    frontAndBack
    {
        type            empty;
    }
}


// ************************************************************************* //
