/*--------------------------------*- C++ -*----------------------------------*\
  =========                 |
  \\      /  F ield         | OpenFOAM: The Open Source CFD Toolbox
   \\    /   O peration     | Website:  https://openfoam.org
    \\  /    A nd           | Version:  7
     \\/     M anipulation  |
\*---------------------------------------------------------------------------*/
FoamFile
{
    version     2.0;
    format      ascii;
    class       volVectorField;
    location    "81";
    object      U;
}
// * * * * * * * * * * * * * * * * * * * * * * * * * * * * * * * * * * * * * //

dimensions      [0 1 -1 0 0 0 0];

internalField   nonuniform List<vector> 
400
(
(0.0999931 -8.7394e-07 0)
(0.099993 -2.37529e-06 0)
(0.0999931 -3.59998e-06 0)
(0.0999934 -4.67435e-06 0)
(0.0999939 -5.69226e-06 0)
(0.0999947 -6.73708e-06 0)
(0.0999955 -7.81305e-06 0)
(0.0999966 -8.93998e-06 0)
(0.0999978 -9.99988e-06 0)
(0.0999996 -1.1196e-05 0)
(0.100001 -1.22654e-05 0)
(0.100004 -1.36128e-05 0)
(0.100006 -1.46477e-05 0)
(0.10001 -1.63302e-05 0)
(0.100013 -1.72144e-05 0)
(0.10002 -1.96298e-05 0)
(0.100022 -2.00821e-05 0)
(0.100035 -2.4306e-05 0)
(0.100036 -2.3921e-05 0)
(0.10006 -3.31861e-05 0)
(0.0999943 3.95843e-07 0)
(0.0999947 1.21114e-06 0)
(0.0999952 2.02441e-06 0)
(0.0999957 2.7966e-06 0)
(0.0999963 3.51748e-06 0)
(0.099997 4.17281e-06 0)
(0.0999978 4.76685e-06 0)
(0.0999988 5.29602e-06 0)
(0.1 5.83749e-06 0)
(0.100002 6.22446e-06 0)
(0.100003 6.69307e-06 0)
(0.100006 6.85723e-06 0)
(0.100008 7.26945e-06 0)
(0.100012 6.98844e-06 0)
(0.100014 7.40344e-06 0)
(0.10002 6.16829e-06 0)
(0.100024 6.71657e-06 0)
(0.100033 3.17696e-06 0)
(0.100036 3.98496e-06 0)
(0.10005 -5.45969e-06 0)
(0.0999948 -3.97427e-07 0)
(0.0999947 -1.30156e-06 0)
(0.0999947 -2.30599e-06 0)
(0.0999949 -3.36606e-06 0)
(0.0999953 -4.42384e-06 0)
(0.0999959 -5.50612e-06 0)
(0.0999967 -6.57186e-06 0)
(0.0999977 -7.73137e-06 0)
(0.0999988 -8.89111e-06 0)
(0.1 -1.02553e-05 0)
(0.100002 -1.15244e-05 0)
(0.100004 -1.32364e-05 0)
(0.100006 -1.46439e-05 0)
(0.10001 -1.69959e-05 0)
(0.100013 -1.85084e-05 0)
(0.100018 -2.21119e-05 0)
(0.100021 -2.3571e-05 0)
(0.100029 -2.97626e-05 0)
(0.100032 -3.06297e-05 0)
(0.100046 -4.22216e-05 0)
(0.0999956 -1.35339e-08 0)
(0.0999958 -2.73211e-09 0)
(0.0999962 6.16556e-08 0)
(0.0999966 1.30752e-07 0)
(0.0999972 1.97445e-07 0)
(0.0999978 1.85692e-07 0)
(0.0999985 1.49328e-07 0)
(0.0999995 -3.98284e-08 0)
(0.100001 -2.44872e-07 0)
(0.100002 -7.07836e-07 0)
(0.100003 -1.11917e-06 0)
(0.100005 -2.04225e-06 0)
(0.100007 -2.70945e-06 0)
(0.10001 -4.4193e-06 0)
(0.100013 -5.34865e-06 0)
(0.100017 -8.49523e-06 0)
(0.10002 -9.55268e-06 0)
(0.100027 -1.54743e-05 0)
(0.100029 -1.61102e-05 0)
(0.100039 -2.75933e-05 0)
(0.0999962 -2.88296e-07 0)
(0.0999963 -9.21695e-07 0)
(0.0999964 -1.62912e-06 0)
(0.0999966 -2.43667e-06 0)
(0.0999969 -3.30493e-06 0)
(0.0999974 -4.27976e-06 0)
(0.099998 -5.28822e-06 0)
(0.0999988 -6.45928e-06 0)
(0.0999997 -7.64985e-06 0)
(0.100001 -9.12326e-06 0)
(0.100002 -1.05589e-05 0)
(0.100004 -1.2535e-05 0)
(0.100006 -1.42653e-05 0)
(0.100008 -1.70843e-05 0)
(0.100011 -1.91155e-05 0)
(0.100014 -2.34288e-05 0)
(0.100017 -2.55822e-05 0)
(0.100022 -3.26633e-05 0)
(0.100024 -3.41695e-05 0)
(0.100033 -4.64492e-05 0)
(0.0999969 -2.54491e-07 0)
(0.099997 -7.52071e-07 0)
(0.0999972 -1.22133e-06 0)
(0.0999975 -1.69831e-06 0)
(0.0999979 -2.17788e-06 0)
(0.0999984 -2.73495e-06 0)
(0.099999 -3.32987e-06 0)
(0.0999997 -4.09474e-06 0)
(0.1 -4.89899e-06 0)
(0.100002 -6.01818e-06 0)
(0.100003 -7.12768e-06 0)
(0.100004 -8.81774e-06 0)
(0.100006 -1.03075e-05 0)
(0.100008 -1.29336e-05 0)
(0.10001 -1.48244e-05 0)
(0.100013 -1.90245e-05 0)
(0.100015 -2.11072e-05 0)
(0.100019 -2.80629e-05 0)
(0.100021 -2.94764e-05 0)
(0.100027 -4.15108e-05 0)
(0.0999976 -2.88662e-07 0)
(0.0999977 -8.86048e-07 0)
(0.0999978 -1.51622e-06 0)
(0.099998 -2.22124e-06 0)
(0.0999983 -2.99665e-06 0)
(0.0999986 -3.89755e-06 0)
(0.0999991 -4.87844e-06 0)
(0.0999996 -6.05457e-06 0)
(0.1 -7.29572e-06 0)
(0.100001 -8.87208e-06 0)
(0.100002 -1.04506e-05 0)
(0.100003 -1.26328e-05 0)
(0.100004 -1.46223e-05 0)
(0.100006 -1.77725e-05 0)
(0.100007 -2.01731e-05 0)
(0.10001 -2.4916e-05 0)
(0.100011 -2.74771e-05 0)
(0.100015 -3.49645e-05 0)
(0.100016 -3.67432e-05 0)
(0.100021 -4.92308e-05 0)
(0.0999983 -3.19102e-07 0)
(0.0999984 -9.74199e-07 0)
(0.0999984 -1.65485e-06 0)
(0.0999986 -2.39421e-06 0)
(0.0999988 -3.182e-06 0)
(0.099999 -4.07379e-06 0)
(0.0999994 -5.02543e-06 0)
(0.0999998 -6.15998e-06 0)
(0.1 -7.35717e-06 0)
(0.100001 -8.8876e-06 0)
(0.100002 -1.04312e-05 0)
(0.100002 -1.259e-05 0)
(0.100003 -1.45754e-05 0)
(0.100004 -1.77294e-05 0)
(0.100005 -2.01615e-05 0)
(0.100007 -2.49223e-05 0)
(0.100008 -2.75324e-05 0)
(0.100011 -3.49926e-05 0)
(0.100012 -3.67845e-05 0)
(0.100015 -4.9095e-05 0)
(0.099999 -3.36125e-07 0)
(0.099999 -1.02407e-06 0)
(0.0999991 -1.73287e-06 0)
(0.0999992 -2.50077e-06 0)
(0.0999993 -3.31738e-06 0)
(0.0999994 -4.25087e-06 0)
(0.0999996 -5.25733e-06 0)
(0.0999999 -6.46799e-06 0)
(0.1 -7.75831e-06 0)
(0.100001 -9.40065e-06 0)
(0.100001 -1.10734e-05 0)
(0.100001 -1.33806e-05 0)
(0.100002 -1.55212e-05 0)
(0.100003 -1.88538e-05 0)
(0.100003 -2.1458e-05 0)
(0.100004 -2.64165e-05 0)
(0.100005 -2.91842e-05 0)
(0.100006 -3.68444e-05 0)
(0.100007 -3.87398e-05 0)
(0.100009 -5.12604e-05 0)
(0.0999997 -3.43165e-07 0)
(0.0999997 -1.04732e-06 0)
(0.0999997 -1.77183e-06 0)
(0.0999997 -2.55802e-06 0)
(0.0999998 -3.39696e-06 0)
(0.0999998 -4.35837e-06 0)
(0.0999999 -5.39792e-06 0)
(0.1 -6.64546e-06 0)
(0.1 -7.974e-06 0)
(0.1 -9.65498e-06 0)
(0.1 -1.13677e-05 0)
(0.1 -1.37124e-05 0)
(0.100001 -1.5894e-05 0)
(0.100001 -1.92635e-05 0)
(0.100001 -2.19102e-05 0)
(0.100001 -2.68969e-05 0)
(0.100002 -2.97052e-05 0)
(0.100002 -3.73723e-05 0)
(0.100002 -3.9298e-05 0)
(0.100003 -5.17596e-05 0)
(0.1 -3.42817e-07 0)
(0.1 -1.04627e-06 0)
(0.1 -1.77236e-06 0)
(0.1 -2.55843e-06 0)
(0.1 -3.3987e-06 0)
(0.1 -4.35925e-06 0)
(0.1 -5.39901e-06 0)
(0.1 -6.6456e-06 0)
(0.0999999 -7.97359e-06 0)
(0.0999998 -9.65567e-06 0)
(0.0999997 -1.13676e-05 0)
(0.0999995 -1.37124e-05 0)
(0.0999993 -1.58952e-05 0)
(0.0999991 -1.9264e-05 0)
(0.0999989 -2.19093e-05 0)
(0.0999986 -2.68955e-05 0)
(0.0999983 -2.97044e-05 0)
(0.0999979 -3.73728e-05 0)
(0.0999977 -3.92992e-05 0)
(0.0999971 -5.176e-05 0)
(0.100001 -3.34795e-07 0)
(0.100001 -1.02284e-06 0)
(0.100001 -1.7338e-06 0)
(0.100001 -2.50186e-06 0)
(0.100001 -3.32047e-06 0)
(0.100001 -4.25258e-06 0)
(0.1 -5.25881e-06 0)
(0.1 -6.46822e-06 0)
(0.0999998 -7.7566e-06 0)
(0.0999995 -9.40129e-06 0)
(0.0999991 -1.10736e-05 0)
(0.0999985 -1.33801e-05 0)
(0.099998 -1.55225e-05 0)
(0.0999973 -1.88544e-05 0)
(0.0999967 -2.14565e-05 0)
(0.0999957 -2.64124e-05 0)
(0.099995 -2.91811e-05 0)
(0.0999936 -3.68428e-05 0)
(0.0999932 -3.87405e-05 0)
(0.0999912 -5.12567e-05 0)
(0.100002 -3.17768e-07 0)
(0.100002 -9.7453e-07 0)
(0.100002 -1.65489e-06 0)
(0.100001 -2.39566e-06 0)
(0.100001 -3.18243e-06 0)
(0.100001 -4.07499e-06 0)
(0.100001 -5.02485e-06 0)
(0.1 -6.16044e-06 0)
(0.0999997 -7.3551e-06 0)
(0.0999991 -8.88619e-06 0)
(0.0999985 -1.04321e-05 0)
(0.0999976 -1.25905e-05 0)
(0.0999968 -1.45763e-05 0)
(0.0999956 -1.77311e-05 0)
(0.0999945 -2.0163e-05 0)
(0.0999929 -2.49213e-05 0)
(0.0999917 -2.75317e-05 0)
(0.0999894 -3.49937e-05 0)
(0.0999885 -3.67882e-05 0)
(0.0999853 -4.90958e-05 0)
(0.100002 -2.89123e-07 0)
(0.100002 -8.86914e-07 0)
(0.100002 -1.51559e-06 0)
(0.100002 -2.22137e-06 0)
(0.100002 -2.99361e-06 0)
(0.100001 -3.89803e-06 0)
(0.100001 -4.87662e-06 0)
(0.1 -6.05478e-06 0)
(0.0999998 -7.29599e-06 0)
(0.099999 -8.86828e-06 0)
(0.0999981 -1.04486e-05 0)
(0.0999969 -1.26315e-05 0)
(0.0999957 -1.46205e-05 0)
(0.0999941 -1.77704e-05 0)
(0.0999926 -2.01721e-05 0)
(0.0999903 -2.49117e-05 0)
(0.0999887 -2.74726e-05 0)
(0.0999853 -3.49564e-05 0)
(0.0999843 -3.67362e-05 0)
(0.0999793 -4.92171e-05 0)
(0.100003 -2.56513e-07 0)
(0.100003 -7.52545e-07 0)
(0.100003 -1.22102e-06 0)
(0.100002 -1.69644e-06 0)
(0.100002 -2.17646e-06 0)
(0.100002 -2.73527e-06 0)
(0.100001 -3.33117e-06 0)
(0.1 -4.09508e-06 0)
(0.0999995 -4.90419e-06 0)
(0.0999985 -6.01969e-06 0)
(0.0999973 -7.127e-06 0)
(0.0999959 -8.81781e-06 0)
(0.0999944 -1.03082e-05 0)
(0.0999923 -1.29344e-05 0)
(0.0999904 -1.48266e-05 0)
(0.0999874 -1.90265e-05 0)
(0.0999853 -2.11092e-05 0)
(0.0999811 -2.80613e-05 0)
(0.0999793 -2.94743e-05 0)
(0.0999733 -4.15079e-05 0)
(0.100004 -2.90336e-07 0)
(0.100004 -9.21223e-07 0)
(0.100004 -1.62861e-06 0)
(0.100003 -2.43403e-06 0)
(0.100003 -3.30706e-06 0)
(0.100003 -4.27628e-06 0)
(0.100002 -5.29248e-06 0)
(0.100001 -6.45689e-06 0)
(0.1 -7.65214e-06 0)
(0.0999991 -9.12728e-06 0)
(0.0999978 -1.05593e-05 0)
(0.099996 -1.25331e-05 0)
(0.0999942 -1.4264e-05 0)
(0.0999916 -1.70813e-05 0)
(0.0999895 -1.91142e-05 0)
(0.0999856 -2.34258e-05 0)
(0.0999833 -2.55805e-05 0)
(0.0999776 -3.26534e-05 0)
(0.099976 -3.416e-05 0)
(0.0999673 -4.64317e-05 0)
(0.100004 -1.51988e-08 0)
(0.100004 -1.89279e-09 0)
(0.100004 6.18531e-08 0)
(0.100003 1.30788e-07 0)
(0.100003 1.93839e-07 0)
(0.100002 1.90408e-07 0)
(0.100001 1.41804e-07 0)
(0.100001 -4.0454e-08 0)
(0.0999994 -2.44404e-07 0)
(0.0999981 -7.12617e-07 0)
(0.0999966 -1.12287e-06 0)
(0.0999946 -2.04332e-06 0)
(0.0999926 -2.71012e-06 0)
(0.0999897 -4.41855e-06 0)
(0.0999871 -5.34849e-06 0)
(0.0999828 -8.49451e-06 0)
(0.0999798 -9.55318e-06 0)
(0.0999734 -1.5471e-05 0)
(0.0999707 -1.61067e-05 0)
(0.0999614 -2.75867e-05 0)
(0.100005 -3.957e-07 0)
(0.100005 -1.3017e-06 0)
(0.100005 -2.3063e-06 0)
(0.100005 -3.36976e-06 0)
(0.100005 -4.42437e-06 0)
(0.100004 -5.5025e-06 0)
(0.100003 -6.57829e-06 0)
(0.100002 -7.74339e-06 0)
(0.100001 -8.88925e-06 0)
(0.0999996 -1.0255e-05 0)
(0.099998 -1.15273e-05 0)
(0.0999957 -1.32389e-05 0)
(0.0999936 -1.46469e-05 0)
(0.0999901 -1.69968e-05 0)
(0.0999875 -1.85106e-05 0)
(0.0999821 -2.21116e-05 0)
(0.0999791 -2.35746e-05 0)
(0.0999706 -2.97617e-05 0)
(0.0999684 -3.06321e-05 0)
(0.0999544 -4.22147e-05 0)
(0.100006 4.01158e-07 0)
(0.100005 1.20936e-06 0)
(0.100005 2.02169e-06 0)
(0.100004 2.79435e-06 0)
(0.100004 3.52235e-06 0)
(0.100003 4.15757e-06 0)
(0.100002 4.7918e-06 0)
(0.100001 5.30406e-06 0)
(0.1 5.84142e-06 0)
(0.0999984 6.23283e-06 0)
(0.0999967 6.69594e-06 0)
(0.0999943 6.85824e-06 0)
(0.0999921 7.26986e-06 0)
(0.0999885 6.99077e-06 0)
(0.0999855 7.4055e-06 0)
(0.0999799 6.17316e-06 0)
(0.0999764 6.7188e-06 0)
(0.0999674 3.1826e-06 0)
(0.0999642 3.98824e-06 0)
(0.09995 -5.44815e-06 0)
(0.100007 -8.71248e-07 0)
(0.100007 -2.37695e-06 0)
(0.100007 -3.60333e-06 0)
(0.100007 -4.67535e-06 0)
(0.100006 -5.6907e-06 0)
(0.100005 -6.75704e-06 0)
(0.100005 -7.78983e-06 0)
(0.100003 -8.92649e-06 0)
(0.100002 -1.0003e-05 0)
(0.1 -1.11963e-05 0)
(0.0999988 -1.22694e-05 0)
(0.0999961 -1.36186e-05 0)
(0.0999941 -1.46544e-05 0)
(0.0999898 -1.63368e-05 0)
(0.0999874 -1.72216e-05 0)
(0.0999803 -1.9637e-05 0)
(0.0999779 -2.00903e-05 0)
(0.0999653 -2.43155e-05 0)
(0.0999638 -2.39308e-05 0)
(0.0999402 -3.31999e-05 0)
)
;

boundaryField
{
    sides
    {
        type            calculated;
        value           nonuniform List<vector> 
40
(
(0.100007 0 0)
(0.100007 0 0)
(0.100007 0 0)
(0.100007 0 0)
(0.100006 0 0)
(0.100005 0 0)
(0.100005 0 0)
(0.100003 0 0)
(0.100002 0 0)
(0.1 0 0)
(0.0999988 0 0)
(0.0999961 0 0)
(0.0999941 0 0)
(0.0999898 0 0)
(0.0999874 0 0)
(0.0999803 0 0)
(0.0999779 0 0)
(0.0999653 0 0)
(0.0999638 0 0)
(0.0999402 0 0)
(0.0999931 0 0)
(0.099993 0 0)
(0.0999931 0 0)
(0.0999934 0 0)
(0.0999939 0 0)
(0.0999947 0 0)
(0.0999955 0 0)
(0.0999966 0 0)
(0.0999978 0 0)
(0.0999996 0 0)
(0.100001 0 0)
(0.100004 0 0)
(0.100006 0 0)
(0.10001 0 0)
(0.100013 0 0)
(0.10002 0 0)
(0.100022 0 0)
(0.100035 0 0)
(0.100036 0 0)
(0.10006 0 0)
)
;
    }
    inlet
    {
        type            calculated;
        value           nonuniform List<vector> 
20
(
(0.0999931 0 0)
(0.0999943 0 0)
(0.0999948 0 0)
(0.0999956 0 0)
(0.0999962 0 0)
(0.0999969 0 0)
(0.0999976 0 0)
(0.0999983 0 0)
(0.099999 0 0)
(0.0999997 0 0)
(0.1 0 0)
(0.100001 0 0)
(0.100002 0 0)
(0.100002 0 0)
(0.100003 0 0)
(0.100004 0 0)
(0.100004 0 0)
(0.100005 0 0)
(0.100006 0 0)
(0.100007 0 0)
)
;
    }
    outlet
    {
        type            calculated;
        value           nonuniform List<vector> 
20
(
(0.100061 -3.31864e-05 0)
(0.10005 -5.45971e-06 0)
(0.100046 -4.22218e-05 0)
(0.100039 -2.75934e-05 0)
(0.100033 -4.64493e-05 0)
(0.100027 -4.15109e-05 0)
(0.100021 -4.92309e-05 0)
(0.100015 -4.90951e-05 0)
(0.100009 -5.12604e-05 0)
(0.100003 -5.17596e-05 0)
(0.099997 -5.17599e-05 0)
(0.0999911 -5.12567e-05 0)
(0.0999852 -4.90957e-05 0)
(0.0999792 -4.9217e-05 0)
(0.0999731 -4.15078e-05 0)
(0.099967 -4.64316e-05 0)
(0.0999611 -2.75866e-05 0)
(0.0999539 -4.22145e-05 0)
(0.0999495 -5.44813e-06 0)
(0.0999394 -3.31996e-05 0)
)
;
    }
    frontAndBack
    {
        type            empty;
    }
}


// ************************************************************************* //
