/*--------------------------------*- C++ -*----------------------------------*\
  =========                 |
  \\      /  F ield         | OpenFOAM: The Open Source CFD Toolbox
   \\    /   O peration     | Website:  https://openfoam.org
    \\  /    A nd           | Version:  7
     \\/     M anipulation  |
\*---------------------------------------------------------------------------*/
FoamFile
{
    version     2.0;
    format      ascii;
    class       volScalarField;
    location    "70";
    object      ddt0(h);
}
// * * * * * * * * * * * * * * * * * * * * * * * * * * * * * * * * * * * * * //

dimensions      [0 1 -1 0 0 0 0];

internalField   nonuniform List<scalar> 
400
(
-7.61398e-10
1.2724e-09
-6.68228e-10
-3.29725e-09
2.31843e-09
6.93851e-09
-5.22737e-09
3.35644e-08
-1.31698e-09
-9.47248e-10
-4.79868e-10
6.14771e-10
3.64129e-10
-6.37104e-10
-1.07966e-09
-7.38556e-10
-2.11343e-10
7.42974e-11
6.64731e-11
-9.74384e-12
-4.99697e-10
-3.72143e-10
-5.62284e-11
6.15022e-10
-2.21608e-09
-1.06874e-08
8.08074e-09
-4.2171e-08
1.10353e-09
-7.14223e-10
-7.9162e-10
-4.61397e-10
-5.06163e-10
-6.65298e-10
-5.51854e-10
-1.7854e-10
7.08942e-11
1.27513e-11
-1.05322e-10
-6.23946e-11
-4.94162e-10
-1.36367e-09
-2.68639e-11
1.56616e-09
-3.09888e-09
3.58289e-09
-8.37843e-09
5.16208e-09
1.22475e-10
-1.05048e-09
-1.03587e-10
-8.84882e-10
-1.35795e-09
-9.36866e-10
-2.21885e-10
2.98464e-10
3.08798e-10
-7.67882e-11
-2.87385e-10
-1.33978e-10
1.0811e-10
-7.39558e-10
-6.47946e-10
1.87815e-10
-6.65017e-10
-6.60632e-10
5.47419e-10
3.19667e-09
-2.74092e-09
-3.84647e-10
-6.31649e-11
-1.09346e-09
-1.21388e-09
-5.32291e-10
1.13027e-10
3.03498e-10
8.81675e-11
-2.31068e-10
-3.44077e-10
-1.64347e-10
6.77456e-10
-5.39069e-10
-6.87636e-10
-1.27055e-09
9.99089e-10
-2.39654e-09
1.9636e-09
-1.7659e-09
-1.35997e-09
4.01056e-10
-7.78222e-10
-1.22075e-09
-5.85115e-10
9.33371e-11
2.91235e-10
-7.1813e-11
-4.42323e-10
-4.20473e-10
-2.42754e-10
-9.0846e-11
4.0342e-10
-2.54608e-10
-1.71527e-10
-1.39124e-09
2.22033e-10
-1.04277e-09
3.53831e-10
-1.94581e-09
6.40547e-11
-4.75726e-11
-1.39357e-09
-7.51316e-10
1.09684e-10
2.84307e-10
-2.92412e-11
-5.9953e-10
-8.56073e-10
-5.01018e-10
-4.608e-12
9.26738e-11
-1.12381e-11
3.70339e-11
-7.8971e-11
-8.40349e-11
-1.06377e-09
-6.37085e-11
-8.80456e-10
-1.01331e-09
9.25174e-11
-1.19085e-09
-8.31267e-10
1.36798e-10
3.24022e-10
6.51772e-11
-4.87425e-10
-9.21349e-10
-8.43604e-10
-3.27832e-10
1.56612e-10
1.64169e-10
-4.09199e-10
3.17178e-10
-4.61208e-10
5.70212e-10
-6.95049e-10
2.69452e-10
-1.1788e-09
-3.70225e-11
-5.35348e-10
-8.34135e-10
4.48152e-10
8.23231e-11
-2.9053e-10
-8.04658e-11
-4.4933e-10
-7.92915e-10
-4.38604e-10
1.02862e-10
2.60216e-10
1.10141e-10
-4.24697e-10
3.26593e-11
-2.37374e-10
1.04457e-10
6.29392e-11
2.0746e-10
-3.39267e-10
2.72627e-10
-3.83514e-10
-5.02483e-11
2.40912e-10
-4.72638e-10
-4.17164e-10
7.38456e-11
-2.40518e-11
-2.13248e-10
3.81671e-11
3.32985e-10
2.8598e-10
8.34444e-11
2.66342e-11
-4.1874e-10
3.72158e-11
-2.979e-10
3.10638e-10
-1.5827e-10
3.88418e-10
-1.11264e-11
1.44402e-10
8.60215e-11
-5.9217e-10
-1.48903e-10
-3.58133e-11
-3.71627e-10
1.00988e-10
7.0694e-10
6.18258e-10
2.08959e-10
-3.09744e-12
-1.63057e-11
2.78219e-10
-3.68274e-10
2.36745e-10
-4.18741e-10
2.7332e-10
-4.00953e-10
5.11348e-10
-1.16016e-10
3.34492e-10
2.05223e-10
-7.14163e-10
6.31886e-11
8.00507e-11
-6.27773e-10
-5.86635e-12
9.07113e-10
7.42561e-10
5.39197e-11
-2.53293e-10
-1.28094e-10
7.71049e-11
2.1112e-10
2.38403e-10
-1.79674e-10
1.73273e-10
-1.49905e-10
1.00858e-10
3.22113e-10
5.36632e-11
5.23156e-10
2.23698e-10
-1.19859e-10
-8.53237e-11
-1.55481e-10
-1.36345e-10
1.04089e-10
2.49898e-10
5.83412e-11
-1.96303e-10
-1.40622e-10
-1.1341e-10
7.11072e-10
-1.39886e-10
6.10925e-10
-1.66637e-10
5.39507e-10
-5.04326e-10
8.05589e-10
-6.86441e-11
2.35923e-10
1.30984e-09
5.18897e-10
5.47277e-11
1.23443e-10
-2.91671e-10
-4.77052e-10
-1.18007e-10
6.93301e-11
-9.23841e-11
-1.06106e-10
-6.31673e-12
3.85022e-10
8.33568e-12
9.4322e-10
-5.37649e-10
1.11129e-09
-4.14584e-10
5.34009e-10
6.84025e-10
-4.64972e-10
7.115e-10
1.23561e-09
9.6718e-10
5.79075e-10
-1.0711e-10
-5.0101e-10
-3.49693e-10
-2.94434e-11
1.62557e-10
1.08098e-10
1.5049e-10
-1.96571e-11
3.77547e-10
2.75925e-11
7.19921e-10
8.9848e-10
8.98063e-10
-5.40669e-10
1.50273e-09
3.56187e-10
-3.25107e-10
6.39635e-10
1.23614e-09
1.13997e-09
5.99723e-10
-7.08937e-11
-3.62268e-10
-5.70897e-11
3.76092e-10
2.68297e-10
3.67392e-10
-2.98052e-10
2.33951e-10
-2.97335e-10
2.20927e-09
-9.43514e-10
2.40317e-09
-9.9837e-10
4.81263e-10
1.2295e-09
-2.14614e-10
-2.08421e-10
5.53388e-10
1.11144e-09
1.12205e-09
4.80394e-10
-8.25889e-11
4.73228e-12
2.85411e-10
1.84642e-10
4.45515e-10
-2.5829e-10
3.35156e-10
6.48037e-10
1.31136e-09
-1.33507e-09
4.32832e-09
2.13046e-10
-8.76088e-10
1.3992e-09
5.85212e-10
-4.34067e-10
-3.2693e-10
4.49634e-10
9.98553e-10
8.1341e-10
2.99637e-10
2.82443e-11
2.20267e-12
9.23782e-12
3.33349e-10
-5.70322e-10
8.07401e-10
2.23848e-09
-9.02708e-10
1.62832e-09
-1.29324e-09
8.57868e-09
-7.41955e-10
1.12789e-09
1.1142e-09
-2.86241e-10
-7.29603e-10
-1.6197e-10
5.30805e-10
7.90514e-10
5.54043e-10
1.09167e-10
-1.30631e-10
-6.97938e-11
2.01949e-10
3.56513e-10
3.94555e-10
1.92583e-09
-1.04651e-09
2.73973e-09
-6.40734e-09
1.53529e-08
2.80698e-09
1.25397e-10
5.05476e-10
5.4145e-10
2.87728e-10
5.5174e-11
9.18368e-11
3.51832e-10
4.55095e-10
2.16992e-10
-6.35771e-11
-7.238e-11
-3.52029e-10
1.87753e-09
5.0561e-10
-2.20151e-09
1.79164e-09
-7.71081e-11
5.04798e-09
-1.94031e-08
6.32589e-10
-6.38689e-12
1.14631e-09
2.24614e-09
1.56701e-09
1.8794e-10
-4.69994e-10
-1.97782e-10
2.73112e-10
3.66463e-10
1.24898e-10
-2.70332e-11
)
;

boundaryField
{
    sides
    {
        type            calculated;
        value           nonuniform List<scalar> 
40
(
-3.52029e-10
1.87753e-09
5.0561e-10
-2.20151e-09
1.79164e-09
-7.71081e-11
5.04798e-09
-1.94031e-08
6.32589e-10
-6.38689e-12
1.14631e-09
2.24614e-09
1.56701e-09
1.8794e-10
-4.69994e-10
-1.97782e-10
2.73112e-10
3.66463e-10
1.24898e-10
-2.70332e-11
-7.61398e-10
1.2724e-09
-6.68228e-10
-3.29725e-09
2.31843e-09
6.93851e-09
-5.22737e-09
3.35644e-08
-1.31698e-09
-9.47248e-10
-4.79868e-10
6.14771e-10
3.64129e-10
-6.37104e-10
-1.07966e-09
-7.38556e-10
-2.11343e-10
7.42974e-11
6.64731e-11
-9.74384e-12
)
;
    }
    inlet
    {
        type            calculated;
        value           nonuniform List<scalar> 
20
(
-7.61398e-10
-4.99697e-10
-4.94162e-10
1.0811e-10
6.77456e-10
4.0342e-10
-1.12381e-11
-4.09199e-10
-4.24697e-10
2.66342e-11
2.78219e-10
7.71049e-11
-1.1341e-10
-6.31673e-12
1.5049e-10
3.67392e-10
4.45515e-10
3.33349e-10
2.01949e-10
-3.52029e-10
)
;
    }
    outlet
    {
        type            calculated;
        value           uniform 0;
    }
    frontAndBack
    {
        type            empty;
    }
}


// ************************************************************************* //
