/*--------------------------------*- C++ -*----------------------------------*\
  =========                 |
  \\      /  F ield         | OpenFOAM: The Open Source CFD Toolbox
   \\    /   O peration     | Website:  https://openfoam.org
    \\  /    A nd           | Version:  7
     \\/     M anipulation  |
\*---------------------------------------------------------------------------*/
FoamFile
{
    version     2.0;
    format      ascii;
    class       volVectorField;
    location    "70";
    object      ddtCorrDdt0(hU);
}
// * * * * * * * * * * * * * * * * * * * * * * * * * * * * * * * * * * * * * //

dimensions      [0 2 -2 0 0 0 0];

internalField   nonuniform List<vector> 
400
(
(-3.34602e-10 -2.19232e-10 0)
(-2.23502e-10 8.16404e-11 0)
(1.98499e-10 3.22266e-10 0)
(3.68452e-10 1.74872e-12 0)
(4.00039e-10 -1.93651e-10 0)
(1.12378e-09 -1.19475e-10 0)
(4.19358e-10 -3.86502e-10 0)
(2.85497e-09 -1.34669e-09 0)
(-9.76721e-10 -4.0388e-11 0)
(-2.06146e-10 7.72054e-11 0)
(-3.95503e-12 4.03294e-11 0)
(3.91231e-10 -7.14248e-11 0)
(3.11722e-10 -2.11796e-10 0)
(-1.88713e-11 -1.86888e-10 0)
(-1.44174e-10 -4.65138e-11 0)
(-9.46305e-12 1.02671e-10 0)
(7.92519e-11 1.69594e-10 0)
(7.56225e-11 1.49529e-10 0)
(-8.28362e-11 1.32999e-10 0)
(-2.11316e-10 2.02972e-11 0)
(-5.47003e-11 -3.95443e-10 0)
(1.1492e-10 1.64262e-10 0)
(1.20722e-10 3.61341e-10 0)
(1.90203e-10 -1.67795e-11 0)
(-2.33619e-10 -4.78372e-10 0)
(-8.26369e-10 1.37413e-10 0)
(5.73127e-10 -1.01271e-09 0)
(-4.39094e-09 -1.23775e-09 0)
(8.20742e-10 1.77591e-10 0)
(1.34932e-12 6.19122e-11 0)
(-1.30847e-10 2.11784e-10 0)
(3.71143e-11 1.11884e-10 0)
(3.88015e-11 -1.80625e-10 0)
(2.59476e-11 -2.69477e-10 0)
(7.21691e-11 -1.32607e-10 0)
(1.59123e-10 3.17634e-11 0)
(1.34012e-10 1.22063e-10 0)
(4.7932e-11 1.18753e-10 0)
(-1.14757e-10 1.11948e-10 0)
(-2.27594e-10 5.18034e-11 0)
(2.22915e-10 -1.02571e-10 0)
(3.18313e-10 5.57869e-11 0)
(4.6507e-11 6.46834e-11 0)
(-5.02093e-12 2.52266e-10 0)
(-2.5458e-11 3.00451e-11 0)
(2.76907e-10 5.98266e-10 0)
(-1.32366e-09 -2.40393e-10 0)
(1.15624e-09 9.51187e-10 0)
(5.1409e-10 2.62285e-10 0)
(-1.66467e-10 -1.04842e-10 0)
(1.28094e-10 1.2435e-11 0)
(-1.07081e-10 -9.38087e-11 0)
(-2.13702e-10 -2.53058e-10 0)
(7.68051e-12 -2.11198e-10 0)
(2.25984e-10 -3.48523e-11 0)
(2.98606e-10 1.50223e-10 0)
(1.58975e-10 2.52578e-10 0)
(-8.89418e-13 2.34278e-10 0)
(-2.01958e-10 2.41744e-10 0)
(-2.90397e-10 6.16005e-11 0)
(1.3079e-10 1.4537e-10 0)
(1.67959e-10 -1.1718e-10 0)
(1.38047e-10 -1.08926e-10 0)
(1.43606e-11 1.44271e-10 0)
(1.74141e-10 3.02632e-10 0)
(-1.26071e-10 8.72246e-11 0)
(1.207e-10 5.97795e-10 0)
(7.97882e-10 7.93489e-10 0)
(-5.08352e-10 -1.04048e-10 0)
(-6.08712e-11 3.18807e-11 0)
(1.08217e-10 -1.02938e-10 0)
(-2.24837e-10 -3.22672e-10 0)
(-2.02001e-10 -3.02351e-10 0)
(1.01449e-10 -1.09049e-10 0)
(2.88695e-10 6.61631e-11 0)
(2.69809e-10 2.05183e-10 0)
(1.03696e-10 2.79125e-10 0)
(-3.73102e-11 2.26073e-10 0)
(-1.66403e-10 2.6293e-10 0)
(-2.20318e-10 7.99392e-11 0)
(6.21387e-11 1.25026e-10 0)
(-2.90462e-11 -7.61452e-11 0)
(8.91741e-11 -6.99892e-11 0)
(-3.12832e-11 -5.96327e-11 0)
(1.85646e-10 3.03077e-10 0)
(-1.37772e-10 -7.40173e-11 0)
(4.34575e-10 5.84749e-10 0)
(-1.08719e-10 1.72193e-11 0)
(-2.10375e-10 -3.46673e-11 0)
(2.68592e-10 1.46191e-10 0)
(-6.13295e-11 -1.97682e-10 0)
(-2.26936e-10 -3.65621e-10 0)
(3.61459e-12 -2.34133e-10 0)
(2.24467e-10 -4.6675e-11 0)
(2.47238e-10 5.10642e-11 0)
(1.11886e-10 1.53784e-10 0)
(-7.50496e-11 2.48649e-10 0)
(-1.25695e-10 2.10172e-10 0)
(-1.31211e-10 2.68683e-10 0)
(-1.18437e-10 9.02091e-11 0)
(-2.61185e-11 5.13452e-11 0)
(-7.33565e-11 1.71551e-11 0)
(7.912e-11 1.03094e-10 0)
(8.34507e-11 9.37339e-11 0)
(1.2981e-10 3.82691e-10 0)
(-8.85352e-12 3.25616e-10 0)
(1.87058e-10 5.14697e-10 0)
(-2.97924e-10 1.45346e-10 0)
(6.32917e-11 3.32341e-10 0)
(5.24124e-11 5.08285e-11 0)
(-3.19402e-10 -3.43825e-10 0)
(-7.73178e-11 -3.38118e-10 0)
(2.52976e-10 -2.25488e-10 0)
(3.00963e-10 -9.85972e-11 0)
(1.94761e-10 -1.19394e-11 0)
(4.08045e-11 1.47154e-10 0)
(-1.47482e-10 3.37109e-10 0)
(-1.69885e-10 3.5955e-10 0)
(-1.17467e-10 4.36297e-10 0)
(-6.43737e-11 1.24175e-10 0)
(-7.56531e-11 -5.45072e-11 0)
(-5.13882e-11 3.47521e-11 0)
(1.46657e-11 8.71815e-11 0)
(1.31373e-10 2.02563e-10 0)
(2.07519e-11 1.75049e-10 0)
(9.89887e-11 4.00363e-10 0)
(-1.22209e-11 3.20539e-10 0)
(-6.63347e-11 2.95903e-10 0)
(1.54082e-10 3.61237e-10 0)
(-1.98435e-10 -6.53784e-11 0)
(-1.48612e-10 -1.87541e-10 0)
(1.86791e-10 -1.26353e-10 0)
(2.31438e-10 -2.37423e-10 0)
(8.65113e-11 -2.35262e-10 0)
(-6.00835e-11 -1.27263e-10 0)
(-1.24248e-10 5.54498e-11 0)
(-1.5079e-10 3.02748e-10 0)
(-1.15231e-10 4.1396e-10 0)
(-6.0593e-12 5.5201e-10 0)
(7.21046e-11 2.0599e-10 0)
(-5.42797e-11 -9.42197e-11 0)
(3.52359e-11 7.6674e-11 0)
(1.23922e-11 1.23229e-10 0)
(1.37675e-10 3.235e-10 0)
(1.92919e-11 2.70837e-10 0)
(1.33191e-10 4.57902e-10 0)
(-9.74088e-11 3.5125e-10 0)
(6.65348e-11 4.3096e-10 0)
(-7.09435e-11 2.22937e-10 0)
(-2.12421e-10 -4.68597e-11 0)
(1.455e-10 -9.34561e-11 0)
(1.58576e-10 -2.52987e-10 0)
(4.29876e-11 -4.77132e-10 0)
(5.78404e-11 -4.14212e-10 0)
(-1.73755e-11 -1.80099e-10 0)
(-6.75402e-11 1.22541e-10 0)
(-3.84255e-11 4.20188e-10 0)
(-2.3321e-12 5.45546e-10 0)
(-3.11243e-11 7.07094e-10 0)
(-4.02824e-11 2.56144e-10 0)
(8.13401e-12 -9.2324e-12 0)
(6.61686e-11 4.26625e-11 0)
(2.60594e-11 1.56886e-10 0)
(4.9217e-11 2.31266e-10 0)
(2.92789e-11 3.47176e-10 0)
(6.0111e-11 3.76802e-10 0)
(-1.24444e-11 3.91884e-10 0)
(8.54154e-11 4.26326e-10 0)
(-7.19354e-11 1.78133e-10 0)
(1.03923e-12 1.40438e-10 0)
(1.2677e-10 -7.95935e-11 0)
(-4.46513e-11 -3.9103e-10 0)
(-7.29427e-11 -5.00654e-10 0)
(4.13028e-11 -4.22883e-10 0)
(2.18725e-11 -2.4116e-10 0)
(-1.38996e-11 1.04813e-10 0)
(4.60242e-11 4.51786e-10 0)
(8.3798e-11 5.56586e-10 0)
(1.31962e-11 7.14577e-10 0)
(-7.80943e-11 2.75613e-10 0)
(6.13502e-12 6.51621e-11 0)
(-7.70713e-12 2.42321e-11 0)
(3.36977e-11 1.44611e-10 0)
(-2.83797e-11 1.8031e-10 0)
(2.24132e-11 3.57803e-10 0)
(-2.22093e-11 3.82401e-10 0)
(9.22781e-11 4.49303e-10 0)
(1.61618e-11 4.12384e-10 0)
(2.50714e-11 2.10531e-10 0)
(5.40553e-11 1.36695e-10 0)
(-1.06664e-10 -1.68273e-10 0)
(-7.1731e-11 -4.20586e-10 0)
(-3.69972e-11 -4.37064e-10 0)
(-7.87223e-11 -3.40745e-10 0)
(3.44291e-11 -1.8227e-10 0)
(1.88468e-10 1.51615e-10 0)
(1.96241e-10 4.73081e-10 0)
(1.161e-10 5.2608e-10 0)
(-2.60256e-11 6.46457e-10 0)
(-1.56398e-10 2.25467e-10 0)
(1.65019e-12 1.95817e-11 0)
(-5.26063e-11 9.96777e-11 0)
(1.77021e-11 1.06981e-10 0)
(-6.78152e-11 2.40729e-10 0)
(4.75122e-12 3.27897e-10 0)
(-7.07211e-11 4.56038e-10 0)
(8.88051e-11 4.51499e-10 0)
(-3.1099e-11 3.98919e-10 0)
(4.80689e-11 2.71774e-10 0)
(8.89144e-11 2.6357e-11 0)
(-1.37192e-10 -1.51387e-10 0)
(-3.96498e-11 -2.92158e-10 0)
(-1.74773e-11 -4.05927e-10 0)
(-1.49833e-10 -2.65179e-10 0)
(-2.85831e-11 -2.74085e-11 0)
(1.54196e-10 2.12073e-10 0)
(1.61567e-10 4.00275e-10 0)
(6.99811e-11 4.06831e-10 0)
(-2.54503e-11 5.39333e-10 0)
(-1.0627e-10 1.78713e-10 0)
(2.88631e-11 -4.72836e-12 0)
(-4.9833e-12 8.86447e-11 0)
(-2.22407e-11 9.34091e-11 0)
(-6.83008e-11 2.7644e-10 0)
(-2.87642e-11 3.23739e-10 0)
(-5.43092e-11 4.78501e-10 0)
(-1.04798e-11 4.44087e-10 0)
(3.05994e-11 3.32537e-10 0)
(-2.83954e-11 3.06508e-10 0)
(1.07917e-10 -6.24461e-11 0)
(4.98036e-11 -2.14801e-10 0)
(-1.00143e-10 -2.38904e-10 0)
(-9.41715e-11 -3.58989e-10 0)
(-5.27399e-11 -2.17365e-10 0)
(-5.33058e-11 2.58584e-11 0)
(-4.5399e-11 2.13958e-10 0)
(2.27222e-11 3.57097e-10 0)
(7.99755e-11 3.40213e-10 0)
(4.11592e-11 4.55568e-10 0)
(-3.05233e-11 1.46018e-10 0)
(-8.82269e-12 2.37238e-11 0)
(1.8448e-11 -6.27563e-12 0)
(-4.99269e-11 1.23503e-10 0)
(1.41893e-12 1.80947e-10 0)
(-8.55616e-11 3.81092e-10 0)
(-8.2911e-12 4.04247e-10 0)
(-1.76494e-10 5.04598e-10 0)
(7.83782e-11 2.73131e-10 0)
(-6.1093e-11 2.6757e-10 0)
(-1.10243e-11 -1.98856e-11 0)
(2.74258e-10 -3.91763e-10 0)
(8.34826e-11 -4.55077e-10 0)
(-7.70087e-11 -3.98337e-10 0)
(-5.55016e-11 -2.17384e-10 0)
(-1.5332e-10 -1.28941e-11 0)
(-2.42405e-10 2.37692e-10 0)
(-1.22901e-10 4.49485e-10 0)
(1.24552e-11 4.14384e-10 0)
(1.03642e-10 4.5412e-10 0)
(1.53402e-10 1.17337e-10 0)
(-4.28103e-11 1.37501e-11 0)
(-1.82192e-11 -2.30828e-11 0)
(-6.36404e-11 1.1193e-10 0)
(4.53145e-11 9.35195e-11 0)
(-1.05472e-10 3.5068e-10 0)
(3.95347e-11 2.06786e-10 0)
(-2.08903e-10 4.42303e-10 0)
(-4.77505e-11 2.87224e-10 0)
(5.12208e-11 1.45124e-10 0)
(-2.47207e-10 1.87645e-10 0)
(2.64721e-11 -1.96118e-10 0)
(2.45195e-10 -4.82949e-10 0)
(1.8567e-10 -4.52576e-10 0)
(6.32791e-11 -2.85202e-10 0)
(-9.85982e-11 -1.03561e-10 0)
(-2.04352e-10 1.74804e-10 0)
(-1.73955e-10 4.28099e-10 0)
(-8.18635e-11 4.27384e-10 0)
(7.09142e-11 4.84809e-10 0)
(2.13472e-10 1.68347e-10 0)
(-3.04928e-11 -3.2887e-11 0)
(-7.8772e-11 3.65843e-11 0)
(-7.84944e-11 1.30283e-10 0)
(-5.53661e-11 2.59346e-10 0)
(-8.65732e-11 2.91109e-10 0)
(-3.2925e-11 3.17567e-10 0)
(3.32843e-11 4.11739e-10 0)
(-2.26283e-10 5.1295e-10 0)
(2.72624e-10 9.61485e-11 0)
(4.2677e-11 1.22032e-10 0)
(-2.26929e-10 -1.61852e-11 0)
(3.23566e-11 -3.62828e-10 0)
(1.84362e-10 -5.14915e-10 0)
(8.03104e-11 -3.90385e-10 0)
(-6.69331e-11 -1.48638e-10 0)
(-1.87562e-10 1.79118e-10 0)
(-1.84895e-10 4.5538e-10 0)
(-8.73121e-11 5.08957e-10 0)
(1.60398e-10 5.8809e-10 0)
(3.09101e-10 1.96253e-10 0)
(3.00014e-11 -9.2616e-11 0)
(-6.64254e-11 4.69918e-11 0)
(-3.743e-11 5.20064e-11 0)
(-1.45124e-10 1.49007e-10 0)
(2.73791e-11 -1.16553e-10 0)
(-1.68432e-10 3.66633e-10 0)
(2.78782e-10 -8.91241e-11 0)
(-3.4536e-10 5.32213e-10 0)
(-7.49703e-11 1.67979e-10 0)
(1.91047e-10 -1.69165e-11 0)
(-2.34152e-10 9.45514e-11 0)
(-2.47625e-10 -2.60357e-11 0)
(1.07414e-11 -2.68039e-10 0)
(1.34895e-10 -3.14831e-10 0)
(1.20069e-10 -1.84239e-10 0)
(-1.13461e-12 3.9246e-11 0)
(-6.51216e-11 2.77377e-10 0)
(-4.10149e-11 3.84432e-10 0)
(9.26542e-11 4.83713e-10 0)
(1.69614e-10 1.85416e-10 0)
(1.2176e-10 -1.02533e-10 0)
(-1.38076e-11 1.21447e-10 0)
(-1.18646e-10 1.64137e-10 0)
(-2.98685e-10 8.41465e-11 0)
(4.31362e-11 -1.4342e-10 0)
(-3.10965e-10 5.07268e-10 0)
(4.80139e-10 -4.77404e-10 0)
(1.95434e-10 1.25358e-10 0)
(-3.71495e-10 3.8842e-10 0)
(3.01441e-10 -1.97061e-12 0)
(9.07834e-11 3.48967e-11 0)
(-2.85441e-10 4.55477e-11 0)
(-2.64966e-10 -1.20278e-10 0)
(-7.48582e-11 -1.9262e-10 0)
(4.87319e-11 -1.32105e-10 0)
(2.69081e-11 3.26028e-11 0)
(1.35332e-11 2.19526e-10 0)
(5.9987e-12 2.93756e-10 0)
(5.76599e-11 3.78508e-10 0)
(1.12407e-10 1.32589e-10 0)
(1.99115e-10 3.04667e-12 0)
(7.24642e-11 -5.55352e-11 0)
(-1.85176e-10 5.07249e-11 0)
(-3.60788e-10 4.93183e-12 0)
(-1.62759e-11 1.6167e-10 0)
(-3.07151e-10 -4.69884e-11 0)
(-5.16454e-10 -9.62589e-10 0)
(1.62372e-09 -4.22777e-10 0)
(-1.02043e-10 3.63821e-10 0)
(8.23062e-11 7.47497e-11 0)
(1.86132e-10 -1.98807e-10 0)
(-2.8884e-10 -1.58598e-10 0)
(-4.33332e-10 -6.54001e-11 0)
(-2.63408e-10 -4.65428e-12 0)
(-5.96947e-11 1.21079e-11 0)
(1.85182e-11 7.19582e-11 0)
(8.1512e-11 1.4978e-10 0)
(5.94185e-11 1.58547e-10 0)
(1.03176e-10 2.1441e-10 0)
(1.48739e-10 6.08136e-11 0)
(2.16957e-11 1.53759e-10 0)
(1.84902e-11 -2.08481e-10 0)
(-1.58739e-10 -3.42459e-10 0)
(-1.66565e-10 -3.74676e-11 0)
(-3.19704e-10 6.83114e-10 0)
(-1.08325e-09 -4.54412e-10 0)
(-1.00038e-09 2.67904e-09 0)
(3.13468e-09 -3.9456e-11 0)
(6.51521e-10 -5.37493e-10 0)
(-2.36755e-10 -2.1586e-10 0)
(-1.20583e-11 -4.11035e-10 0)
(1.93301e-11 -1.86861e-10 0)
(-9.55143e-11 1.3661e-10 0)
(-1.92877e-10 2.22321e-10 0)
(-1.80269e-10 1.17359e-10 0)
(-1.08333e-10 1.21477e-11 0)
(-2.24737e-13 -1.34978e-11 0)
(4.00318e-11 -2.0918e-11 0)
(9.93788e-11 2.33736e-11 0)
(1.54795e-10 2.50642e-11 0)
(-2.05642e-10 1.0946e-10 0)
(-1.92404e-10 -4.05354e-11 0)
(-6.29116e-11 -1.87991e-10 0)
(2.05115e-10 1.06912e-10 0)
(-1.55838e-10 6.46259e-10 0)
(1.42412e-09 1.70513e-11 0)
(6.49515e-10 3.5047e-09 0)
(-4.52651e-09 3.41366e-10 0)
(-1.25113e-10 -6.09618e-10 0)
(1.47031e-10 -3.12935e-10 0)
(2.4453e-10 -3.35362e-10 0)
(5.59747e-10 -1.70497e-10 0)
(2.45233e-10 2.77079e-11 0)
(-2.3806e-10 1.07624e-10 0)
(-3.9204e-10 8.7637e-11 0)
(-2.64198e-10 8.16828e-11 0)
(-3.86634e-11 9.20245e-11 0)
(6.99029e-11 8.06447e-11 0)
(1.61484e-10 9.01187e-11 0)
(2.10007e-10 5.8792e-12 0)
)
;

boundaryField
{
    sides
    {
        type            calculated;
        value           nonuniform List<vector> 
40
(
(-2.05642e-10 0 0)
(-1.92404e-10 0 0)
(-6.29116e-11 0 0)
(2.05115e-10 0 0)
(-1.55838e-10 0 0)
(1.42412e-09 0 0)
(6.49515e-10 0 0)
(-4.52651e-09 0 0)
(-1.25113e-10 0 0)
(1.47031e-10 0 0)
(2.4453e-10 0 0)
(5.59747e-10 0 0)
(2.45233e-10 0 0)
(-2.3806e-10 0 0)
(-3.9204e-10 0 0)
(-2.64198e-10 0 0)
(-3.86634e-11 0 0)
(6.99029e-11 0 0)
(1.61484e-10 0 0)
(2.10007e-10 0 0)
(-3.34602e-10 0 0)
(-2.23502e-10 0 0)
(1.98499e-10 0 0)
(3.68452e-10 0 0)
(4.00039e-10 0 0)
(1.12378e-09 0 0)
(4.19358e-10 0 0)
(2.85497e-09 0 0)
(-9.76721e-10 0 0)
(-2.06146e-10 0 0)
(-3.95503e-12 0 0)
(3.91231e-10 0 0)
(3.11722e-10 0 0)
(-1.88713e-11 0 0)
(-1.44174e-10 0 0)
(-9.46305e-12 0 0)
(7.92519e-11 0 0)
(7.56225e-11 0 0)
(-8.28362e-11 0 0)
(-2.11316e-10 0 0)
)
;
    }
    inlet
    {
        type            calculated;
        value           uniform (0 0 0);
    }
    outlet
    {
        type            calculated;
        value           nonuniform List<vector> 
20
(
(-2.11316e-10 2.02972e-11 0)
(-2.27594e-10 5.18034e-11 0)
(-2.90397e-10 6.16005e-11 0)
(-2.20318e-10 7.99392e-11 0)
(-1.18437e-10 9.02091e-11 0)
(-6.43737e-11 1.24175e-10 0)
(7.21046e-11 2.0599e-10 0)
(-4.02824e-11 2.56144e-10 0)
(-7.80943e-11 2.75613e-10 0)
(-1.56398e-10 2.25467e-10 0)
(-1.0627e-10 1.78713e-10 0)
(-3.05233e-11 1.46018e-10 0)
(1.53402e-10 1.17337e-10 0)
(2.13472e-10 1.68347e-10 0)
(3.09101e-10 1.96253e-10 0)
(1.69614e-10 1.85416e-10 0)
(1.12407e-10 1.32589e-10 0)
(1.48739e-10 6.08136e-11 0)
(1.54795e-10 2.50642e-11 0)
(2.10007e-10 5.8792e-12 0)
)
;
    }
    frontAndBack
    {
        type            empty;
    }
}


// ************************************************************************* //
