/*--------------------------------*- C++ -*----------------------------------*\
  =========                 |
  \\      /  F ield         | OpenFOAM: The Open Source CFD Toolbox
   \\    /   O peration     | Website:  https://openfoam.org
    \\  /    A nd           | Version:  7
     \\/     M anipulation  |
\*---------------------------------------------------------------------------*/
FoamFile
{
    version     2.0;
    format      ascii;
    class       surfaceScalarField;
    location    "70";
    object      ddtCorrDdt0(phi);
}
// * * * * * * * * * * * * * * * * * * * * * * * * * * * * * * * * * * * * * //

dimensions      [0 4 -2 0 0 0 0];

internalField   nonuniform List<scalar> 
760
(
-2.34916e-12
-1.59941e-12
-8.80487e-13
9.03738e-13
2.53269e-12
1.55876e-12
3.21461e-12
-9.02101e-13
7.26254e-13
-6.50425e-13
6.91923e-12
-2.14837e-10
8.63673e-12
2.71291e-10
1.44554e-12
-2.76994e-10
-1.19171e-12
-7.03253e-12
-1.113e-12
8.15774e-14
1.26935e-12
5.61426e-13
2.16364e-12
3.79373e-13
6.70738e-13
-5.41492e-13
-6.70511e-13
-9.58804e-13
-5.11993e-13
-5.58432e-13
2.35237e-13
9.43814e-14
4.71782e-13
5.52091e-13
5.19992e-14
6.53549e-13
-7.75666e-13
6.38414e-13
2.07006e-13
2.28247e-13
-1.05149e-12
1.2927e-12
6.16918e-13
-3.25581e-13
1.60795e-12
1.1903e-12
1.23515e-12
-5.10579e-12
-1.88534e-12
3.51551e-12
5.23756e-12
-1.44907e-11
-1.72473e-11
-5.5706e-12
-6.59115e-12
1.55019e-12
3.00562e-12
-8.01457e-13
-3.58797e-14
-7.33716e-14
1.77229e-13
2.35056e-13
-6.60961e-14
1.04797e-13
-9.77522e-13
1.90883e-13
-1.08325e-12
5.72221e-13
-4.06017e-13
7.66071e-13
3.75943e-13
4.65804e-13
9.09622e-13
-9.85274e-14
9.63119e-13
-8.85204e-13
1.00436e-12
3.21513e-13
3.00236e-12
3.07278e-14
9.41763e-13
-2.02701e-13
-6.44976e-13
1.5844e-13
-1.2028e-12
1.24e-12
3.94084e-12
-3.28764e-13
-6.10328e-12
2.82256e-12
-9.66497e-14
-3.46942e-13
6.7491e-12
9.12808e-12
-1.10257e-12
4.50843e-13
5.68802e-13
-4.72522e-13
1.70646e-13
-1.08756e-13
-1.16211e-12
-1.10871e-12
-6.40559e-13
-1.53955e-12
7.2012e-13
-8.34882e-13
1.40176e-12
1.41077e-13
1.14878e-12
9.19471e-13
3.80698e-13
1.29437e-12
-4.64179e-13
1.10135e-12
-1.2801e-12
1.20751e-12
3.41912e-13
1.54006e-12
7.17634e-13
6.1438e-13
-3.72807e-13
7.94278e-13
-4.66581e-13
-1.42912e-12
3.63462e-13
3.52794e-12
1.71521e-12
-4.41123e-12
-5.47252e-13
6.10296e-12
4.78061e-12
-7.62259e-13
1.19044e-12
-1.8756e-12
-1.15649e-12
1.02752e-12
5.84071e-13
-4.79784e-13
-6.28342e-13
-1.44956e-12
-1.94323e-12
-2.66074e-13
-1.5965e-12
1.1786e-12
-4.74604e-13
1.46328e-12
3.52901e-13
8.93022e-13
1.05042e-12
1.30802e-13
1.45133e-12
-4.92309e-13
1.11998e-12
-9.82199e-13
1.33131e-12
4.16949e-13
6.13211e-15
6.27069e-13
1.89839e-13
-1.25751e-13
6.04601e-13
-7.8392e-14
-3.88233e-13
-3.04468e-13
8.57806e-13
2.31211e-12
-1.15292e-13
1.87674e-13
2.28095e-12
2.68309e-12
-2.4897e-12
-2.22901e-13
1.04884e-12
8.85275e-13
7.83671e-13
8.55425e-13
-1.21606e-12
-1.34418e-12
-6.43137e-13
-1.85311e-12
7.07079e-13
-1.00789e-12
1.32186e-12
-1.64462e-13
9.39397e-13
1.76429e-13
2.886e-14
7.55715e-13
-6.13854e-13
1.41592e-12
-6.75647e-13
1.29567e-12
-5.97556e-13
1.61085e-12
4.82035e-13
-5.98866e-13
-4.40831e-14
3.03562e-13
4.09998e-14
7.33683e-14
5.09913e-13
1.36501e-12
4.38626e-13
-8.52512e-13
1.17871e-12
1.52103e-12
2.15547e-12
-7.22503e-13
2.0735e-12
-1.09033e-12
1.17007e-12
1.30293e-12
2.18625e-12
-1.12033e-12
-1.72651e-13
-1.36599e-12
-1.75287e-12
7.19977e-13
-1.20499e-12
1.52968e-12
-9.65399e-13
1.19628e-12
-6.83542e-13
6.08058e-13
-3.17357e-13
-2.73654e-13
4.87828e-13
-9.45101e-13
1.61803e-12
-8.14125e-13
1.96942e-12
-3.83944e-13
2.43299e-12
7.7508e-13
-7.06533e-13
-5.17852e-13
3.12842e-13
3.59631e-13
-2.72882e-13
5.45422e-13
1.28966e-12
1.82109e-12
-5.38744e-13
9.73953e-13
1.14237e-12
2.34159e-12
-1.15697e-12
1.53088e-12
8.58543e-13
1.95963e-12
-2.11979e-14
1.42624e-12
-1.47684e-12
-6.37882e-13
2.65593e-13
-5.24023e-13
1.34701e-12
-5.36836e-13
8.21706e-13
-1.73465e-12
-6.91234e-14
-1.75454e-12
-4.93692e-13
-8.45773e-13
-6.28452e-13
3.56762e-13
-7.3742e-13
1.73041e-12
-4.80007e-13
2.41275e-12
2.07536e-13
3.22695e-12
1.19787e-12
5.21402e-15
-4.23872e-13
1.32595e-14
4.72816e-13
5.2969e-13
7.38732e-13
1.89291e-13
1.45589e-12
5.79068e-13
1.62064e-12
1.45448e-13
2.04958e-12
-4.68018e-13
1.8156e-12
7.08114e-13
2.23497e-12
-1.39321e-12
8.70763e-13
-1.41833e-13
3.77616e-13
1.16756e-12
-1.65856e-13
3.79792e-13
-1.68906e-12
2.32005e-13
-2.74453e-12
1.05792e-13
-2.28409e-12
-3.10718e-13
-1.06493e-12
-2.27078e-13
5.97295e-13
-6.02221e-14
2.1673e-12
-1.80917e-13
2.78205e-12
-1.89069e-13
3.67801e-12
1.41336e-12
6.26302e-13
3.17298e-13
-1.66242e-13
-4.49415e-14
5.82464e-13
8.27854e-13
-2.65665e-13
8.35461e-13
5.96368e-13
1.86935e-12
-1.48384e-13
1.7753e-12
3.64142e-13
2.18261e-12
1.30914e-13
2.04633e-12
-5.84606e-13
8.68543e-13
6.54638e-13
8.34805e-13
3.05694e-13
-8.22923e-13
-5.51717e-13
-2.32589e-12
-3.86156e-14
-2.32596e-12
2.49734e-13
-1.90799e-12
-7.40965e-14
-1.20874e-12
6.04146e-14
6.00743e-13
4.1997e-13
2.43016e-12
3.04442e-13
2.8234e-12
-2.04094e-13
3.44451e-12
1.25714e-12
-2.42947e-14
3.30583e-13
2.15399e-13
2.49609e-13
-9.26973e-14
6.24211e-13
2.52345e-14
9.66629e-13
-8.01826e-14
1.72089e-12
1.48548e-13
2.03855e-12
5.39887e-13
2.25396e-12
-2.79514e-13
2.01586e-12
4.72395e-13
1.22272e-12
-1.0866e-13
5.30055e-13
-6.1184e-13
-7.6118e-13
-1.76222e-13
-1.76177e-12
-3.34464e-13
-2.02282e-12
-1.91032e-13
-1.49845e-12
5.92718e-13
-6.0373e-13
1.00778e-12
8.44627e-13
8.45542e-13
2.16656e-12
3.39325e-13
2.33703e-12
-5.15918e-13
2.99326e-12
1.03351e-12
-3.85434e-13
-1.20843e-13
2.17966e-13
7.39981e-13
-3.62321e-13
4.20921e-13
5.60976e-14
1.43682e-12
-3.749e-13
1.55458e-12
6.42853e-14
2.49295e-12
4.30453e-13
2.21322e-12
-4.67077e-13
1.92619e-12
8.27417e-13
1.49026e-12
-1.97396e-13
-2.13443e-13
-6.82834e-13
-7.07338e-13
5.76862e-14
-1.11188e-12
-4.95248e-13
-1.97423e-12
-5.64977e-13
-1.14638e-12
3.93036e-13
2.73148e-13
8.17097e-13
1.20247e-12
6.12921e-13
1.77742e-12
2.76532e-13
1.68496e-12
-3.63302e-13
2.37561e-12
7.83096e-13
2.14432e-13
9.8958e-14
-3.7754e-13
1.52722e-13
8.1849e-14
4.78226e-13
-5.05952e-13
1.29136e-12
5.69662e-14
1.64677e-12
-4.92903e-13
2.32702e-12
3.98357e-13
2.32078e-12
-2.47892e-13
1.47129e-12
1.60949e-13
1.5377e-12
6.87511e-13
-4.86704e-13
-2.34556e-13
-1.64818e-12
-6.4216e-13
-1.51553e-12
-3.16935e-13
-1.70277e-12
-1.52296e-13
-1.00863e-12
-2.89508e-13
5.94668e-14
-1.90548e-13
1.11398e-12
2.89235e-13
1.9878e-12
4.92116e-13
1.83489e-12
2.17999e-14
2.17107e-12
5.97083e-13
6.62116e-14
1.49647e-13
-4.41771e-13
-1.87705e-13
4.0638e-13
8.12545e-13
-7.22912e-13
4.93119e-13
2.55098e-13
2.06537e-12
-8.22356e-13
1.5533e-12
-2.7065e-13
2.5601e-12
4.96092e-13
1.20933e-12
-8.73081e-13
1.18645e-12
9.73246e-13
5.40555e-13
1.16582e-12
-1.89688e-12
-2.79647e-13
-2.7391e-12
-2.97478e-13
-2.1113e-12
-3.55495e-13
-1.15778e-12
-1.07683e-12
-3.22658e-13
-1.05269e-12
1.01164e-12
-2.65806e-13
2.24385e-12
3.44098e-13
2.09627e-12
6.74271e-13
2.23229e-12
6.33763e-13
-5.45517e-13
-5.02999e-14
8.55234e-14
1.93231e-14
-3.30922e-13
4.74894e-13
2.91711e-13
7.99519e-13
-6.02685e-13
1.91057e-12
9.11622e-14
8.47113e-13
-1.52965e-12
2.13161e-12
9.73732e-13
1.84166e-12
-9.25642e-13
1.712e-13
-9.03326e-13
1.05564e-12
1.01974e-12
-3.62629e-13
1.15528e-12
-2.42035e-12
6.34368e-13
-2.75325e-12
-9.48386e-14
-1.8739e-12
-7.93582e-13
-6.94766e-13
-9.75714e-13
9.51539e-13
-6.95642e-13
2.32512e-12
-1.4659e-13
2.43803e-12
7.72275e-13
2.77003e-12
9.50287e-13
-7.72199e-13
-3.51216e-13
9.65581e-15
2.42743e-13
-8.79079e-13
5.19636e-13
7.97097e-13
1.38057e-12
-1.86211e-12
-1.14981e-13
1.45008e-12
1.59202e-12
-1.51387e-12
1.26592e-12
3.1184e-13
2.89811e-12
1.44592e-12
6.03314e-13
-1.14132e-12
1.521e-13
-6.13615e-13
5.58429e-13
8.46063e-13
-6.76248e-13
7.65217e-13
-1.95715e-12
-2.97286e-14
-1.88031e-12
-6.09509e-13
-9.23228e-13
-9.15586e-13
4.60101e-13
-7.66483e-13
1.78019e-12
2.20022e-14
2.28245e-12
1.23466e-12
2.80077e-12
1.0314e-12
-3.67185e-13
-5.69286e-13
-8.16507e-14
3.2714e-13
-3.61364e-13
5.93705e-13
-2.57644e-13
7.66016e-13
-1.04221e-12
-7.86436e-13
1.02434e-12
3.27253e-12
-1.72377e-14
-2.2814e-12
-2.10682e-12
3.19724e-12
1.29255e-12
1.62097e-12
-2.62274e-13
-1.80385e-13
-1.6565e-12
1.83542e-13
-4.94137e-13
2.07334e-13
4.98484e-13
-8.29456e-13
6.63529e-13
-1.23299e-12
3.34883e-13
-8.01021e-13
-1.42932e-13
1.41913e-13
-2.89693e-13
1.25372e-12
4.03573e-14
1.81288e-12
6.79845e-13
2.30443e-12
8.36999e-13
5.16378e-13
-2.28005e-13
-5.37897e-13
1.63738e-13
-4.62411e-13
2.12023e-13
-2.3868e-12
-3.14402e-13
2.0548e-12
1.01188e-12
-3.10192e-12
-2.17356e-13
5.48449e-12
-1.22051e-12
-3.00738e-12
-4.74216e-12
4.37443e-13
2.61898e-12
1.47539e-12
-1.97204e-13
-8.13679e-13
-5.49044e-13
-1.58372e-12
6.95602e-14
-8.23862e-13
-4.77271e-14
4.07329e-14
-3.03748e-13
2.39065e-13
-3.08515e-13
1.22811e-13
1.45784e-13
1.12739e-13
7.76852e-13
1.18816e-13
1.00971e-12
3.81198e-13
1.39316e-12
4.61851e-13
1.51678e-12
3.45887e-13
-3.08716e-13
-7.09766e-13
-1.53229e-12
-9.05264e-13
-3.28865e-12
-5.50226e-13
4.71453e-12
2.82882e-12
-9.31851e-12
-3.13579e-12
7.98209e-12
1.69514e-12
2.80522e-12
7.38013e-13
-1.04974e-12
-1.23296e-12
1.5658e-12
4.77489e-14
-3.86254e-13
-1.17962e-12
-2.13789e-12
-9.07172e-13
-1.82109e-12
-8.58794e-14
-7.18724e-13
3.44862e-13
-1.79116e-14
3.12226e-13
2.8125e-13
3.55289e-13
4.21472e-13
4.69063e-13
4.05655e-13
3.37421e-13
6.00642e-13
5.57275e-13
1.88573e-13
-2.27709e-13
7.7631e-13
1.9727e-13
-8.88547e-13
-1.15419e-12
-1.40598e-12
-1.45488e-12
1.17241e-12
-5.59279e-13
2.59407e-12
-1.3606e-11
3.14687e-10
1.29329e-11
4.67937e-10
8.67779e-12
-3.50081e-10
-3.8607e-13
-1.34399e-11
-5.32997e-13
-8.8795e-13
1.92887e-13
-1.59175e-12
-1.75283e-13
-1.16849e-12
-7.82121e-13
-5.12592e-14
-9.73247e-13
6.39962e-13
-6.8851e-13
6.01378e-13
-2.52647e-13
3.9359e-13
1.17836e-13
2.32838e-13
3.63684e-13
5.08616e-14
6.41664e-13
1.49273e-13
3.39598e-14
-1.74664e-12
-1.60211e-12
8.10352e-13
3.48009e-12
-6.29511e-12
2.20932e-11
-2.48906e-11
-7.13947e-12
8.61626e-13
6.02259e-14
2.57505e-12
2.38918e-12
-1.4946e-13
-1.84928e-12
-1.67954e-12
-7.0322e-13
1.04467e-13
5.92637e-13
9.62816e-13
)
;

boundaryField
{
    sides
    {
        type            calculated;
        value           uniform 0;
    }
    inlet
    {
        type            calculated;
        value           uniform 0;
    }
    outlet
    {
        type            calculated;
        value           nonuniform List<scalar> 
20
(
-1.13481e-12
-1.23743e-12
-1.53097e-12
-1.13341e-12
-5.14582e-13
-1.20072e-13
6.65989e-13
-3.11148e-14
-4.91283e-13
-1.00966e-12
-8.39628e-13
-3.87215e-13
7.69606e-13
1.31371e-12
1.79478e-12
9.37278e-13
5.51889e-13
6.68118e-13
7.12053e-13
1.01653e-12
)
;
    }
    frontAndBack
    {
        type            empty;
        value           nonuniform 0();
    }
}


// ************************************************************************* //
