/*--------------------------------*- C++ -*----------------------------------*\
  =========                 |
  \\      /  F ield         | OpenFOAM: The Open Source CFD Toolbox
   \\    /   O peration     | Website:  https://openfoam.org
    \\  /    A nd           | Version:  7
     \\/     M anipulation  |
\*---------------------------------------------------------------------------*/
FoamFile
{
    version     2.0;
    format      ascii;
    class       volVectorField;
    location    "70";
    object      hU;
}
// * * * * * * * * * * * * * * * * * * * * * * * * * * * * * * * * * * * * * //

dimensions      [0 2 -1 0 0 0 0];

internalField   nonuniform List<vector> 
400
(
(0.001 -8.73737e-09 0)
(0.000999999 -2.37196e-08 0)
(0.001 -3.59081e-08 0)
(0.001 -4.66434e-08 0)
(0.00100001 -5.68859e-08 0)
(0.00100001 -6.74691e-08 0)
(0.00100002 -7.82373e-08 0)
(0.00100003 -8.92952e-08 0)
(0.00100004 -1.0005e-07 0)
(0.00100006 -1.12014e-07 0)
(0.00100007 -1.22717e-07 0)
(0.0010001 -1.36185e-07 0)
(0.00100011 -1.46492e-07 0)
(0.00100015 -1.63254e-07 0)
(0.00100017 -1.72054e-07 0)
(0.00100024 -1.96187e-07 0)
(0.00100026 -2.0075e-07 0)
(0.00100038 -2.4303e-07 0)
(0.00100038 -2.39245e-07 0)
(0.00100061 -3.31947e-07 0)
(0.001 3.94381e-09 0)
(0.001 1.21094e-08 0)
(0.00100001 2.02886e-08 0)
(0.00100001 2.7995e-08 0)
(0.00100002 3.516e-08 0)
(0.00100002 4.16655e-08 0)
(0.00100003 4.76213e-08 0)
(0.00100004 5.30474e-08 0)
(0.00100005 5.84365e-08 0)
(0.00100007 6.2314e-08 0)
(0.00100008 6.69621e-08 0)
(0.0010001 6.85553e-08 0)
(0.00100012 7.26577e-08 0)
(0.00100016 6.98773e-08 0)
(0.00100018 7.40721e-08 0)
(0.00100023 6.17589e-08 0)
(0.00100026 6.724e-08 0)
(0.00100035 3.1817e-08 0)
(0.00100037 3.98715e-08 0)
(0.0010005 -5.46221e-08 0)
(0.001 -3.95064e-09 0)
(0.000999999 -1.29421e-08 0)
(0.001 -2.29456e-08 0)
(0.001 -3.35301e-08 0)
(0.00100001 -4.40888e-08 0)
(0.00100001 -5.48828e-08 0)
(0.00100002 -6.55997e-08 0)
(0.00100003 -7.73736e-08 0)
(0.00100004 -8.89484e-08 0)
(0.00100005 -1.0264e-07 0)
(0.00100006 -1.15337e-07 0)
(0.00100009 -1.32432e-07 0)
(0.0010001 -1.46444e-07 0)
(0.00100014 -1.69864e-07 0)
(0.00100016 -1.84918e-07 0)
(0.00100021 -2.20904e-07 0)
(0.00100023 -2.35552e-07 0)
(0.00100031 -2.97533e-07 0)
(0.00100033 -3.06311e-07 0)
(0.00100046 -4.22355e-07 0)
(0.001 -8.40707e-11 0)
(0.001 8.52171e-11 0)
(0.00100001 7.73984e-10 0)
(0.00100001 1.51973e-09 0)
(0.00100001 2.21337e-09 0)
(0.00100002 2.0755e-09 0)
(0.00100003 1.65826e-09 0)
(0.00100004 -3.17483e-10 0)
(0.00100004 -2.48051e-09 0)
(0.00100006 -7.18818e-09 0)
(0.00100007 -1.13147e-08 0)
(0.00100009 -2.04967e-08 0)
(0.00100011 -2.70663e-08 0)
(0.00100013 -4.40318e-08 0)
(0.00100016 -5.32525e-08 0)
(0.00100019 -8.4671e-08 0)
(0.00100022 -9.53162e-08 0)
(0.00100028 -1.54602e-07 0)
(0.0010003 -1.61084e-07 0)
(0.00100039 -2.76095e-07 0)
(0.001 -2.84923e-09 0)
(0.001 -9.12931e-09 0)
(0.001 -1.61598e-08 0)
(0.001 -2.41881e-08 0)
(0.00100001 -3.28469e-08 0)
(0.00100001 -4.26036e-08 0)
(0.00100002 -5.27421e-08 0)
(0.00100002 -6.45382e-08 0)
(0.00100003 -7.65315e-08 0)
(0.00100004 -9.13311e-08 0)
(0.00100005 -1.05702e-07 0)
(0.00100007 -1.25412e-07 0)
(0.00100009 -1.42612e-07 0)
(0.00100011 -1.70671e-07 0)
(0.00100013 -1.90917e-07 0)
(0.00100016 -2.33998e-07 0)
(0.00100018 -2.55592e-07 0)
(0.00100024 -3.26465e-07 0)
(0.00100025 -3.4165e-07 0)
(0.00100033 -4.64655e-07 0)
(0.001 -2.50398e-09 0)
(0.001 -7.36413e-09 0)
(0.001 -1.19638e-08 0)
(0.00100001 -1.66744e-08 0)
(0.00100001 -2.14582e-08 0)
(0.00100001 -2.70785e-08 0)
(0.00100002 -3.31305e-08 0)
(0.00100002 -4.09141e-08 0)
(0.00100003 -4.90756e-08 0)
(0.00100004 -6.0349e-08 0)
(0.00100005 -7.1443e-08 0)
(0.00100006 -8.82599e-08 0)
(0.00100008 -1.03013e-07 0)
(0.0010001 -1.29101e-07 0)
(0.00100011 -1.47919e-07 0)
(0.00100014 -1.89845e-07 0)
(0.00100016 -2.10763e-07 0)
(0.0010002 -2.80413e-07 0)
(0.00100021 -2.94741e-07 0)
(0.00100027 -4.15357e-07 0)
(0.001 -2.85095e-09 0)
(0.001 -8.71525e-09 0)
(0.001 -1.49248e-08 0)
(0.001 -2.19117e-08 0)
(0.00100001 -2.96375e-08 0)
(0.00100001 -3.86733e-08 0)
(0.00100001 -4.85577e-08 0)
(0.00100002 -6.04301e-08 0)
(0.00100002 -7.29519e-08 0)
(0.00100003 -8.88048e-08 0)
(0.00100004 -1.04615e-07 0)
(0.00100005 -1.26388e-07 0)
(0.00100006 -1.46178e-07 0)
(0.00100007 -1.77527e-07 0)
(0.00100009 -2.01436e-07 0)
(0.00100011 -2.48762e-07 0)
(0.00100012 -2.74437e-07 0)
(0.00100015 -3.49405e-07 0)
(0.00100016 -3.67376e-07 0)
(0.00100021 -4.92538e-07 0)
(0.001 -3.14605e-09 0)
(0.001 -9.58442e-09 0)
(0.001 -1.62869e-08 0)
(0.001 -2.36079e-08 0)
(0.001 -3.14638e-08 0)
(0.00100001 -4.04245e-08 0)
(0.00100001 -5.00387e-08 0)
(0.00100001 -6.15182e-08 0)
(0.00100002 -7.36194e-08 0)
(0.00100002 -8.9026e-08 0)
(0.00100003 -1.04479e-07 0)
(0.00100004 -1.25996e-07 0)
(0.00100004 -1.45711e-07 0)
(0.00100005 -1.77056e-07 0)
(0.00100006 -2.01243e-07 0)
(0.00100008 -2.48727e-07 0)
(0.00100009 -2.74925e-07 0)
(0.00100011 -3.49664e-07 0)
(0.00100012 -3.67824e-07 0)
(0.00100015 -4.91242e-07 0)
(0.001 -3.30306e-09 0)
(0.001 -1.00723e-08 0)
(0.001 -1.70619e-08 0)
(0.001 -2.46722e-08 0)
(0.001 -3.28204e-08 0)
(0.001 -4.21929e-08 0)
(0.00100001 -5.23436e-08 0)
(0.00100001 -6.4571e-08 0)
(0.00100001 -7.76017e-08 0)
(0.00100001 -9.41363e-08 0)
(0.00100002 -1.10899e-07 0)
(0.00100002 -1.3392e-07 0)
(0.00100003 -1.55197e-07 0)
(0.00100003 -1.88323e-07 0)
(0.00100004 -2.14216e-07 0)
(0.00100005 -2.63658e-07 0)
(0.00100005 -2.91423e-07 0)
(0.00100007 -3.68162e-07 0)
(0.00100007 -3.87353e-07 0)
(0.00100009 -5.12887e-07 0)
(0.001 -3.36886e-09 0)
(0.001 -1.0299e-08 0)
(0.001 -1.74466e-08 0)
(0.001 -2.52359e-08 0)
(0.001 -3.36006e-08 0)
(0.001 -4.3251e-08 0)
(0.001 -5.37425e-08 0)
(0.001 -6.6356e-08 0)
(0.001 -7.97816e-08 0)
(0.001 -9.67036e-08 0)
(0.00100001 -1.13857e-07 0)
(0.00100001 -1.37237e-07 0)
(0.00100001 -1.58903e-07 0)
(0.00100001 -1.92383e-07 0)
(0.00100001 -2.18705e-07 0)
(0.00100002 -2.68445e-07 0)
(0.00100002 -2.96632e-07 0)
(0.00100002 -3.73446e-07 0)
(0.00100002 -3.92948e-07 0)
(0.00100003 -5.17896e-07 0)
(0.001 -3.37089e-09 0)
(0.001 -1.02896e-08 0)
(0.001 -1.74463e-08 0)
(0.000999999 -2.52292e-08 0)
(0.000999999 -3.36033e-08 0)
(0.000999999 -4.32471e-08 0)
(0.000999998 -5.37471e-08 0)
(0.000999997 -6.63593e-08 0)
(0.000999996 -7.978e-08 0)
(0.000999995 -9.67087e-08 0)
(0.000999994 -1.13849e-07 0)
(0.000999993 -1.37222e-07 0)
(0.000999991 -1.58895e-07 0)
(0.000999989 -1.92372e-07 0)
(0.000999987 -2.18697e-07 0)
(0.000999984 -2.6845e-07 0)
(0.000999982 -2.96647e-07 0)
(0.000999978 -3.73456e-07 0)
(0.000999977 -3.92954e-07 0)
(0.00099997 -5.17895e-07 0)
(0.001 -3.29806e-09 0)
(0.001 -1.00597e-08 0)
(0.000999999 -1.70616e-08 0)
(0.000999998 -2.46648e-08 0)
(0.000999997 -3.28256e-08 0)
(0.000999996 -4.21884e-08 0)
(0.000999994 -5.23508e-08 0)
(0.000999992 -6.45843e-08 0)
(0.000999989 -7.75996e-08 0)
(0.000999986 -9.41484e-08 0)
(0.000999983 -1.10895e-07 0)
(0.000999978 -1.33893e-07 0)
(0.000999973 -1.5517e-07 0)
(0.000999967 -1.88288e-07 0)
(0.000999961 -2.14195e-07 0)
(0.000999952 -2.63657e-07 0)
(0.000999946 -2.91438e-07 0)
(0.000999934 -3.68159e-07 0)
(0.00099993 -3.87346e-07 0)
(0.000999911 -5.12839e-07 0)
(0.001 -3.12973e-09 0)
(0.001 -9.58406e-09 0)
(0.000999999 -1.62861e-08 0)
(0.000999997 -2.36177e-08 0)
(0.000999996 -3.14602e-08 0)
(0.000999993 -4.04283e-08 0)
(0.000999991 -5.00338e-08 0)
(0.000999987 -6.15377e-08 0)
(0.000999983 -7.36233e-08 0)
(0.000999977 -8.90323e-08 0)
(0.000999971 -1.04503e-07 0)
(0.000999964 -1.26004e-07 0)
(0.000999956 -1.45696e-07 0)
(0.000999945 -1.77029e-07 0)
(0.000999936 -2.01235e-07 0)
(0.000999921 -2.48733e-07 0)
(0.000999911 -2.74949e-07 0)
(0.00099989 -3.49684e-07 0)
(0.000999882 -3.6785e-07 0)
(0.000999852 -4.9124e-07 0)
(0.001 -2.83965e-09 0)
(0.000999999 -8.72232e-09 0)
(0.000999998 -1.49276e-08 0)
(0.000999996 -2.19229e-08 0)
(0.000999994 -2.96182e-08 0)
(0.000999991 -3.8678e-08 0)
(0.000999987 -4.85341e-08 0)
(0.000999982 -6.04255e-08 0)
(0.000999977 -7.29573e-08 0)
(0.000999969 -8.87801e-08 0)
(0.000999962 -1.04617e-07 0)
(0.000999951 -1.26402e-07 0)
(0.000999941 -1.46172e-07 0)
(0.000999925 -1.77489e-07 0)
(0.000999913 -2.01393e-07 0)
(0.000999891 -2.48697e-07 0)
(0.000999878 -2.74387e-07 0)
(0.000999847 -3.49325e-07 0)
(0.000999839 -3.67307e-07 0)
(0.000999792 -4.924e-07 0)
(0.001 -2.50873e-09 0)
(0.000999999 -7.37251e-09 0)
(0.000999997 -1.19705e-08 0)
(0.000999995 -1.66671e-08 0)
(0.000999991 -2.14555e-08 0)
(0.000999987 -2.70804e-08 0)
(0.000999982 -3.31246e-08 0)
(0.000999975 -4.08857e-08 0)
(0.000999968 -4.90948e-08 0)
(0.000999959 -6.03457e-08 0)
(0.000999949 -7.14384e-08 0)
(0.000999935 -8.8287e-08 0)
(0.000999922 -1.03058e-07 0)
(0.000999903 -1.29129e-07 0)
(0.000999886 -1.47926e-07 0)
(0.000999859 -1.89826e-07 0)
(0.000999841 -2.10752e-07 0)
(0.000999802 -2.80394e-07 0)
(0.000999788 -2.94735e-07 0)
(0.000999731 -4.15336e-07 0)
(0.001 -2.87458e-09 0)
(0.001 -9.12612e-09 0)
(0.000999999 -1.61434e-08 0)
(0.000999997 -2.41605e-08 0)
(0.000999994 -3.28706e-08 0)
(0.00099999 -4.2574e-08 0)
(0.000999984 -5.27775e-08 0)
(0.000999977 -6.4481e-08 0)
(0.000999969 -7.65078e-08 0)
(0.000999958 -9.13221e-08 0)
(0.000999946 -1.05669e-07 0)
(0.00099993 -1.25386e-07 0)
(0.000999915 -1.42626e-07 0)
(0.000999891 -1.70679e-07 0)
(0.000999872 -1.90914e-07 0)
(0.000999837 -2.33939e-07 0)
(0.000999817 -2.55537e-07 0)
(0.000999764 -3.26354e-07 0)
(0.000999752 -3.41567e-07 0)
(0.00099967 -4.64489e-07 0)
(0.001 -1.20862e-10 0)
(0.000999998 9.43108e-11 0)
(0.000999995 8.1147e-10 0)
(0.000999991 1.53199e-09 0)
(0.000999986 2.15351e-09 0)
(0.00099998 2.08128e-09 0)
(0.000999973 1.53016e-09 0)
(0.000999965 -3.58832e-10 0)
(0.000999955 -2.44684e-09 0)
(0.000999943 -7.18442e-09 0)
(0.00099993 -1.13025e-08 0)
(0.000999911 -2.04793e-08 0)
(0.000999894 -2.70792e-08 0)
(0.000999867 -4.40572e-08 0)
(0.000999845 -5.32807e-08 0)
(0.000999805 -8.46639e-08 0)
(0.000999779 -9.53014e-08 0)
(0.00099972 -1.54554e-07 0)
(0.000999699 -1.61049e-07 0)
(0.000999611 -2.76031e-07 0)
(0.001 -3.94394e-09 0)
(0.001 -1.29459e-08 0)
(0.001 -2.29452e-08 0)
(0.000999998 -3.35407e-08 0)
(0.000999995 -4.40943e-08 0)
(0.000999989 -5.49489e-08 0)
(0.000999983 -6.57316e-08 0)
(0.000999974 -7.74536e-08 0)
(0.000999963 -8.89351e-08 0)
(0.000999949 -1.02637e-07 0)
(0.000999935 -1.15359e-07 0)
(0.000999914 -1.32424e-07 0)
(0.000999896 -1.46429e-07 0)
(0.000999864 -1.69847e-07 0)
(0.000999841 -1.84943e-07 0)
(0.000999791 -2.20907e-07 0)
(0.000999767 -2.35579e-07 0)
(0.000999687 -2.97501e-07 0)
(0.000999672 -3.06315e-07 0)
(0.000999539 -4.22278e-07 0)
(0.001 3.99732e-09 0)
(0.000999996 1.21073e-08 0)
(0.000999991 2.02085e-08 0)
(0.000999987 2.79353e-08 0)
(0.000999982 3.52584e-08 0)
(0.000999976 4.16692e-08 0)
(0.000999969 4.79894e-08 0)
(0.000999959 5.30688e-08 0)
(0.000999948 5.83578e-08 0)
(0.000999934 6.22787e-08 0)
(0.000999919 6.69353e-08 0)
(0.000999897 6.85925e-08 0)
(0.000999877 7.27307e-08 0)
(0.000999844 6.99462e-08 0)
(0.000999819 7.4087e-08 0)
(0.000999767 6.17765e-08 0)
(0.000999738 6.72428e-08 0)
(0.000999654 3.18807e-08 0)
(0.000999629 3.99218e-08 0)
(0.000999495 -5.44974e-08 0)
(0.001 -8.70719e-09 0)
(0.001 -2.37122e-08 0)
(0.001 -3.59666e-08 0)
(0.000999997 -4.66966e-08 0)
(0.000999993 -5.68272e-08 0)
(0.000999986 -6.74238e-08 0)
(0.000999979 -7.78422e-08 0)
(0.000999968 -8.92797e-08 0)
(0.000999958 -1.00156e-07 0)
(0.000999942 -1.12081e-07 0)
(0.000999928 -1.22764e-07 0)
(0.000999903 -1.36199e-07 0)
(0.000999886 -1.46498e-07 0)
(0.000999846 -1.63276e-07 0)
(0.000999826 -1.72111e-07 0)
(0.00099976 -1.96256e-07 0)
(0.000999742 -2.00828e-07 0)
(0.000999623 -2.43108e-07 0)
(0.000999618 -2.39324e-07 0)
(0.000999394 -3.32075e-07 0)
)
;

boundaryField
{
    sides
    {
        type            slip;
    }
    inlet
    {
        type            fixedValue;
        value           uniform (0.001 0 0);
    }
    outlet
    {
        type            zeroGradient;
    }
    frontAndBack
    {
        type            empty;
    }
}


// ************************************************************************* //
