/*--------------------------------*- C++ -*----------------------------------*\
  =========                 |
  \\      /  F ield         | OpenFOAM: The Open Source CFD Toolbox
   \\    /   O peration     | Website:  https://openfoam.org
    \\  /    A nd           | Version:  7
     \\/     M anipulation  |
\*---------------------------------------------------------------------------*/
FoamFile
{
    version     2.0;
    format      ascii;
    class       surfaceScalarField;
    location    "70";
    object      phi;
}
// * * * * * * * * * * * * * * * * * * * * * * * * * * * * * * * * * * * * * //

dimensions      [0 4 -1 0 0 0 0];

internalField   nonuniform List<scalar> 
760
(
4.99999e-06
9.88993e-12
4.99999e-06
-4.17027e-12
5.00001e-06
-1.24071e-11
5.00003e-06
-1.91929e-11
5.00005e-06
-2.65943e-11
5.00009e-06
-3.26081e-11
5.00013e-06
-4.74435e-11
5.00018e-06
-5.42175e-11
5.00025e-06
-6.26516e-11
5.00032e-06
-7.82746e-11
5.00042e-06
-9.01704e-11
5.00053e-06
-1.14014e-10
5.00066e-06
-1.2685e-10
5.00082e-06
-1.67633e-10
5.001e-06
-1.77744e-10
5.00126e-06
-2.56456e-10
5.00151e-06
-2.55923e-10
5.00195e-06
-4.31611e-10
5.00236e-06
-4.14264e-10
-8.91935e-10
5.00002e-06
-1.18515e-11
5.00004e-06
-1.86254e-11
5.00005e-06
-2.86372e-11
5.00007e-06
-4.1075e-11
5.0001e-06
-5.38934e-11
5.00014e-06
-6.87026e-11
5.00018e-06
-8.48991e-11
5.00023e-06
-1.05378e-10
5.00029e-06
-1.23848e-10
5.00037e-06
-1.53555e-10
5.00045e-06
-1.77297e-10
5.00056e-06
-2.22133e-10
5.00069e-06
-2.50118e-10
5.00084e-06
-3.23608e-10
5.00102e-06
-3.53192e-10
5.00125e-06
-4.85295e-10
5.0015e-06
-5.0874e-10
5.00184e-06
-7.67699e-10
5.00218e-06
-7.60191e-10
-1.26262e-09
4.99999e-06
-4.35699e-12
4.99999e-06
-1.99269e-11
5e-06
-3.69605e-11
5.00002e-06
-5.58254e-11
5.00004e-06
-7.57443e-11
5.00007e-06
-9.84011e-11
5.00011e-06
-1.22455e-10
5.00016e-06
-1.52007e-10
5.00022e-06
-1.82873e-10
5.00029e-06
-2.24349e-10
5.00037e-06
-2.62728e-10
5.00047e-06
-3.23388e-10
5.00059e-06
-3.71511e-10
5.00074e-06
-4.66521e-10
5.00091e-06
-5.24512e-10
5.00111e-06
-6.85492e-10
5.00135e-06
-7.47247e-10
5.00162e-06
-1.04091e-09
5.00194e-06
-1.08373e-09
-1.69061e-09
5.00001e-06
-1.23194e-11
5.00002e-06
-3.26779e-11
5.00004e-06
-5.34869e-11
5.00006e-06
-7.65717e-11
5.00008e-06
-1.00839e-10
5.00011e-06
-1.29757e-10
5.00015e-06
-1.59665e-10
5.0002e-06
-1.98077e-10
5.00025e-06
-2.36866e-10
5.00032e-06
-2.89496e-10
5.00039e-06
-3.38944e-10
5.00049e-06
-4.15402e-10
5.00059e-06
-4.77691e-10
5.00072e-06
-5.95017e-10
5.00087e-06
-6.71127e-10
5.00105e-06
-8.63404e-10
5.00124e-06
-9.46006e-10
5.00148e-06
-1.27966e-09
5.00173e-06
-1.33211e-09
-1.89935e-09
5e-06
-1.13137e-11
5e-06
-3.56784e-11
5.00001e-06
-6.09828e-11
5.00002e-06
-8.8939e-11
5.00004e-06
-1.18747e-10
5.00006e-06
-1.53668e-10
5.0001e-06
-1.90888e-10
5.00013e-06
-2.36658e-10
5.00018e-06
-2.84096e-10
5.00024e-06
-3.46206e-10
5.00031e-06
-4.07321e-10
5.00039e-06
-4.95618e-10
5.00048e-06
-5.73292e-10
5.00059e-06
-7.0558e-10
5.00072e-06
-8.01589e-10
5.00087e-06
-1.01064e-09
5.00104e-06
-1.11544e-09
5.00122e-06
-1.46115e-09
5.00142e-06
-1.53359e-09
-2.16443e-09
5e-06
-1.36398e-11
5.00001e-06
-4.22871e-11
5.00002e-06
-7.15937e-11
5.00003e-06
-1.03461e-10
5.00005e-06
-1.37476e-10
5.00008e-06
-1.76855e-10
5.00011e-06
-2.19384e-10
5.00014e-06
-2.71118e-10
5.00018e-06
-3.25188e-10
5.00023e-06
-3.95495e-10
5.00029e-06
-4.64902e-10
5.00036e-06
-5.63737e-10
5.00044e-06
-6.51975e-10
5.00053e-06
-7.98004e-10
5.00063e-06
-9.0638e-10
5.00075e-06
-1.13209e-09
5.00089e-06
-1.24981e-09
5.00104e-06
-1.61534e-09
5.00121e-06
-1.69817e-09
-2.29541e-09
5e-06
-1.54486e-11
5.00001e-06
-4.66869e-11
5.00001e-06
-7.87811e-11
5.00002e-06
-1.13291e-10
5.00004e-06
-1.50599e-10
5.00005e-06
-1.93769e-10
5.00008e-06
-2.40696e-10
5.0001e-06
-2.97236e-10
5.00013e-06
-3.57114e-10
5.00017e-06
-4.33637e-10
5.00022e-06
-5.10298e-10
5.00027e-06
-6.17061e-10
5.00033e-06
-7.14645e-10
5.00041e-06
-8.70074e-10
5.00049e-06
-9.89382e-10
5.00058e-06
-1.22515e-09
5.00069e-06
-1.35402e-09
5.0008e-06
-1.72583e-09
5.00091e-06
-1.81299e-09
-2.44407e-09
5e-06
-1.64447e-11
5e-06
-4.96779e-11
5.00001e-06
-8.37454e-11
5.00002e-06
-1.20747e-10
5.00003e-06
-1.60605e-10
5.00004e-06
-2.0675e-10
5.00006e-06
-2.56862e-10
5.00008e-06
-3.17101e-10
5.0001e-06
-3.8107e-10
5.00013e-06
-4.62102e-10
5.00016e-06
-5.43828e-10
5.0002e-06
-6.56402e-10
5.00025e-06
-7.59998e-10
5.0003e-06
-9.22288e-10
5.00036e-06
-1.04836e-09
5.00042e-06
-1.29158e-09
5.0005e-06
-1.42689e-09
5.00058e-06
-1.8065e-09
5.00067e-06
-1.90137e-09
-2.51834e-09
5e-06
-1.69168e-11
5e-06
-5.14786e-11
5.00001e-06
-8.68544e-11
5.00001e-06
-1.25478e-10
5.00002e-06
-1.66953e-10
5.00002e-06
-2.1484e-10
5.00003e-06
-2.66765e-10
5.00005e-06
-3.29155e-10
5.00006e-06
-3.9547e-10
5.00008e-06
-4.7917e-10
5.0001e-06
-5.63975e-10
5.00012e-06
-6.79902e-10
5.00015e-06
-7.87126e-10
5.00018e-06
-9.53442e-10
5.00022e-06
-1.08373e-09
5.00026e-06
-1.33122e-09
5.0003e-06
-1.47063e-09
5.00035e-06
-1.85366e-09
5.00039e-06
-1.94881e-09
-2.57439e-09
5e-06
-1.70822e-11
5e-06
-5.2034e-11
5e-06
-8.79289e-11
5e-06
-1.27063e-10
5.00001e-06
-1.69123e-10
5.00001e-06
-2.17533e-10
5.00001e-06
-2.70083e-10
5.00002e-06
-3.33155e-10
5.00002e-06
-4.00246e-10
5.00003e-06
-4.84887e-10
5.00003e-06
-5.70691e-10
5.00004e-06
-6.87714e-10
5.00005e-06
-7.96209e-10
5.00006e-06
-9.63797e-10
5.00007e-06
-1.09552e-09
5.00009e-06
-1.34437e-09
5.0001e-06
-1.48517e-09
5.00011e-06
-1.86898e-09
5.00013e-06
-1.96604e-09
-2.59073e-09
5e-06
-1.69369e-11
5e-06
-5.13818e-11
5e-06
-8.68524e-11
5e-06
-1.25411e-10
4.99999e-06
-1.66981e-10
4.99999e-06
-2.14802e-10
4.99999e-06
-2.6681e-10
4.99998e-06
-3.29188e-10
4.99998e-06
-3.95454e-10
4.99997e-06
-4.7922e-10
4.99997e-06
-5.63901e-10
4.99996e-06
-6.79765e-10
4.99995e-06
-7.87045e-10
4.99994e-06
-9.53329e-10
4.99993e-06
-1.08365e-09
4.99991e-06
-1.33127e-09
4.9999e-06
-1.47076e-09
4.99988e-06
-1.85373e-09
4.99987e-06
-1.94886e-09
-2.57429e-09
5e-06
-1.6372e-11
5e-06
-4.96457e-11
4.99999e-06
-8.37459e-11
4.99999e-06
-1.20742e-10
4.99998e-06
-1.60633e-10
4.99998e-06
-2.06744e-10
4.99997e-06
-2.56884e-10
4.99995e-06
-3.17197e-10
4.99994e-06
-3.81063e-10
4.99992e-06
-4.6217e-10
4.9999e-06
-5.43877e-10
4.99988e-06
-6.56304e-10
4.99985e-06
-7.59831e-10
4.99982e-06
-9.22096e-10
4.99978e-06
-1.04827e-09
4.99974e-06
-1.29159e-09
4.9997e-06
-1.42698e-09
4.99965e-06
-1.80651e-09
4.99961e-06
-1.90139e-09
-2.5182e-09
5e-06
-1.53545e-11
5e-06
-4.67144e-11
4.99999e-06
-7.87747e-11
4.99998e-06
-1.13406e-10
4.99997e-06
-1.50539e-10
4.99996e-06
-1.93807e-10
4.99994e-06
-2.40615e-10
4.99992e-06
-2.97314e-10
4.9999e-06
-3.57138e-10
4.99987e-06
-4.33591e-10
4.99984e-06
-5.10433e-10
4.9998e-06
-6.1718e-10
4.99975e-06
-7.14594e-10
4.9997e-06
-8.69903e-10
4.99964e-06
-9.89263e-10
4.99958e-06
-1.22502e-09
4.9995e-06
-1.35398e-09
4.99942e-06
-1.72573e-09
4.99933e-06
-1.81294e-09
-2.44376e-09
5e-06
-1.36192e-11
4.99999e-06
-4.23299e-11
4.99999e-06
-7.1634e-11
4.99998e-06
-1.03464e-10
4.99996e-06
-1.37354e-10
4.99995e-06
-1.76904e-10
4.99992e-06
-2.19276e-10
4.9999e-06
-2.71047e-10
4.99987e-06
-3.25288e-10
4.99983e-06
-3.95378e-10
4.99978e-06
-4.64864e-10
4.99973e-06
-5.6387e-10
4.99967e-06
-6.5211e-10
4.99959e-06
-7.97984e-10
4.99951e-06
-9.06267e-10
4.99942e-06
-1.13184e-09
4.99931e-06
-1.24963e-09
4.9992e-06
-1.61506e-09
4.99909e-06
-1.69795e-09
-2.29499e-09
5e-06
-1.14088e-11
4.99999e-06
-3.5717e-11
4.99998e-06
-6.0961e-11
4.99997e-06
-8.87807e-11
4.99995e-06
-1.18847e-10
4.99992e-06
-1.53593e-10
4.99989e-06
-1.90907e-10
4.99986e-06
-2.36367e-10
4.99982e-06
-2.84109e-10
4.99977e-06
-3.46201e-10
4.99971e-06
-4.07201e-10
4.99964e-06
-4.95612e-10
4.99956e-06
-5.73477e-10
4.99947e-06
-7.05707e-10
4.99937e-06
-8.016e-10
4.99925e-06
-1.01043e-09
4.99911e-06
-1.11525e-09
4.99896e-06
-1.46079e-09
4.99879e-06
-1.53333e-09
-2.16395e-09
5e-06
-1.24869e-11
5e-06
-3.26581e-11
4.99999e-06
-5.33534e-11
4.99998e-06
-7.6447e-11
4.99996e-06
-1.01055e-10
4.99994e-06
-1.29555e-10
4.9999e-06
-1.60194e-10
4.99987e-06
-1.97861e-10
4.99982e-06
-2.36644e-10
4.99976e-06
-2.89488e-10
4.99969e-06
-3.38823e-10
4.99961e-06
-4.15238e-10
4.99952e-06
-4.77735e-10
4.99941e-06
-5.95119e-10
4.99928e-06
-6.71221e-10
4.99913e-06
-8.63267e-10
4.99896e-06
-9.45856e-10
4.99878e-06
-1.27928e-09
4.99858e-06
-1.33183e-09
-1.8988e-09
4.99999e-06
-4.4543e-12
4.99998e-06
-1.98701e-11
4.99996e-06
-3.68896e-11
4.99994e-06
-5.59351e-11
4.99992e-06
-7.58033e-11
4.99989e-06
-9.87092e-11
4.99985e-06
-1.22976e-10
4.9998e-06
-1.52851e-10
4.99975e-06
-1.82754e-10
4.99968e-06
-2.24325e-10
4.99961e-06
-2.62714e-10
4.99951e-06
-3.23256e-10
4.99941e-06
-3.71462e-10
4.99928e-06
-4.66549e-10
4.99913e-06
-5.24661e-10
4.99895e-06
-6.85485e-10
4.99876e-06
-7.47257e-10
4.99852e-06
-1.04067e-09
4.99827e-06
-1.08362e-09
-1.69022e-09
5.00001e-06
-1.16922e-11
5.00001e-06
-1.86018e-11
5e-06
-2.88557e-11
4.99998e-06
-4.13779e-11
4.99996e-06
-5.36913e-11
4.99993e-06
-6.89586e-11
4.99989e-06
-8.3584e-11
4.99984e-06
-1.05318e-10
4.99978e-06
-1.24095e-10
4.99971e-06
-1.5356e-10
4.99963e-06
-1.77373e-10
4.99953e-06
-2.2205e-10
4.99941e-06
-2.49947e-10
4.99926e-06
-3.23401e-10
4.99909e-06
-3.53206e-10
4.99889e-06
-4.85236e-10
4.99865e-06
-5.08806e-10
4.99838e-06
-7.67483e-10
4.99805e-06
-7.60107e-10
-1.26215e-09
4.99998e-06
1.01495e-11
4.99996e-06
-4.20779e-12
4.99995e-06
-1.28336e-11
4.99993e-06
-1.93159e-11
4.9999e-06
-2.61364e-11
4.99986e-06
-3.1675e-11
4.99982e-06
-3.36208e-11
4.99977e-06
-5.55559e-11
4.99971e-06
-6.30947e-11
4.99963e-06
-7.85024e-11
4.99955e-06
-9.03975e-11
4.99944e-06
-1.14054e-10
4.99931e-06
-1.26734e-10
4.99916e-06
-1.67489e-10
4.99898e-06
-1.77781e-10
4.99875e-06
-2.56548e-10
4.9985e-06
-2.56095e-10
4.99817e-06
-4.31671e-10
4.99782e-06
-4.1436e-10
-8.91942e-10
5.00001e-06
5.00001e-06
4.99999e-06
4.99997e-06
4.99995e-06
4.99991e-06
4.99987e-06
4.99982e-06
4.99975e-06
4.99968e-06
4.99958e-06
4.99947e-06
4.99934e-06
4.99918e-06
4.999e-06
4.99874e-06
4.99849e-06
4.99805e-06
4.99764e-06
)
;

boundaryField
{
    sides
    {
        type            calculated;
        value           uniform 0;
    }
    inlet
    {
        type            calculated;
        value           nonuniform List<scalar> 
20
(
-5e-06
-5e-06
-5e-06
-5e-06
-5e-06
-5e-06
-5e-06
-5e-06
-5e-06
-5e-06
-5e-06
-5e-06
-5e-06
-5e-06
-5e-06
-5e-06
-5e-06
-5e-06
-5e-06
-5e-06
)
;
    }
    outlet
    {
        type            calculated;
        value           nonuniform List<scalar> 
20
(
5.00325e-06
5.00255e-06
5.00237e-06
5.00194e-06
5.00169e-06
5.00134e-06
5.00106e-06
5.00074e-06
5.00045e-06
5.00015e-06
4.99985e-06
4.99955e-06
4.99926e-06
4.99894e-06
4.99866e-06
4.99831e-06
4.99806e-06
4.99763e-06
4.99745e-06
4.99675e-06
)
;
    }
    frontAndBack
    {
        type            empty;
        value           nonuniform 0();
    }
}


// ************************************************************************* //
