/*--------------------------------*- C++ -*----------------------------------*\
  =========                 |
  \\      /  F ield         | OpenFOAM: The Open Source CFD Toolbox
   \\    /   O peration     | Website:  https://openfoam.org
    \\  /    A nd           | Version:  7
     \\/     M anipulation  |
\*---------------------------------------------------------------------------*/
FoamFile
{
    version     2.0;
    format      ascii;
    class       surfaceScalarField;
    location    "70";
    object      phi_0;
}
// * * * * * * * * * * * * * * * * * * * * * * * * * * * * * * * * * * * * * //

dimensions      [0 4 -1 0 0 0 0];

internalField   nonuniform List<scalar> 
760
(
4.99999e-06
1.00072e-11
4.99999e-06
-4.27023e-12
5.00001e-06
-1.25006e-11
5.00003e-06
-1.90754e-11
5.00005e-06
-2.66053e-11
5.00009e-06
-3.69389e-11
5.00013e-06
-3.87929e-11
5.00018e-06
-6.32435e-11
5.00025e-06
-6.30689e-11
5.00032e-06
-7.82707e-11
5.00042e-06
-9.02057e-11
5.00053e-06
-1.14058e-10
5.00066e-06
-1.26831e-10
5.00082e-06
-1.67564e-10
5.001e-06
-1.77685e-10
5.00126e-06
-2.56443e-10
5.00151e-06
-2.5596e-10
5.00195e-06
-4.31672e-10
5.00236e-06
-4.14332e-10
-8.91959e-10
5.00002e-06
-1.17619e-11
5.00004e-06
-1.87007e-11
5.00005e-06
-2.8786e-11
5.00007e-06
-4.11168e-11
5.0001e-06
-5.38219e-11
5.00014e-06
-6.87162e-11
5.00018e-06
-8.41215e-11
5.00023e-06
-1.03961e-10
5.00029e-06
-1.23965e-10
5.00037e-06
-1.53584e-10
5.00045e-06
-1.77301e-10
5.00056e-06
-2.22133e-10
5.00069e-06
-2.50053e-10
5.00084e-06
-3.23516e-10
5.00102e-06
-3.53137e-10
5.00125e-06
-4.85308e-10
5.0015e-06
-5.08816e-10
5.00184e-06
-7.67794e-10
5.00218e-06
-7.60298e-10
-1.26266e-09
4.99999e-06
-4.3272e-12
4.99999e-06
-1.99153e-11
5e-06
-3.69985e-11
5.00002e-06
-5.59353e-11
5.00004e-06
-7.57034e-11
5.00007e-06
-9.8728e-11
5.00011e-06
-1.22125e-10
5.00016e-06
-1.52427e-10
5.00022e-06
-1.83061e-10
5.00029e-06
-2.24317e-10
5.00037e-06
-2.62709e-10
5.00047e-06
-3.23303e-10
5.00059e-06
-3.71369e-10
5.00074e-06
-4.66418e-10
5.00091e-06
-5.24494e-10
5.00111e-06
-6.85567e-10
5.00135e-06
-7.4738e-10
5.00162e-06
-1.04102e-09
5.00194e-06
-1.08386e-09
-1.69065e-09
5.00001e-06
-1.23543e-11
5.00002e-06
-3.26387e-11
5.00004e-06
-5.34494e-11
5.00006e-06
-7.66587e-11
5.00008e-06
-1.00919e-10
5.00011e-06
-1.29853e-10
5.00015e-06
-1.59939e-10
5.0002e-06
-1.98427e-10
5.00025e-06
-2.36809e-10
5.00032e-06
-2.89503e-10
5.00039e-06
-3.38907e-10
5.00049e-06
-4.1524e-10
5.00059e-06
-4.77512e-10
5.00072e-06
-5.94928e-10
5.00087e-06
-6.71135e-10
5.00105e-06
-8.63509e-10
5.00124e-06
-9.46169e-10
5.00148e-06
-1.27979e-09
5.00173e-06
-1.33225e-09
-1.8994e-09
5e-06
-1.13668e-11
5e-06
-3.56583e-11
5.00001e-06
-6.09543e-11
5.00002e-06
-8.89457e-11
5.00004e-06
-1.18945e-10
5.00006e-06
-1.53684e-10
5.0001e-06
-1.9118e-10
5.00013e-06
-2.36729e-10
5.00018e-06
-2.84127e-10
5.00024e-06
-3.46281e-10
5.00031e-06
-4.07237e-10
5.00039e-06
-4.95435e-10
5.00048e-06
-5.73147e-10
5.00059e-06
-7.05528e-10
5.00072e-06
-8.01605e-10
5.00087e-06
-1.01073e-09
5.00104e-06
-1.1156e-09
5.00122e-06
-1.46129e-09
5.00142e-06
-1.53375e-09
-2.16449e-09
5e-06
-1.36525e-11
5.00001e-06
-4.22813e-11
5.00002e-06
-7.1627e-11
5.00003e-06
-1.03465e-10
5.00005e-06
-1.37641e-10
5.00008e-06
-1.77015e-10
5.00011e-06
-2.19634e-10
5.00014e-06
-2.71225e-10
5.00018e-06
-3.25364e-10
5.00023e-06
-3.95541e-10
5.00029e-06
-4.64746e-10
5.00036e-06
-5.63576e-10
5.00044e-06
-6.51846e-10
5.00053e-06
-7.97926e-10
5.00063e-06
-9.06359e-10
5.00075e-06
-1.13215e-09
5.00089e-06
-1.24997e-09
5.00104e-06
-1.61552e-09
5.00121e-06
-1.69841e-09
-2.2955e-09
5e-06
-1.54253e-11
5.00001e-06
-4.67026e-11
5.00001e-06
-7.88483e-11
5.00002e-06
-1.13416e-10
5.00004e-06
-1.50697e-10
5.00005e-06
-1.93965e-10
5.00008e-06
-2.40876e-10
5.0001e-06
-2.97389e-10
5.00013e-06
-3.57272e-10
5.00017e-06
-4.33604e-10
5.00022e-06
-5.10196e-10
5.00027e-06
-6.1698e-10
5.00033e-06
-7.14494e-10
5.00041e-06
-8.69911e-10
5.00049e-06
-9.8929e-10
5.00058e-06
-1.22517e-09
5.00069e-06
-1.35417e-09
5.0008e-06
-1.72605e-09
5.00091e-06
-1.8133e-09
-2.4442e-09
5e-06
-1.64145e-11
5e-06
-4.97209e-11
5.00001e-06
-8.38078e-11
5.00002e-06
-1.20894e-10
5.00003e-06
-1.60736e-10
5.00004e-06
-2.06946e-10
5.00006e-06
-2.57021e-10
5.00008e-06
-3.17297e-10
5.0001e-06
-3.81171e-10
5.00013e-06
-4.62116e-10
5.00016e-06
-5.43804e-10
5.0002e-06
-6.56263e-10
5.00025e-06
-7.59749e-10
5.0003e-06
-9.22062e-10
5.00036e-06
-1.04822e-09
5.00042e-06
-1.2916e-09
5.0005e-06
-1.42707e-09
5.00058e-06
-1.80675e-09
5.00067e-06
-1.90173e-09
-2.51849e-09
5e-06
-1.69196e-11
5e-06
-5.14981e-11
5.00001e-06
-8.69153e-11
5.00001e-06
-1.25583e-10
5.00002e-06
-1.67117e-10
5.00002e-06
-2.15036e-10
5.00003e-06
-2.66954e-10
5.00005e-06
-3.29365e-10
5.00006e-06
-3.95559e-10
5.00008e-06
-4.79236e-10
5.0001e-06
-5.63935e-10
5.00012e-06
-6.79689e-10
5.00015e-06
-7.86878e-10
5.00018e-06
-9.5326e-10
5.00022e-06
-1.0836e-09
5.00026e-06
-1.33123e-09
5.0003e-06
-1.47083e-09
5.00035e-06
-1.85393e-09
5.00039e-06
-1.94916e-09
-2.57453e-09
5e-06
-1.70955e-11
5e-06
-5.20561e-11
5e-06
-8.79777e-11
5e-06
-1.27163e-10
5.00001e-06
-1.69289e-10
5.00001e-06
-2.17746e-10
5.00001e-06
-2.70304e-10
5.00002e-06
-3.33362e-10
5.00002e-06
-4.00373e-10
5.00003e-06
-4.84937e-10
5.00003e-06
-5.70627e-10
5.00004e-06
-6.8754e-10
5.00005e-06
-7.95997e-10
5.00006e-06
-9.63645e-10
5.00007e-06
-1.09546e-09
5.00009e-06
-1.34443e-09
5.0001e-06
-1.48537e-09
5.00011e-06
-1.86922e-09
5.00013e-06
-1.96636e-09
-2.59085e-09
5e-06
-1.69382e-11
5e-06
-5.1415e-11
5e-06
-8.6896e-11
5e-06
-1.25526e-10
4.99999e-06
-1.67141e-10
4.99999e-06
-2.15026e-10
4.99999e-06
-2.6705e-10
4.99998e-06
-3.29371e-10
4.99998e-06
-3.9561e-10
4.99997e-06
-4.79213e-10
4.99997e-06
-5.63793e-10
4.99996e-06
-6.79641e-10
4.99995e-06
-7.86855e-10
4.99994e-06
-9.53188e-10
4.99993e-06
-1.08366e-09
4.99991e-06
-1.3314e-09
4.9999e-06
-1.47096e-09
4.99988e-06
-1.85391e-09
4.99987e-06
-1.94911e-09
-2.57438e-09
5e-06
-1.63846e-11
5e-06
-4.96436e-11
4.99999e-06
-8.38033e-11
4.99999e-06
-1.20829e-10
4.99998e-06
-1.60804e-10
4.99998e-06
-2.0694e-10
4.99997e-06
-2.57132e-10
4.99995e-06
-3.17346e-10
4.99994e-06
-3.81211e-10
4.99992e-06
-4.62163e-10
4.9999e-06
-5.43699e-10
4.99988e-06
-6.56115e-10
4.99985e-06
-7.59638e-10
4.99982e-06
-9.21965e-10
4.99978e-06
-1.04826e-09
4.99974e-06
-1.29171e-09
4.9997e-06
-1.42719e-09
4.99965e-06
-1.8067e-09
4.99961e-06
-1.90162e-09
-2.51828e-09
5e-06
-1.53591e-11
5e-06
-4.67166e-11
4.99999e-06
-7.88334e-11
4.99998e-06
-1.13458e-10
4.99997e-06
-1.50729e-10
4.99996e-06
-1.93951e-10
4.99994e-06
-2.40841e-10
4.99992e-06
-2.97469e-10
4.9999e-06
-3.5723e-10
4.99987e-06
-4.3366e-10
4.99984e-06
-5.10306e-10
4.9998e-06
-6.16914e-10
4.99975e-06
-7.1434e-10
4.9997e-06
-8.69745e-10
4.99964e-06
-9.89207e-10
4.99958e-06
-1.22511e-09
4.9995e-06
-1.3542e-09
4.99942e-06
-1.72594e-09
4.99933e-06
-1.81317e-09
-2.44384e-09
5e-06
-1.36062e-11
4.99999e-06
-4.2345e-11
4.99999e-06
-7.1668e-11
4.99998e-06
-1.03578e-10
4.99996e-06
-1.37469e-10
4.99995e-06
-1.77023e-10
4.99992e-06
-2.19426e-10
4.9999e-06
-2.71267e-10
4.99987e-06
-3.25323e-10
4.99983e-06
-3.9543e-10
4.99978e-06
-4.6486e-10
4.99973e-06
-5.63685e-10
4.99967e-06
-6.51844e-10
4.99959e-06
-7.97773e-10
4.99951e-06
-9.06157e-10
4.99942e-06
-1.1319e-09
4.99931e-06
-1.24985e-09
4.9992e-06
-1.6153e-09
4.99909e-06
-1.69822e-09
-2.29509e-09
5e-06
-1.13726e-11
4.99999e-06
-3.57426e-11
4.99998e-06
-6.10165e-11
4.99997e-06
-8.88937e-11
4.99995e-06
-1.18817e-10
4.99992e-06
-1.53808e-10
4.99989e-06
-1.90966e-10
4.99986e-06
-2.36613e-10
4.99982e-06
-2.84236e-10
4.99977e-06
-3.46203e-10
4.99971e-06
-4.07227e-10
4.99964e-06
-4.95574e-10
4.99956e-06
-5.73327e-10
4.99947e-06
-7.05533e-10
4.99937e-06
-8.01484e-10
4.99925e-06
-1.01043e-09
4.99911e-06
-1.1154e-09
4.99896e-06
-1.461e-09
4.99879e-06
-1.53361e-09
-2.16406e-09
5e-06
-1.2439e-11
5e-06
-3.26784e-11
4.99999e-06
-5.34047e-11
4.99998e-06
-7.64699e-11
4.99996e-06
-1.0106e-10
4.99994e-06
-1.2978e-10
4.9999e-06
-1.60028e-10
4.99987e-06
-1.97991e-10
4.99982e-06
-2.36831e-10
4.99976e-06
-2.89497e-10
4.99969e-06
-3.38805e-10
4.99961e-06
-4.15244e-10
4.99952e-06
-4.77684e-10
4.99941e-06
-5.95031e-10
4.99928e-06
-6.71149e-10
4.99913e-06
-8.63265e-10
4.99896e-06
-9.45959e-10
4.99878e-06
-1.27945e-09
4.99858e-06
-1.33206e-09
-1.8989e-09
4.99999e-06
-4.44497e-12
4.99998e-06
-1.9868e-11
4.99996e-06
-3.6889e-11
4.99994e-06
-5.58986e-11
4.99992e-06
-7.5945e-11
4.99989e-06
-9.86056e-11
4.99985e-06
-1.232e-10
4.9998e-06
-1.52292e-10
4.99975e-06
-1.82861e-10
4.99968e-06
-2.24342e-10
4.99961e-06
-2.62648e-10
4.99951e-06
-3.23227e-10
4.99941e-06
-3.7145e-10
4.99928e-06
-4.66539e-10
4.99913e-06
-5.24654e-10
4.99895e-06
-6.85504e-10
4.99876e-06
-7.47325e-10
4.99852e-06
-1.04077e-09
4.99827e-06
-1.08377e-09
-1.69027e-09
5.00001e-06
-1.17202e-11
5.00001e-06
-1.8504e-11
5e-06
-2.87635e-11
4.99998e-06
-4.13823e-11
4.99996e-06
-5.3923e-11
4.99993e-06
-6.89429e-11
4.99989e-06
-8.48902e-11
4.99984e-06
-1.05264e-10
4.99978e-06
-1.23868e-10
4.99971e-06
-1.53544e-10
4.99963e-06
-1.77276e-10
4.99953e-06
-2.21938e-10
4.99941e-06
-2.49896e-10
4.99926e-06
-3.23417e-10
4.99909e-06
-3.53248e-10
4.99889e-06
-4.85285e-10
4.99865e-06
-5.08857e-10
4.99838e-06
-7.67518e-10
4.99805e-06
-7.60167e-10
-1.26217e-09
4.99998e-06
1.00875e-11
4.99996e-06
-4.09971e-12
4.99995e-06
-1.27422e-11
4.99993e-06
-1.94778e-11
4.9999e-06
-2.62722e-11
4.99986e-06
-3.4113e-11
4.99982e-06
-4.34056e-11
4.99977e-06
-5.60384e-11
4.99971e-06
-6.32203e-11
4.99963e-06
-7.84487e-11
4.99955e-06
-9.02702e-11
4.99944e-06
-1.13918e-10
4.99931e-06
-1.2668e-10
4.99916e-06
-1.6752e-10
4.99898e-06
-1.77841e-10
4.99875e-06
-2.56602e-10
4.9985e-06
-2.56129e-10
4.99817e-06
-4.31678e-10
4.99782e-06
-4.14375e-10
-8.91946e-10
5.00001e-06
5.00001e-06
4.99999e-06
4.99997e-06
4.99995e-06
4.99991e-06
4.99987e-06
4.99982e-06
4.99975e-06
4.99968e-06
4.99958e-06
4.99947e-06
4.99934e-06
4.99918e-06
4.999e-06
4.99874e-06
4.99849e-06
4.99805e-06
4.99764e-06
)
;

boundaryField
{
    sides
    {
        type            calculated;
        value           uniform 0;
    }
    inlet
    {
        type            calculated;
        value           nonuniform List<scalar> 
20
(
-5e-06
-5e-06
-5e-06
-5e-06
-5e-06
-5e-06
-5e-06
-5e-06
-5e-06
-5e-06
-5e-06
-5e-06
-5e-06
-5e-06
-5e-06
-5e-06
-5e-06
-5e-06
-5e-06
-5e-06
)
;
    }
    outlet
    {
        type            calculated;
        value           nonuniform List<scalar> 
20
(
5.00325e-06
5.00255e-06
5.00237e-06
5.00194e-06
5.00169e-06
5.00134e-06
5.00106e-06
5.00074e-06
5.00045e-06
5.00015e-06
4.99985e-06
4.99955e-06
4.99926e-06
4.99894e-06
4.99866e-06
4.99831e-06
4.99806e-06
4.99763e-06
4.99745e-06
4.99675e-06
)
;
    }
    frontAndBack
    {
        type            empty;
        value           nonuniform 0();
    }
}


// ************************************************************************* //
