/*--------------------------------*- C++ -*----------------------------------*\
  =========                 |
  \\      /  F ield         | OpenFOAM: The Open Source CFD Toolbox
   \\    /   O peration     | Website:  https://openfoam.org
    \\  /    A nd           | Version:  7
     \\/     M anipulation  |
\*---------------------------------------------------------------------------*/
FoamFile
{
    version     2.0;
    format      ascii;
    class       volScalarField;
    location    "100";
    object      epsilon;
}
// * * * * * * * * * * * * * * * * * * * * * * * * * * * * * * * * * * * * * //

dimensions      [0 2 -3 0 0 0 0];

internalField   nonuniform List<scalar> 
120313
(
109.267
77.4071
62.8938
52.6351
46.7936
42.3385
38.6299
35.4603
32.6293
30.2028
28.0088
26.0227
24.3423
22.9722
21.8217
20.8705
20.1082
19.4493
18.9016
18.4118
17.9934
17.6425
17.528
18.6625
106.917
75.6535
60.7088
51.8393
46.0468
41.7675
38.2388
35.394
32.7597
30.181
27.6378
25.3049
22.7231
21.8282
19.9093
19.0627
18.1246
17.3768
16.7386
16.1987
15.7286
15.3895
15.3958
17.6923
97.3653
66.2833
54.2101
47.6916
40.0007
35.7587
32.9712
30.6113
28.5204
26.561
24.7433
23.1436
21.6989
20.413
19.2556
18.2209
17.2829
16.4345
15.6932
15.0525
14.4788
14.0764
14.0683
16.2973
90.426
64.6555
51.669
45.1578
39.2461
33.3822
30.7897
28.6079
26.723
25.065
23.5648
22.1588
20.8191
19.5537
18.4092
17.3992
16.4862
15.6599
14.9061
14.2306
13.6331
13.2159
13.1789
15.3108
90.1255
66.0813
52.1769
44.8335
39.7545
33.1601
30.2502
28.1607
26.3378
24.7367
23.2913
21.9325
20.6428
19.444
18.3045
17.2628
16.3251
15.4691
14.7027
14.0097
13.3834
12.9325
12.8494
14.9158
92.94
67.6431
53.4681
46.0179
40.6991
34.2055
31.2093
28.9943
27.0838
25.3835
23.7431
22.239
20.9042
19.69
18.6001
17.5983
16.6565
15.7693
14.9605
14.2429
13.5999
13.1151
13.0025
15.0483
96.1718
70.2279
55.9148
47.8253
42.2612
38.2091
35.1036
32.5485
30.3539
28.314
26.3426
24.5548
22.6941
20.7594
19.575
17.8665
17.2231
15.9167
15.2979
14.6916
14.1647
13.7376
13.6248
15.6689
102.414
73.7651
60.5002
52.903
44.6117
39.4742
36.5173
33.8982
31.4172
29.0841
27.0375
25.2898
23.7383
22.3557
21.1085
19.9773
18.9874
18.1477
17.4008
16.7578
16.186
15.7621
15.591
16.6948
109.744
164.526
194.291
211.811
221.252
230.657
240.506
225.723
161.967
112.173
81.8705
63.1076
51.6182
43.136
38.2793
34.1692
31.0225
28.4244
26.203
24.328
22.7399
21.3078
20.0493
18.9093
17.8964
16.9655
16.0347
15.1
14.1273
13.1378
12.2008
11.2484
10.34
9.51329
8.65727
7.79877
120.431
167.311
193.782
207.961
213.842
219.864
225.916
218.419
158.848
92.0228
65.4355
51.8779
42.335
35.7735
31.2846
28.0816
25.5217
23.2978
21.4082
19.7565
18.2638
16.9451
15.8523
14.8894
14.0574
13.0686
12.3851
11.4549
11.0904
10.4915
10.1562
9.91818
10.0898
10.2165
10.0396
9.48666
126.155
166.522
190.29
203.045
208.029
212.712
216.831
210.766
155.47
82.9644
59.0583
46.5516
38.6998
32.6948
28.5239
25.6203
23.3277
21.4546
19.7654
18.2443
16.9397
15.7139
14.6797
13.7068
12.8903
12.1179
11.4775
10.868
10.3505
9.60513
9.34102
9.09254
9.71301
10.0094
9.81941
9.25731
128.49
165.186
187.016
198.539
203.017
205.779
208.277
204.051
151.753
80.2728
54.2978
42.6453
35.4645
30.121
26.5042
23.7937
21.6606
19.9811
18.4595
17.0928
15.9226
14.812
13.8445
12.9336
12.1349
11.3843
10.7305
10.1311
9.63081
9.15339
8.76789
8.48053
9.10607
9.35747
9.151
8.52942
128.856
164.124
184.662
195.224
198.924
200.13
201.451
198.525
148.026
78.6608
53.3101
41.2794
33.8041
28.8652
25.2772
22.6748
20.6271
19.0181
17.6191
16.4071
15.2969
14.2409
13.2545
12.3545
11.574
10.8423
10.1879
9.57753
9.05333
8.56256
8.18508
7.90961
8.52175
8.76054
8.52992
7.87533
128.581
163.793
183.74
193.601
196.708
196.976
197.754
195.772
147.519
81.7203
53.6778
41.0594
33.3339
28.0333
24.552
21.9933
20.0665
18.4786
17.1341
15.9778
14.9139
13.895
12.9624
12.079
11.2721
10.5591
9.88142
9.28687
8.75525
8.25541
7.86328
7.58947
8.202
8.43557
8.18781
7.51722
128.161
164.112
184.02
193.46
196.07
195.906
196.384
195.528
148.081
83.1624
53.6883
40.793
33.0891
27.7501
24.2049
21.7065
19.7336
18.2066
16.9293
15.7398
14.6416
13.6812
12.7711
11.9646
11.2046
10.4985
9.81787
9.21342
8.67874
8.19744
7.79429
7.52962
8.14499
8.39038
8.1456
7.47282
127.728
164.583
184.832
194.13
196.295
195.853
196.393
195.267
147.236
81.9305
53.3144
40.6711
32.7637
27.6751
24.2175
21.8451
19.9622
18.4727
17.1532
16.0163
14.9689
13.9529
12.983
12.0903
11.3018
10.5844
9.93656
9.36863
8.87123
8.38038
7.92059
7.6994
8.28286
8.5496
8.32553
7.70089
127.064
164.874
185.882
195.596
198.012
197.731
198.776
196.944
148.062
88.9304
55.6186
43.0845
34.9297
29.4027
25.7513
23.247
21.3581
19.6538
18.1534
16.8096
15.6443
14.5597
13.6026
12.7151
11.9589
11.1999
10.3091
9.81861
9.07012
8.79578
8.30064
8.17483
8.46573
8.6733
8.5043
8.03222
125.124
165.073
187.47
198.293
201.638
203.008
205.518
202.131
150.703
91.158
65.6846
50.5249
40.9633
34.6634
30.2961
27.0969
24.5082
22.3886
20.632
18.9509
16.9682
15.9724
14.4151
13.7629
12.7253
12.1158
11.5146
10.9775
10.4623
10.0075
9.58589
9.22571
8.99908
8.90015
8.73842
8.3083
120.36
165.062
189.916
202.753
207.501
211.209
215.594
210.04
155.825
109.919
81.0964
63.1341
51.4146
43.5587
38.0119
33.8847
30.522
27.6998
25.2992
23.2543
21.4903
19.9732
18.6643
17.4793
16.1832
15.0116
14.3467
13.4043
12.6046
11.8764
11.1353
10.4135
9.72462
9.0721
8.36692
7.60769
112.888
161.273
188.918
205.855
215.27
223.576
230.578
215.997
160.552
112.014
82.0221
63.3547
51.9364
43.9324
37.9013
33.2197
29.8901
27.1327
24.8373
22.9139
21.2386
19.7732
18.4795
17.3068
16.206
15.1485
14.115
13.0929
12.0819
11.0976
10.1379
9.2297
8.38395
7.61182
6.87645
6.19706
34.3697
27.2385
24.9138
24.0659
23.923
23.3545
22.5269
21.4495
20.2713
18.9808
17.7548
16.5919
15.5409
14.5759
13.7171
12.9545
12.2482
11.6131
11.0138
10.474
9.92958
9.46218
8.92608
8.49397
91.7669
143.742
190.579
223.313
235.204
229.802
214.851
202.284
107.769
36.8042
27.0162
24.7587
23.502
23.0945
22.7696
22.14
21.1263
19.9596
18.6906
17.5049
16.3587
15.3362
14.3978
13.5654
12.8192
12.1315
11.5172
10.9387
10.387
9.85685
9.38283
8.9056
8.44138
8.01307
7.50279
6.91447
99.9713
149.1
196.173
226.486
235.226
228.407
214.507
200.699
103.662
30.6057
20.3914
17.8796
17.6441
18.1245
17.625
17.9484
17.8006
17.2653
16.5365
15.6943
14.8508
14.0417
13.259
12.5712
11.9494
11.3471
10.7885
10.2773
9.82745
9.39558
9.01751
8.64926
8.35511
8.04528
7.78673
7.21976
105.548
151.362
197.37
226.659
235.075
228.975
215.204
199.555
107.155
28.0407
19.1059
15.0577
14.0661
12.6606
13.0064
14.0233
13.4539
14.0228
13.958
13.6033
13.1355
12.5613
11.9891
11.4075
10.8466
10.3031
9.80265
9.34499
8.93375
8.54449
8.22298
7.8896
7.71008
7.50945
7.31442
6.7475
108.314
152.378
197.473
226.27
234.662
228.739
214.544
197.919
107.581
26.5615
16.148
12.8771
12.0554
10.5424
10.9132
11.2996
11.1905
11.9676
11.3694
11.7575
11.6033
11.2778
10.8339
10.3626
9.88387
9.39755
8.93591
8.49775
8.11153
7.75234
7.4591
7.14599
6.98605
6.83117
6.61893
6.09112
109.402
153.013
197.672
226.096
234.257
228.122
213.187
195.048
104.003
24.4891
16.1001
12.2613
11.1292
9.94536
9.51427
10.0793
10.0092
10.7071
10.1845
10.634
10.5948
10.3517
9.97958
9.57434
9.17191
8.74224
8.31189
7.8952
7.51211
7.15831
6.86848
6.56329
6.41435
6.25716
6.06143
5.54437
109.356
153.411
198.12
226.432
234.396
227.936
212.5
193.99
103.708
24.973
16.2574
12.3424
10.9661
9.22755
9.22179
9.35443
10.0674
9.69939
9.75575
10.203
10.1459
9.8924
9.51936
9.12548
8.72893
8.32585
7.91823
7.52216
7.15086
6.80395
6.52074
6.22489
6.0804
5.93132
5.74119
5.22119
108.643
153.478
198.552
226.999
234.806
227.966
212.078
193.623
104.458
25.044
16.1181
12.269
11.0135
9.153
9.19297
10.061
9.62242
10.1881
10.1835
10.2249
10.0178
9.72062
9.36458
8.97122
8.55708
8.14087
7.74328
7.37581
7.03064
6.70403
6.43299
6.15171
6.01628
5.87674
5.69916
5.19759
107.528
153.033
198.593
227.303
234.989
227.655
210.952
191.065
100.186
23.841
15.7158
12.1168
10.5102
10.4701
9.55125
9.71079
9.70195
10.3623
9.88502
10.2587
10.1641
9.89413
9.54281
9.15598
8.73916
8.31276
7.92595
7.57209
7.24333
6.92487
6.65521
6.38079
6.23122
6.10488
5.93618
5.47437
106.081
152.158
198.269
227.331
235.049
227.412
210.181
189.193
98.0715
26.097
16.1662
12.7311
11.9332
10.8204
11.0227
11.0794
11.8764
11.39
11.8009
11.6626
11.3365
10.9101
10.4409
9.94408
9.4592
8.97582
8.53094
8.136
7.79384
7.47251
7.19076
6.91696
6.72088
6.53789
6.36374
5.90441
104.029
151.15
197.884
227.446
235.434
227.905
210.962
190.441
99.4691
29.0396
19.3422
15.9768
15.3484
15.7218
15.1012
15.5191
15.4722
15.0478
14.5126
13.8528
13.1113
12.3899
11.698
11.0414
10.4362
9.87987
9.37385
8.9263
8.54431
8.19508
7.86939
7.55749
7.28073
6.97909
6.76609
6.29153
100.021
149.172
196.274
227.183
236.517
229.613
213.371
194.784
100.349
32.2556
25.1167
21.1595
19.7207
19.337
19.1269
18.8616
18.3114
17.5531
16.6405
15.6426
14.6526
13.7049
12.8256
12.0105
11.2804
10.6177
10.0261
9.49939
9.02969
8.58387
8.15345
7.75436
7.35409
6.9931
6.70781
6.26255
95.2634
144.599
190.79
224.183
237.839
234.786
220.38
199.411
96.66
31.7534
23.2461
20.5449
20.1255
19.9516
19.9956
19.686
19.0283
18.165
17.1577
16.0854
15.0104
14.0201
13.0978
12.2658
11.5143
10.8307
10.1961
9.61994
9.10507
8.63297
8.1791
7.74083
7.3028
6.92834
6.50938
6.02027
4.29925
4.31842
4.96135
5.54988
5.9697
6.88392
7.72927
9.01056
9.75368
10.2681
10.0991
10.2071
10.0844
9.99024
9.55028
9.6097
9.414
9.1168
8.71364
8.64576
8.70771
8.62672
8.46562
8.29775
76.5784
117.044
163.571
206.16
233.781
242.014
221.846
72.7301
10.5135
3.99503
4.14758
4.64556
4.99907
5.43348
6.18653
7.16196
8.33064
8.98959
9.63622
9.55122
9.58324
9.57143
9.62788
9.28576
9.19543
9.03829
8.91042
8.71529
8.3924
8.34221
8.40117
8.28972
8.1842
8.00886
7.92544
7.65524
84.9154
125.708
176.371
221.262
248.771
255.68
234.984
97.6744
11.4009
3.99363
3.95451
3.71126
3.9016
4.45685
4.99614
5.64639
6.35415
7.24091
7.94539
8.05775
8.16537
8.23923
8.30919
8.3339
8.06789
8.07673
7.84089
7.83922
7.94467
7.91849
7.85855
7.75787
7.7052
7.56972
7.47368
7.16364
89.4898
131.106
184.117
229.741
256.291
261.57
239.679
116.864
14.0935
4.34554
3.93944
3.67015
3.37825
3.61291
4.01885
4.50192
4.97702
5.59325
6.13111
6.65506
6.8985
6.98487
7.04571
6.94566
6.98323
6.80098
6.77908
6.81548
6.68794
6.75946
6.69751
6.73177
6.65273
6.65736
6.66126
6.48329
91.7067
134.12
188.289
233.891
259.376
263.433
241.584
127.373
14.9809
4.31562
3.59414
2.96972
2.88075
2.91049
3.3058
3.73299
4.14444
4.59415
4.99029
5.4458
5.76079
5.89377
5.9793
5.88235
5.96908
5.84252
5.83553
5.79276
5.80849
5.88626
5.8097
5.86905
5.84586
5.74895
5.73912
5.69778
92.2997
135.562
190.41
235.888
260.604
263.832
242.266
132.118
14.9846
4.40369
3.73736
2.86392
2.76845
2.83277
2.98093
3.27826
3.63144
3.96846
4.31043
4.71307
4.99446
5.21742
5.18854
5.26821
5.31917
5.20271
5.19674
5.21433
5.12646
5.20902
5.1361
5.18348
5.16255
5.07817
5.07475
5.05204
91.8261
135.697
190.868
236.344
260.738
263.625
242.338
134.225
14.934
4.67632
3.77115
3.23376
2.84258
3.03468
3.01922
3.28434
3.58466
3.83344
4.16541
4.45184
4.66378
4.80266
4.90895
4.84226
4.90865
4.89861
4.90106
4.78717
4.79838
4.75261
4.74111
4.67162
4.67541
4.67968
4.67617
4.67225
90.9571
134.886
189.985
235.523
259.931
262.781
241.599
134.065
14.8708
4.59574
3.76862
3.13306
2.84954
2.84286
3.0695
3.29923
3.55596
3.79097
4.09694
4.39414
4.42798
4.50724
4.61285
4.65419
4.80372
4.72159
4.69377
4.67802
4.68612
4.68022
4.59634
4.63835
4.64164
4.64258
4.65558
4.66478
90.0585
133.532
188.223
233.774
258.363
261.321
239.868
130.233
14.3512
4.2228
3.36838
3.09195
2.6984
2.73722
2.87776
3.22387
3.56991
3.85114
4.21531
4.44714
4.64184
4.82181
4.97812
4.91842
4.99573
4.89084
4.8806
4.89145
4.9278
4.95265
4.89935
4.93418
4.96365
5.06201
5.04968
5.048
89.1073
131.976
186.115
231.681
256.617
259.855
237.863
124.323
13.7266
4.11285
3.41877
2.90327
2.89427
3.03116
3.41322
3.7695
4.10523
4.5434
4.87948
5.14206
5.38127
5.59986
5.57636
5.56676
5.57831
5.54022
5.53735
5.50707
5.49907
5.50108
5.58502
5.54118
5.54649
5.62796
5.61371
5.61077
87.7048
130.167
183.551
229.022
254.503
258.375
236.034
115.303
13.0758
4.35387
3.8664
3.43081
3.70729
4.05083
4.43529
4.82636
5.36477
5.86495
6.36567
6.45272
6.71594
6.68046
6.76295
6.59647
6.57098
6.56574
6.50558
6.51087
6.34413
6.36249
6.23423
6.23299
6.21649
6.24646
6.26545
6.22978
84.5132
126.695
177.955
222.462
248.411
253.406
232.203
101.873
11.9357
4.14071
4.22706
4.16351
4.27828
4.77443
5.34841
6.02418
6.79878
7.55877
7.68866
7.95476
8.01104
8.03713
7.75304
7.74773
7.45726
7.45993
7.20301
7.22621
7.13524
7.01565
6.82079
6.82315
6.90205
6.84464
6.77554
6.68412
78.607
120.524
167.929
210.028
235.674
241.378
219.393
80.6337
11.1236
4.32376
4.13258
4.19591
4.81733
4.97366
5.64838
6.5771
7.48779
8.31386
8.36284
8.42665
8.44986
8.47631
8.44579
8.07416
7.97059
8.01352
7.81512
7.52655
7.21348
7.19302
7.25403
7.27953
7.21885
7.05144
6.96442
6.83794
0.467906
0.550755
0.680164
0.84547
1.05386
1.33184
1.76832
2.52978
3.34259
4.09777
4.84458
5.47137
6.02998
6.21908
6.36421
6.65998
6.90429
7.1975
7.16701
7.43614
7.516
7.75272
8.00827
8.09138
152.327
216.679
233.461
244.38
245.883
211.987
53.7901
2.80544
0.66039
0.412038
0.493734
0.62165
0.7783
0.970871
1.21312
1.55271
2.17223
2.88936
3.55476
4.23942
4.83873
5.44286
5.90267
6.22459
6.47189
6.67451
6.90679
7.06344
7.22896
7.39653
7.61188
7.81456
8.04067
8.2042
8.30271
8.3605
167.714
239.94
252.647
263.352
265.78
233.695
77.9904
4.45634
0.771224
0.396267
0.437772
0.527277
0.644567
0.791652
0.971211
1.20082
1.57497
2.13565
2.70324
3.25856
3.78681
4.31144
4.76318
5.15847
5.47781
5.75199
5.9986
6.23812
6.48415
6.71731
6.97028
7.18749
7.47738
7.63324
7.67344
7.64597
181.32
247.34
260.211
272.931
276.49
245.9
100.764
6.24736
1.03038
0.418001
0.457076
0.531773
0.625565
0.755188
1.02716
1.36497
1.62349
1.89542
2.18983
2.51378
2.86316
3.22666
3.58487
3.93097
4.25519
4.55317
4.83649
5.11627
5.3904
5.6716
5.95813
6.22754
6.50583
6.72702
6.8946
6.91323
188.446
249.418
263.187
277.15
281.554
252.587
117.685
7.48906
1.08375
0.486396
0.478308
0.530243
0.631189
0.838524
1.06811
1.27671
1.46219
1.6744
1.88111
2.08773
2.3277
2.58978
2.85426
3.10908
3.35503
3.59952
3.84845
4.10149
4.36939
4.65637
4.94536
5.23544
5.51575
5.74563
5.9933
6.10581
188.784
248.282
262.632
277.704
283.031
256.355
127.261
7.9189
1.16751
0.541349
0.513764
0.591156
0.743512
0.893141
1.0471
1.18626
1.3274
1.50731
1.69087
1.86441
2.06323
2.27618
2.48363
2.68967
2.87813
3.05189
3.23451
3.43779
3.65933
3.90896
4.16241
4.43919
4.71119
4.96242
5.22378
5.40735
186.408
245.6
260.527
276.28
282.396
257.18
130.619
8.33254
1.18508
0.508818
0.523985
0.655976
0.814364
0.948237
1.09367
1.22947
1.35823
1.50952
1.67806
1.82244
1.98244
2.15105
2.32006
2.48202
2.64331
2.78537
2.92955
3.10501
3.30398
3.44302
3.60586
3.88991
4.20884
4.50516
4.79728
5.02046
183.949
242.898
258.028
274.043
280.525
255.852
129.301
8.18581
1.08797
0.553297
0.560119
0.611865
0.760257
0.9133
1.07554
1.22385
1.37504
1.54317
1.7082
1.84353
1.98357
2.13266
2.28303
2.43246
2.5829
2.72133
2.85831
3.04382
3.24405
3.3927
3.56691
3.88859
4.21438
4.52348
4.83542
5.06932
180.188
241.246
256.118
271.706
277.84
252.765
124.6
7.68819
1.08739
0.437361
0.451711
0.524505
0.691004
0.883923
1.034
1.19615
1.35011
1.51882
1.69705
1.84184
1.99836
2.17358
2.35768
2.5434
2.7247
2.90059
3.0886
3.30565
3.54756
3.8118
4.0908
4.39869
4.7162
5.01268
5.34206
5.55409
176.253
240.406
254.841
269.519
274.764
247.475
116.155
7.0826
0.953511
0.488826
0.489382
0.545306
0.688324
0.880492
1.07496
1.26964
1.44114
1.63735
1.83928
2.0403
2.25938
2.50189
2.75965
3.00863
3.26097
3.51178
3.76878
4.0258
4.30323
4.58866
4.89678
5.19243
5.50515
5.7666
6.11861
6.26978
171.726
239.188
252.99
266.34
270.732
242.003
103.863
6.53103
0.969749
0.558974
0.540996
0.593078
0.681238
0.848538
1.14186
1.4359
1.70482
1.97733
2.26563
2.58966
2.93209
3.28862
3.63279
3.9566
4.25126
4.51989
4.77462
5.024
5.27846
5.53752
5.81017
6.06705
6.36007
6.55038
6.92314
7.00768
163.205
234.006
247.253
259.071
262.728
232.944
85.8502
4.8964
0.834858
0.529481
0.563284
0.63416
0.747568
0.908324
1.20898
1.66135
2.10514
2.53462
2.96393
3.40942
3.83808
4.26403
4.62994
4.9613
5.21286
5.44465
5.65266
5.84476
6.05434
6.27771
6.52961
6.76107
7.01971
7.1387
7.15479
7.35543
151.352
215.379
228.947
239.966
242.842
212.397
62.8867
3.59172
0.786981
0.615712
0.642519
0.724909
0.85389
1.10159
1.5313
1.99142
2.43866
2.92769
3.39212
3.90494
4.34311
4.81382
5.20938
5.27994
5.37992
5.61286
5.82161
5.84792
6.10759
6.4343
6.7922
7.03531
7.14555
7.25764
7.3815
7.68372
0.0949889
0.146345
0.217415
0.318059
0.444855
0.608591
0.804016
1.04678
1.33511
1.6637
2.05501
2.50998
3.01967
3.56303
4.10956
4.66508
5.22338
5.80982
6.36632
6.95062
7.48875
8.02798
8.50286
8.84021
0.00993456
0.0093555
0.00889629
0.00849309
0.00817128
0.0109786
0.175549
0.577673
0.973668
1.16883
0.627534
0.218587
0.0378728
0.053122
0.0831265
0.130324
0.2074
0.302822
0.420883
0.562432
0.745031
0.95216
1.08992
1.23002
1.43252
1.75166
2.34914
3.03832
3.65537
4.24366
4.82601
5.42269
6.01581
6.60801
7.17388
7.73216
8.24368
8.75512
9.1898
9.34659
9.67876
0.00994027
0.00934428
0.00890012
0.00845929
0.00817968
0.0136027
0.284719
1.24651
2.40091
2.69164
1.4252
0.400992
0.0473219
0.0546512
0.069029
0.110452
0.180694
0.271832
0.376675
0.493547
0.623109
0.767865
0.937344
1.1324
1.36132
1.63574
1.96969
2.36464
2.82264
3.34037
3.9042
4.50204
5.11851
5.74473
6.35641
6.96108
7.5222
8.09102
8.56058
8.85062
8.91593
0.00994122
0.00935271
0.00889665
0.00849837
0.00819071
0.0181787
0.490345
2.34159
4.48265
4.99426
2.6051
0.575478
0.0629054
0.0561702
0.0666262
0.111419
0.177367
0.267067
0.366225
0.46962
0.593463
0.719856
0.825502
0.965643
1.11775
1.19219
1.27766
1.42549
1.73166
2.24671
2.79817
3.3858
4.00386
4.64339
5.28497
5.92238
6.52219
7.10636
7.5722
8.04171
8.18412
0.00991095
0.00931286
0.00885363
0.00850282
0.0081917
0.0223206
0.662391
3.30718
6.54263
7.39544
3.78759
0.740293
0.0757979
0.0549468
0.0632802
0.0996474
0.161456
0.249403
0.342276
0.444984
0.562132
0.662748
0.780881
0.928315
0.988274
1.0267
1.07911
1.15812
1.28971
1.50445
1.91889
2.43903
3.00426
3.61364
4.24922
4.89015
5.50342
6.09477
6.58889
7.10595
7.37231
0.00990125
0.00933506
0.00888778
0.00849402
0.00821748
0.0254708
0.777352
3.97497
7.93542
9.11605
4.55794
0.8086
0.0743708
0.0567765
0.0710648
0.099613
0.163019
0.247489
0.332607
0.439283
0.550507
0.635107
0.758951
0.888283
0.941165
0.975057
1.01741
1.07331
1.15476
1.27906
1.46424
1.82157
2.32639
2.88949
3.49449
4.11204
4.71526
5.30068
5.81994
6.35505
6.70457
0.0099013
0.00929861
0.00891346
0.00849778
0.00821217
0.0260701
0.807005
4.14483
8.26894
9.55151
4.74707
0.839263
0.0763511
0.0657624
0.080478
0.12724
0.202912
0.282274
0.363646
0.47191
0.578597
0.674115
0.777706
0.909252
0.978326
1.00174
1.03425
1.07836
1.14176
1.23483
1.37566
1.62314
2.05906
2.56932
3.12997
3.70816
4.29661
4.88051
5.4226
5.97867
6.37308
0.00991096
0.00930675
0.00889426
0.00843154
0.0082068
0.0249386
0.76304
3.88853
7.63262
8.84891
4.4827
0.818255
0.0786811
0.0653701
0.0991908
0.146949
0.210727
0.291028
0.378383
0.495135
0.609404
0.71379
0.836179
0.955013
1.02528
1.03798
1.0634
1.09912
1.15214
1.23424
1.36409
1.60507
2.03851
2.55552
3.12931
3.72221
4.33084
4.93392
5.49482
6.07577
6.48083
0.00993741
0.00934064
0.00890006
0.00846402
0.00821004
0.0226364
0.681136
3.44516
6.68699
7.73577
4.00451
0.757108
0.0724806
0.0544594
0.0707536
0.110315
0.175338
0.251921
0.345749
0.44616
0.565707
0.66612
0.781956
0.921941
0.989108
1.00732
1.03749
1.08066
1.14805
1.25767
1.43622
1.80402
2.31191
2.898
3.53281
4.18506
4.82448
5.4602
6.02276
6.63027
7.00876
0.00990095
0.00932612
0.00891023
0.00850738
0.00819811
0.020778
0.593242
2.93299
5.59431
6.43599
3.38354
0.681096
0.0676718
0.0589947
0.069933
0.115117
0.17269
0.251603
0.338963
0.438377
0.552093
0.658613
0.765656
0.900325
1.01215
1.03874
1.08719
1.16606
1.3039
1.56824
2.02696
2.54129
3.11206
3.73415
4.38299
5.04397
5.67347
6.31112
6.8386
7.46304
7.77733
0.00991091
0.00932811
0.00884735
0.00849747
0.00818302
0.0183822
0.491467
2.37604
4.39801
4.98395
2.63885
0.597676
0.0641763
0.0603533
0.0739338
0.118508
0.172244
0.241764
0.33809
0.450381
0.573094
0.698853
0.835669
0.988743
1.16194
1.3595
1.58775
1.85482
2.17186
2.56265
3.02855
3.56067
4.14324
4.76358
5.39438
6.03106
6.62091
7.23432
7.67499
8.32473
8.58959
0.00994024
0.0093547
0.00886222
0.00850221
0.00818038
0.0150214
0.371389
1.76231
3.1128
3.42798
1.81191
0.448567
0.0482333
0.0574355
0.0671958
0.0978031
0.167971
0.263667
0.382335
0.522273
0.677589
0.846003
1.03831
1.25409
1.50409
1.79429
2.13012
2.50304
2.92485
3.38651
3.89209
4.43953
5.01642
5.61665
6.21889
6.82482
7.3769
7.96274
8.26768
8.37997
8.89878
0.00989922
0.00931986
0.00888106
0.00848663
0.00817624
0.014035
0.327821
1.35446
2.12954
2.23156
1.14278
0.324183
0.0451048
0.0694337
0.103937
0.155727
0.204854
0.291778
0.426325
0.59202
0.772973
0.973133
1.20367
1.45788
1.75486
2.08725
2.46921
2.87629
3.32375
3.779
4.2795
4.81734
5.3671
5.95044
6.54287
7.14959
7.68921
8.25948
8.49956
8.68413
9.2709
0.028268
0.0425184
0.0741979
0.133478
0.217906
0.324617
0.447873
0.591606
0.764026
0.974296
1.22835
1.55467
1.98385
2.54111
3.23255
4.03535
4.91738
5.84399
6.76891
7.67691
8.51458
9.31028
9.96943
10.4611
0.00994993
0.00952039
0.00910445
0.00871141
0.00834728
0.00803478
0.00779918
0.00768362
0.00768963
0.00788584
0.00822415
0.00859502
0.00989793
0.0181054
0.0263518
0.039212
0.0751978
0.133345
0.210461
0.306033
0.414299
0.534017
0.676911
0.850204
1.06189
1.33918
1.72799
2.2558
2.92465
3.71187
4.58566
5.50725
6.43616
7.34832
8.20381
9.01002
9.7211
10.3949
10.9311
11.0982
11.602
0.00994901
0.00951405
0.00910224
0.00871144
0.00834808
0.00803837
0.00780795
0.00769772
0.00772377
0.00793491
0.00824992
0.00861499
0.0103026
0.0171341
0.0308586
0.0486214
0.0842193
0.132775
0.193581
0.269967
0.355386
0.446899
0.551673
0.67652
0.828423
1.0238
1.30806
1.7263
2.29554
3.0059
3.82279
4.70486
5.61604
6.52769
7.40626
8.24293
9.00778
9.73409
10.3244
10.781
10.8229
0.00994868
0.00951258
0.00910091
0.00871172
0.00834917
0.00804297
0.00781909
0.00771487
0.00774834
0.00796596
0.00833579
0.00870208
0.00995486
0.0166803
0.031529
0.0482904
0.0791317
0.123659
0.18214
0.244593
0.32202
0.429772
0.499724
0.535318
0.616293
0.774871
0.979966
1.28387
1.72776
2.31514
3.01584
3.80008
4.64539
5.52478
6.40171
7.25426
8.04726
8.79031
9.38275
9.97113
10.11
0.00994904
0.00951274
0.0091003
0.00871174
0.00835006
0.00804581
0.007827
0.0077224
0.00776681
0.00797877
0.00834984
0.00875518
0.00992575
0.0160676
0.0300525
0.04617
0.0732014
0.111491
0.165082
0.229168
0.30303
0.38555
0.476513
0.580206
0.699922
0.823664
0.962601
1.1716
1.47881
1.88732
2.3974
3.00549
3.73671
4.56878
5.43252
6.28758
7.09216
7.85235
8.46942
9.12815
9.38336
0.0099492
0.00951296
0.00910047
0.00871167
0.00835019
0.00804731
0.00783152
0.0077286
0.00778003
0.00800475
0.00839633
0.00882912
0.00968201
0.0159543
0.0274042
0.0423117
0.067678
0.105114
0.161291
0.220516
0.307848
0.370917
0.495618
0.570207
0.688177
0.842702
0.952764
1.03989
1.17623
1.40812
1.74195
2.20276
2.85345
3.79387
4.6993
5.56619
6.37585
7.14644
7.7889
8.48373
8.81778
0.00994938
0.00951299
0.00910057
0.00871195
0.00835049
0.00804795
0.00783287
0.00772943
0.00778151
0.00801979
0.00841564
0.00883732
0.00990486
0.0156634
0.0335918
0.0471282
0.0749501
0.111282
0.163797
0.228754
0.302484
0.381579
0.479475
0.576182
0.682846
0.840654
0.959624
1.03274
1.14723
1.34063
1.63865
2.05157
2.62835
3.52889
4.40296
5.24964
6.05084
6.82455
7.48582
8.20503
8.58034
0.00994918
0.00951307
0.00910076
0.00871194
0.00834999
0.00804714
0.00783145
0.00773218
0.00777601
0.00799081
0.00840409
0.00884069
0.00995755
0.0172417
0.0323955
0.047027
0.0697594
0.107629
0.157731
0.226589
0.298155
0.387579
0.48599
0.577976
0.700612
0.849385
0.954395
1.02313
1.13277
1.32123
1.61431
2.03507
2.61626
3.54938
4.45364
5.32527
6.14998
6.94756
7.62738
8.37041
8.75446
0.00994882
0.00951258
0.00910041
0.00871167
0.00834967
0.00804515
0.00782368
0.0077261
0.00776689
0.00799395
0.00837909
0.00874784
0.00984164
0.0198121
0.0295409
0.0450912
0.0665827
0.104317
0.156801
0.222169
0.301207
0.380328
0.479681
0.573528
0.678622
0.817827
0.951606
1.02734
1.16003
1.38452
1.73132
2.20105
2.91829
3.93417
4.89896
5.81854
6.67358
7.49923
8.18741
8.95004
9.31042
0.00994937
0.00951331
0.00910094
0.00871144
0.0083489
0.00804402
0.00782135
0.00771577
0.00775873
0.0079719
0.00835228
0.00873661
0.00981411
0.0155024
0.0283739
0.0426811
0.0646919
0.102798
0.15919
0.220391
0.292313
0.386788
0.479392
0.554711
0.642632
0.759381
0.911007
1.12771
1.45019
1.90977
2.50389
3.20413
4.00993
4.89896
5.80773
6.70629
7.54383
8.36131
9.01663
9.78595
10.0925
0.00994901
0.009513
0.00910086
0.00871148
0.0083488
0.00804225
0.00781872
0.00771458
0.00774423
0.00795412
0.00830456
0.00871341
0.0101009
0.0179257
0.0267663
0.0342442
0.0484177
0.0858592
0.146917
0.217957
0.300919
0.390314
0.488627
0.602098
0.733981
0.891902
1.11346
1.44408
1.91365
2.52749
3.26188
4.08821
4.97607
5.89485
6.80648
7.6924
8.50022
9.28986
9.86141
10.6531
10.9446
0.00994952
0.00951522
0.00910263
0.00871186
0.0083481
0.00803933
0.00781289
0.00770714
0.00774444
0.007962
0.00831207
0.0086859
0.00983004
0.0156589
0.027645
0.0419684
0.0688681
0.110556
0.173053
0.256304
0.354602
0.463856
0.593401
0.748539
0.933074
1.16077
1.47245
1.9015
2.46843
3.17216
3.98042
4.86336
5.78655
6.71913
7.62655
8.49198
9.26927
10.0285
10.4581
10.5812
11.2142
0.00995105
0.0095228
0.00910473
0.00871183
0.00834691
0.00803784
0.00780982
0.00770197
0.0077388
0.00795967
0.00830716
0.00868421
0.0101167
0.018475
0.026525
0.0343455
0.0503528
0.090765
0.169212
0.276118
0.397501
0.532209
0.690146
0.875309
1.0926
1.35494
1.70141
2.16149
2.75767
3.48498
4.31256
5.20863
6.13666
7.06888
7.97059
8.8264
9.59123
10.3313
10.7386
10.9146
11.6355
0.0149277
0.0209215
0.0372814
0.0714123
0.126783
0.206098
0.304568
0.434922
0.595393
0.821214
1.17963
1.71079
2.43451
3.33787
4.37876
5.5075
6.67278
7.83153
8.93843
9.9718
10.885
11.7181
12.3399
12.916
0.00995356
0.00952293
0.00910503
0.00871222
0.00834635
0.00801247
0.00772203
0.00749088
0.00733478
0.00726458
0.00724334
0.00725983
0.0076287
0.00964204
0.015293
0.0208529
0.0374686
0.0731418
0.121572
0.185382
0.26729
0.37866
0.513173
0.699222
1.01478
1.50645
2.19463
3.06736
4.08096
5.18801
6.33986
7.49095
8.59869
9.63635
10.5704
11.4115
12.1128
12.7587
13.2703
13.39
13.843
0.0099499
0.00951444
0.00910306
0.00871244
0.00834611
0.00801244
0.00772372
0.00749374
0.00733727
0.00726933
0.00724222
0.00726681
0.00775424
0.00998909
0.0137754
0.0200379
0.0334793
0.0592899
0.0910795
0.130668
0.190911
0.278475
0.38109
0.507525
0.729669
1.1203
1.71559
2.49569
3.4247
4.45986
5.55564
6.6679
7.75778
8.79622
9.7577
10.6329
11.4077
12.0984
12.6499
13.0003
12.9632
0.00995038
0.0095125
0.00909909
0.00870937
0.00834447
0.00801208
0.00772392
0.00749562
0.00733997
0.00727418
0.00725311
0.00727076
0.00766518
0.00945059
0.0140828
0.0202904
0.0330172
0.0555579
0.0839516
0.117712
0.174761
0.251746
0.343792
0.451265
0.61088
0.892343
1.36333
2.02914
2.84984
3.77968
4.77482
5.79836
6.82414
7.82736
8.78414
9.67369
10.4841
11.1986
11.7748
12.2458
12.2744
0.00995086
0.00951436
0.00909995
0.00870952
0.00834431
0.0080121
0.00772447
0.00749597
0.00734128
0.00727707
0.00724982
0.00730465
0.00767107
0.010633
0.0137363
0.0182211
0.0269842
0.0445561
0.0707198
0.103475
0.160569
0.242977
0.333267
0.438956
0.612737
0.855213
1.15639
1.66349
2.45839
3.3107
4.19456
5.09995
6.03081
6.97467
7.90146
8.78674
9.60295
10.3501
10.9482
11.5539
11.6692
0.00994998
0.00951216
0.00909884
0.00870914
0.00834388
0.00801095
0.00772289
0.00749523
0.00734196
0.00728072
0.00725414
0.007295
0.00766785
0.0094962
0.0133398
0.0174217
0.0267494
0.0486155
0.0766066
0.114935
0.172151
0.25501
0.351335
0.448805
0.625347
0.862688
1.12109
1.58165
2.2914
3.05148
3.83586
4.63507
5.48318
6.38606
7.28959
8.16542
8.9816
9.74846
10.3739
11.0519
11.235
0.00995327
0.00951469
0.00910043
0.0087105
0.00834509
0.00801234
0.00772512
0.00749655
0.00734362
0.00727956
0.00725445
0.00728963
0.00757389
0.00958644
0.0133685
0.0161112
0.0228898
0.0424634
0.0695379
0.105355
0.157862
0.238928
0.325723
0.424637
0.590437
0.826614
1.09735
1.52298
2.19389
2.92773
3.68729
4.4605
5.28446
6.16654
7.05567
7.92581
8.74444
9.52651
10.1724
10.8908
11.1085
0.0099511
0.00951296
0.00909914
0.00870976
0.00834493
0.00801158
0.00772292
0.00749552
0.00734181
0.00728022
0.00725503
0.00731247
0.00779597
0.0104808
0.0133261
0.0165801
0.021939
0.0387489
0.0707027
0.10647
0.154557
0.232981
0.318913
0.413677
0.561168
0.778862
1.06379
1.49695
2.15307
2.89997
3.68819
4.49202
5.34808
6.2647
7.18573
8.0836
8.92656
9.73121
10.3965
11.131
11.3546
0.00995265
0.00951482
0.00909985
0.00870855
0.0083429
0.00801095
0.00772356
0.00749502
0.00734145
0.00727893
0.00725101
0.00728519
0.00761499
0.00960995
0.0130725
0.0157185
0.0203113
0.0348697
0.0693396
0.10689
0.157054
0.229815
0.316953
0.404879
0.537182
0.74864
1.03679
1.48375
2.19444
3.01365
3.88544
4.77899
5.72758
6.723
7.70594
8.64926
9.52005
10.3433
11.0132
11.7518
11.95
0.0099523
0.00951417
0.00910082
0.0087108
0.00834499
0.00801139
0.00772265
0.00749502
0.00734058
0.00727567
0.00724736
0.00728555
0.00765632
0.0101017
0.0131082
0.0164797
0.0248025
0.0472406
0.0821775
0.1192
0.170441
0.244499
0.326306
0.416821
0.54653
0.759487
1.13943
1.73949
2.52892
3.45003
4.45062
5.49055
6.54663
7.59812
8.61277
9.57073
10.4403
11.2467
11.8887
12.6097
12.7613
0.00994985
0.00951072
0.00909869
0.00871058
0.00834491
0.008012
0.00772412
0.00749502
0.00734066
0.00726788
0.00724022
0.0072755
0.00759578
0.00890088
0.0130249
0.0176154
0.0293903
0.0576103
0.0921748
0.132934
0.188042
0.266967
0.355798
0.453043
0.621269
0.938784
1.46987
2.20682
3.11629
4.14804
5.25843
6.40076
7.53501
8.63324
9.66525
10.6151
11.4582
12.217
12.7808
13.5065
13.6698
0.00995186
0.00951661
0.00910357
0.00871165
0.00834482
0.00801057
0.00772157
0.00749426
0.00734148
0.00727798
0.00724673
0.00728464
0.00786642
0.00983193
0.0145022
0.01835
0.0265509
0.0533478
0.0929173
0.145969
0.216086
0.316575
0.436922
0.591548