/*--------------------------------*- C++ -*----------------------------------*\
  =========                 |
  \\      /  F ield         | OpenFOAM: The Open Source CFD Toolbox
   \\    /   O peration     | Website:  https://openfoam.org
    \\  /    A nd           | Version:  7
     \\/     M anipulation  |
\*---------------------------------------------------------------------------*/
FoamFile
{
    version     2.0;
    format      ascii;
    class       volScalarField;
    location    "100";
    object      k;
}
// * * * * * * * * * * * * * * * * * * * * * * * * * * * * * * * * * * * * * //

dimensions      [0 2 -2 0 0 0 0];

internalField   nonuniform List<scalar> 
120313
(
1.46565
1.24227
1.09156
0.976868
0.908758
0.85281
0.804427
0.762691
0.724516
0.690496
0.658996
0.629243
0.601715
0.578146
0.558283
0.541478
0.527683
0.51655
0.506582
0.498185
0.490385
0.483317
0.476634
0.46134
1.55522
1.41374
1.23296
1.12029
1.04029
0.977952
0.92492
0.880686
0.840714
0.800229
0.758958
0.715491
0.678409
0.634782
0.61998
0.585374
0.569568
0.554784
0.540347
0.528781
0.517857
0.508289
0.500158
0.478683
1.47626
1.29609
1.15536
1.06921
0.979557
0.901174
0.855732
0.816535
0.781552
0.748319
0.715274
0.684285
0.656541
0.630964
0.607983
0.586641
0.567218
0.549171
0.532405
0.517473
0.50327
0.490598
0.479919
0.458686
1.41207
1.29476
1.1383
1.02654
0.977664
0.872015
0.822997
0.786128
0.753464
0.723897
0.696681
0.670738
0.64563
0.620941
0.597096
0.575041
0.555126
0.536711
0.519615
0.503771
0.488334
0.474559
0.462787
0.442075
1.41068
1.31369
1.14896
1.03163
0.978554
0.882606
0.814203
0.777703
0.745675
0.717058
0.690837
0.66575
0.641171
0.616769
0.594172
0.572341
0.551717
0.532624
0.515267
0.498875
0.482923
0.468217
0.455557
0.43486
1.44081
1.32896
1.15636
1.04826
0.986447
0.893249
0.82418
0.786699
0.753875
0.724574
0.695908
0.667479
0.640731
0.616358
0.593698
0.572937
0.553027
0.534211
0.51622
0.49987
0.484069
0.469165
0.456308
0.435671
1.45518
1.3364
1.1645
1.05267
0.98318
0.922577
0.873575
0.832913
0.797385
0.764481
0.731938
0.701211
0.669777
0.635592
0.601891
0.578675
0.54587
0.532139
0.508721
0.496205
0.484017
0.471606
0.461006
0.441157
1.39965
1.19603
1.05686
0.975712
0.891762
0.812577
0.772769
0.737761
0.704612
0.672147
0.641009
0.612948
0.588189
0.565609
0.544983
0.525901
0.508555
0.493064
0.479641
0.467761
0.456919
0.447184
0.438886
0.425354
2.71769
4.64175
5.74374
6.31838
6.58702
6.8178
6.9949
6.33135
4.49587
3.42656
2.73151
2.26929
1.98891
1.81847
1.70624
1.60607
1.50669
1.43923
1.36557
1.30044
1.24108
1.18539
1.13664
1.09104
1.0536
1.01419
0.974378
0.930533
0.882029
0.830518
0.774716
0.718984
0.661181
0.606743
0.562069
0.543982
2.95779
4.71444
5.70824
6.18818
6.39763
6.57957
6.62194
5.90545
4.28538
3.12539
2.43256
2.13965
1.92994
1.78413
1.67703
1.59358
1.51773
1.43849
1.36855
1.30528
1.23594
1.16613
1.09674
1.07182
1.01872
1.00914
0.972087
0.966026
0.935644
0.929883
0.918737
0.899172
0.844257
0.787585
0.716076
0.66218
3.0918
4.73093
5.64297
6.07061
6.24581
6.37903
6.33649
5.62634
4.16611
2.83705
2.30838
1.98545
1.80178
1.66612
1.57605
1.50025
1.43608
1.37438
1.2989
1.21838
1.1327
1.1061
1.04033
1.02479
0.973799
0.959535
0.922552
0.897443
0.886118
0.886457
0.872544
0.856195
0.784474
0.721802
0.668302
0.626083
3.13904
4.70608
5.56348
5.95561
6.10032
6.18708
6.07251
5.38505
4.06531
2.73188
2.04543
1.82094
1.66528
1.55486
1.47396
1.40395
1.34995
1.29883
1.24051
1.16423
1.0812
1.05801
0.993832
0.975856
0.925134
0.910081
0.867279
0.85457
0.822819
0.821444
0.806453
0.785326
0.717991
0.655712
0.606412
0.568263
3.14137
4.67244
5.49552
5.86133
5.98072
6.02595
5.86337
5.19807
3.95733
2.59886
2.06147
1.76042
1.60971
1.48911
1.40414
1.34215
1.2896
1.24053
1.19312
1.14791
1.09941
1.04965
0.99571
0.94168
0.885624
0.86841
0.825075
0.809387
0.780519
0.766826
0.750602
0.730594
0.666317
0.60699
0.559796
0.522382
3.1268
4.65402
5.46289
5.8115
5.91201
5.92934
5.7455
5.10335
3.92845
2.64607
2.07889
1.7545
1.57796
1.45144
1.36709
1.30887
1.25965
1.21108
1.16859
1.12682
1.08043
1.02996
0.955422
0.933076
0.884056
0.831028
0.810367
0.782765
0.754502
0.740491
0.718239
0.701526
0.637443
0.581183
0.53492
0.495318
3.11056
4.65524
5.46444
5.80116
5.88778
5.89066
5.69764
5.07647
3.94267
2.7021
2.08201
1.75034
1.58217
1.4536
1.36969
1.30657
1.25259
1.2052
1.16634
1.11207
1.04658
0.97587
0.952345
0.894328
0.876109
0.824629
0.805161
0.761549
0.751895
0.730304
0.71672
0.690188
0.638065
0.582357
0.534838
0.495887
3.10249
4.66904
5.48634
5.81743
5.89233
5.88618
5.69417
5.07365
3.92234
2.68334
2.08693
1.7584
1.58549
1.47288
1.39342
1.33309
1.28033
1.22803
1.17893
1.13134
1.08177
1.03058
0.976691
0.920169
0.862485
0.839944
0.791134
0.772944
0.766304
0.75296
0.739832
0.717475
0.668077
0.615633
0.563969
0.52299
3.0924
4.68151
5.51657
5.85611
5.93402
5.93858
5.76602
5.1395
3.95388
2.94157
2.09479
1.84511
1.6795
1.5561
1.46525
1.40002
1.34197
1.27526
1.20036
1.1217
1.04323
1.01748
0.955453
0.934443
0.882019
0.863185
0.818978
0.802888
0.796379
0.7771
0.771155
0.749873
0.720662
0.677054
0.619411
0.574957
3.0521
4.676
5.54662
5.91973
6.02855
6.07956
5.96526
5.32878
4.05031
3.12515
2.49051
2.1579
1.92169
1.76481
1.64684
1.54938
1.45237
1.36506
1.28657
1.21029
1.14314
1.09161
1.04185
0.985538
0.958168
0.907353
0.888611
0.845357
0.832326
0.798997
0.794226
0.776711
0.762002
0.736024
0.671896
0.620041
2.93273
4.63597
5.57694
6.01556
6.17912
6.28928
6.25894
5.5844
4.21473
3.24503
2.64934
2.22163
1.94202
1.7456
1.60458
1.49693
1.40099
1.33891
1.2654
1.19569
1.13247
1.07822
1.0299
0.985572
0.943541
0.903039
0.862657
0.823427
0.784875
0.744628
0.703268
0.660992
0.620007
0.58112
0.562196
0.549598
2.75603
4.55905
5.59373
6.14164
6.39427
6.57627
6.63011
6.02507
4.43109
3.42118
2.77277
2.32054
2.02344
1.83729
1.70692
1.58277
1.48079
1.39571
1.32113
1.27782
1.21448
1.15686
1.10445
1.05447
1.00417
0.952653
0.899958
0.847388
0.794576
0.739984
0.6836
0.629299
0.579096
0.535932
0.501875
0.486494
1.24956
1.0332
1.11406
1.15429
1.27359
1.32661
1.36427
1.32491
1.33231
1.34896
1.30309
1.30098
1.24739
1.23772
1.18768
1.17683
1.15333
1.14376
1.11232
1.108
1.10713
1.0822
1.06776
1.08435
3.27102
5.47933
7.09496
7.94505
7.98159
7.39188
6.43399
5.46677
3.08264
1.3101
0.988242
1.04067
1.09693
1.23079
1.33647
1.32482
1.31836
1.32146
1.33457
1.28793
1.28508
1.23301
1.21967
1.18998
1.15273
1.14671
1.11575
1.10757
1.10042
1.09752
1.07065
1.07275
1.06113
1.05276
0.994815
0.952478
3.52938
5.65485
7.232
7.98798
7.93499
7.30924
6.37108
5.37881
2.95021
1.08914
0.751414
0.817682
0.94165
1.07008
1.10757
1.1337
1.14853
1.16631
1.17674
1.19969
1.16147
1.16832
1.15168
1.10904
1.1045
1.11084
1.10609
1.09895
1.09075
1.05637
1.0576
1.05055
1.03459
1.01643
0.99684
0.990994
3.70107
5.7519
7.26968
7.96731
7.88733
7.27087
6.34467
5.34227
3.05845
0.973028
0.831909
0.686822
0.735883
0.845887
0.975929
0.991359
1.0496
1.03579
1.0304
1.06624
1.05291
1.04954
1.0536
1.07592
1.07009
1.05652
1.03907
1.02346
1.00924
0.996895
0.984886
0.976315
0.959295
0.938637
0.915916
0.923593
3.77149
5.78565
7.26058
7.92718
7.83765
7.22649
6.30214
5.2941
3.07068
0.927574
0.597028
0.574274
0.586699
0.693296
0.800655
0.86026
0.921057
0.924551
0.926941
0.930961
0.932869
0.947655
0.948069
0.957025
0.977463
0.973608
0.958458
0.942207
0.924871
0.91256
0.898097
0.888257
0.870223
0.848968
0.828372
0.837766
3.78765
5.78929
7.24519
7.89405
7.79709
7.18491
6.25202
5.21878
2.9748
0.843651
0.705394
0.543114
0.555391
0.579667
0.67572
0.790582
0.834222
0.850879
0.851017
0.857817
0.858664
0.868429
0.865695
0.875601
0.87394
0.890333
0.887076
0.874517
0.857108
0.843505
0.826472
0.815247
0.796236
0.775563
0.754507
0.762755
3.77375
5.78512
7.24058
7.88421
7.78274
7.16762
6.22933
5.19335
2.96881
0.865717
0.705115
0.524429
0.550532
0.556582
0.627401
0.748892
0.800394
0.798619
0.836846
0.828251
0.825694
0.831728
0.825722
0.828937
0.846232
0.826528
0.83571
0.827838
0.813199
0.800485
0.783026
0.770017
0.751158
0.73152
0.710921
0.719017
3.74717
5.77816
7.24437
7.89075
7.78589
7.16436
6.22014
5.18921
2.99758
0.873051
0.687201
0.543553
0.589677
0.579846
0.664549
0.743272
0.79711
0.817135
0.849502
0.827846
0.824126
0.8233
0.823944
0.824799
0.827402
0.818582
0.790736
0.787138
0.793873
0.788746
0.775614
0.764835
0.748906
0.731362
0.712957
0.721911
3.72072
5.76662
7.24506
7.89679
7.78745
7.15365
6.19259
5.13278
2.89413
0.820874
0.678928
0.509646
0.554838
0.644216
0.733123
0.791108
0.836208
0.825625
0.849371
0.842993
0.832394
0.835262
0.835858
0.840691
0.853776
0.837577
0.807521
0.806006
0.81787
0.81694
0.809616
0.801635
0.788854
0.773725
0.757728
0.767671
3.68975
5.74468
7.23794
7.89934
7.78974
7.14664
6.17153
5.08908
2.86503
0.927396
0.595765
0.576651
0.636522
0.758473
0.821975
0.86475
0.901607
0.899142
0.895348
0.893169
0.898915
0.902215
0.90763
0.922775
0.913053
0.902855
0.877394
0.848109
0.849263
0.856626
0.862563
0.859278
0.850429
0.838722
0.823967
0.833426
3.63497
5.70603
7.22262
7.90675
7.8101
7.1705
6.19434
5.11173
2.89576
1.05099
0.722776
0.736353
0.833511
0.977283
0.992762
1.06507
1.05633
1.07644
1.04213
1.04323
1.05021
1.04486
1.03642
1.01651
0.999831
0.977957
0.956855
0.909493
0.898809
0.893867
0.895976
0.905116
0.903818
0.894685
0.88146
0.884873
3.50633
5.62028
7.16969
7.91289
7.86429
7.2453
6.27591
5.20796
2.89871
1.13925
1.06751
0.930742
1.02015
1.10813
1.15405
1.19879
1.21654
1.20261
1.19295
1.20591
1.17868
1.15623
1.11584
1.08546
1.03531
1.01727
0.9935
0.970284
0.937611
0.934071
0.943533
0.941779
0.928015
0.919437
0.879253
0.85043
3.35222
5.48287
7.04399
7.87861
7.94184
7.40733
6.47525
5.33554
2.81804
1.192
0.886425
0.950839
1.05337
1.1797
1.20442
1.26219
1.23463
1.23823
1.25501
1.24128
1.22364
1.19013
1.15465
1.12865
1.08583
1.06363
1.03045
0.993539
0.956393
0.951283
0.960923
0.958096
0.943495
0.935311
0.886962
0.852476
0.229032
0.265958
0.308906
0.37231
0.449525
0.559379
0.658474
0.811205
0.901709
0.987355
1.00676
1.02199
1.03779
1.04051
1.05026
1.05049
1.07762
1.10469
1.1278
1.14806
1.16282
1.18201
1.18507
1.20755
2.97441
4.89475
6.47471
7.51869
7.80015
7.38021
6.06969
2.047
0.337189
0.203277
0.244276
0.305899
0.36226
0.442534
0.534009
0.639892
0.762986
0.864739
0.970104
0.980152
1.00132
1.03051
1.01706
1.0368
1.02165
1.05078
1.08143
1.10939
1.11249
1.12166
1.14627
1.1692
1.19164
1.21529
1.19843
1.19072
3.25446
5.1917
6.8296
7.87051
8.11058
7.64516
6.36984
2.74084
0.369559
0.181904
0.193274
0.236477
0.293324
0.356063
0.427394
0.512037
0.611113
0.705067
0.806318
0.879895
0.899429
0.91338
0.929398
0.939777
0.946171
0.974481
1.00577
1.03146
1.05256
1.06825
1.08861
1.10842
1.13081
1.14383
1.14995
1.15087
3.42306
5.39113
7.05713
8.07905
8.28157
7.78434
6.53422
3.2829
0.48737
0.206114
0.221104
0.220487
0.25256
0.296636
0.350599
0.405976
0.472124
0.545586
0.62788
0.700055
0.791306
0.795063
0.83155
0.85554
0.854934
0.87671
0.899457
0.925275
0.945261
0.963664
0.985365
1.00659
1.02659
1.03961
1.05284
1.06063
3.50139
5.49459
7.17378
8.18033
8.35907
7.84454
6.62337
3.57001
0.49633
0.168586
0.162133
0.18857
0.218689
0.259615
0.302988
0.35303
0.401991
0.457777
0.520233
0.578849
0.655571
0.705983
0.734219
0.758254
0.767335
0.783867
0.800906
0.818288
0.835548
0.854193
0.87248
0.893476
0.910012
0.924489
0.937331
0.954458
3.52078
5.53416
7.22507
8.2259
8.39259
7.87442
6.67168
3.70576
0.481839
0.197546
0.168361
0.166479
0.198036
0.234943
0.277072
0.32691
0.373585
0.42268
0.472672
0.520175
0.582349
0.629764
0.658627
0.668009
0.675453
0.695777
0.717222
0.733622
0.748587
0.764286
0.778819
0.797385
0.811179
0.825797
0.837352
0.859617
3.50265
5.52981
7.2318
8.23632
8.4029
7.88627
6.69296
3.76621
0.492509
0.186912
0.185549
0.170559
0.192109
0.226334
0.264422
0.309672
0.357381
0.406249
0.448564
0.497721
0.547701
0.593575
0.616155
0.629457
0.636876
0.650997
0.667901
0.680125
0.694692
0.708465
0.713861
0.724052
0.736052
0.752736
0.771782
0.801934
3.46844
5.49964
7.20668
8.21846
8.39047
7.87733
6.68678
3.76793
0.523274
0.201422
0.171984
0.178056
0.20467
0.243357
0.282601
0.324021
0.366356
0.406619
0.448012
0.487691
0.537322
0.580419
0.613699
0.627399
0.627349
0.639112
0.657003
0.670611
0.688067
0.700489
0.708249
0.72476
0.742169
0.760732
0.779785
0.809528
3.43433
5.45751
7.16004
8.1764
8.35481
7.84353
6.64834
3.67469
0.473244
0.165962
0.162019
0.163522
0.187919
0.227726
0.271523
0.314294
0.360359
0.403041
0.449019
0.496033
0.547389
0.601635
0.636606
0.653985
0.666117
0.678981
0.694877
0.712038
0.731123
0.749928
0.768486
0.789323
0.808566
0.828666
0.847226
0.872689
3.4024
5.4094
7.10065
8.11932
8.30507
7.7958
6.58621
3.52685
0.473197
0.163132
0.1595
0.180119
0.213157
0.256651
0.297151
0.345036
0.391826
0.449015
0.506086
0.570541
0.629015
0.684569
0.697929
0.708968
0.732842
0.756513
0.776026
0.794273
0.813499
0.834649
0.854723
0.875167
0.895803
0.914902
0.93867
0.959386
3.35396
5.34169
7.01841
8.04157
8.23966
7.74106
6.50678
3.2783
0.458908
0.190769
0.182807
0.205059
0.251097
0.306118
0.361801
0.42695
0.49618
0.575124
0.652218
0.717962
0.768554
0.782657
0.791742
0.817431
0.838655
0.854107
0.8703
0.883067
0.899995
0.920125
0.938731
0.957142
0.978269
0.994062
1.02566
1.04039
3.24021
5.20826
6.85092
7.87831
8.10147
7.62803
6.37583
2.89586
0.396823
0.229102
0.233716
0.244093
0.291888
0.368702
0.439254
0.52648
0.62437
0.718489
0.805983
0.830067
0.84639
0.870496
0.867546
0.884335
0.89217
0.901226
0.924052
0.925834
0.945922
0.972896
0.996963
1.01556
1.0336
1.05253
1.0366
1.04981
3.06104
5.00685
6.58674
7.60368
7.8542
7.41556
6.12217
2.33844
0.380825
0.223843
0.226373
0.267254
0.317613
0.394828
0.477286
0.579084
0.687134
0.794245
0.852967
0.884231
0.903829
0.905543
0.910177
0.927396
0.915075
0.931429
0.947098
0.949064
0.968855
0.995097
1.02076
1.04367
1.06342
1.0834
1.068
1.07711
0.0565748
0.0751464
0.096037
0.124236
0.161666
0.209363
0.258
0.330441
0.40902
0.497241
0.586626
0.669879
0.747958
0.813242
0.875077
0.929197
0.984513
1.04007
1.0981
1.15605
1.21223
1.26969
1.31689
1.36469
3.06743
4.59706
5.40074
5.92436
5.9376
4.80965
1.3746
0.0772946
0.0327074
0.0459894
0.0663509
0.091039
0.119734
0.156889
0.19851
0.24568
0.304608
0.375353
0.458009
0.539391
0.619914
0.695644
0.760491
0.822686
0.878058
0.934624
0.993173
1.05346
1.1134
1.17105
1.22983
1.28476
1.34277
1.39219
1.39813
1.41991
3.4181
5.06478
5.87879
6.43638
6.46153
5.39511
2.00371
0.11751
0.0297542
0.0343419
0.0528326
0.074629
0.100126
0.130764
0.164845
0.203667
0.245392
0.294369
0.356028
0.425861
0.499014
0.570197
0.635402
0.699414
0.757533
0.816641
0.878014
0.941484
1.00623
1.07025
1.13427
1.19536
1.258
1.30744
1.35664
1.36703
3.68078
5.33296
6.19736
6.79265
6.80998
5.78893
2.59496
0.169828
0.039308
0.0396956
0.0561878
0.0715464
0.0924243
0.11468
0.141225
0.169129
0.197991
0.232646
0.27416
0.32272
0.381892
0.441218
0.499443
0.559468
0.615788
0.673712
0.733953
0.798989
0.865802
0.933491
1.00156
1.06734
1.1303
1.18297
1.23327
1.26156
3.81688
5.46627
6.37135
6.99799
7.02005
6.04586
3.00507
0.19944
0.0414205
0.0382224
0.0483641
0.0637932
0.0830653
0.103822
0.126835
0.154847
0.179936
0.206918
0.239307
0.276039
0.319196
0.366829
0.412903
0.460011
0.50638
0.555518
0.608589
0.666788
0.72919
0.795588
0.863198
0.930316
0.992328
1.05005
1.10216
1.14552
3.84685
5.50494
6.43516
7.08701
7.12202
6.18517
3.2481
0.241796
0.0387213
0.0430978
0.054313
0.0641324
0.0803985
0.0998313
0.123599
0.151241
0.176712
0.203954
0.233037
0.263361
0.297022
0.334071
0.369844
0.406607
0.441133
0.478564
0.521915
0.571129
0.625885
0.686556
0.750543
0.816535
0.876721
0.93867
0.991964
1.04583
3.82038
5.48041
6.42466
7.09291
7.14303
6.22948
3.32488
0.245863
0.0377836
0.0502092
0.053194
0.0646265
0.0825458
0.102405
0.125934
0.152372
0.178518
0.20481
0.231613
0.259926
0.289781
0.320487
0.350901
0.381452
0.409888
0.440911
0.477122
0.517597
0.566777
0.624016
0.686059
0.750776
0.81001
0.875435
0.931079
0.991773
3.7694
5.42246
6.36776
7.04128
7.10281
6.19958
3.28723
0.231825
0.0576771
0.0414022
0.0462062
0.0612692
0.0836289
0.106921
0.1319
0.158309
0.182839
0.206333
0.231412
0.256894
0.284331
0.313181
0.342537
0.372365
0.400813
0.430912
0.467661
0.509585
0.560391
0.619455
0.683262
0.750671
0.813199
0.880927
0.939511
1.00114
3.69631
5.35988
6.29275
6.9575
7.01931
6.10942
3.18778
0.216069
0.0450379
0.0390569
0.0480803
0.0620932
0.0802989
0.0989039
0.122355
0.147511
0.172302
0.196543
0.223697
0.250959
0.280781
0.314237
0.34954
0.385055
0.420834
0.458945
0.50343
0.554573
0.612572
0.676989
0.745192
0.815471
0.882203
0.949642
1.01157
1.06848
3.62397
5.29926
6.20827
6.85086
6.90443
5.97004
2.98444
0.197028
0.0446974
0.0400467
0.0491805
0.0656041
0.0828091
0.103113
0.126397
0.151509
0.175635
0.203832
0.234881
0.269504
0.30863
0.352292
0.398459
0.443798
0.491191
0.541257
0.595485
0.654623
0.718043
0.785563
0.854822
0.923408
0.990277
1.05302
1.1178
1.16617
3.53846
5.21675
6.09308
6.70572
6.74954
5.77894
2.68337
0.172835
0.0439305
0.0477739
0.0492563
0.0625769
0.0855476
0.111678
0.139676
0.169953
0.202822
0.239999
0.285507
0.336666
0.391059
0.447991
0.502297
0.556132
0.609413
0.663219
0.719826
0.779541
0.842348
0.907772
0.973873
1.03762
1.10193
1.15531
1.22496
1.26511
3.36896
5.0475
5.88792
6.46776
6.5082
5.49875
2.23791
0.129352
0.0390767
0.0507041
0.0637479
0.0763218
0.0979706
0.131767
0.166434
0.205582
0.251113
0.305829
0.367163
0.42991
0.491169
0.551399
0.607194
0.661639
0.714942
0.767295
0.823106
0.879929
0.939683
1.00241
1.06547
1.12585
1.18596
1.23197
1.23296
1.27875
3.14217
4.73875
5.55161
6.08429
6.08903
5.02273
1.62528
0.102034
0.044815
0.0574328
0.0663448
0.0840014
0.108922
0.144265
0.182442
0.228195
0.282559
0.34582
0.413606
0.477763
0.542604
0.602103
0.659083
0.713407
0.765028
0.815849
0.869386
0.924792
0.982651
1.04344
1.10434
1.16371
1.22309
1.26689
1.27576
1.32245
0.0151676
0.0218562
0.0310874
0.0458601
0.0683208
0.0943256
0.122879
0.158192
0.1994
0.248876
0.308053
0.377897
0.457037
0.543879
0.639457
0.7427
0.852613
0.966641
1.0817
1.19484
1.30119
1.40284
1.48893
1.56047
0.000997779
0.000975742
0.000953532
0.000932437
0.000913333
0.000939618
0.00354189
0.0119098
0.0239507
0.031606
0.0183088
0.00684356
0.00228061
0.00865645
0.0120195
0.0189598
0.0305519
0.0459695
0.0669844
0.0903679
0.116303
0.146767
0.184287
0.229858
0.283061
0.344975
0.415216
0.4955
0.587411
0.689474
0.799905
0.915816
1.03332
1.14913
1.25893
1.36304
1.45673
1.54655
1.62372
1.64074
1.69085
0.000997671
0.000975586
0.000953549
0.00093251
0.000914421
0.000977586
0.00541819
0.0254105
0.0581062
0.071233
0.0406426
0.010984
0.00225242
0.00702743
0.0110484
0.0181668
0.0286949
0.0426038
0.0597764
0.0793926
0.100423
0.122677
0.148325
0.179398
0.216583
0.261482
0.31658
0.383977
0.467258
0.564814
0.674329
0.791997
0.913374
1.03426
1.15078
1.26142
1.36304
1.46085
1.53701
1.61175
1.63631
0.000997359
0.000975095
0.000953151
0.000932363
0.00091486
0.00104279
0.00891693
0.0466161
0.107024
0.133025
0.0719905
0.0155022
0.00297525
0.00582377
0.00910465
0.0161529
0.0269384
0.0406718
0.055094
0.0737818
0.0937768
0.109989
0.129061
0.15647
0.175448
0.189749
0.209391
0.246914
0.327313
0.420793
0.52665
0.642452
0.764654
0.888351
1.00944
1.12517
1.2326
1.33224
1.41441
1.49023
1.53208
0.000997129
0.000974875
0.000953077
0.000932169
0.000914836
0.00110317
0.0117788
0.0646053
0.154009
0.196924
0.101476
0.0197521
0.00284032
0.00478758
0.00981038
0.0165227
0.0252066
0.0381923
0.0529401
0.0699812
0.0903746
0.108239
0.12325
0.145468
0.171677
0.183757
0.19541
0.213801
0.254943
0.329828
0.418014
0.520574
0.633795
0.752255
0.871453
0.987038
1.09669
1.19735
1.28631
1.36674
1.42372
0.000997054
0.000974723
0.000952924
0.000932119
0.000915034
0.00114912
0.0136929
0.0767686
0.18418
0.240637
0.119925
0.0236902
0.0040189
0.0078043
0.0108982
0.0169455
0.0252044
0.0386264
0.0540348
0.0725592
0.0933424
0.111347
0.127714
0.149206
0.172966
0.184162
0.193555
0.20635
0.230319
0.280963
0.349556
0.438887
0.541846
0.651919
0.765522
0.877591
0.986728
1.08795
1.18213
1.26647
1.33439
0.000997082
0.000974764
0.000952885
0.000932092
0.00091532
0.00115834
0.0142011
0.0798275
0.191237
0.251642
0.124274
0.0245066
0.00402709
0.00762467
0.0125797
0.0189323
0.0288198
0.0432106
0.0595695
0.0794702
0.100814
0.120206
0.13543
0.154404
0.176202
0.189857
0.19795
0.208199
0.229497
0.269367
0.324076
0.400228
0.492755
0.596313
0.706535
0.817021
0.926822
1.02927
1.1276
1.21548
1.28957
0.000997193
0.000974941
0.000953042
0.000932199
0.000915154
0.00114087
0.0134394
0.0747855
0.175831
0.235228
0.118518
0.0227004
0.0031658
0.00858648
0.0147115
0.0199169
0.0308363
0.0455535
0.0617151
0.0804616
0.101564
0.120737
0.136289
0.154192
0.176064
0.189621
0.19667
0.20562
0.223366
0.260307
0.3119
0.387409
0.4828
0.590179
0.704295
0.818211
0.931402
1.03664
1.13753
1.22834
1.30341
0.000997246
0.000975016
0.000953055
0.000932015
0.000914799
0.00110574
0.0120766
0.0668314
0.156289
0.207052
0.107534
0.0217841
0.00299443
0.00637071
0.0107286
0.0159499
0.0236407
0.0382597
0.053465
0.0721254
0.0924632
0.1108
0.126367
0.145819
0.167798
0.179973
0.187508
0.197978
0.218757
0.265738
0.329622
0.418055
0.525478
0.642627
0.763808
0.883259
0.999145
1.10722
1.20739
1.30015
1.37108
0.000997296
0.000975078
0.00095308
0.000932237
0.000914435
0.00107843
0.0106311
0.0575262
0.132628
0.173346
0.0925494
0.0191053
0.00269436
0.00591513
0.0118309
0.0169216
0.02649
0.0388701
0.0531914
0.071008
0.0893566
0.106004
0.122791
0.145517
0.165273
0.175208
0.186504
0.206042
0.249604
0.323515
0.410511
0.51354
0.629496
0.752074
0.875858
0.996357
1.11034
1.21712
1.31185
1.40523
1.46804
0.00099737
0.000975158
0.000953315
0.000932466
0.000914657
0.00104422
0.0088708
0.046801
0.103952
0.132859
0.0731426
0.0162025
0.0025794
0.00751648
0.0129651
0.0172221
0.0255686
0.0370419
0.0519884
0.0701855
0.0893017
0.108834
0.129914
0.154744
0.183392
0.216835
0.256917
0.305905
0.368203
0.447057
0.541471
0.649129
0.765973
0.88661
1.00673
1.12274
1.23053
1.33237
1.41594
1.51317
1.56999
0.000997523
0.000975431
0.000953597
0.00093247
0.000914314
0.000996571
0.00688297
0.035191
0.0741506
0.0908511
0.0510174
0.0126688
0.00244323
0.00626148
0.0111696
0.0178483
0.0257209
0.0385431
0.0572481
0.0794392
0.103188
0.129006
0.158639
0.192355
0.231546
0.277432
0.331423
0.394631
0.469118
0.556284
0.655107
0.763836
0.878811
0.995647
1.11112
1.2218
1.324
1.42025
1.49297
1.50373
1.57292
0.000997588
0.000975664
0.000953689
0.000932627
0.000914833
0.000984947
0.00603386
0.0266995
0.0500231
0.0581098
0.0320747
0.00900071
0.00254248
0.0094697
0.0137969
0.020444
0.0299678
0.0445006
0.0655522
0.0903237
0.117213
0.146647
0.179965
0.218655
0.262373
0.313911
0.371921
0.438772
0.515594
0.604655
0.70389
0.811956
0.925528
1.04034
1.15363
1.26209
1.36174
1.45736
1.51914
1.54082
1.62226
0.004217
0.00770468
0.0140511
0.0244384
0.0406895
0.0608296
0.0826779
0.107645
0.137731
0.17365
0.217702
0.27789
0.36139
0.471914
0.607844
0.761083
0.923764
1.0884
1.24839
1.39955
1.53643
1.662
1.76469
1.8501
0.000997499
0.000974773
0.00095215
0.000930435
0.000910392
0.000892652
0.000880376
0.000876592
0.000884849
0.000905993
0.000941189
0.000979955
0.00115696
0.00196823
0.00414791
0.00713401
0.0136611
0.0244381
0.0395558
0.0576789
0.0774813
0.0995599
0.126028
0.157671
0.196422
0.249916
0.327072
0.433104
0.566174
0.71811
0.880633
1.04589
1.20711
1.35975
1.4993
1.62658
1.73731
1.83911
1.92573
1.94312
2.00061
0.000997395
0.00097448
0.000952153
0.000930425
0.000910429
0.000893044
0.00088109
0.000878282
0.000886934
0.000911024
0.000942481
0.000985552
0.00127034
0.00242882
0.00473587
0.00800237
0.0152045
0.0251735
0.0376266
0.0521655
0.0678289
0.0842161
0.102671
0.125154
0.15319
0.192983
0.255198
0.34786
0.470215
0.615225
0.773903
0.937885
1.10017
1.25561
1.40017
1.53272
1.65138
1.76053
1.84558
1.92596
1.95179
0.000997415
0.000974451
0.000952163
0.000930398
0.000910291
0.000893482
0.000881945
0.000879354
0.000888645
0.000911137
0.000945772
0.000988671
0.00118509
0.00214394
0.00459581
0.00828674
0.0157922
0.024518
0.0357086
0.0491016
0.0633466
0.0770521
0.0929026
0.11414
0.137397
0.162659
0.201313
0.270392
0.374245
0.505218
0.653861
0.811486
0.970754
1.12603
1.27296
1.40938
1.53282
1.64478
1.7353
1.81885
1.85822
0.00099739
0.000974422
0.000952186
0.000930449
0.000910318
0.00089381
0.000882545
0.000880692
0.000890151
0.000913127
0.000948216
0.000993868
0.00120325
0.00217155
0.00478194
0.00807942
0.0140459
0.0225206
0.0328456
0.0452801
0.0586372
0.0729032
0.0887051
0.109446
0.13122
0.153245
0.183614
0.235347
0.316944
0.425201
0.555568
0.702406
0.854547
1.00532
1.15044
1.28697
1.41262
1.52656
1.62364
1.71343
1.76629
0.000997418
0.000974414
0.00095223
0.000930511
0.000910346
0.000894011
0.000882915
0.000881111
0.000891186
0.000914625
0.000949995
0.00100214
0.00114508
0.00203835
0.00487798
0.00725921
0.01282
0.0210431
0.0316332
0.0441716
0.0580318
0.0726608
0.0891745
0.110641
0.131347
0.153854
0.189251
0.223701
0.268853
0.333185
0.43611
0.605316
0.76416
0.914068
1.05727
1.19259
1.31885
1.43449
1.53665
1.63163
1.69408
0.000997441
0.000974417
0.000952225
0.000930534
0.000910379
0.000894054
0.000883007
0.000881321
0.000891148
0.000914635
0.000953737
0.000999382
0.00119747
0.00222181
0.00583371
0.00925904
0.0145079
0.0231043
0.033427
0.0454451
0.0597357
0.0734993
0.089304
0.110145
0.132448
0.153187
0.18708
0.223682
0.26654
0.319357
0.406428
0.561055
0.717409
0.866137
1.00898
1.14464
1.27226
1.38988
1.49585
1.5946
1.66231
0.0009974
0.000974413
0.000952244
0.000930526
0.000910356
0.00089401
0.000882885
0.000880903
0.000890825
0.000914375
0.000953613
0.000995831
0.00118983
0.00233198
0.00543504
0.00869979
0.0130597
0.0212571
0.0312441
0.0433588
0.0585919
0.0725519
0.08867
0.108334
0.130001
0.152263
0.180837
0.218142
0.263392
0.313761
0.390182
0.533035
0.705748
0.863719
1.01273
1.15265
1.28375
1.40429
1.5124
1.61355
1.68195
0.00099739
0.000974406
0.000952201
0.000930454
0.000910319
0.00089375
0.000882585
0.000880776
0.00089008
0.000912922
0.000949511
0.000988837
0.00116675
0.00251785
0.00455197
0.00774765
0.0125192
0.0207457
0.0313394
0.0428616
0.0584777
0.0717759
0.087759
0.105641
0.127298
0.147797
0.175235
0.213073
0.262006
0.32279
0.410309
0.566836
0.750815
0.91768
1.07325
1.21776
1.35116
1.47353
1.58118
1.683
1.74782
0.000997423
0.000974437
0.000952207
0.000930434
0.000910288
0.000893615
0.000882284
0.000880107
0.000889371
0.000912177
0.000949813
0.000994027
0.00115678
0.00204192
0.00469564
0.00694876
0.0119258
0.0202505
0.0302301
0.0429871
0.0578148
0.0717672
0.0870226
0.105865
0.127417
0.148868
0.178999
0.229754
0.312441
0.422862
0.555143
0.706673
0.868093
1.02875
1.18256
1.32617
1.45726
1.57747
1.67983
1.78125
1.83941
0.000997373
0.000974432
0.000952156
0.000930371
0.000910264
0.000893444
0.000881895
0.00087969
0.000888711
0.000911331
0.000946378
0.000996437
0.00120157
0.00260067
0.00441345
0.0057364
0.00974514
0.0176417
0.0283332
0.0414622
0.0567358
0.0730717
0.0905838
0.11074
0.134589
0.166478
0.216687
0.29399
0.399804
0.530181
0.67788
0.83562
0.996948
1.15535
1.30587
1.44534
1.57105
1.68577
1.77791
1.88278
1.93789
0.000997426
0.000974561
0.000952241
0.000930477
0.000910447
0.000893246
0.000881454
0.000878657
0.000888158
0.00091074
0.000947222
0.000987588
0.00115575
0.00205319
0.00446739
0.00685866
0.0116385
0.0194081
0.0316013
0.0476635
0.0661591
0.0862557
0.109703
0.137052
0.169548
0.213122
0.277098
0.368197
0.485805
0.625162
0.778711
0.939237
1.10054
1.25675
1.40383
1.53869
1.65946
1.76815
1.85043
1.85706
1.93264
0.000997535
0.000974989
0.000952334
0.000930486
0.000910399
0.000893069
0.000881239
0.000878731
0.000887857
0.000910759
0.000947388
0.00099004
0.00119874
0.00214154
0.00490663
0.00721571
0.0119264
0.0207011
0.0347838
0.0532572
0.0743027
0.0972767
0.123974
0.15496
0.191256
0.238803
0.306376
0.400561
0.521122
0.662961
0.818229
0.979573
1.14083
1.29626
1.44208
1.5753
1.69401
1.80164
1.87458
1.8969
1.98321
0.00238312
0.00491918
0.00961258
0.0169946
0.0286268
0.044689
0.063627
0.0872889
0.116807
0.164959
0.246066
0.364902
0.517682
0.695422
0.887421
1.08361
1.27598
1.45832
1.6266
1.77876
1.91211
2.03101
2.12254
2.20931
0.000997677
0.000975049
0.000952575
0.000930786
0.000910018
0.00089102
0.000874738
0.000862519
0.000856088
0.000854977
0.000860457
0.000875454
0.000948511
0.0013313
0.00254039
0.00403876
0.00809149
0.0161389
0.0264396
0.039274
0.0562465
0.0790745
0.104023
0.141648
0.215053
0.330474
0.481499
0.65825
0.849351
1.04498
1.23714
1.41976
1.58899
1.74249
1.87852
1.99888
2.09978
2.19096
2.26971
2.27503
2.32298
0.000997746
0.000974744
0.000952363
0.000930682
0.000910017
0.000891038
0.000874837
0.000862904
0.00085647
0.000855066
0.000860559
0.000876772
0.000994564
0.00153478
0.00231325
0.00321816
0.00656564
0.0128178
0.019532
0.0275516
0.0418116
0.0615838
0.0784101
0.101079
0.16074
0.263626
0.401564
0.568586
0.753854
0.945567
1.13518
1.31704
1.48739
1.64389
1.78517
1.91124
2.02136
2.11857
2.19426
2.26005
2.27348
0.000997765
0.000974684
0.000952272
0.000930653
0.000909994
0.000891065
0.000875004
0.000863093
0.000856607
0.000855605
0.000861148
0.000877016
0.000985133
0.00138127
0.00242454
0.00397481
0.00727457
0.0117502
0.0185382
0.0260886
0.0390984
0.0544568
0.0704102
0.0958113
0.13827
0.191934
0.274799
0.44141
0.642023
0.835483
1.02145
1.19917
1.36703
1.52373
1.66769
1.79835
1.91403
2.01646
2.09773
2.16995
2.19446
0.000997634
0.000974404
0.000952053
0.000930585
0.000910059
0.000891237
0.000875161
0.000863128
0.000856898
0.000855647
0.000861991
0.000877633
0.00097355
0.00131689
0.00234601
0.00385984
0.00575029
0.00959195
0.0152859
0.0233505
0.0358748
0.0513507
0.0709219
0.0960686
0.126603
0.165397
0.234403
0.363526
0.564229
0.752217
0.928949
1.09783
1.25947
1.41299
1.55659
1.68895
1.80834
1.91497
2.00313
2.08565
2.12197
0.000997701
0.000974553
0.000952233
0.000930623
0.000909977
0.000891096
0.000874975
0.000863076
0.000856895
0.000855749
0.000862043
0.000875792
0.000967257
0.0013511
0.00212367
0.00334598
0.0056964
0.0102075
0.0166805
0.0250344
0.0377463
0.053507
0.0730667
0.0978252
0.126866
0.163712
0.227728
0.345346
0.530637
0.702809
0.865567
1.02551
1.18197
1.33272
1.47522
1.60797
1.72959
1.83979
1.93349
2.02352
2.06853
0.000997654
0.000974599
0.000952234
0.000930699
0.000910163
0.000891302
0.00087519