/*--------------------------------*- C++ -*----------------------------------*\
  =========                 |
  \\      /  F ield         | OpenFOAM: The Open Source CFD Toolbox
   \\    /   O peration     | Website:  https://openfoam.org
    \\  /    A nd           | Version:  7
     \\/     M anipulation  |
\*---------------------------------------------------------------------------*/
FoamFile
{
    version     2.0;
    format      ascii;
    class       volScalarField;
    location    "100";
    object      nut;
}
// * * * * * * * * * * * * * * * * * * * * * * * * * * * * * * * * * * * * * //

dimensions      [0 2 -1 0 0 0 0];

internalField   nonuniform List<scalar> 
120313
(
0.00176935
0.0017943
0.00170503
0.00163169
0.00158837
0.00154601
0.00150762
0.00147638
0.00144787
0.00142075
0.00139545
0.00136939
0.00133864
0.00130953
0.00128547
0.00126436
0.00124628
0.0012347
0.00122192
0.00121319
0.00120283
0.00119164
0.00116649
0.00102639
0.00203601
0.00237768
0.00225368
0.00217895
0.00211522
0.00206082
0.00201348
0.00197222
0.00194177
0.00190958
0.00187574
0.00182074
0.00182288
0.0016614
0.00173757
0.0016178
0.00161089
0.00159412
0.00156989
0.00155351
0.00153452
0.00151092
0.00146236
0.00116561
0.00201448
0.00228092
0.00221614
0.0021574
0.00215891
0.00204399
0.00199886
0.00196025
0.00192754
0.00189746
0.00186093
0.0018209
0.00178784
0.00175527
0.0017277
0.00169987
0.00167543
0.00165158
0.00162561
0.00160106
0.00157439
0.00153887
0.00147345
0.00116187
0.00198456
0.00233353
0.00225698
0.00210022
0.00219192
0.0020501
0.00197986
0.00194421
0.00191197
0.0018816
0.00185374
0.00182727
0.00180198
0.00177465
0.001743
0.00171045
0.00168231
0.00165552
0.0016302
0.00160504
0.00157427
0.00153365
0.0014626
0.00114878
0.00198726
0.00235045
0.00227704
0.00213644
0.00216783
0.00211427
0.00197233
0.00193298
0.00190004
0.00187072
0.00184417
0.00181876
0.00179234
0.00176077
0.00173584
0.00170782
0.00167811
0.00165052
0.00162522
0.00159881
0.00156831
0.00152565
0.00145361
0.00114102
0.00201027
0.00234987
0.00225077
0.00214907
0.00215182
0.00209938
0.00195886
0.00192108
0.00188856
0.00186147
0.00183573
0.00180303
0.00176751
0.00173645
0.00170552
0.00167875
0.00165254
0.00162875
0.00160312
0.00157891
0.00155067
0.00151051
0.00144122
0.0011352
0.00198164
0.00228879
0.00218272
0.00208529
0.00205858
0.00200484
0.00195655
0.00191828
0.00188523
0.0018577
0.00183034
0.0018022
0.00177906
0.0017514
0.00166562
0.00168683
0.00155707
0.00160117
0.00152254
0.00150832
0.00148853
0.0014571
0.00140386
0.00111787
0.00172157
0.00174532
0.00166157
0.00161959
0.00160432
0.00150542
0.00147178
0.0014451
0.00142225
0.00139803
0.00136774
0.00133704
0.00131167
0.00128791
0.00126635
0.00124599
0.00122589
0.00120566
0.00118989
0.0011751
0.00116086
0.00114182
0.00111191
0.000975352
0.00605704
0.0117861
0.0152819
0.0169631
0.0176496
0.0181369
0.0183096
0.015983
0.0112316
0.00942045
0.00820204
0.00734411
0.00689718
0.00689945
0.00684476
0.00679415
0.00658585
0.00655866
0.00640499
0.0062563
0.00609617
0.00593508
0.00579954
0.00566569
0.00558251
0.0054565
0.0053289
0.00516095
0.00495621
0.00472519
0.00442729
0.0041361
0.00380507
0.00348274
0.00328428
0.00341496
0.00653788
0.0119558
0.0151333
0.0165724
0.0172261
0.0177208
0.0174689
0.01437
0.010405
0.00955335
0.00813873
0.00794229
0.00791826
0.00800815
0.00809081
0.00813891
0.00812308
0.00799359
0.00787377
0.00776146
0.00752743
0.00722262
0.00682901
0.00694402
0.00664427
0.00701316
0.00686676
0.00733213
0.00710425
0.00741758
0.00747984
0.00733662
0.00635781
0.00546431
0.00459668
0.00415988
0.00681961
0.0120966
0.0150606
0.0163349
0.0168771
0.0172171
0.0166655
0.0135174
0.0100475
0.00873142
0.00812038
0.00762124
0.00754983
0.00764146
0.00783748
0.00790653
0.00795665
0.00792385
0.00768229
0.00732281
0.00681663
0.00700728
0.0066354
0.0068957
0.00662093
0.00683813
0.00667383
0.00666969
0.00682757
0.00736299
0.00733538
0.00725609
0.00570224
0.00468456
0.00409357
0.00381084
0.00690189
0.0120667
0.0148956
0.0160787
0.0164974
0.0167422
0.0159345
0.0127904
0.00980152
0.00836755
0.00693471
0.00699784
0.00703761
0.00722368
0.00737739
0.00745563
0.00757189
0.00759845
0.00750275
0.00713686
0.00660762
0.00680164
0.00642086
0.00662666
0.0063477
0.00654783
0.0063087
0.00648758
0.00632686
0.00663462
0.00667584
0.00654514
0.00509506
0.00413533
0.00361668
0.00340739
0.00689248
0.0119718
0.0147191
0.0158381
0.0161831
0.0163298
0.0153592
0.0122493
0.00952157
0.00772772
0.00717441
0.00675678
0.00689874
0.0069139
0.00701995
0.00714987
0.00725624
0.00728266
0.00727155
0.0072281
0.00711149
0.00696299
0.00673202
0.00645985
0.006099
0.00625994
0.00601371
0.00615603
0.00605622
0.00618062
0.00619497
0.00607351
0.00468895
0.00378508
0.00330642
0.00311853
0.00684331
0.0119016
0.0146179
0.0157004
0.0159916
0.0160636
0.0150235
0.011973
0.00941537
0.00771106
0.00724619
0.00674743
0.00672275
0.0067634
0.00685091
0.00701049
0.0071166
0.00714362
0.00717307
0.00715216
0.00704441
0.00687105
0.00633791
0.00648701
0.00624018
0.00588637
0.00598118
0.00593793
0.00585187
0.00597783
0.00590441
0.00583605
0.00445867
0.00360374
0.00314523
0.00293734
0.0067946
0.0118846
0.0146039
0.015656
0.0159124
0.0159413
0.0148774
0.011862
0.00944763
0.00790166
0.00726655
0.00675933
0.00680869
0.00685275
0.00697559
0.00707809
0.00715568
0.00718005
0.00723187
0.0070715
0.00673287
0.00626473
0.00639152
0.0060164
0.00616544
0.00582951
0.00594279
0.00566523
0.00586273
0.0058556
0.0059315
0.00569382
0.00449865
0.00363781
0.00316056
0.00296158
0.00678229
0.011921
0.0146565
0.0156896
0.0159187
0.0159213
0.0148585
0.0118646
0.00940418
0.00790949
0.00735217
0.00684215
0.00690516
0.00705488
0.00721567
0.00732166
0.00739054
0.00734736
0.00729245
0.0071923
0.00703602
0.00685078
0.00661277
0.00630291
0.00592377
0.00599896
0.005669
0.00573934
0.00595747
0.00608867
0.00621944
0.00601727
0.0048497
0.00398971
0.00343828
0.0031966
0.00677351
0.0119636
0.0147348
0.0157798
0.0160048
0.0160521
0.0150533
0.012071
0.00950266
0.00875694
0.00710076
0.00711156
0.00726788
0.00741189
0.00750351
0.00758826
0.00758869
0.0074472
0.00714346
0.00673659
0.00626097
0.00639945
0.00604004
0.00618055
0.00585475
0.00598739
0.00585551
0.00590885
0.00629316
0.00617906
0.00644784
0.00619069
0.0055213
0.00475668
0.00406034
0.00370406
0.00670039
0.0119211
0.0147696
0.0159052
0.0162216
0.016386
0.015583
0.0126434
0.00979711
0.0096425
0.00849875
0.00829468
0.00811359
0.00808661
0.00805669
0.00797329
0.00774611
0.00749067
0.00722054
0.00695654
0.0069311
0.00671437
0.00677692
0.00635156
0.0064932
0.00611564
0.00617187
0.00585894
0.00595937
0.00574126
0.00592241
0.00588521
0.00580706
0.00547809
0.00464957
0.00416458
0.00643139
0.0117187
0.0147392
0.016063
0.0165606
0.0168552
0.0163534
0.0133627
0.0102599
0.00862198
0.00778965
0.00703596
0.00660179
0.00629588
0.00609599
0.00595172
0.00578762
0.00582461
0.00569633
0.00553319
0.00537092
0.00523853
0.00511468
0.00500145
0.00495107
0.00488911
0.0046684
0.00455248
0.00439861
0.00420181
0.00399745
0.00377604
0.00355765
0.00335016
0.00339979
0.00357339
0.0060557
0.0115992
0.0149063
0.0164911
0.0170939
0.0174092
0.017158
0.0151258
0.0110065
0.0094042
0.00843608
0.00764969
0.00709497
0.0069153
0.00691854
0.00678707
0.00660241
0.00646159
0.00632458
0.00641331
0.00625024
0.00609153
0.0059408
0.00578219
0.00559995
0.00539193
0.00516423
0.00493596
0.00470303
0.00444077
0.00414856
0.00386162
0.00359994
0.00339605
0.00329662
0.00343726
0.00408867
0.00352715
0.00448354
0.00498274
0.00610218
0.00678198
0.00743608
0.00736544
0.00788076
0.00862838
0.00860753
0.00918097
0.00901099
0.00945912
0.00925502
0.00962159
0.00977413
0.0101383
0.0101103
0.0105489
0.0111099
0.0111395
0.0114956
0.0124585
0.0104936
0.0187981
0.0237721
0.0254403
0.0243768
0.0213992
0.0173407
0.0132967
0.00793586
0.00419716
0.00325345
0.00393679
0.0046078
0.00590339
0.00706002
0.00713476
0.00740431
0.0078741
0.00857634
0.0085284
0.00908554
0.00892187
0.00929893
0.00939481
0.0093291
0.00975528
0.00972808
0.010093
0.0104923
0.0109985
0.0109952
0.01163
0.012005
0.012448
0.0118715
0.0118085
0.0112141
0.0193022
0.023995
0.0253557
0.0240907
0.0210512
0.0170305
0.0129739
0.00755664
0.00348827
0.00249204
0.00336552
0.00452296
0.00568606
0.0062641
0.00644489
0.00666949
0.0070908
0.0075363
0.00825349
0.00817544
0.00874877
0.00900318
0.00880556
0.00918808
0.00978725
0.0102063
0.010576
0.0108957
0.0106893
0.0111635
0.011484
0.01153
0.0115573
0.0114852
0.0122423
0.0116801
0.0196721
0.0240986
0.0252054
0.0238174
0.0207791
0.0168349
0.0128716
0.00785656
0.00303881
0.00326007
0.00281949
0.00346486
0.00508643
0.00659055
0.00630743
0.00736953
0.00688576
0.00684595
0.00752156
0.00759595
0.00789231
0.00833307
0.0091329
0.00950148
0.00975053
0.00991263
0.0100881
0.0102613
0.0104678
0.0106166
0.0108735
0.0107421
0.0105592
0.0103222
0.0113779
0.0118191
0.0197709
0.0240258
0.0249949
0.0235598
0.0205474
0.016661
0.012745
0.00788819
0.00291532
0.00198661
0.00230497
0.00256977
0.00410337
0.00528667
0.0058944
0.00682286
0.0064283
0.00680156
0.00663421
0.00675001
0.00716666
0.00746683
0.0079546
0.00869993
0.00907812
0.0092523
0.00940224
0.00949078
0.00966792
0.00973201
0.00993706
0.00975599
0.00949576
0.00933052
0.0103703
0.011802
0.0197135
0.0239
0.0248056
0.0233568
0.0203665
0.0165015
0.0125672
0.00765795
0.00261574
0.0027815
0.00216515
0.00249447
0.00304075
0.00431917
0.00558094
0.00625757
0.00608564
0.00639998
0.00622781
0.0062632
0.00655693
0.00675865
0.00720686
0.00749456
0.00816065
0.00852048
0.00871797
0.00880139
0.00894556
0.00895031
0.0091138
0.00889557
0.00865167
0.00845267
0.00944411
0.0117205
0.0196341
0.0238156
0.0247071
0.0232572
0.0202852
0.0164349
0.0125129
0.00764888
0.00270099
0.00275239
0.00200547
0.00248746
0.00302144
0.00384165
0.0053959
0.00572708
0.00591804
0.0064606
0.00605118
0.00604772
0.00629367
0.00644619
0.00677688
0.00738347
0.00738464
0.00793826
0.00819957
0.00832297
0.00847595
0.00846249
0.00857257
0.00835165
0.00811978
0.00792287
0.0089115
0.0116318
0.0195783
0.0237886
0.0246862
0.0232353
0.0202641
0.016419
0.0125166
0.0077418
0.00273916
0.00263691
0.0021673
0.00284149
0.00330601
0.00432355
0.00494194
0.00594285
0.00589844
0.00637787
0.00603231
0.00610178
0.00627573
0.00652453
0.00682475
0.0072003
0.00740792
0.00726743
0.00756022
0.00806769
0.00835181
0.0084163
0.00855819
0.00839014
0.00819164
0.0080271
0.00902419
0.0115872
0.0195569
0.0237882
0.024691
0.0232266
0.0202311
0.0163608
0.0124099
0.00752439
0.00254372
0.00263969
0.00192927
0.00263611
0.00356742
0.00506449
0.00580043
0.00648652
0.00592042
0.0065684
0.00623445
0.00613525
0.00634614
0.00658918
0.00694721
0.00750691
0.00759533
0.00740454
0.00772154
0.00831138
0.00867384
0.00886417
0.00906402
0.00898798
0.00882549
0.00870487
0.00968856
0.0115505
0.01952
0.0237804
0.0247039
0.0232343
0.0202131
0.0163093
0.0123202
0.00753284
0.00296607
0.00197598
0.00235074
0.00305572
0.00478498
0.00551658
0.00607448
0.00616015
0.00638813
0.0061138
0.00615621
0.00641505
0.00671479
0.00710104
0.00770672
0.00793196
0.00817343
0.00812149
0.00795673
0.00832867
0.00883811
0.00931213
0.00960714
0.00968484
0.0096837
0.00960173
0.0105876
0.0114312
0.0193866
0.0237258
0.0247377
0.0233177
0.0203043
0.0163692
0.0123486
0.00758715
0.00342331
0.00243078
0.0030544
0.00407381
0.0054674
0.00587381
0.00657855
0.00649071
0.00693025
0.00673499
0.00707074
0.00757097
0.00793037
0.00826432
0.00842246
0.00862088
0.00871225
0.00879058
0.00834007
0.00850943
0.00877475
0.00918109
0.00975604
0.0100979
0.0103225
0.010335
0.0112008
0.0110626
0.0190577
0.0235711
0.0248049
0.0235342
0.0205759
0.0166135
0.0125321
0.00753596
0.00362142
0.00408344
0.00368465
0.00474947
0.00571522
0.00626678
0.00685723
0.00727401
0.00741543
0.00769697
0.00836692
0.00853334
0.00877925
0.00873714
0.00882901
0.00855173
0.00877176
0.00886028
0.00891958
0.00876224
0.00914784
0.00982687
0.0102942
0.0105396
0.0108797
0.0103726
0.0103937
0.0106165
0.0187109
0.0234058
0.0249195
0.0238673
0.0210326
0.0171232
0.0128484
0.00739419
0.00402724
0.00304213
0.00396052
0.00496205
0.00627784
0.00652925
0.00728346
0.0072097
0.0075964
0.00826181
0.00862087
0.00897756
0.00909237
0.00916099
0.00934691
0.00921573
0.00940088
0.00937266
0.00923507
0.00904133
0.00943413
0.0101605
0.0106727
0.0109706
0.0113638
0.0108771
0.010864
0.0010981
0.00147416
0.00173099
0.00224785
0.00304647
0.0040909
0.00504872
0.00657282
0.0075025
0.00854474
0.00903258
0.00920937
0.0096119
0.00975354
0.0103948
0.0103351
0.011102
0.012047
0.0131373
0.0137204
0.0139753
0.0145761
0.0149303
0.0158159
0.0103977
0.0184228
0.0230663
0.0246786
0.0234228
0.0202553
0.0149459
0.00518517
0.000973286
0.00093089
0.00129482
0.00181285
0.00236263
0.00324384
0.00414851
0.00514545
0.00628922
0.0074864
0.00878965
0.00905254
0.00941625
0.00998549
0.00966953
0.0104187
0.0102158
0.0109947
0.0118124
0.0127096
0.0132725
0.0135733
0.0140758
0.0148417
0.0156154
0.0165971
0.0163096
0.0166687
0.0112257
0.0192974
0.0238016
0.0251965
0.0237983
0.020574
0.0155404
0.00692198
0.00107813
0.000745694
0.000850155
0.00135612
0.0019847
0.00256017
0.00329052
0.00417902
0.00528967
0.0061789
0.00736445
0.00864749
0.00891662
0.00911294
0.00935595
0.00953771
0.00998669
0.0105817
0.011611
0.0122144
0.0125505
0.0129701
0.013572
0.0142532
0.0149361
0.0155557
0.0159246
0.0166402
0.0117842
0.0199517
0.0243447
0.0255696
0.0240843
0.0208496
0.0160324
0.00829995
0.00151685
0.000879859
0.00111686
0.00119213
0.00169934
0.00219196
0.00275272
0.00329493
0.00403075
0.00478965
0.00578705
0.00662759
0.00816914
0.00814492
0.00883272
0.0094844
0.00942001
0.0101715
0.0107407
0.0113055
0.0120241
0.0123647
0.0130474
0.0135463
0.0142573
0.014611
0.0149765
0.0156161
0.0120316
0.0202591
0.0245988
0.0257496
0.0242454
0.0210236
0.016343
0.00900541
0.00147995
0.00059271
0.000658249
0.00107763
0.00149413
0.00208418
0.00249929
0.00300475
0.00350921
0.00410531
0.00488104
0.00553747
0.00671428
0.00761093
0.00811417
0.00879674
0.00887779
0.00946514
0.00989294
0.0104032
0.0108174
0.0111562
0.0117923
0.0122417
0.0127494
0.01338
0.0137779
0.0143897
0.012087
0.0203333
0.0246739
0.0258169
0.024325
0.021152
0.0165356
0.00935481
0.00139445
0.000797555
0.000682591
0.000870965
0.00127495
0.0017537
0.0023178
0.00293396
0.00345894
0.00405176
0.0046649
0.00516698
0.00611111
0.00684135
0.00752447
0.00762332
0.00771949
0.00837439
0.00890879
0.00928942
0.00983805
0.0100925
0.0106287
0.0110397
0.0114713
0.012086
0.012435
0.0131639
0.0120246
0.0202812
0.0246605
0.0258324
0.0243723
0.0212324
0.0166363
0.00951086
0.00146182
0.00067238
0.000821651
0.000809623
0.00116849
0.00151925
0.00208421
0.00262784
0.0032067
0.00387471
0.00434745
0.00500811
0.00578884
0.00660256
0.0069604
0.00736423
0.00743686
0.00778623
0.00819175
0.00869642
0.00905174
0.00950489
0.00967364
0.0100998
0.0104289
0.0108971
0.0114641
0.0123878
0.0119035
0.0201811
0.0246033
0.0258101
0.0243757
0.0212524
0.0166564
0.00953086
0.00165716
0.00079451
0.000706373
0.000910723
0.00132305
0.00187489
0.00234165
0.00286402
0.00339697
0.00392525
0.00440923
0.00487145
0.00586822
0.00672691
0.00734826
0.00761177
0.00737365
0.00778589
0.00827668
0.00865211
0.00909265
0.0094358
0.00982204
0.0101922
0.0106801
0.0112188
0.0117549
0.0126437
0.011787
0.0200745
0.0245132
0.0257378
0.0243156
0.0211881
0.0165843
0.00933173
0.00140451
0.000587026
0.000701377
0.00077833
0.00117782
0.00170513
0.00230569
0.00275763
0.00327383
0.00379621
0.00430469
0.00497946
0.00580957
0.00675613
0.00732687
0.00782622
0.00799365
0.00848349
0.008904
0.00932849
0.00976272
0.0102198
0.0108486
0.0113642
0.0118542
0.012209
0.0127931
0.0135782
0.0116923
0.0199547
0.0243813
0.025609
0.0241904
0.0210491
0.016413
0.00900465
0.00146813
0.00058234
0.000669724
0.00100572
0.00141287
0.00195578
0.00232827
0.00284241
0.00336583
0.00399378
0.00472408
0.00569742
0.00661727
0.00753183
0.00786167
0.00812631
0.00866484
0.00929711
0.00978797
0.0103101
0.010831
0.0113973
0.0117725
0.0124401
0.0130211
0.0133857
0.014126
0.0147641
0.0115434
0.0197288
0.0241525
0.0254125
0.0240087
0.0208734
0.0161435
0.00838879
0.00144953
0.000752289
0.000777899
0.00110307
0.00153063
0.00208197
0.0026562
0.0033992
0.00413019
0.00507575
0.00601429
0.00718955
0.0079156
0.00825237
0.00834207
0.00911661
0.00963339
0.00999961
0.0104784
0.0107793
0.0114908
0.0119759
0.0127216
0.0132281
0.0138552
0.0142376
0.0151112
0.0156373
0.0111806
0.0192694
0.0237372
0.0251104
0.0237793
0.0206657
0.0157561
0.00740863
0.00118737
0.00114085
0.00116301
0.00128793
0.00179228
0.00256254
0.00324676
0.00414103
0.00516054
0.00614655
0.00760403
0.00779546
0.00804812
0.00848545
0.00873687
0.00908452
0.00960636
0.00979885
0.0106689
0.0106758
0.0112861
0.0121425
0.0131149
0.0136041
0.0139306
0.0145668
0.0142731
0.0148394
0.010728
0.0187197
0.0232518
0.0247749
0.0235578
0.0205038
0.0153755
0.0061035
0.00117341
0.00104296
0.00111601
0.00153203
0.00188466
0.00282087
0.00362974
0.00458871
0.00567508
0.00682887
0.00782985
0.00835063
0.00870093
0.00870672
0.00882782
0.00958685
0.00945508
0.00974358
0.0103299
0.0107706
0.0117116
0.0123897
0.0129275
0.0134669
0.0140989
0.014981
0.0147402
0.01527
0.000615644
0.000922786
0.00122041
0.00164301
0.00223201
0.00296205
0.00338782
0.00388462
0.00450452
0.00543037
0.00639305
0.0073814
0.0083499
0.00957098
0.0108291
0.0116677
0.0126348
0.0135266
0.0151421
0.0161752
0.0175965
0.0187146
0.0194895
0.0207152
0.00555924
0.00877779
0.0112443
0.0129259
0.0129044
0.00982113
0.00316149
0.000191663
0.000145792
0.000461977
0.000802497
0.00119992
0.00165779
0.00228173
0.0029235
0.0034986
0.00384433
0.00438855
0.00531104
0.00617652
0.00714782
0.00800183
0.00881826
0.00978589
0.0107216
0.0117787
0.0128533
0.0141405
0.0154336
0.0166864
0.0178831
0.01901
0.0201815
0.0212618
0.0211892
0.0217036
0.00626966
0.0096219
0.0123113
0.0141576
0.0141381
0.0112097
0.00463307
0.000278878
0.000103314
0.000267857
0.00057385
0.000950645
0.00139982
0.00194395
0.00251815
0.00310889
0.00344103
0.0036517
0.00422013
0.00500902
0.00591826
0.00678687
0.00762856
0.00853475
0.00942841
0.0104349
0.0115663
0.0127884
0.0140536
0.0153469
0.016612
0.0178923
0.0190483
0.0201549
0.0215866
0.0219972
0.00672477
0.0103487
0.013284
0.0152149
0.0150958
0.0122654
0.00601449
0.000415491
0.000134961
0.000339273
0.000621639
0.000866346
0.00122897
0.00156735
0.00174755
0.00188606
0.00217313
0.00256997
0.00308916
0.00372878
0.00458436
0.00542994
0.0062624
0.00716627
0.00802022
0.00897174
0.0100242
0.0112298
0.0125158
0.0138279
0.0151527
0.0164638
0.0176737
0.0187226
0.019854
0.0207195
0.00695778
0.0107819
0.0138816
0.0159028
0.0157529
0.0130241
0.00690607
0.000478013
0.000142477
0.000270326
0.000440131
0.000690743
0.000983834
0.00115692
0.00135553
0.00169027
0.00199285
0.00230134
0.00273993
0.0032848
0.00393941
0.00467634
0.00537582
0.0061256
0.00687858
0.00771603
0.00866173
0.00975611
0.0109523
0.0122341
0.0135602
0.0148782
0.0160675
0.0172714
0.0182416
0.0193422
0.00705483
0.0109851
0.014191
0.0162774
0.0161293
0.0134309
0.00746115
0.000664471
0.00011558
0.000308799
0.000516757
0.000626175
0.000782439
0.00100428
0.00131307
0.00173541
0.00211725
0.00248373
0.00289056
0.00334815
0.00384831
0.00441278
0.0049567
0.00553215
0.00608514
0.00675388
0.00757938
0.00853949
0.00963449
0.0108526
0.01218
0.0135173
0.0146837
0.0159799
0.0169531
0.0182046
0.00704679
0.0110063
0.014259
0.0163886
0.0162611
0.0135803
0.0076171
0.000652906
0.000108418
0.00044591
0.000486014
0.000573027
0.000753032
0.000995331
0.00130509
0.00169956
0.0021117
0.00250095
0.00287715
0.00333646
0.00381225
0.00429747
0.00477653
0.00527615
0.00572037
0.00628148
0.0069936
0.00776541
0.00875043
0.0101787
0.0117478
0.0130414
0.0140301
0.0153102
0.0162637
0.0176329
0.00695169
0.0108946
0.0141432
0.0162827
0.0161857
0.0135201
0.00752142
0.000590883
0.00027519
0.000278824
0.000343054
0.000552167
0.000827933
0.00112656
0.00145581
0.001843
0.00218808
0.00248294
0.00282146
0.00322182
0.00366812
0.00413916
0.00462539
0.0051302
0.00559781
0.00614099
0.00688644
0.00767817
0.00871238
0.0101793
0.0117794
0.0130422
0.0141222
0.0154401
0.0164291
0.0177944
0.00682425
0.0107175
0.013915
0.0160343
0.0159601
0.01329
0.00734008
0.000546516
0.000167886
0.000313905
0.000460591
0.000661577
0.000839811
0.000995991
0.00130308
0.00163721
0.00197905
0.00228901
0.00265381
0.0030775
0.00355061
0.00408866
0.00466391
0.00524655
0.00584985
0.00653549
0.00738514
0.00837342
0.00951979
0.0108212
0.0122172
0.0136062
0.0148521
0.0161917
0.0172394
0.0184995
0.0067062
0.010513
0.0136117
0.0156727
0.0156149
0.0129618
0.00690128
0.000493294
0.000188574
0.000295272
0.000444817
0.000710336
0.000896614
0.00108679
0.00133758
0.00162719
0.00192646
0.00228374
0.00269955
0.00320391
0.00379428
0.00446458
0.00517794
0.00589174
0.00665881
0.00750795
0.00846803
0.00958014
0.0107832
0.0121037
0.0134302
0.0147795
0.016032
0.0173059
0.018379
0.0195215
0.00656201
0.0102401
0.0132073
0.0151949
0.0151444
0.0124199
0.0062394
0.000411645
0.000179108
0.000367479
0.000403619
0.000594236
0.00096685
0.00132285
0.00153771
0.0018104
0.00217167
0.0026217
0.00323808
0.0039391
0.00469406
0.00549246
0.00625063
0.0070352
0.00786228
0.00875847
0.00976697
0.0108861
0.0120981
0.0133931
0.0146912
0.0159715
0.0171827
0.0183389
0.0195068
0.0205553
0.00625893
0.00979867
0.012619
0.0145322
0.0145097
0.0116821
0.00525031
0.000307546
0.000164614
0.000436996
0.000649302
0.000826686
0.00115554
0.00172035
0.00206209
0.00228955
0.00269588
0.00332114
0.00409346
0.00487884
0.00565706
0.00641732
0.00716674
0.00794125
0.00882486
0.0097319
0.010787
0.0119226
0.0131262
0.0144055
0.0156472
0.0168728
0.0180327
0.0191347
0.0191223
0.0200081
0.00587099
0.00938353
0.0121156
0.0138839
0.0137409
0.0106899
0.00378044
0.000260873
0.000229681
0.000482154
0.000616553
0.000876055
0.00125046
0.00170037
0.00195628
0.00235337
0.00294652
0.00367635
0.00453884
0.00526082
0.0061011
0.00677789
0.00750477
0.00867537
0.00979088
0.0106728
0.0116849
0.0131622
0.0142289
0.0152293
0.01616
0.0173241
0.0188419
0.0199032
0.0198443
0.0204845
0.000217974
0.000293776
0.000400057
0.000595122
0.000944343
0.00131576
0.00169019
0.00215159
0.00268024
0.00335069
0.00415602
0.00512058
0.00622566
0.00747183
0.0089551
0.0106417
0.0125255
0.0144747
0.0165412
0.0184858
0.0203476
0.0220623
0.0234654
0.0247907
9.01908e-06
9.15895e-06
9.19823e-06
9.21331e-06
9.18778e-06
7.23767e-06
6.43152e-06
2.20987e-05
5.30234e-05
7.69181e-05
4.80756e-05
1.92833e-05
1.23599e-05
0.000126954
0.000156415
0.000248247
0.000405051
0.000628051
0.000959464
0.00130678
0.00163399
0.00203606
0.00280439
0.00386587
0.00503386
0.00611458
0.00660515
0.00727272
0.00849561
0.0100818
0.0119325
0.0139202
0.0159743
0.0179848
0.0198833
0.0216252
0.0231676
0.0245871
0.0258202
0.0259219
0.0265848
9.01196e-06
9.16701e-06
9.1946e-06
9.25156e-06
9.20022e-06
6.32305e-06
9.27972e-06
4.662e-05
0.000126564
0.000169663
0.000104311
2.70786e-05
9.64894e-06
8.13273e-05
0.000159152
0.000268919
0.00041012
0.00060095
0.000853757
0.00114941
0.00145662
0.00176394
0.00211239
0.00255787
0.00310121
0.00376195
0.00457943
0.00561163
0.00696148
0.00859524
0.0104822
0.0125395
0.0146688
0.0167583
0.0187505
0.0205723
0.0222288
0.0237383
0.0248367
0.0264158
0.0270276
9.00546e-06
9.14953e-06
9.1905e-06
9.20612e-06
9.19667e-06
5.38363e-06
1.45939e-05
8.35226e-05
0.000229969
0.000318886
0.000179048
3.7584e-05
1.26649e-05
5.43431e-05
0.000111976
0.000210759
0.000368223
0.000557453
0.000745938
0.00104326
0.00133364
0.00151251
0.00181598
0.00228186
0.00247853
0.00271802
0.00308847
0.00384918
0.00556808
0.00709305
0.00892099
0.0109714
0.013143
0.0152959
0.0173525
0.0192392
0.0209651
0.022478
0.0237777
0.0248542
0.0258125
9.02879e-06
9.18454e-06
9.23372e-06
9.19749e-06
9.19507e-06
4.90702e-06
1.88508e-05
0.000113585
0.000326272
0.000471927
0.000244683
4.74314e-05
9.57898e-06
3.75434e-05
0.000136882
0.00024657
0.000354176
0.000526371
0.000736944
0.000990514
0.00130766
0.00159098
0.00175079
0.00205154
0.00268406
0.00295996
0.00318471
0.0035523
0.00453561
0.0065079
0.0081955
0.00999978
0.0120338
0.0140938
0.016085
0.0179303
0.019669
0.0211704
0.0226008
0.0236586
0.0247451
9.03629e-06
9.15983e-06
9.1953e-06
9.20602e-06
9.17019e-06
4.66584e-06
2.17077e-05
0.000133437
0.000384732
0.000571688
0.000283985
6.24664e-05
1.95458e-05
9.65477e-05
0.000150418
0.000259439
0.000350719
0.000542569
0.000790058
0.00107866
0.00142442
0.00175693
0.00193423
0.00225562
0.00286085
0.00313048
0.00331401
0.00357049
0.00413437
0.00555457
0.00751038
0.00951707
0.0113583
0.0132376
0.0150929
0.0168566
0.0185837
0.0200968
0.0216099
0.0227151
0.0239021
9.03675e-06
9.19651e-06
9.16805e-06
9.20141e-06
9.18185e-06
4.63203e-06
2.24912e-05
0.00013837
0.000398047
0.000596672
0.000292805
6.44038e-05
1.91165e-05
7.95623e-05
0.000176973
0.000253529
0.000368397
0.000595322
0.000878235
0.00120446
0.00158093
0.00192911
0.00212254
0.00235981
0.00285614
0.00323847
0.0034098
0.00361774
0.00415166
0.00528839
0.00687105
0.00888181
0.0106129
0.0124558
0.0143539
0.0162013
0.0179932
0.0195361
0.0211031
0.02224
0.0234844
9.02994e-06
9.19182e-06
9.19087e-06
9.27583e-06
9.18454e-06
4.69722e-06
2.13038e-05
0.000129447
0.000364552
0.000562771
0.000282013
5.66788e-05
1.14641e-05
0.000101507
0.000196376
0.000242951
0.000406112
0.000641729
0.000905927
0.00117678
0.00152342
0.00183802
0.00199924
0.00224055
0.00272108
0.00311763
0.0032736
0.00346199
0.00389737
0.00494101
0.00641846
0.00841567
0.0102912
0.0122668
0.014266
0.0161872
0.0180279
0.0196022
0.021194
0.0223501
0.0235927
9.00687e-06
9.15988e-06
9.18514e-06
9.23659e-06
9.17378e-06
4.86121e-06
1.92706e-05
0.000116679
0.000328753
0.000498765
0.000259888
5.64111e-05
1.11339e-05
6.70726e-05
0.000146414
0.000207551
0.000286873
0.000522951
0.000744082
0.00104937
0.00136015
0.00165871
0.00183793
0.00207572
0.00256197
0.00289394
0.00304998
0.0032643
0.00375153
0.00505339
0.00680855
0.00871907
0.0107493
0.0128251
0.0148624
0.0167771
0.018623
0.020207
0.0217843
0.0229456
0.0241393
9.04094e-06
9.1753e-06
9.17513e-06
9.1939e-06
9.17983e-06
5.03754e-06
1.71461e-05
0.000101546
0.000282987
0.0004202
0.000227834
4.82328e-05
9.65489e-06
5.33775e-05
0.000180134
0.000223864
0.000365713
0.000540452
0.00075123
0.00103516
0.00130162
0.00153551
0.00177231
0.00211674
0.00242884
0.00265976
0.00287949
0.00327667
0.0043003
0.00600644
0.0074825
0.00933977
0.0114599
0.0136324
0.0157521
0.0177133
0.0195571
0.0211254
0.0226489
0.0238135
0.0249394
9.0332e-06
9.17485e-06
9.2449e-06
9.20914e-06
9.20121e-06
5.33862e-06
1.44103e-05
8.29657e-05
0.000221131
0.00031875
0.000182461
3.95315e-05
9.33052e-06
8.42501e-05
0.000204623
0.000225252
0.000341595
0.000510786
0.000719486
0.000984369
0.00125238
0.00152541
0.00181768
0.00217966
0.00260509
0.0031126
0.00374151
0.00454061
0.00561804
0.00701907
0.00871281
0.0106506
0.0127447
0.0148517
0.0169094
0.018811
0.020583
0.0220849
0.02351
0.0247541
0.0258263
9.00931e-06
9.15389e-06
9.23485e-06
9.20408e-06
9.19729e-06
5.95041e-06
1.14806e-05
6.32447e-05
0.000158972
0.000216703
0.000129283
3.22022e-05
1.11384e-05
6.1435e-05
0.000167099
0.000293146
0.000354471
0.000507085
0.000771472
0.00108746
0.00141427
0.00177047
0.00218139
0.00265535
0.00320807
0.00386066
0.00464093
0.00559961
0.00677178
0.00822398
0.00992393
0.0118279
0.013856
0.0158846
0.0178671
0.0196857
0.0213868
0.0227987
0.0242638
0.0242852
0.0250221
9.04783e-06
9.19251e-06
9.21703e-06
9.22408e-06
9.21239e-06
6.22091e-06
9.99531e-06
4.73674e-05
0.000105754
0.000136186
8.10222e-05
2.24908e-05
1.28984e-05
0.000116237
0.000164831
0.000241552
0.000394556
0.000610831
0.000907146
0.00124025
0.00159966
0.00198891
0.00242165
0.00295149
0.00353052
0.00424895
0.00504179
0.00602402
0.00719831
0.00870725
0.0104198
0.0123168
0.0143642
0.0163698
0.0183064
0.0200512
0.0217044
0.0231432
0.0244367
0.0246049
0.0255483
5.6618e-05
0.000125654
0.00023948
0.000402698
0.000683814
0.00102589
0.00137362
0.00176277
0.0022346
0.00278549
0.00347252
0.00447043
0.00592495
0.0078876
0.0102868
0.0129189
0.0156182
0.0182437
0.0207217
0.0229631
0.024952
0.0267019
0.0281132
0.0294483
9.0001e-06
8.98246e-06
8.9619e-06
8.94389e-06
8.93623e-06
8.92551e-06
8.94396e-06
9.00061e-06
9.16381e-06
9.36793e-06
9.69404e-06
1.00556e-05
1.21713e-05
1.92569e-05
5.87611e-05
0.000116813
0.000223361
0.000403088
0.0006691
0.000978381
0.00130413
0.00167054
0.00211177
0.00263164
0.00326997
0.00419751
0.0055717
0.00748388
0.00986434
0.0125035
0.0152205
0.0178762
0.0203756
0.0226452
0.0246606
0.0264283
0.0279437
0.0292845
0.0305331
0.0306188
0.0310483
8.99905e-06
8.98303e-06
8.96412e-06
8.94367e-06
8.9361e-06
8.92935e-06
8.9484e-06
9.0188e-06
9.16634e-06
9.41369e-06
9.69032e-06
1.01472e-05
1.40972e-05
3.09863e-05
6.54132e-05
0.000118537
0.000247043
0.00042955
0.000658219
0.00090719
0.00116512
0.00142831
0.00171972
0.00208378
0.00254949
0.00327389
0.00448093
0.00630863
0.00866864
0.0113328
0.0141005
0.0168266
0.0193968
0.0217367
0.0238233
0.02565
0.0272471
0.0286571
0.0296921
0.0309656
0.0316786
8.99972e-06
8.98388e-06
8.96562e-06
8.94285e-06
8.93221e-06
8.93301e-06
8.95302e-06
9.02073e-06
9.17256e-06
9.37933e-06
9.65759e-06
1.01093e-05
1.26972e-05
2.48007e-05
6.02917e-05
0.000127982
0.000283645
0.000437507
0.000630061
0.000887137
0.00112152
0.00124329
0.00155442
0.00219031
0.00275683
0.00307304
0.00372199
0.0051252
0.00729575
0.00992253
0.0127586
0.0155959
0.0182574
0.0206549
0.0227813
0.0246435
0.026277
0.0276983
0.0288842
0.0298601
0.0307389
8.99894e-06
8.98319e-06
8.96665e-06
8.9438e-06
8.93181e-06
8.9364e-06
8.95615e-06
9.03938e-06
9.18179e-06
9.40521e-06
9.69124e-06
1.01539e-05
1.31278e-05
2.64138e-05
6.84811e-05
0.000127245
0.00024256
0.000409413
0.000588163
0.0008052
0.00102118
0.00124067
0.00148616
0.00185805
0.00221407
0.00256604
0.00315216
0.00425479
0.00611359
0.00862156
0.0115871
0.0147742
0.0175883
0.0199092
0.0219266
0.023708
0.0253229
0.0267099
0.0280136
0.0289463
0.0299233
8.9993e-06
8.98285e-06
8.96732e-06
8.94507e-06
8.93221e-06
8.93878e-06
8.95848e-06
9.04072e-06
9.18751e-06
9.40547e-06
9.67377e-06
1.02372e-05
1.21885e-05
2.3438e-05
7.81457e-05
0.000112088
0.000218561
0.000379144
0.000558367
0.00079632
0.000984551
0.00128105
0.00144403
0.00193215
0.00225622
0.00252806
0.00338324