/*--------------------------------*- C++ -*----------------------------------*\
  =========                 |
  \\      /  F ield         | OpenFOAM: The Open Source CFD Toolbox
   \\    /   O peration     | Website:  https://openfoam.org
    \\  /    A nd           | Version:  7
     \\/     M anipulation  |
\*---------------------------------------------------------------------------*/
FoamFile
{
    version     2.0;
    format      ascii;
    class       volScalarField;
    location    "100";
    object      p;
}
// * * * * * * * * * * * * * * * * * * * * * * * * * * * * * * * * * * * * * //

dimensions      [0 2 -2 0 0 0 0];

internalField   nonuniform List<scalar> 
120313
(
2.68271
3.35821
3.35804
2.88278
2.37676
1.94159
1.52174
1.14162
0.831581
0.587091
0.394454
0.242819
0.123566
0.0308075
-0.0397931
-0.0928454
-0.130939
-0.156422
-0.16914
-0.167346
-0.168298
-0.168186
-0.106859
-0.131864
2.92115
3.54773
3.49202
2.96191
2.42016
1.9783
1.56358
1.17906
0.855717
0.601032
0.401733
0.246651
0.126071
0.0326592
-0.0385518
-0.0921861
-0.131181
-0.15785
-0.173556
-0.17797
-0.17639
-0.176592
-0.116287
-0.122772
3.17981
3.82333
3.74302
3.13878
2.54376
2.07965
1.65039
1.24853
0.908793
0.641796
0.433228
0.270531
0.144504
0.0473426
-0.0269136
-0.0831485
-0.124586
-0.153861
-0.171662
-0.179352
-0.179324
-0.179197
-0.115558
-0.114055
3.3037
3.98337
3.89736
3.2379
2.60239
2.11894
1.67866
1.26805
0.922283
0.651468
0.441716
0.278685
0.152253
0.0544819
-0.0207219
-0.077863
-0.120298
-0.150385
-0.168523
-0.176405
-0.174745
-0.175338
-0.114027
-0.11386
3.35224
4.09834
4.05077
3.34098
2.65931
2.16056
1.71283
1.29178
0.938132
0.662669
0.45056
0.285711
0.157529
0.0584644
-0.0175238
-0.0756634
-0.119753
-0.151246
-0.169516
-0.174528
-0.172583
-0.173772
-0.114981
-0.115202
3.36881
4.13785
4.15203
3.42244
2.69795
2.19391
1.74626
1.321
0.960765
0.681618
0.466725
0.298574
0.167836
0.0670272
-0.0102315
-0.069129
-0.11426
-0.146638
-0.166074
-0.171458
-0.170686
-0.172494
-0.112771
-0.110702
3.3221
4.07217
4.06123
3.33199
2.64139
2.1464
1.70072
1.28204
0.930069
0.656077
0.445149
0.281255
0.153838
0.0553936
-0.0204778
-0.0786935
-0.122933
-0.153764
-0.172891
-0.181426
-0.182091
-0.18158
-0.127943
-0.117402
3.3006
4.1172
4.0935
3.36846
2.69144
2.18004
1.7141
1.29003
0.942887
0.669742
0.456589
0.290857
0.16246
0.0634223
-0.0129851
-0.0715511
-0.115489
-0.14604
-0.165314
-0.175035
-0.176396
-0.175595
-0.130147
-0.127584
-22.5331
-26.7763
-30.2518
-31.7067
-30.8028
-27.1356
-20.2216
-10.7878
-2.18589
0.961418
2.19301
2.4153
2.29225
2.0227
1.6774
1.33361
1.02639
0.762226
0.546804
0.370736
0.231302
0.119011
0.0297007
-0.0406917
-0.0937601
-0.132938
-0.159525
-0.173836
-0.165548
-0.154703
-0.15947
-0.13767
-0.11253
-0.0455394
0.0484081
0.060635
-22.2047
-26.7076
-30.1509
-31.6147
-30.8014
-27.2564
-20.4064
-10.7808
-2.16108
1.38368
2.28939
2.37666
2.15395
1.84388
1.50832
1.1799
0.885506
0.637268
0.436563
0.276193
0.149495
0.0497066
-0.0287538
-0.0883086
-0.131748
-0.16219
-0.182836
-0.190311
-0.188496
-0.181865
-0.167868
-0.138201
-0.165701
-0.140743
-0.0013701
-0.037111
-21.7325
-26.5238
-30.0388
-31.5398
-30.7905
-27.319
-20.5506
-10.9363
-2.09777
1.54856
2.4028
2.48907
2.21069
1.86234
1.52141
1.18823
0.883923
0.628894
0.423141
0.258373
0.129694
0.0304193
-0.0470485
-0.105275
-0.148599
-0.179213
-0.199212
-0.209173
-0.209238
-0.203041
-0.196551
-0.161983
-0.186171
-0.14136
-0.0229927
-0.0650635
-21.3022
-26.2986
-29.9042
-31.4539
-30.7629
-27.3672
-20.6845
-11.0886
-2.0018
1.79531
2.57312
2.59583
2.29729
1.93742
1.58527
1.2414
0.92781
0.664911
0.453241
0.283613
0.149555
0.0460267
-0.0337794
-0.0944949
-0.140109
-0.172868
-0.195584
-0.208185
-0.212978
-0.212427
-0.209264
-0.17334
-0.186464
-0.148044
-0.0443803
-0.069859
-20.9794
-26.1017
-29.7835
-31.3815
-30.7473
-27.4248
-20.8123
-11.2226
-1.92803
1.94488
2.67005
2.68126
2.36194
1.9846
1.61452
1.26099
0.944337
0.678331
0.462571
0.290678
0.155222
0.0501908
-0.0307588
-0.0921703
-0.138453
-0.171696
-0.195607
-0.207493
-0.213789
-0.214628
-0.212277
-0.180196
-0.179522
-0.152187
-0.0597166
-0.0750714
-20.8138
-25.9821
-29.7073
-31.3382
-30.7456
-27.4788
-20.9144
-11.3164
-1.88417
2.04576
2.70588
2.70053
2.38694
2.00968
1.63648
1.27686
0.957224
0.687925
0.469496
0.297228
0.161063
0.0550155
-0.0270326
-0.0891981
-0.136648
-0.171957
-0.198552
-0.209095
-0.213718
-0.211968
-0.213053
-0.182615
-0.179038
-0.155971
-0.0669463
-0.0792475
-20.8061
-25.9635
-29.6948
-31.3368
-30.763
-27.5225
-20.9742
-11.3606
-1.86439
2.07938
2.72661
2.68952
2.37292
2.01153
1.64922
1.29207
0.967802
0.695206
0.476028
0.303479
0.166471
0.0600593
-0.0218393
-0.0842585
-0.132678
-0.169542
-0.197675
-0.209866
-0.214372
-0.212506
-0.213822
-0.182498
-0.178442
-0.155548
-0.0670737
-0.0766976
-20.9378
-26.0392
-29.7479
-31.3848
-30.8094
-27.5634
-20.997
-11.3558
-1.84835
2.05989
2.71796
2.69102
2.37433
2.00608
1.64511
1.2878
0.961724
0.688943
0.469425
0.296174
0.1591
0.0520028
-0.0301652
-0.0923264
-0.140343
-0.175949
-0.201832
-0.215903
-0.222492
-0.220672
-0.215323
-0.185398
-0.185426
-0.156599
-0.0614306
-0.076083
-21.1523
-26.17
-29.8446
-31.4749
-30.8841
-27.5997
-20.9845
-11.3062
-1.86659
2.05534
2.77864
2.73617
2.43402
2.05253
1.67248
1.30897
0.982998
0.70881
0.48686
0.310521
0.171634
0.0638271
-0.019281
-0.0830922
-0.131949
-0.167468
-0.192998
-0.207384
-0.213537
-0.211016
-0.202898
-0.182091
-0.183244
-0.159158
-0.052677
-0.071738
-21.4108
-26.3081
-29.9521
-31.583
-30.9667
-27.616
-20.9267
-11.2326
-1.95421
1.84597
2.7872
2.79406
2.49818
2.09975
1.69489
1.32155
0.995649
0.722482
0.501205
0.325398
0.186416
0.0779221
-0.00590594
-0.0703044
-0.118891
-0.154461
-0.179573
-0.194913
-0.202859
-0.19844
-0.186094
-0.165814
-0.157482
-0.1418
-0.0358131
-0.0654354
-21.6957
-26.4075
-30.046
-31.6867
-31.0255
-27.5785
-20.791
-11.1443
-2.06059
1.54652
2.8238
2.97494
2.70627
2.27717
1.84041
1.43844
1.09194
0.801936
0.566103
0.378254
0.229597
0.113103
0.0227698
-0.0465218
-0.0992054
-0.137876
-0.164615
-0.179295
-0.190072
-0.184025
-0.170679
-0.161119
-0.148726
-0.123827
-0.0474025
-0.0233004
-21.8638
-26.444
-30.1608
-31.8343
-31.1017
-27.5002
-20.5627
-11.1595
-2.34361
1.29791
2.59437
2.79904
2.60729
2.22632
1.81005
1.42416
1.08889
0.806379
0.574737
0.387883
0.239568
0.122619
0.0305337
-0.040634
-0.094707
-0.135073
-0.161581
-0.183069
-0.193744
-0.185856
-0.161918
-0.152134
-0.140706
-0.102193
-0.00483628
0.0213574
-0.92837
0.75057
1.25725
1.35407
1.25581
1.06513
0.84136
0.63136
0.449615
0.292956
0.165987
0.0638146
-0.0165693
-0.0815063
-0.132514
-0.17005
-0.197908
-0.214008
-0.220828
-0.218067
-0.210176
-0.197876
-0.181493
-0.165532
-24.1858
-28.0161
-31.5081
-33.5258
-33.5839
-31.059
-24.7904
-13.8345
-4.76744
-0.588376
0.909778
1.38844
1.45435
1.32539
1.1136
0.876801
0.654628
0.461906
0.302634
0.172955
0.0687113
-0.012587
-0.0785266
-0.130227
-0.168092
-0.196073
-0.213132
-0.219995
-0.216
-0.208686
-0.19821
-0.18404
-0.159621
-0.125072
-0.033933
0.0166172
-24.1648
-27.9551
-31.3625
-33.3294
-33.4212
-31.0336
-25.0616
-14.4452
-4.69139
-0.403487
0.999442
1.45083
1.49345
1.35498
1.14074
0.902746
0.674983
0.475123
0.311033
0.179629
0.074592
-0.00756409
-0.0736658
-0.124093
-0.161576
-0.189673
-0.207787
-0.216303
-0.215013
-0.207811
-0.199449
-0.183485
-0.172872
-0.137782
-0.0917582
0.00461296
-23.9862
-27.8882
-31.2735
-33.2209
-33.3488
-31.056
-25.2668
-14.9071
-4.75848
-0.302438
1.07663
1.50093
1.5254
1.38083
1.16585
0.925477
0.692859
0.486692
0.315829
0.179491
0.0730578
-0.00934577
-0.0758733
-0.126715
-0.16519
-0.193813
-0.212162
-0.220205
-0.220038
-0.214564
-0.206532
-0.192558
-0.190483
-0.158644
-0.118851
0.0128649
-23.7515
-27.778
-31.192
-33.1465
-33.3071
-31.0892
-25.4439
-15.2462
-4.79387
-0.187459
1.17118
1.57496
1.57951
1.42021
1.20065
0.959218
0.724235
0.513421
0.337814
0.19644
0.0855918
0.00096929
-0.0663157
-0.118802
-0.15885
-0.188528
-0.208504
-0.218564
-0.221896
-0.218815
-0.213956
-0.20084
-0.201008
-0.170777
-0.138124
0.00462162
-23.5401
-27.6566
-31.112
-33.0877
-33.2817
-31.1322
-25.6068
-15.4911
-4.80316
-0.0990193
1.24877
1.63327
1.62224
1.44954
1.22278
0.978105
0.73952
0.52705
0.349753
0.205339
0.0914685
0.00468884
-0.0631545
-0.115315
-0.15581
-0.186649
-0.208007
-0.218731
-0.223752
-0.221588
-0.217787
-0.204797
-0.199498
-0.174237
-0.143978
-0.00416947
-23.4065
-27.5654
-31.0526
-33.0502
-33.2718
-31.1743
-25.7322
-15.6579
-4.80687
-0.0529861
1.2931
1.67515
1.66175
1.4835
1.25158
1.00134
0.75762
0.541757
0.360692
0.213382
0.0978974
0.00891991
-0.0598838
-0.112351
-0.15403
-0.185705
-0.208381
-0.220157
-0.226173
-0.222539
-0.219781
-0.206814
-0.200422
-0.178422
-0.148476
-0.00902092
-23.3723
-27.5309
-31.0319
-33.044
-33.2821
-31.2109
-25.8028
-15.7356
-4.81516
-0.0360521
1.31599
1.70315
1.69089
1.51055
1.27408
1.01949
0.772207
0.553032
0.36924
0.219858
0.103217
0.0138562
-0.0555335
-0.109016
-0.151647
-0.184335
-0.208192
-0.22061
-0.226582
-0.222777
-0.220094
-0.20653
-0.199779
-0.177366
-0.147794
-0.00793747
-23.4312
-27.5542
-31.0546
-33.0765
-33.3215
-31.2491
-25.8282
-15.7189
-4.79671
-0.026928
1.3378
1.72852
1.71467
1.5298
1.28504
1.02323
0.771559
0.550828
0.367586
0.218658
0.100867
0.0105881
-0.0591476
-0.112947
-0.155541
-0.187156
-0.210362
-0.223487
-0.229537
-0.226093
-0.220451
-0.205768
-0.202444
-0.177623
-0.14281
0.00178969
-23.5459
-27.6139
-31.1117
-33.1488
-33.395
-31.2943
-25.8053
-15.5981
-4.75953
-0.00740382
1.37701
1.78147
1.76757
1.57136
1.31225
1.03895
0.779299
0.554041
0.36942
0.221868
0.105939
0.0147158
-0.0563336
-0.111694
-0.154638
-0.185119
-0.206765
-0.21895
-0.223937
-0.220155
-0.21214
-0.199594
-0.191886
-0.168636
-0.132216
0.00325789
-23.6747
-27.6818
-31.1952
-33.2615
-33.5033
-31.3405
-25.7197
-15.3565
-4.71719
-0.0542592
1.36523
1.77718
1.7714
1.57227
1.30318
1.02583
0.768982
0.547539
0.367278
0.223414
0.10853
0.0177158
-0.0542043
-0.110923
-0.153598
-0.183829
-0.203736
-0.215192
-0.219775
-0.214632
-0.203037
-0.188412
-0.172147
-0.150454
-0.110602
-0.00843526
-23.7692
-27.7498
-31.321
-33.4383
-33.6645
-31.3889
-25.5601
-15.033
-4.75375
-0.259856
1.23736
1.68915
1.70371
1.51918
1.25816
0.986172
0.738298
0.525521
0.351893
0.212161
0.100026
0.0106671
-0.0615506
-0.117923
-0.158881
-0.187968
-0.205962
-0.216829
-0.219981
-0.214781
-0.200454
-0.187332
-0.167285
-0.148107
-0.0646415
-0.019309
-23.7924
-27.8613
-31.5164
-33.7054
-33.9239
-31.4998
-25.3214
-14.6201
-4.84948
-0.39563
1.03157
1.50415
1.5612
1.4059
1.16983
0.918351
0.687288
0.488244
0.324639
0.190626
0.0827636
-0.00385749
-0.0737933
-0.126881
-0.16655
-0.194735
-0.211366
-0.220809
-0.222295
-0.216548
-0.200957
-0.188815
-0.164945
-0.151778
-0.0635393
-0.00786505
-3.5535
-1.39464
-0.3495
0.163288
0.386792
0.437017
0.390555
0.298489
0.192492
0.0951179
0.00992151
-0.0607382
-0.116293
-0.161273
-0.195027
-0.218324
-0.233261
-0.240294
-0.239939
-0.233087
-0.21977
-0.203118
-0.178592
-0.162924
-23.0696
-27.1356
-31.3919
-34.4218
-35.5529
-33.9946
-28.4063
-17.3687
-7.96956
-3.34096
-1.25754
-0.221281
0.269558
0.468421
0.498285
0.437123
0.33322
0.219791
0.116249
0.026906
-0.0465823
-0.105141
-0.1525
-0.187405
-0.212607
-0.228081
-0.237374
-0.239533
-0.233388
-0.220569
-0.205662
-0.185574
-0.159419
-0.122349
-0.0359775
3.97655e-05
-23.238
-27.1595
-31.3166
-34.277
-35.4102
-33.9401
-28.6361
-17.9392
-7.97267
-3.34611
-1.26488
-0.234261
0.248955
0.44312
0.477716
0.423396
0.326522
0.218683
0.117376
0.0290385
-0.0445754
-0.103421
-0.150198
-0.185355
-0.211878
-0.229256
-0.241192
-0.24257
-0.235616
-0.223329
-0.211224
-0.189422
-0.167239
-0.128089
-0.0830195
-0.0212329
-23.2511
-27.2149
-31.3208
-34.2271
-35.3595
-33.9654
-28.8608
-18.407
-8.0847
-3.29022
-1.21418
-0.227027
0.248705
0.443519
0.475053
0.421039
0.328515
0.224254
0.125713
0.0396331
-0.0346293
-0.0962261
-0.145566
-0.18358
-0.212385
-0.231789
-0.243696
-0.246526
-0.242834
-0.232384
-0.221047
-0.200827
-0.183131
-0.148082
-0.0995985
-0.0190461
-23.1373
-27.2035
-31.3182
-34.2054
-35.3414
-34.0161
-29.0727
-18.7826
-8.20148
-3.24886
-1.18826
-0.211087
0.249067
0.43821
0.471036
0.419812
0.330124
0.228031
0.1309
0.0465462
-0.0260392
-0.0873239
-0.137816
-0.177209
-0.207798
-0.229014
-0.242447
-0.247039
-0.246405
-0.238199
-0.230505
-0.210912
-0.200154
-0.166693
-0.114132
-0.0232488
-22.9854
-27.1344
-31.2827
-34.1775
-35.3305
-34.0686
-29.2641
-19.1036
-8.27534
-3.19718
-1.15138
-0.196625
0.259562
0.440875
0.477237
0.425845
0.33244
0.228715
0.133242
0.050053
-0.0222513
-0.0831974
-0.133292
-0.17257
-0.204105
-0.226765
-0.24168
-0.247576
-0.249095
-0.242992
-0.23731
-0.218646
-0.211298
-0.178544
-0.122328
-0.0277316
-22.8591
-27.0524
-31.233
-34.146
-35.3205
-34.1078
-29.398
-19.2993
-8.33006
-3.18144
-1.1385
-0.189454
0.267288
0.449639
0.488388
0.437557
0.341154
0.236161
0.140409
0.0553698
-0.017692
-0.078977
-0.129367
-0.169133
-0.201011
-0.224124
-0.240013
-0.247394
-0.251219
-0.246308
-0.24148
-0.223834
-0.220596
-0.188531
-0.125624
-0.027831
-22.7904
-26.993
-31.1935
-34.1238
-35.315
-34.1261
-29.4536
-19.3638
-8.36156
-3.18075
-1.12805
-0.172599
0.284227
0.463432
0.496361
0.442779
0.347577
0.243279
0.145873
0.059239
-0.01412
-0.0760591
-0.127717
-0.168483
-0.200584
-0.223126
-0.238598
-0.246522
-0.250649
-0.24612
-0.240226
-0.224919
-0.221075
-0.186576
-0.124024
-0.0265802
-22.7919
-26.9701
-31.1764
-34.1222
-35.3228
-34.1276
-29.4327
-19.3231
-8.34328
-3.18743
-1.11438
-0.146693
0.318415
0.496311
0.515805
0.454488
0.357103
0.250386
0.15149
0.0638627
-0.011489
-0.0747387
-0.127444
-0.169489
-0.20176
-0.224051
-0.239192
-0.246531
-0.249667
-0.244134
-0.237714
-0.22045
-0.213355
-0.179984
-0.1193
-0.0238025
-22.8414
-26.9722
-31.1815
-34.1506
-35.3585
-34.1308
-29.3512
-19.1581
-8.28754
-3.19966
-1.10227
-0.0934085
0.371276
0.54083
0.547963
0.478154
0.374284
0.262631
0.159351
0.0686923
-0.00943722
-0.0754605
-0.129736
-0.171601
-0.202832
-0.224133
-0.237926
-0.243975
-0.245792
-0.238754
-0.230842
-0.212671
-0.193248
-0.161772
-0.110709
-0.0235472
-22.8832
-26.9702
-31.2097
-34.2231
-35.4376
-34.1571
-29.2328
-18.8812
-8.20894
-3.21926
-1.08923
-0.056779
0.411961
0.572436
0.570304
0.492111
0.38151
0.265446
0.157338
0.0628413
-0.016473
-0.0813391
-0.133794
-0.174086
-0.204004
-0.224302
-0.236467
-0.241924
-0.242674
-0.232534
-0.218421
-0.198878
-0.175186
-0.142892
-0.0970702
-0.0265062
-22.845
-26.9751
-31.29
-34.3729
-35.5911
-34.2218
-29.0794
-18.5142
-8.14967
-3.29915
-1.16553
-0.112622
0.381558
0.554933
0.560386
0.48543
0.374373
0.257157
0.148137
0.0536734
-0.0247234
-0.0882691
-0.139277
-0.178497
-0.206658
-0.225406
-0.236645
-0.239499
-0.236246
-0.227271
-0.211826
-0.193696
-0.168013
-0.140814
-0.0398775
-0.0135523
-22.7723
-27.0675
-31.4638
-34.6125
-35.8398
-34.3686
-28.9176
-18.1377
-8.10955
-3.25495
-1.18619
-0.143944
0.34745
0.528331
0.538091
0.464664
0.356918
0.24217
0.134887
0.0415771
-0.0349486
-0.0966916
-0.146838
-0.185495
-0.212236
-0.229662
-0.240057
-0.240865
-0.235427
-0.225442
-0.210102
-0.193028
-0.166224
-0.146465
-0.0418268
-0.0104475
-5.74632
-3.30722
-1.93721
-1.1152
-0.62381
-0.347821
-0.205053
-0.149227
-0.143943
-0.156357
-0.180486
-0.206983
-0.231239
-0.249964
-0.261713
-0.268524
-0.267876
-0.263894
-0.255708
-0.242508
-0.223807
-0.201586
-0.176229
-0.151686
-20.0837
-24.4127
-29.1949
-32.7723
-34.0808
-32.3655
-26.2493
-17.6977
-10.4173
-5.63922
-3.29333
-1.91893
-1.09282
-0.605406
-0.3343
-0.196413
-0.141783
-0.13435
-0.149032
-0.173542
-0.199983
-0.225245
-0.245293
-0.258251
-0.265438
-0.265604
-0.26315
-0.256125
-0.244123
-0.226546
-0.205885
-0.182608
-0.152784
-0.118406
-0.0227453
-0.00858854
-19.8712
-24.4032
-29.2183
-32.7575
-34.0874
-32.4648
-26.6886
-18.1045
-10.4025
-5.67506
-3.28888
-1.89661
-1.07849
-0.60124
-0.334524
-0.199084
-0.14249
-0.129948
-0.141616
-0.165981
-0.192988
-0.219124
-0.240378
-0.254903
-0.264314
-0.26681
-0.26622
-0.257932
-0.246095
-0.229271
-0.21082
-0.187612
-0.161134
-0.124375
-0.085557
-0.0304536
-19.5385
-24.3963
-29.3025
-32.8327
-34.2052
-32.6628
-27.1715
-18.4803
-10.5048
-5.66949
-3.25804
-1.87295
-1.06663
-0.597602
-0.335697
-0.201338
-0.143776
-0.128649
-0.134787
-0.152793
-0.179026
-0.208172
-0.232216
-0.250115
-0.262511
-0.267417
-0.267778
-0.262252
-0.252696
-0.236928
-0.219817
-0.197919
-0.175706
-0.142835
-0.0981704
-0.028742
-19.2424
-24.3377
-29.3374
-32.8973
-34.3209
-32.8684
-27.5943
-18.8232
-10.599
-5.65065
-3.22592
-1.84452
-1.04638
-0.584337
-0.328648
-0.199006
-0.144036
-0.130313
-0.136925
-0.151864
-0.173849
-0.200931
-0.226347
-0.24602
-0.259631
-0.266396
-0.268326
-0.264211
-0.256392
-0.243224
-0.229348
-0.209213
-0.194116
-0.161856
-0.109825
-0.0313055
-19.0111
-24.2433
-29.3162
-32.9129
-34.3838
-33.0217
-27.8794
-19.0784
-10.6714
-5.63954
-3.20266
-1.82121
-1.02617
-0.569872
-0.317707
-0.192034
-0.1409
-0.130349
-0.138391
-0.153041
-0.17387
-0.198992
-0.222765
-0.242984
-0.258167
-0.266187
-0.269242
-0.266136
-0.259708
-0.249211
-0.238326
-0.221139
-0.210107
-0.173526
-0.113708
-0.0332279
-18.8727
-24.1514
-29.2633
-32.8907
-34.3977
-33.0984
-28.0428
-19.2102
-10.7193
-5.64818
-3.19432
-1.80578
-1.00977
-0.555691
-0.305276
-0.181499
-0.133151
-0.124848
-0.133693
-0.149402
-0.170976
-0.195556
-0.21953
-0.240265
-0.255624
-0.264767
-0.268675
-0.266329
-0.262379
-0.254664
-0.24621
-0.235286
-0.221072
-0.175615
-0.112278
-0.0325764
-18.8296
-24.0934
-29.2108
-32.8526
-34.3757
-33.1012
-28.0697
-19.2497
-10.7417
-5.6502
-3.18414
-1.78715
-0.990575
-0.540073
-0.29493
-0.175024
-0.128396
-0.120625
-0.131037
-0.14755
-0.168903
-0.193818
-0.218399
-0.239282
-0.255086
-0.264793
-0.268821
-0.266899
-0.263191
-0.256651
-0.245035
-0.235961
-0.218902
-0.17244
-0.111887
-0.0315487
-18.8995
-24.0851
-29.1778
-32.8147
-34.3326
-33.0404
-27.9911
-19.2203
-10.7312
-5.64494
-3.17541
-1.77426
-0.974653
-0.5243
-0.282934
-0.165627
-0.119819
-0.112804
-0.124202
-0.142238
-0.165107
-0.191531
-0.217658
-0.239576
-0.254658
-0.264341
-0.268807
-0.266183
-0.260544
-0.2514
-0.239853
-0.226092
-0.209343
-0.169019
-0.109718
-0.0295129
-19.047
-24.1169
-29.1652
-32.7904
-34.2867
-32.9393
-27.8037
-19.0572
-10.6858
-5.64986
-3.17833
-1.76747
-0.964647
-0.513998
-0.27371
-0.156662
-0.110564
-0.103375
-0.115318
-0.136292
-0.163319
-0.192246
-0.219987
-0.240907
-0.254075
-0.262553
-0.266512
-0.263812
-0.257043
-0.24634
-0.23261
-0.212691
-0.188392
-0.153611
-0.104111
-0.0289583
-19.233
-24.1466
-29.1592
-32.788
-34.258
-32.8359
-27.5123
-18.8189
-10.619
-5.6628
-3.19155
-1.76917
-0.958092
-0.50321
-0.261804
-0.145476
-0.100316
-0.0953439
-0.112937
-0.140438
-0.170532
-0.1999
-0.225362
-0.24371
-0.255821
-0.262561
-0.264716
-0.260836
-0.252331
-0.239188
-0.222041
-0.198557
-0.170389
-0.134767
-0.0913303
-0.0311267
-19.4051
-24.1613
-29.1658
-32.8461
-34.2896
-32.774
-27.1826
-18.5326
-10.5499
-5.69824
-3.26774
-1.83475
-1.00167
-0.532033
-0.280637
-0.156384
-0.108755
-0.104626
-0.123527
-0.15118
-0.180606
-0.208104
-0.230234
-0.246379
-0.257155
-0.262504
-0.263539
-0.257654
-0.247147
-0.23285
-0.213768
-0.190556
-0.159043
-0.127665
-0.0111968
-0.0158501
-19.4936
-24.2175
-29.2795
-33.0165
-34.4363
-32.7943
-26.8922
-18.2677
-10.4709
-5.56679
-3.21573
-1.82706
-1.00493
-0.53407
-0.281919
-0.158048
-0.111498
-0.108906
-0.12874
-0.155786
-0.184638
-0.210813
-0.232011
-0.249333
-0.259547
-0.263782
-0.263634
-0.256768
-0.244883
-0.230058
-0.210062
-0.187264
-0.154806
-0.13231
-0.00829052
-0.00695566
-7.40223
-4.89214
-3.3302
-2.2931
-1.59914
-1.14206
-0.844226
-0.651304
-0.528023
-0.449114
-0.398733
-0.367461
-0.346886
-0.331022
-0.315674
-0.300252
-0.283775
-0.267559
-0.249914
-0.229474
-0.206247
-0.182024
-0.156682
-0.129062
-17.6983
-17.6287
-17.5673
-17.3978
-17.1989
-18.5865
-22.1282
-25.616
-27.9757
-28.2715
-25.9356
-21.587
-16.7837
-11.5774
-7.32227
-4.90828
-3.33123
-2.28209
-1.58783
-1.13393
-0.839462
-0.648309
-0.525447
-0.447596
-0.398309
-0.367848
-0.347326
-0.332015
-0.317906
-0.301964
-0.286922
-0.271096
-0.252627
-0.232272
-0.21059
-0.187872
-0.164146
-0.133398
-0.100283
0.00610822
-0.00873058
-17.6276
-17.6082
-17.5246
-17.3081
-17.0235
-18.4386
-22.0471
-25.6508
-28.0579
-28.3984
-26.1366
-21.785
-16.9811
-11.5432
-7.34886
-4.90822
-3.30974
-2.26429
-1.57532
-1.12546
-0.835095
-0.647055
-0.524585
-0.44617
-0.3965
-0.366289
-0.346701
-0.333243
-0.318601
-0.305772
-0.291588
-0.276084
-0.257326
-0.237027
-0.215102
-0.192839
-0.169135
-0.14153
-0.108997
-0.0764785
-0.0315291
-17.5818
-17.5614
-17.4549
-17.1731
-16.772
-18.2564
-21.9646
-25.6918
-28.1553
-28.5971
-26.409
-22.0514
-17.1962
-11.6054
-7.35336
-4.88747
-3.28963
-2.25354
-1.56962
-1.12058
-0.830107
-0.643527
-0.523103
-0.44414
-0.392325
-0.3611
-0.343403
-0.331185
-0.320471
-0.310354
-0.297698
-0.282469
-0.264031
-0.2441
-0.222131
-0.200424
-0.17736
-0.152817
-0.122562
-0.0849017
-0.027529
-17.5383
-17.5125
-17.3804
-17.0376
-16.5399
-18.0519
-21.8657
-25.69
-28.243
-28.7727
-26.6584
-22.3042
-17.3939
-11.6697
-7.35144
-4.87129
-3.27345
-2.24056
-1.55929
-1.11242
-0.824089
-0.638931
-0.519542
-0.441559
-0.390141
-0.358892
-0.34122
-0.330747
-0.322453
-0.314313
-0.30272
-0.287363
-0.268691
-0.249482
-0.228602
-0.208583
-0.186988
-0.166816
-0.138623
-0.0955296
-0.0283362
-17.5009
-17.4695
-17.3178
-16.9308
-16.367
-17.878
-21.7723
-25.6635
-28.2818
-28.888
-26.8352
-22.4921
-17.5404
-11.7185
-7.35443
-4.86254
-3.26327
-2.23147
-1.55287
-1.10745
-0.820718
-0.63701
-0.51887
-0.441599
-0.39043
-0.359328
-0.340961
-0.32911
-0.321375
-0.31699
-0.30893
-0.293532
-0.273075
-0.253721
-0.234149
-0.216792
-0.197189
-0.180271
-0.149462
-0.0995977
-0.0289315
-17.4754
-17.4417
-17.2809
-16.8689
-16.2722
-17.787
-21.7032
-25.6241
-28.2777
-28.9296
-26.919
-22.5943
-17.6301
-11.7602
-7.35974
-4.85512
-3.25252
-2.22128
-1.54406
-1.10019
-0.814015
-0.63132
-0.514286
-0.437908
-0.387537
-0.356735
-0.339158
-0.328142
-0.320182
-0.316336
-0.310623
-0.296407
-0.275697
-0.256974
-0.238461
-0.225291
-0.210873
-0.189082
-0.149216
-0.0977388
-0.0279469
-17.4639
-17.4307
-17.2692
-16.8579
-16.2756
-17.7618
-21.6734
-25.59
-28.2464
-28.907
-26.9148
-22.6113
-17.6601
-11.7788
-7.36698
-4.85248
-3.2432
-2.21167
-1.53577
-1.09461
-0.809914
-0.62799
-0.51101
-0.435379
-0.385736
-0.355205
-0.338063
-0.3282
-0.320654
-0.316949
-0.313093
-0.300011
-0.277696
-0.257452
-0.239946
-0.223631
-0.207422
-0.187972
-0.149418
-0.0987201
-0.0277654
-17.4657
-17.4353
-17.2825
-16.8923
-16.3493
-17.7981
-21.6889
-25.5746
-28.2075
-28.8431
-26.8411
-22.5602
-17.6324
-11.7722
-7.36583
-4.85385
-3.24143
-2.20649
-1.5287
-1.08737
-0.803503
-0.621961
-0.505639
-0.431125
-0.382521
-0.35261
-0.336138
-0.327016
-0.320055
-0.315873
-0.311174
-0.298464
-0.276973
-0.25538
-0.236362
-0.218796
-0.199076
-0.175938
-0.142925
-0.0969092
-0.0261799
-17.4779
-17.4503
-17.3126
-16.9526
-16.4608
-17.8887
-21.7385
-25.5813
-28.173
-28.7592
-26.7212
-22.4459
-17.5464
-11.744
-7.37005
-4.86059
-3.24508
-2.20767
-1.52919
-1.08777
-0.803473
-0.621551
-0.505061
-0.430214
-0.381834
-0.352277
-0.335675
-0.326156
-0.318541
-0.311161
-0.301886
-0.288838
-0.270605
-0.251123
-0.231867
-0.212101
-0.189029
-0.161954
-0.129371
-0.0880982
-0.0250652
-17.4961
-17.472
-17.3499
-17.0282
-16.6042
-17.9951
-21.7993
-25.5999
-28.146
-28.6733
-26.5762
-22.288
-17.4235
-11.7062
-7.37166
-4.85833
-3.23127
-2.18975
-1.51231
-1.07363
-0.792598
-0.612809
-0.4977
-0.425528
-0.380755
-0.353849
-0.337187
-0.326382
-0.316134
-0.307018
-0.29328
-0.278817
-0.261927
-0.243574
-0.223675
-0.2017
-0.176659
-0.147982
-0.114953
-0.0768354
-0.0285039
-17.5222
-17.4903
-17.3819
-17.103
-16.751
-18.0985
-21.8483
-25.6099
-28.143
-28.6055
-26.4355
-22.1184
-17.281
-11.6575
-7.39694
-4.91782
-3.2814
-2.22378
-1.53678
-1.09166
-0.805369
-0.62172
-0.504589
-0.431279
-0.385228
-0.357103
-0.338288
-0.325081
-0.314039
-0.300523
-0.286328
-0.271405
-0.254845
-0.236501
-0.216322
-0.193126
-0.168223
-0.137193
-0.106677
0.0304621
-0.0123487
-17.6025
-17.4931
-17.3942
-17.1404
-16.8118
-18.2662
-21.9102
-25.6323
-28.1829
-28.5912
-26.3424
-21.9992
-17.1509
-11.6005
-7.2619
-4.85129
-3.25971
-2.2146
-1.53179
-1.08844
-0.803194
-0.620032
-0.50291
-0.429974
-0.383152
-0.354969
-0.335371
-0.321008
-0.30901
-0.296655
-0.283026
-0.266852
-0.250871
-0.233222
-0.213577
-0.18953
-0.164622
-0.133441
-0.110288
0.0370471
-0.00125138
-8.45204
-6.07186
-4.47072
-3.32135
-2.48705
-1.88446
-1.45422
-1.14475
-0.92149
-0.759244
-0.638954
-0.54972
-0.477164
-0.416505
-0.363807
-0.318073
-0.279626
-0.247659
-0.219777
-0.194355
-0.170397
-0.146495
-0.122979
-0.0971463
-17.7698
-17.7641
-17.7797
-17.8643
-18.2264
-19.3307
-21.0874
-22.7801
-23.7356
-23.4658
-21.7727
-18.9718
-15.8718
-12.0373
-8.38101
-6.10287
-4.48419
-3.32055
-2.48312
-1.88201
-1.45212
-1.14228
-0.918554
-0.758204
-0.640778
-0.552959
-0.48319
-0.422696
-0.367063
-0.320641
-0.283365
-0.252112
-0.224195
-0.198964
-0.176052
-0.153964
-0.132965
-0.104792
-0.0751401
0.040265
-0.0031384
-17.7407
-17.7373
-17.7403
-17.8025
-18.1441
-19.2598
-21.0521
-22.7807
-23.772
-23.5321
-21.8642
-19.0802
-15.9771
-11.9771
-8.40291
-6.10215
-4.46091
-3.29977
-2.46747
-1.87168
-1.44581
-1.13759
-0.915074
-0.754989
-0.639074
-0.551157
-0.485241
-0.427838
-0.371788
-0.327759
-0.29076
-0.259083
-0.230695
-0.205274
-0.182048
-0.160053
-0.138686
-0.114392
-0.0867112
-0.0605376
-0.0322928
-17.7056
-17.6984
-17.6859
-17.7192
-18.0324
-19.1607
-21.0002
-22.781
-23.823
-23.6262
-21.9911
-19.2194
-16.0845
-12.0073
-8.39405
-6.07705
-4.43753
-3.28457
-2.4574
-1.86467
-1.44053
-1.1331
-0.911052
-0.750629
-0.633614
-0.547938
-0.483831
-0.428303
-0.378845
-0.336363
-0.299335
-0.26734
-0.238778
-0.213215
-0.189615
-0.16776
-0.146551
-0.123966
-0.0978926
-0.0682524
-0.0247227
-17.6689
-17.6567
-17.6288
-17.6342
-17.9209
-19.0587
-20.9405
-22.7727
-23.8669
-23.7148
-22.1138
-19.3501
-16.1854
-12.045
-8.3985
-6.06737
-4.42275
-3.27023
-2.44539
-1.85491
-1.43307
-1.1282
-0.906604
-0.745788
-0.628701
-0.544124
-0.481877
-0.429677
-0.381966
-0.340466
-0.304175
-0.273041
-0.245366
-0.220625
-0.197303
-0.175893
-0.155398
-0.134553
-0.110363
-0.0777461
-0.0245643
-17.6367
-17.6204
-17.5801
-17.5642
-17.8314
-18.974
-20.8857
-22.7561
-23.8915
-23.7769
-22.2053
-19.45
-16.2699
-12.0796
-8.40071
-6.05863
-4.40873
-3.25628
-2.43415
-1.84631
-1.42694
-1.12426
-0.904444
-0.744629
-0.628162
-0.543641
-0.481849
-0.431018
-0.383679
-0.34279
-0.307753
-0.277504
-0.250104
-0.226069
-0.203641
-0.183108
-0.163394
-0.143169
-0.120447
-0.0844414
-0.0245437
-17.6138
-17.5953
-17.5482
-17.521
-17.7779
-18.9213
-20.8466
-22.7372
-23.8958
-23.8056
-22.2549
-19.5104
-16.3234
-12.1061
-8.40395
-6.05289
-4.39932
-3.24622
-2.42517
-1.83902
-1.42119
-1.12023
-0.902222
-0.743431
-0.626731
-0.541392
-0.479999
-0.43134
-0.38557
-0.344926
-0.310354
-0.280473
-0.253007
-0.229187
-0.207306
-0.18814
-0.170238
-0.14828
-0.12304
-0.0857557
-0.0238837
-17.6028
-17.5841
-17.5365
-17.509
-17.7661
-18.9059
-20.8305
-22.7226
-23.8852
-23.8025
-22.2623
-19.5272
-16.3467
-12.118
-8.41239
-6.05309
-4.39415
-3.23963
-2.41869
-1.83315
-1.41645
-1.11656
-0.898504
-0.740491
-0.625134
-0.54033
-0.479739
-0.4322
-0.387248
-0.346772
-0.312053
-0.281479
-0.25264
-0.22798
-0.206983
-0.187724
-0.16859
-0.146747
-0.120693
-0.0843378
-0.0232532
-17.603
-17.5859
-17.5433
-17.5252
-17.7907
-18.9254
-20.8382
-22.7175
-23.8672
-23.7772
-22.235
-19.505
-16.3348
-12.1179
-8.41277
-6.05754
-4.39692
-3.23961
-2.41643
-1.83017
-1.41377
-1.11389
-0.896038
-0.73857
-0.624085
-0.539854
-0.479512
-0.431169
-0.385755
-0.345014
-0.309541
-0.278217
-0.249009
-0.223719
-0.202461
-0.1829
-0.162448
-0.139342
-0.112029
-0.0790498
-0.0225358
-17.6122
-17.5978
-17.5636
-17.5607
-17.8402
-18.9702
-20.8644
-22.7213
-23.8479
-23.7378
-22.1817
-19.4502
-16.2902
-12.1015
-8.41896
-6.06932
-4.41038
-3.25221
-2.42713
-1.8389
-1.42049
-1.11884
-0.899526
-0.741673
-0.627034
-0.542188
-0.480419
-0.428587
-0.382171
-0.340002
-0.302302
-0.270011
-0.241344
-0.216517
-0.195127
-0.174974
-0.153806
-0.129655
-0.101582
-0.0704848
-0.0218886
-17.626
-17.6146
-17.5902
-17.6057
-17.903
-19.027
-20.8988
-22.7312
-23.8309
-23.6936
-22.1138
-19.3751
-16.2329
-12.0812
-8.42134
-6.06946
-4.40569
-3.24611
-2.42067
-1.83237
-1.4146
-1.11345
-0.89563
-0.74059
-0.629017
-0.543759
-0.480144
-0.427279
-0.377102
-0.329488
-0.287444
-0.256935
-0.230802
-0.207492
-0.18624
-0.165345
-0.143805
-0.119224
-0.0925143
-0.0607478
-0.0254002
-17.6417
-17.6308
-17.6158
-17.6497
-17.965
-19.0829
-20.9307
-22.7434
-23.8218
-23.6575
-22.0498
-19.2981
-16.1724
-12.0623
-8.44726
-6.12375
-4.45387
-3.28164
-2.44758
-1.85198
-1.42856
-1.12465
-0.904969
-0.748092
-0.632171
-0.545528
-0.477607
-0.421455
-0.36867
-0.319766
-0.279748
-0.249746
-0.22385
-0.200512
-0.178981
-0.157408
-0.136124
-0.110386
-0.0844831
0.0722878
-0.00479822
-17.6571
-17.6411
-17.6344
-17.6806
-18.006
-19.1234
-20.9543
-22.7584
-23.8233
-23.6405
-22.0075
-19.2364
-16.1144
-12.0246
-8.32312
-6.05403
-4.42641
-3.2682
-2.44054
-1.84752
-1.4262
-1.1229
-0.903038
-0.745652
-0.628374
-0.541753
-0.471777
-0.413879
-0.363846
-0.316479
-0.276722
-0.245513
-0.219417
-0.196201
-0.174922
-0.153262
-0.132684
-0.107657
-0.0874949
0.082253
0.00574783
-9.07035
-6.89862
-5.34393
-4.1502
-3.2294
-2.52296
-1.9923
-1.59229
-1.28155
-1.04181
-0.848104
-0.691765
-0.564272
-0.458439
-0.373111
-0.305844
-0.253818
-0.213212
-0.181255
-0.155063
-0.132755
-0.110649
-0.0919879
-0.0682305
-17.8723
-17.8907
-17.959
-18.1298
-18.5088
-19.1992
-20.1029
-20.8775
-21.1434
-20.6266
-19.2722
-17.2818
-15.0627
-12.1083
-9.01018
-6.94067
-5.36541
-4.15623
-3.23078
-2.52714
-1.99638
-1.5949
-1.2844
-1.0457
-0.855728
-0.697896
-0.569887
-0.462701
-0.376504
-0.310576
-0.259565
-0.219547
-0.187793
-0.161844
-0.140145
-0.119924
-0.102696
-0.0788197
-0.052236
0.0660362
0.00102803
-17.8539
-17.8716
-17.935
-18.0983
-18.4724
-19.1672
-20.0846
-20.8763
-21.1607
-20.6587
-19.3159
-17.3351
-15.1184
-12.0574
-9.02592
-6.93688
-5.33849
-4.13179
-3.21121
-2.51443
-1.9892
-1.58774
-1.28113
-1.04492
-0.856363
-0.701909
-0.576724
-0.467653
-0.381401
-0.317898
-0.267822