/*--------------------------------*- C++ -*----------------------------------*\
  =========                 |
  \\      /  F ield         | OpenFOAM: The Open Source CFD Toolbox
   \\    /   O peration     | Website:  https://openfoam.org
    \\  /    A nd           | Version:  7
     \\/     M anipulation  |
\*---------------------------------------------------------------------------*/
FoamFile
{
    version     2.0;
    format      ascii;
    class       volVectorField;
    location    "100";
    object      U;
}
// * * * * * * * * * * * * * * * * * * * * * * * * * * * * * * * * * * * * * //

dimensions      [0 1 -1 0 0 0 0];

internalField   nonuniform List<vector> 
120313
(
(0.0332099 -0.441197 -0.616014)
(0.976359 -0.415636 -0.436734)
(1.59101 -0.341872 -0.441355)
(2.19244 -0.326137 -0.355199)
(2.68436 -0.315567 -0.259262)
(2.99182 -0.317717 -0.188181)
(3.20531 -0.316845 -0.142207)
(3.37596 -0.309526 -0.111888)
(3.51073 -0.29767 -0.0902843)
(3.61789 -0.283186 -0.0734337)
(3.70393 -0.267497 -0.0598629)
(3.77386 -0.251241 -0.0484212)
(3.8318 -0.236153 -0.0394133)
(3.88216 -0.221867 -0.0321605)
(3.92516 -0.208373 -0.026066)
(3.96433 -0.195234 -0.0211554)
(3.99933 -0.182139 -0.0171208)
(4.03254 -0.169081 -0.0135433)
(4.06128 -0.156867 -0.0105765)
(4.09024 -0.141838 -0.00807337)
(4.11778 -0.12831 -0.00643144)
(4.13959 -0.11582 -0.00701267)
(4.19186 -0.106515 -0.0106256)
(4.13842 -0.0944891 -0.00124437)
(0.213196 -0.134694 -0.768257)
(1.23611 -0.167721 -0.612668)
(1.87848 -0.193403 -0.46111)
(2.40344 -0.199615 -0.383834)
(2.86384 -0.196666 -0.310725)
(3.18855 -0.196379 -0.24214)
(3.41791 -0.197701 -0.191856)
(3.58482 -0.196834 -0.157031)
(3.71478 -0.193177 -0.131571)
(3.81615 -0.188151 -0.111623)
(3.89626 -0.182525 -0.0953255)
(3.96271 -0.176484 -0.0829051)
(4.01642 -0.170524 -0.0721849)
(4.06211 -0.164409 -0.0631602)
(4.09932 -0.158324 -0.0557923)
(4.1311 -0.15199 -0.048919)
(4.1569 -0.145453 -0.0430092)
(4.17892 -0.138418 -0.0376692)
(4.19682 -0.130828 -0.0328112)
(4.21336 -0.12198 -0.0282832)
(4.22801 -0.113273 -0.0243136)
(4.2321 -0.104927 -0.0211448)
(4.25548 -0.0952566 -0.0196609)
(4.18997 -0.090143 -0.0089288)
(0.167139 -0.0953384 -0.712901)
(1.28929 -0.0990767 -0.730255)
(1.84148 -0.110858 -0.640473)
(2.42773 -0.147521 -0.469986)
(2.90786 -0.160393 -0.352179)
(3.22957 -0.16454 -0.261808)
(3.45192 -0.165063 -0.200349)
(3.61813 -0.162995 -0.159069)
(3.74748 -0.159359 -0.130276)
(3.84829 -0.1551 -0.108918)
(3.92696 -0.15074 -0.092176)
(3.99104 -0.145994 -0.0789584)
(4.04239 -0.141122 -0.0684808)
(4.08517 -0.136074 -0.0601392)
(4.11972 -0.130961 -0.0533907)
(4.14873 -0.12573 -0.0478316)
(4.17192 -0.120447 -0.0431216)
(4.19107 -0.114919 -0.0390205)
(4.2059 -0.109219 -0.0352884)
(4.21806 -0.103173 -0.0320315)
(4.22784 -0.0968194 -0.0303127)
(4.22514 -0.0907293 -0.0256995)
(4.24581 -0.0818635 -0.0287431)
(4.16624 -0.0815878 -0.0130051)
(0.0854657 -0.0466769 -0.614289)
(1.31667 -0.0399165 -0.802157)
(1.84778 -0.0537608 -0.681652)
(2.45423 -0.0916143 -0.471962)
(2.9377 -0.0992453 -0.34572)
(3.25729 -0.10001 -0.253788)
(3.47157 -0.0993149 -0.193441)
(3.63478 -0.0973641 -0.153582)
(3.76322 -0.094914 -0.125885)
(3.8642 -0.0924285 -0.105477)
(3.94455 -0.0901898 -0.0897549)
(4.00879 -0.088089 -0.0772892)
(4.06025 -0.0859649 -0.0673641)
(4.10118 -0.0837362 -0.0593779)
(4.1339 -0.0813326 -0.0528568)
(4.16118 -0.0786493 -0.0474666)
(4.18285 -0.0757094 -0.0428738)
(4.20029 -0.0725276 -0.038828)
(4.21322 -0.0692754 -0.0352809)
(4.22253 -0.0661294 -0.0323835)
(4.22981 -0.061603 -0.0332139)
(4.22226 -0.0579874 -0.0266946)
(4.23875 -0.052707 -0.0346701)
(4.15695 -0.0503647 -0.00742941)
(-0.0503499 -0.0300922 -0.493391)
(1.37492 -0.00493805 -0.919944)
(1.85802 -0.0216148 -0.825141)
(2.4919 -0.0659141 -0.536774)
(2.97804 -0.0677659 -0.382281)
(3.29874 -0.0670504 -0.275517)
(3.50786 -0.0673592 -0.208684)
(3.66892 -0.0671318 -0.165067)
(3.79676 -0.0657617 -0.134686)
(3.89695 -0.0640279 -0.112354)
(3.97641 -0.0621557 -0.0953337)
(4.03973 -0.060094 -0.0819741)
(4.09017 -0.0579582 -0.0713328)
(4.13092 -0.0557676 -0.0628093)
(4.163 -0.0535271 -0.0558989)
(4.1881 -0.051142 -0.0500921)
(4.20859 -0.0484814 -0.0451066)
(4.2235 -0.0457096 -0.0405856)
(4.23478 -0.0429509 -0.0368779)
(4.24206 -0.0403466 -0.0351675)
(4.24686 -0.0371798 -0.0348546)
(4.23725 -0.0341925 -0.02775)
(4.24924 -0.0294202 -0.0351136)
(4.16783 -0.0301242 -0.00647502)
(-0.0987545 0.0130723 -0.478096)
(1.43034 0.0021536 -0.956815)
(1.87785 -0.00391666 -0.972685)
(2.49345 -0.000469952 -0.621529)
(2.99948 0.00413689 -0.436703)
(3.32053 0.00837054 -0.315027)
(3.54105 0.0111392 -0.235503)
(3.70161 0.0122631 -0.185604)
(3.8298 0.0126007 -0.150836)
(3.92989 0.0124311 -0.125395)
(4.00791 0.0120296 -0.106045)
(4.06913 0.0115105 -0.0908657)
(4.11906 0.0109723 -0.0790508)
(4.15849 0.010476 -0.0696621)
(4.191 0.0101446 -0.0621196)
(4.21646 0.00999358 -0.0556749)
(4.23693 0.0100702 -0.0500437)
(4.25134 0.0101003 -0.04491)
(4.2619 0.0102407 -0.0406673)
(4.26824 0.0104311 -0.038858)
(4.27244 0.0102406 -0.0393773)
(4.26346 0.0113145 -0.0325421)
(4.2745 0.0109737 -0.0390055)
(4.19546 0.0129716 -0.0106444)
(-0.0358083 0.0522591 -0.52276)
(1.4135 0.00303441 -0.898506)
(1.87722 0.0116163 -0.874864)
(2.51874 0.0387361 -0.57193)
(3.01116 0.0373924 -0.403915)
(3.3293 0.0396572 -0.29567)
(3.55124 0.0454692 -0.226145)
(3.71119 0.0494908 -0.182705)
(3.8385 0.0505616 -0.152107)
(3.93831 0.0505341 -0.129483)
(4.01768 0.0501531 -0.11216)
(4.08129 0.0494328 -0.0984437)
(4.13227 0.0485789 -0.0877302)
(4.17268 0.0476846 -0.078699)
(4.20497 0.0468981 -0.071378)
(4.23134 0.0462304 -0.064874)
(4.25161 0.0455824 -0.0589482)
(4.26756 0.0446977 -0.0538264)
(4.27992 0.043718 -0.0488616)
(4.28861 0.0430334 -0.0443747)
(4.29486 0.041852 -0.0411444)
(4.28908 0.0406971 -0.0344703)
(4.29968 0.0404484 -0.0333174)
(4.2278 0.0384342 -0.0185068)
(-0.174765 0.348207 -0.46128)
(1.28228 0.10607 -0.967467)
(1.74151 0.121388 -0.88436)
(2.44605 0.208358 -0.530381)
(2.94284 0.197099 -0.367198)
(3.26065 0.198499 -0.260562)
(3.45277 0.202238 -0.202719)
(3.61183 0.200925 -0.163835)
(3.73685 0.195086 -0.136169)
(3.83441 0.187623 -0.115574)
(3.91142 0.180001 -0.0996294)
(3.97448 0.172376 -0.0871099)
(4.02528 0.164985 -0.0770156)
(4.0677 0.157724 -0.0688034)
(4.10208 0.150646 -0.0618829)
(4.13074 0.143526 -0.0559182)
(4.15387 0.136506 -0.0505121)
(4.17327 0.129813 -0.045395)
(4.19015 0.123356 -0.0407109)
(4.20344 0.117087 -0.0364043)
(4.21523 0.110724 -0.0324332)
(4.21857 0.103345 -0.0293716)
(4.23677 0.0953814 -0.0323681)
(4.20405 0.0956256 -0.0200624)
(-1.19339 0.0107043 1.58037)
(-2.36802 0.0278751 1.04866)
(-3.17098 0.0463277 0.600036)
(-3.65332 0.0815012 0.270212)
(-3.84725 0.11585 -0.02925)
(-3.70345 0.133968 -0.383088)
(-3.12133 0.119501 -0.80842)
(-2.17068 0.112057 -1.12255)
(-0.737099 0.161889 -0.971361)
(0.340438 0.00883995 -0.713049)
(1.24352 -0.0431719 -0.550178)
(1.95706 -0.0661974 -0.382976)
(2.50657 -0.0720751 -0.243738)
(2.93197 -0.073929 -0.156244)
(3.26764 -0.0738338 -0.093964)
(3.53207 -0.073627 -0.0512547)
(3.74267 -0.0719709 -0.0198486)
(3.91354 -0.0693366 0.000720804)
(4.05475 -0.0656625 0.0141994)
(4.1746 -0.0619131 0.0228984)
(4.27601 -0.0588672 0.027826)
(4.36704 -0.0548726 0.0308061)
(4.44793 -0.0516733 0.031568)
(4.5204 -0.0490403 0.0309305)
(4.58948 -0.0448775 0.0297094)
(4.65129 -0.0413451 0.0274563)
(4.70878 -0.0382956 0.0250108)
(4.76189 -0.0330831 0.0227129)
(4.80979 -0.0287731 0.0206652)
(4.85106 -0.0254502 0.0200267)
(4.87585 -0.0221551 0.0171414)
(4.91679 -0.0179377 0.0148989)
(4.9553 -0.0149525 0.013296)
(4.98655 -0.0035576 0.00947059)
(4.98965 0.0113423 0.0152468)
(5.01733 0.0436306 0.0153165)
(-1.46962 -0.117968 1.61101)
(-2.65885 0.0327118 1.03212)
(-3.45317 0.0864699 0.609109)
(-3.93685 0.13167 0.300659)
(-4.13533 0.165587 0.0062828)
(-4.00204 0.180451 -0.35696)
(-3.45291 0.181629 -0.808059)
(-2.50785 0.197405 -1.13823)
(-0.865713 0.20146 -1.14809)
(1.29984 0.0830666 -1.22272)
(2.11038 0.00441032 -0.924038)
(2.71327 -0.0499646 -0.646395)
(3.1539 -0.0648669 -0.476259)
(3.48549 -0.072909 -0.359228)
(3.74645 -0.084271 -0.262198)
(3.95352 -0.0944461 -0.189391)
(4.11714 -0.099679 -0.139539)
(4.24754 -0.101366 -0.103895)
(4.35302 -0.100454 -0.0775561)
(4.43852 -0.0982404 -0.0591953)
(4.51012 -0.0955525 -0.0458134)
(4.57139 -0.0927168 -0.0348347)
(4.62283 -0.0898958 -0.0266944)
(4.66907 -0.0864251 -0.0199307)
(4.70972 -0.0829436 -0.0144479)
(4.74634 -0.0782034 -0.00946818)
(4.77809 -0.0721228 -0.00654231)
(4.80841 -0.0672075 -0.00420435)
(4.83265 -0.0581547 -0.00307391)
(4.86217 -0.0515834 -0.00120792)
(4.87596 -0.0436962 -0.0035253)
(4.88869 -0.0402785 -0.000901895)
(4.86991 -0.03322 -0.00271358)
(4.85385 -0.0205513 -0.00559239)
(4.79233 -0.0151296 -0.00176998)
(4.80007 -0.00278862 -0.00647869)
(-1.58063 -0.137937 1.64404)
(-2.83301 0.0277514 1.02589)
(-3.62756 0.0960585 0.600527)
(-4.10184 0.140294 0.29777)
(-4.2945 0.169997 0.0114382)
(-4.16215 0.186147 -0.3392)
(-3.61677 0.196209 -0.781339)
(-2.64928 0.215507 -1.13254)
(-0.909957 0.199116 -1.23954)
(1.43967 0.131 -1.38894)
(2.37106 0.0762356 -1.07994)
(2.96958 0.0249671 -0.788071)
(3.40461 -0.00561694 -0.59841)
(3.72923 -0.0238165 -0.472687)
(3.97732 -0.0402347 -0.370233)
(4.16994 -0.054487 -0.287415)
(4.32032 -0.0649679 -0.226096)
(4.43704 -0.0723786 -0.183218)
(4.52653 -0.0772327 -0.151014)
(4.59868 -0.0796722 -0.12473)
(4.65702 -0.0804664 -0.104807)
(4.70379 -0.0804308 -0.0893704)
(4.74128 -0.0798012 -0.0765111)
(4.77207 -0.0784655 -0.0655403)
(4.79614 -0.0760233 -0.0560536)
(4.81619 -0.0728189 -0.0473061)
(4.83136 -0.0683307 -0.0401866)
(4.84595 -0.0635219 -0.0328986)
(4.85487 -0.0567217 -0.027087)
(4.86745 -0.0503513 -0.0214526)
(4.8653 -0.0444283 -0.0186496)
(4.87757 -0.0376186 -0.0129053)
(4.81305 -0.0388626 -0.0206674)
(4.76357 -0.0350947 -0.0152825)
(4.70479 -0.0292359 -0.0113352)
(4.69497 -0.0189074 -0.0119067)
(-1.65624 -0.113348 1.67356)
(-2.94766 0.0250188 1.03921)
(-3.74949 0.0894278 0.612249)
(-4.22203 0.129607 0.313349)
(-4.41403 0.155417 0.0342166)
(-4.28665 0.16948 -0.307001)
(-3.74953 0.177215 -0.744323)
(-2.7712 0.18668 -1.10976)
(-0.988766 0.148371 -1.2527)
(1.44043 0.0911306 -1.43795)
(2.41873 0.0556246 -1.09159)
(3.05922 0.0239417 -0.779367)
(3.49458 -0.000110843 -0.592204)
(3.81629 -0.0176388 -0.471227)
(4.06045 -0.0310767 -0.370766)
(4.25217 -0.0421215 -0.289049)
(4.40116 -0.051317 -0.22883)
(4.51574 -0.0584167 -0.187368)
(4.6017 -0.0636826 -0.157124)
(4.66874 -0.0670985 -0.132582)
(4.71981 -0.0687948 -0.113375)
(4.76142 -0.0692124 -0.0988043)
(4.7922 -0.0688546 -0.0868771)
(4.81705 -0.0679563 -0.0767083)
(4.83401 -0.0660748 -0.0677384)
(4.84745 -0.0636449 -0.0596749)
(4.85397 -0.0601247 -0.0526667)
(4.86078 -0.0557838 -0.0457125)
(4.86058 -0.0515791 -0.0392337)
(4.8654 -0.0445892 -0.0334847)
(4.85443 -0.0410425 -0.0294155)
(4.85981 -0.0342135 -0.0210302)
(4.77874 -0.036915 -0.0246139)
(4.70825 -0.0314685 -0.0131367)
(4.64459 -0.0267702 -0.00938378)
(4.6242 -0.019122 -0.0107895)
(-1.6973 -0.0724751 1.69681)
(-3.01545 0.0189974 1.05731)
(-3.82646 0.0674997 0.630213)
(-4.30178 0.0988461 0.333185)
(-4.49636 0.118968 0.0575728)
(-4.37626 0.129359 -0.27956)
(-3.85028 0.133359 -0.716619)
(-2.8687 0.133867 -1.09444)
(-1.05886 0.0977041 -1.24861)
(1.41998 0.0602782 -1.44423)
(2.44248 0.0406087 -1.07746)
(3.07196 0.0231814 -0.751987)
(3.51795 0.0077607 -0.565898)
(3.83493 -0.00498608 -0.447693)
(4.08283 -0.0139219 -0.350633)
(4.27898 -0.0207533 -0.273288)
(4.42962 -0.02724 -0.217418)
(4.54395 -0.0327912 -0.17823)
(4.62994 -0.0368913 -0.149312)
(4.69653 -0.0400627 -0.12745)
(4.74562 -0.0423407 -0.110637)
(4.78456 -0.0435665 -0.0977471)
(4.81251 -0.0437557 -0.087053)
(4.83513 -0.0433513 -0.0771932)
(4.8493 -0.0422139 -0.0689647)
(4.86075 -0.040464 -0.0612795)
(4.86231 -0.0381247 -0.0558544)
(4.86714 -0.0351737 -0.0492953)
(4.86078 -0.0330337 -0.0436204)
(4.86111 -0.0280754 -0.0381137)
(4.84482 -0.0264363 -0.0332987)
(4.84547 -0.0213736 -0.0254041)
(4.75734 -0.0230346 -0.0227223)
(4.67533 -0.019437 -0.00897753)
(4.61505 -0.0155838 -0.0122777)
(4.58183 -0.00985503 -0.011595)
(-1.70005 -0.0272377 1.70895)
(-3.0325 0.00977032 1.06999)
(-3.85255 0.034811 0.642984)
(-4.33389 0.0529356 0.347155)
(-4.53401 0.0651131 0.0741248)
(-4.42159 0.0714099 -0.260134)
(-3.90523 0.0736719 -0.697522)
(-2.92426 0.0722393 -1.08149)
(-1.09652 0.0481091 -1.23834)
(1.42941 0.0295114 -1.46736)
(2.46365 0.0201723 -1.07848)
(3.0972 0.0191004 -0.731325)
(3.53717 0.0159603 -0.542227)
(3.85497 0.0073594 -0.431309)
(4.10344 -0.00108755 -0.340358)
(4.30271 -0.00772268 -0.267213)
(4.45545 -0.0123554 -0.215087)
(4.57012 -0.0155581 -0.178364)
(4.65717 -0.0177613 -0.151059)
(4.72275 -0.0197357 -0.130109)
(4.7709 -0.0211125 -0.114066)
(4.80828 -0.0217561 -0.101287)
(4.83395 -0.0217816 -0.0909841)
(4.85437 -0.0211474 -0.0822663)
(4.86615 -0.0198539 -0.07416)
(4.8755 -0.0181856 -0.0660614)
(4.87508 -0.0160794 -0.0614315)
(4.88415 -0.0146601 -0.0540176)
(4.87408 -0.013541 -0.0501026)
(4.87088 -0.0102208 -0.0418192)
(4.84497 -0.00902612 -0.0381917)
(4.8453 -0.00551154 -0.027115)
(4.75586 -0.00655603 -0.0223232)
(4.67124 -0.00634807 -0.00987712)
(4.60703 -0.00404627 -0.0103963)
(4.566 -0.000667393 -0.0112299)
(-1.67665 0.0157728 1.71187)
(-3.01023 0.00141705 1.07196)
(-3.83584 0.00120958 0.644825)
(-4.3238 0.00373351 0.349788)
(-4.53052 0.0054996 0.0785759)
(-4.42458 0.00532976 -0.254047)
(-3.91347 0.00374377 -0.69237)
(-2.93108 0.000434445 -1.07991)
(-1.09032 -0.00759966 -1.24187)
(1.45943 -0.00974678 -1.4909)
(2.4738 -0.000572146 -1.09801)
(3.11473 0.00862255 -0.724994)
(3.55564 0.0121999 -0.53004)
(3.87202 0.0118528 -0.42768)
(4.12101 0.0105483 -0.344395)
(4.3181 0.00964654 -0.273594)
(4.47165 0.00965205 -0.222018)
(4.58737 0.0097777 -0.18541)
(4.67471 0.00961917 -0.159337)
(4.74039 0.00944075 -0.139294)
(4.78933 0.00947618 -0.121832)
(4.82685 0.00988502 -0.10826)
(4.85299 0.0102447 -0.097514)
(4.87277 0.0109684 -0.0880433)
(4.8831 0.0117309 -0.080559)
(4.89134 0.0127058 -0.0723493)
(4.89025 0.0131759 -0.0673631)
(4.89887 0.0135208 -0.0600213)
(4.88962 0.0138735 -0.0558655)
(4.88619 0.015197 -0.0466299)
(4.86209 0.0147286 -0.0433405)
(4.86215 0.0148918 -0.0305042)
(4.77652 0.0157223 -0.0248815)
(4.69418 0.0152737 -0.012731)
(4.62657 0.0133272 -0.0116312)
(4.58428 0.0132431 -0.0129894)
(-1.64265 0.0535294 1.69978)
(-2.96263 -0.00210019 1.06028)
(-3.78809 -0.023884 0.632753)
(-4.28048 -0.0370672 0.337187)
(-4.49221 -0.047968 0.0649432)
(-4.38983 -0.0572567 -0.270127)
(-3.87909 -0.0651284 -0.71404)
(-2.89224 -0.0722376 -1.10946)
(-1.0437 -0.0614019 -1.27597)
(1.46878 -0.0532813 -1.49631)
(2.45665 -0.031024 -1.10648)
(3.08456 -0.00786481 -0.741959)
(3.52089 -0.00302367 -0.552025)
(3.84599 0.000862812 -0.447983)
(4.09857 0.00793459 -0.361944)
(4.29612 0.0157928 -0.289995)
(4.45081 0.0213435 -0.238354)
(4.56791 0.0247178 -0.201763)
(4.65677 0.02674 -0.173931)
(4.72504 0.0285034 -0.152087)
(4.77652 0.0299589 -0.135014)
(4.81659 0.031403 -0.121302)
(4.84636 0.0325246 -0.10963)
(4.86947 0.0337683 -0.0986482)
(4.88339 0.034421 -0.0893066)
(4.89441 0.0350264 -0.0789647)
(4.89656 0.0345919 -0.0716363)
(4.90083 0.0341942 -0.066175)
(4.89586 0.0329916 -0.0597525)
(4.89813 0.0323203 -0.0523134)
(4.88116 0.0302974 -0.0467328)
(4.88488 0.0290192 -0.033463)
(4.81204 0.0294101 -0.0305168)
(4.74103 0.0283129 -0.0197739)
(4.67491 0.0252681 -0.0197097)
(4.63624 0.025007 -0.0190906)
(-1.60265 0.0807663 1.6788)
(-2.90119 2.93283e-05 1.04233)
(-3.72209 -0.0362011 0.614466)
(-4.21561 -0.0633953 0.316255)
(-4.42833 -0.0877941 0.0392787)
(-4.32332 -0.10715 -0.30268)
(-3.80577 -0.120319 -0.754558)
(-2.81736 -0.127355 -1.15163)
(-0.987726 -0.0977971 -1.29757)
(1.38836 -0.0590388 -1.42159)
(2.29044 -0.00909322 -1.04156)
(2.92919 0.0250186 -0.681831)
(3.36793 0.0308314 -0.504746)
(3.70377 0.0361321 -0.399536)
(3.96772 0.0469153 -0.312671)
(4.17372 0.0563571 -0.24734)
(4.3329 0.0616325 -0.202876)
(4.45649 0.0641954 -0.171433)
(4.55199 0.0649455 -0.146596)
(4.62743 0.0650326 -0.125394)
(4.68694 0.0647821 -0.108974)
(4.73418 0.0646647 -0.0958689)
(4.77105 0.0642624 -0.084868)
(4.80031 0.0640353 -0.0753504)
(4.82217 0.06286 -0.0665257)
(4.84011 0.0616383 -0.057005)
(4.85064 0.059651 -0.0506093)
(4.86268 0.0575967 -0.0449569)
(4.86937 0.0540301 -0.0390705)
(4.87903 0.0512595 -0.0328691)
(4.87849 0.0458618 -0.0263782)
(4.88501 0.0426375 -0.0190271)
(4.84648 0.042934 -0.0219574)
(4.80594 0.0399319 -0.0152788)
(4.7392 0.0371111 -0.0221527)
(4.70223 0.034617 -0.020483)
(-1.56643 0.0980817 1.65898)
(-2.83548 0.0040556 1.03638)
(-3.65037 -0.0382888 0.610561)
(-4.14398 -0.0771665 0.308037)
(-4.35412 -0.114353 0.0224203)
(-4.23922 -0.141616 -0.330015)
(-3.70773 -0.154249 -0.788573)
(-2.72584 -0.151337 -1.17101)
(-0.960653 -0.103207 -1.2453)
(1.23663 -0.00455871 -1.23474)
(2.041 0.0290162 -0.926775)
(2.66676 0.0380938 -0.639482)
(3.13109 0.0451135 -0.458621)
(3.49133 0.0554664 -0.331838)
(3.7693 0.0662289 -0.242942)
(3.98725 0.074371 -0.182325)
(4.15879 0.0790699 -0.139199)
(4.29378 0.0812317 -0.107366)
(4.40177 0.0813669 -0.0839607)
(4.48906 0.0806197 -0.0657377)
(4.55956 0.0796617 -0.0512764)
(4.61777 0.0787602 -0.0411223)
(4.66659 0.0776385 -0.03293)
(4.70779 0.0762486 -0.0264384)
(4.74362 0.0740021 -0.0214311)
(4.77468 0.0711109 -0.0169891)
(4.80177 0.0672734 -0.0133422)
(4.82649 0.0623636 -0.00976651)
(4.84925 0.0569515 -0.00703142)
(4.8695 0.0529479 -0.00362674)
(4.88717 0.0459478 -0.00285701)
(4.90361 0.0429305 -0.000875314)
(4.90131 0.0382378 0.000559033)
(4.90774 0.0306512 -0.00152014)
(4.84379 0.0317745 -0.013711)
(4.8152 0.0310704 -0.0151089)
(-1.50834 0.0756559 1.64303)
(-2.7264 -0.000331412 1.05782)
(-3.5389 -0.0336332 0.633166)
(-4.03719 -0.0791819 0.323969)
(-4.24988 -0.126806 0.0298052)
(-4.12962 -0.160355 -0.330729)
(-3.58401 -0.166142 -0.786646)
(-2.61161 -0.135161 -1.14443)
(-0.962179 -0.094252 -1.13213)
(0.317059 0.0384311 -0.887143)
(1.32736 0.0470569 -0.677292)
(2.09113 0.0467421 -0.476366)
(2.66635 0.0560977 -0.310128)
(3.10125 0.0658723 -0.208122)
(3.43423 0.0758581 -0.143123)
(3.69096 0.0832879 -0.0979012)
(3.89102 0.0872629 -0.0651026)
(4.04881 0.088124 -0.0420109)
(4.17555 0.0868696 -0.0253939)
(4.27907 0.0846596 -0.0134867)
(4.36523 0.0822666 -0.00469908)
(4.43837 0.0797418 0.00143217)
(4.50202 0.0768924 0.00561145)
(4.55821 0.0736639 0.00844423)
(4.6085 0.0700401 0.0101481)
(4.65511 0.0658317 0.0106933)
(4.6983 0.0605518 0.0112526)
(4.73688 0.053735 0.0118382)
(4.76866 0.0503977 0.0106213)
(4.79895 0.0454331 0.0109475)
(4.81941 0.0410414 0.0113894)
(4.84293 0.0369523 0.0103246)
(4.87035 0.0330843 0.00866198)
(4.896 0.0274606 0.0063968)
(4.92346 0.0213985 0.004161)
(4.95289 0.0130092 -0.010472)
(-1.27258 -0.029078 1.63775)
(-2.50843 -0.00347189 1.08204)
(-3.31202 -0.0117163 0.621603)
(-3.78603 -0.0406263 0.279292)
(-3.97471 -0.076863 -0.03172)
(-3.83477 -0.108589 -0.383429)
(-3.26172 -0.119822 -0.78412)
(-2.23961 -0.0877319 -1.10938)
(-0.675851 -0.0438637 -1.08849)
(0.474609 0.0283741 -0.781753)
(1.44618 0.0428915 -0.592164)
(2.19027 0.042319 -0.4115)
(2.75167 0.0373841 -0.257899)
(3.18537 0.0362729 -0.161861)
(3.5183 0.0368563 -0.0996738)
(3.77743 0.0373237 -0.0560968)
(3.98121 0.0368969 -0.0258277)
(4.14414 0.0358577 -0.00480908)
(4.27667 0.0343824 0.00895237)
(4.38724 0.0327839 0.01724)
(4.48147 0.0313702 0.0228953)
(4.56328 0.0300522 0.0264252)
(4.63581 0.0287453 0.0284409)
(4.70151 0.0272323 0.0292485)
(4.76206 0.0255685 0.0291694)
(4.81838 0.0238856 0.0283851)
(4.86976 0.0220202 0.0274903)
(4.91564 0.0199388 0.0262176)
(4.95664 0.0190805 0.0256502)
(4.98971 0.0167258 0.0252531)
(5.02141 0.0142563 0.0247188)
(5.05042 0.0126564 0.0223515)
(5.08071 0.0110826 0.020491)
(5.10919 0.00715011 0.0190402)
(5.14277 0.00220477 0.016913)
(5.1571 -0.00760976 0.0208349)
(3.89337 0.0975246 -1.85443)
(3.99681 0.0490336 -1.3456)
(4.16414 0.0378432 -0.958953)
(4.30416 0.02539 -0.681907)
(4.42511 0.0151095 -0.483075)
(4.53562 0.00737873 -0.344224)
(4.63136 0.00142062 -0.240198)
(4.72197 -0.00240889 -0.163775)
(4.79767 -0.00412914 -0.108551)
(4.86574 -0.00559803 -0.0680493)
(4.92594 -0.00661116 -0.0389604)
(4.97797 -0.00746862 -0.0183123)
(5.02636 -0.00811032 -0.00457118)
(5.0693 -0.00847046 0.00427717)
(5.11039 -0.00867913 0.00939155)
(5.14737 -0.0087897 0.0112166)
(5.18368 -0.0086805 0.0113431)
(5.21825 -0.00839885 0.00989225)
(5.25138 -0.00791293 0.00712214)
(5.2831 -0.00741938 0.00329186)
(5.31493 -0.00660047 7.78861e-05)
(5.34587 -0.00594739 -0.00496333)
(5.37576 -0.00413288 -0.00867576)
(5.40475 -0.00355202 -0.0143438)
(-0.164974 -0.0540597 2.39215)
(-0.363779 -0.0208735 1.65041)
(-0.584155 -0.0143718 0.987157)
(-0.741962 0.0127473 0.443037)
(-0.799679 0.0561525 -0.0825829)
(-0.725669 0.116768 -0.729525)
(-0.432713 0.205939 -1.6292)
(0.478713 0.284907 -2.52314)
(2.30437 0.264331 -2.44469)
(3.74733 0.163185 -1.96784)
(3.94473 0.128188 -1.43976)
(4.1552 0.0915929 -1.03497)
(4.31392 0.0634846 -0.749213)
(4.44785 0.0420756 -0.538586)
(4.56069 0.0246961 -0.388539)
(4.65814 0.00970351 -0.278395)
(4.74406 -0.00133497 -0.196919)
(4.81862 -0.00831012 -0.136849)
(4.88448 -0.0135425 -0.0933269)
(4.9398 -0.0179374 -0.0617944)
(4.98851 -0.0217801 -0.039154)
(5.03244 -0.0247924 -0.0234568)
(5.07055 -0.0269897 -0.0123391)
(5.10648 -0.0285089 -0.00455178)
(5.13934 -0.0293765 -0.000491625)
(5.16994 -0.0294921 0.0020217)
(5.20015 -0.0285159 0.00270897)
(5.22889 -0.0265949 0.00133239)
(5.25691 -0.0242026 -0.000844647)
(5.28346 -0.0213044 -0.00229235)
(5.31224 -0.0184 -0.00611538)
(5.33594 -0.0139742 -0.00758522)
(5.37011 -0.0119608 -0.0135291)
(5.39162 -0.00349742 -0.0133127)
(5.39267 -0.000366006 -0.0104925)
(5.42905 0.00712492 -0.0127573)
(-0.382111 -0.168126 2.4687)
(-0.620718 -0.0175394 1.65075)
(-0.86591 0.0280486 1.01801)
(-1.04999 0.0757383 0.517764)
(-1.12011 0.133793 0.0196702)
(-1.03139 0.19891 -0.617146)
(-0.700569 0.281377 -1.51651)
(0.21242 0.373232 -2.50069)
(2.16577 0.353893 -2.63075)
(3.81147 0.241195 -2.0954)
(4.11302 0.193507 -1.56696)
(4.36311 0.149318 -1.16283)
(4.543 0.113427 -0.875727)
(4.67325 0.0826144 -0.663817)
(4.77365 0.0553325 -0.504734)
(4.85462 0.0311 -0.386715)
(4.92175 0.0117383 -0.298303)
(4.97638 -0.00231757 -0.230023)
(5.02305 -0.012349 -0.177933)
(5.06083 -0.0200844 -0.138079)
(5.09268 -0.0266344 -0.107038)
(5.11892 -0.0321139 -0.0839773)
(5.14025 -0.0364711 -0.0653371)
(5.15979 -0.0396775 -0.0499786)
(5.1756 -0.0417218 -0.0393165)
(5.19117 -0.0426179 -0.0310885)
(5.20523 -0.0416561 -0.0253825)
(5.21972 -0.0399428 -0.0205175)
(5.23307 -0.036416 -0.0186097)
(5.24773 -0.0331541 -0.0155954)
(5.26131 -0.027626 -0.0171013)
(5.27485 -0.0245555 -0.0130606)
(5.2851 -0.0160513 -0.0175197)
(5.29309 -0.0123714 -0.0201641)
(5.30143 0.000558809 -0.0289845)
(5.34677 0.00368376 -0.0350409)
(-0.495975 -0.186693 2.54914)
(-0.811508 -0.0161321 1.67134)
(-1.06792 0.0558444 1.03036)
(-1.24035 0.110042 0.537528)
(-1.28774 0.161828 0.0469905)
(-1.16844 0.212919 -0.579752)
(-0.811289 0.273116 -1.45867)
(0.0779488 0.336584 -2.45964)
(2.066 0.306477 -2.69414)
(3.88393 0.208364 -2.20226)
(4.2585 0.166013 -1.65133)
(4.54464 0.130812 -1.26001)
(4.75037 0.10337 -0.964018)
(4.88963 0.081108 -0.742713)
(4.98408 0.0598334 -0.582906)
(5.05487 0.0396635 -0.465332)
(5.10961 0.0218551 -0.373944)
(5.15067 0.00709652 -0.304164)
(5.18252 -0.0040556 -0.248919)
(5.20665 -0.0123025 -0.202134)
(5.22459 -0.0194768 -0.165847)
(5.23617 -0.0259879 -0.13776)
(5.24287 -0.031669 -0.114421)
(5.24692 -0.0361513 -0.0959345)
(5.24777 -0.0389981 -0.0809641)
(5.24817 -0.0405827 -0.0680653)
(5.24689 -0.0406387 -0.0575415)
(5.24683 -0.0395772 -0.0480587)
(5.24435 -0.0368531 -0.0415125)
(5.24445 -0.0331541 -0.0341119)
(5.23992 -0.0285738 -0.0320409)
(5.2395 -0.023744 -0.0241361)
(5.22399 -0.0187006 -0.0255792)
(5.21125 -0.0137364 -0.0241174)
(5.20681 -0.00629223 -0.0289961)
(5.26816 -0.001796 -0.0317111)
(-0.563137 -0.154716 2.61318)
(-0.927972 -0.0144304 1.70819)
(-1.19648 0.0568203 1.06074)
(-1.3618 0.10822 0.570518)
(-1.39429 0.152606 0.0858992)
(-1.25587 0.19377 -0.531147)
(-0.881094 0.236714 -1.39808)
(-0.00255861 0.266128 -2.41931)
(2.00318 0.218622 -2.72494)
(3.8832 0.142048 -2.24114)
(4.30908 0.112372 -1.69049)
(4.61233 0.0877105 -1.27865)
(4.82202 0.0683424 -0.982614)
(4.96864 0.0538611 -0.757099)
(5.06846 0.0406867 -0.592433)
(5.14284 0.0276751 -0.470716)
(5.19716 0.015506 -0.379274)
(5.23638 0.00449245 -0.310939)
(5.26422 -0.00469143 -0.258475)
(5.28297 -0.0117342 -0.215548)
(5.29535 -0.0172509 -0.179716)
(5.30197 -0.0222121 -0.151071)
(5.30236 -0.0268823 -0.128768)
(5.29959 -0.0308549 -0.109875)
(5.2923 -0.03352 -0.0948777)
(5.28407 -0.035056 -0.0816583)
(5.27273 -0.0352967 -0.0707621)
(5.26259 -0.0343917 -0.0601921)
(5.24851 -0.0324302 -0.0525642)
(5.23814 -0.0288266 -0.0431311)
(5.22029 -0.0252906 -0.0402175)
(5.20719 -0.0195433 -0.0296653)
(5.18032 -0.0171528 -0.0295097)
(5.15299 -0.0126803 -0.0236537)
(5.14396 -0.00707989 -0.0252241)
(5.20121 -0.00259109 -0.027902)
(-0.595356 -0.0989333 2.65658)
(-0.987494 -0.00957476 1.7435)
(-1.2672 0.0440427 1.09509)
(-1.43231 0.0846015 0.607324)
(-1.45774 0.118957 0.12719)
(-1.30724 0.149288 -0.483849)
(-0.919955 0.176083 -1.34815)
(-0.0493666 0.183372 -2.40329)
(1.97681 0.141283 -2.75237)
(3.88432 0.0892594 -2.24343)
(4.31483 0.0708916 -1.68969)
(4.62995 0.0553705 -1.29058)
(4.84705 0.0423146 -0.987836)
(4.99933 0.0331564 -0.765401)
(5.10618 0.0257337 -0.590768)
(5.18311 0.0189305 -0.466247)
(5.23894 0.012604 -0.377145)
(5.27935 0.00619958 -0.309981)
(5.30601 0.000448806 -0.256579)
(5.32195 -0.00445995 -0.214776)
(5.33132 -0.00849845 -0.181574)
(5.33511 -0.0119094 -0.154333)
(5.33254 -0.0148794 -0.132812)
(5.32712 -0.0176894 -0.11391)
(5.31544 -0.0197382 -0.0991102)
(5.30267 -0.0209345 -0.0863324)
(5.28565 -0.0211793 -0.0759996)
(5.26979 -0.0205024 -0.0652846)
(5.24878 -0.0193419 -0.0573248)
(5.23107 -0.0169216 -0.0474245)
(5.20456 -0.0147155 -0.0427626)
(5.18193 -0.0106433 -0.0321665)
(5.14558 -0.00875121 -0.0272761)
(5.10582 -0.00529491 -0.0193095)
(5.09404 -0.00142176 -0.0192458)
(5.14734 0.00133044 -0.021453)
(-0.592555 -0.0350413 2.67652)
(-0.993579 -0.000921178 1.76495)
(-1.28065 0.0270256 1.11753)
(-1.44893 0.0507171 0.632025)
(-1.47362 0.0709859 0.155739)
(-1.31927 0.0878245 -0.450733)
(-0.928667 0.0994881 -1.3138)
(-0.0667251 0.0981099 -2.38786)
(1.96496 0.069417 -2.76196)
(3.88767 0.0419221 -2.24575)
(4.3255 0.0372449 -1.70238)
(4.64656 0.029389 -1.31718)
(4.87029 0.0221624 -1.01662)
(5.02697 0.0172387 -0.789986)
(5.13577 0.0138418 -0.609874)
(5.21191 0.0111009 -0.477224)
(5.26722 0.00849119 -0.38548)
(5.30749 0.006045 -0.316468)
(5.33267 0.00386844 -0.261853)
(5.348 0.00174006 -0.220225)
(5.35561 -0.000112033 -0.187076)
(5.3574 -0.0016004 -0.160331)
(5.35289 -0.00274046 -0.138926)
(5.34471 -0.0037364 -0.120292)
(5.33119 -0.00449393 -0.10532)
(5.31603 -0.0049411 -0.0919375)
(5.29624 -0.00481065 -0.0816851)
(5.277 -0.00407735 -0.0703267)
(5.25254 -0.0032976 -0.0616792)
(5.23088 -0.00191419 -0.050704)
(5.19982 -0.000727796 -0.0449912)
(5.1721 0.00133297 -0.0341186)
(5.13193 0.00247763 -0.0266063)
(5.08715 0.00388756 -0.017352)
(5.07485 0.00549433 -0.0164019)
(5.12543 0.00655177 -0.0178902)
(-0.564703 0.0257865 2.67373)
(-0.959124 0.0102259 1.76597)
(-1.24754 0.0119283 1.11975)
(-1.41914 0.0171179 0.636081)
(-1.44686 0.0216099 0.162881)
(-1.29467 0.0240331 -0.44025)
(-0.90735 0.0230807 -1.30253)
(-0.0533358 0.0165064 -2.38056)
(1.97277 0.00172885 -2.761)
(3.88844 -0.0037019 -2.25359)
(4.32213 0.00144197 -1.71395)
(4.64254 0.00245015 -1.33499)
(4.86739 0.00200722 -1.03749)
(5.02726 0.00144366 -0.808942)
(5.13697 0.00216556 -0.628464)
(5.21514 0.00360294 -0.495369)
(5.27174 0.00532942 -0.39881)
(5.31181 0.00720559 -0.326517)
(5.3373 0.00844171 -0.271014)
(5.35334 0.00921374 -0.229234)
(5.36186 0.00998351 -0.195356)
(5.36398 0.0106146 -0.167586)
(5.35984 0.0111305 -0.14587)
(5.35156 0.0118727 -0.127783)
(5.338 0.012352 -0.11305)
(5.32269 0.0128727 -0.0985439)
(5.30332 0.0133178 -0.0864416)
(5.28423 0.0140359 -0.0740848)
(5.26015 0.0142632 -0.0650155)
(5.23845 0.0147951 -0.0535136)
(5.20829 0.0146765 -0.0475109)
(5.18159 0.0143766 -0.0359234)
(5.14322 0.0145194 -0.0276422)
(5.10165 0.0143217 -0.0185395)
(5.08955 0.0129967 -0.017425)
(5.14102 0.0117974 -0.0187064)
(-0.527154 0.0745902 2.64919)
(-0.902138 0.0207003 1.74558)
(-1.18498 0.00129755 1.10042)
(-1.35718 -0.00992195 0.617535)
(-1.38778 -0.0213278 0.145155)
(-1.2386 -0.0349105 -0.457861)
(-0.854057 -0.0507749 -1.32373)
(-0.00146034 -0.0670469 -2.41375)
(2.02016 -0.0704599 -2.78768)
(3.89388 -0.0587849 -2.25316)
(4.30245 -0.0443342 -1.71145)
(4.61102 -0.0383515 -1.33654)
(4.83663 -0.0345352 -1.03666)
(4.99457 -0.0313978 -0.806049)
(5.10471 -0.0258466 -0.632045)
(5.18444 -0.0187762 -0.502317)
(5.24314 -0.0110254 -0.406761)
(5.2849 -0.00376394 -0.337133)
(5.31322 0.00191709 -0.282308)
(5.33086 0.00628162 -0.239059)
(5.34138 0.00967516 -0.204376)
(5.34624 0.0129374 -0.175393)
(5.34526 0.0158984 -0.151881)
(5.33964 0.0189293 -0.132722)
(5.32915 0.021206 -0.117091)
(5.31718 0.02306 -0.101621)
(5.30089 0.0238922 -0.0879638)
(5.28514 0.024618 -0.0752917)
(5.26533 0.024318 -0.0657047)
(5.2488 0.0241396 -0.0546718)
(5.22429 0.0227501 -0.0482127)
(5.20635 0.0214409 -0.0363338)
(5.17346 0.0204902 -0.0303557)
(5.15031 0.0181842 -0.0224121)
(5.14117 0.0158799 -0.0223705)
(5.19364 0.01343 -0.0221568)
(-0.489362 0.106332 2.61019)
(-0.837999 0.0277864 1.7138)
(-1.11071 -0.00413503 1.07064)
(-1.28179 -0.028113 0.586578)
(-1.31459 -0.0554927 0.110635)
(-1.16846 -0.0877998 -0.4981)
(-0.78687 -0.125402 -1.37243)
(0.0704061 -0.159601 -2.46395)
(2.06154 -0.153055 -2.79384)
(3.84327 -0.121888 -2.23118)
(4.22688 -0.102467 -1.70537)
(4.52011 -0.0870886 -1.30859)
(4.73619 -0.0748154 -1.00819)
(4.89183 -0.0630879 -0.779711)
(5.00363 -0.0494422 -0.611272)
(5.08615 -0.0354393 -0.484189)
(5.14724 -0.0225449 -0.389012)
(5.19337 -0.0113842 -0.318399)
(5.22709 -0.00283624 -0.264048)
(5.25243 0.00337779 -0.219342)
(5.26929 0.00847189 -0.183181)