/*--------------------------------*- C++ -*----------------------------------*\
  =========                 |
  \\      /  F ield         | OpenFOAM: The Open Source CFD Toolbox
   \\    /   O peration     | Website:  https://openfoam.org
    \\  /    A nd           | Version:  7
     \\/     M anipulation  |
\*---------------------------------------------------------------------------*/
FoamFile
{
    version     2.0;
    format      ascii;
    class       volScalarField;
    location    "450";
    object      epsilon;
}
// * * * * * * * * * * * * * * * * * * * * * * * * * * * * * * * * * * * * * //

dimensions      [0 2 -3 0 0 0 0];

internalField   nonuniform List<scalar> 
96800
(
0.000113568
0.000113587
0.000113521
0.000113431
0.000113299
0.000113141
0.000112984
0.000112844
0.000112731
0.000112653
0.000112616
0.000112626
0.000112687
0.000112784
0.000112921
0.000113092
0.000113296
0.000113522
0.000113758
0.000113996
0.000114259
0.000114664
0.000113692
0.000113894
0.000113856
0.000113772
0.000113638
0.000113479
0.000113318
0.000113174
0.000113059
0.000112982
0.000112946
0.000112954
0.000113006
0.000113105
0.000113241
0.000113414
0.000113619
0.000113843
0.000114071
0.00011429
0.000114497
0.00011467
0.00011378
0.000114024
0.000114014
0.000113934
0.000113798
0.000113631
0.000113461
0.000113308
0.000113187
0.000113105
0.000113067
0.000113071
0.000113121
0.000113216
0.000113353
0.000113528
0.000113731
0.000113947
0.000114159
0.000114341
0.000114471
0.000114501
0.000113899
0.000114154
0.000114153
0.000114069
0.000113923
0.000113743
0.00011356
0.000113394
0.000113264
0.000113176
0.000113133
0.000113135
0.000113182
0.000113276
0.000113412
0.000113585
0.000113785
0.000113995
0.00011419
0.000114344
0.000114426
0.000114401
0.00011402
0.000114276
0.00011427
0.000114175
0.000114013
0.000113815
0.000113614
0.000113434
0.000113292
0.000113196
0.000113149
0.000113148
0.000113194
0.000113286
0.000113421
0.000113593
0.000113791
0.000113995
0.00011418
0.000114317
0.000114375
0.000114328
0.000114138
0.00011439
0.000114373
0.000114261
0.000114079
0.000113862
0.000113642
0.000113445
0.00011329
0.000113186
0.000113135
0.000113131
0.000113176
0.000113267
0.000113402
0.000113573
0.000113769
0.000113971
0.000114153
0.000114283
0.000114332
0.000114277
0.000114256
0.000114503
0.000114472
0.000114341
0.000114138
0.000113898
0.000113658
0.000113446
0.000113278
0.000113166
0.000113111
0.000113105
0.000113149
0.000113241
0.000113376
0.000113548
0.000113744
0.000113947
0.00011413
0.00011426
0.000114309
0.000114254
0.000114382
0.000114624
0.000114578
0.000114428
0.000114202
0.00011394
0.000113681
0.000113452
0.000113274
0.000113154
0.000113094
0.000113086
0.000113129
0.000113221
0.000113357
0.000113531
0.000113731
0.000113938
0.000114126
0.000114262
0.000114316
0.000114264
0.000114527
0.000114764
0.000114704
0.000114534
0.000114286
0.000114002
0.000113723
0.000113479
0.000113289
0.000113162
0.000113096
0.000113085
0.000113126
0.000113218
0.000113356
0.000113534
0.00011374
0.000113956
0.000114154
0.0001143
0.000114364
0.000114318
0.000114703
0.000114935
0.000114861
0.000114672
0.000114402
0.000114096
0.000113796
0.000113536
0.000113333
0.000113197
0.000113125
0.00011311
0.000113149
0.000113241
0.000113382
0.000113566
0.000113783
0.000114012
0.000114225
0.000114384
0.000114459
0.000114421
0.000114921
0.000115147
0.00011506
0.000114854
0.000114561
0.000114232
0.000113912
0.000113633
0.000113415
0.000113268
0.000113188
0.000113168
0.000113203
0.000113296
0.000113441
0.000113635
0.000113866
0.000114113
0.000114344
0.000114521
0.000114608
0.000114579
0.000115192
0.000115413
0.000115314
0.000115089
0.000114775
0.000114422
0.000114079
0.000113779
0.000113544
0.000113382
0.000113293
0.000113266
0.000113298
0.000113391
0.000113543
0.000113749
0.000113997
0.000114264
0.000114518
0.000114714
0.000114817
0.000114796
0.000115534
0.000115749
0.000115637
0.000115392
0.000115054
0.000114675
0.000114305
0.000113981
0.000113726
0.000113548
0.000113447
0.000113413
0.000113441
0.000113535
0.000113695
0.000113915
0.000114183
0.000114473
0.000114751
0.000114971
0.000115092
0.000115082
0.000115965
0.000116174
0.000116045
0.000115778
0.000115412
0.000115003
0.000114604
0.000114254
0.000113976
0.000113781
0.000113665
0.000113622
0.000113645
0.000113741
0.00011391
0.000114146
0.000114434
0.00011475
0.000115054
0.0001153
0.000115442
0.000115445
0.00011651
0.000116709
0.000116562
0.000116268
0.000115871
0.000115429
0.000114997
0.000114616
0.000114313
0.000114096
0.000113965
0.000113912
0.000113929
0.000114026
0.000114203
0.000114455
0.000114766
0.000115107
0.00011544
0.000115714
0.000115879
0.000115896
0.0001172
0.000117389
0.000117218
0.000116894
0.00011646
0.00011598
0.000115511
0.000115096
0.000114763
0.000114521
0.000114371
0.000114307
0.000114318
0.000114414
0.000114598
0.000114865
0.000115196
0.000115564
0.000115926
0.000116228
0.000116416
0.000116447
0.000118081
0.000118258
0.000118059
0.000117697
0.000117221
0.000116696
0.000116184
0.00011573
0.000115362
0.000115091
0.000114918
0.00011484
0.000114841
0.000114934
0.000115123
0.000115402
0.000115753
0.000116146
0.000116536
0.000116863
0.000117072
0.000117116
0.000119214
0.000119375
0.000119142
0.000118736
0.000118208
0.00011763
0.000117067
0.000116565
0.000116154
0.000115848
0.000115648
0.00011555
0.000115541
0.000115627
0.000115817
0.000116104
0.000116471
0.000116886
0.000117299
0.000117648
0.000117873
0.000117929
0.000120686
0.000120828
0.000120552
0.000120089
0.000119496
0.00011885
0.000118221
0.00011766
0.000117198
0.000116849
0.000116615
0.000116494
0.00011647
0.000116544
0.000116728
0.000117018
0.000117396
0.000117828
0.00011826
0.000118624
0.00011886
0.000118923
0.000122626
0.000122742
0.000122409
0.00012187
0.000121189
0.000120452
0.000119736
0.000119098
0.00011857
0.000118167
0.00011789
0.000117737
0.000117693
0.000117748
0.00011792
0.000118206
0.00011859
0.000119032
0.000119477
0.000119852
0.000120093
0.000120162
0.00012523
0.000125311
0.000124898
0.000124254
0.000123448
0.000122582
0.000121744
0.000120998
0.00012038
0.000119904
0.000119568
0.000119368
0.000119292
0.000119322
0.000119476
0.000119752
0.000120132
0.000120577
0.000121027
0.000121408
0.000121654
0.000121729
0.000128828
0.000128855
0.000128322
0.000127523
0.000126535
0.000125478
0.000124462
0.000123558
0.000122807
0.000122221
0.000121797
0.000121524
0.000121394
0.000121388
0.000121509
0.000121763
0.00012213
0.000122568
0.000123017
0.0001234
0.000123651
0.000123735
0.000133969
0.00013391
0.000133192
0.000132154
0.000130888
0.000129544
0.000128256
0.000127109
0.000126151
0.000125391
0.000124821
0.000124427
0.000124199
0.000124125
0.000124187
0.000124397
0.000124731
0.000125148
0.000125588
0.00012597
0.000126225
0.00012632
0.000141583
0.000141382
0.000140363
0.000138949
0.000137254
0.000135467
0.000133758
0.000132231
0.00013094
0.000129893
0.000129073
0.000128464
0.000128053
0.000127832
0.000127783
0.000127893
0.000128153
0.000128521
0.000128935
0.000129305
0.000129557
0.00012966
0.00015322
0.000152783
0.000151265
0.000149248
0.00014688
0.000144408
0.000142046
0.000139925
0.000138104
0.000136584
0.000135338
0.000134344
0.000133589
0.000133063
0.000132758
0.000132662
0.000132751
0.000133
0.000133338
0.000133666
0.000133895
0.000133997
0.000171407
0.00017057
0.000168216
0.000165215
0.000161778
0.000158238
0.000154876
0.000151854
0.000149224
0.000146962
0.00014502
0.000143364
0.000141974
0.000140849
0.000139996
0.000139426
0.000139137
0.000139092
0.000139227
0.000139424
0.000139576
0.000139654
0.000200228
0.000198709
0.000194913
0.000190268
0.000185098
0.000179878
0.000174998
0.000170653
0.000166868
0.000163551
0.000160583
0.000157876
0.000155394
0.000153151
0.0001512
0.000149614
0.000148446
0.000147707
0.000147329
0.000147176
0.00014711
0.000147094
0.000246218
0.000243502
0.000237161
0.000229689
0.00022163
0.000213708
0.000206495
0.000200248
0.000194934
0.000190311
0.000186071
0.000181955
0.000177825
0.000173686
0.000169677
0.000166024
0.000162949
0.000160596
0.000158968
0.000157929
0.000157296
0.000157008
0.000320125
0.000315249
0.000304311
0.000291869
0.000278879
0.000266465
0.000255514
0.000246421
0.000239105
0.000233101
0.000227728
0.000222286
0.000216239
0.000209381
0.000201901
0.000194316
0.000187272
0.000181326
0.000176772
0.000173578
0.000171531
0.000170528
0.000440354
0.000431507
0.000412178
0.000390886
0.000369327
0.000349227
0.00033196
0.000318186
0.000307879
0.000300401
0.000294606
0.00028898
0.000281959
0.000272425
0.000260128
0.000245826
0.000231017
0.000217374
0.000206155
0.000197869
0.000192408
0.000189629
0.000640316
0.000624109
0.000589403
0.000552139
0.000515388
0.00048179
0.000453431
0.000431354
0.000415685
0.000405771
0.000400179
0.000396548
0.000391662
0.000382151
0.000365688
0.000342093
0.000313696
0.000284528
0.000258644
0.000238591
0.000225056
0.000218011
0.000983322
0.00095341
0.000890416
0.00082392
0.000759597
0.000701602
0.000653122
0.000615729
0.00058964
0.000574107
0.000567524
0.000567218
0.000568548
0.000565135
0.000549949
0.000518386
0.000470974
0.000414272
0.000358375
0.000312182
0.000280016
0.000262968
0.00159252
0.001537
0.00142188
0.00130141
0.00118619
0.00108298
0.000996797
0.000930032
0.000882885
0.000854079
0.000841295
0.000841569
0.000849516
0.000856323
0.000851254
0.000819852
0.000754749
0.00065962
0.0005512
0.000452126
0.000379102
0.000339349
0.00270885
0.00260586
0.00239544
0.00217574
0.00196641
0.00177867
0.00162041
0.00149531
0.0014036
0.0013431
0.00131009
0.00129961
0.00130521
0.00131693
0.00132147
0.00129675
0.00122226
0.00108784
0.000907219
0.000718462
0.000565235
0.000477206
0.00479997
0.00461101
0.00423042
0.00383224
0.0034519
0.00310768
0.00281163
0.00256922
0.00238087
0.00224357
0.00215212
0.0020994
0.00207575
0.00206824
0.00206062
0.00202868
0.00194172
0.00177033
0.00150903
0.00119746
0.000912091
0.0007331
0.00875425
0.00841636
0.00774437
0.00703796
0.00635786
0.00573182
0.005177
0.00470089
0.00430462
0.00398551
0.0037388
0.00355763
0.00343124
0.00334321
0.0032706
0.00318059
0.00304027
0.00280827
0.00245232
0.00199201
0.00152314
0.00119794
0.0161939
0.0156166
0.0144741
0.013267
0.0120898
0.0109783
0.00995281
0.00902263
0.00819163
0.0074622
0.00683709
0.00631817
0.00590223
0.00557537
0.0053081
0.00505594
0.00476761
0.00439222
0.0038828
0.00322948
0.00252299
0.00199048
0.0300009
0.0290536
0.027206
0.025249
0.0233046
0.0214007
0.0195519
0.0177673
0.0160607
0.0144538
0.012976
0.01166
0.0105317
0.00959901
0.00883833
0.00818883
0.0075626
0.00687336
0.0060614
0.00510335
0.00407031
0.00325303
0.0550547
0.0535667
0.0507689
0.0478055
0.0447782
0.041657
0.0384248
0.035088
0.0316888
0.0283038
0.0250349
0.021994
0.0192824
0.0169691
0.0150653
0.013508
0.0121571
0.0108409
0.00944156
0.00793584
0.00639675
0.00517113
0.0993214
0.0971638
0.0932778
0.0891725
0.084786
0.0799113
0.0744368
0.0683657
0.0618161
0.0549982
0.0481821
0.0416583
0.0356945
0.0304941
0.0261565
0.02265
0.0197856
0.0172532
0.0147739
0.012273
0.00987508
0.00802107
0.175566
0.172715
0.16795
0.162963
0.157182
0.149951
0.140948
0.130184
0.117961
0.104785
0.0912808
0.0781062
0.0658644
0.0550254
0.0458662
0.0384422
0.0325373
0.0276654
0.0232499
0.0190052
0.0151132
0.0122339
0.303837
0.300558
0.29594
0.291258
0.28467
0.274533
0.260094
0.241433
0.219261
0.194697
0.16907
0.143742
0.119954
0.0986695
0.0804907
0.0656423
0.0539147
0.0446228
0.0367511
0.0295374
0.0230898
0.0184917
0.515292
0.512477
0.51073
0.509426
0.503951
0.490641
0.467942
0.436162
0.396894
0.352466
0.305536
0.258761
0.214523
0.174663
0.140341
0.11207
0.0896846
0.0722808
0.0582639
0.0460461
0.035346
0.0278666
0.858318
0.858109
0.865241
0.874
0.874057
0.858046
0.822827
0.769416
0.701205
0.622832
0.539374
0.45577
0.37636
0.304462
0.242162
0.190446
0.149242
0.117386
0.092554
0.0719176
0.0542677
0.0420744
1.4083
1.41516
1.44326
1.47536
1.48983
1.47291
1.4186
1.3297
1.21313
1.07778
0.932964
0.787477
0.648888
0.522931
0.413202
0.321471
0.247853
0.190863
0.147246
0.112439
0.0835266
0.0637578
2.28334
2.30593
2.37761
2.45761
2.50323
2.48891
2.40547
2.25883
2.06269
1.83341
1.58739
1.3397
1.1031
0.887224
0.698153
0.539045
0.41043
0.310443
0.234593
0.175927
0.128724
0.0967922
3.66939
3.72342
3.87888
4.0497
4.15551
4.15037
4.02293
3.7839
3.45937
3.07804
2.66778
2.25355
1.85634
1.4921
1.1712
0.899375
0.678144
0.505258
0.37454
0.275704
0.198691
0.147395
5.85489
5.96743
6.27461
6.60789
6.82242
6.83904
6.64643
6.26341
5.73668
5.11436
4.4419
3.75963
3.10158
2.4942
1.95541
1.49589
1.11938
0.82351
0.599811
0.433294
0.307361
0.225134
9.283
9.49874
10.0678
10.6789
11.0815
11.1436
10.8588
10.2587
9.42222
8.42613
7.34193
6.23348
5.15572
4.15275
3.25589
2.48512
1.84911
1.34621
0.965114
0.684228
0.477244
0.345131
14.6107
15.0002
16.0024
17.0701
17.7873
17.9406
17.5353
16.6217
15.3257
13.764
12.0455
10.2698
8.52556
6.88637
5.40691
4.12432
3.05734
2.20758
1.56088
1.08669
0.744533
0.53118
22.788
23.4588
25.1506
26.9438
28.175
28.5119
27.9688
26.6273
24.6725
22.2748
19.5966
16.7927
14.0058
11.3577
8.9427
6.82813
5.05253
3.62654
2.53475
1.73526
1.16738
0.820901
35.1304
36.2418
38.9975
41.9143
43.9754
44.6762
44.0263
42.1408
39.2723
35.6631
31.5554
27.1904
22.7971
18.5755
14.6834
11.2392
8.31733
5.94845
4.121
2.78017
1.83757
1.27313
53.402
55.1862
59.5466
64.1812
67.5817
68.9892
68.3579
65.8304
61.7233
56.3815
50.1705
43.468
36.6397
30.0088
23.8339
18.3133
13.5805
9.7032
6.68409
4.45731
2.89964
1.98001
79.9025
82.6948
89.4391
96.676
102.216
104.918
104.556
101.316
95.5423
87.7448
78.4812
68.3401
57.8972
47.6654
38.0577
29.3922
21.8888
15.6728
10.7767
7.13256
4.58091
3.08712
117.565
121.845
132.08
143.194
152.042
156.898
157.194
153.155
145.119
133.869
120.258
105.187
89.5372
74.0953
59.4991
46.2392
34.6552
24.9499
17.2022
11.3587
7.23573
4.8255
170.008
176.456
191.71
208.437
222.148
230.249
231.642
226.577
215.413
199.357
179.71
157.813
134.955
112.282
90.728
71.0199
53.6619
38.9603
27.0554
17.9274
11.3972
7.55597
241.494
251.039
273.341
297.874
318.281
330.783
333.584
326.931
311.355
288.71
260.933
229.957
197.577
165.355
134.562
106.209
81.0211
59.4518
41.7322
27.9006
17.8246
11.823
336.784
350.665
382.546
417.379
446.299
464.059
468.104
458.748
436.929
405.431
367.074
324.543
280.21
236.062
193.684
154.362
119.069
88.4652
62.9361
42.6359
27.5486
18.417
460.734
480.479
524.775
572.251
610.881
633.894
638.125
624.104
593.561
550.524
498.95
442.425
383.93
325.817
269.879
217.567
170.039
128.183
92.6336
63.79
41.9006
28.4391
618.008
645.305
704.647
766.016
813.882
840.428
842.431
820.647
778.289
720.855
653.63
581.168
507.024
433.796
363.286
296.881
235.716
180.795
133.066
93.3944
62.5755
43.4039
812.602
848.981
924.603
998.157
1051.31
1076.76
1072.19
1038.52
981.112
906.909
822.534
733.438
643.62
555.734
471.355
391.494
316.875
248.247
186.751
134.009
91.8857
65.3419
1048.6
1094.99
1184.52
1262.18
1310.33
1325.8
1307.96
1258.15
1183.27
1091.48
990.434
886.191
782.942
683.195
588.094
498.004
412.768
332.072
256.653
189.18
133.458
97.9417
1332.53
1389.09
1482.2
1543.32
1565.94
1557.62
1518.13
1449.1
1356.72
1249.49
1135.4
1020.57
909.048
803.049
703.258
609.391
520.144
432.827
346.102
264.814
194.814
150.274
1680.09
1744.17
1812.65
1814.46
1778.41
1728.06
1660.17
1571.78
1466.5
1350.85
1231.59
1114.16
1002.4
898.296
802.317
713.957
630.858
547.511
460.886
374.224
294.691
239.286
2121.82
2175.22
2142.79
2011.64
1882.43
1778.74
1685.02
1586.83
1479.98
1367.4
1254.24
1145.14
1043.36
950.605
867.727
795.024
730.676
668.392
604.777
543.77
490.981
458.695
2674.53
2657.24
2337
2020.41
1801.1
1662.07
1563.99
1475.17
1383.27
1287.89
1192.83
1102.13
1018.92
945.401
882.813
833.621
798.983
777.715
776.561
820.169
937.22
1138.52
0.58222
16.3741
19.4223
14.7716
12.6816
11.9348
11.4717
13.3103
16.1477
16.9846
22.8529
100.578
245.031
391.064
515.022
608.478
670.583
704.73
716.345
712.694
697.803
677.919
655.689
632.605
609.836
588.515
569.481
553.043
538.791
525.797
513.296
501.184
489.759
479.252
469.651
460.786
452.621
445.279
439.03
434.238
431.268
430.725
431.819
434.745
440.108
447.576
456.654
466.768
477.255
487.331
496.224
503.462
508.865
512.419
514.106
513.607
510.085
504.697
498.104
490.862
483.104
474.687
465.245
454.324
441.922
429.121
416.86
405.517
395.222
385.931
377.556
370.064
363.483
357.857
353.194
349.469
346.614
344.545
343.415
343.362
343.89
345.178
347.587
350.849
354.804
359.279
364.066
369.096
374.607
381.306
390.07
399.798
408.476
413.766
415.42
415.636
416.061
417.255
419.38
422.165
424.922
426.982
428.049
427.957
425.611
421.285
415.986
415.778
445.731
733.249
2409.2
2429.85
1996.88
1657.83
1462.44
1360.3
1300.47
1246.28
1185.84
1119.47
1051.5
986.31
927.429
877.751
839.975
817.297
813.068
836.556
910.431
1106.11
1595.89
2362.26
4904.99
3796.52
2949.4
2311.61
1912.64
1648.75
1446.53
1278.99
1141.14
1030.52
943.086
876.041
825.218
785.831
753.535
725.324
699.451
675.739
653.951
632.712
611.008
588.451
565.58
543.453
523.349
505.854
490.902
478.142
467.028
456.948
448.133
440.664
434.293
428.873
424.396
421.009
418.777
417.585
416.835
415.88
414.339
412.647
410.797
408.143
404.336
399.073
393
387.252
382.553
379.03
376.331
374.24
372.744
372.185
372.282
372.913
374.388
377.232
381.493
387.117
393.837
401.21
408.655
415.553
421.358
425.673
428.262
429.078
427.953
424.662
420.292
415.311
410.164
405.226
400.721
396.71
393.171
390.184
388.087
387.502
387.749
388.367
389.316
390.915
393.345
396.361
399.787
403.471
407.263
410.992
414.53
417.817
420.767
423.214
424.971
426.142
426.973
427.666
428.542
429.841
432.251
436.083
441.757
450.669
465.06
489.965
541.456
671.445
1044.42
2142.96
0.0118115
0.0320125
0.0502828
0.0699934
0.0929415
0.122896
0.172892
0.458209
1.4179
2.46966
8.91102
79.3674
218.961
364.335
490.711
588.252
654.98
693.412
709.162
709.097
698.179
681.119
661.178
639.93
618.89
599.486
582.568
568.081
555.212
542.923
530.49
517.92
505.671
494.201
483.628
473.947
465.294
457.884
451.883
447.423
444.812
444.728
446.229
449.037
454.209
461.207
469.487
478.643
488.205
497.505
505.604
512.022
516.551
519.192
520.188
518.955
514.844
509.247
502.673
495.512
487.935
479.691
470.2
459.051
446.624
434.047
422.246
411.51
401.754
392.888
384.851
377.617
371.253
365.876
361.487
357.989
355.303
353.19
351.827
351.597
352.078
353.191
355.281
357.911
360.996
364.586
368.644
373.287
378.974
386.275
395.307
404.991
412.66
416.285
416.289
415.386
416.012
418.224
421.701
425.75
429.04
431.071
431.418
430.032
426.926
421.564
415.63
413.41
428.576
545.463
882.469
1065.01
1072.17
1020.73
987.489
978.405
975.514
962.801
936.687
900.542
860.146
820.502
785.594
758.806
743.498
743.566
764.893
818.633
921.264
1124.57
1519.44
2095.08
3387.79
3443.93
2828.55
2283.7
1902.22
1645.49
1454.16
1296.25
1161.33
1048
956.054
884.456
830.832
790.516
758.548
731.343
707.038
684.738
663.789
643.261
622.13
599.901
576.961
554.488
534.055
516.732
502.462
490.512
480.101
470.756
462.257
454.518
447.622
441.579
436.46
432.444
429.582
427.822
426.524
425.1
423.443
421.394
418.981
415.841
411.587
405.948
399.534
393.453
388.54
385.011
382.492
380.521
378.979
378.33
378.51
379.344
381.233
384.36
388.832
394.596
401.417
408.862
416.353
423.268
429.012
433.086
435.33
435.928
434.48
431.092
426.74
421.909
416.999
412.328
408.061
404.255
400.992
398.464
396.849
396.36
396.677
397.402
398.517
400.265
402.867
406.03
409.676
413.708
417.92
422.043
425.837
429.223
432.148
434.499
436.124
437.119
437.718
438.286
439.102
440.226
442.14
445.531
450.842
459.818
474.495
499.953
551.537
680.328
1033.08
1791.46
0.0100193
0.0106804
0.0110913
0.0114568
0.0118074
0.0121596
0.0126423
0.0133803
0.0147389
0.0187644
0.539928
23.9002
128.69
260.076
385.371
489.964
567.827
618.543
646.042
656.578
655.705
646.372
632.316
615.65
598.52
582.915
569.93
559.268
549.563
539.395
528.007
515.573
502.908
490.735
479.269
468.542
458.812
450.462
443.719
438.646
435.363
434.3
434.964
437.205
441.024
446.262
452.415
459.336
466.912
474.762
481.87
487.573
491.586
493.895
494.643
493.509
490.067
485.481
480.233
474.615
468.622
461.833
453.527
443.329
431.759
420.105
409.372
399.676
390.682
382.203
374.257
366.918
360.366
354.824
350.336
346.748
343.903
341.502
339.668
338.802
338.942
339.792
341.251
342.876
344.555
346.445
348.726
351.768
356.449
363.736
373.698
384.466
392.397
394.823
392.763
389.2
388.658
391.03
395.741
400.878
404.805
406.699
406.63
404.356
400.38
394.782
387.985
381.542
381.136
405.188
487.883
559.254
599.052
623.029
646.664
674.221
696.019
704.696
699.894
683.922
663.042
642.118
624.994
615.476
616.296
631.5
667.609
734.881
849.526
1030.55
1308.69
1599.86
2021.01
2333.16
2289.66
2016.11
1738.9
1528.51
1368.63
1239.36
1123.76
1019.07
929.452
857.123
802.632
762.46
731.895
707.014
685.49
666.195
648.276
630.613
611.989
591.619
569.623
547.409
526.846
509.251
494.761
482.699
472.259
462.961
454.585
447.007
440.184
434.057
428.63
424.1
420.557
417.831
415.443
413.193
411.119
408.951
406.398
403.129
398.849
393.279
386.927
380.825
375.763
371.955
368.994
366.345
363.88
362.083
361.552
361.998
363.515
366.235
370.186
375.328
381.514
388.443
395.656
402.574
408.581
413.099
415.828
416.849
416.104
413.349
409.579
405.358
401.065
396.951
393.138
389.688
386.749
384.598
383.401
383.249
383.557
384.514
386.185
388.598
391.661
395.203
399.186
403.577
408.164
412.614
416.555
419.778
422.146
423.7
424.518
424.708
424.239
423.94
424.098
424.791
426.273
428.996
433.714
442.432
457.339
482.595
530.135
636.926
895.647
1334.06
0.00998713
0.00995302
0.00993672
0.00992853
0.00992234
0.00992474
0.00994777
0.0100182
0.0101914
0.0107578
0.0154165
1.58092
32.0215
119.758
224.268
324.129
407.846
470.426
512.174
536.859
548.767
551.065
546.041
536.132
524.212
512.607
502.771
494.795
487.523
479.604
470.286
459.59
448.212
436.975
426.21
415.908
406.159
397.261
389.507
383.057
378.015
374.524
372.717
372.588
373.795
376.282
379.739
384.099
389.488
395.824
402.426
408.438
413.297
416.801
418.905
419.551
418.705
416.668
414.193
411.498
408.441
404.531
399.081
391.691
382.748
373.329
364.375
356.038
347.941
339.861
331.879
324.178
317.013
310.689
305.367
300.954
297.224
293.986
291.277
289.335
288.378
288.302
288.731
289.452
290.214
290.992
291.975
293.448
296.46
302.348
311.792
323.34
333.329
338.328
337.82
333.825
330.782
331.075
333.855
337.727
340.981
342.733
342.949
341.433
338.411
334.126
328.521
321.63
314.971
318.112
350.668
395.888
434.22
455.273
468.899
485.61
502.49
512.853
514.175
507.34
496.187
485.414
478.653
478.742
488.103
510.606
550.831
617.01
721.624
872.65
1071.27
1261.47
1406.91
1544.19
1601.96
1546.92
1417.6
1285.63
1169.99
1073.5
985.896
903.741
830.511
768.814
720.234
683.418
655.446
633.226
614.52
598.187
583.5
569.42
554.636
538.163
519.368
499.284
479.546
461.509
445.698
432.003
420.117
409.788
400.92
393.403
387.058
381.65
376.922
372.895
369.62
366.937
364.582
362.412
360.418
358.423
356.127
353.22
349.505
344.883
339.634
334.375
329.718
325.909
322.563
319.221
315.667
312.277
309.661
308.172
307.839
308.404
310.143
313.057
317.148
322.319
328.317
334.703
340.905
346.326
350.501
353.171
354.221
353.599
351.384
348.381
345.006
341.556
338.219
335.119
332.423
330.375
329.167
328.915
329.186
330.125
331.961
334.711
338.214
342.165
346.394
350.804
355.216
359.32
362.773
365.338
366.968
367.728
367.808
367.085
365.815
364.585
363.859
363.887
364.534
366.307
369.998
377.165
390.006
411.333
448.141
518.891
664.786
887.549
0.00998119
0.00990515
0.0098354
0.00977442
0.00972575
0.00968199
0.00965026
0.00963498
0.00966479
0.00976788
0.0101344
0.0171291
0.990779
17.0496
75.2081
149.53
224.036
288.705
339.35
376.09
400.938
415.71
421.963
421.679
416.873
410.301
403.684
397.724
392.008
385.812
378.679
370.536
361.614
352.496
343.595
335.01
326.716
318.762
311.29
304.465
298.43
293.302
289.225
286.349
284.774
284.476
285.214
287.15
290.346
294.868
300.428
306.388
312.05
316.92
320.724
323.337
324.829
325.495
325.783
326.022
326.114
325.502
323.489
319.692
314.217
307.813
301.312
295.007
288.643
281.96
274.984
267.904
260.963
254.45
248.586
243.409
238.794
234.6
230.807
227.533
224.951
223.139
222.026
221.412
221.151
221.152
221.418
222.15
223.962
228.006
235.356
245.55
256.005
263.787
266.946
265.812
262.42
260.29
260.421
261.919
263.626
264.837
265.36
265.062
263.691
261.558
258.825
255.639
252.852
256.062
280.186
315.291
340.599
348.697
350.668
358.421
370.705
380.012
382.486
378.879
371.888
366.01
364.485
368.923
381.789
404.917
441.68
497.697
581.885
702.63
846.294
982.402
1072.54
1129.76
1159.74
1154.18
1113.2
1046.47
972.299
899.997
831.112
766.953
710.246
661.148
619.695
586.112
559.662
538.731
521.578
507.045
494.454
482.96
471.352
458.734
444.056
427.695
410.58
393.796
378.068
363.68
350.866
339.686
330.184
322.258
315.706
310.252
305.638
301.736
298.596
296.208
294.446
293.11
291.986
290.779
289.159
286.869
283.827
280.046
275.739
271.323
267.29
263.922
261.008
258.016
254.52
250.606
246.72
243.308
240.606
238.695
237.649
237.645
238.726
241.109
244.751
249.391
254.573
259.772
264.513
268.417
271.137
272.467
272.39
271.069
268.966
266.504
263.954
261.495
259.268
257.406
256.041
255.249
255.023
255.27
256.245
258.136
260.923
264.354
268.154
272.12
276.04
279.603
282.552
284.738
286.149
286.838
286.923
286.435
285.522
284.538
283.827
283.685
284.06
285.253
287.695
292.409
300.996
315.408
338.988
378.475
448.875
554.162
0.00998825
0.00991622
0.00983372
0.00975726
0.00968571
0.00961759
0.00955268
0.00950847
0.00948264
0.00949881
0.00955687
0.00971779
0.0116137
0.181956
4.59733
26.8449
73.536
124.579
172.048
212.265
244.358
268.411
284.697
293.986
297.825
298.157
296.489
294.122
291.234
287.712
283.422
278.338
272.426
265.958
259.3
252.706
246.259
239.957
233.813
227.886
222.274
217.087
212.457
208.511
205.394
203.22
202.043
201.948
202.988
205.407
209.109
213.78
218.926
224.009
228.586
232.366
235.266
237.452
239.29
241.132
243.03
244.632
245.33
244.673
242.366
238.9
234.93
230.891
226.753
222.292
217.395
212.119
206.624
201.125
195.822
190.814
186.08
181.561
177.252
173.225
169.609
166.522
164.005
162.022
160.505
159.408
158.759
158.693
159.472
161.879
166.731
174.183
182.724
190.443
195.865
197.689
196.659
194.38
192.95
192.961
193.583
194.318
194.923
195.191
195.002
194.396
193.991
194.506
196.997
203.566
222.241
244.795
256.155
256.315
257.593
267.45
280.989
290.586
293.301
290.868
286.282
283.645
285.145
292.149
305.252
325.368
354.454
395.951
455.305
538.452
640.425
742.921
823.401
873.298
899.2
905.493
894.42
863.068
817.425
763.531
706.813
653.14
606.236
565.404
529.144
497.724
471.603
450.462
433.338
419.243
407.483
397.339
387.763
377.733
366.46
353.876
340.447
326.829
313.484
300.603
288.48
277.556
268.097
260.097
253.312
247.427
242.214
237.625
233.791
230.85
228.829
227.611
226.928
226.353
225.42
223.8
221.404
218.297
214.656
210.783
207.093
203.933
201.376
199.063
196.466
193.307
189.667
185.851
182.178
178.859
176.037
173.872
172.574
172.372
173.345
175.564
178.679
182.266
185.928
189.372
192.276
194.38
195.488
195.541
194.778
193.446
191.879
190.259
188.705
187.247
185.932
184.821
183.96
183.395
183.238
183.61
184.71
186.417
188.598
191.137
193.935
196.742
199.336
201.573
203.345
204.631
205.446
205.867
206.026
206.112
206.344
206.886
207.787
209.106
211.035
214.112
219.29
227.821
241.225
261.538
293.381
339.877
0.00998549
0.00990373
0.00981681
0.00973525
0.00965854
0.00958783
0.00952602
0.00947125
0.00942218
0.00938687
0.00937
0.00937611
0.00939336
0.00952227
0.0165603
0.290341
4.02794
17.4279
47.588
78.8812
108.556
134.327
155.246
170.895
181.673
188.582
192.809
195.439
196.901
197.361
196.981
195.549
193.17
189.855
185.906
181.618
177.189
172.705
168.2
163.714
159.31
155.067
151.093
147.49
144.351
141.771
139.827
138.642
138.35
138.932
140.672
143.355
146.782
150.651
154.618
158.37
161.674
164.47
166.887
169.169
171.479
173.701
175.551
176.483
176.274
175.074
173.2
171.065
168.811
166.362
163.601
160.472
157.003
153.287
149.433
145.511
141.541
137.533
133.543
129.67
126.023
122.697
119.725
117.099
114.802
112.842
111.27
110.218
109.993
110.799
113.38
117.88
123.643
129.425
134.305
137.419
138.462
138.087
137.283
137.138
137.513
138.054
138.574
138.946
139.052
139.093
139.652
141.906
146.665
154.367
168.103
182.549
188.73
190.121
197.188
211.524
225.767
234.161
235.856
233.783
231.392
231.687
235.832
243.915
255.537
270.81
290.683
317.172
353.533
403.711
468.431
541.118
610.049
664.849
702.17
722.247
724.607
712.353
684.565
645.824
601.121
556.435
515.997
480.112
447.939
419.761
395.824
375.832
359.2
345.346
333.804
324.115
315.566
307.226
298.35
288.784
278.826
268.842
258.866
248.67
238.326
228.431
219.653
212.202
205.801
200.028
194.619
189.575
185.089
181.368
178.517
176.521
175.246
174.385
173.501
172.19
170.24
167.658
164.576
161.209
157.842
154.757
152.141
149.944
147.864
145.602
142.956
139.88
136.497
133.01
129.594
126.418
123.714
121.782
120.878
121.01
122.104
123.817
125.821
127.877
129.798
131.405
132.525
133.048
132.971
132.473
131.713
130.833
129.938
129.001
128.006
126.98
125.981
125.071
124.327
123.863
123.777
123.995
124.491
125.197
126.156
127.432
129.09
131
132.905
134.621
136.076
137.263
138.263
139.226
140.314
141.631
143.179
144.922
146.901
149.368
152.825
157.983
165.565
176.161
190.984
211.458
0.00998548
0.00990713
0.00982147
0.0097385
0.00965796
0.00958044
0.00950705
0.00943955
0.00937967
0.00932903
0.00928891
0.00925854
0.00923263
0.00920339
0.00916572
0.0092444
0.0131089
0.106379
1.17295
6.28817
17.8684
35.9225
53.1187
68.783
81.8833
92.196
100.44
107.435
113.453
118.447
122.323
124.984
126.393
126.526
125.708
124.103
121.985
119.527
116.832
113.986
111.079
108.193
105.411
102.807
100.436
98.3515
96.6214
95.3246
94.5328
94.3394
94.6636
95.6721
97.2551
99.3214
101.732
104.333
106.959
109.477
111.796
113.914
115.909
117.806
119.508
120.761
121.362
121.295
120.766
119.916
118.894
117.721
116.352
114.743
112.885
110.8
108.516
106.037
103.354
100.478
97.47
94.4408
91.4986
88.7147
86.1015
83.6149
81.2405
79.0226
77.0578
75.4844
74.479
74.3741
75.1597
77.2605
80.3809
83.9011
87.2368
89.7548
91.3809
92.3665
93.1707
94.2374
95.3789
96.1539
96.5627