/*--------------------------------*- C++ -*----------------------------------*\
  =========                 |
  \\      /  F ield         | OpenFOAM: The Open Source CFD Toolbox
   \\    /   O peration     | Website:  https://openfoam.org
    \\  /    A nd           | Version:  7
     \\/     M anipulation  |
\*---------------------------------------------------------------------------*/
FoamFile
{
    version     2.0;
    format      ascii;
    class       volScalarField;
    location    "450";
    object      k;
}
// * * * * * * * * * * * * * * * * * * * * * * * * * * * * * * * * * * * * * //

dimensions      [0 2 -2 0 0 0 0];

internalField   nonuniform List<scalar> 
96800
(
0.000419811
0.000419808
0.000419625
0.000419361
0.000419014
0.000418621
0.000418238
0.000417899
0.000417629
0.000417445
0.000417355
0.000417375
0.000417509
0.000417733
0.000418052
0.000418453
0.000418928
0.000419447
0.000419976
0.000420489
0.000421001
0.000421667
0.000420001
0.000420267
0.000420121
0.000419866
0.000419512
0.000419113
0.00041872
0.000418372
0.000418095
0.000417909
0.000417821
0.000417836
0.000417958
0.000418185
0.000418504
0.00041891
0.000419386
0.000419902
0.000420421
0.000420906
0.000421336
0.000421663
0.000420144
0.00042047
0.000420358
0.000420099
0.000419731
0.000419311
0.000418895
0.000418526
0.000418234
0.000418038
0.000417944
0.000417954
0.00041807
0.000418292
0.000418612
0.00041902
0.000419494
0.000420001
0.000420498
0.000420933
0.000421252
0.000421369
0.000420338
0.000420677
0.000420568
0.00042029
0.000419892
0.000419437
0.000418987
0.000418589
0.000418276
0.000418065
0.000417962
0.000417966
0.000418078
0.000418297
0.000418616
0.000419023
0.000419495
0.000419994
0.000420472
0.000420867
0.000421119
0.000421157
0.000420539
0.000420874
0.000420746
0.000420437
0.000419997
0.000419498
0.000419007
0.000418573
0.000418233
0.000418005
0.000417893
0.000417892
0.000418
0.000418217
0.000418535
0.000418941
0.000419412
0.000419908
0.000420376
0.000420751
0.000420971
0.000420979
0.000420741
0.000421066
0.00042091
0.000420558
0.000420071
0.000419523
0.000418985
0.000418513
0.000418145
0.0004179
0.000417778
0.000417772
0.000417879
0.000418095
0.000418414
0.000418821
0.000419293
0.00041979
0.000420258
0.000420629
0.000420841
0.00042084
0.000420953
0.000421265
0.000421076
0.000420679
0.00042014
0.000419541
0.000418958
0.000418449
0.000418054
0.000417791
0.000417659
0.000417649
0.000417755
0.000417972
0.000418293
0.000418703
0.00041918
0.000419684
0.000420161
0.000420541
0.000420761
0.000420763
0.00042119
0.000421489
0.000421265
0.000420823
0.000420233
0.000419584
0.000418957
0.000418413
0.000417993
0.000417712
0.00041757
0.000417555
0.000417659
0.000417878
0.000418202
0.000418619
0.000419107
0.000419626
0.00042012
0.000420518
0.000420755
0.000420767
0.000421473
0.000421758
0.000421502
0.000421017
0.000420377
0.000419679
0.000419009
0.000418432
0.000417986
0.000417687
0.000417533
0.000417511
0.000417613
0.000417833
0.000418163
0.000418591
0.000419097
0.000419639
0.000420159
0.000420584
0.000420844
0.000420874
0.000421824
0.000422096
0.000421811
0.000421283
0.000420596
0.000419849
0.000419136
0.000418523
0.000418049
0.00041773
0.000417563
0.000417532
0.00041763
0.000417851
0.00041819
0.000418636
0.000419168
0.000419743
0.000420299
0.000420757
0.000421045
0.000421094
0.000422262
0.000422522
0.000422209
0.000421643
0.000420908
0.000420114
0.000419356
0.000418704
0.000418198
0.000417855
0.000417671
0.000417629
0.000417721
0.000417945
0.000418296
0.000418767
0.000419333
0.00041995
0.000420551
0.00042105
0.000421369
0.000421438
0.000422809
0.000423057
0.000422718
0.000422114
0.000421334
0.00042049
0.000419684
0.000418988
0.000418446
0.000418074
0.000417869
0.000417814
0.000417899
0.000418128
0.000418497
0.000418998
0.000419606
0.000420273
0.000420927
0.000421473
0.000421829
0.00042192
0.00042349
0.000423726
0.00042336
0.000422715
0.000421887
0.00042099
0.000420131
0.000419388
0.000418807
0.000418403
0.000418174
0.000418104
0.000418184
0.000418421
0.000418811
0.000419347
0.000420003
0.000420726
0.000421438
0.000422039
0.000422439
0.000422556
0.000424331
0.000424553
0.000424155
0.000423467
0.000422586
0.000421632
0.000420718
0.000419925
0.000419302
0.000418865
0.00041861
0.000418525
0.0004186
0.000418845
0.000419261
0.000419837
0.000420545
0.000421328
0.000422104
0.000422767
0.000423216
0.000423364
0.000425355
0.00042556
0.000425128
0.000424393
0.000423457
0.000422444
0.000421472
0.000420628
0.000419962
0.00041949
0.000419211
0.000419111
0.000419182
0.000419438
0.00041988
0.000420499
0.000421262
0.000422109
0.000422954
0.000423683
0.000424185
0.000424366
0.000426592
0.000426778
0.000426307
0.000425522
0.000424527
0.000423455
0.000422428
0.000421533
0.000420824
0.00042032
0.000420019
0.000419908
0.000419977
0.000420245
0.000420715
0.000421376
0.000422193
0.000423106
0.000424021
0.000424817
0.000425372
0.000425586
0.000428071
0.000428237
0.000427724
0.000426885
0.000425831
0.000424701
0.000423622
0.000422682
0.000421936
0.000421405
0.000421086
0.000420968
0.000421039
0.000421322
0.00042182
0.000422523
0.000423395
0.000424372
0.000425355
0.000426213
0.000426817
0.000427064
0.000429819
0.000429963
0.000429407
0.000428514
0.000427401
0.000426217
0.000425091
0.000424114
0.000423341
0.000422794
0.000422471
0.000422357
0.000422439
0.000422741
0.000423267
0.000424009
0.000424933
0.000425972
0.000427017
0.00042793
0.000428577
0.000428853
0.000431871
0.000431991
0.000431388
0.000430438
0.000429265
0.000428028
0.000426862
0.000425861
0.00042508
0.000424537
0.000424231
0.000424139
0.000424247
0.000424579
0.000425138
0.000425921
0.000426897
0.000427994
0.000429096
0.000430055
0.000430735
0.000431033
0.000434281
0.000434371
0.000433714
0.000432698
0.000431457
0.000430163
0.000428963
0.000427954
0.000427189
0.00042668
0.000426421
0.000426378
0.000426539
0.00042692
0.000427529
0.000428364
0.000429396
0.00043055
0.000431705
0.000432707
0.000433414
0.000433732
0.000437175
0.000437225
0.000436497
0.000435394
0.00043406
0.00043269
0.000431449
0.00043044
0.000429713
0.000429274
0.0004291
0.000429141
0.000429395
0.000429862
0.000430552
0.000431463
0.000432564
0.00043378
0.000434991
0.000436038
0.000436777
0.000437123
0.000440861
0.000440847
0.00044001
0.000438768
0.000437284
0.000435788
0.00043447
0.000433445
0.000432762
0.000432416
0.000432354
0.000432526
0.000432918
0.000433521
0.000434337
0.000435362
0.000436562
0.000437861
0.000439143
0.000440247
0.000441032
0.000441418
0.000446013
0.000445886
0.000444856
0.000443374
0.000441624
0.000439887
0.000438395
0.000437282
0.0004366
0.000436331
0.00043638
0.000436711
0.000437283
0.00043807
0.000439062
0.000440247
0.000441587
0.000443007
0.000444392
0.000445583
0.000446438
0.00044688
0.000453936
0.000453613
0.000452237
0.000450321
0.000448089
0.000445893
0.000444023
0.000442646
0.000441822
0.000441521
0.000441619
0.00044207
0.000442812
0.000443797
0.000444996
0.00044638
0.000447904
0.000449494
0.000451032
0.000452352
0.000453304
0.000453819
0.000466947
0.000466288
0.000464295
0.000461611
0.000458525
0.000455489
0.000452872
0.000450893
0.000449625
0.00044903
0.000448978
0.000449381
0.000450168
0.000451266
0.00045262
0.000454185
0.000455906
0.0004577
0.000459437
0.000460932
0.000462017
0.00046263
0.00048876
0.000487545
0.00048448
0.000480482
0.000475937
0.000471437
0.000467474
0.000464337
0.00046212
0.000460766
0.00046015
0.000460137
0.000460632
0.000461554
0.000462832
0.000464412
0.000466228
0.000468181
0.000470114
0.000471803
0.000473049
0.000473787
0.000524941
0.000522824
0.000517942
0.000511745
0.000504777
0.000497844
0.000491622
0.000486503
0.000482604
0.000479832
0.000478009
0.00047696
0.000476551
0.000476688
0.000477333
0.000478451
0.000479993
0.000481852
0.000483831
0.000485642
0.000487029
0.000487898
0.000583278
0.000579717
0.000571812
0.000562012
0.000551128
0.000540286
0.000530446
0.00052217
0.000515614
0.000510613
0.000506842
0.000503981
0.000501797
0.000500188
0.000499165
0.000498827
0.000499218
0.000500286
0.000501817
0.000503445
0.00050481
0.000505747
0.000674474
0.000668615
0.000655773
0.000640216
0.000623172
0.000606215
0.000590721
0.000577535
0.000566938
0.000558701
0.000552262
0.00054695
0.000542199
0.000537719
0.000533572
0.000530073
0.00052759
0.000526335
0.000526222
0.000526834
0.00052767
0.000528437
0.000813468
0.000803972
0.000783272
0.000758753
0.000732296
0.000706032
0.000681875
0.000661079
0.000644205
0.00063113
0.000621125
0.000613004
0.000605444
0.00059746
0.000588769
0.000579857
0.000571687
0.000565207
0.000560897
0.000558569
0.000557632
0.000557602
0.00102238
0.00100721
0.000974312
0.000936097
0.000895494
0.000855361
0.000818255
0.000785902
0.000759226
0.000738408
0.000722863
0.000711138
0.000700989
0.000689992
0.000676476
0.000660249
0.000642722
0.000626234
0.00061289
0.000603613
0.000598137
0.000595848
0.0013357
0.00131183
0.00126033
0.00120136
0.00113956
0.00107884
0.00102262
0.000973182
0.000931732
0.000898659
0.000873674
0.00085557
0.000841788
0.000828466
0.000811445
0.000787908
0.00075803
0.000725284
0.000694852
0.000670975
0.000655272
0.000647592
0.00180885
0.0017717
0.00169225
0.00160203
0.00150841
0.00141694
0.00133229
0.00125754
0.00119418
0.00114254
0.0011022
0.00107211
0.00105006
0.00103193
0.00101157
0.000982222
0.000939685
0.000885545
0.000827684
0.000776653
0.000740025
0.000720676
0.0025306
0.00247354
0.00235283
0.00221626
0.00207532
0.00193791
0.00181048
0.00169724
0.00160023
0.00151973
0.00145483
0.00140389
0.00136446
0.0013328
0.00130279
0.00126513
0.00121016
0.00113302
0.00103946
0.000945931
0.000871493
0.000829122
0.00364054
0.00355451
0.00337477
0.00317146
0.00296187
0.00275693
0.00256523
0.00239238
0.00224128
0.00211261
0.00200539
0.00191738
0.00184518
0.0017842
0.00172874
0.00166969
0.00159475
0.00149195
0.0013587
0.00121062
0.00107874
0.000996484
0.00535175
0.00522548
0.00496519
0.00467013
0.00436496
0.00406383
0.00377735
0.00351238
0.00327292
0.00306077
0.00287618
0.0027179
0.00258288
0.0024659
0.00235954
0.002253
0.00213553
0.00199276
0.00181279
0.00160238
0.00139722
0.00125648
0.00797369
0.00779582
0.00743206
0.00701853
0.00658757
0.00615534
0.00573326
0.00532874
0.00494699
0.00459211
0.00426776
0.00397685
0.00372024
0.00349491
0.00329255
0.00310027
0.00290344
0.00268757
0.00243832
0.00215266
0.00186154
0.00164658
0.0119477
0.0117054
0.011218
0.010663
0.0100771
0.0094745
0.00886455
0.00825386
0.00764924
0.00705914
0.00649418
0.00596617
0.00548566
0.00505815
0.00467973
0.00433555
0.00400325
0.00366154
0.00329649
0.00290369
0.00250674
0.00220228
0.0178702
0.0175507
0.0169305
0.016223
0.0154602
0.0146461
0.013783
0.012875
0.0119318
0.0109699
0.0100124
0.00908693
0.00822142
0.00743835
0.00674694
0.00613741
0.00557964
0.00503569
0.00448237
0.00392081
0.00337729
0.00296017
0.0265269
0.0261305
0.0253896
0.0245412
0.0235943
0.0225287
0.0213314
0.0200023
0.0185574
0.0170282
0.015459
0.0139029
0.0124153
0.0110461
0.00982835
0.00876857
0.00783703
0.0069751
0.00613189
0.00530529
0.00454081
0.00396978
0.038951
0.0384902
0.0376753
0.0367352
0.0356234
0.0342706
0.0326373
0.0307191
0.0285459
0.0261752
0.0236862
0.0211714
0.0187277
0.0164448
0.0143915
0.0126037
0.0110655
0.00970427
0.00842671
0.00720158
0.00609894
0.00530401
0.0564827
0.0559909
0.0552031
0.0542799
0.053063
0.0513956
0.049197
0.0464617
0.0432467
0.0396544
0.0358187
0.0318922
0.0280321
0.0243846
0.0210673
0.0181583
0.0156712
0.0135338
0.0116088
0.00980469
0.00819805
0.00707011
0.0808598
0.0804034
0.0798274
0.079119
0.0779186
0.0759235
0.0729927
0.0691285
0.0644391
0.0591009
0.053333
0.0473762
0.0414746
0.035852
0.0306905
0.0261233
0.0222078
0.0188916
0.0160039
0.0133705
0.0110388
0.00942004
0.114362
0.114058
0.114005
0.113842
0.112872
0.110557
0.106673
0.10125
0.0944895
0.0866859
0.0781874
0.069363
0.060577
0.0521583
0.0443727
0.0374228
0.0314238
0.0263621
0.0220551
0.018238
0.0148875
0.0125699
0.160028
0.160069
0.161047
0.161954
0.161546
0.158948
0.15381
0.146238
0.136587
0.125339
0.113031
0.100211
0.0874074
0.0750867
0.0636237
0.0533099
0.0443345
0.0367429
0.0303666
0.0248604
0.0200956
0.0168096
0.221983
0.222671
0.225457
0.22824
0.228873
0.226068
0.219271
0.208748
0.195103
0.179097
0.161534
0.143206
0.124853
0.107127
0.0905458
0.0755201
0.0623388
0.0511298
0.0417681
0.0338506
0.0271195
0.022492
0.305934
0.307722
0.31346
0.319281
0.321685
0.318759
0.309775
0.295249
0.276162
0.253664
0.228922
0.203044
0.177057
0.151852
0.128148
0.106527
0.0874183
0.071067
0.0574249
0.0460629
0.0365907
0.0301286
0.419634
0.423173
0.433484
0.443964
0.449154
0.446278
0.434475
0.414633
0.388261
0.357031
0.32257
0.286403
0.249927
0.214371
0.180742
0.149874
0.122407
0.0987532
0.0789867
0.0626961
0.0493758
0.0403976
0.573632
0.579824
0.596929
0.614289
0.623713
0.621187
0.605889
0.579162
0.543238
0.500427
0.452931
0.402804
0.35195
0.302069
0.254594
0.210738
0.171455
0.137408
0.108862
0.0854866
0.0667072
0.0542409
0.781617
0.791668
0.818502
0.845683
0.86131
0.859746
0.840379
0.805046
0.756892
0.698976
0.634192
0.565279
0.494832
0.425224
0.358501
0.296435
0.240457
0.191616
0.150477
0.116893
0.0903056
0.0729466
1.06103
1.07652
1.11685
1.15766
1.18224
1.18285
1.15922
1.1136
1.05018
0.972859
0.885379
0.791391
0.69445
0.597872
0.504563
0.417103
0.337631
0.267794
0.208642
0.160365
0.122573
0.0982926
1.43297
1.45593
1.51452
1.57396
1.61152
1.61666
1.58946
1.5322
1.45013
1.34814
1.23107
1.10384
0.971355
0.838244
0.708596
0.586096
0.473899
0.374548
0.289855
0.22059
0.166774
0.132688
1.92223
1.95529
2.03828
2.12312
2.17977
2.19388
2.16501
2.09523
1.99066
1.85739
1.70184
1.53076
1.35097
1.16891
0.990279
0.820234
0.663259
0.523131
0.402775
0.30391
0.227367
0.179422
2.55718
2.60379
2.71926
2.83888
2.92342
2.95335
2.92614
2.84318
2.71129
2.53828
2.33288
2.10442
1.86239
1.61577
1.37241
1.13935
0.922677
0.727656
0.55866
0.418835
0.310479
0.24306
3.36962
3.43437
3.59287
3.75969
3.88385
3.93846
3.91686
3.81941
3.65358
3.42992
3.16049
2.85816
2.53595
2.20612
1.87938
1.5651
1.27127
1.00471
0.771417
0.576424
0.424417
0.329963
4.39355
4.48248
4.69743
4.92682
5.10438
5.19326
5.18018
5.06495
4.85579
4.56759
4.21716
3.82204
3.39957
2.96593
2.53513
2.11941
1.72893
1.37222
1.05687
0.790065
0.579906
0.448746
5.66213
5.78293
6.07069
6.38005
6.62506
6.75596
6.75184
6.61185
6.34629
5.97646
5.52569
5.01748
4.47419
3.91606
3.36044
2.82252
2.31497
1.84826
1.43166
1.07468
0.789812
0.610498
7.20373
7.36596
7.74502
8.15179
8.47576
8.65231
8.65274
8.47586
8.13663
7.66502
7.093
6.45143
5.76816
5.06729
4.36883
3.69029
3.04656
2.45024
1.9127
1.4462
1.06883
0.828857
9.03415
9.24854
9.73718
10.255
10.6628
10.8811
10.8749
10.6432
10.2092
9.61376
8.89978
8.10677
7.26846
6.41223
5.55948
4.72843
3.93483
3.19279
2.51611
1.92093
1.43288
1.11982
11.1514
11.4283
12.0401
12.6722
13.1562
13.4011
13.3689
13.0591
12.5069
11.7666
10.8934
9.93651
8.93573
7.92093
6.91327
5.92927
4.98275
4.08709
3.25791
2.51669
1.89975
1.50243
13.526
13.8724
14.6074
15.3353
15.8658
16.1066
16.0207
15.607
14.9163
14.0162
12.9756
11.8536
10.6956
9.53326
8.38595
7.26584
6.18089
5.13886
4.15411
3.25478
2.49274
1.99978
16.1026
16.5184
17.3484
18.1123
18.6244
18.811
18.637
18.0994
17.26
16.1997
15
13.729
12.4371
11.1571
9.90564
8.68905
7.50529
6.3483
5.22354
4.16627
3.25156
2.65864
18.8072
19.2837
20.1265
20.7933
21.1691
21.2329
20.9377
20.2714
19.295
18.0982
16.772
15.3916
14.0116
12.6653
11.3677
10.1203
8.90974
7.70505
6.4879
5.3106
4.2672
3.5969
21.5783
22.0834
22.7528
23.0739
23.14
23.0049
22.5735
21.8029
20.7348
19.458
18.0678
16.644
15.2436
13.9019
12.6348
11.4436
10.3059
9.16601
7.99389
6.82454
5.7592
5.03604
24.3757
24.7783
24.8366
24.412
24.0256
23.6574
23.1341
22.3397
21.2752
20.0171
18.6601
17.2867
15.9535
14.6984
13.545
12.5028
11.5558
10.6476
9.75713
8.94005
8.28566
7.92912
26.9664
26.9333
25.483
24.1147
23.3061
22.8402
22.3835
21.7093
20.7753
19.6483
18.4238
17.1863
15.9997
14.9066
13.9386
13.1213
12.4678
11.9736
11.7073
11.8833
12.6709
13.9975
0.00517635
0.0362857
0.0509258
0.0486938
0.0483525
0.0505471
0.0539654
0.0823901
0.132062
0.152369
0.569772
4.28743
8.05534
10.8308
12.6991
13.8332
14.4023
14.5553
14.4251
14.0963
13.683
13.2344
12.7783
12.3318
11.9091
11.5241
11.1866
10.8982
10.6511
10.4315
10.2288
10.0413
9.87173
9.72181
9.58978
9.47251
9.3697
9.28434
9.22253
9.19197
9.19546
9.23187
9.31786
9.45392
9.63363
9.84321
10.066
10.2863
10.4903
10.6659
10.8038
10.9003
10.9554
10.9722
10.9497
10.8819
10.78
10.6527
10.5103
10.3615
10.209
10.0512
9.88322
9.7001
9.50455
9.31288
9.13759
8.98241
8.8466
8.72672
8.61905
8.52147
8.43377
8.3569
8.29167
8.2383
8.19689
8.16875
8.15759
8.16286
8.1866
8.23596
8.30727
8.39428
8.49107
8.59297
8.69695
8.80387
8.92064
9.06054
9.23358
9.41672
9.57176
9.66184
9.68694
9.68069
9.67839
9.68733
9.70516
9.72559
9.73785
9.73168
9.69614
9.63597
9.54947
9.44033
9.32551
9.30477
9.70563
12.6246
23.9835
24.5569
22.5555
21.1088
20.5108
20.3634
20.2445
19.8747
19.2067
18.3201
17.3206
16.2998
15.3272
14.4547
13.7218
13.1599
12.8225
12.7844
13.1925
14.5519
17.6063
21.5436
31.1365
26.5744
22.738
19.6525
17.6467
16.3053
15.2845
14.4705
13.8771
13.5214
13.3787
13.3832
13.4435
13.4956
13.4894
13.397
13.2319
13.0164
12.7644
12.4753
12.1508
11.7977
11.4325
11.0763
10.7505
10.4651
10.2197
10.0092
9.82551
9.6615
9.52112
9.40661
9.31653
9.25025
9.2075
9.18727
9.18483
9.18793
9.19089
9.1832
9.15529
9.11426
9.06361
9.0001
8.92401
8.83719
8.7534
8.68923
8.65298
8.64287
8.64386
8.64743
8.65297
8.66243
8.68143
8.7158
8.77304
8.85825
8.97077
9.10477
9.24968
9.39261
9.52063
9.62303
9.69267
9.72541
9.72184
9.67788
9.602
9.50543
9.39878
9.29095
9.18935
9.09983
9.02572
8.96826
8.92843
8.90941
8.91144
8.92953
8.96701
9.01896
9.08169
9.15239
9.22679
9.30015
9.36911
9.43179
9.48723
9.53491
9.57516
9.60934
9.63834
9.6616
9.67756
9.68753
9.69606
9.70704
9.72629
9.75953
9.81482
9.89717
10.0164
10.1956
10.4752
10.9479
11.8435
13.6646
17.4849
25.5335
0.00119668
0.00215668
0.00298028
0.00370588
0.00436025
0.00558418
0.00761856
0.0117601
0.0232502
0.0354906
0.290836
3.60686
7.37374
10.2267
12.1947
13.4293
14.0894
14.3186
14.2504
13.9775
13.6114
13.2013
12.7749
12.3517
11.9505
11.5888
11.2757
11.0089
10.7759
10.5623
10.3581
10.1632
9.98256
9.82042
9.67652
9.54955
9.44098
9.35452
9.29455
9.26688
9.27089
9.30708
9.39035
9.52212
9.69498
9.89442
10.1048
10.3128
10.5069
10.6755
10.8077
10.9002
10.9478
10.9587
10.9292
10.8602
10.7542
10.6278
10.489
10.3443
10.1967
10.043
9.87578
9.69111
9.49627
9.30806
9.13897
8.99148
8.86228
8.74757
8.64415
8.55005
8.4656
8.39264
8.33178
8.28169
8.24109
8.2112
8.19717
8.20026
8.21823
8.26214
8.32693
8.40403
8.4879
8.57643
8.66969
8.77104
8.89022
9.03802
9.21485
9.39758
9.53965
9.60658
9.61178
9.59379
9.59595
9.62068
9.66066
9.69802
9.7172
9.70676
9.66217
9.58761
9.48997
9.37151
9.24823
9.1967
9.42536
10.85
13.8387
15.3688
15.7807
15.9689
16.3725
16.8825
17.2238
17.2236
16.8736
16.2683
15.5304
14.7577
14.0254
13.3903
12.8984
12.5958
12.5405
12.7938
13.5289
15.0146
17.4721
20.5312
25.9006
25.5045
22.3729
19.6114
17.639
16.3079
15.3283
14.5479
13.9414
13.5321
13.3257
13.2834
13.3185
13.3721
13.3847
13.3217
13.1903
13.0054
12.7762
12.5067
12.198
11.8558
11.4951
11.1388
10.8122
10.5309
10.2947
10.0941
9.91872
9.76307
9.62548
9.50656
9.40875
9.33325
9.2808
9.25126
9.24008
9.23654
9.23196
9.21927
9.19407
9.15022
9.09427
9.02614
8.94469
8.85359
8.76543
8.69595
8.65598
8.6451
8.64838
8.65332
8.65932
8.66988
8.69069
8.72484
8.78246
8.86858
8.98065
9.11362
9.25777
9.40072
9.52965
9.63365
9.70656
9.73789
9.73115
9.6884
9.60946
9.51233
9.40732
9.30234
9.20389
9.11702
9.04446
8.98766
8.94957
8.93568
8.94171
8.96044
8.99335
9.04553
9.11021
9.18358
9.26102
9.33827
9.41245
9.48138
9.54337
9.59646
9.63939
9.67299
9.6994
9.72065
9.73463
9.74193
9.74754
9.7567
9.774
9.80101
9.85019
9.92632
10.0428
10.2219
10.5017
10.9736
11.8589
13.6626
17.3193
23.132
0.00100161
0.0010488
0.00107853
0.00111271
0.00113996
0.00116389
0.00119522
0.00124434
0.00133319
0.00151215
0.0381985
1.44939
4.99935
7.99766
10.2285
11.7556
12.693
13.1635
13.2933
13.2013
12.9693
12.6639
12.3163
11.9532
11.6016
11.2862
11.0188
10.7938
10.5928
10.3975
10.1986
9.99821
9.8061
9.62982
9.47016
9.32611
9.20033
9.09779
9.02251
8.97764
8.96578
8.98216
9.03925
9.14007
9.27883
9.44243
9.618
9.79641
9.97027
10.1301
10.2619
10.3567
10.4127
10.4323
10.4155
10.3582
10.2723
10.1677
10.0531
9.93389
9.81062
9.67811
9.52754
9.35511
9.17014
8.99157
8.83295
8.69475
8.57089
8.45699
8.35138
8.25356
8.16531
8.08967
8.02743
7.97604
7.93243
7.89654
7.87241
7.86596
7.87532
7.9063
7.95435
8.01076
8.06987
8.13116
8.19767
8.2761
8.38189
8.53092
8.72215
8.92163
9.06992
9.12633
9.10682
9.06175
9.05394
9.08591
9.14543
9.20184
9.23226
9.22654
9.17799
9.09927
8.99774
8.87439
8.73774
8.62078
8.62566
9.01732
10.056
10.905
11.5318
12.1392
12.8622
13.6294
14.1975
14.4203
14.3132
13.9361
13.4212
12.8674
12.3497
11.9294
11.6484
11.5539
11.687
12.1572
13.0581
14.4431
16.3199
17.9314
19.8326
20.8685
20.2514
18.5502
16.9503
15.7557
14.86
14.1536
13.5546
13.0775
12.7692
12.6313
12.6255
12.672
12.7178
12.7176
12.6526
12.535
12.3715
12.1622
11.9049
11.6015
11.2639
10.9185
10.5948
10.3126
10.0745
9.87211
9.69538
9.53861
9.39984
9.27889
9.17659
9.09304
9.02855
8.98433
8.9576
8.94022
8.92451
8.90463
8.87772
8.83892
8.78666
8.72015
8.63914
8.54684
8.45446
8.37725
8.32623
8.30179
8.29255
8.28573
8.27888
8.27838
8.2883
8.31612
8.3652
8.43808
8.5348
8.65225
8.78362
8.91933
9.04809
9.15868
9.24136
9.28838
9.2983
9.27069
9.20853
9.12483
9.03044
8.93437
8.84296
8.76057
8.68961
8.63183
8.59085
8.57299
8.57595
8.59395
8.62774
8.67815
8.74417
8.822
8.90591
8.9908
9.07372
9.15238
9.22415
9.28542
9.3327
9.36518
9.38531
9.39581
9.39799
9.39123
9.38328
9.38193
9.38928
9.41036
9.44953
9.5144
9.62105
9.79449
10.0711
10.5247
11.3348
12.8904
15.7778
19.468
0.000999334
0.000998195
0.000999595
0.00100008
0.00100082
0.00100271
0.00100595
0.00101255
0.00102626
0.00106608
0.00140662
0.113672
1.80268
4.56311
6.94311
8.76956
10.0537
10.8651
11.3031
11.475
11.4679
11.3323
11.1143
10.8487
10.5702
10.3093
10.0839
9.89309
9.72074
9.5494
9.36997
9.18332
8.99829
8.82425
8.66374
8.51523
8.37918
8.25927
8.15966
8.08349
8.0331
8.01011
8.01649
8.05854
8.13608
8.24115
8.365
8.50143
8.64706
8.7957
8.93437
9.04967
9.13421
9.18652
9.20595
9.19273
9.1499
9.09004
9.02142
8.94818
8.86912
8.77794
8.66587
8.5287
8.37399
8.21854
8.07588
7.94735
7.82657
7.70925
7.59521
7.48582
7.38399
7.29375
7.21722
7.15264
7.09658
7.04756
7.00774
6.98179
6.97309
6.98081
7.00483
7.03795
7.07463
7.11312
7.15585
7.20821
7.28864
7.41948
7.60902
7.82776
8.01258
8.10949
8.11216
8.06163
8.02229
8.02856
8.06944
8.11843
8.1493
8.15066
8.11893
8.05784
7.97619
7.87511
7.75572
7.62498
7.52885
7.62156
8.1943
8.90433
9.52869
10.0188
10.5535
11.1838
11.7231
12.0043
12.0026
11.7657
11.3976
11.0002
10.6469
10.389
10.2646
10.3028
10.5563
11.0934
11.9901
13.2327
14.6941
15.8499
16.4903
16.9497
16.9457
16.3365
15.3985
14.5024
13.7316
13.093
12.5267
12.0368
11.673
11.4559
11.3799
11.3898
11.434
11.4681
11.4634
11.4097
11.3169
11.1819
10.9982
10.763
10.479
10.1684
9.85891
9.57237
9.31764
9.09422
8.89833
8.7271
8.57978
8.45564
8.35307
8.26985
8.2031
8.15317
8.11909
8.096
8.07746
8.05821
8.03497
8.00354
7.96001
7.90211
7.83009
7.74659
7.65991
7.5818
7.52219
7.48349
7.45711
7.43272
7.40504
7.37863
7.36184
7.36039
7.37566
7.41113
7.46789
7.54586
7.64263
7.75321
7.86984
7.98249
8.08041
8.15414
8.1979
8.20854
8.18667
8.13566
8.06646
7.98809
7.9081
7.83182
7.76272
7.70346
7.65751
7.62975
7.62293
7.63107
7.6557
7.69734
7.75731
7.83368
7.92068
8.01099
8.09985
8.18424
8.26076
8.325
8.37313
8.40371
8.41863
8.4209
8.41273
8.39557
8.37628
8.36214
8.35934
8.36824
8.39538
8.44552
8.53267
8.68157
8.92623
9.31517
9.96168
11.0865
12.9596
15.1557
0.000999027
0.000995139
0.000991777
0.000988988
0.000986931
0.000985141
0.000984212
0.000985074
0.000988566
0.000997646
0.00102528
0.00155691
0.0733841
1.03022
3.11973
5.02725
6.56721
7.70362
8.47622
8.95979
9.22753
9.33118
9.30865
9.19064
9.02318
8.8404
8.66636
8.51028
8.36575
8.22245
8.07407
7.91944
7.76173
7.60826
7.46338
7.32719
7.19861
7.07809
6.9678
6.8705
6.78888
6.72522
6.6825
6.6644
6.67321
6.71161
6.7749
6.86027
6.96626
7.08992
7.22274
7.35176
7.4648
7.55429
7.61637
7.64965
7.65683
7.64702
7.62776
7.60527
7.57757
7.53753
7.47642
7.38844
7.27767
7.15706
7.03976
6.92985
6.82277
6.714
6.6032
6.49235
6.38449
6.28363
6.19284
6.11224
6.03954
5.97281
5.91251
5.86156
5.82356
5.80067
5.79239
5.79597
5.80887
5.82795
5.85355
5.88891
5.94649
6.04796
6.21043
6.41968
6.62479
6.77386
6.83609
6.8223
6.77249
6.74268
6.74664
6.77042
6.79092
6.79637
6.78505
6.75251
6.70359
6.6413
6.56986
6.49587
6.44771
6.53045
6.99284
7.59392
8.04914
8.35437
8.73693
9.28065
9.79889
10.1034
10.1481
9.98833
9.71241
9.42429
9.19148
9.05316
9.03163
9.14243
9.4276
9.92724
10.7041
11.7751
12.9249
13.8495
14.3026
14.4544
14.4095
14.1836
13.7302
13.1485
12.5326
11.9362
11.3737
10.8749
10.481
10.1989
10.0239
9.94301
9.92764
9.93828
9.94673
9.93243
9.89031
9.81705
9.70235
9.54092
9.32766
9.07596
8.80574
8.53708
8.28275
8.04867
7.83868
7.65433
7.49674
7.3649
7.2561
7.16663
7.09305
7.03412
6.99056
6.96141
6.94311
6.93044
6.9177
6.89851
6.86704
6.82011
6.75818
6.68394
6.60359
6.52629
6.46149
6.41391
6.37923
6.34714
6.30931
6.26591
6.22337
6.18845
6.16517
6.15564
6.16166
6.18723
6.23304
6.29937
6.38328
6.47779
6.573
6.65887
6.72748
6.77324
6.7914
6.78269
6.74847
6.69689
6.63571
6.57185
6.51033
6.45466
6.40772
6.37238
6.35111
6.34361
6.34826
6.36815
6.40489
6.46014
6.53142
6.61224
6.69623
6.77863
6.85511
6.92034
6.9708
7.00529
7.02491
7.03152
7.02844
7.01748
7.00354
6.99193
6.98847
6.99543
7.0179
7.05783
7.12404
7.23469
7.41637
7.70212
8.14962
8.85619
9.94037
11.2169
0.000999408
0.000995668
0.000991402
0.000987513
0.000983998
0.000980701
0.000977725
0.000975956
0.000975902
0.000977898
0.000983201
0.000990956
0.00114979
0.0136625
0.272061
1.42719
2.89382
4.18659
5.20895
5.96853
6.5076
6.86449
7.06808
7.14788
7.13909
7.07455
6.98923
6.90122
6.81413
6.72519
6.63096
6.52946
6.41905
6.3033
6.18696
6.07313
5.96258
5.85521
5.75144
5.6526
5.5608
5.47833
5.40796
5.35268
5.31582
5.29966
5.30565
5.33733
5.39388
5.47541
5.5783
5.69387
5.81091
5.91876
6.00932
6.07785
6.12375
6.15151
6.16882
6.18274
6.19369
6.19481
6.18088
6.1414
6.07678
5.9955
5.90932
5.82533
5.74263
5.65718
5.56687
5.47223
5.3755
5.27987
5.18834
5.10212
5.02041
4.94206
4.8672
4.79776
4.73676
4.68705
4.64987
4.62473
4.6101
4.60473
4.60849
4.62557
4.66197
4.73258
4.85429
5.02582
5.21236
5.37505
5.4846
5.5207
5.50263
5.4648
5.44335
5.4458
5.45811
5.46744
5.46821
5.45884
5.43729
5.40821
5.38285
5.37899
5.41714
5.55355
5.91879
6.33261
6.58714
6.78638
7.19486
7.80621
8.36982
8.69964
8.7676
8.6543
8.45066
8.25695
8.1264
8.07877
8.11537
8.24911
8.49271
8.87692
9.44589
10.2249
11.1067
11.8901
12.4022
12.6251
12.6437
12.5589
12.3302
11.9624
11.4876
10.9475
10.3909
9.88075
9.46087
9.1277
8.86709
8.67975
8.56372
8.5034
8.47444
8.45452
8.43042
8.39185
8.32604
8.22226
8.07469
7.88894
7.67841
7.45805
7.23803
7.02359
6.82078
6.63756
6.4789
6.34509
6.23204
6.13432
6.0481
5.97291
5.91121
5.86535
5.83527
5.81803
5.80779
5.79609
5.77439
5.73739
5.68439
5.6178
5.54231
5.46487
5.39413
5.33693
5.29454
5.26006
5.2237
5.18016
5.13048
5.07964
5.03284
4.99368
4.96448
4.9478
4.94656
4.96454
5.0037
5.06102
5.12944
5.2
5.26482
5.31851
5.35565
5.37172
5.36704
5.34355
5.30556
5.25985
5.2122
5.16631
5.12468
5.08827
5.05832
5.0359
5.02139
5.01547
5.02066
5.04182
5.07799
5.12651
5.18332
5.24511
5.30913
5.37036
5.42511
5.47102
5.50654
5.53172
5.54727
5.55592
5.56128
5.56739
5.5785
5.59797
5.62742
5.6681
5.7243
5.80683
5.93341
6.12612
6.41171
6.82543
7.41723
8.12781
0.000999256
0.000994992
0.000990462
0.000986244
0.000982311
0.000978704
0.000975645
0.000973122
0.000971023
0.000969833
0.00097023
0.000971988
0.000975035
0.00098669
0.00151406
0.0209416
0.234528
0.954465
1.99665
2.87634
3.59701
4.15639
4.56731
4.84507
5.01417
5.10586
5.15317
5.18121
5.2
5.20858
5.20484
5.18391
5.14322
5.0846
5.01242
4.93231
4.84805
4.76162
4.67416
4.58687
4.50147
4.4199
4.34453
4.27767
4.22168
4.1789
4.15127
4.14134
4.15053
4.18571
4.24324
4.31961
4.40877
4.50289
4.59388
4.67498
4.74166
4.79326
4.833
4.86613
4.89566
4.91917
4.92999
4.92318
4.89582
4.85038
4.79507
4.73725
4.67932
4.6197
4.5561
4.48747
4.41422
4.33791
4.26029
4.18232
4.10406
4.02549
3.94764
3.87272
3.80345
3.74229
3.69042
3.64784
3.61399
3.58847
3.57176
3.56641
3.57733
3.61761
3.69581
3.81582
3.95925
4.09805
4.21047
4.27914
4.30082
4.29372
4.28101
4.28197
4.29435
4.30698
4.31354
4.31265
4.30604
4.29588
4.29743
4.3341
4.42634
4.58559
4.8677
5.15628
5.33695
5.58461
6.13565
6.85007
7.43793
7.75521
7.81976
7.73783
7.60665
7.50705
7.46667
7.4814
7.54359
7.6475
7.80165
8.0281
8.36083
8.83065
9.4165
10.0266
10.547
10.9061
11.0967
11.1348
11.0522
10.8202
10.457
9.99549
9.48673
8.99615
8.56985
8.20987
7.90648
7.6625
7.47952
7.3509
7.26385
7.20406
7.15935
7.11916
7.07096
7.00112
6.90059
6.7709
6.62119
6.46126
6.29472
6.12058
5.94268
5.77303
5.62383
5.49866
5.39213
5.29618
5.20559
5.12013
5.0432
4.97867
4.92854
4.8925
4.86771
4.84793
4.82476
4.79093
4.74307
4.68209
4.6113
4.53567
4.46163
4.39535
4.34093
4.29742
4.25892
4.21965
4.17584
4.1268
4.07503
4.02449
3.9783
3.93882
3.90886
3.89206
3.8912
3.90889
3.94108
3.9807
4.02155
4.0589
4.08909
4.10863
4.11146
4.10482
4.08521
4.05647
4.02358
3.98968
3.95711
3.92564
3.89531
3.86693
3.8417
3.82084
3.80596
3.79928
3.80259
3.81714
3.8381
3.86473
3.89725
3.93691
3.98423
4.03585
4.08576
4.12995
4.16689
4.19697
4.22273
4.24809
4.27693
4.31199
4.35386
4.40246
4.45933
4.53036
4.626
4.75984
4.94451
5.19039
5.51543
5.90753
0.000999265
0.000995153
0.000990643
0.000986292
0.00098211
0.000978139
0.00097442
0.000971035
0.000968133
0.000965906
0.000964455
0.000963619
0.000963037
0.000962413
0.00096113
0.000968839
0.00125127
0.00785467
0.0785926
0.335925
0.918159
1.54535
2.05643
2.47338
2.79097
3.03514
3.24684
3.44465
3.62452
3.77668
3.89493
3.97644
4.02007
4.0287
4.01224
3.97506
3.9247
3.86566
3.80092
3.73285
3.66371
3.59545
3.52988
3.46861
3.41303
3.36452
3.32481
3.29579
3.27906
3.27618
3.28974
3.32026
3.36527