/*--------------------------------*- C++ -*----------------------------------*\
  =========                 |
  \\      /  F ield         | OpenFOAM: The Open Source CFD Toolbox
   \\    /   O peration     | Website:  https://openfoam.org
    \\  /    A nd           | Version:  7
     \\/     M anipulation  |
\*---------------------------------------------------------------------------*/
FoamFile
{
    version     2.0;
    format      ascii;
    class       volScalarField;
    location    "450";
    object      nut;
}
// * * * * * * * * * * * * * * * * * * * * * * * * * * * * * * * * * * * * * //

dimensions      [0 2 -1 0 0 0 0];

internalField   nonuniform List<scalar> 
96800
(
0.000139667
0.000139642
0.000139602
0.000139536
0.000139468
0.000139401
0.000139338
0.000139286
0.000139246
0.000139219
0.000139204
0.000139205
0.00013922
0.000139249
0.000139292
0.00013935
0.000139414
0.000139481
0.000139544
0.000139593
0.00013961
0.000139559
0.000139642
0.00013957
0.000139519
0.000139453
0.000139382
0.000139312
0.000139248
0.000139194
0.000139151
0.000139122
0.000139108
0.000139109
0.000139125
0.000139155
0.0001392
0.000139256
0.000139321
0.00013939
0.000139456
0.00013951
0.000139543
0.000139548
0.000139628
0.000139546
0.000139484
0.00013941
0.000139332
0.000139257
0.000139189
0.000139131
0.000139087
0.000139056
0.000139041
0.000139042
0.000139058
0.000139089
0.000139133
0.00013919
0.000139257
0.000139329
0.0001394
0.000139465
0.000139518
0.000139559
0.000139611
0.000139524
0.000139453
0.000139371
0.000139286
0.000139204
0.00013913
0.000139068
0.00013902
0.000138988
0.000138972
0.000138972
0.000138989
0.000139019
0.000139064
0.000139122
0.00013919
0.000139266
0.000139344
0.000139418
0.000139485
0.000139542
0.000139596
0.000139506
0.000139429
0.000139339
0.000139246
0.000139156
0.000139075
0.000139008
0.000138957
0.000138923
0.000138906
0.000138907
0.000138923
0.000138954
0.000138999
0.000139058
0.000139129
0.000139209
0.000139292
0.000139374
0.000139449
0.000139512
0.000139586
0.000139494
0.000139411
0.000139314
0.000139213
0.000139116
0.000139028
0.000138955
0.000138901
0.000138865
0.000138848
0.000138848
0.000138864
0.000138896
0.000138942
0.000139003
0.000139076
0.000139159
0.000139247
0.000139335
0.000139415
0.000139482
0.000139583
0.000139488
0.0001394
0.000139297
0.000139188
0.000139083
0.000138989
0.000138912
0.000138855
0.000138817
0.000138798
0.000138798
0.000138815
0.000138846
0.000138894
0.000138956
0.000139031
0.000139118
0.000139211
0.000139304
0.00013939
0.000139459
0.000139586
0.000139489
0.000139397
0.000139287
0.000139172
0.000139061
0.000138962
0.00013888
0.000138819
0.000138779
0.000138759
0.000138759
0.000138776
0.000138808
0.000138856
0.00013892
0.000139
0.000139091
0.000139189
0.000139287
0.000139377
0.000139449
0.000139596
0.000139497
0.000139401
0.000139286
0.000139165
0.000139048
0.000138945
0.00013886
0.000138796
0.000138754
0.000138732
0.000138731
0.000138748
0.000138781
0.000138831
0.000138898
0.000138982
0.000139078
0.000139181
0.000139284
0.000139379
0.000139455
0.000139614
0.000139513
0.000139414
0.000139294
0.000139168
0.000139047
0.000138939
0.000138851
0.000138784
0.00013874
0.000138717
0.000138715
0.000138732
0.000138766
0.000138818
0.000138889
0.000138976
0.000139078
0.000139187
0.000139296
0.000139395
0.000139474
0.000139639
0.000139537
0.000139435
0.000139312
0.000139181
0.000139055
0.000138944
0.000138852
0.000138782
0.000138736
0.000138711
0.000138708
0.000138725
0.000138761
0.000138816
0.000138891
0.000138984
0.000139092
0.000139209
0.000139324
0.000139428
0.00013951
0.000139671
0.000139568
0.000139464
0.000139337
0.000139203
0.000139073
0.000138957
0.000138862
0.00013879
0.000138741
0.000138714
0.00013871
0.000138728
0.000138766
0.000138825
0.000138905
0.000139006
0.000139122
0.000139246
0.000139369
0.000139479
0.000139564
0.000139707
0.000139603
0.000139497
0.000139368
0.00013923
0.000139097
0.000138978
0.000138881
0.000138806
0.000138756
0.000138728
0.000138723
0.000138742
0.000138783
0.000138847
0.000138934
0.000139042
0.000139167
0.000139301
0.000139432
0.000139548
0.000139638
0.000139741
0.000139636
0.000139529
0.000139398
0.000139258
0.000139123
0.000139003
0.000138904
0.000138829
0.000138778
0.000138751
0.000138746
0.000138768
0.000138813
0.000138883
0.000138977
0.000139095
0.00013923
0.000139373
0.000139514
0.000139638
0.000139731
0.00013976
0.000139656
0.000139549
0.000139418
0.000139279
0.000139145
0.000139026
0.000138929
0.000138856
0.000138808
0.000138783
0.000138781
0.000138807
0.000138859
0.000138936
0.000139039
0.000139167
0.000139312
0.000139467
0.000139617
0.000139749
0.000139847
0.000139746
0.000139643
0.000139538
0.00013941
0.000139276
0.000139147
0.000139035
0.000138946
0.000138881
0.000138841
0.000138823
0.000138828
0.000138861
0.000138921
0.000139008
0.000139122
0.00013926
0.000139418
0.000139584
0.000139745
0.000139884
0.000139987
0.000139667
0.000139567
0.000139467
0.000139347
0.000139223
0.000139108
0.000139012
0.000138939
0.000138891
0.000138867
0.000138866
0.000138883
0.000138928
0.000139003
0.000139102
0.000139229
0.00013938
0.00013955
0.000139729
0.0001399
0.000140047
0.000140156
0.000139472
0.000139377
0.000139288
0.000139184
0.000139081
0.00013899
0.000138922
0.00013888
0.000138864
0.000138871
0.000138899
0.000138941
0.000139006
0.000139101
0.000139219
0.000139362
0.00013953
0.000139715
0.000139906
0.000140089
0.000140245
0.000140359
0.000139089
0.000139003
0.000138932
0.000138854
0.000138784
0.000138735
0.000138715
0.000138724
0.00013876
0.000138819
0.000138896
0.000138981
0.00013908
0.000139209
0.000139356
0.000139524
0.000139713
0.000139916
0.000140124
0.000140319
0.000140484
0.000140604
0.000138421
0.000138347
0.000138305
0.000138266
0.000138247
0.00013826
0.000138311
0.000138399
0.000138519
0.00013866
0.000138817
0.00013897
0.000139127
0.00013931
0.000139504
0.00013971
0.00013993
0.00014016
0.000140389
0.0001406
0.000140776
0.000140903
0.000137355
0.000137297
0.000137294
0.000137309
0.000137359
0.000137458
0.000137611
0.000137813
0.000138052
0.000138318
0.000138594
0.000138853
0.000139105
0.000139374
0.000139641
0.000139909
0.000140179
0.000140449
0.000140708
0.000140943
0.000141135
0.000141272
0.000135781
0.000135743
0.000135789
0.00013587
0.000136007
0.000136215
0.000136498
0.000136848
0.000137251
0.000137689
0.000138129
0.00013855
0.000138949
0.000139344
0.00013973
0.000140096
0.000140447
0.000140779
0.000141087
0.000141358
0.000141575
0.000141726
0.000133639
0.000133622
0.000133723
0.000133876
0.000134106
0.000134433
0.000134864
0.00013539
0.000135994
0.000136649
0.000137304
0.000137948
0.000138564
0.000139146
0.000139707
0.000140225
0.000140702
0.000141137
0.000141523
0.000141852
0.000142109
0.000142283
0.000130985
0.000130985
0.000131137
0.000131351
0.000131658
0.00013209
0.000132658
0.000133359
0.000134173
0.00013507
0.000135988
0.000136912
0.000137814
0.000138667
0.00013947
0.000140218
0.000140891
0.000141486
0.000142
0.000142423
0.000142745
0.000142956
0.000128074
0.000128079
0.00012826
0.000128495
0.000128827
0.000129303
0.000129947
0.000130766
0.000131746
0.00013286
0.000134052
0.000135286
0.000136527
0.000137737
0.000138883
0.000139946
0.000140914
0.00014176
0.000142476
0.000143052
0.000143481
0.000143753
0.000125431
0.00012542
0.000125582
0.000125761
0.000126015
0.000126409
0.000126991
0.000127786
0.000128799
0.000130016
0.000131405
0.000132916
0.000134506
0.000136124
0.000137713
0.000139222
0.000140604
0.00014183
0.000142865
0.000143689
0.000144293
0.000144663
0.000123863
0.000123805
0.000123869
0.000123875
0.000123891
0.000124008
0.0001243
0.000124824
0.000125618
0.000126697
0.000128061
0.000129685
0.000131531
0.000133534
0.000135623
0.000137704
0.000139683
0.000141472
0.000143001
0.000144224
0.000145114
0.000145649
0.000124358
0.000124215
0.000124081
0.000123764
0.000123345
0.000122933
0.000122635
0.000122545
0.000122745
0.000123299
0.000124254
0.000125634
0.00012744
0.000129641
0.000132162
0.000134888
0.000137648
0.000140264
0.000142568
0.000144439
0.000145807
0.000146619
0.000127895
0.000127626
0.000127184
0.000126388
0.000125327
0.000124124
0.000122911
0.000121821
0.000120983
0.000120519
0.000120536
0.000121123
0.000122356
0.000124284
0.000126908
0.000130138
0.000133771
0.000137501
0.000140983
0.000143911
0.000146091
0.000147379
0.000135245
0.000134814
0.000133962
0.000132554
0.000130678
0.000128465
0.000126057
0.000123614
0.000121314
0.000119338
0.000117858
0.000117031
0.000117005
0.000117927
0.000119935
0.0001231
0.000127326
0.000132267
0.000137345
0.000141911
0.00014545
0.000147566
0.000146916
0.000146293
0.000144953
0.000142835
0.000140034
0.000136673
0.000132895
0.000128868
0.000124802
0.000120935
0.000117517
0.000114777
0.000112915
0.000112123
0.000112625
0.000114687
0.000118517
0.000124048
0.000130709
0.000137438
0.000143072
0.000146566
0.000163293
0.000162448
0.000160553
0.000157654
0.000153862
0.000149301
0.000144104
0.000138433
0.000132507
0.000126602
0.000121048
0.000116146
0.000112171
0.000109305
0.000107755
0.00010778
0.000109804
0.000114281
0.000121252
0.000129792
0.000138008
0.00014353
0.000184912
0.000183801
0.000181262
0.000177488
0.000172636
0.000166848
0.000160263
0.000153034
0.000145372
0.000137557
0.000129962
0.000122924
0.000116815
0.000111919
0.000108187
0.000105907
0.000105294
0.000106997
0.000111857
0.000120071
0.000130011
0.000137745
0.000212767
0.000211315
0.000207988
0.000203177
0.000197124
0.000190026
0.000182056
0.00017338
0.000164198
0.000154763
0.000145402
0.000136488
0.000128375
0.000121399
0.000115593
0.000111086
0.000107836
0.000106207
0.000107188
0.000112088
0.000120932
0.00012965
0.000248506
0.000246607
0.000242296
0.000236215
0.000228727
0.000220119
0.000210639
0.000200494
0.000189888
0.000179036
0.000168179
0.000157602
0.00014762
0.000138526
0.000130529
0.00012368
0.00011788
0.000113161
0.000110101
0.000110152
0.000114826
0.000121904
0.000294452
0.000291992
0.000286503
0.000278903
0.000269707
0.000259311
0.00024805
0.000236192
0.000223963
0.000211553
0.000199132
0.000186874
0.000174985
0.000163692
0.000153203
0.000143633
0.000135003
0.000127266
0.000120604
0.000116007
0.000115354
0.000118609
0.000353355
0.000350252
0.000343455
0.000334166
0.000323052
0.000310608
0.000297235
0.000283243
0.000268877
0.000254331
0.000239757
0.000225284
0.000211041
0.00019717
0.000183809
0.000171096
0.000159136
0.000148005
0.00013781
0.00012914
0.000123616
0.000122589
0.000428232
0.000424438
0.000416305
0.000405285
0.000392169
0.000377508
0.000361716
0.000345092
0.000327879
0.000310288
0.000292515
0.000274748
0.000257158
0.000239883
0.000223005
0.00020659
0.000190721
0.00017555
0.000161352
0.000148692
0.000138941
0.000134183
0.000522041
0.000517532
0.000508142
0.00049548
0.000480403
0.000463443
0.00044496
0.000425189
0.000404342
0.00038265
0.000360391
0.000337889
0.000315482
0.000293452
0.000271944
0.00025097
0.000230475
0.000210522
0.00019152
0.000174342
0.00016048
0.000152508
0.000637636
0.000632461
0.000621982
0.000607858
0.000590927
0.000571621
0.000550168
0.000526702
0.000501391
0.000474494
0.000446395
0.000417589
0.000388647
0.000360118
0.000332372
0.000305515
0.00027938
0.000253789
0.000229053
0.000206399
0.000187918
0.000176824
0.000777749
0.000771989
0.000760635
0.000745276
0.000726629
0.000704912
0.000680162
0.000652384
0.000621715
0.000588471
0.000553164
0.000516482
0.000479248
0.000442321
0.00040641
0.000371902
0.000338693
0.00030636
0.000274877
0.000245599
0.000221511
0.00020696
0.000945003
0.000938749
0.000926755
0.00091042
0.000890195
0.000865966
0.00083751
0.000804707
0.000767692
0.000726885
0.000682963
0.000636833
0.000589578
0.000542366
0.000496267
0.000452072
0.000409956
0.000369425
0.000330024
0.000292913
0.000261965
0.000243286
0.00114197
0.00113532
0.00112294
0.00110592
0.00108427
0.00105738
0.00102473
0.000986073
0.000941601
0.000891896
0.000837863
0.000780664
0.000721661
0.000662319
0.000604041
0.000548037
0.000494923
0.000444381
0.000395637
0.000349417
0.000310272
0.000286592
0.00137138
0.00136443
0.00135193
0.00133456
0.00131182
0.00128204
0.00124463
0.00119915
0.00114595
0.00108585
0.00102006
0.000950061
0.000877516
0.000804183
0.000731756
0.000661823
0.000595482
0.000532827
0.000473004
0.000416257
0.000367576
0.000337978
0.00163659
0.00162949
0.00161735
0.00160004
0.0015765
0.00154374
0.0015009
0.00144748
0.00138406
0.00131185
0.00123245
0.00114772
0.00105967
0.00097034
0.000881695
0.000795639
0.000713729
0.000636601
0.000563624
0.0004947
0.00043513
0.000398866
0.00194228
0.0019352
0.0019241
0.00190771
0.00188335
0.00184804
0.0017989
0.00173622
0.00166087
0.00157457
0.00147941
0.0013777
0.00127182
0.00116415
0.00105689
0.000952232
0.000852158
0.000757896
0.000669296
0.000586195
0.000514215
0.000470391
0.00229563
0.00228885
0.00227982
0.00226551
0.0022412
0.00220334
0.00214681
0.00207339
0.00198414
0.00188142
0.00176793
0.00164648
0.00151988
0.00139086
0.00126193
0.00113558
0.0010142
0.000899633
0.000792401
0.00069263
0.000606465
0.000554264
0.00270685
0.00270079
0.00269526
0.00268457
0.00266131
0.00262095
0.00255613
0.00247035
0.00236499
0.00224317
0.00210825
0.0019636
0.00181254
0.00165823
0.00150356
0.00135144
0.00120469
0.0010658
0.00093613
0.000816469
0.000713876
0.000652398
0.00319022
0.00318544
0.00318532
0.00318025
0.00315945
0.00311647
0.0030426
0.00294272
0.00281884
0.00267483
0.00251476
0.00234261
0.00216229
0.00197752
0.00179172
0.00160835
0.0014308
0.00126227
0.00110514
0.000961254
0.000839165
0.000767207
0.00376322
0.00376039
0.00376789
0.00377069
0.00375362
0.00370806
0.00362476
0.00350919
0.00336427
0.00319465
0.00300512
0.00280032
0.00258485
0.00236313
0.00213931
0.00191756
0.00170205
0.00149688
0.00130562
0.00113166
0.000985798
0.000901593
0.00444624
0.00444614
0.00446358
0.00447659
0.0044647
0.00441647
0.00432417
0.00419156
0.00402306
0.0038241
0.00360015
0.00335664
0.00309897
0.00283248
0.00256215
0.00229313
0.00203057
0.00177972
0.00154565
0.00133382
0.0011583
0.00105924
0.0052606
0.005264
0.00529368
0.00531943
0.00531498
0.00526504
0.00516451
0.00501383
0.00481917
0.00458664
0.00432249
0.00403309
0.00372493
0.00340442
0.0030776
0.0027507
0.00243013
0.00212253
0.00183485
0.00157523
0.00136225
0.00124461
0.00622723
0.00623496
0.00627932
0.006321
0.00632753
0.00627892
0.00617127
0.00600178
0.00577815
0.00550698
0.00519558
0.00485163
0.0044831
0.00409782
0.00370308
0.00330636
0.00291536
0.00253833
0.00218436
0.00186492
0.00160456
0.00146327
0.00736552
0.00737866
0.00744073
0.00750269
0.00752502
0.00748207
0.00737027
0.00718079
0.00692466
0.00660847
0.00624112
0.00583221
0.00539173
0.00492943
0.0044542
0.00397488
0.00350042
0.00304053
0.00260647
0.00221352
0.00189389
0.00172232
0.00869217
0.00871222
0.00879605
0.00888427
0.00892898
0.00889771
0.00878381
0.00857243
0.0082786
0.00790921
0.00747547
0.00698962
0.00646427
0.00591166
0.0053427
0.00476781
0.00419709
0.00364129
0.00311341
0.00263269
0.00224051
0.00203063
0.0102189
0.0102481
0.010359
0.010481
0.0105557
0.010542
0.0104259
0.01019
0.00985123
0.00941857
0.00890655
0.00833085
0.00770733
0.00705106
0.00637533
0.00569237
0.0050134
0.00434981
0.00371566
0.00313366
0.00265559
0.00239857
0.011948
0.0119894
0.0121342
0.0122987
0.0124111
0.0124186
0.0122993
0.0120346
0.011642
0.0111345
0.0105314
0.00985295
0.00911873
0.00834685
0.00755286
0.0067508
0.005953
0.00517133
0.00442031
0.00372553
0.00314971
0.00283715
0.0138678
0.0139254
0.0141125
0.0143291
0.0144869
0.0145189
0.0143949
0.014094
0.0136371
0.0130422
0.0123353
0.011542
0.0106864
0.00978966
0.00886911
0.00794006
0.00701559
0.00610785
0.00523161
0.00441497
0.00373217
0.00335724
0.0159429
0.0160219
0.0162606
0.0165395
0.0167504
0.0168101
0.0166797
0.0163355
0.0158036
0.0151096
0.0142871
0.013369
0.0123844
0.0113576
0.0103072
0.00924877
0.00819492
0.00715734
0.0061508
0.0052061
0.00441006
0.00396848
0.0181095
0.0182155
0.0185153
0.0188673
0.0191399
0.0192319
0.0190942
0.018703
0.0180886
0.017286
0.0163394
0.01529
0.0141734
0.013017
0.0118403
0.0106577
0.00947962
0.00831544
0.00717882
0.00610355
0.00519074
0.00468059
0.020263
0.0204009
0.0207698
0.0212045
0.0215495
0.0216835
0.0215444
0.0211091
0.0204101
0.0194958
0.0184223
0.0172415
0.0159964
0.0147183
0.0134276
0.0121364
0.0108507
0.00957399
0.00831642
0.0071146
0.00608624
0.00550827
0.0222549
0.0224269
0.0228674
0.0233921
0.0238245
0.0240208
0.0239001
0.0234334
0.0226588
0.0216393
0.0204456
0.0191421
0.0177808
0.0163983
0.0150162
0.0136444
0.0122821
0.0109226
0.00956811
0.00825777
0.0071299
0.00649521
0.0238898
0.0240932
0.0245964
0.0252134
0.0257557
0.0260495
0.0259893
0.0255219
0.0246969
0.0235928
0.0222979
0.0208916
0.019437
0.0179775
0.0165376
0.0151263
0.0137356
0.0123446
0.0109458
0.0095849
0.00841215
0.00774846
0.0249427
0.0251644
0.0257038
0.0264082
0.0270979
0.027563
0.027624
0.0272195
0.0263851
0.025225
0.0238554
0.0223776
0.0208631
0.0193629
0.0179074
0.0165081
0.0151523
0.0138105
0.0124786
0.011201
0.0101298
0.009539
0.0252029
0.0254028
0.0259088
0.0266624
0.0275977
0.028318
0.0285854
0.0283053
0.0275254
0.0263725
0.0249856
0.023486
0.0219542
0.0204542
0.0190292
0.0176961
0.0164482
0.0152656
0.0141674
0.0132284
0.0125844
0.0123358
0.0244704
0.0245692
0.0250083
0.0259039
0.0271421
0.0282484
0.0288314
0.0287536
0.0280822
0.0269782
0.0256106
0.0241198
0.0226112
0.0211535
0.0198066
0.0185877
0.0175099
0.0165909
0.0158848
0.0154957
0.0154177
0.0154884
4.14194e-06
7.23696e-06
1.20176e-05
1.44465e-05
1.65923e-05
1.92672e-05
2.28479e-05
4.58993e-05
9.72049e-05
0.000123021
0.00127851
0.0164487
0.0238335
0.0269971
0.0281812
0.0283036
0.0278389
0.0270561
0.0261432
0.0250929
0.0241476
0.0232526
0.0224126
0.0216354
0.0209308
0.0203096
0.0197769
0.0193282
0.01895
0.0186259
0.0183454
0.018106
0.017908
0.017749
0.0176232
0.0175256
0.0174566
0.0174226
0.0174361
0.0175119
0.0176458
0.0178083
0.0180956
0.0185025
0.0189786
0.0194827
0.0199695
0.0204012
0.0207524
0.0210094
0.0211698
0.0212398
0.0212273
0.0211448
0.0209891
0.0207502
0.0205038
0.0202363
0.0199595
0.0196847
0.0194165
0.0191546
0.0188955
0.0186393
0.0183976
0.0181899
0.0180267
0.0179069
0.0178219
0.0177597
0.0177084
0.0176602
0.0176117
0.017564
0.0175192
0.0174787
0.017446
0.0174304
0.01744
0.0174652
0.01754
0.0176859
0.0178688
0.0180754
0.0182885
0.0184968
0.018698
0.0188995
0.0191187
0.0193766
0.0196716
0.0199619
0.0201864
0.0203052
0.0203296
0.0202928
0.0202624
0.0202418
0.0202135
0.0201647
0.0200844
0.0199622
0.0197673
0.0195269
0.0192836
0.0190388
0.0188152
0.018741
0.0190203
0.0195625
0.021488
0.0223363
0.0229294
0.0241896
0.0258898
0.0274352
0.0283632
0.0285253
0.0279977
0.0269826
0.0256779
0.0242434
0.0227976
0.0214234
0.0201742
0.0190709
0.0181997
0.0175837
0.0172047
0.01723
0.0174813
0.0176827
0.0177887
0.0167411
0.0157766
0.0150371
0.0146533
0.0145125
0.0145351
0.0147347
0.0151881
0.0159672
0.0170812
0.018401
0.0197105
0.0208592
0.0217332
0.0222703
0.0225283
0.0225655
0.0224231
0.0221382
0.0217472
0.0212875
0.0207985
0.0203176
0.0198751
0.0194851
0.0191482
0.0188575
0.0186041
0.018385
0.0182059
0.0180718
0.0179874
0.0179565
0.0179785
0.0180436
0.0181302
0.0181942
0.0182387
0.01825
0.0182067
0.0181179
0.0179977
0.0178618
0.0177264
0.0176124
0.017547
0.0175473
0.017615
0.0177372
0.0178685
0.0179832
0.0180785
0.0181453
0.0182202
0.0183337
0.0185021
0.0187211
0.0189852
0.0192725
0.0195515
0.0197899
0.0199626
0.0200558
0.0200668
0.0199978
0.0198623
0.0196457
0.0193896
0.0191489
0.0189162
0.0187064
0.0185291
0.0183913
0.0182964
0.0182468
0.0182478
0.0183092
0.0184166
0.0185193
0.0186633
0.0188501
0.0190666
0.0192855
0.0194792
0.0196395
0.0197611
0.0198435
0.0198905
0.0199087
0.0199057
0.0198904
0.0198703
0.0198509
0.0198342
0.0198205
0.0198168
0.0198295
0.0198675
0.0199431
0.0200573
0.020216
0.0204401
0.0207591
0.0212351
0.0220162
0.0233151
0.0250279
0.0263446
0.0273809
1.09117e-05
1.30765e-05
1.58979e-05
1.76591e-05
1.841e-05
2.28362e-05
3.02144e-05
2.71647e-05
3.43122e-05
4.59022e-05
0.000854304
0.0147523
0.0223487
0.0258351
0.0272744
0.027592
0.0272772
0.0266105
0.0257722
0.0247969
0.0238825
0.0230279
0.0222146
0.0214568
0.0207685
0.0201622
0.0196419
0.0192007
0.0188231
0.0184934
0.0182023
0.0179491
0.0177361
0.017563
0.0174249
0.0173172
0.0172405
0.0172001
0.0172058
0.0172739
0.0173904
0.0175297
0.0177848
0.018173
0.0186243
0.0191041
0.0195737
0.0199978
0.020351
0.0206168
0.0207922
0.0208846
0.0208827
0.0208177
0.0206662
0.0204545
0.0202173
0.0199619
0.0196982
0.0194354
0.0191779
0.0189237
0.0186682
0.0184132
0.0181722
0.0179649
0.0178021
0.0176817
0.0175943
0.0175286
0.0174741
0.0174232
0.0173735
0.0173263
0.0172832
0.0172429
0.0172033
0.017181
0.0171886
0.0172128
0.0172647
0.0173948
0.0175647
0.01776
0.0179614
0.0181575
0.0183503
0.0185482
0.0187697
0.0190324
0.0193323
0.0196259
0.0198479
0.0199522
0.0199736
0.0199421
0.0199211
0.019918
0.0199183
0.0198817
0.0198074
0.0196717
0.0194758
0.0192381
0.0189854
0.0187498
0.0185205
0.0184131
0.0186557
0.0194241
0.0195315
0.0199605
0.020904
0.0224842
0.024431
0.026218
0.0273694
0.0277302
0.0273568
0.02645
0.0252367
0.0238891
0.0225358
0.0212662
0.0201388
0.0192032
0.0185043
0.0179949
0.0178806
0.018042
0.0180821
0.018108
0.0178216
0.0169989
0.0159266
0.0151572
0.0147207
0.0145459
0.0145417
0.0146944
0.0150625
0.0157258
0.0167163
0.0179548
0.0192151
0.0203579
0.0212559
0.0218393
0.0221468
0.0222312
0.0221316
0.0218846
0.0215247
0.0210874
0.0206121
0.0201386
0.0197007
0.0193154
0.018983
0.0186949
0.0184426
0.018223
0.0180387
0.0178952
0.017799
0.0177542
0.0177611
0.0178121
0.0178874
0.0179473
0.017984
0.0179947
0.0179665
0.0178821
0.0177657
0.0176327
0.0174949
0.0173784
0.0173076
0.0172975
0.0173556
0.0174707
0.0175991
0.0177104
0.0178072
0.0178813
0.0179587
0.0180603
0.0182089
0.0184167
0.0186679
0.018944
0.0192158
0.0194531
0.0196306
0.0197337
0.0197653
0.019706
0.0195773
0.019379
0.0191281
0.0188906
0.0186643
0.018459
0.0182831
0.0181429
0.0180419
0.0179838
0.0179767
0.0180347
0.0181325
0.018231
0.0183505
0.0185303
0.0187435
0.0189635
0.0191602
0.0193293
0.0194629
0.0195565
0.0196134
0.0196385
0.019638
0.0196192
0.0195929
0.0195724
0.0195556
0.0195404
0.0195361
0.0195475
0.0195804
0.0196385
0.0197502
0.019904
0.0201337
0.0204512
0.0209185
0.0216775
0.0229485
0.024694
0.0261319
0.0268819
9.01171e-06
9.2691e-06
9.43893e-06
9.72624e-06
9.90539e-06
1.00265e-05
1.01698e-05
1.04149e-05
1.08533e-05
1.09672e-05
0.00024322
0.00791063
0.0174794
0.0221344
0.0244335
0.0253844
0.0255363
0.0252124
0.0246177
0.0238886
0.0230871
0.0223302
0.0215909
0.0208869
0.0202397
0.0196667
0.0191729
0.0187487
0.0183758
0.0180383
0.0177289
0.0174501
0.0172087
0.0170072
0.0168414
0.0167069
0.0166041
0.016537
0.0165116
0.0165368
0.0166175
0.0167192
0.0169065
0.0171971
0.0175698
0.0179813
0.0184024
0.0188038
0.0191611
0.0194532
0.0196684
0.0197993
0.0198503
0.0198322
0.0197383
0.0195666
0.0193786
0.0191652
0.0189406
0.0187128
0.0184847
0.0182532
0.0180136
0.017767
0.0175288
0.0173203
0.0171528
0.0170235
0.0169227
0.0168415
0.0167722
0.0167092
0.0166512
0.0165994
0.0165543
0.0165121
0.0164672
0.0164332
0.0164211
0.0164362
0.0164685
0.0165568
0.016687
0.0168443
0.0170105
0.0171757
0.0173436
0.0175242
0.017739
0.0180073
0.0183218
0.0186326
0.0188679
0.018986
0.0190041
0.0189886
0.0189823
0.0190007
0.0190213
0.0190099
0.0189501
0.0188385
0.0186439
0.0184286
0.0181985
0.017954
0.0177103
0.0175305
0.017569
0.018061
0.0186542
0.0191377
0.0199788
0.021287
0.0230249
0.0247968
0.0260641
0.0265576
0.0263442
0.0255577
0.0244501
0.0232064
0.0219624
0.02081
0.0198145
0.019025
0.018413
0.0181005
0.0180645
0.0182177
0.0183164
0.0180879
0.0175159
0.0167989
0.0161205
0.0153612
0.0148704
0.0146168
0.0145209
0.0145471
0.0147145
0.015104
0.0157885
0.0167531
0.0178741
0.0189545
0.0198891
0.0205886
0.0210185
0.0212271
0.0212484
0.0211107
0.0208426
0.0204751
0.0200462
0.0196001
0.0191755
0.0187951
0.0184625
0.0181713
0.017914
0.0176876
0.0174932
0.0173349
0.0172176
0.0171441
0.0171157
0.0171295
0.0171712
0.0172162
0.0172544
0.0172712
0.0172535
0.0171937
0.0170977
0.0169764
0.0168413
0.0167168
0.0166259
0.0165852
0.0166045
0.0166761
0.0167726
0.0168661
0.0169522
0.0170343
0.0171002
0.0171941
0.017325
0.0174973
0.0177096
0.0179511
0.0182003
0.0184323
0.0186226
0.0187526
0.018812
0.0187961
0.0187127
0.0185562
0.0183409
0.0181291
0.0179194
0.0177228
0.0175478
0.0174008
0.0172861
0.017208
0.0171745
0.0171989
0.0172645
0.0173439
0.0174665
0.0176273
0.017819
0.018025
0.0182259
0.0184086
0.0185625
0.0186803
0.0187612
0.0188063
0.0188185
0.0188042
0.0187792
0.0187522
0.0187248
0.0186895
0.0186784
0.0186862
0.0187086
0.018762
0.0188528
0.0189912
0.0192081
0.0195146
0.0199599
0.0206577
0.0218115
0.0234793
0.0250149
0.0255687
8.99959e-06
9.00987e-06
9.04998e-06
9.0662e-06
9.08528e-06
9.1175e-06
9.15524e-06
9.21055e-06
9.30087e-06
9.50824e-06
1.15508e-05
0.000735601
0.00913352
0.015648
0.0193457
0.0213541
0.0223046
0.0225848
0.0224501
0.0220744
0.0215688
0.0209738
0.0203602
0.0197571
0.0191823
0.0186604
0.0182024
0.0178025
0.017444
0.0171124
0.0168019
0.0165147
0.0162585
0.0160377
0.01585
0.0156905
0.0155578
0.0154543
0.0153841
0.0153524
0.0153639
0.0154184
0.0155179
0.0156865
0.0159382
0.0162444
0.016584
0.0169349
0.0172777
0.0175906
0.0178519
0.018046
0.0181687
0.0182229
0.0182081
0.0181279
0.0179956
0.0178478
0.0176844
0.0175124
0.017333
0.0171425
0.0169358
0.0167134
0.016489
0.0162832
0.0161092
0.0159658
0.0158445
0.0157386
0.0156438
0.0155574
0.0154791
0.0154106
0.0153519
0.0152994
0.0152496
0.0152052
0.0151737
0.0151626
0.0151751
0.0152127
0.0152948
0.0154013
0.0155214
0.0156488
0.0157841
0.0159355
0.0161276
0.0163863
0.0167123
0.0170553
0.0173346
0.0174941
0.0175319
0.0175214
0.0175104
0.0175223
0.0175538
0.0175639
0.0175288
0.017445
0.0172986
0.0171149
0.0169195
0.016705
0.0164787
0.0162691
0.0161968
0.0164343
0.0172333
0.0180249
0.0188191
0.0198429
0.0213773
0.023181
0.0246148
0.0252885
0.0252163
0.0245571
0.0235625
0.0224351
0.0213142
0.0202901
0.0194274
0.0187096
0.0182075
0.0179505
0.01793
0.0180591
0.0181397
0.0179234
0.0173954
0.0167442
0.0161328
0.0155272
0.0150537
0.0147233
0.0145044
0.014372
0.0143247
0.0144285
0.0147659
0.015363
0.0161824
0.0170841
0.0179515
0.0186925
0.0192458
0.0195864
0.0197541
0.0197624
0.0196279
0.019373
0.0190287
0.018638
0.0182419
0.017869
0.0175313
0.01723
0.0169625
0.0167272
0.0165248
0.0163568
0.016224
0.0161277
0.0160675
0.0160439
0.016051
0.0160765
0.0161064
0.0161256
0.0161215
0.0160847
0.0160127
0.0159105
0.0157878
0.01566
0.0155482
0.0154722
0.015445
0.0154652
0.0155156
0.0155756
0.0156339
0.0156911
0.0157517
0.0158216
0.0159045
0.0160284
0.0161837
0.0163695
0.0165755
0.0167849
0.0169778
0.017134
0.0172376
0.0172788
0.0172567
0.0171707
0.0170287
0.0168468
0.0166658
0.0164845
0.016314
0.0161624
0.0160351
0.0159373
0.0158755
0.0158583
0.015888
0.0159342
0.016024
0.0161527
0.0163147
0.0165007
0.0166946
0.0168802
0.0170461
0.0171844
0.0172898
0.0173592
0.0173933
0.0173976
0.0173819
0.0173553
0.0173179
0.0172813
0.0172617
0.0172615
0.0172844
0.0173199
0.0174014
0.0175247
0.0177098
0.0179849
0.0183869
0.0189858
0.0199293
0.0213183
0.0227377
0.0232919
8.99942e-06
8.99806e-06
9.00075e-06
9.00604e-06
9.01349e-06
9.02142e-06
9.03401e-06
9.0642e-06
9.10043e-06
9.17055e-06
9.33539e-06
1.27361e-05
0.000489181
0.00560261
0.011647
0.0152116
0.0173256
0.0185002
0.0190546
0.0192108
0.0191134
0.0188506
0.0184817
0.0180282
0.0175775
0.0171429
0.0167446
0.0163888
0.0160678
0.0157714
0.0154937
0.0152335
0.0149939
0.0147795
0.0145904
0.0144231
0.0142748
0.0141452
0.0140368
0.0139535
0.0138994
0.0138784
0.0138958
0.0139595
0.0140738
0.0142512
0.0144836
0.0147508
0.0150427
0.0153426
0.0156281
0.0158764
0.0160714
0.0162061
0.0162782
0.0162881
0.0162437
0.016169
0.0160734
0.0159671
0.0158465
0.015709
0.0155514
0.015368
0.0151704
0.014977
0.0148028
0.0146506
0.0145145
0.0143886
0.0142707
0.0141601
0.0140577
0.0139656
0.013885
0.0138136
0.0137476
0.0136858
0.0136313
0.0135902
0.0135685
0.0135714
0.0136005
0.0136551
0.0137321
0.0138224
0.0139273
0.0140497
0.0142099
0.0144382
0.0147489
0.0151053
0.015429
0.0156553
0.0157556
0.015759
0.0157305
0.0157199
0.0157305
0.0157509
0.0157438
0.015697
0.015614
0.015482
0.0153378
0.0151768
0.0150089
0.0148556
0.0147975
0.0149894
0.0157074
0.0164613
0.0171198
0.0180145
0.0195913
0.0216275
0.0233114
0.0241759
0.0242323
0.0236989
0.0228289
0.0218397
0.0208609
0.0199943
0.0192287
0.018578
0.0181108
0.0178211
0.0177217
0.01776
0.0177655
0.017572
0.0171656
0.0166439
0.0161131
0.0156872
0.0152413
0.0148684
0.0145388
0.0142473
0.0140083
0.013878
0.0139201
0.0141596
0.0145927
0.0151809
0.0158493
0.0165003
0.017072
0.0175108
0.0178048
0.0179595
0.0179743
0.0178592
0.017634
0.0173338
0.0169971
0.0166567
0.0163313
0.0160314
0.0157611
0.0155231
0.015319
0.0151486
0.0150095
0.014899
0.014815
0.0147583
0.0147294
0.0147245
0.0147348
0.014748
0.0147504
0.0147295
0.0146773
0.0145929
0.0144827
0.0143575
0.0142333
0.0141283
0.0140581
0.0140286
0.0140322
0.0140525
0.0140761
0.0141
0.0141283
0.014166
0.0142176
0.0142871
0.0143781
0.0144979
0.0146468
0.0148123
0.0149832
0.0151431
0.0152741
0.0153621
0.0153993
0.0153825
0.0153099
0.0151961
0.0150474
0.0148905
0.014734
0.0145852
0.0144517
0.0143392
0.0142528
0.014198
0.0141785
0.0141889
0.0142224
0.0142978
0.0144082
0.0145505
0.0147145
0.0148852
0.0150494
0.0151973
0.0153214
0.0154154
0.0154778
0.0155113
0.0155215
0.0155133
0.0154951
0.0154732
0.015461
0.0154631
0.0154865
0.0155251
0.0156044
0.0157164
0.0158768
0.0161098
0.0164461
0.0169274
0.0176332
0.0186509
0.0198117
0.0204339
8.99993e-06
8.99757e-06
8.99548e-06
8.99498e-06
8.99705e-06
9.00014e-06
9.00638e-06
9.01555e-06
9.03911e-06
9.06067e-06
9.10358e-06
9.09461e-06
1.02449e-05
9.23285e-05
0.001449
0.00682882
0.0102491
0.0126625
0.0141936
0.0151042
0.0155976
0.0158
0.0157929
0.0156412
0.0154016
0.0151076
0.0148284
0.0145736
0.014349
0.014148
0.0139625
0.0137856
0.0136125
0.0134452
0.013286
0.0131357
0.0129933
0.0128586
0.0127328
0.0126189
0.0125207
0.0124424
0.0123891
0.0123667
0.0123821
0.0124386
0.0125394
0.0126956
0.0128996
0.013136
0.0133929
0.0136487
0.0138814
0.0140746
0.0142181
0.0143077
0.0143456
0.0143427
0.0143127
0.0142676