/*--------------------------------*- C++ -*----------------------------------*\
  =========                 |
  \\      /  F ield         | OpenFOAM: The Open Source CFD Toolbox
   \\    /   O peration     | Website:  https://openfoam.org
    \\  /    A nd           | Version:  7
     \\/     M anipulation  |
\*---------------------------------------------------------------------------*/
FoamFile
{
    version     2.0;
    format      ascii;
    class       volScalarField;
    location    "450";
    object      p;
}
// * * * * * * * * * * * * * * * * * * * * * * * * * * * * * * * * * * * * * //

dimensions      [0 2 -2 0 0 0 0];

internalField   nonuniform List<scalar> 
96800
(
48.2298
48.2298
48.2298
48.2298
48.2298
48.2299
48.2299
48.2299
48.23
48.23
48.23
48.2301
48.2301
48.2302
48.2302
48.2302
48.2303
48.2303
48.2303
48.2303
48.2304
48.2304
48.2298
48.2298
48.2298
48.2298
48.2298
48.2298
48.2299
48.2299
48.23
48.23
48.23
48.2301
48.2301
48.2302
48.2302
48.2302
48.2303
48.2303
48.2303
48.2303
48.2304
48.2304
48.2298
48.2298
48.2298
48.2298
48.2298
48.2298
48.2299
48.2299
48.23
48.23
48.23
48.2301
48.2301
48.2302
48.2302
48.2302
48.2303
48.2303
48.2303
48.2304
48.2304
48.2304
48.2298
48.2298
48.2298
48.2298
48.2298
48.2299
48.2299
48.2299
48.2299
48.23
48.23
48.2301
48.2301
48.2301
48.2302
48.2302
48.2303
48.2303
48.2303
48.2304
48.2304
48.2304
48.2298
48.2298
48.2298
48.2298
48.2298
48.2299
48.2299
48.2299
48.2299
48.23
48.23
48.23
48.2301
48.2301
48.2302
48.2302
48.2303
48.2303
48.2303
48.2304
48.2304
48.2304
48.2298
48.2298
48.2298
48.2298
48.2298
48.2298
48.2299
48.2299
48.2299
48.2299
48.23
48.23
48.2301
48.2301
48.2302
48.2302
48.2303
48.2303
48.2303
48.2304
48.2304
48.2304
48.2297
48.2298
48.2298
48.2298
48.2298
48.2298
48.2298
48.2298
48.2299
48.2299
48.23
48.23
48.2301
48.2301
48.2302
48.2302
48.2303
48.2303
48.2304
48.2304
48.2304
48.2304
48.2297
48.2297
48.2297
48.2297
48.2297
48.2297
48.2298
48.2298
48.2298
48.2299
48.2299
48.23
48.23
48.2301
48.2302
48.2302
48.2303
48.2303
48.2304
48.2304
48.2304
48.2304
48.2296
48.2296
48.2296
48.2296
48.2296
48.2297
48.2297
48.2297
48.2298
48.2298
48.2299
48.23
48.23
48.2301
48.2302
48.2302
48.2303
48.2303
48.2304
48.2304
48.2304
48.2304
48.2294
48.2294
48.2295
48.2295
48.2295
48.2296
48.2296
48.2296
48.2297
48.2298
48.2298
48.2299
48.23
48.2301
48.2301
48.2302
48.2303
48.2303
48.2304
48.2304
48.2304
48.2304
48.2293
48.2293
48.2293
48.2293
48.2294
48.2294
48.2295
48.2295
48.2296
48.2297
48.2298
48.2299
48.23
48.23
48.2301
48.2302
48.2303
48.2303
48.2304
48.2304
48.2304
48.2305
48.2291
48.2291
48.2291
48.2292
48.2292
48.2293
48.2294
48.2295
48.2295
48.2296
48.2297
48.2298
48.2299
48.23
48.2301
48.2302
48.2303
48.2303
48.2304
48.2304
48.2305
48.2305
48.2289
48.2289
48.229
48.229
48.2291
48.2292
48.2292
48.2293
48.2295
48.2296
48.2297
48.2298
48.2299
48.23
48.2301
48.2302
48.2303
48.2304
48.2304
48.2305
48.2305
48.2305
48.2287
48.2288
48.2288
48.2288
48.2289
48.229
48.2291
48.2292
48.2294
48.2295
48.2296
48.2298
48.2299
48.23
48.2301
48.2302
48.2303
48.2304
48.2305
48.2305
48.2306
48.2306
48.2285
48.2286
48.2286
48.2287
48.2287
48.2288
48.229
48.2291
48.2293
48.2294
48.2296
48.2297
48.2299
48.23
48.2301
48.2302
48.2303
48.2305
48.2305
48.2306
48.2307
48.2307
48.2283
48.2283
48.2284
48.2285
48.2285
48.2287
48.2288
48.229
48.2291
48.2293
48.2295
48.2297
48.2298
48.23
48.2301
48.2303
48.2304
48.2305
48.2306
48.2307
48.2308
48.2308
48.2281
48.2281
48.2282
48.2282
48.2283
48.2285
48.2286
48.2288
48.229
48.2292
48.2294
48.2296
48.2298
48.23
48.2302
48.2303
48.2305
48.2306
48.2308
48.2308
48.2309
48.2309
48.2278
48.2279
48.2279
48.228
48.2281
48.2283
48.2285
48.2287
48.2289
48.2291
48.2293
48.2296
48.2298
48.23
48.2302
48.2304
48.2306
48.2308
48.2309
48.231
48.2311
48.2311
48.2276
48.2276
48.2276
48.2277
48.2279
48.2281
48.2283
48.2285
48.2287
48.229
48.2293
48.2295
48.2298
48.2301
48.2303
48.2305
48.2308
48.2309
48.2311
48.2312
48.2313
48.2313
48.2272
48.2273
48.2273
48.2275
48.2276
48.2278
48.228
48.2283
48.2286
48.2289
48.2292
48.2295
48.2298
48.2301
48.2304
48.2307
48.2309
48.2311
48.2313
48.2314
48.2315
48.2316
48.2269
48.2269
48.227
48.2271
48.2273
48.2275
48.2278
48.2281
48.2284
48.2287
48.2291
48.2295
48.2298
48.2302
48.2305
48.2308
48.2311
48.2314
48.2316
48.2317
48.2318
48.2319
48.2265
48.2265
48.2266
48.2268
48.227
48.2272
48.2275
48.2279
48.2282
48.2286
48.229
48.2294
48.2298
48.2303
48.2307
48.231
48.2313
48.2316
48.2319
48.2321
48.2322
48.2323
48.226
48.2261
48.2262
48.2264
48.2266
48.2269
48.2272
48.2276
48.228
48.2285
48.2289
48.2294
48.2299
48.2304
48.2308
48.2312
48.2316
48.232
48.2322
48.2324
48.2326
48.2327
48.2255
48.2256
48.2257
48.2259
48.2262
48.2265
48.2269
48.2273
48.2278
48.2283
48.2289
48.2294
48.23
48.2305
48.231
48.2315
48.232
48.2323
48.2327
48.2329
48.2331
48.2332
48.225
48.225
48.2252
48.2254
48.2257
48.2261
48.2265
48.227
48.2276
48.2282
48.2288
48.2294
48.2301
48.2307
48.2313
48.2318
48.2323
48.2328
48.2331
48.2334
48.2336
48.2337
48.2244
48.2244
48.2246
48.2249
48.2252
48.2256
48.2261
48.2267
48.2273
48.228
48.2287
48.2294
48.2302
48.2309
48.2316
48.2322
48.2328
48.2333
48.2337
48.234
48.2343
48.2344
48.2237
48.2238
48.2239
48.2242
48.2246
48.2251
48.2257
48.2263
48.2271
48.2278
48.2286
48.2295
48.2303
48.2311
48.2319
48.2327
48.2333
48.2339
48.2344
48.2348
48.235
48.2352
48.2229
48.223
48.2232
48.2235
48.224
48.2245
48.2252
48.2259
48.2268
48.2276
48.2286
48.2295
48.2305
48.2314
48.2323
48.2332
48.2339
48.2346
48.2352
48.2356
48.2359
48.2361
48.222
48.2221
48.2223
48.2227
48.2232
48.2238
48.2246
48.2255
48.2264
48.2274
48.2285
48.2296
48.2306
48.2317
48.2328
48.2337
48.2346
48.2354
48.236
48.2365
48.2369
48.2371
48.2208
48.221
48.2213
48.2217
48.2223
48.223
48.2239
48.2249
48.226
48.2271
48.2284
48.2296
48.2308
48.2321
48.2333
48.2344
48.2354
48.2363
48.237
48.2376
48.238
48.2383
48.2194
48.2196
48.2199
48.2205
48.2212
48.222
48.223
48.2242
48.2255
48.2268
48.2282
48.2296
48.231
48.2324
48.2338
48.2351
48.2363
48.2373
48.2382
48.2389
48.2394
48.2396
48.2177
48.2179
48.2183
48.2189
48.2197
48.2208
48.222
48.2233
48.2248
48.2263
48.2279
48.2296
48.2312
48.2328
48.2344
48.2358
48.2372
48.2384
48.2395
48.2403
48.2409
48.2412
48.2155
48.2157
48.2162
48.217
48.2179
48.2192
48.2206
48.2222
48.2239
48.2257
48.2275
48.2294
48.2313
48.2331
48.2349
48.2367
48.2382
48.2396
48.2409
48.2418
48.2425
48.2429
48.2127
48.2129
48.2135
48.2144
48.2156
48.2171
48.2188
48.2207
48.2227
48.2248
48.227
48.2291
48.2313
48.2335
48.2355
48.2375
48.2393
48.241
48.2424
48.2436
48.2444
48.2449
48.209
48.2093
48.2101
48.2112
48.2127
48.2144
48.2165
48.2187
48.2211
48.2236
48.2262
48.2287
48.2313
48.2338
48.2362
48.2385
48.2406
48.2425
48.2442
48.2455
48.2465
48.2471
48.2043
48.2047
48.2056
48.2069
48.2088
48.2109
48.2134
48.2161
48.219
48.222
48.2251
48.2281
48.2311
48.2341
48.2369
48.2396
48.2421
48.2443
48.2463
48.2478
48.249
48.2497
48.198
48.1985
48.1996
48.2014
48.2036
48.2064
48.2094
48.2128
48.2163
48.22
48.2237
48.2274
48.231
48.2345
48.2378
48.241
48.2439
48.2465
48.2488
48.2507
48.252
48.2527
48.1896
48.1902
48.1917
48.194
48.1968
48.2003
48.2041
48.2084
48.2128
48.2173
48.2219
48.2264
48.2308
48.2351
48.2391
48.2428
48.2463
48.2494
48.2521
48.2542
48.2557
48.2566
48.1786
48.1793
48.1812
48.1841
48.1878
48.1922
48.1971
48.2025
48.2081
48.2138
48.2196
48.2252
48.2307
48.2359
48.2408
48.2453
48.2494
48.2531
48.2563
48.2588
48.2606
48.2616
48.1638
48.1647
48.1672
48.1709
48.1757
48.1814
48.1877
48.1946
48.2018
48.2092
48.2165
48.2237
48.2306
48.2371
48.2431
48.2487
48.2537
48.2581
48.2619
48.2648
48.267
48.2681
48.1441
48.1452
48.1485
48.1533
48.1595
48.1669
48.1752
48.1842
48.1936
48.2031
48.2125
48.2217
48.2305
48.2387
48.2464
48.2533
48.2594
48.2647
48.2692
48.2728
48.2753
48.2767
48.118
48.1193
48.1236
48.1299
48.138
48.1477
48.1586
48.1703
48.1826
48.195
48.2072
48.2192
48.2305
48.241
48.2507
48.2593
48.267
48.2735
48.279
48.2833
48.2864
48.288
48.0835
48.0851
48.0906
48.0989
48.1096
48.1223
48.1367
48.152
48.168
48.1843
48.2003
48.2158
48.2304
48.244
48.2564
48.2674
48.277
48.2851
48.2919
48.2971
48.3008
48.3028
48.0381
48.0401
48.0472
48.0581
48.0722
48.089
48.1078
48.128
48.149
48.1702
48.1911
48.2113
48.2303
48.2479
48.2637
48.2778
48.29
48.3003
48.3086
48.3151
48.3196
48.3221
47.979
47.9813
47.9906
48.0047
48.0233
48.0453
48.0701
48.0966
48.1241
48.1519
48.1791
48.2054
48.23
48.2526
48.2731
48.2912
48.3067
48.3197
48.3303
48.3383
48.3439
48.347
47.9021
47.9048
47.9168
47.9353
47.9596
47.9886
48.0211
48.0558
48.0918
48.1279
48.1634
48.1974
48.2292
48.2584
48.2848
48.3079
48.3279
48.3445
48.3579
48.368
48.375
48.3789
47.8025
47.8056
47.821
47.8451
47.8769
47.915
47.9575
48.003
48.0499
48.0968
48.1427
48.1866
48.2276
48.2652
48.299
48.3287
48.3543
48.3757
48.3928
48.4058
48.4147
48.4196
47.6738
47.6772
47.6969
47.7281
47.7697
47.8196
47.8753
47.9346
47.9955
48.0563
48.1155
48.1719
48.2246
48.2728
48.3161
48.3542
48.387
48.4145
48.4365
48.4532
48.4647
48.4709
47.5073
47.5107
47.5359
47.5763
47.6307
47.6959
47.7687
47.8459
47.9249
48.0035
48.0797
48.152
48.2193
48.2809
48.3363
48.385
48.427
48.4622
48.4906
48.5122
48.5271
48.5349
47.2916
47.2946
47.3267
47.379
47.45
47.5354
47.6304
47.731
47.8334
47.9347
48.0325
48.1249
48.2108
48.2892
48.3596
48.4216
48.4751
48.5201
48.5566
48.5846
48.604
48.6142
47.0112
47.0133
47.0541
47.1219
47.2147
47.3267
47.4511
47.582
47.7145
47.8449
47.9702
48.0881
48.1971
48.2964
48.3854
48.464
48.5321
48.5896
48.6365
48.6727
48.698
48.7111
46.6452
46.646
46.6984
46.7865
46.9083
47.0556
47.2188
47.3893
47.5608
47.7285
47.8884
48.038
48.1758
48.3008
48.413
48.5121
48.5983
48.6715
48.7316
48.7784
48.8115
48.8284
46.1662
46.1661
46.234
46.3495
46.51
46.7044
46.9187
47.1411
47.363
47.578
47.7814
47.9703
48.1433
48.3
48.4404
48.5648
48.6733
48.7661
48.8429
48.9034
48.9465
48.9684
45.5383
45.5397
45.6291
45.7818
45.9945
46.2516
46.5335
46.8235
47.1099
47.3845
47.6418
47.879
48.095
48.2898
48.4644
48.6194
48.7554
48.8725
48.9705
49.0484
49.1046
49.1329
44.716
44.7238
44.8433
45.047
45.3303
45.6712
46.042
46.4195
46.7882
47.1373
47.461
47.7566
48.0238
48.2638
48.479
48.6708
48.8402
48.9875
49.1121
49.2126
49.2858
49.3224
43.6406
43.6637
43.8257
44.1001
44.4791
44.9316
45.4191
45.9098
46.3825
46.8243
47.2287
47.5936
47.9207
48.2134
48.4757
48.7106
48.9199
49.104
49.262
49.3915
49.4875
49.5353
42.2343
42.2922
42.513
42.885
43.3942
43.9959
44.6368
45.2732
45.877
46.4324
46.933
47.3788
47.7744
48.1263
48.4415
48.7251
48.9805
49.2088
49.4087
49.5759
49.7022
49.7655
40.4053
40.5174
40.8237
41.3332
42.0207
42.823
43.6655
44.4887
45.2561
45.9487
46.5616
47.099
47.5701
47.986
48.3579
48.6942
49.0014
49.2815
49.5324
49.7478
49.915
50.0006
38.0356
38.2197
38.6598
39.3654
40.2993
41.3714
42.4785
43.5395
44.5075
45.3618
46.1018
46.7387
47.2889
47.77
48.1989
48.5898
48.9524
49.2907
49.6012
49.8754
50.0959
50.217
34.9571
35.2784
35.9109
36.8952
38.1695
39.6046
41.0562
42.4155
43.6239
44.6626
45.5404
46.2793
46.9062
47.4482
47.9299
48.3725
48.7907
49.191
49.5663
49.9046
50.188
50.3714
30.9843
31.5412
32.464
33.8447
35.5846
37.5021
39.3959
41.1204
42.6072
43.8468
44.8645
45.6992
46.3925
46.9831
47.5055
47.9891
48.4572
48.9206
49.3572
49.7454
50.0588
50.4507
25.9233
26.8913
28.2481
30.1823
32.534
35.0744
37.5209
39.6766
41.4699
42.9135
44.06
44.9729
45.7117
46.3282
46.8667
47.3659
47.8647
48.3888
48.8431
49.1999
49.5392
49.9391
19.5716
21.3105
23.3288
26.0345
29.0939
32.3898
35.4979
38.1336
40.2368
41.8638
43.1101
44.0699
44.8222
45.4299
45.9419
46.4014
46.8684
47.4802
47.7647
47.7339
47.7816
47.5405
12.5509
14.81
18.004
21.929
25.4699
29.5784
33.4481
36.5691
38.9401
40.6968
41.9928
42.9555
43.6803
44.2346
44.6599
44.9736
45.15
44.9897
44.9336
44.8141
44.2272
43.7256
-12.4246
-12.3189
0.756334
12.5498
20.438
26.7991
31.5861
35.0996
37.6184
39.4056
40.677
41.5895
42.2457
42.7045
42.9901
43.0912
42.9498
42.431
41.479
39.8502
37.1264
34.5191
-31.3212
-17.4768
1.04418
10.4323
18.4797
25.2669
30.2817
33.8223
36.2714
37.961
39.1343
39.9502
40.5019
40.8309
40.9316
40.7452
40.1349
38.7762
36.1767
31.2548
20.8835
3.1478
-6.27776
39.3013
33.8687
32.9421
32.534
32.385
32.5738
32.8682
33.1949
33.3793
32.0141
30.5885
29.3103
27.812
26.7929
26.1381
25.6175
25.1878
24.8772
24.6062
24.4553
24.3837
24.3849
24.4126
24.4607
24.5148
24.569
24.6192
24.6265
24.5799
24.4803
24.303
24.2623
24.2402
24.2705
24.3154
24.3782
24.4475
24.5075
24.539
24.528
24.5077
24.4851
24.4592
24.4302
24.4053
24.4133
24.447
24.4769
24.4856
24.5186
24.4719
24.3027
24.1784
24.0162
23.8329
23.6423
23.4609
23.2899
23.1624
22.9848
22.7601
22.504
22.2449
22.0359
21.8536
21.7923
21.788
21.8023
21.8297
21.8617
21.8821
21.9471
22.0407
22.1367
22.2235
22.3021
22.3918
22.5114
22.6642
22.8283
22.9954
23.1724
23.3496
23.5298
23.7283
23.936
24.1402
24.326
24.3361
24.4286
24.1989
23.8292
23.3937
23.1036
22.7927
22.9549
23.1729
23.4632
23.7065
23.8923
24.09
24.3313
24.5587
24.9626
25.6041
26.3975
26.4097
25.415
18.2303
-131.829
0.0618968
2.39337
11.9906
18.9235
25.1214
29.5919
32.7162
34.8574
36.3286
37.3444
38.035
38.4683
38.6547
38.5569
38.0608
36.9001
34.4116
29.3518
18.7291
-6.48295
-78.5308
-357.696
-132.622
-34.7008
-27.2435
-20.5705
-14.9293
-10.5733
-7.30126
-4.90809
-3.1593
-1.85798
-0.754077
0.319504
1.39681
2.43465
3.37983
4.172
4.71867
5.22583
5.49563
5.68171
5.80258
5.90092
6.04871
6.32564
6.63071
6.9807
7.31927
7.61787
7.84912
7.90728
7.94843
7.96935
7.93033
7.87925
7.81621
7.74292
7.76785
7.75674
7.75748
7.69506
7.55839
7.46308
7.24158
6.99671
6.77687
6.53365
6.45888
6.4846
6.53052
6.61863
6.69455
6.73826
6.76622
6.78112
6.82004
6.86133
6.88783
6.93977
7.00142
7.06112
7.11025
7.13595
7.13331
7.05792
6.96456
6.85063
6.71934
6.59052
6.48161
6.41701
6.35482
6.38692
6.45449
6.53802
6.62859
6.74154
6.85488
6.83605
6.86072
6.90807
6.83972
6.78764
6.79564
6.81735
6.92361
7.04866
7.19452
7.35539
7.52228
7.73108
7.98586
8.26444
8.57651
8.93365
9.32011
9.725
10.1738
10.6152
11.1761
11.8437
12.5646
13.3769
14.3175
15.3974
16.7239
18.1796
18.475
13.7448
-0.984675
22.7664
30.2288
31.6217
32.048
32.2018
32.2635
32.5138
32.8701
33.4108
34.5606
36.427
33.4865
29.6235
27.6824
26.5637
25.8423
25.3149
24.9168
24.6369
24.4453
24.3266
24.2595
24.2686
24.3044
24.3686
24.4591
24.5444
24.6072
24.5914
24.5263
24.4253
24.3149
24.2645
24.2697
24.3028
24.356
24.4139
24.4679
24.5102
24.5336
24.5376
24.5336
24.5227
24.5066
24.4912
24.4767
24.4844
24.5193
24.5612
24.577
24.5557
24.477
24.344
24.1787
23.9902
23.7959
23.609
23.4335
23.262
23.0825
22.8684
22.6176
22.3505
22.1094
21.9323
21.8118
21.7707
21.7677
21.7848
21.8069
21.8339
21.8724
21.9365
22.0235
22.1179
22.2098
22.2983
22.3958
22.5204
22.6811
22.864
23.0513
23.2357
23.418
23.6084
23.8138
24.0258
24.2287
24.3924
24.4571
24.3693
24.0803
23.6451
23.2005
22.9031
22.7813
22.912
23.1612
23.4412
23.6929
23.9048
24.1039
24.3422
24.6093
25.1139
25.738
26.7557
28.7173
30.5727
32.448
-34.0038
1.54781
7.62724
14.9418
20.7308
25.7354
29.2274
31.6421
33.3289
34.5218
35.3584
35.9193
36.2465
36.3079
36.0396
35.2986
33.8003
31.026
25.8403
15.3862
-7.3203
-53.0797
-130.526
-88.8733
-46.6449
-27.6794
-19.5594
-13.8653
-9.61806
-6.54421
-4.35314
-2.75806
-1.48336
-0.408733
0.682301
1.74822
2.73514
3.59004
4.2726
4.79031
5.16629
5.41046
5.57881
5.7123
5.84327
6.04145
6.34483
6.70664
7.0768
7.40909
7.67185
7.84666
7.94049
7.98513
7.96982
7.92762
7.8758
7.82654
7.80029
7.79636
7.79911
7.77967
7.70496
7.56729
7.37573
7.13576
6.89005
6.68093
6.52015
6.46812
6.50522
6.57659
6.64828
6.69933
6.7316
6.75885
6.79065
6.82736
6.86917
6.91537
6.96957
7.03335
7.09618
7.14675
7.17315
7.15518
7.08836
6.97843
6.83808
6.68873
6.55048
6.4388
6.36717
6.34092
6.3721
6.45049
6.55671
6.67213
6.78258
6.86948
6.90996
6.90208
6.85964
6.81199
6.77995
6.78531
6.82961
6.92015
7.04035
7.18531
7.34641
7.52503
7.73848
7.99365
8.28144
8.59584
8.9331
9.29459
9.68756
10.123
10.6004
11.1307
11.7222
12.3827
13.1318
13.9743
14.8605
16.4287
18.5464
22.5329
23.8502
42.9224
28.0169
29.6162
30.7727
31.3087
31.6413
31.8396
32.098
32.4378
32.9495
33.8534
35.0193
32.0128
28.8255
27.1319
26.1534
25.5465
25.0649
24.6631
24.3655
24.1813
24.0975
24.0602
24.0645
24.1095
24.2104
24.3519
24.4961
24.5834
24.583
24.5019
24.3776
24.2659
24.2116
24.2145
24.2555
24.3155
24.3851
24.4542
24.5111
24.5477
24.5641
24.5775
24.5909
24.5998
24.5958
24.5902
24.5982
24.6297
24.6716
24.6804
24.6367
24.5314
24.3739
24.1778
23.9595
23.7472
23.5543
23.3858
23.2267
23.0515
22.834
22.5662
22.27
21.9967
21.8022
21.7068
21.6945
21.7184
21.7479
21.7726
21.8007
21.8434
21.9115
22.0022
22.1011
22.1941
22.2832
22.3839
22.515
22.6846
22.8853
23.092
23.2869
23.4687
23.6532
23.8573
24.0811
24.3181
24.5284
24.6331
24.54
24.1891
23.6312
23.0457
22.6504
22.5575
22.7486
23.0841
23.4313
23.7132
23.9187
24.0874
24.2777
24.4701
24.9115
25.355
25.9949
26.4954
27.0619
25.4807
1.80748
13.4457
16.3451
20.4705
23.659
26.6596
28.8841
30.526
31.7492
32.6708
33.3476
33.7832
34.0298
33.9808
33.5911
32.7165
31.1069
28.3955
23.8196
15.8673
-3.37879
-26.8744
-52.5737
-50.3119
-36.7922
-25.8857
-17.3838
-12.3817
-8.40292
-5.50756
-3.46906
-2.02218
-0.842122
0.131434
1.16135
2.17749
3.11049
3.90437
4.53509
4.99813
5.30575
5.48112
5.57095
5.6326
5.73115
5.92177
6.227
6.61446
7.02118
7.3867
7.66912
7.85697
7.9592
7.99437
7.97902
7.93445
7.87847
7.84116
7.82696
7.82978
7.83724
7.81642
7.74362
7.59415
7.37247
7.09916
6.81916
6.58551
6.44043
6.41389
6.47951
6.57926
6.66999
6.71835
6.74124
6.76048
6.79426
6.83871
6.89283
6.95586
7.02736
7.10496
7.17914
7.23601
7.25789
7.22778
7.1384
6.99509
6.81738
6.63247
6.46917
6.34524
6.27571
6.26582
6.31439
6.41101
6.53746
6.67336
6.79937
6.89534
6.94426
6.92226
6.87298
6.81313
6.77099
6.77669
6.82528
6.91406
7.03352
7.17655
7.33847
7.51888
7.7256
7.96704
8.24358
8.54571
8.86981
9.21579
9.5959
10.0198
10.4881
10.9972
11.5527
12.1706
12.8711
13.6669
14.5579
15.9682
18.1174
21.5094
27.4663
37.7969
29.3672
29.8124
30.4888
30.88
31.1761
31.3913
31.6
31.8359
32.0965
32.3024
32.1011
30.208
27.0546
26.5469
25.6262
25.2547
24.9079
24.531
24.2118
24.0086
23.9004
23.8507
23.8469
23.9136
24.058
24.2631
24.4699
24.5972
24.6065
24.514
24.3692
24.2396
24.1753
24.168
24.2089
24.2691
24.3412
24.4174
24.4864
24.5389
24.5747
24.6024
24.6329
24.6596
24.6742
24.6812
24.6935
24.7239
24.7673
24.7722
24.7104
24.576
24.3871
24.1638
23.9245
23.6959
23.4992
23.3346
23.1824
23.0091
22.7852
22.5018
22.1836
21.8893
21.6862
21.6031
21.6117
21.6578
21.7015
21.7347
21.7672
21.8123
21.8818
21.975
22.0778
22.1749
22.267
22.3719
22.511
22.6934
22.9081
23.1288
23.3301
23.51
23.6885
23.8906
24.1185
24.3845
24.6365
24.7665
24.6738
24.2692
23.5983
22.8711
22.3732
22.2688
22.5277
22.972
23.4218
23.7595
23.9754
24.1017
24.2653
24.4194
24.7579
25.0775
25.3679
25.4439
24.1304
23.8754
16.2345
19.2271
21.3974
23.8303
25.6271
27.1553
28.4181
29.4563
30.3079
30.9945
31.519
31.8756
31.9842
31.8718
31.3966
30.4309
28.7926
26.2165
22.3277
16.9373
1.76886
-10.9239
-23.6094
-29.525
-25.8338
-19.6936
-14.2613
-10.1598
-6.83006
-4.289
-2.50536
-1.2369
-0.172394
0.763938
1.74596
2.70189
3.57133
4.30016
4.86768
5.27564
5.52692
5.63875
5.64913
5.62595
5.68334
5.84739
6.14711
6.5436
6.96086
7.34137
7.63296
7.83202
7.94504
7.9892
7.9859
7.95179
7.89934
7.87941
7.87895
7.88959
7.89046
7.85649
7.76495
7.59348
7.34437
7.04519
6.74522
6.50245
6.3672
6.3625
6.45326
6.57097
6.6887
6.7246
6.73834
6.75095
6.78489
6.84153
6.91243
6.99283
7.08174
7.17687
7.26762
7.33553
7.35656
7.31049
7.19266
7.01486
6.80186
6.58361
6.39284
6.25601
6.18598
6.18914
6.25721
6.3742
6.51819
6.6661
6.79585
6.88886
6.92594
6.91184
6.85821
6.80142
6.77264
6.77843
6.82405
6.90961
7.03086
7.18024
7.34889
7.53046
7.72718
7.94465
8.19004
8.45704
8.7527
9.07368
9.43253
9.83233
10.2675
10.7325
11.224
11.7584
12.3543
13.0181
13.7246
14.5203
15.4763
16.7603
17.9468
22.0761
29.7978
29.9562
30.31
30.5827
30.8032
30.9675
31.0972
31.1899
31.2121
31.0616
30.4906
29.1348
27.4149
26.6949
24.8482
25.1314
24.9732
24.6306
24.2615
23.9955
23.8131
23.6955
23.6581
23.7358
23.9308
24.2059
24.4762
24.6364
24.6593
24.5676
24.4177
24.2756
24.1971
24.181
24.2049
24.251
24.3091
24.3746
24.4402
24.4986
24.5476
24.5892
24.6279
24.6619
24.6892
24.7101
24.7313
24.762
24.798
24.7929
24.723
24.5716
24.3623
24.1233
23.8758
23.6424
23.4441
23.2828
23.1328
22.9578
22.7283
22.4384
22.1137
21.8149
21.6112
21.5368
21.555
21.6109
21.6616
21.6983
21.7328
21.7791
21.8485
21.9419
22.0469
22.1493
22.2492
22.3643
22.5152
22.7087
22.9308
23.1543
23.3561
23.5331
23.7047
23.8975
24.1235
24.3988
24.655
24.8411
24.7106
24.2951
23.5703
22.7325
22.1335
21.9801
22.2771
22.8162
23.3908
23.8011
24.041
24.1727
24.2825
24.432
24.6637
24.9434
25.1018
25.0542
24.6161
23.7033
21.0017
22.4439
24.0962
25.4209
26.455
27.2644
27.9657
28.6028
29.1741
29.6616
30.0408
30.2865
30.331
30.1224
29.5573
28.5189
26.8672
24.3993
20.8228
15.655
7.53927
-0.658828
-7.26527
-9.24455
-10.6777
-10.9145
-9.31111
-6.93982
-4.6815
-2.83887
-1.43662
-0.374157
0.609409
1.46942
2.36123
3.23552
4.02805
4.68862
5.19917
5.56186
5.77927
5.85883
5.82706
5.81876
5.77223
5.89045
6.15796
6.52668
6.91407
7.26928
7.54476
7.75559
7.89122
7.96543
7.98682
7.98277
7.96526
7.95321
7.95343
7.95996
7.94055
7.8789
7.75632
7.5577
7.28837
6.97989
6.68333
6.45331
6.332
6.34859
6.44314
6.56558
6.66362
6.71378
6.71899
6.72103
6.75695
6.82269
6.90883
7.00705
7.11433
7.22599
7.33111
7.40807
7.42868
7.3697
7.2302
7.02869
6.79527
6.55755
6.35163
6.20311
6.13198
6.1423
6.22262
6.35164
6.50254
6.65022
6.76808
6.84582
6.87577
6.86197
6.82329
6.78436
6.77021
6.79023
6.8409
6.92654
7.05039
7.2075
7.38329
7.56328
7.74601
7.92167
8.11574
8.33433
8.58349
8.86866
9.19364
9.55573
9.9422
10.3405
10.7452
11.1649
11.6138
12.0889
12.552
12.9383
13.1661
13.0258
12.3489
13.553
29.901
29.9696
30.1469
30.3165
30.4606
30.5653
30.6199
30.6122
30.5081
30.2233
29.6653
28.7636
27.6858
26.7984
26.378
25.2036
25.2278
24.9661
24.5006
24.1472
23.8545
23.6308
23.5323
23.604
23.8355
24.1724
24.5062
24.6836
24.7202
24.6418
24.5085
24.365
24.2915
24.2593
24.2624
24.2847
24.3163
24.3547
24.3981
24.4434
24.4894
24.5324
24.5723
24.6034
24.6321
24.6665
24.6898
24.7095
24.7238
24.7087
24.6452
24.4989
24.2903
24.0515
23.8089
23.5808
23.3859
23.2262
23.0776
22.9034
22.6761
22.3938
22.0769
21.7871
21.5879
21.5078
21.5371
21.5942
21.6426
21.6739
21.7028
21.7452
21.8118
21.9034
22.009
22.1162
22.2252
22.3525
22.516
22.7187
22.944
23.1652
23.3611
23.5318
23.696
23.8789
24.0956
24.344
24.5844
24.7385
24.663
24.2686
23.5842
22.7098
22.0099
21.7695
22.0607
22.6307
23.3162
23.8064
24.0868
24.2169
24.3153
24.4605
24.6765
24.9165
25.1531
25.1451
24.9667
24.276
23.1599
24.0202
25.2708
26.2559
26.95
27.3642
27.6982
28.0318
28.3634
28.6676
28.8933
29.047
29.0026
28.7009
28.0457
26.9433
25.2876
22.9519
19.7806
15.5898
10.2584
4.74561
0.0921816
-2.88531
-4.58157
-5.22968
-4.72628
-3.61138
-2.3584
-1.21611
-0.244841
0.587566
1.4598
2.20366
2.9862
3.75559
4.45509
5.03924
5.49124
5.81481
6.01345
6.08814
6.06
5.99022
5.96317
6.04721
6.25936
6.56016
6.87048
7.15769
7.41914
7.6439
7.81065
7.93671
8.01335
8.04697
8.05311
8.04846
8.03955
8.02824
7.97761
7.88138
7.72527
7.50152
7.22012
6.91501
6.63688
6.43529
6.34242
6.36085
6.45641
6.56603
6.68111
6.71155
6.70031
6.69095
6.71482
6.77979
6.87552
6.98952
7.11421
7.24163
7.35905
7.44202
7.46293
7.39619
7.24509
7.03363
6.80022
6.557
6.35509
6.20713
6.13122
6.13672
6.21533
6.34304
6.4901
6.63422
6.72752
6.78231
6.79792
6.7845
6.75945
6.74449
6.75629
6.80171
6.8748
6.97367
7.10331
7.26228
7.43055
7.5962
7.75173
7.88026
8.01429
8.17425
8.3715
8.61174
8.8932
9.20623
9.53286
9.85556
10.1636
10.4613
10.7558
11.0361
11.253
11.3164
11.1038
10.3392
8.87893
7.86506
29.8633
29.8932
29.9834
30.0788
30.1567
30.2
30.1958
30.1237
29.9549
29.6493
29.1694
28.5137
27.7682
27.0928
26.5833
26.2167
25.9402
25.4855
24.816
24.4221
24.0301
23.6857
23.5388
23.576
23.8007
24.1582
24.4766
24.6875
24.7606
24.7163
24.6417
24.5531
24.459
24.4052
24.3781
24.3676
24.3649
24.3678
24.378
24.3911
24.4178
24.4455
24.4788
24.4891
24.5073
24.5254
24.5463
24.572
24.5903
24.5775
24.5015
24.3664
24.1801
23.9601
23.7368
23.5189
23.327
23.1674
23.0197
22.8523
22.6395
22.3827
22.0848
21.8186
21.628
21.5499
21.5636
21.6128
21.6532
21.6751
21.6932
21.7261
21.7848
21.8695
21.9708
22.0783
22.1926
22.3284
22.5009
22.7095
22.9361
23.1555
23.3433
23.5046
23.6588
23.8284
24.0251
24.2413
24.4437
24.5654
24.5033
24.1568
23.5079
22.7241
22.034
21.7711
21.9906
22.5883
23.2917
23.7939
24.0887
24.2173
24.3102
24.4584
24.6877
24.9673
25.2247
25.3768
25.1571
24.7635
24.2677
24.8207
25.8844
26.9042
27.437
27.585
27.5974
27.639
27.7349
27.885
27.9816
28.0057
27.8762
27.4865
26.7516
25.5947
23.9488
21.7537
18.9623
15.5662
11.6777
7.7439
4.29906
1.7407
0.0703276
-0.821937
-0.978424
-0.689604
-0.178325
0.403988
0.993547
1.57781
2.24744
2.89858
3.57817
4.24162
4.84217
5.34454
5.7346
6.01701
6.1992
6.28382
6.28375
6.24031
6.21593
6.26629
6.41181
6.62028
6.84499
7.06205
7.269
7.53675
7.70982
7.89839
8.03294
8.11075
8.14073
8.13864
8.11576
8.07196
7.99331
7.86837
7.68738
7.44802
7.16344
6.86768
6.61077
6.43534
6.36435
6.39194
6.48438
6.61575
6.70017
6.72946
6.71056
6.67842
6.6813
6.72843
6.82041
6.94269
7.08353
7.22525
7.35382
7.44143
7.46218
7.39508
7.24256
7.03431
6.81492
6.58207
6.39695
6.2633
6.18727
6.17863
6.23943
6.35346
6.48619
6.60833
6.68376
6.71584
6.71456
6.69714
6.67796
6.68116
6.71631
6.79326
6.90016
7.02426
7.1632
7.31858
7.466
7.59435
7.7262
7.78868
7.87062
7.97988
8.1282
8.31985
8.55104
8.8079
9.06917
9.31479
9.53162
9.71902
9.87838
9.99093
10.0122
9.8488
9.38322
8.49134
6.99604
5.22332
29.758
29.7727
29.8131
29.8566
29.8847
29.8816
29.8334
29.7234
29.5324
29.2406
28.8357
28.3296
27.7726
27.2405
26.778
26.3819
26.0137
25.6342
25.1776
24.817
24.3498
23.8414
23.734
23.7189
23.8303
24.1555
24.4241
24.6268
24.7411
24.7773
24.7418
24.7248
24.654
24.5842
24.5231
24.4727
24.4303
24.3949
24.3673
24.3436
24.3469
24.3528
24.3487
24.3637
24.3675
24.3661
24.379
24.3898
24.3918
24.3712
24.312
24.208
24.0605
23.8717
23.6767
23.47
23.2805
23.12
22.9705
22.8113
22.621
22.4
22.1449
21.9066
21.728
21.6402
21.6324
21.6629
21.6929
21.7088
21.72
21.7432
21.7904
21.8624
21.9518
22.0515
22.1633
22.2993
22.4724
22.6797
22.9002
23.1236
23.3014
23.4516
23.5921
23.7431
23.9126
24.0895
24.2434
24.3267
24.2628
23.981
23.4627
22.8014
22.2931
21.9743
22.102
22.5934
23.2237
23.7395
24.0308
24.1551
24.2481
24.4087
24.6581
24.9628
25.2437
25.3946
25.2918
25.052
24.8745
25.4174
26.5402
27.5628
27.9181
27.753
27.4664
27.2224
27.0895
27.0495
27.0907
27.0398
26.8388
26.3822
25.5866
24.397
22.7801
20.7266
18.257
15.4409
12.4258
9.47355
6.8672
4.80442
3.31745
2.35014
1.82878
1.64411
1.67613
1.87782
2.17102
2.52831
2.96762
3.50084
4.07579
4.64473
5.15933
5.58869
5.92262
6.16633
6.33003
6.42166
6.45126
6.44182
6.43387
6.46713
6.56743
6.68702
6.82332
6.97058
7.15312
7.37108
7.60963
7.84217
8.02713
8.14469
8.19636
8.19714
8.16053
8.09256
7.99019
7.84628
7.65425
7.41396
7.1382
6.85534
6.61839
6.46084
6.40032
6.42955
6.51782
6.6386
6.73715
6.76442
6.74958
6.70434
6.67841
6.69901
6.77018
6.88955
7.03599
7.18635
7.32237
7.40788
7.42574
7.36215
7.22026
7.02401
6.83549
6.60939
6.45325
6.34509
6.2793
6.25954
6.29455
6.38021
6.48931
6.57947
6.64376
6.65703
6.64065
6.61656
6.60415
6.61225
6.66121
6.75949
6.89348
7.04185
7.18825
7.33047
7.45607
7.54704
7.58172
7.63363
7.68554
7.76045
7.87197
8.01563
8.1922
8.38824
8.58331
8.75752
8.89685
8.99546
9.05174
9.02552
8.90669
8.60289
8.02039
7.07232
5.7444
4.08807
29.6217
29.6272
29.6402
29.6495
29.6426
29.6072
29.5311
29.4022
29.2088
28.9411
28.5971
28.189
27.7461
27.3057
26.8938
26.5132
26.1509
25.7952
25.4308
25.0795
24.7578
24.4306
24.2168
23.9524
23.7826
24.0596
24.2482
24.5099
24.7389
24.8811
24.9328
24.9103
24.8387
24.7469
24.652
24.5625
24.481
24.4086
24.3471
24.3113
24.2671
24.228
24.2234
24.2207
24.216
24.2116
24.2115
24.2129
24.2112
24.1944
24.1508
24.07
23.9498
23.7946
23.6228
23.4462
23.273
23.0885
22.944
22.7933
22.6223
22.4337
22.2258
22.0269
21.8681
21.7719
21.7386
21.7444
21.7606
21.7727
21.7824
21.8005
21.837
21.8943
21.9678
22.0542
22.1564
22.2843
22.448
22.6466
22.8637
23.0722
23.2392
23.3789
23.5026
23.6288
23.7614
23.8906
23.9937
24.0369
23.9752
23.7627
23.3927
22.931
22.5165
22.2762
22.3443
22.7098
23.2177
23.6631
23.9236
24.0366
24.1307
24.3041
24.5678
24.8773
25.1587
25.3209
25.3122
25.2388
25.3209
25.9854
27.1485
28.0234
28.1138
27.6682
27.0982
26.6233
26.3271
26.1931
26.1697
26.0844
25.8505
25.3577
24.5323
23.3424
21.7823
19.8757
17.6827
15.2996
12.8634
10.5499
8.51249
6.84201
5.54548
4.57896
3.89286
3.44617
3.16676
3.17538
3.18752
3.36068
3.62024
4.00367
4.47198
4.95824
5.40373
5.7737
6.06228
6.27523
6.42293
6.51612
6.56628
6.58291
6.60317
6.63947
6.68858
6.74569
6.81404
6.89701
7.03357
7.23871
7.49693
7.76391
7.98823
8.13726
8.20707
8.21479
8.16946
8.08647
7.96936
7.81699
7.62663
7.39992
7.14487
6.87969
6.6661
6.51961
6.45896
6.47985
6.56009
6.66317
6.74112
6.79385
6.79184
6.75495
6.7168
6.71023
6.75736
6.86141
7.00377
7.15005
7.28247
7.34864
7.35533
7.29579
7.17587
7.01117
6.82185
6.6467
6.51429
6.42446
6.37077
6.34843
6.36373
6.41954
6.49753
6.57107
6.61037
6.61001
6.58517
6.55655
6.54367
6.55851
6.61524
6.72442
6.86573
7.02236
7.15978
7.2762
7.35326
7.39023
7.40391
7.42755
7.46803
7.52602
7.61494
7.71582
7.83958
7.97365
8.10514
8.21975
8.30066
8.32797
8.292
8.19412
7.96786
7.57907
6.96248
6.05569
4.83415
3.27161
29.4746
29.4743
29.4708
29.4586
29.4285
29.372
29.2801
29.1443
28.9576
28.7158
28.4201
28.0799
27.7129
27.3394
26.9748
26.6236
26.2835
25.953
25.6404
25.3775
25.2186
25.1566
24.8492
24.2468
23.858
24.1285
24.3742
24.6637
24.9023
25.0489
25.0863
25.0446
24.955
24.8448
24.7285
24.6127
24.5025
24.401
24.3198
24.2474
24.1921
24.1482
24.1222
24.106
24.0951
24.089
24.0881
24.0905
24.0926
24.0737
24.0352
23.9621
23.8525
23.7137
23.558
23.3955
23.2329
23.0885
22.9154
22.8113
22.6447
22.4799
22.3242
22.1611
22.0225
21.9244
21.8722
21.855
21.8552
21.8607
21.8688
21.8827
21.9102
21.9547
22.0136
22.087
22.1784