/*--------------------------------*- C++ -*----------------------------------*\
  =========                 |
  \\      /  F ield         | OpenFOAM: The Open Source CFD Toolbox
   \\    /   O peration     | Website:  https://openfoam.org
    \\  /    A nd           | Version:  7
     \\/     M anipulation  |
\*---------------------------------------------------------------------------*/
FoamFile
{
    version     2.0;
    format      ascii;
    class       surfaceScalarField;
    location    "450";
    object      phi;
}
// * * * * * * * * * * * * * * * * * * * * * * * * * * * * * * * * * * * * * //

dimensions      [0 3 -1 0 0 0 0];

internalField   nonuniform List<scalar> 
240592
(
-7.76581e-12
-1.81956e-13
7.94775e-12
1.9361e-11
-3.20293e-11
-1.14988e-11
2.4167e-11
4.63784e-11
-6.19056e-11
-1.45472e-11
3.00744e-11
-9.57225e-11
-1.57281e-11
3.296e-11
7.84906e-11
1.12949e-10
-1.29779e-10
-1.54765e-11
3.23069e-11
1.45895e-10
-1.61015e-10
-1.40044e-11
2.91244e-11
1.75104e-10
-1.88272e-10
-1.23155e-11
2.54837e-11
2.00607e-10
-2.1218e-10
-1.08622e-11
2.24351e-11
2.22963e-10
-2.3275e-10
-9.22791e-12
1.90151e-11
2.41234e-10
-2.48159e-10
-6.65628e-12
1.35814e-11
2.53242e-10
-2.55644e-10
-3.85329e-12
6.25539e-12
2.56099e-10
-2.55734e-10
1.06701e-12
-1.43241e-12
2.53289e-10
-2.48488e-10
3.57572e-12
-8.37617e-12
-2.34166e-10
6.28326e-12
-1.41087e-11
2.41991e-10
2.24937e-10
-2.1443e-10
8.58774e-12
-1.90943e-11
2.02747e-10
-1.90084e-10
1.05423e-11
-2.32054e-11
1.76562e-10
-1.62399e-10
1.18335e-11
-2.59962e-11
1.47738e-10
-1.32809e-10
1.23546e-11
-2.72832e-11
1.17733e-10
-1.02584e-10
1.25663e-11
-2.77154e-11
8.7329e-11
-7.19624e-11
1.27881e-11
-2.81547e-11
5.65394e-11
-4.12366e-11
1.27871e-11
-2.809e-11
2.61954e-11
-1.14193e-11
8.67804e-12
-2.34541e-11
-1.99938e-11
-2.11934e-11
9.03465e-12
3.21524e-11
-5.81493e-11
5.25335e-11
-8.69332e-11
-1.29281e-12
9.38414e-11
-7.04165e-11
1.2312e-10
-1.61626e-10
-2.24689e-12
1.11169e-10
-7.64236e-11
2.01278e-10
-2.41884e-10
-2.38793e-12
1.19417e-10
-7.47003e-11
2.82121e-10
-3.21598e-10
-2.30013e-12
1.16476e-10
-6.74373e-11
3.59049e-10
-3.94469e-10
-2.22286e-12
1.0508e-10
-5.90855e-11
4.27298e-10
-4.58044e-10
-2.12275e-12
9.19544e-11
-5.19272e-11
4.86383e-10
-5.12826e-10
-2.03717e-12
8.04081e-11
-4.39549e-11
5.36795e-10
-5.58438e-10
-1.94297e-12
6.75407e-11
-3.18607e-11
5.76933e-10
-5.92301e-10
-1.81369e-12
4.90422e-11
-1.59011e-11
6.0366e-10
-6.11205e-10
-1.64717e-12
2.50931e-11
1.76004e-12
6.14147e-10
-6.12828e-10
-1.4371e-12
-1.64233e-12
1.74266e-11
6.07043e-10
-5.97666e-10
-1.25561e-12
-2.5548e-11
3.03346e-11
5.84449e-10
-5.67693e-10
-1.16924e-12
-4.59219e-11
4.1642e-11
5.47255e-10
-5.24071e-10
-9.53911e-13
-6.38727e-11
5.12681e-11
4.97684e-10
-4.68717e-10
-8.27359e-13
-7.94084e-11
5.80557e-11
4.37007e-10
-4.0351e-10
-7.31779e-13
-9.0821e-11
6.15885e-11
3.68145e-10
-3.3187e-10
-6.71177e-13
-9.71922e-11
6.29583e-11
2.94564e-10
-2.56957e-10
-6.43143e-13
-9.9922e-11
6.41123e-11
2.18721e-10
-1.80318e-10
-6.15887e-13
-1.019e-10
6.44863e-11
1.41369e-10
-1.02745e-10
-7.70037e-13
-1.02341e-10
5.38451e-11
-2.59438e-11
-5.18202e-12
-8.62135e-11
6.34942e-11
-4.57763e-11
-2.60523e-11
1.14976e-11
6.03308e-11
6.21741e-11
-1.30849e-10
-1.00059e-10
-3.9276e-13
1.69127e-10
-1.52177e-10
1.38924e-10
-1.78904e-10
-1.31551e-12
1.93472e-10
-1.61854e-10
2.19186e-10
-2.59675e-10
-1.33124e-12
2.03674e-10
-1.57495e-10
2.99445e-10
-3.38327e-10
-1.33392e-12
1.9771e-10
-1.42254e-10
3.75392e-10
-4.10645e-10
-1.34347e-12
1.7885e-10
-1.24431e-10
4.43384e-10
-4.73913e-10
-1.35582e-12
1.56315e-10
-1.08125e-10
5.01667e-10
-5.26998e-10
-1.36597e-12
1.34822e-10
-9.00807e-11
5.49379e-10
-5.69155e-10
-1.37387e-12
1.1123e-10
-6.53642e-11
5.85772e-10
-5.99526e-10
-1.38522e-12
8.05036e-11
-3.39678e-11
6.09808e-10
-6.16934e-10
-1.40101e-12
4.24946e-11
2.51482e-13
6.20417e-10
-6.20764e-10
-1.41254e-12
1.50798e-12
3.1836e-11
6.17395e-10
-6.10695e-10
-1.4162e-12
-3.7119e-11
5.95508e-11
6.00164e-10
-5.86233e-10
-1.41782e-12
-7.20642e-11
8.46032e-11
5.68401e-10
-5.47231e-10
-1.41917e-12
-1.04354e-10
1.06575e-10
5.22303e-10
-4.94293e-10
-1.42497e-12
-1.33161e-10
1.23176e-10
4.62978e-10
-4.29248e-10
-1.42957e-12
-1.55478e-10
1.32916e-10
3.93018e-10
-3.55253e-10
-1.43622e-12
-1.69245e-10
1.37474e-10
3.15882e-10
-2.75769e-10
-1.43858e-12
-1.7615e-10
1.40339e-10
2.34762e-10
-1.93588e-10
-1.43297e-12
-1.8008e-10
1.40836e-10
1.51933e-10
-1.106e-10
-1.5643e-12
-1.80605e-10
1.19022e-10
-2.90249e-11
-6.2488e-12
-1.52892e-10
6.91436e-11
-7.58331e-11
-2.95667e-11
1.32453e-11
9.21544e-11
6.98502e-11
-2.09377e-10
-1.11397e-10
-2.42637e-13
2.51166e-10
-2.35568e-10
1.52834e-10
-1.94406e-10
-1.26795e-12
2.78407e-10
-2.45572e-10
2.35483e-10
-2.76176e-10
-1.27789e-12
2.87542e-10
-2.37848e-10
3.15869e-10
-3.5462e-10
-1.28156e-12
2.77881e-10
-2.15567e-10
3.91697e-10
-4.27101e-10
-1.29208e-12
2.52263e-10
-1.8827e-10
4.60021e-10
-4.90534e-10
-1.30994e-12
2.20092e-10
-1.61177e-10
5.17926e-10
-5.42433e-10
-1.32747e-12
1.87011e-10
-1.31658e-10
5.63564e-10
-5.81786e-10
-1.34266e-12
1.51222e-10
-9.50023e-11
5.96761e-10
-6.0902e-10
-1.35698e-12
1.08619e-10
-5.09313e-11
6.18156e-10
-6.24604e-10
-1.3727e-12
5.87518e-11
-3.79423e-12
6.27871e-10
-6.28392e-10
-1.38007e-12
5.69572e-12
4.14031e-11
6.25614e-10
-6.19871e-10
-1.3804e-12
-4.5766e-11
8.3352e-11
6.1059e-10
-5.98119e-10
-1.38555e-12
-9.44378e-11
1.2294e-10
5.81875e-10
-5.62258e-10
-1.39899e-12
-1.41159e-10
1.58793e-10
5.38804e-10
-5.12108e-10
-1.41574e-12
-1.84073e-10
1.87191e-10
4.81877e-10
-4.48866e-10
-1.42203e-12
-2.1878e-10
2.05565e-10
4.12845e-10
-3.74677e-10
-1.42179e-12
-2.42311e-10
2.15438e-10
3.34243e-10
-2.92445e-10
-1.41409e-12
-2.55822e-10
2.20785e-10
2.49264e-10
-2.05603e-10
-1.40502e-12
-2.63041e-10
2.2132e-10
1.61385e-10
-1.17391e-10
-1.55067e-12
-2.63763e-10
1.87626e-10
-3.08293e-11
-6.42161e-12
-2.23626e-10
7.32515e-11
-1.09338e-10
-3.35656e-11
1.54737e-11
1.2743e-10
7.87847e-11
-2.95079e-10
-1.24511e-10
-5.65146e-14
3.40862e-10
-3.22705e-10
1.69536e-10
-2.14041e-10
-1.20901e-12
3.68419e-10
-3.30397e-10
2.57429e-10
-2.99951e-10
-1.22497e-12
3.74144e-10
-3.18558e-10
3.41112e-10
-3.81103e-10
-1.2355e-12
3.59784e-10
-2.89568e-10
4.19268e-10
-4.55666e-10
-1.25126e-12
3.27217e-10
-2.52391e-10
4.89454e-10
-5.20651e-10
-1.27267e-12
2.8486e-10
-2.13012e-10
5.48473e-10
-5.73144e-10
-1.29315e-12
2.38976e-10
-1.70681e-10
5.94191e-10
-6.12136e-10
-1.31042e-12
1.89936e-10
-1.22016e-10
6.26676e-10
-6.38372e-10
-1.32218e-12
1.35034e-10
-6.63425e-11
6.46833e-10
-6.52468e-10
-1.33011e-12
7.33072e-11
-7.34292e-12
6.54765e-10
-6.54132e-10
-1.33615e-12
8.04603e-12
5.02797e-11
6.50136e-10
-6.4323e-10
-1.34546e-12
-5.58404e-11
1.05418e-10
6.32978e-10
-6.19792e-10
-1.35957e-12
-1.17244e-10
1.58946e-10
6.03198e-10
-5.83583e-10
-1.37617e-12
-1.77185e-10
2.08746e-10
5.60454e-10
-5.3426e-10
-1.38783e-12
-2.33552e-10
2.49856e-10
5.04594e-10
-4.71988e-10
-1.39078e-12
-2.81071e-10
2.79033e-10
4.36015e-10
-3.97333e-10
-1.38925e-12
-3.16327e-10
2.96833e-10
3.55738e-10
-3.12128e-10
-1.38298e-12
-3.3906e-10
3.06423e-10
2.66558e-10
-2.20075e-10
-1.37285e-12
-3.51534e-10
3.07462e-10
1.72757e-10
-1.25605e-10
-1.53693e-12
-3.53077e-10
2.60836e-10
-3.28358e-11
-6.67324e-12
-2.99653e-10
7.83257e-11
-1.46533e-10
-3.8459e-11
1.82069e-11
1.66785e-10
8.95329e-11
-3.89377e-10
-1.40772e-10
1.62196e-13
4.40454e-10
-4.16348e-10
1.90741e-10
-2.39685e-10
-1.15151e-12
4.66443e-10
-4.19574e-10
2.86956e-10
-3.32829e-10
-1.16905e-12
4.66616e-10
-4.0223e-10
3.76793e-10
-4.19095e-10
-1.1837e-12
4.45714e-10
-3.65731e-10
4.59102e-10
-4.96988e-10
-1.1995e-12
4.04816e-10
-3.1801e-10
5.32014e-10
-5.64336e-10
-1.22114e-12
3.51553e-10
-2.65564e-10
5.93262e-10
-6.1905e-10
-1.24542e-12
2.92597e-10
-2.09751e-10
6.41225e-10
-6.60234e-10
-1.26867e-12
2.30029e-10
-1.48393e-10
6.75687e-10
-6.87977e-10
-1.28136e-12
1.61963e-10
-8.01951e-11
6.96609e-10
-7.0187e-10
-1.28324e-12
8.67387e-11
-8.16431e-12
7.03223e-10
-7.0105e-10
-1.28824e-12
7.27988e-12
6.22996e-11
6.95035e-10
-6.85774e-10
-1.30445e-12
-7.02565e-11
1.29903e-10
6.73054e-10
-6.57466e-10
-1.32526e-12
-1.44167e-10
1.95877e-10
6.38737e-10
-6.17359e-10
-1.34141e-12
-2.15914e-10
2.58404e-10
5.92912e-10
-5.65758e-10
-1.35087e-12
-2.84208e-10
3.12235e-10
5.35379e-10
-5.02079e-10
-1.35323e-12
-3.44182e-10
3.53925e-10
4.65241e-10
-4.25354e-10
-1.35668e-12
-3.92455e-10
3.82161e-10
3.82037e-10
-3.36102e-10
-1.35254e-12
-4.26744e-10
3.98008e-10
2.87656e-10
-2.37826e-10
-1.3451e-12
-4.46492e-10
4.00224e-10
1.86861e-10
-1.35913e-10
-1.52242e-12
-4.4965e-10
3.39884e-10
-3.55553e-11
-7.10964e-12
-3.82013e-10
8.47944e-11
-1.88323e-10
-4.3887e-11
2.09294e-11
2.11281e-10
1.01898e-10
-4.94795e-10
-1.59859e-10
3.95862e-13
5.5236e-10
-5.19507e-10
2.16177e-10
-2.71029e-10
-1.09547e-12
5.75455e-10
-5.16048e-10
3.23643e-10
-3.74242e-10
-1.11959e-12
5.67767e-10
-4.90919e-10
4.22231e-10
-4.67894e-10
-1.13937e-12
5.3772e-10
-4.45104e-10
5.10677e-10
-5.50906e-10
-1.1557e-12
4.86489e-10
-3.86133e-10
5.88032e-10
-6.22389e-10
-1.17445e-12
4.21664e-10
-3.20766e-10
6.53434e-10
-6.81455e-10
-1.20022e-12
3.49987e-10
-2.51487e-10
7.05955e-10
-7.27221e-10
-1.22263e-12
2.73976e-10
-1.76419e-10
7.44684e-10
-7.58541e-10
-1.23475e-12
1.9151e-10
-9.35384e-11
7.68156e-10
-7.73686e-10
-1.23391e-12
1.00303e-10
-5.9125e-12
7.74565e-10
-7.71196e-10
-1.23924e-12
3.7827e-12
7.93149e-11
7.63289e-10
-7.51512e-10
-1.25332e-12
-8.98393e-11
1.59834e-10
7.35783e-10
-7.16867e-10
-1.27114e-12
-1.77479e-10
2.37298e-10
6.94643e-10
-6.69795e-10
-1.28697e-12
-2.60859e-10
3.11039e-10
6.42049e-10
-6.11924e-10
-1.29881e-12
-3.39866e-10
3.76859e-10
5.78888e-10
-5.43287e-10
-1.30578e-12
-4.11155e-10
4.31669e-10
5.04404e-10
-4.62417e-10
-1.31404e-12
-4.72343e-10
4.72443e-10
4.16778e-10
-3.68095e-10
-1.31493e-12
-5.19812e-10
4.96664e-10
3.16318e-10
-2.62504e-10
-1.3128e-12
-5.49165e-10
5.01142e-10
2.06998e-10
-1.51025e-10
-1.51178e-12
-5.55605e-10
4.26099e-10
-3.97862e-11
-7.89505e-12
-4.72981e-10
9.45638e-11
-2.3581e-10
-4.97127e-11
2.34681e-11
2.62054e-10
1.15693e-10
-6.13827e-10
-1.81499e-10
6.32465e-13
6.79e-10
-6.34972e-10
2.4531e-10
-3.07201e-10
-1.05289e-12
6.97916e-10
-6.22463e-10
3.66327e-10
-4.22799e-10
-1.08001e-12
6.80014e-10
-5.86874e-10
4.76087e-10
-5.26484e-10
-1.09734e-12
6.38368e-10
-5.29787e-10
5.73571e-10
-6.17753e-10
-1.11246e-12
5.75081e-10
-4.5897e-10
6.58653e-10
-6.96685e-10
-1.13084e-12
4.98133e-10
-3.81e-10
7.31374e-10
-7.62969e-10
-1.14876e-12
4.13743e-10
-2.9809e-10
7.90874e-10
-8.15187e-10
-1.15933e-12
3.23562e-10
-2.07714e-10
8.352e-10
-8.50971e-10
-1.16603e-12
2.24652e-10
-1.07515e-10
8.61835e-10
-8.67948e-10
-1.17532e-12
1.14803e-10
-1.44767e-12
8.68806e-10
-8.64797e-10
-1.19044e-12
-1.37195e-12
1.01272e-10
8.55593e-10
-8.41816e-10
-1.20618e-12
-1.13843e-10
1.96699e-10
8.23363e-10
-8.01015e-10
-1.22098e-12
-2.17825e-10
2.86425e-10
7.74738e-10
-7.45385e-10
-1.23564e-12
-3.14542e-10
3.70736e-10
7.12852e-10
-6.77876e-10
-1.24714e-12
-4.04465e-10
4.47154e-10
6.40177e-10
-6.00221e-10
-1.25555e-12
-4.85854e-10
5.1435e-10
5.57358e-10
-5.11794e-10
-1.26569e-12
-5.58649e-10
5.68558e-10
4.62834e-10
-4.10682e-10
-1.27399e-12
-6.19436e-10
6.03661e-10
3.54976e-10
-2.96519e-10
-1.28244e-12
-6.60836e-10
6.12916e-10
2.35437e-10
-1.72915e-10
-1.50321e-12
-6.73934e-10
5.22948e-10
-4.61856e-11
-9.0043e-12
-5.76797e-10
1.09039e-10
-2.90127e-10
-5.60655e-11
2.61258e-11
3.20066e-10
1.30818e-10
-7.48504e-10
-2.05345e-10
8.73006e-13
8.22157e-10
-7.64916e-10
2.77608e-10
-3.47514e-10
-1.02191e-12
8.35844e-10
-7.41116e-10
4.14223e-10
-4.77782e-10
-1.04749e-12
8.05722e-10
-6.92999e-10
5.37769e-10
-5.94517e-10
-1.06062e-12
7.50807e-10
-6.23271e-10
6.47719e-10
-6.97829e-10
-1.07316e-12
6.74454e-10
-5.40022e-10
7.44466e-10
-7.8802e-10
-1.08375e-12
5.84659e-10
-4.48917e-10
8.27916e-10
-8.64292e-10
-1.08813e-12
4.86382e-10
-3.50874e-10
8.96369e-10
-9.24126e-10
-1.09063e-12
3.79721e-10
-2.42686e-10
9.46798e-10
-9.64443e-10
-1.10287e-12
2.61434e-10
-1.2256e-10
9.76498e-10
-9.83245e-10
-1.12458e-12
1.30432e-10
4.20052e-12
9.84281e-10
-9.79967e-10
-1.1448e-12
-7.36973e-12
1.26991e-10
9.69979e-10
-9.54814e-10
-1.16206e-12
-1.40995e-10
2.40293e-10
9.34297e-10
-9.09066e-10
-1.17961e-12
-2.64344e-10
3.44777e-10
8.79134e-10
-8.45298e-10
-1.19378e-12
-3.77419e-10
4.40849e-10
8.07603e-10
-7.66858e-10
-1.1998e-12
-4.80394e-10
5.27333e-10
7.23e-10
-6.7668e-10
-1.20099e-12
-5.72453e-10
6.05456e-10
6.27523e-10
-5.75874e-10
-1.21036e-12
-6.55894e-10
6.72529e-10
5.21077e-10
-4.63355e-10
-1.22562e-12
-7.29026e-10
7.20556e-10
4.02093e-10
-3.37603e-10
-1.24531e-12
-7.838e-10
7.38521e-10
2.69714e-10
-1.99321e-10
-1.4992e-12
-8.07415e-10
6.34622e-10
-5.3865e-11
-1.02901e-11
-6.96961e-10
1.26494e-10
-3.51869e-10
-6.29213e-11
2.92363e-11
3.85554e-10
1.47045e-10
-9.00513e-10
-2.31084e-10
1.15148e-12
9.834e-10
-9.1133e-10
3.12693e-10
-3.9171e-10
-9.82853e-13
9.91329e-10
-8.74559e-10
4.67265e-10
-5.39398e-10
-1.01015e-12
9.47702e-10
-8.12595e-10
6.07706e-10
-6.72552e-10
-1.02118e-12
8.78462e-10
-7.29419e-10
7.33648e-10
-7.91392e-10
-1.03267e-12
7.88197e-10
-6.32731e-10
8.45332e-10
-8.95719e-10
-1.0379e-12
6.84156e-10
-5.26675e-10
9.41887e-10
-9.83773e-10
-1.03428e-12
5.69596e-10
-4.10546e-10
1.02053e-09
-1.05206e-09
-1.03706e-12
4.43116e-10
-2.81319e-10
1.07763e-09
-1.09737e-09
-1.05219e-12
3.0211e-10
-1.38825e-10
1.11083e-09
-1.11838e-09
-1.07268e-12
1.47447e-10
1.04894e-11
1.11968e-09
-1.11515e-09
-1.09114e-12
-1.39352e-11
1.55434e-10
1.10445e-09
-1.08805e-09
-1.1122e-12
-1.70725e-10
2.8943e-10
1.06574e-09
-1.03814e-09
-1.13178e-12
-3.15894e-10
4.11875e-10
1.00516e-09
-9.67473e-10
-1.14099e-12
-4.48417e-10
5.2265e-10
9.25009e-10
-8.78528e-10
-1.14726e-12
-5.67983e-10
6.21114e-10
8.27899e-10
-7.73885e-10
-1.15548e-12
-6.73972e-10
7.1021e-10
7.16334e-10
-6.55902e-10
-1.17314e-12
-7.69469e-10
7.89308e-10
5.92264e-10
-5.25772e-10
-1.19106e-12
-8.5461e-10
8.50765e-10
4.55934e-10
-3.82934e-10
-1.20557e-12
-9.2256e-10
8.80458e-10
3.06395e-10
-2.26935e-10
-1.49262e-12
-9.58426e-10
7.63611e-10
-6.16194e-11
-1.15513e-11
-8.35044e-10
1.44603e-10
-4.21172e-10
-7.02419e-11
3.24836e-11
4.58931e-10
1.64486e-10
-1.07137e-09
-2.58951e-10
1.44046e-12
1.16439e-09
-1.07651e-09
3.51044e-10
-4.40507e-10
-9.42086e-13
1.16692e-09
-1.02591e-09
5.26513e-10
-6.08933e-10
-9.74451e-13
1.1093e-09
-9.49169e-10
6.87425e-10
-7.62142e-10
-9.82828e-13
1.02487e-09
-8.51461e-10
8.32841e-10
-8.99658e-10
-9.90632e-13
9.19269e-10
-7.39495e-10
9.62149e-10
-1.0203e-09
-9.97119e-13
7.98644e-10
-6.15598e-10
1.07344e-09
-1.12131e-09
-9.97029e-13
6.64469e-10
-4.77873e-10
1.16321e-09
-1.19894e-09
-1.00069e-12
5.14603e-10
-3.24265e-10
1.22792e-09
-1.25024e-09
-1.00978e-12
3.47588e-10
-1.56704e-10
1.26557e-09
-1.27419e-09
-1.02334e-12
1.66349e-10
1.74129e-11
1.27584e-09
-1.27093e-09
-1.03888e-12
-2.12812e-11
1.86595e-10
1.25926e-09
-1.24133e-09
-1.0581e-12
-2.03467e-10
3.43404e-10
1.21703e-09
-1.18696e-09
-1.07449e-12
-3.72406e-10
4.86645e-10
1.15094e-09
-1.10951e-09
-1.0842e-12
-5.26993e-10
6.16025e-10
1.06241e-09
-1.01009e-09
-1.10075e-12
-6.67238e-10
7.30802e-10
9.52374e-10
-8.89929e-10
-1.12179e-12
-7.92125e-10
8.33713e-10
8.22729e-10
-7.51651e-10
-1.14586e-12
-9.03645e-10
9.25207e-10
6.76758e-10
-5.98761e-10
-1.16471e-12
-1.00204e-09
9.99498e-10
5.17436e-10
-4.33154e-10
-1.17532e-12
-1.08261e-09
1.04133e-09
3.45594e-10
-2.55352e-10
-1.49479e-12
-1.13008e-09
9.10625e-10
-6.9138e-11
-1.28574e-11
-9.90892e-10
1.62263e-10
-4.98916e-10
-7.83208e-11
3.59114e-11
5.41326e-10
1.84008e-10
-1.26308e-09
-2.9025e-10
1.74359e-12
1.36758e-09
-1.26327e-09
3.9428e-10
-4.95831e-10
-9.10315e-13
1.36573e-09
-1.19869e-09
5.93984e-10
-6.88581e-10
-9.44094e-13
1.29423e-09
-1.10637e-09
7.7908e-10
-8.65552e-10
-9.43236e-13
1.19378e-09
-9.92315e-10
9.47435e-10
-1.02478e-09
-9.39171e-13
1.0706e-09
-8.62137e-10
1.09686e-09
-1.16366e-09
-9.38284e-13
9.29871e-10
-7.16675e-10
1.22432e-09
-1.27875e-09
-9.43513e-13
7.72045e-10
-5.5375e-10
1.32618e-09
-1.36659e-09
-9.54696e-13
5.95118e-10
-3.72522e-10
1.3994e-09
-1.42475e-09
-9.69287e-13
3.98842e-10
-1.76774e-10
1.44226e-09
-1.45222e-09
-9.87225e-13
1.8772e-10
2.51905e-11
1.45437e-09
-1.44912e-09
-1.00798e-12
-2.94303e-11
2.21047e-10
1.43635e-09
-1.41666e-09
-1.02407e-12
-2.39721e-10
4.02674e-10
1.39e-09
-1.35687e-09
-1.0363e-12
-4.3477e-10
5.69305e-10
1.31711e-09
-1.27105e-09
-1.05407e-12
-6.14311e-10
7.21469e-10
1.21836e-09
-1.15927e-09
-1.07678e-12
-7.79484e-10
8.5776e-10
1.09356e-09
-1.02187e-09
-1.10214e-12
-9.28349e-10
9.79097e-10
9.44228e-10
-8.61622e-10
-1.12653e-12
-1.06058e-09
1.0851e-09
7.74341e-10
-6.83318e-10
-1.14395e-12
-1.17498e-09
1.17203e-09
5.88665e-10
-4.90962e-10
-1.14677e-12
-1.26859e-09
1.22473e-09
3.90224e-10
-2.87236e-10
-1.49454e-12
-1.32622e-09
1.07594e-09
-7.72861e-11
-1.42074e-11
-1.16639e-09
1.81946e-10
-5.86285e-10
-8.81598e-11
4.04869e-11
6.33958e-10
2.07421e-10
-1.47868e-09
-3.27657e-10
2.10392e-12
1.59681e-09
-1.47509e-09
4.45801e-10
-5.61539e-10
-8.77938e-13
1.59171e-09
-1.39666e-09
6.73905e-10
-7.82593e-10
-9.08779e-13
1.50625e-09
-1.28777e-09
8.86915e-10
-9.86705e-10
-9.04483e-13
1.38846e-09
-1.15469e-09
1.08117e-09
-1.17016e-09
-8.9604e-13
1.24458e-09
-1.0023e-09
1.25279e-09
-1.32892e-09
-8.96439e-13
1.07932e-09
-8.30974e-10
1.39774e-09
-1.45922e-09
-9.08681e-13
8.93355e-10
-6.391e-10
1.5127e-09
-1.55828e-09
-9.21806e-13
6.85594e-10
-4.2696e-10
1.59541e-09
-1.62429e-09
-9.39038e-13
4.56779e-10
-1.99619e-10
1.64447e-09
-1.65627e-09
-9.60934e-13
2.12385e-10
3.35581e-11
1.65937e-09
-1.65424e-09
-9.84107e-13
-3.77063e-11
2.59125e-10
1.64068e-09
-1.61926e-09
-9.96467e-13
-2.79553e-10
4.68539e-10
1.58978e-09
-1.55274e-09
-1.00443e-12
-5.04572e-10
6.62076e-10
1.5078e-09
-1.4554e-09
-1.01943e-12
-7.13453e-10
8.41392e-10
1.39509e-09
-1.32737e-09
-1.04643e-12
-9.08057e-10
1.00386e-09
1.25204e-09
-1.16986e-09
-1.07683e-12
-1.08495e-09
1.14789e-09
1.08093e-09
-9.86207e-10
-1.10357e-12
-1.24151e-09
1.27148e-09
8.86046e-10
-7.81338e-10
-1.11421e-12
-1.37507e-09
1.37223e-09
6.7236e-10
-5.59861e-10
-1.10741e-12
-1.48362e-09
1.43471e-09
4.44107e-10
-3.2619e-10
-1.50554e-12
-1.55112e-09
1.26256e-09
-8.75119e-11
-1.60061e-11
-1.3653e-09
2.06257e-10
-6.84631e-10
-1.00702e-10
4.65955e-11
7.38738e-10
2.36721e-10
-1.72296e-09
-3.7396e-10
2.56911e-12
1.85763e-09
-1.71652e-09
5.09122e-10
-6.41657e-10
-8.39666e-13
1.8499e-09
-1.62373e-09
7.7062e-10
-8.95317e-10
-8.75813e-13
1.7493e-09
-1.4964e-09
1.01519e-09
-1.12957e-09
-8.78645e-13
1.61167e-09
-1.34071e-09
1.23782e-09
-1.33934e-09
-8.80372e-13
1.44311e-09
-1.16141e-09
1.4334e-09
-1.5197e-09
-8.86991e-13
1.2486e-09
-9.59688e-10
1.59763e-09
-1.66703e-09
-8.95216e-13
1.02998e-09
-7.35097e-10
1.72751e-09
-1.77907e-09
-9.06555e-13
7.87564e-10
-4.88736e-10
1.82141e-09
-1.85454e-09
-9.22398e-13
5.22783e-10
-2.26466e-10
1.87823e-09
-1.8926e-09
-9.41369e-13
2.41775e-10
4.14686e-11
1.8974e-09
-1.89285e-09
-9.59522e-13
-4.50625e-11
3.00796e-10
1.87871e-09
-1.85521e-09
-9.75701e-13
-3.23319e-10
5.42961e-10
1.8221e-09
-1.77964e-09
-9.92616e-13
-5.84425e-10
7.68735e-10
1.72771e-09
-1.6667e-09
-1.00952e-12
-8.28734e-10
9.79737e-10
1.59665e-09
-1.5182e-09
-1.02724e-12
-1.05717e-09
1.17168e-09
1.43154e-09
-1.3375e-09
-1.04707e-12
-1.26468e-09
1.34129e-09
1.23623e-09
-1.12862e-09
-1.0661e-12
-1.44783e-09
1.48561e-09
1.01484e-09
-8.95677e-10
-1.07291e-12
-1.60369e-09
1.60278e-09
7.71357e-10
-6.42649e-10
-1.06868e-12
-1.73042e-09
1.67573e-09
5.09989e-10
-3.7463e-10
-1.53091e-12
-1.80955e-09
1.47479e-09
-1.00604e-10
-1.8315e-11
-1.59283e-09
2.36958e-10
-7.96735e-10
-1.15757e-10
5.32776e-11
8.59214e-10
2.72322e-10
-2.00249e-09
-4.30289e-10
3.08914e-12
2.15736e-09
-1.9929e-09
5.8559e-10
-7.37857e-10
-8.20841e-13
2.14599e-09
-1.88387e-09
8.85723e-10
-1.02868e-09
-8.59371e-13
2.02769e-09
-1.73503e-09
1.16571e-09
-1.29643e-09
-8.6203e-13
1.86661e-09
-1.5525e-09
1.4198e-09
-1.53549e-09
-8.66938e-13
1.66905e-09
-1.34161e-09
1.64251e-09
-1.74075e-09
-8.75257e-13
1.44073e-09
-1.10498e-09
1.82941e-09
-1.9085e-09
-8.89165e-13
1.18496e-09
-8.4371e-10
1.97748e-09
-2.03653e-09
-9.05821e-13
9.03674e-10
-5.5957e-10
2.08521e-09
-2.12372e-09
-9.20313e-13
5.99003e-10
-2.58826e-10
2.15166e-09
-2.16918e-09
-9.33631e-13
2.77285e-10
4.81841e-11
2.17583e-09
-2.17169e-09
-9.51155e-13
-5.13707e-11
3.47061e-10
2.15625e-09
-2.12959e-09
-9.71324e-13
-3.72747e-10
6.29067e-10
2.09134e-09
-2.04179e-09
-9.87626e-13
-6.77632e-10
8.93567e-10
1.98095e-09
-1.90955e-09
-1.00282e-12
-9.63961e-10
1.1404e-09
1.828e-09
-1.73724e-09
-1.01202e-12
-1.23015e-09
1.364e-09
1.63768e-09
-1.53026e-09
-1.01932e-12
-1.4704e-09
1.56125e-09
1.41506e-09
-1.29291e-09
-1.02252e-12
-1.68238e-09
1.72948e-09
1.1638e-09
-1.02843e-09
-1.01798e-12
-1.86383e-09
1.86673e-09
8.86908e-10
-7.39964e-10
-1.01376e-12
-2.01266e-09
1.95298e-09
5.88062e-10
-4.32527e-10
-1.54964e-12
-2.10696e-09
1.71978e-09
-1.16413e-10
-2.09111e-11
-1.85637e-09
2.73914e-10
-9.2624e-10
-1.33459e-10
6.14795e-11
9.98219e-10
3.14017e-10
-2.32362e-09
-4.95961e-10
3.69813e-12
2.50186e-09
-2.31006e-09
6.74641e-10
-8.49441e-10
-8.23024e-13
2.48568e-09
-2.18153e-09
1.01895e-09
-1.18248e-09
-8.64776e-13
2.34592e-09
-2.00717e-09
1.33907e-09
-1.48829e-09
-8.65269e-13
2.15726e-09
-1.79363e-09
1.62917e-09
-1.76143e-09
-8.6743e-13
1.92675e-09
-1.54685e-09
1.88405e-09
-1.99683e-09
-8.78368e-13
1.66051e-09
-1.2708e-09
2.09893e-09
-2.1902e-09
-8.9824e-13
1.36297e-09
-9.68196e-10
2.27002e-09
-2.33847e-09
-9.1715e-13
1.03757e-09
-6.4164e-10
2.39504e-09
-2.43993e-09
-9.28147e-13
6.87456e-10
-2.97456e-10
2.47258e-09
-2.49317e-09
-9.35979e-13
3.18986e-10
5.45878e-11
2.50101e-09
-2.49619e-09
-9.43487e-13
-5.847e-11
4.00485e-10
2.47799e-09
-2.44656e-09
-9.54726e-13
-4.30966e-10
7.30218e-10
2.4015e-09
-2.34333e-09
-9.668e-13
-7.87418e-10
1.03989e-09
2.2722e-09
-2.18923e-09
-9.76009e-13
-1.12188e-09
1.32643e-09
2.09491e-09
-1.99044e-09
-9.8307e-13
-1.42991e-09
1.58413e-09
1.87624e-09
-1.75325e-09
-9.82105e-13
-1.70614e-09
1.81168e-09
1.62161e-09
-1.48197e-09
-9.75284e-13
-1.95033e-09
2.00726e-09
1.33454e-09
-1.17982e-09
-9.62284e-13
-2.16101e-09
2.16862e-09
1.01809e-09
-8.49983e-10
-9.48994e-13
-2.33579e-09
2.27187e-09
6.76077e-10
-4.97699e-10
-1.56004e-12
-2.44869e-09
2.00301e-09
-1.34182e-10
-2.39102e-11
-2.16043e-09
3.15516e-10
-1.0753e-09
-1.53908e-10
7.13286e-11
1.15788e-09
3.61617e-10
-2.69308e-09
-5.70758e-10
4.38544e-12
2.89784e-09
-2.67387e-09
7.75995e-10
-9.76446e-10
-8.23609e-13
2.87514e-09
-2.52177e-09
1.17066e-09
-1.3577e-09
-8.7851e-13
2.7097e-09
-2.31779e-09
1.53691e-09
-1.7077e-09
-8.85357e-13
2.48946e-09
-2.06945e-09
1.8694e-09
-2.02151e-09
-8.94882e-13
2.22246e-09
-1.78281e-09
2.16307e-09
-2.29371e-09
-9.05011e-13
1.91436e-09
-1.46246e-09
2.41241e-09
-2.51877e-09
-9.10868e-13
1.56974e-09
-1.11258e-09
2.612e-09
-2.69191e-09
-9.20937e-13
1.19341e-09
-7.36872e-10
2.75794e-09
-2.80995e-09
-9.31175e-13
7.89815e-10
-3.41948e-10
2.84756e-09
-2.87065e-09
-9.36052e-13
3.65975e-10
6.31186e-11
2.87875e-09
-2.8718e-09
-9.36517e-13
-6.91256e-11
4.64333e-10
2.84936e-09
-2.81159e-09
-9.36758e-13
-5.01175e-10
8.49283e-10
2.75838e-09
-2.69036e-09
-9.39931e-13
-9.16359e-10
1.21e-09
2.60798e-09
-2.51221e-09
-9.38646e-13
-1.30483e-09
1.54087e-09
2.40374e-09
-2.28355e-09
-9.35367e-13
-1.66012e-09
1.83695e-09
2.15216e-09
-2.01045e-09
-9.22599e-13
-1.97773e-09
2.09904e-09
1.85858e-09
-1.69749e-09
-9.09238e-13
-2.25923e-09
2.32583e-09
1.52739e-09
-1.34916e-09
-8.91366e-13
-2.50317e-09
2.51477e-09
1.16315e-09
-9.70221e-10
-8.761e-13
-2.70682e-09
2.63779e-09
7.71036e-10
-5.67166e-10
-1.57202e-12
-2.84009e-09
2.32879e-09
-1.52657e-10
-2.71475e-11
-2.50822e-09
3.59233e-10
-1.24632e-09
-1.7687e-10
8.19531e-11
1.34124e-09
4.15833e-10
-3.11674e-09
-6.56104e-10
5.16712e-12
3.35185e-09
-3.09076e-09
8.9166e-10
-1.12158e-09
-8.33453e-13
3.32152e-09
-2.91099e-09
1.34418e-09
-1.55873e-09
-8.9388e-13
3.12644e-09
-2.67362e-09
1.76441e-09
-1.96089e-09
-8.93722e-13
2.87099e-09
-2.38701e-09
2.14726e-09
-2.32307e-09
-9.04932e-13
2.56372e-09
-2.05625e-09
2.48712e-09
-2.63888e-09
-9.16858e-13
2.20893e-09
-1.6857e-09
2.77707e-09
-2.90104e-09
-9.18221e-13
1.81059e-09
-1.28078e-09
3.00976e-09
-3.1028e-09
-9.10567e-13
1.37473e-09
-8.46768e-10
3.17934e-09
-3.23921e-09
-9.08299e-13
9.07544e-10
-3.9133e-10
3.28184e-09
-3.30724e-09
-9.0714e-13
4.17638e-10
7.64096e-11
3.31495e-09
-3.30512e-09
-9.04545e-13
-8.533e-11
5.41441e-10
3.27747e-09
-3.23244e-09
-9.02676e-13
-5.85567e-10
9.88619e-10
3.1701e-09
-3.09119e-09
-8.97488e-13
-1.06663e-09
1.40651e-09
2.99609e-09
-2.88581e-09
-8.89073e-13
-1.5159e-09
1.78812e-09
2.76078e-09
-2.62199e-09
-8.72266e-13
-1.92603e-09
2.12929e-09
2.46982e-09
-2.30531e-09
-8.55268e-13
-2.29295e-09
2.43191e-09
2.12876e-09
-1.94132e-09
-8.3833e-13
-2.61851e-09
2.69411e-09
1.74362e-09
-1.53682e-09
-8.18113e-13
-2.90009e-09
2.91285e-09
1.32178e-09
-1.09966e-09
-8.0783e-13
-3.13416e-09
3.05605e-09
8.71596e-10
-6.39445e-10
-1.58173e-12
-3.28662e-09
2.69912e-09
-1.71283e-10
-3.015e-11
-2.90173e-09
4.04044e-10
-1.44302e-09
-2.03411e-10
9.40365e-11
1.55239e-09
4.78331e-10
-3.60394e-09
-7.54598e-10
6.04255e-12
3.87417e-09
-3.56888e-09
1.02541e-09
-1.28963e-09
-8.48358e-13
3.83394e-09
-3.35749e-09
1.54559e-09
-1.79238e-09
-9.07912e-13
3.60518e-09
-3.08295e-09
2.02937e-09
-2.25591e-09
-8.98566e-13
3.31038e-09
-2.75384e-09
2.47116e-09
-2.67439e-09
-9.01919e-13
2.95796e-09
-2.37337e-09
2.86426e-09
-3.03994e-09
-9.09308e-13
2.54996e-09
-1.94519e-09
3.2e-09
-3.34358e-09
-9.07325e-13
2.08968e-09
-1.47588e-09
3.46945e-09
-3.57695e-09
-8.93432e-13
1.58427e-09
-9.72671e-10
3.66511e-09
-3.73362e-09
-8.76274e-13
1.04206e-09
-4.45317e-10
3.78192e-09
-3.80997e-09
-8.61817e-13
4.74228e-10
9.56512e-11
3.81743e-09
-3.80456e-09
-8.46789e-13
-1.07671e-10
6.33501e-10
3.77135e-09
-3.71826e-09
-8.33954e-13
-6.85758e-10
1.15063e-09
3.6456e-09
-3.55397e-09
-8.24591e-13
-1.24144e-09
1.63351e-09
3.44384e-09
-3.31605e-09
-8.07462e-13
-1.7605e-09
2.0746e-09
3.17108e-09
-3.0098e-09
-7.88773e-13
-2.23509e-09
2.46956e-09
2.8328e-09
-2.64115e-09
-7.72515e-13
-2.66043e-09
2.81995e-09
2.43551e-09
-2.21717e-09
-7.587e-13
-3.03753e-09
3.12207e-09
1.98728e-09
-1.74723e-09
-7.45462e-13
-3.36137e-09
3.37166e-09
1.49857e-09
-1.24284e-09
-7.27398e-13
-3.62666e-09
3.53246e-09
9.81915e-10
-7.17948e-10
-1.60055e-12
-3.79483e-09
3.11625e-09
-1.91327e-10
-3.3735e-11
-3.34354e-09
4.52357e-10
-1.66945e-09
-2.34244e-10
1.08818e-10
1.79487e-09
5.50713e-10
-4.16414e-09
-8.68928e-10
7.12686e-12
4.47523e-09
-4.11857e-09
1.18106e-09
-1.48589e-09
-8.3028e-13
4.42423e-09
-3.87133e-09
1.78138e-09
-2.06657e-09
-9.02066e-13
4.15742e-09
-3.55491e-09
2.34041e-09
-2.60231e-09
-8.89817e-13
3.8177e-09
-3.17737e-09
2.85097e-09
-3.08563e-09
-8.81598e-13
3.41292e-09
-2.73968e-09
3.30455e-09
-3.50703e-09
-8.69491e-13
2.94304e-09
-2.24481e-09
3.69128e-09
-3.85648e-09
-8.4884e-13
2.41086e-09
-1.70051e-09
4.00108e-09
-4.12446e-09
-8.32316e-13
1.82473e-09
-1.11626e-09
4.22545e-09
-4.30366e-09
-8.12528e-13
1.19528e-09
-5.04777e-10
4.35843e-09
-4.38974e-09
-7.962e-13
5.36881e-10
1.21082e-10
4.39728e-09
-4.38137e-09
-7.80677e-13
-1.36208e-10
7.42342e-10
4.34202e-09
-4.27977e-09
-7.571e-13
-8.03832e-10
1.3394e-09
4.19487e-09
-4.08806e-09
-7.35318e-13
-1.44547e-09
1.89753e-09
3.95973e-09
-3.81079e-09
-7.2079e-13
-2.04575e-09
2.40831e-09
3.64183e-09
-3.45391e-09
-7.11531e-13
-2.59551e-09
2.86633e-09
3.24782e-09
-3.02495e-09
-6.91105e-13
-3.0885e-09
3.27195e-09
2.78611e-09
-2.53301e-09
-6.73536e-13
-3.52438e-09
3.61868e-09
2.26693e-09
-1.9898e-09
-6.57251e-13
-3.89515e-09
3.89998e-09
1.70342e-09
-1.4099e-09
-6.39816e-13
-4.19287e-09
4.07466e-09
1.11149e-09
-8.10945e-10
-1.63791e-12
-4.37357e-09
3.5848e-09
-2.15264e-10
-3.79588e-11
-3.84239e-09
5.10812e-10
-1.92947e-09
-2.69765e-10
1.25147e-10
2.07408e-09
6.34828e-10
-4.8094e-09
-1.00232e-09
8.38677e-12
5.1685e-09
-4.75305e-09
1.36341e-09
-1.71658e-09
-7.81191e-13
5.107e-09
-4.46545e-09
2.05945e-09
-2.39053e-09
-8.67489e-13
4.79739e-09
-4.10052e-09
2.70846e-09
-3.0121e-09
-8.50937e-13
4.40502e-09
-3.66593e-09
3.29992e-09
-3.57074e-09
-8.28978e-13
3.93759e-09
-3.16098e-09
3.82284e-09
-4.05526e-09
-8.03721e-13
3.39421e-09
-2.58846e-09
4.26637e-09
-4.45504e-09
-7.76511e-13
2.7779e-09
-1.95737e-09
4.61996e-09
-4.76025e-09
-7.54321e-13
2.09841e-09
-1.27942e-09
4.87485e-09
-4.96316e-09
-7.34324e-13
1.36847e-09
-5.70714e-10
5.02461e-09
-5.05908e-09
-7.14164e-13
6.05901e-10
1.53021e-10
5.06631e-09
-5.04662e-09
-6.90258e-13
-1.72026e-10
8.70439e-10
4.99994e-09
-4.92683e-09
-6.64175e-13
-9.42883e-10
1.56014e-09
4.82755e-09
-4.70277e-09
-6.39077e-13
-1.68428e-09
2.20585e-09
4.55301e-09
-4.37933e-09
-6.23638e-13
-2.37891e-09
2.7975e-09
4.18252e-09
-3.96396e-09
-6.15566e-13
-3.01544e-09
3.3278e-09
3.72472e-09
-3.4665e-09
-6.11433e-13
-3.58542e-09
3.79564e-09
3.1905e-09
-2.89861e-09
-6.07296e-13
-4.08692e-09
4.19159e-09
2.5926e-09
-2.27443e-09
-5.89124e-13
-4.50916e-09
4.50629e-09
1.9463e-09
-1.61035e-09
-5.69057e-13
-4.84167e-09
4.69293e-09
1.26914e-09
-9.2572e-10
-1.71634e-12
-5.03463e-09
4.11645e-09
-2.45529e-10
-4.31522e-11
-4.40873e-09
5.80959e-10
-2.22947e-09
-3.12624e-10
1.44878e-10
2.39722e-09
7.34868e-10
-5.55516e-09
-1.16301e-09
9.91748e-12
5.97338e-09
-5.48882e-09
1.58323e-09
-1.99484e-09
-6.90207e-13
5.90112e-09
-5.15578e-09
2.39493e-09
-2.7813e-09
-7.9161e-13
5.54294e-09
-4.73337e-09
3.15211e-09
-3.50555e-09
-7.73685e-13
5.08758e-09
-4.22968e-09
3.83967e-09
-4.15302e-09
-7.49777e-13
4.54378e-09
-3.64404e-09
4.44362e-09
-4.71044e-09
-7.24097e-13
3.91158e-09
-2.98009e-09
4.95174e-09
-5.16646e-09
-7.00571e-13
3.19552e-09
-2.24825e-09
5.35323e-09
-5.51119e-09
-6.73257e-13
2.40689e-09
-1.46242e-09
5.63929e-09
-5.737e-09
-6.46169e-13
1.56078e-09
-6.42162e-10
5.80384e-09
-5.83977e-09
-6.23019e-13
6.7871e-10
1.93734e-10
5.84461e-09
-5.81865e-09
-6.01393e-13
-2.19091e-10
1.02174e-09
5.76198e-09
-5.67506e-09
-5.81251e-13
-1.10809e-09
1.81862e-09
5.55819e-09
-5.41195e-09
-5.60792e-13
-1.96431e-09
2.56574e-09
5.23706e-09
-5.03465e-09
-5.45036e-13
-2.7676e-09
3.25033e-09
4.80582e-09
-4.55213e-09
-5.33708e-13
-3.50349e-09
3.86237e-09
4.27509e-09
-3.97679e-09