/*--------------------------------*- C++ -*----------------------------------*\
  =========                 |
  \\      /  F ield         | OpenFOAM: The Open Source CFD Toolbox
   \\    /   O peration     | Website:  https://openfoam.org
    \\  /    A nd           | Version:  7
     \\/     M anipulation  |
\*---------------------------------------------------------------------------*/
FoamFile
{
    version     2.0;
    format      ascii;
    class       volVectorField;
    location    "450";
    object      U;
}
// * * * * * * * * * * * * * * * * * * * * * * * * * * * * * * * * * * * * * //

dimensions      [0 1 -1 0 0 0 0];

internalField   nonuniform List<vector> 
96800
(
(-1.01658e-05 -1.6111e-08 1.02127e-05)
(-4.6833e-05 1.55447e-07 1.46908e-05)
(-9.98051e-05 2.18743e-07 1.81829e-05)
(-0.000161376 2.56281e-07 2.00825e-05)
(-0.000225391 2.63087e-07 1.97301e-05)
(-0.000285246 2.20235e-07 1.77539e-05)
(-0.000337779 1.84883e-07 1.54843e-05)
(-0.00038373 1.5225e-07 1.36692e-05)
(-0.000423793 1.19924e-07 1.16059e-05)
(-0.000455402 7.22505e-08 8.31024e-06)
(-0.000474227 -5.59752e-09 4.02134e-06)
(-0.000475825 -4.92203e-08 -1.14617e-06)
(-0.000466804 -1.03349e-07 -5.22106e-06)
(-0.000442873 -1.59448e-07 -8.80793e-06)
(-0.000408951 -2.12757e-07 -1.18334e-05)
(-0.000365589 -2.68194e-07 -1.4243e-05)
(-0.000315419 -3.0897e-07 -1.59016e-05)
(-0.000260993 -3.20547e-07 -1.66911e-05)
(-0.000204814 -3.32296e-07 -1.68891e-05)
(-0.000147956 -3.50276e-07 -1.70871e-05)
(-9.03352e-05 -2.1164e-07 -1.69398e-05)
(-3.64176e-05 -3.26245e-07 -1.58117e-05)
(-1.30649e-05 -1.42646e-07 5.03817e-05)
(-6.08045e-05 -1.17929e-08 6.79558e-05)
(-0.000122196 -2.33209e-07 8.1674e-05)
(-0.000190654 -2.38568e-07 8.82761e-05)
(-0.000260107 -2.13078e-07 8.63608e-05)
(-0.000325018 -2.16537e-07 7.79555e-05)
(-0.000382248 -2.25665e-07 6.82925e-05)
(-0.000431728 -2.17606e-07 5.98494e-05)
(-0.000473527 -1.9415e-07 5.05256e-05)
(-0.000505545 -1.56754e-07 3.68943e-05)
(-0.000525034 -9.35603e-08 1.93029e-05)
(-0.000530057 -1.86571e-08 -8.49844e-07)
(-0.000520369 6.06995e-09 -1.8304e-05)
(-0.000498194 -1.76675e-08 -3.30289e-05)
(-0.000463681 -2.67656e-08 -4.57857e-05)
(-0.000418729 -3.48593e-08 -5.68026e-05)
(-0.000364351 -6.67941e-08 -6.46526e-05)
(-0.000303354 -1.13891e-07 -6.87069e-05)
(-0.000238527 -1.46637e-07 -7.02152e-05)
(-0.000172028 -1.42158e-07 -7.12016e-05)
(-0.000104602 -1.10842e-07 -7.04503e-05)
(-3.89234e-05 -6.50408e-08 -6.38103e-05)
(-1.62334e-05 -1.5447e-07 0.000103148)
(-7.10698e-05 -2.56804e-08 0.000134007)
(-0.000138005 -1.80536e-07 0.000155038)
(-0.000208014 -1.84225e-07 0.000164591)
(-0.0002774 -1.73109e-07 0.000159878)
(-0.000342197 -1.6831e-07 0.000144411)
(-0.000399876 -1.63507e-07 0.000126194)
(-0.000448592 -1.51721e-07 0.000109356)
(-0.000487862 -1.3564e-07 9.09794e-05)
(-0.000516693 -1.16351e-07 6.66267e-05)
(-0.00053442 -9.74694e-08 3.59713e-05)
(-0.000540624 -8.39719e-08 2.52828e-06)
(-0.000535208 -8.41458e-08 -2.89493e-05)
(-0.000517537 -9.14282e-08 -5.70491e-05)
(-0.000487124 -9.15668e-08 -8.23662e-05)
(-0.000444128 -8.92503e-08 -0.000104378)
(-0.000389847 -9.54455e-08 -0.000120988)
(-0.000326725 -1.0396e-07 -0.000130577)
(-0.000257714 -1.09721e-07 -0.000134715)
(-0.000185858 -1.13414e-07 -0.000136897)
(-0.000113196 -1.41708e-07 -0.000135856)
(-4.34668e-05 -4.4535e-08 -0.00012421)
(-1.84353e-05 -2.08632e-07 0.00016352)
(-7.99493e-05 -1.68146e-09 0.000205839)
(-0.000151784 -1.43317e-07 0.000230693)
(-0.000223739 -1.54e-07 0.000239971)
(-0.000293415 -1.45755e-07 0.000232)
(-0.00035872 -1.36722e-07 0.000210308)
(-0.00041672 -1.28931e-07 0.000183686)
(-0.000464904 -1.2109e-07 0.00015692)
(-0.000501898 -1.15242e-07 0.000128069)
(-0.000528006 -1.11791e-07 9.31885e-05)
(-0.000543882 -1.09899e-07 5.15671e-05)
(-0.000550043 -1.10374e-07 7.03381e-06)
(-0.000545706 -1.11467e-07 -3.61261e-05)
(-0.00052999 -1.13059e-07 -7.6441e-05)
(-0.000501828 -1.10542e-07 -0.000114622)
(-0.000460912 -1.05411e-07 -0.000149129)
(-0.000408003 -9.81176e-08 -0.000176493)
(-0.000344744 -8.88581e-08 -0.000193895)
(-0.000273663 -7.77591e-08 -0.000203136)
(-0.000198034 -6.84967e-08 -0.000207677)
(-0.00012093 -7.29436e-08 -0.000206383)
(-4.66866e-05 -1.48967e-08 -0.000189157)
(-2.06235e-05 -2.92996e-07 0.000230257)
(-8.97932e-05 2.09289e-08 0.000283568)
(-0.000168183 -8.58743e-08 0.000309508)
(-0.000244543 -1.02174e-07 0.000316539)
(-0.000316991 -1.02375e-07 0.000304518)
(-0.000384248 -1.02998e-07 0.000276934)
(-0.000443708 -1.04079e-07 0.0002414)
(-0.000492519 -1.05279e-07 0.000203539)
(-0.000529221 -1.0743e-07 0.000163089)
(-0.000554593 -1.10442e-07 0.00011747)
(-0.00056955 -1.13369e-07 6.55198e-05)
(-0.0005741 -1.1924e-07 1.04637e-05)
(-0.000567503 -1.25797e-07 -4.33353e-05)
(-0.000549792 -1.32544e-07 -9.4774e-05)
(-0.000520796 -1.33179e-07 -0.000144781)
(-0.000480152 -1.28173e-07 -0.000191381)
(-0.000427932 -1.14428e-07 -0.000230146)
(-0.00036438 -9.3498e-08 -0.000257769)
(-0.00029157 -6.85719e-08 -0.000274888)
(-0.000212121 -4.11332e-08 -0.000283959)
(-0.000129895 -1.27041e-09 -0.00028281)
(-5.02437e-05 1.39259e-09 -0.000259311)
(-2.32753e-05 -3.96562e-07 0.000304068)
(-0.000101813 3.2267e-08 0.000368162)
(-0.000189195 -2.01624e-08 0.000393518)
(-0.000272717 -4.14874e-08 0.000396414)
(-0.00035011 -5.59403e-08 0.000379283)
(-0.000420589 -7.17006e-08 0.000344872)
(-0.000482082 -8.71987e-08 0.000300223)
(-0.000532732 -1.00914e-07 0.000250988)
(-0.000571358 -1.10279e-07 0.000198779)
(-0.000598382 -1.14033e-07 0.000141765)
(-0.000613828 -1.14506e-07 7.84063e-05)
(-0.000616589 -1.17364e-07 1.16099e-05)
(-0.000606275 -1.21317e-07 -5.34845e-05)
(-0.000583959 -1.24683e-07 -0.000115611)
(-0.00055116 -1.24972e-07 -0.000176028)
(-0.00050807 -1.21227e-07 -0.000233507)
(-0.000454601 -1.11323e-07 -0.000283617)
(-0.000389448 -9.38586e-08 -0.00032318)
(-0.000313873 -7.21773e-08 -0.000350762)
(-0.000229554 -4.27101e-08 -0.000366055)
(-0.000140889 2.45028e-08 -0.000365444)
(-5.44408e-05 2.32034e-08 -0.000335104)
(-2.65474e-05 -4.7123e-07 0.000387013)
(-0.00011581 2.78058e-08 0.000461534)
(-0.000214622 4.62741e-09 0.000485182)
(-0.000307628 -1.80148e-08 0.000482309)
(-0.000392105 -4.15142e-08 0.000458086)
(-0.000467261 -6.46216e-08 0.000415474)
(-0.000532346 -8.5676e-08 0.000361149)
(-0.000586669 -1.01952e-07 0.000301083)
(-0.000629517 -1.09878e-07 0.00023722)
(-0.000660283 -1.09697e-07 0.000167808)
(-0.000677438 -1.0427e-07 9.09738e-05)
(-0.000679228 -9.8572e-08 9.89552e-06)
(-0.000665288 -9.3301e-08 -6.84908e-05)
(-0.00063765 -8.82361e-08 -0.000142208)
(-0.000598508 -8.48918e-08 -0.0002126)
(-0.000549836 -8.38487e-08 -0.000279521)
(-0.000491837 -8.41672e-08 -0.000340033)
(-0.000423642 -8.47664e-08 -0.000391389)
(-0.000343894 -8.06143e-08 -0.000430943)
(-0.000253579 -6.98001e-08 -0.000454216)
(-0.000156547 -2.16275e-08 -0.000455024)
(-6.07855e-05 6.20451e-08 -0.000417872)
(-3.03404e-05 -5.22168e-07 0.000481469)
(-0.000131759 -3.99563e-09 0.000567623)
(-0.000243723 -3.68469e-08 0.000588488)
(-0.000348016 -4.80008e-08 0.000577881)
(-0.000441704 -5.71047e-08 0.000544289)
(-0.000524309 -6.57112e-08 0.000491671)
(-0.00059587 -7.35205e-08 0.00042713)
(-0.00065673 -8.19486e-08 0.000356111)
(-0.000705942 -8.8915e-08 0.000280155)
(-0.000741447 -9.42773e-08 0.000196785)
(-0.000760742 -9.71585e-08 0.000104037)
(-0.000762138 -9.50914e-08 6.25931e-06)
(-0.000745833 -8.91586e-08 -8.82305e-05)
(-0.000713268 -8.05444e-08 -0.000175608)
(-0.00066698 -7.34768e-08 -0.00025735)
(-0.000609944 -6.99672e-08 -0.000333774)
(-0.000543945 -7.02654e-08 -0.00040329)
(-0.000469349 -7.66383e-08 -0.000465055)
(-0.000383674 -8.22782e-08 -0.000516105)
(-0.000286169 -8.81194e-08 -0.000549342)
(-0.000178896 -8.57745e-08 -0.000554217)
(-7.03504e-05 8.26763e-08 -0.000511336)
(-3.44721e-05 -5.85303e-07 0.000589838)
(-0.000149193 -6.10957e-08 0.000688708)
(-0.000275887 -8.66998e-08 0.000706084)
(-0.000393321 -7.82749e-08 0.000685606)
(-0.000498729 -6.92413e-08 0.000640566)
(-0.000591938 -6.37703e-08 0.000576477)
(-0.000673617 -6.26665e-08 0.000500613)
(-0.000743753 -6.69558e-08 0.000417586)
(-0.000800658 -7.73475e-08 0.000327792)
(-0.000840939 -9.13732e-08 0.000228446)
(-0.000862272 -1.0482e-07 0.00011807)
(-0.000863732 -1.10521e-07 1.86739e-06)
(-0.000845984 -1.08223e-07 -0.000110651)
(-0.000809745 -1.00125e-07 -0.000214494)
(-0.000757076 -9.00978e-08 -0.000309945)
(-0.000690905 -7.9366e-08 -0.000397396)
(-0.000614149 -7.10753e-08 -0.000476047)
(-0.00052871 -6.92142e-08 -0.000546996)
(-0.000432886 -7.59967e-08 -0.000608772)
(-0.000325507 -8.8712e-08 -0.000653288)
(-0.000206072 -1.12793e-07 -0.000665988)
(-8.19154e-05 1.11471e-07 -0.000619477)
(-3.87746e-05 -6.57706e-07 0.000712758)
(-0.000167796 -7.7703e-08 0.000825716)
(-0.000310957 -9.04159e-08 0.00083902)
(-0.000443909 -8.14956e-08 0.000807403)
(-0.000563935 -8.67589e-08 0.000749894)
(-0.000671033 -9.62117e-08 0.000673663)
(-0.000765603 -1.0242e-07 0.000585443)
(-0.000846739 -1.03497e-07 0.000488486)
(-0.000911767 -1.02893e-07 0.000382075)
(-0.000957087 -1.01108e-07 0.000263916)
(-0.000980861 -1.00039e-07 0.000133705)
(-0.000982989 -9.89084e-08 -2.54779e-06)
(-0.00096394 -9.55619e-08 -0.000135124)
(-0.00092469 -8.99395e-08 -0.000257869)
(-0.000866693 -8.29616e-08 -0.000370006)
(-0.000792306 -7.38243e-08 -0.000471376)
(-0.000703561 -6.70707e-08 -0.000561624)
(-0.000603194 -6.79316e-08 -0.000642524)
(-0.000491909 -8.03313e-08 -0.0007146)
(-0.000369525 -9.79455e-08 -0.000770476)
(-0.000234816 -1.00176e-07 -0.000792583)
(-9.37609e-05 1.60503e-07 -0.0007441)
(-4.34098e-05 -7.21056e-07 0.000850462)
(-0.000187781 -6.43716e-08 0.000978931)
(-0.000349273 -1.11335e-07 0.000988406)
(-0.000500529 -1.01055e-07 0.00094555)
(-0.000638353 -1.10029e-07 0.00087531)
(-0.000762404 -1.2355e-07 0.000786368)
(-0.000872219 -1.29841e-07 0.000684218)
(-0.000965624 -1.26442e-07 0.000570683)
(-0.00103927 -1.16088e-07 0.000444172)
(-0.0010904 -1.02135e-07 0.000303541)
(-0.0011174 -8.97826e-08 0.000150401)
(-0.00112037 -8.4634e-08 -8.25335e-06)
(-0.00109979 -8.30799e-08 -0.000162621)
(-0.00105703 -8.23834e-08 -0.000305883)
(-0.000993876 -8.31942e-08 -0.000436961)
(-0.000911223 -8.33298e-08 -0.000555509)
(-0.000810087 -8.66314e-08 -0.000661278)
(-0.000692391 -9.42892e-08 -0.000755239)
(-0.00056122 -1.02497e-07 -0.000838379)
(-0.000418648 -1.04567e-07 -0.00090483)
(-0.000264517 -5.72769e-08 -0.000935748)
(-0.000105457 2.15487e-07 -0.000884976)
(-4.86479e-05 -7.63702e-07 0.00100512)
(-0.000210142 -6.63202e-08 0.00115183)
(-0.000392401 -1.73745e-07 0.00115836)
(-0.000564954 -1.34873e-07 0.00110411)
(-0.000723945 -1.05738e-07 0.00102003)
(-0.000868035 -8.86647e-08 0.000916142)
(-0.000995085 -8.28684e-08 0.000797266)
(-0.001102 -8.96377e-08 0.00066393)
(-0.00118536 -1.01691e-07 0.000514421)
(-0.00124301 -1.10791e-07 0.000348484)
(-0.00127369 -1.12035e-07 0.000169623)
(-0.0012775 -1.05669e-07 -1.43504e-05)
(-0.00125526 -9.71395e-08 -0.000192672)
(-0.00120837 -9.20536e-08 -0.000358235)
(-0.00113866 -9.67638e-08 -0.000510429)
(-0.0010462 -1.08876e-07 -0.000650024)
(-0.000931074 -1.23723e-07 -0.000775967)
(-0.000794737 -1.31682e-07 -0.000887281)
(-0.000641439 -1.23209e-07 -0.000983877)
(-0.000475093 -9.4209e-08 -0.00106123)
(-0.000297946 -8.27474e-09 -0.00109973)
(-0.000118195 2.80648e-07 -0.0010439)
(-5.45962e-05 -8.74367e-07 0.00117918)
(-0.000236921 -3.82983e-08 0.00134714)
(-0.000443924 -1.71783e-07 0.00135169)
(-0.000641532 -1.39555e-07 0.0012856)
(-0.000824885 -1.15627e-07 0.00118603)
(-0.000991194 -9.957e-08 0.00106421)
(-0.0011368 -9.01711e-08 0.00092476)
(-0.00125803 -9.18988e-08 0.000768189)
(-0.00135212 -1.01639e-07 0.000593028)
(-0.00141739 -1.11919e-07 0.000399704)
(-0.00145284 -1.13239e-07 0.000192229)
(-0.00145833 -1.01561e-07 -2.02883e-05)
(-0.00143474 -8.53903e-08 -0.000225883)
(-0.00138307 -7.71077e-08 -0.000416819)
(-0.00130427 -8.2405e-08 -0.000593693)
(-0.00119859 -1.01278e-07 -0.000758012)
(-0.00106659 -1.24182e-07 -0.000907691)
(-0.000910164 -1.39718e-07 -0.00103953)
(-0.000733935 -1.36185e-07 -0.00115226)
(-0.000542139 -1.053e-07 -0.00124225)
(-0.000338637 -9.36153e-09 -0.00128781)
(-0.000133896 3.63609e-07 -0.001224)
(-6.21568e-05 -1.00799e-06 0.00137498)
(-0.000270124 1.21268e-08 0.00156725)
(-0.000507187 -1.35379e-07 0.00157099)
(-0.000734073 -1.33466e-07 0.00149332)
(-0.000944739 -1.44545e-07 0.00137729)
(-0.00113505 -1.51547e-07 0.00123486)
(-0.00130043 -1.40527e-07 0.00107077)
(-0.00143737 -1.15368e-07 0.000886423)
(-0.00154379 -8.77906e-08 0.000681663)
(-0.00161845 -7.26592e-08 0.000457511)
(-0.00166032 -7.29239e-08 0.00021844)
(-0.00166904 -8.54576e-08 -2.58553e-05)
(-0.00164422 -1.01815e-07 -0.000262618)
(-0.00158603 -1.14011e-07 -0.000484061)
(-0.0014946 -1.15551e-07 -0.000690674)
(-0.0013716 -1.14502e-07 -0.000883788)
(-0.00121952 -1.15443e-07 -0.00105963)
(-0.00104137 -1.22421e-07 -0.00121395)
(-0.000841203 -1.28467e-07 -0.00134534)
(-0.000622432 -1.15841e-07 -0.00145011)
(-0.000389056 -3.04585e-08 -0.00150361)
(-0.000153988 4.38268e-07 -0.0014295)
(-7.15752e-05 -1.1434e-06 0.00159913)
(-0.000310509 -2.63839e-08 0.00181873)
(-0.000582984 -1.78774e-07 0.00182183)
(-0.000843337 -1.34925e-07 0.00173087)
(-0.00108463 -1.10262e-07 0.00159565)
(-0.00130184 -1.03982e-07 0.00142889)
(-0.00149017 -1.02404e-07 0.00123593)
(-0.00164592 -9.61022e-08 0.00101946)
(-0.00176731 -8.40434e-08 0.000781048)
(-0.00185331 -7.11645e-08 0.000522749)
(-0.0019031 -7.03852e-08 0.000249171)
(-0.00191536 -8.81609e-08 -3.02445e-05)
(-0.00188831 -1.1765e-07 -0.000302943)
(-0.00182088 -1.43821e-07 -0.000561041)
(-0.00171366 -1.53867e-07 -0.000803325)
(-0.00157014 -1.5023e-07 -0.00102907)
(-0.00139505 -1.38124e-07 -0.00123346)
(-0.00119237 -1.25445e-07 -0.00141249)
(-0.000965278 -1.12094e-07 -0.00156548)
(-0.000716508 -9.11894e-08 -0.00168834)
(-0.00044927 -1.24052e-08 -0.00175216)
(-0.000178234 5.01063e-07 -0.00166696)
(-8.25221e-05 -1.33164e-06 0.00185847)
(-0.000357793 -4.15884e-08 0.00210957)
(-0.000671281 -1.89043e-07 0.00211037)
(-0.000969778 -1.33115e-07 0.00200206)
(-0.00124552 -1.02442e-07 0.00184295)
(-0.00149366 -9.44027e-08 0.00164798)
(-0.0017095 -9.54117e-08 0.00142289)
(-0.00188899 -1.02145e-07 0.00117115)
(-0.00202946 -1.08371e-07 0.000895369)
(-0.00212927 -1.05641e-07 0.000598364)
(-0.00218757 -9.45942e-08 0.000285033)
(-0.00220211 -8.23257e-08 -3.54177e-05)
(-0.00217036 -8.01357e-08 -0.000351037)
(-0.00209096 -9.55994e-08 -0.000652567)
(-0.00196564 -1.23634e-07 -0.00093569)
(-0.00179955 -1.47073e-07 -0.00119693)
(-0.00159841 -1.52219e-07 -0.00143208)
(-0.00136667 -1.37056e-07 -0.00163854)
(-0.00110731 -1.13428e-07 -0.00181667)
(-0.00082305 -9.17788e-08 -0.00196147)
(-0.000516989 -3.21673e-08 -0.00203845)
(-0.000205528 5.052e-07 -0.0019418)
(-9.48134e-05 -1.58181e-06 0.0021561)
(-0.000411845 2.32335e-08 0.00244257)
(-0.000772069 -1.41132e-07 0.00244016)
(-0.00111415 -1.35605e-07 0.00231198)
(-0.00142944 -1.47861e-07 0.00212623)
(-0.00171398 -1.49352e-07 0.00189993)
(-0.00196307 -1.22868e-07 0.00163879)
(-0.00217201 -9.34209e-08 0.00134684)
(-0.00233624 -7.91385e-08 0.0010279)
(-0.00245278 -8.65906e-08 0.000685896)
(-0.00251965 -1.04603e-07 0.00032587)
(-0.00253456 -1.19569e-07 -4.32794e-05)
(-0.0024952 -1.27838e-07 -0.000409316)
(-0.00240134 -1.31929e-07 -0.00076075)
(-0.00225604 -1.35529e-07 -0.00108972)
(-0.0020648 -1.33684e-07 -0.00139095)
(-0.00183337 -1.26537e-07 -0.00166103)
(-0.00156633 -1.16318e-07 -0.00189906)
(-0.00126726 -1.06987e-07 -0.00210566)
(-0.000940023 -9.1956e-08 -0.0022747)
(-0.000589256 -3.43136e-08 -0.00236615)
(-0.000233892 5.51351e-07 -0.00225662)
(-0.000109044 -1.80914e-06 0.0024973)
(-0.00047345 -2.11965e-08 0.00282406)
(-0.000886768 -1.8395e-07 0.00281743)
(-0.00127873 -1.27087e-07 0.00266625)
(-0.001641 -1.02191e-07 0.00245095)
(-0.00196933 -1.02796e-07 0.00219026)
(-0.0022582 -1.08263e-07 0.00188876)
(-0.00250149 -1.08399e-07 0.00155059)
(-0.00269284 -9.47998e-08 0.00118111)
(-0.00282793 -7.89952e-08 0.000785775)
(-0.00290362 -8.07046e-08 0.000370635)
(-0.00291778 -1.05519e-07 -5.52288e-05)
(-0.00286914 -1.34509e-07 -0.000478754)
(-0.00275924 -1.43427e-07 -0.000886163)
(-0.00259174 -1.27174e-07 -0.00126699)
(-0.00237151 -1.09596e-07 -0.00161484)
(-0.00210363 -1.13195e-07 -0.00192686)
(-0.0017932 -1.3534e-07 -0.00220211)
(-0.00144542 -1.45659e-07 -0.00244061)
(-0.00106661 -1.05744e-07 -0.00263558)
(-0.000664812 -4.01495e-09 -0.00274134)
(-0.000262807 6.09453e-07 -0.00261481)
(-0.00012537 -2.09372e-06 0.00289078)
(-0.000544656 -4.85633e-08 0.00326396)
(-0.00101977 -2.23415e-07 0.00325132)
(-0.00147032 -1.38706e-07 0.0030726)
(-0.00188761 -9.594e-08 0.00282316)
(-0.002267 -9.21056e-08 0.00252404)
(-0.00260163 -1.11984e-07 0.00217811)
(-0.00288359 -1.33272e-07 0.00178795)
(-0.00310511 -1.36323e-07 0.00135963)
(-0.00326042 -1.20776e-07 0.000900465)
(-0.00334573 -1.02538e-07 0.000419016)
(-0.00335901 -9.67139e-08 -7.34822e-05)
(-0.00330063 -1.0448e-07 -0.000562727)
(-0.00317285 -1.12342e-07 -0.00103339)
(-0.00297913 -1.11274e-07 -0.00147337)
(-0.00272389 -1.06917e-07 -0.00187564)
(-0.00241205 -1.06266e-07 -0.00223689)
(-0.00205017 -1.16204e-07 -0.00255521)
(-0.00164563 -1.26921e-07 -0.00282935)
(-0.00120759 -1.07144e-07 -0.00305102)
(-0.000747879 -3.79763e-08 -0.00316824)
(-0.000293906 6.51496e-07 -0.00301768)
(-0.000144136 -2.41684e-06 0.00334251)
(-0.000627146 2.22256e-08 0.00376852)
(-0.00117502 -2.08509e-07 0.00374981)
(-0.00169541 -1.59402e-07 0.00354095)
(-0.00217745 -1.40545e-07 0.00325335)
(-0.0026154 -1.17997e-07 0.00290983)
(-0.00300135 -8.463e-08 0.00251145)
(-0.00332626 -6.78534e-08 0.00206066)
(-0.00358121 -8.58682e-08 0.00156423)
(-0.00375905 -1.26184e-07 0.00103152)
(-0.0038552 -1.49117e-07 0.000473574)
(-0.00386805 -1.35762e-07 -9.63508e-05)
(-0.00379901 -1.09469e-07 -0.000661634)
(-0.0036501 -1.01212e-07 -0.00120515)
(-0.00342471 -1.19713e-07 -0.0017136)
(-0.00312734 -1.35763e-07 -0.00217933)
(-0.00276424 -1.29072e-07 -0.00259845)
(-0.00234371 -1.08317e-07 -0.00296726)
(-0.00187543 -8.71775e-08 -0.00328163)
(-0.00137124 -6.18086e-08 -0.0035301)
(-0.000846057 -5.77059e-09 -0.00365411)
(-0.000331281 7.72032e-07 -0.00346968)
(-0.000166092 -2.76265e-06 0.00386175)
(-0.000722971 -1.26962e-08 0.00434947)
(-0.00135701 -2.4004e-07 0.00432527)
(-0.00196107 -1.32401e-07 0.00408275)
(-0.00252088 -1.07122e-07 0.00375094)
(-0.00302767 -1.19338e-07 0.00335474)
(-0.00347187 -1.24226e-07 0.00289432)
(-0.00384374 -1.20111e-07 0.00237237)
(-0.00413441 -1.15698e-07 0.00179716)
(-0.00433608 -1.16919e-07 0.00117986)
(-0.00444375 -1.23185e-07 0.000533653)
(-0.00445608 -1.24247e-07 -0.000125482)
(-0.00437419 -1.08521e-07 -0.000778907)
(-0.00419991 -8.19645e-08 -0.00140703)
(-0.0039367 -6.91286e-08 -0.001995)
(-0.00359065 -8.80025e-08 -0.00253371)
(-0.00316962 -1.30685e-07 -0.00301817)
(-0.00268345 -1.5398e-07 -0.00344302)
(-0.0021442 -1.22775e-07 -0.00380186)
(-0.00156642 -5.49537e-08 -0.00407992)
(-0.000966154 5.59892e-08 -0.00420974)
(-0.000378265 9.58871e-07 -0.00398416)
(-0.000192325 -3.19882e-06 0.00446204)
(-0.00083835 5.84628e-09 0.00502261)
(-0.00157669 -2.57253e-07 0.00499362)
(-0.00228146 -1.445e-07 0.00471242)
(-0.00293419 -1.04342e-07 0.00432803)
(-0.00352238 -9.91072e-08 0.00386851)
(-0.00403433 -1.09863e-07 0.00333441)
(-0.00445935 -1.28559e-07 0.00272891)
(-0.00478846 -1.34407e-07 0.00206145)
(-0.00501372 -1.23747e-07 0.00134562)
(-0.00513084 -1.22238e-07 0.000597846)
(-0.00513904 -1.3609e-07 -0.000162976)
(-0.00503962 -1.42989e-07 -0.000916756)
(-0.00483427 -1.31669e-07 -0.00164265)
(-0.0045265 -1.10742e-07 -0.00232352)
(-0.00412385 -9.95754e-08 -0.00294687)
(-0.00363666 -9.70774e-08 -0.00350499)
(-0.00307704 -9.26179e-08 -0.00399126)
(-0.00245901 -7.48111e-08 -0.00439865)
(-0.00179794 -4.11048e-08 -0.00470927)
(-0.00111036 9.85842e-08 -0.00484569)
(-0.000435341 1.15245e-06 -0.004574)
(-0.000225457 -3.73716e-06 0.00516013)
(-0.000982914 6.86843e-08 0.00580576)
(-0.00185004 -2.72015e-07 0.00577435)
(-0.00267824 -1.636e-07 0.00544955)
(-0.00344369 -1.23885e-07 0.0050014)
(-0.00412954 -1.15324e-07 0.00446313)
(-0.00472113 -1.12101e-07 0.00383826)
(-0.00520715 -1.17977e-07 0.00313234)
(-0.00557767 -1.34288e-07 0.0023565)
(-0.00582519 -1.53619e-07 0.00152638)
(-0.00594637 -1.43992e-07 0.000661751)
(-0.00594254 -9.90439e-08 -0.000215693)
(-0.00581647 -6.54753e-08 -0.00108379)
(-0.00557033 -8.35359e-08 -0.00192049)
(-0.0052082 -1.18745e-07 -0.00270618)
(-0.00473852 -1.15837e-07 -0.00342569)
(-0.00417459 -8.16356e-08 -0.0040677)
(-0.0035305 -7.74668e-08 -0.00462256)
(-0.00282178 -1.03663e-07 -0.00508269)
(-0.0020644 -7.22519e-08 -0.00542947)
(-0.0012758 1.52596e-07 -0.00557595)
(-0.000500851 1.33081e-06 -0.00525457)
(-0.000268504 -4.45175e-06 0.00598444)
(-0.00116868 8.53581e-08 0.00672996)
(-0.0021986 -2.7961e-07 0.00669536)
(-0.00318159 -1.23925e-07 0.00631756)
(-0.00408714 -9.82617e-08 0.00579109)
(-0.00489296 -1.32689e-07 0.00515627)
(-0.00558079 -1.43639e-07 0.00441955)
(-0.00613751 -1.28843e-07 0.00359034)
(-0.00655241 -1.19227e-07 0.00268331)
(-0.00681905 -1.27828e-07 0.00171757)
(-0.00693625 -1.34641e-07 0.000716756)
(-0.00690749 -1.33932e-07 -0.000294698)
(-0.00673762 -1.26958e-07 -0.00129274)
(-0.00643245 -1.1654e-07 -0.00225431)
(-0.00599904 -1.05489e-07 -0.00315788)
(-0.00544708 -9.30367e-08 -0.00398479)
(-0.00479083 -7.77815e-08 -0.00471905)
(-0.00404675 -6.49728e-08 -0.00534886)
(-0.00323235 -5.32345e-08 -0.00586686)
(-0.00236462 -1.06802e-08 -0.00625438)
(-0.00146155 1.27602e-07 -0.00641334)
(-0.000573506 1.43443e-06 -0.00603621)
(-0.000324888 -5.39951e-06 0.0069741)
(-0.00141075 2.43377e-07 0.00783553)
(-0.0026501 -2.97178e-07 0.00779508)
(-0.00383125 -1.64964e-07 0.00735117)
(-0.00491552 -1.14332e-07 0.00672669)
(-0.00587471 -9.45787e-08 0.00596971)
(-0.00668445 -9.84079e-08 0.00509217)
(-0.00732649 -1.34663e-07 0.00410885)
(-0.00778897 -1.49759e-07 0.00303978)
(-0.00806775 -1.14693e-07 0.00190932)
(-0.0081661 -8.40358e-08 0.000746937)
(-0.00809108 -9.71733e-08 -0.000418896)
(-0.00785201 -1.13129e-07 -0.00156409)
(-0.00746049 -9.39805e-08 -0.00266543)
(-0.00692842 -7.0296e-08 -0.00369925)
(-0.00626871 -7.56669e-08 -0.00464222)
(-0.00549683 -9.59364e-08 -0.00547578)
(-0.00463158 -9.8375e-08 -0.00618751)
(-0.00369224 -5.64089e-08 -0.00676983)
(-0.00269678 3.01971e-08 -0.00720171)
(-0.00166477 1.63517e-07 -0.00737182)
(-0.000652365 1.54535e-06 -0.00692779)
(-0.00039714 -6.62141e-06 0.00817715)
(-0.0017195 4.12035e-07 0.00917428)
(-0.00322763 -2.95141e-07 0.00912596)
(-0.00466688 -1.43748e-07 0.00860094)
(-0.00598793 -1.04989e-07 0.00785371)
(-0.00715166 -1.13628e-07 0.00694094)
(-0.00812269 -1.16266e-07 0.00588213)
(-0.00887503 -1.14637e-07 0.00470091)
(-0.00939373 -1.16187e-07 0.00342571)
(-0.00967717 -1.21116e-07 0.00208962)
(-0.00973406 -1.12844e-07 0.000730507)
(-0.00958006 -9.32493e-08 -0.000618772)
(-0.00923381 -1.0072e-07 -0.00193306)
(-0.00871471 -1.23876e-07 -0.00318918)
(-0.00804193 -1.07192e-07 -0.00436291)
(-0.00723468 -5.99431e-08 -0.00542868)
(-0.00631278 -5.50771e-08 -0.0063658)
(-0.00529671 -9.05348e-08 -0.00716123)
(-0.00420678 -7.13731e-08 -0.0078088)
(-0.00306275 3.30652e-08 -0.00828554)
(-0.00188546 2.13434e-07 -0.00846413)
(-0.00073694 1.77788e-06 -0.00794032)
(-0.0004839 -8.1307e-06 0.00964792)
(-0.00209243 5.96092e-07 0.0108076)
(-0.00393423 -3.15378e-07 0.0107533)
(-0.00570402 -1.38876e-07 0.0101335)
(-0.00733912 -8.27611e-08 0.00923706)
(-0.00878294 -1.12325e-07 0.00812816)
(-0.00998163 -1.22347e-07 0.0068333)
(-0.0108938 -9.60772e-08 0.00538945)
(-0.0114957 -8.11249e-08 0.0038426)
(-0.0117861 -9.33291e-08 0.00224233)
(-0.0117806 -9.837e-08 0.000636714)
(-0.0115072 -9.43636e-08 -0.000935933)
(-0.0109992 -9.24795e-08 -0.00244754)
(-0.0102914 -8.45923e-08 -0.00387532)
(-0.00941594 -8.21226e-08 -0.00519704)
(-0.0084018 -9.8348e-08 -0.00638852)
(-0.00727599 -9.77117e-08 -0.00742842)
(-0.00606416 -6.60121e-08 -0.00830501)
(-0.00478847 -3.38224e-08 -0.00901311)
(-0.00346858 2.39052e-08 -0.00952794)
(-0.00212546 2.74111e-07 -0.00970491)
(-0.000827588 2.09884e-06 -0.00908283)
(-0.000577862 -9.75546e-06 0.0114242)
(-0.00249998 7.83838e-07 0.0127858)
(-0.00472364 -3.16426e-07 0.0127448)
(-0.00689075 -1.50959e-07 0.0120291)
(-0.00892299 -8.78565e-08 0.010963)
(-0.0107431 -8.55087e-08 0.00961664)
(-0.0122712 -9.22077e-08 0.00802303)
(-0.0134376 -1.17369e-07 0.00623597)
(-0.0141968 -1.21148e-07 0.00432673)
(-0.0145363 -8.62154e-08 0.00237144)
(-0.0144735 -8.1057e-08 0.000438628)
(-0.0140488 -1.19278e-07 -0.00142089)
(-0.0133165 -1.19122e-07 -0.00317466)
(-0.0123378 -8.27485e-08 -0.00480036)
(-0.0111687 -8.45465e-08 -0.00627921)
(-0.00985848 -1.14044e-07 -0.00759212)
(-0.00844879 -9.73903e-08 -0.00872409)
(-0.0069737 -5.93578e-08 -0.00966684)
(-0.00545863 -5.23172e-08 -0.010418)
(-0.00392397 1.20189e-08 -0.0109534)
(-0.00238908 3.30814e-07 -0.011112)
(-0.000925439 2.36978e-06 -0.0103678)
(-0.000664913 -1.12372e-05 0.0135109)
(-0.00288373 8.51599e-07 0.0151265)
(-0.00548965 -2.97618e-07 0.0151386)
(-0.00808069 -1.32301e-07 0.0143505)
(-0.0105673 -1.03499e-07 0.0131201)
(-0.0128556 -1.12787e-07 0.0115161)
(-0.0148372 -1.11394e-07 0.00957198)
(-0.0164048 -1.03601e-07 0.00735705)
(-0.0174713 -8.86843e-08 0.00497291)
(-0.0179864 -9.84662e-08 0.00253435)
(-0.017946 -1.16789e-07 0.000146996)
(-0.017391 -9.68263e-08 -0.00211036)
(-0.0163977 -8.33931e-08 -0.00418858)
(-0.015062 -1.03671e-07 -0.00606109)
(-0.0134825 -1.04081e-07 -0.00771522)
(-0.0117492 -8.69442e-08 -0.009144)
(-0.00993449 -9.31244e-08 -0.010345)
(-0.0080909 -9.47408e-08 -0.0113215)
(-0.00625425 -4.40014e-08 -0.0120813)
(-0.00444667 8.62441e-08 -0.0126039)
(-0.00268321 3.83941e-07 -0.0127114)
(-0.00103219 2.57474e-06 -0.0118074)
(-0.000728639 -1.22659e-05 0.0158588)
(-0.00317517 9.4047e-07 0.0177887)
(-0.00609684 -3.372e-07 0.0179145)
(-0.00906751 -1.567e-07 0.0171078)
(-0.0120005 -6.98611e-08 0.015757)
(-0.0147966 -8.38556e-08 0.0139225)
(-0.0173294 -1.17402e-07 0.0116242)
(-0.0194578 -1.14449e-07 0.00893105)
(-0.0210405 -9.58844e-08 0.00596869)
(-0.0219607 -1.07469e-07 0.00289642)
(-0.0221525 -1.22238e-07 -0.000126268)
(-0.0216161 -1.1279e-07 -0.00296543)
(-0.0204228 -9.6034e-08 -0.00552589)
(-0.0187002 -1.02879e-07 -0.00775603)
(-0.016604 -1.34804e-07 -0.00964243)
(-0.0142921 -1.29739e-07 -0.0111935)
(-0.0119006 -9.83944e-08 -0.0124309)
(-0.00952979 -1.13708e-07 -0.013385)
(-0.00724267 -8.4851e-08 -0.0140884)
(-0.00506956 1.01019e-07 -0.014536)
(-0.00301949 4.72956e-07 -0.0145361)
(-0.00115044 2.8461e-06 -0.0134189)
(-0.000756521 -1.25476e-05 0.0183668)
(-0.00332061 9.70291e-07 0.0206721)
(-0.00643745 -3.55407e-07 0.0209839)
(-0.00967968 -1.42353e-07 0.0202357)
(-0.0129712 -1.03249e-07 0.0188463)
(-0.016222 -1.29722e-07 0.0168612)
(-0.0193097 -9.7855e-08 0.0142728)
(-0.0220816 -1.00575e-07 0.011129)
(-0.0243569 -1.32922e-07 0.00755371)
(-0.0259494 -1.18896e-07 0.00373122)
(-0.0266984 -1.05404e-07 -0.000122248)
(-0.0265037 -1.31063e-07 -0.0037907)
(-0.0253638 -1.33019e-07 -0.00709214)
(-0.0233887 -1.22301e-07 -0.0099029)
(-0.0207743 -1.30414e-07 -0.0121732)
(-0.0177638 -1.20247e-07 -0.0139139)
(-0.0145983 -1.14099e-07 -0.0151767)
(-0.0114789 -1.26221e-07 -0.0160372)
(-0.00854327 -6.13191e-08 -0.0165813)
(-0.00585652 1.31551e-07 -0.0168461)
(-0.00342458 6.04633e-07 -0.0166418)
(-0.0012879 3.40981e-06 -0.0152292)
(-0.000743632 -1.19752e-05 0.0209075)
(-0.003302 9.16174e-07 0.023645)
(-0.00647342 -4.02387e-07 0.0242135)
(-0.00984532 -1.43917e-07 0.0236071)
(-0.0133533 -7.07608e-08 0.022277)
(-0.0169223 -9.18477e-08 0.0202518)
(-0.0204486 -9.16117e-08 0.0174913)
(-0.0237963 -9.06388e-08 0.014009)
(-0.0267873 -9.66957e-08 0.00989818)
(-0.0292043 -1.28488e-07 0.00532734)
(-0.0308066 -1.37383e-07 0.000533526)
(-0.031368 -9.94845e-08 -0.00419759)
(-0.0307377 -1.21307e-07 -0.008568)
(-0.0289011 -1.66182e-07 -0.0123173)
(-0.0260116 -1.41175e-07 -0.0152873)
(-0.0223573 -1.54994e-07 -0.0174305)
(-0.0182997 -1.99665e-07 -0.0187993)
(-0.0142002 -1.5603e-07 -0.0195226)
(-0.0103508 -5.45981e-08 -0.019774)
(-0.00692204 1.29536e-07 -0.0196847)
(-0.00395259 7.81201e-07 -0.0191162)
(-0.00146158 4.20958e-06 -0.0172836)
(-0.000692596 -1.06506e-05 0.0233492)
(-0.00313012 7.45716e-07 0.0265721)
(-0.00622417 -4.42517e-07 0.0274645)
(-0.00958359 -1.82515e-07 0.0270753)
(-0.0131489 -8.12507e-08 0.0258894)
(-0.0168567 -6.91135e-08 0.0239269)
(-0.0206236 -1.06811e-07 0.0211231)
(-0.0243452 -1.23028e-07 0.0174569)
(-0.027881 -1.14371e-07 0.0129764)
(-0.0310394 -1.25771e-07 0.0078013)
(-0.0335678 -1.27245e-07 0.0021322)
(-0.0351641 -1.44578e-07 -0.0037384)
(-0.0355203 -1.68234e-07 -0.00943382)
(-0.0344065 -1.55859e-07 -0.0145309)
(-0.0317902 -1.36777e-07 -0.0186737)
(-0.027872 -1.32741e-07 -0.0216453)
(-0.0230667 -1.62866e-07 -0.0234042)
(-0.0179031 -1.70646e-07 -0.0240826)
(-0.0128985 -6.96859e-08 -0.0239483)
(-0.00844093 1.82685e-07 -0.02329)
(-0.00469878 1.02038e-06 -0.0221136)
(-0.00170388 5.18607e-06 -0.0196669)
(-0.000608012 -8.72297e-06 0.0255766)
(-0.00282662 4.44657e-07 0.0293349)
(-0.00572495 -4.94867e-07 0.0306068)
(-0.00893975 -1.75451e-07 0.0304935)
(-0.0124084 -7.77643e-08 0.0295135)
(-0.0160698 -8.91182e-08 0.0276866)
(-0.0198553 -7.58853e-08 0.0249371)
(-0.0236915 -6.79862e-08 0.0212247)
(-0.0274843 -1.10971e-07 0.0165613)
(-0.031102 -1.14948e-07 0.0110083)
(-0.0343469 -9.27302e-08 0.0046922)
(-0.0369319 -1.19409e-07 -0.00215931)
(-0.038489 -1.29175e-07 -0.00918964)
(-0.0386134 -1.31557e-07 -0.0159065)
(-0.0369569 -1.82016e-07 -0.0217089)
(-0.0334747 -2.21077e-07 -0.0261056)
(-0.0284467 -1.95392e-07 -0.0287954)
(-0.0224677 -1.70554e-07 -0.0297715)
(-0.0162835 -1.0349e-07 -0.0293332)
(-0.0105781 2.69987e-07 -0.0279427)
(-0.00578514 1.38806e-06 -0.025861)
(-0.00206124 6.43035e-06 -0.0225239)
(-0.000493456 -6.11107e-06 0.0274858)
(-0.00240434 1.33558e-07 0.0318279)
(-0.00499046 -5.81685e-07 0.0335224)
(-0.00792945 -1.83741e-07 0.0337224)
(-0.0111482 -6.45474e-08 0.0329825)
(-0.0145832 -7.47724e-08 0.0313314)
(-0.0181744 -8.5985e-08 0.0286946)
(-0.0218713 -1.14545e-07 0.0250301)
(-0.0256226 -1.03386e-07 0.020333)
(-0.0293594 -9.91122e-08 0.0146211)
(-0.0329631 -1.43149e-07 0.00794533)