/*--------------------------------*- C++ -*----------------------------------*\
  =========                 |
  \\      /  F ield         | OpenFOAM: The Open Source CFD Toolbox
   \\    /   O peration     | Website:  https://openfoam.org
    \\  /    A nd           | Version:  7
     \\/     M anipulation  |
\*---------------------------------------------------------------------------*/
FoamFile
{
    version     2.0;
    format      ascii;
    class       volScalarField;
    location    "2";
    object      ddt0(h);
}
// * * * * * * * * * * * * * * * * * * * * * * * * * * * * * * * * * * * * * //

dimensions      [0 1 -1 0 0 0 0];

internalField   nonuniform List<scalar> 
400
(
3.11114e-07
3.1813e-07
3.22095e-07
3.3016e-07
3.30581e-07
3.3193e-07
3.42983e-07
3.55949e-07
3.64447e-07
3.71654e-07
3.72914e-07
3.42342e-07
2.67404e-07
1.98916e-07
1.78388e-07
1.5331e-07
1.12001e-07
8.67473e-08
4.64141e-08
1.61738e-08
2.96277e-07
2.99177e-07
3.09601e-07
3.19076e-07
3.20901e-07
3.24975e-07
3.36283e-07
3.46526e-07
3.52103e-07
3.58338e-07
3.62833e-07
3.4179e-07
2.75543e-07
1.98529e-07
1.61778e-07
1.38555e-07
1.01915e-07
7.77884e-08
4.19771e-08
2.01078e-08
2.94837e-07
2.99902e-07
3.06144e-07
3.14725e-07
3.17366e-07
3.23165e-07
3.33082e-07
3.38602e-07
3.39571e-07
3.44421e-07
3.53476e-07
3.44282e-07
2.87394e-07
1.98804e-07
1.40389e-07
1.18153e-07
8.93606e-08
7.11607e-08
4.58721e-08
1.23637e-08
2.99452e-07
2.916e-07
2.93481e-07
2.98254e-07
3.00574e-07
3.07365e-07
3.14558e-07
3.15961e-07
3.15485e-07
3.22206e-07
3.36926e-07
3.40766e-07
3.02e-07
2.17116e-07
1.36852e-07
9.71596e-08
6.76056e-08
4.26097e-08
2.6765e-08
8.47023e-09
2.9979e-07
2.93052e-07
2.98501e-07
3.03769e-07
3.07356e-07
3.12193e-07
3.14055e-07
3.12288e-07
3.1364e-07
3.25128e-07
3.46073e-07
3.61697e-07
3.43267e-07
2.71999e-07
1.75353e-07
1.05329e-07
6.74614e-08
4.03412e-08
2.07206e-08
6.73209e-09
2.91429e-07
2.91433e-07
2.9894e-07
3.02957e-07
3.03787e-07
3.03933e-07
3.02843e-07
3.03664e-07
3.11926e-07
3.3028e-07
3.55935e-07
3.78528e-07
3.77186e-07
3.28527e-07
2.34545e-07
1.35018e-07
6.57993e-08
2.7744e-08
9.2133e-09
1.37257e-09
2.84943e-07
2.8637e-07
2.92868e-07
2.93915e-07
2.92606e-07
2.92622e-07
2.95615e-07
3.0453e-07
3.21396e-07
3.45107e-07
3.71937e-07
3.95597e-07
4.04029e-07
3.78326e-07
3.05846e-07
2.00896e-07
9.93651e-08
2.81553e-08
-6.22402e-09
-7.46673e-09
2.54918e-07
2.66268e-07
2.78834e-07
2.84148e-07
2.87922e-07
2.94311e-07
3.05098e-07
3.21481e-07
3.42907e-07
3.66888e-07
3.9033e-07
4.10114e-07
4.20843e-07
4.11248e-07
3.66795e-07
2.83231e-07
1.77719e-07
8.01098e-08
1.49307e-08
-3.63585e-09
1.78115e-07
1.96197e-07
2.12766e-07
2.22563e-07
2.31024e-07
2.41284e-07
2.54404e-07
2.70471e-07
2.88341e-07
3.06077e-07
3.21923e-07
3.3471e-07
3.42679e-07
3.40775e-07
3.19518e-07
2.70237e-07
1.95115e-07
1.10767e-07
4.05911e-08
6.09394e-09
6.37905e-08
7.26286e-08
8.04705e-08
8.55521e-08
9.00312e-08
9.50349e-08
1.00894e-07
1.07523e-07
1.14428e-07
1.20931e-07
1.26499e-07
1.30876e-07
1.3373e-07
1.33727e-07
1.27761e-07
1.12033e-07
8.55492e-08
5.28317e-08
2.26362e-08
4.73696e-09
-6.37442e-08
-7.25862e-08
-8.04263e-08
-8.55079e-08
-8.99934e-08
-9.5008e-08
-1.0088e-07
-1.07524e-07
-1.14445e-07
-1.20964e-07
-1.2655e-07
-1.30946e-07
-1.33817e-07
-1.33825e-07
-1.27858e-07
-1.12112e-07
-8.55966e-08
-5.28402e-08
-2.2615e-08
-4.72197e-09
-1.78052e-07
-1.96131e-07
-2.12692e-07
-2.22484e-07
-2.30947e-07
-2.41215e-07
-2.54345e-07
-2.70423e-07
-2.88305e-07
-3.06054e-07
-3.21915e-07
-3.34719e-07
-3.42704e-07
-3.4081e-07
-3.19552e-07
-2.70258e-07
-1.95112e-07
-1.1074e-07
-4.05545e-08
-6.07607e-09
-2.54835e-07
-2.66177e-07
-2.78732e-07
-2.84039e-07
-2.87814e-07
-2.94209e-07
-3.05003e-07
-3.21395e-07
-3.42829e-07
-3.66819e-07
-3.90273e-07
-4.10071e-07
-4.20813e-07
-4.11227e-07
-3.66774e-07
-2.832e-07
-1.77675e-07
-8.00606e-08
-1.48925e-08
3.65007e-09
-2.84848e-07
-2.8627e-07
-2.92759e-07
-2.93801e-07
-2.92495e-07
-2.92517e-07
-2.95517e-07
-3.0444e-07
-3.21312e-07
-3.45029e-07
-3.71869e-07
-3.95542e-07
-4.03985e-07
-3.78291e-07
-3.0581e-07
-2.00849e-07
-9.93095e-08
-2.81085e-08
6.25019e-09
7.47413e-09
-2.91334e-07
-2.91335e-07
-2.98835e-07
-3.02846e-07
-3.03677e-07
-3.03829e-07
-3.02745e-07
-3.03573e-07
-3.1184e-07
-3.302e-07
-3.55864e-07
-3.78469e-07
-3.77141e-07
-3.28488e-07
-2.34499e-07
-1.34955e-07
-6.57339e-08
-2.76955e-08
-9.18628e-09
-1.36378e-09
-2.99693e-07
-2.92958e-07
-2.98401e-07
-3.03664e-07
-3.07249e-07
-3.12089e-07
-3.13956e-07
-3.12195e-07
-3.13552e-07
-3.25046e-07
-3.45999e-07
-3.61638e-07
-3.43224e-07
-2.71957e-07
-1.75289e-07
-1.05247e-07
-6.7384e-08
-4.02804e-08
-2.06809e-08
-6.7165e-09
-2.99367e-07
-2.91509e-07
-2.93386e-07
-2.98155e-07
-3.00473e-07
-3.07265e-07
-3.14462e-07
-3.15869e-07
-3.15396e-07
-3.22122e-07
-3.36853e-07
-3.40711e-07
-3.0196e-07
-2.17064e-07
-1.36769e-07
-9.70635e-08
-6.75162e-08
-4.25355e-08
-2.6716e-08
-8.45116e-09
-2.94753e-07
-2.99816e-07
-3.06054e-07
-3.14633e-07
-3.17273e-07
-3.23074e-07
-3.32993e-07
-3.38515e-07
-3.39486e-07
-3.4434e-07
-3.53409e-07
-3.44236e-07
-2.87357e-07
-1.98741e-07
-1.40289e-07
-1.18043e-07
-8.92556e-08
-7.10715e-08
-4.58089e-08
-1.2336e-08
-2.96195e-07
-2.99094e-07
-3.09517e-07
-3.1899e-07
-3.20811e-07
-3.24884e-07
-3.36194e-07
-3.46439e-07
-3.52017e-07
-3.58256e-07
-3.62767e-07
-3.41745e-07
-2.75498e-07
-1.98446e-07
-1.61661e-07
-1.38433e-07
-1.01793e-07
-7.76822e-08
-4.19017e-08
-2.00774e-08
-3.11035e-07
-3.18051e-07
-3.22014e-07
-3.30081e-07
-3.30504e-07
-3.31855e-07
-3.4291e-07
-3.55876e-07
-3.64373e-07
-3.71585e-07
-3.7286e-07
-3.42308e-07
-2.67357e-07
-1.98815e-07
-1.78253e-07
-1.53171e-07
-1.11859e-07
-8.66186e-08
-4.63173e-08
-1.61317e-08
)
;

boundaryField
{
    sides
    {
        type            calculated;
        value           nonuniform List<scalar> 
40
(
-3.11035e-07
-3.18051e-07
-3.22014e-07
-3.30081e-07
-3.30504e-07
-3.31855e-07
-3.4291e-07
-3.55876e-07
-3.64373e-07
-3.71585e-07
-3.7286e-07
-3.42308e-07
-2.67357e-07
-1.98815e-07
-1.78253e-07
-1.53171e-07
-1.11859e-07
-8.66186e-08
-4.63173e-08
-1.61317e-08
3.11114e-07
3.1813e-07
3.22095e-07
3.3016e-07
3.30581e-07
3.3193e-07
3.42983e-07
3.55949e-07
3.64447e-07
3.71654e-07
3.72914e-07
3.42342e-07
2.67404e-07
1.98916e-07
1.78388e-07
1.5331e-07
1.12001e-07
8.67473e-08
4.64141e-08
1.61738e-08
)
;
    }
    inlet
    {
        type            calculated;
        value           nonuniform List<scalar> 
20
(
3.11114e-07
2.96277e-07
2.94837e-07
2.99452e-07
2.9979e-07
2.91429e-07
2.84943e-07
2.54918e-07
1.78115e-07
6.37905e-08
-6.37442e-08
-1.78052e-07
-2.54835e-07
-2.84848e-07
-2.91334e-07
-2.99693e-07
-2.99367e-07
-2.94753e-07
-2.96195e-07
-3.11035e-07
)
;
    }
    outlet
    {
        type            calculated;
        value           uniform 0;
    }
    frontAndBack
    {
        type            empty;
    }
}


// ************************************************************************* //
