/*--------------------------------*- C++ -*----------------------------------*\
  =========                 |
  \\      /  F ield         | OpenFOAM: The Open Source CFD Toolbox
   \\    /   O peration     | Website:  https://openfoam.org
    \\  /    A nd           | Version:  7
     \\/     M anipulation  |
\*---------------------------------------------------------------------------*/
FoamFile
{
    version     2.0;
    format      ascii;
    class       volVectorField;
    location    "2";
    object      hU;
}
// * * * * * * * * * * * * * * * * * * * * * * * * * * * * * * * * * * * * * //

dimensions      [0 2 -1 0 0 0 0];

internalField   nonuniform List<vector> 
400
(
(0.00100001 -8.67774e-09 0)
(0.000999988 -2.99568e-08 0)
(0.000999967 -5.78164e-08 0)
(0.00099997 -7.93364e-08 0)
(0.000999989 -8.90762e-08 0)
(0.00100001 -9.04947e-08 0)
(0.00100002 -8.85855e-08 0)
(0.00100004 -8.63845e-08 0)
(0.00100005 -8.47686e-08 0)
(0.00100006 -8.3623e-08 0)
(0.00100007 -8.27644e-08 0)
(0.00100008 -8.22441e-08 0)
(0.00100009 -8.24235e-08 0)
(0.00100011 -8.34597e-08 0)
(0.00100013 -8.5492e-08 0)
(0.00100015 -8.83874e-08 0)
(0.00100018 -9.20057e-08 0)
(0.00100023 -1.03787e-07 0)
(0.00100025 -1.03909e-07 0)
(0.00100038 -1.5747e-07 0)
(0.00100001 4.61443e-09 0)
(0.000999991 1.23644e-08 0)
(0.000999975 8.05583e-09 0)
(0.000999978 1.57826e-10 0)
(0.000999992 -3.73292e-09 0)
(0.00100001 -2.9577e-09 0)
(0.00100002 8.14721e-12 0)
(0.00100003 2.90573e-09 0)
(0.00100004 5.04674e-09 0)
(0.00100005 6.66794e-09 0)
(0.00100006 7.97798e-09 0)
(0.00100006 8.72677e-09 0)
(0.00100008 8.14298e-09 0)
(0.00100009 5.8507e-09 0)
(0.00100011 1.92147e-09 0)
(0.00100013 -3.59376e-09 0)
(0.00100016 -1.03346e-08 0)
(0.00100019 -2.99341e-08 0)
(0.00100022 -3.29534e-08 0)
(0.00100028 -1.12179e-07 0)
(0.00100001 -2.79403e-09 0)
(0.000999988 -2.02074e-08 0)
(0.000999973 -5.33736e-08 0)
(0.000999977 -8.24167e-08 0)
(0.00099999 -9.66945e-08 0)
(0.001 -9.92487e-08 0)
(0.00100002 -9.67722e-08 0)
(0.00100003 -9.35268e-08 0)
(0.00100004 -9.08193e-08 0)
(0.00100004 -8.86075e-08 0)
(0.00100005 -8.67564e-08 0)
(0.00100006 -8.55894e-08 0)
(0.00100007 -8.59975e-08 0)
(0.00100009 -8.87764e-08 0)
(0.0010001 -9.3883e-08 0)
(0.00100012 -1.01467e-07 0)
(0.00100015 -1.10728e-07 0)
(0.00100018 -1.3007e-07 0)
(0.0010002 -1.38734e-07 0)
(0.00100025 -1.96433e-07 0)
(0.00100001 9.53465e-10 0)
(0.000999988 -1.67557e-08 0)
(0.000999976 -5.4843e-08 0)
(0.000999982 -8.68316e-08 0)
(0.000999993 -1.00908e-07 0)
(0.001 -1.01694e-07 0)
(0.00100001 -9.72409e-08 0)
(0.00100002 -9.22541e-08 0)
(0.00100003 -8.80678e-08 0)
(0.00100004 -8.46305e-08 0)
(0.00100005 -8.17893e-08 0)
(0.00100005 -7.9812e-08 0)
(0.00100006 -7.96477e-08 0)
(0.00100007 -8.25621e-08 0)
(0.00100009 -8.9081e-08 0)
(0.00100011 -9.9247e-08 0)
(0.00100013 -1.11914e-07 0)
(0.00100015 -1.34131e-07 0)
(0.00100017 -1.46887e-07 0)
(0.0010002 -2.05869e-07 0)
(0.001 -6.42594e-10 0)
(0.000999988 -2.74777e-08 0)
(0.00099998 -7.45045e-08 0)
(0.000999986 -1.12385e-07 0)
(0.000999996 -1.2924e-07 0)
(0.00100001 -1.31016e-07 0)
(0.00100001 -1.2687e-07 0)
(0.00100002 -1.21878e-07 0)
(0.00100003 -1.17494e-07 0)
(0.00100004 -1.13805e-07 0)
(0.00100004 -1.1074e-07 0)
(0.00100005 -1.08506e-07 0)
(0.00100005 -1.07905e-07 0)
(0.00100006 -1.10295e-07 0)
(0.00100008 -1.16656e-07 0)
(0.00100009 -1.27157e-07 0)
(0.00100011 -1.40633e-07 0)
(0.00100013 -1.61657e-07 0)
(0.00100014 -1.76419e-07 0)
(0.00100017 -2.27133e-07 0)
(0.001 -2.02544e-09 0)
(0.00099999 -3.79021e-08 0)
(0.000999984 -9.23821e-08 0)
(0.00099999 -1.34027e-07 0)
(0.000999998 -1.52019e-07 0)
(0.00100001 -1.53769e-07 0)
(0.00100001 -1.49245e-07 0)
(0.00100002 -1.43766e-07 0)
(0.00100003 -1.38907e-07 0)
(0.00100003 -1.34871e-07 0)
(0.00100004 -1.31622e-07 0)
(0.00100004 -1.29235e-07 0)
(0.00100005 -1.28213e-07 0)
(0.00100005 -1.29736e-07 0)
(0.00100006 -1.35143e-07 0)
(0.00100007 -1.45154e-07 0)
(0.00100009 -1.58901e-07 0)
(0.0010001 -1.78987e-07 0)
(0.00100012 -1.95067e-07 0)
(0.00100013 -2.40005e-07 0)
(0.001 -4.89423e-09 0)
(0.000999991 -4.98816e-08 0)
(0.000999989 -1.10025e-07 0)
(0.000999994 -1.54051e-07 0)
(0.001 -1.72641e-07 0)
(0.00100001 -1.74309e-07 0)
(0.00100001 -1.69521e-07 0)
(0.00100002 -1.63765e-07 0)
(0.00100002 -1.58723e-07 0)
(0.00100003 -1.54661e-07 0)
(0.00100003 -1.51526e-07 0)
(0.00100004 -1.4926e-07 0)
(0.00100004 -1.48059e-07 0)
(0.00100004 -1.48719e-07 0)
(0.00100005 -1.52569e-07 0)
(0.00100006 -1.60859e-07 0)
(0.00100007 -1.73551e-07 0)
(0.00100008 -1.92184e-07 0)
(0.00100009 -2.09222e-07 0)
(0.0010001 -2.49809e-07 0)
(0.001 -9.20339e-09 0)
(0.000999994 -6.23536e-08 0)
(0.000999993 -1.26403e-07 0)
(0.000999997 -1.71758e-07 0)
(0.001 -1.90532e-07 0)
(0.00100001 -1.92048e-07 0)
(0.00100001 -1.87097e-07 0)
(0.00100002 -1.81285e-07 0)
(0.00100002 -1.76337e-07 0)
(0.00100002 -1.72506e-07 0)
(0.00100003 -1.69683e-07 0)
(0.00100003 -1.67705e-07 0)
(0.00100003 -1.66541e-07 0)
(0.00100003 -1.66589e-07 0)
(0.00100004 -1.68858e-07 0)
(0.00100004 -1.74766e-07 0)
(0.00100005 -1.85157e-07 0)
(0.00100006 -2.01551e-07 0)
(0.00100007 -2.18999e-07 0)
(0.00100008 -2.56607e-07 0)
(0.001 -1.40513e-08 0)
(0.000999996 -7.34823e-08 0)
(0.000999996 -1.40014e-07 0)
(0.000999999 -1.86101e-07 0)
(0.001 -2.04953e-07 0)
(0.001 -2.06429e-07 0)
(0.00100001 -2.01517e-07 0)
(0.00100001 -1.9587e-07 0)
(0.00100001 -1.91205e-07 0)
(0.00100002 -1.87726e-07 0)
(0.00100002 -1.85266e-07 0)
(0.00100002 -1.83601e-07 0)
(0.00100002 -1.82576e-07 0)
(0.00100002 -1.82307e-07 0)
(0.00100002 -1.83422e-07 0)
(0.00100003 -1.87171e-07 0)
(0.00100003 -1.94912e-07 0)
(0.00100003 -2.08593e-07 0)
(0.00100004 -2.25578e-07 0)
(0.00100005 -2.61029e-07 0)
(0.001 -1.7336e-08 0)
(0.000999999 -8.02618e-08 0)
(0.000999999 -1.48076e-07 0)
(0.001 -1.94553e-07 0)
(0.001 -2.13495e-07 0)
(0.001 -2.15031e-07 0)
(0.001 -2.10236e-07 0)
(0.001 -2.04779e-07 0)
(0.001 -2.00355e-07 0)
(0.00100001 -1.97133e-07 0)
(0.00100001 -1.94913e-07 0)
(0.00100001 -1.93446e-07 0)
(0.00100001 -1.92532e-07 0)
(0.00100001 -1.92149e-07 0)
(0.00100001 -1.92691e-07 0)
(0.00100001 -1.95206e-07 0)
(0.00100001 -2.01207e-07 0)
(0.00100001 -2.12955e-07 0)
(0.00100001 -2.29229e-07 0)
(0.00100002 -2.63321e-07 0)
(0.001 -1.73354e-08 0)
(0.001 -8.02601e-08 0)
(0.001 -1.48073e-07 0)
(0.001 -1.9455e-07 0)
(0.000999999 -2.13492e-07 0)
(0.000999998 -2.15028e-07 0)
(0.000999997 -2.10234e-07 0)
(0.000999996 -2.04776e-07 0)
(0.000999995 -2.00353e-07 0)
(0.000999994 -1.97131e-07 0)
(0.000999994 -1.9491e-07 0)
(0.000999993 -1.93444e-07 0)
(0.000999993 -1.92529e-07 0)
(0.000999992 -1.92147e-07 0)
(0.000999992 -1.92689e-07 0)
(0.000999991 -1.95204e-07 0)
(0.00099999 -2.01206e-07 0)
(0.000999988 -2.12954e-07 0)
(0.000999986 -2.29228e-07 0)
(0.000999984 -2.6332e-07 0)
(0.000999999 -1.40501e-08 0)
(0.001 -7.34779e-08 0)
(0.001 -1.40007e-07 0)
(0.001 -1.86092e-07 0)
(0.000999998 -2.04944e-07 0)
(0.000999995 -2.06421e-07 0)
(0.000999992 -2.0151e-07 0)
(0.000999989 -1.95863e-07 0)
(0.000999986 -1.91199e-07 0)
(0.000999984 -1.8772e-07 0)
(0.000999982 -1.85259e-07 0)
(0.00099998 -1.83595e-07 0)
(0.000999979 -1.8257e-07 0)
(0.000999978 -1.82301e-07 0)
(0.000999977 -1.83416e-07 0)
(0.000999974 -1.87166e-07 0)
(0.00099997 -1.94908e-07 0)
(0.000999965 -2.08591e-07 0)
(0.00099996 -2.25576e-07 0)
(0.000999954 -2.61026e-07 0)
(0.000999998 -9.20228e-09 0)
(0.00100001 -6.23481e-08 0)
(0.00100001 -1.26393e-07 0)
(0.001 -1.71746e-07 0)
(0.000999998 -1.9052e-07 0)
(0.000999994 -1.92037e-07 0)
(0.000999989 -1.87087e-07 0)
(0.000999984 -1.81276e-07 0)
(0.00099998 -1.76328e-07 0)
(0.000999976 -1.72497e-07 0)
(0.000999973 -1.69674e-07 0)
(0.00099997 -1.67697e-07 0)
(0.000999968 -1.66533e-07 0)
(0.000999966 -1.6658e-07 0)
(0.000999963 -1.68851e-07 0)
(0.000999958 -1.74759e-07 0)
(0.000999951 -1.85151e-07 0)
(0.000999942 -2.01547e-07 0)
(0.000999934 -2.18995e-07 0)
(0.000999924 -2.56601e-07 0)
(0.000999997 -4.8937e-09 0)
(0.00100001 -4.98761e-08 0)
(0.00100001 -1.10014e-07 0)
(0.00100001 -1.54037e-07 0)
(0.001 -1.72626e-07 0)
(0.000999994 -1.74296e-07 0)
(0.000999988 -1.69509e-07 0)
(0.000999982 -1.63753e-07 0)
(0.000999976 -1.58712e-07 0)
(0.000999971 -1.54651e-07 0)
(0.000999967 -1.51516e-07 0)
(0.000999963 -1.4925e-07 0)
(0.00099996 -1.4805e-07 0)
(0.000999956 -1.4871e-07 0)
(0.00099995 -1.52559e-07 0)
(0.000999942 -1.6085e-07 0)
(0.000999932 -1.73544e-07 0)
(0.00099992 -1.92178e-07 0)
(0.000999909 -2.09215e-07 0)
(0.000999895 -2.498e-07 0)
(0.000999996 -2.02546e-09 0)
(0.00100001 -3.78972e-08 0)
(0.00100002 -9.23705e-08 0)
(0.00100001 -1.34012e-07 0)
(0.001 -1.52003e-07 0)
(0.000999994 -1.53754e-07 0)
(0.000999987 -1.49232e-07 0)
(0.00099998 -1.43754e-07 0)
(0.000999974 -1.38896e-07 0)
(0.000999967 -1.34861e-07 0)
(0.000999962 -1.31612e-07 0)
(0.000999957 -1.29225e-07 0)
(0.000999952 -1.28203e-07 0)
(0.000999946 -1.29726e-07 0)
(0.000999937 -1.35133e-07 0)
(0.000999926 -1.45145e-07 0)
(0.000999912 -1.58893e-07 0)
(0.000999898 -1.78979e-07 0)
(0.000999884 -1.95058e-07 0)
(0.000999865 -2.39993e-07 0)
(0.000999995 -6.42846e-10 0)
(0.00100001 -2.74736e-08 0)
(0.00100002 -7.44933e-08 0)
(0.00100001 -1.12369e-07 0)
(0.001 -1.29224e-07 0)
(0.000999995 -1.31001e-07 0)
(0.000999986 -1.26856e-07 0)
(0.000999979 -1.21865e-07 0)
(0.000999971 -1.17482e-07 0)
(0.000999964 -1.13793e-07 0)
(0.000999958 -1.10728e-07 0)
(0.000999952 -1.08495e-07 0)
(0.000999945 -1.07893e-07 0)
(0.000999936 -1.10283e-07 0)
(0.000999924 -1.16644e-07 0)
(0.00099991 -1.27146e-07 0)
(0.000999893 -1.40623e-07 0)
(0.000999874 -1.61645e-07 0)
(0.000999858 -1.76408e-07 0)
(0.000999833 -2.27116e-07 0)
(0.000999995 9.52517e-10 0)
(0.00100001 -1.67539e-08 0)
(0.00100002 -5.48357e-08 0)
(0.00100002 -8.68211e-08 0)
(0.00100001 -1.00898e-07 0)
(0.000999995 -1.01685e-07 0)
(0.000999985 -9.72333e-08 0)
(0.000999976 -9.22475e-08 0)
(0.000999968 -8.80618e-08 0)
(0.000999961 -8.46251e-08 0)
(0.000999954 -8.17842e-08 0)
(0.000999946 -7.9807e-08 0)
(0.000999938 -7.96423e-08 0)
(0.000999926 -8.25565e-08 0)
(0.000999912 -8.90755e-08 0)
(0.000999894 -9.92417e-08 0)
(0.000999874 -1.1191e-07 0)
(0.00099985 -1.34124e-07 0)
(0.00099983 -1.46883e-07 0)
(0.000999797 -2.05855e-07 0)
(0.000999994 -2.79351e-09 0)
(0.00100001 -2.02029e-08 0)
(0.00100003 -5.33628e-08 0)
(0.00100002 -8.24019e-08 0)
(0.00100001 -9.66793e-08 0)
(0.000999996 -9.92347e-08 0)
(0.000999984 -9.67592e-08 0)
(0.000999973 -9.35146e-08 0)
(0.000999964 -9.08075e-08 0)
(0.000999956 -8.85959e-08 0)
(0.000999948 -8.67448e-08 0)
(0.000999939 -8.55776e-08 0)
(0.000999929 -8.59853e-08 0)
(0.000999915 -8.87642e-08 0)
(0.000999898 -9.38712e-08 0)
(0.000999877 -1.01455e-07 0)
(0.000999853 -1.10717e-07 0)
(0.000999824 -1.30054e-07 0)
(0.000999801 -1.38722e-07 0)
(0.000999751 -1.96403e-07 0)
(0.000999993 4.61321e-09 0)
(0.00100001 1.23613e-08 0)
(0.00100003 8.05424e-09 0)
(0.00100002 1.59002e-10 0)
(0.00100001 -3.73055e-09 0)
(0.000999994 -2.95586e-09 0)
(0.000999981 8.89508e-12 0)
(0.00099997 2.90544e-09 0)
(0.000999961 5.04555e-09 0)
(0.000999952 6.666e-09 0)
(0.000999944 7.97555e-09 0)
(0.000999935 8.72434e-09 0)
(0.000999924 8.141e-09 0)
(0.000999909 5.84908e-09 0)
(0.00099989 1.91987e-09 0)
(0.000999867 -3.59512e-09 0)
(0.000999842 -1.03369e-08 0)
(0.000999806 -2.99322e-08 0)
(0.000999779 -3.29587e-08 0)
(0.000999719 -1.12173e-07 0)
(0.000999993 -8.67827e-09 0)
(0.00100001 -2.99569e-08 0)
(0.00100003 -5.78169e-08 0)
(0.00100003 -7.9337e-08 0)
(0.00100001 -8.90749e-08 0)
(0.000999991 -9.04906e-08 0)
(0.000999975 -8.85789e-08 0)
(0.000999962 -8.63763e-08 0)
(0.000999951 -8.47594e-08 0)
(0.000999942 -8.36131e-08 0)
(0.000999933 -8.27541e-08 0)
(0.000999923 -8.22332e-08 0)
(0.000999911 -8.24123e-08 0)
(0.000999894 -8.34483e-08 0)
(0.000999875 -8.5481e-08 0)
(0.000999847 -8.83755e-08 0)
(0.000999824 -9.19963e-08 0)
(0.000999767 -1.0377e-07 0)
(0.00099975 -1.03904e-07 0)
(0.00099962 -1.57445e-07 0)
)
;

boundaryField
{
    sides
    {
        type            slip;
    }
    inlet
    {
        type            fixedValue;
        value           uniform (0.001 0 0);
    }
    outlet
    {
        type            zeroGradient;
    }
    frontAndBack
    {
        type            empty;
    }
}


// ************************************************************************* //
