/*--------------------------------*- C++ -*----------------------------------*\
  =========                 |
  \\      /  F ield         | OpenFOAM: The Open Source CFD Toolbox
   \\    /   O peration     | Website:  https://openfoam.org
    \\  /    A nd           | Version:  7
     \\/     M anipulation  |
\*---------------------------------------------------------------------------*/
FoamFile
{
    version     2.0;
    format      ascii;
    class       surfaceScalarField;
    location    "2";
    object      phi;
}
// * * * * * * * * * * * * * * * * * * * * * * * * * * * * * * * * * * * * * //

dimensions      [0 4 -1 0 0 0 0];

internalField   nonuniform List<scalar> 
760
(
4.99991e-06
9.92949e-12
4.99985e-06
-2.00895e-11
4.99985e-06
-7.92582e-11
4.99991e-06
-1.39255e-10
4.99999e-06
-1.68607e-10
5.00008e-06
-1.70372e-10
5.00016e-06
-1.59965e-10
5.00022e-06
-1.48972e-10
5.00027e-06
-1.40888e-10
5.00031e-06
-1.3496e-10
5.00035e-06
-1.30398e-10
5.0004e-06
-1.27997e-10
5.00048e-06
-1.3016e-10
5.00057e-06
-1.37567e-10
5.00068e-06
-1.50303e-10
5.00082e-06
-1.68566e-10
5.00098e-06
-1.91984e-10
5.00123e-06
-2.63351e-10
5.0015e-06
-2.777e-10
-6.15792e-10
4.99994e-06
-4.18847e-12
4.99989e-06
-4.35559e-11
4.99989e-06
-1.58785e-10
4.99993e-06
-2.62908e-10
5e-06
-3.12619e-10
5.00006e-06
-3.17561e-10
5.00012e-06
-3.0316e-10
5.00017e-06
-2.86838e-10
5.00022e-06
-2.73947e-10
5.00026e-06
-2.63843e-10
5.00029e-06
-2.55662e-10
5.00034e-06
-2.50813e-10
5.00041e-06
-2.53318e-10
5.0005e-06
-2.65951e-10
5.0006e-06
-2.88664e-10
5.00072e-06
-3.22497e-10
5.00087e-06
-3.639e-10
5.00105e-06
-4.6523e-10
5.00126e-06
-4.90404e-10
-8.1592e-10
4.99992e-06
-1.98644e-12
4.99988e-06
-7.39309e-11
4.99988e-06
-2.39563e-10
4.99993e-06
-3.85468e-10
4.99999e-06
-4.53378e-10
5.00005e-06
-4.60555e-10
5.00011e-06
-4.42695e-10
5.00016e-06
-4.21842e-10
5.0002e-06
-4.04461e-10
5.00024e-06
-3.90212e-10
5.00028e-06
-3.78339e-10
5.00032e-06
-3.70438e-10
5.00038e-06
-3.71406e-10
5.00046e-06
-3.8658e-10
5.00056e-06
-4.1682e-10
5.00067e-06
-4.62156e-10
5.0008e-06
-5.18114e-10
5.00095e-06
-6.23406e-10
5.00112e-06
-6.79057e-10
-9.88414e-10
4.99992e-06
1.07835e-13
4.99989e-06
-1.12329e-10
4.9999e-06
-3.25636e-10
4.99994e-06
-5.02141e-10
5e-06
-5.81334e-10
5.00005e-06
-5.893e-10
5.0001e-06
-5.69139e-10
5.00014e-06
-5.45296e-10
5.00018e-06
-5.2469e-10
5.00021e-06
-5.07399e-10
5.00025e-06
-4.92905e-10
5.00028e-06
-4.82531e-10
5.00033e-06
-4.80951e-10
5.0004e-06
-4.95042e-10
5.00048e-06
-5.28258e-10
5.00058e-06
-5.80255e-10
5.00069e-06
-6.44991e-10
5.00081e-06
-7.52255e-10
5.00094e-06
-8.19887e-10
-1.08887e-09
4.99993e-06
-5.49978e-12
4.99991e-06
-1.60136e-10
4.99992e-06
-4.13588e-10
4.99996e-06
-6.12296e-10
5e-06
-6.99285e-10
5.00005e-06
-7.08078e-10
5.00009e-06
-6.86478e-10
5.00013e-06
-6.60332e-10
5.00016e-06
-6.37147e-10
5.0002e-06
-6.17663e-10
5.00022e-06
-6.01646e-10
5.00025e-06
-5.89822e-10
5.00029e-06
-5.85597e-10
5.00034e-06
-5.95775e-10
5.00041e-06
-6.26609e-10
5.00049e-06
-6.79839e-10
5.00058e-06
-7.49036e-10
5.00068e-06
-8.5185e-10
5.00078e-06
-9.27677e-10
-1.16707e-09
4.99994e-06
-1.60644e-11
4.99992e-06
-2.16869e-10
4.99994e-06
-5.03284e-10
4.99997e-06
-7.17639e-10
5.00001e-06
-8.09322e-10
5.00005e-06
-8.18098e-10
5.00008e-06
-7.94953e-10
5.00012e-06
-7.6683e-10
5.00015e-06
-7.4191e-10
5.00018e-06
-7.21449e-10
5.0002e-06
-7.05275e-10
5.00022e-06
-6.93395e-10
5.00025e-06
-6.8751e-10
5.00028e-06
-6.92767e-10
5.00034e-06
-7.16468e-10
5.0004e-06
-7.63887e-10
5.00048e-06
-8.31861e-10
5.00055e-06
-9.29367e-10
5.00063e-06
-1.01118e-09
-1.22499e-09
4.99995e-06
-3.4216e-11
4.99994e-06
-2.78642e-10
4.99996e-06
-5.88904e-10
4.99999e-06
-8.12373e-10
5.00002e-06
-9.05722e-10
5.00005e-06
-9.13551e-10
5.00008e-06
-8.88984e-10
5.00011e-06
-8.59768e-10
5.00013e-06
-8.34495e-10
5.00016e-06
-8.14524e-10
5.00018e-06
-7.99472e-10
5.00019e-06
-7.8872e-10
5.00021e-06
-7.82521e-10
5.00023e-06
-7.83774e-10
5.00026e-06
-7.9866e-10
5.00031e-06
-8.34548e-10
5.00037e-06
-8.93629e-10
5.00043e-06
-9.82688e-10
5.0005e-06
-1.06938e-09
-1.26602e-09
4.99996e-06
-5.97981e-11
4.99996e-06
-3.40547e-10
4.99998e-06
-6.66445e-10
5e-06
-8.94601e-10
5.00002e-06
-9.88176e-10
5.00004e-06
-9.95205e-10
5.00007e-06
-9.70153e-10
5.00009e-06
-9.41191e-10
5.00011e-06
-9.1695e-10
5.00013e-06
-8.98573e-10
5.00014e-06
-8.85352e-10
5.00015e-06
-8.76253e-10
5.00016e-06
-8.70655e-10
5.00017e-06
-8.6961e-10
5.00019e-06
-8.77136e-10
5.00023e-06
-9.0027e-10
5.00027e-06
-9.45156e-10
5.00031e-06
-1.0207e-09
5.00036e-06
-1.10749e-09
-1.29285e-09
4.99998e-06
-8.3306e-11
4.99998e-06
-3.89296e-10
4.99999e-06
-7.24876e-10
5e-06
-9.55834e-10
5.00002e-06
-1.04981e-09
5.00003e-06
-1.05692e-09
5.00005e-06
-1.03238e-09
5.00006e-06
-1.0045e-09
5.00007e-06
-9.81778e-10
5.00009e-06
-9.6511e-10
5.00009e-06
-9.53537e-10
5.0001e-06
-9.45832e-10
5.0001e-06
-9.41001e-10
5.00011e-06
-9.39051e-10
5.00012e-06
-9.4222e-10
5.00014e-06
-9.56123e-10
5.00016e-06
-9.88305e-10
5.00019e-06
-1.05005e-09
5.00022e-06
-1.13239e-09
-1.30889e-09
4.99999e-06
-9.2882e-11
4.99999e-06
-4.08065e-10
5e-06
-7.47108e-10
5e-06
-9.79156e-10
5.00001e-06
-1.07344e-09
5.00001e-06
-1.0808e-09
5.00002e-06
-1.05665e-09
5.00002e-06
-1.02935e-09
5.00003e-06
-1.00734e-09
5.00003e-06
-9.91393e-10
5.00003e-06
-9.80475e-10
5.00003e-06
-9.73307e-10
5.00004e-06
-9.68802e-10
5.00004e-06
-9.66654e-10
5.00004e-06
-9.68447e-10
5.00005e-06
-9.79096e-10
5.00005e-06
-1.00633e-09
5.00006e-06
-1.06225e-09
5.00007e-06
-1.14185e-09
-1.31448e-09
5.00001e-06
-8.33005e-11
5.00001e-06
-3.8928e-10
5e-06
-7.24851e-10
5e-06
-9.55805e-10
4.99999e-06
-1.04978e-09
4.99999e-06
-1.0569e-09
4.99998e-06
-1.03236e-09
4.99998e-06
-1.00448e-09
4.99997e-06
-9.81758e-10
4.99997e-06
-9.65091e-10
4.99997e-06
-9.53518e-10
4.99996e-06
-9.45813e-10
4.99996e-06
-9.40982e-10
4.99996e-06
-9.39033e-10
4.99996e-06
-9.42203e-10
4.99995e-06
-9.5611e-10
4.99995e-06
-9.88296e-10
4.99994e-06
-1.05004e-09
4.99993e-06
-1.13239e-09
-1.30888e-09
5.00002e-06
-5.97913e-11
5.00002e-06
-3.40521e-10
5.00001e-06
-6.66403e-10
5e-06
-8.94551e-10
4.99998e-06
-9.88126e-10
4.99997e-06
-9.9516e-10
4.99995e-06
-9.70113e-10
4.99994e-06
-9.41154e-10
4.99992e-06
-9.16915e-10
4.99991e-06
-8.9854e-10
4.99991e-06
-8.85319e-10
4.9999e-06
-8.76221e-10
4.9999e-06
-8.70623e-10
4.99989e-06
-8.69579e-10
4.99988e-06
-8.77107e-10
4.99986e-06
-9.00246e-10
4.99984e-06
-9.45139e-10
4.99981e-06
-1.02068e-09
4.99978e-06
-1.10748e-09
-1.29283e-09
5.00004e-06
-3.42119e-11
5.00004e-06
-2.78615e-10
5.00002e-06
-5.88852e-10
5e-06
-8.12308e-10
4.99998e-06
-9.05657e-10
4.99996e-06
-9.13492e-10
4.99993e-06
-8.8893e-10
4.99991e-06
-8.59719e-10
4.99989e-06
-8.34448e-10
4.99987e-06
-8.14479e-10
4.99986e-06
-7.99429e-10
4.99985e-06
-7.88678e-10
4.99984e-06
-7.8248e-10
4.99983e-06
-7.83733e-10
4.99981e-06
-7.98621e-10
4.99977e-06
-8.34514e-10
4.99973e-06
-8.93602e-10
4.99969e-06
-9.82666e-10
4.99964e-06
-1.06935e-09
-1.26599e-09
5.00005e-06
-1.60634e-11
5.00006e-06
-2.16843e-10
5.00004e-06
-5.03228e-10
5.00001e-06
-7.17566e-10
4.99998e-06
-8.09248e-10
4.99995e-06
-8.18029e-10
4.99992e-06
-7.9489e-10
4.99989e-06
-7.66773e-10
4.99987e-06
-7.41856e-10
4.99984e-06
-7.21397e-10
4.99982e-06
-7.05225e-10
4.99981e-06
-6.93346e-10
4.99979e-06
-6.87462e-10
4.99977e-06
-6.92718e-10
4.99974e-06
-7.1642e-10
4.99969e-06
-7.63844e-10
4.99963e-06
-8.31822e-10
4.99957e-06
-9.2933e-10
4.9995e-06
-1.01114e-09
-1.22494e-09
5.00006e-06
-5.50087e-12
5.00008e-06
-1.60114e-10
5.00006e-06
-4.13532e-10
5.00003e-06
-6.12222e-10
4.99999e-06
-6.99209e-10
4.99995e-06
-7.08008e-10
4.99992e-06
-6.86414e-10
4.99988e-06
-6.60273e-10
4.99985e-06
-6.37091e-10
4.99982e-06
-6.1761e-10
4.9998e-06
-6.01595e-10
4.99978e-06
-5.89772e-10
4.99975e-06
-5.85546e-10
4.99972e-06
-5.95723e-10
4.99966e-06
-6.26559e-10
4.9996e-06
-6.79791e-10
4.99952e-06
-7.48991e-10
4.99945e-06
-8.51803e-10
4.99937e-06
-9.27629e-10
-1.167e-09
5.00007e-06
1.05364e-13
5.00009e-06
-1.12311e-10
5.00008e-06
-3.25586e-10
5.00004e-06
-5.02071e-10
5e-06
-5.81262e-10
4.99995e-06
-5.89234e-10
4.99991e-06
-5.6908e-10
4.99987e-06
-5.45242e-10
4.99984e-06
-5.24639e-10
4.9998e-06
-5.0735e-10
4.99978e-06
-4.92858e-10
4.99975e-06
-4.82485e-10
4.99971e-06
-4.80903e-10
4.99966e-06
-4.94992e-10
4.99959e-06
-5.2821e-10
4.99951e-06
-5.80208e-10
4.99942e-06
-6.44947e-10
4.99932e-06
-7.52202e-10
4.99922e-06
-8.1984e-10
-1.08879e-09
5.00008e-06
-1.98868e-12
5.00011e-06
-7.39196e-11
5.0001e-06
-2.39523e-10
5.00006e-06
-3.8541e-10
5e-06
-4.53318e-10
4.99995e-06
-4.605e-10
4.9999e-06
-4.42646e-10
4.99986e-06
-4.21798e-10
4.99982e-06
-4.0442e-10
4.99979e-06
-3.90173e-10
4.99975e-06
-3.78301e-10
4.99972e-06
-3.70399e-10
4.99967e-06
-3.71366e-10
4.9996e-06
-3.86538e-10
4.99952e-06
-4.16779e-10
4.99942e-06
-4.62115e-10
4.99931e-06
-5.18076e-10
4.99919e-06
-6.23351e-10
4.99906e-06
-6.79016e-10
-9.88307e-10
5.00008e-06
-4.18788e-12
5.00012e-06
-4.3547e-11
5.00012e-06
-1.58755e-10
5.00007e-06
-2.62863e-10
5.00001e-06
-3.12573e-10
4.99995e-06
-3.17519e-10
4.99989e-06
-3.03123e-10
4.99984e-06
-2.86806e-10
4.9998e-06
-2.73917e-10
4.99976e-06
-2.63815e-10
4.99972e-06
-2.55634e-10
4.99968e-06
-2.50785e-10
4.99962e-06
-2.53288e-10
4.99954e-06
-2.65921e-10
4.99944e-06
-2.88634e-10
4.99933e-06
-3.22467e-10
4.9992e-06
-3.63875e-10
4.99905e-06
-4.65181e-10
4.99888e-06
-4.90384e-10
-8.15829e-10
5.00006e-06
9.92234e-12
5.00011e-06
-2.00955e-11
5.00011e-06
-7.92635e-11
5.00007e-06
-1.39254e-10
5e-06
-1.68599e-10
4.99994e-06
-1.70359e-10
4.99988e-06
-1.59949e-10
4.99983e-06
-1.48956e-10
4.99978e-06
-1.40873e-10
4.99974e-06
-1.34946e-10
4.99971e-06
-1.30383e-10
4.99966e-06
-1.27982e-10
4.99959e-06
-1.30144e-10
4.9995e-06
-1.3755e-10
4.9994e-06
-1.50287e-10
4.99928e-06
-1.68548e-10
4.99913e-06
-1.91975e-10
4.99895e-06
-2.63316e-10
4.99874e-06
-2.77711e-10
-6.15724e-10
5.00009e-06
5.00015e-06
5.00015e-06
5.00009e-06
5.00001e-06
4.99992e-06
4.99984e-06
4.99978e-06
4.99973e-06
4.99969e-06
4.99965e-06
4.9996e-06
4.99952e-06
4.99943e-06
4.99932e-06
4.99918e-06
4.99902e-06
4.99877e-06
4.9985e-06
)
;

boundaryField
{
    sides
    {
        type            calculated;
        value           uniform 0;
    }
    inlet
    {
        type            calculated;
        value           nonuniform List<scalar> 
20
(
-5e-06
-5e-06
-5e-06
-5e-06
-5e-06
-5e-06
-5e-06
-5e-06
-5e-06
-5e-06
-5e-06
-5e-06
-5e-06
-5e-06
-5e-06
-5e-06
-5e-06
-5e-06
-5e-06
-5e-06
)
;
    }
    outlet
    {
        type            calculated;
        value           nonuniform List<scalar> 
20
(
5.00211e-06
5.00145e-06
5.00129e-06
5.00104e-06
5.00086e-06
5.00069e-06
5.00054e-06
5.00039e-06
5.00024e-06
5.00008e-06
4.99992e-06
4.99976e-06
4.99961e-06
4.99946e-06
4.99931e-06
4.99914e-06
4.99896e-06
4.99871e-06
4.99855e-06
4.99789e-06
)
;
    }
    frontAndBack
    {
        type            empty;
        value           nonuniform 0();
    }
}


// ************************************************************************* //
