/*--------------------------------*- C++ -*----------------------------------*\
  =========                 |
  \\      /  F ield         | OpenFOAM: The Open Source CFD Toolbox
   \\    /   O peration     | Website:  https://openfoam.org
    \\  /    A nd           | Version:  7
     \\/     M anipulation  |
\*---------------------------------------------------------------------------*/
FoamFile
{
    version     2.0;
    format      ascii;
    class       surfaceScalarField;
    location    "2";
    object      phi_0;
}
// * * * * * * * * * * * * * * * * * * * * * * * * * * * * * * * * * * * * * //

dimensions      [0 4 -1 0 0 0 0];

internalField   nonuniform List<scalar> 
760
(
4.99991e-06
1.08698e-11
4.99986e-06
-2.5907e-11
4.99987e-06
-8.92297e-11
4.99993e-06
-1.45822e-10
5.00002e-06
-1.68654e-10
5.0001e-06
-1.66506e-10
5.00017e-06
-1.55416e-10
5.00023e-06
-1.4515e-10
5.00027e-06
-1.37795e-10
5.00031e-06
-1.32304e-10
5.00035e-06
-1.2786e-10
5.00039e-06
-1.24899e-10
5.00044e-06
-1.25683e-10
5.00053e-06
-1.32113e-10
5.00063e-06
-1.45006e-10
5.00075e-06
-1.63118e-10
5.00091e-06
-1.87412e-10
5.00114e-06
-2.54223e-10
5.0014e-06
-2.7274e-10
-6.00649e-10
4.99994e-06
-1.62625e-12
4.99989e-06
-5.41373e-11
4.9999e-06
-1.76228e-10
4.99995e-06
-2.73245e-10
5.00001e-06
-3.12239e-10
5.00008e-06
-3.11104e-10
5.00013e-06
-2.95609e-10
5.00018e-06
-2.80212e-10
5.00022e-06
-2.68258e-10
5.00026e-06
-2.58786e-10
5.00029e-06
-2.50938e-10
5.00033e-06
-2.45463e-10
5.00038e-06
-2.45776e-10
5.00045e-06
-2.5606e-10
5.00055e-06
-2.78149e-10
5.00066e-06
-3.11375e-10
5.0008e-06
-3.53269e-10
5.00097e-06
-4.48634e-10
5.00117e-06
-4.78584e-10
-7.93707e-10
4.99992e-06
-1.74892e-13
4.99989e-06
-8.93922e-11
4.9999e-06
-2.64042e-10
4.99994e-06
-3.99189e-10
5e-06
-4.52474e-10
5.00006e-06
-4.51686e-10
5.00012e-06
-4.32183e-10
5.00016e-06
-4.12037e-10
5.00021e-06
-3.95486e-10
5.00024e-06
-3.82004e-10
5.00028e-06
-3.70914e-10
5.00031e-06
-3.62893e-10
5.00035e-06
-3.61477e-10
5.00042e-06
-3.72696e-10
5.00051e-06
-4.004e-10
5.00061e-06
-4.44564e-10
5.00073e-06
-5.00412e-10
5.00087e-06
-6.00938e-10
5.00104e-06
-6.60237e-10
-9.56271e-10
4.99993e-06
-8.05475e-13
4.9999e-06
-1.35014e-10
4.99992e-06
-3.5541e-10
4.99996e-06
-5.16997e-10
5.00001e-06
-5.78771e-10
5.00006e-06
-5.77816e-10
5.00011e-06
-5.55688e-10
5.00015e-06
-5.32297e-10
5.00018e-06
-5.12474e-10
5.00022e-06
-4.96247e-10
5.00025e-06
-4.8318e-10
5.00027e-06
-4.73587e-10
5.0003e-06
-4.7022e-10
5.00036e-06
-4.79448e-10
5.00043e-06
-5.07663e-10
5.00052e-06
-5.56777e-10
5.00062e-06
-6.20604e-10
5.00073e-06
-7.22513e-10
5.00086e-06
-7.93756e-10
-1.0511e-09
4.99993e-06
-9.07103e-12
4.99992e-06
-1.90957e-10
4.99994e-06
-4.49471e-10
4.99997e-06
-6.30352e-10
5.00002e-06
-6.98255e-10
5.00006e-06
-6.97413e-10
5.0001e-06
-6.73432e-10
5.00013e-06
-6.47635e-10
5.00017e-06
-6.25592e-10
5.0002e-06
-6.07865e-10
5.00022e-06
-5.94119e-10
5.00024e-06
-5.84139e-10
5.00027e-06
-5.7935e-10
5.0003e-06
-5.84919e-10
5.00036e-06
-6.08559e-10
5.00043e-06
-6.55629e-10
5.00052e-06
-7.22049e-10
5.00061e-06
-8.19816e-10
5.0007e-06
-8.97976e-10
-1.12459e-09
4.99994e-06
-2.46119e-11
4.99993e-06
-2.55066e-10
4.99995e-06
-5.43794e-10
4.99999e-06
-7.37936e-10
5.00002e-06
-8.09493e-10
5.00006e-06
-8.0844e-10
5.00009e-06
-7.83232e-10
5.00012e-06
-7.56274e-10
5.00015e-06
-7.33646e-10
5.00018e-06
-7.16062e-10
5.0002e-06
-7.03038e-10
5.00021e-06
-6.9386e-10
5.00023e-06
-6.88709e-10
5.00025e-06
-6.90743e-10
5.00029e-06
-7.0686e-10
5.00035e-06
-7.44902e-10
5.00041e-06
-8.05839e-10
5.00048e-06
-8.96531e-10
5.00056e-06
-9.79157e-10
-1.17919e-09
4.99995e-06
-5.03892e-11
4.99995e-06
-3.24711e-10
4.99997e-06
-6.35169e-10
5e-06
-8.37651e-10
5.00003e-06
-9.11414e-10
5.00005e-06
-9.10682e-10
5.00008e-06
-8.85715e-10
5.00011e-06
-8.59495e-10
5.00013e-06
-8.38178e-10
5.00015e-06
-8.2228e-10
5.00017e-06
-8.11034e-10
5.00018e-06
-8.03409e-10
5.00019e-06
-7.98817e-10
5.0002e-06
-7.98584e-10
5.00023e-06
-8.07424e-10
5.00026e-06
-8.33056e-10
5.00031e-06
-8.80834e-10
5.00037e-06
-9.58139e-10
5.00043e-06
-1.04025e-09
-1.21903e-09
4.99997e-06
-8.22901e-11
4.99997e-06
-3.9322e-10
4.99999e-06
-7.19768e-10
5.00001e-06
-9.28748e-10
5.00003e-06
-1.00531e-09
5.00005e-06
-1.00654e-09
5.00007e-06
-9.83696e-10
5.00009e-06
-9.59942e-10
5.00011e-06
-9.41254e-10
5.00012e-06
-9.27854e-10
5.00013e-06
-9.18755e-10
5.00014e-06
-9.12822e-10
5.00014e-06
-9.09176e-10
5.00015e-06
-9.08002e-10
5.00016e-06
-9.11805e-10
5.00019e-06
-9.26329e-10
5.00022e-06
-9.58334e-10
5.00026e-06
-1.01714e-09
5.0003e-06
-1.09075e-09
-1.24861e-09
4.99998e-06
-1.08612e-10
4.99998e-06
-4.44823e-10
4.99999e-06
-7.82653e-10
5.00001e-06
-9.97045e-10
5.00002e-06
-1.07688e-09
5.00003e-06
-1.08086e-09
5.00005e-06
-1.06076e-09
5.00006e-06
-1.03974e-09
5.00007e-06
-1.02359e-09
5.00008e-06
-1.01235e-09
5.00008e-06
-1.00496e-09
5.00009e-06
-1.00028e-09
5.00009e-06
-9.97427e-10
5.00009e-06
-9.96067e-10
5.0001e-06
-9.97315e-10
5.00011e-06
-1.00493e-09
5.00013e-06
-1.02508e-09
5.00015e-06
-1.06782e-09
5.00018e-06
-1.13003e-09
-1.269e-09
4.99999e-06
-1.18717e-10
5e-06
-4.6404e-10
5e-06
-8.061e-10
5e-06
-1.02274e-09
5.00001e-06
-1.10408e-09
5.00001e-06
-1.10938e-09
5.00002e-06
-1.09052e-09
5.00002e-06
-1.07066e-09
5.00002e-06
-1.05555e-09
5.00003e-06
-1.04516e-09
5.00003e-06
-1.03841e-09
5.00003e-06
-1.0342e-09
5.00003e-06
-1.03164e-09
5.00003e-06
-1.03028e-09
5.00003e-06
-1.03079e-09
5.00004e-06
-1.03615e-09
5.00004e-06
-1.05204e-09
5.00005e-06
-1.08854e-09
5.00006e-06
-1.14558e-09
-1.27659e-09
5.00001e-06
-1.08604e-10
5e-06
-4.44805e-10
5e-06
-7.82625e-10
5e-06
-9.97012e-10
4.99999e-06
-1.07684e-09
4.99999e-06
-1.08083e-09
4.99998e-06
-1.06073e-09
4.99998e-06
-1.0397e-09
4.99998e-06
-1.02356e-09
4.99997e-06
-1.01232e-09
4.99997e-06
-1.00492e-09
4.99997e-06
-1.00025e-09
4.99997e-06
-9.97394e-10
4.99997e-06
-9.96034e-10
4.99997e-06
-9.97284e-10
4.99996e-06
-1.0049e-09
4.99996e-06
-1.02506e-09
4.99995e-06
-1.0678e-09
4.99994e-06
-1.13002e-09
-1.26899e-09
5.00002e-06
-8.22802e-11
5.00002e-06
-3.93191e-10
5.00001e-06
-7.19722e-10
4.99999e-06
-9.28693e-10
4.99998e-06
-1.00525e-09
4.99997e-06
-1.00648e-09
4.99995e-06
-9.83643e-10
4.99994e-06
-9.59891e-10
4.99993e-06
-9.41203e-10
4.99992e-06
-9.27804e-10
4.99992e-06
-9.18705e-10
4.99991e-06
-9.12772e-10
4.99991e-06
-9.09126e-10
4.99991e-06
-9.07952e-10
4.9999e-06
-9.11757e-10
4.99989e-06
-9.26285e-10
4.99987e-06
-9.58297e-10
4.99985e-06
-1.01711e-09
4.99982e-06
-1.09072e-09
-1.24859e-09
5.00003e-06
-5.03817e-11
5.00003e-06
-3.24679e-10
5.00001e-06
-6.35115e-10
4.99999e-06
-8.37585e-10
4.99997e-06
-9.11348e-10
4.99995e-06
-9.1062e-10
4.99993e-06
-8.85656e-10
4.99991e-06
-8.59438e-10
4.99989e-06
-8.38122e-10
4.99988e-06
-8.22225e-10
4.99987e-06
-8.1098e-10
4.99986e-06
-8.03355e-10
4.99986e-06
-7.98763e-10
4.99985e-06
-7.98531e-10
4.99984e-06
-8.07373e-10
4.99981e-06
-8.33009e-10
4.99978e-06
-8.80793e-10
4.99974e-06
-9.58106e-10
4.99969e-06
-1.04022e-09
-1.219e-09
5.00005e-06
-2.46088e-11
5.00005e-06
-2.55037e-10
5.00003e-06
-5.43738e-10
5e-06
-7.37866e-10
4.99997e-06
-8.09422e-10
4.99994e-06
-8.08374e-10
4.99992e-06
-7.8317e-10
4.99989e-06
-7.56215e-10
4.99987e-06
-7.33589e-10
4.99985e-06
-7.16007e-10
4.99983e-06
-7.02984e-10
4.99982e-06
-6.93807e-10
4.99981e-06
-6.88656e-10
4.9998e-06
-6.9069e-10
4.99977e-06
-7.06808e-10
4.99973e-06
-7.44853e-10
4.99968e-06
-8.05795e-10
4.99963e-06
-8.96492e-10
4.99957e-06
-9.79118e-10
-1.17915e-09
5.00006e-06
-9.07071e-12
5.00007e-06
-1.90933e-10
5.00005e-06
-4.49416e-10
5.00001e-06
-6.30283e-10
4.99998e-06
-6.98185e-10
4.99994e-06
-6.97348e-10
4.99991e-06
-6.73372e-10
4.99988e-06
-6.47578e-10
4.99985e-06
-6.25538e-10
4.99982e-06
-6.07813e-10
4.9998e-06
-5.94068e-10
4.99979e-06
-5.8409e-10
4.99977e-06
-5.79301e-10
4.99975e-06
-5.84868e-10
4.99971e-06
-6.08509e-10
4.99965e-06
-6.55581e-10
4.99959e-06
-7.22004e-10
4.99952e-06
-8.19771e-10
4.99944e-06
-8.97932e-10
-1.12453e-09
5.00007e-06
-8.07569e-13
5.00008e-06
-1.34995e-10
5.00006e-06
-3.5536e-10
5.00003e-06
-5.16932e-10
4.99998e-06
-5.78706e-10
4.99994e-06
-5.77757e-10
4.9999e-06
-5.55633e-10
4.99987e-06
-5.32247e-10
4.99983e-06
-5.12426e-10
4.9998e-06
-4.96201e-10
4.99978e-06
-4.83136e-10
4.99976e-06
-4.73543e-10
4.99973e-06
-4.70176e-10
4.9997e-06
-4.79402e-10
4.99964e-06
-5.07617e-10
4.99957e-06
-5.56732e-10
4.99948e-06
-6.20562e-10
4.99939e-06
-7.22465e-10
4.9993e-06
-7.93712e-10
-1.05103e-09
5.00007e-06
-1.76829e-13
5.0001e-06
-8.93789e-11
5.00008e-06
-2.64002e-10
5.00004e-06
-3.99134e-10
4.99999e-06
-4.52419e-10
4.99994e-06
-4.51636e-10
4.99989e-06
-4.32138e-10
4.99985e-06
-4.11995e-10
4.99982e-06
-3.95447e-10
4.99978e-06
-3.81967e-10
4.99975e-06
-3.70879e-10
4.99973e-06
-3.62858e-10
4.99969e-06
-3.61441e-10
4.99964e-06
-3.72657e-10
4.99957e-06
-4.00361e-10
4.99948e-06
-4.44525e-10
4.99938e-06
-5.00376e-10
4.99927e-06
-6.00889e-10
4.99914e-06
-6.602e-10
-9.56176e-10
5.00008e-06
-1.62568e-12
5.00011e-06
-5.41265e-11
5.0001e-06
-1.76197e-10
5.00006e-06
-2.73203e-10
5e-06
-3.12196e-10
4.99994e-06
-3.11066e-10
4.99988e-06
-2.95576e-10
4.99984e-06
-2.80181e-10
4.99979e-06
-2.6823e-10
4.99976e-06
-2.5876e-10
4.99972e-06
-2.50912e-10
4.99969e-06
-2.45437e-10
4.99965e-06
-2.45749e-10
4.99958e-06
-2.56031e-10
4.99949e-06
-2.7812e-10
4.99939e-06
-3.11346e-10
4.99927e-06
-3.53245e-10
4.99913e-06
-4.4859e-10
4.99896e-06
-4.78565e-10
-7.93625e-10
5.00006e-06
1.08631e-11
5.00011e-06
-2.59129e-11
5.0001e-06
-8.92339e-11
5.00005e-06
-1.4582e-10
4.99999e-06
-1.68645e-10
4.99992e-06
-1.66493e-10
4.99987e-06
-1.55401e-10
4.99982e-06
-1.45135e-10
4.99978e-06
-1.3778e-10
4.99974e-06
-1.3229e-10
4.99971e-06
-1.27846e-10
4.99967e-06
-1.24885e-10
4.99962e-06
-1.25668e-10
4.99955e-06
-1.32097e-10
4.99945e-06
-1.44991e-10
4.99934e-06
-1.63102e-10
4.9992e-06
-1.87403e-10
4.99903e-06
-2.54192e-10
4.99883e-06
-2.72749e-10
-6.00584e-10
5.00009e-06
5.00014e-06
5.00013e-06
5.00007e-06
4.99998e-06
4.9999e-06
4.99983e-06
4.99977e-06
4.99973e-06
4.99969e-06
4.99965e-06
4.99961e-06
4.99956e-06
4.99947e-06
4.99937e-06
4.99925e-06
4.99909e-06
4.99886e-06
4.9986e-06
)
;

boundaryField
{
    sides
    {
        type            calculated;
        value           uniform 0;
    }
    inlet
    {
        type            calculated;
        value           nonuniform List<scalar> 
20
(
-5e-06
-5e-06
-5e-06
-5e-06
-5e-06
-5e-06
-5e-06
-5e-06
-5e-06
-5e-06
-5e-06
-5e-06
-5e-06
-5e-06
-5e-06
-5e-06
-5e-06
-5e-06
-5e-06
-5e-06
)
;
    }
    outlet
    {
        type            calculated;
        value           nonuniform List<scalar> 
20
(
5.002e-06
5.00136e-06
5.0012e-06
5.00095e-06
5.00078e-06
5.00062e-06
5.00047e-06
5.00034e-06
5.0002e-06
5.00007e-06
4.99993e-06
4.9998e-06
4.99966e-06
4.99953e-06
4.99938e-06
4.99922e-06
4.99905e-06
4.9988e-06
4.99864e-06
4.998e-06
)
;
    }
    frontAndBack
    {
        type            empty;
        value           nonuniform 0();
    }
}


// ************************************************************************* //
