/*--------------------------------*- C++ -*----------------------------------*\
  =========                 |
  \\      /  F ield         | OpenFOAM: The Open Source CFD Toolbox
   \\    /   O peration     | Website:  https://openfoam.org
    \\  /    A nd           | Version:  7
     \\/     M anipulation  |
\*---------------------------------------------------------------------------*/
FoamFile
{
    version     2.0;
    format      ascii;
    class       volVectorField;
    location    "31";
    object      ddtCorrDdt0(hU);
}
// * * * * * * * * * * * * * * * * * * * * * * * * * * * * * * * * * * * * * //

dimensions      [0 2 -2 0 0 0 0];

internalField   nonuniform List<vector> 
400
(
(1.4114e-09 6.31819e-10 0)
(-1.10912e-09 -1.75964e-10 0)
(-5.02387e-09 -2.41282e-09 0)
(-4.56627e-09 -4.25596e-09 0)
(-1.73757e-09 -5.45192e-09 0)
(-2.18868e-09 -7.88202e-09 0)
(1.45018e-09 -5.58562e-09 0)
(3.00113e-09 -3.50327e-09 0)
(3.16655e-09 -1.49479e-09 0)
(2.69881e-09 2.79829e-10 0)
(9.28828e-10 1.3261e-09 0)
(-7.91753e-10 1.79821e-09 0)
(-2.2756e-09 1.99632e-09 0)
(-4.12859e-09 1.4335e-09 0)
(-5.60187e-09 3.21091e-10 0)
(-6.90495e-09 -1.9721e-09 0)
(-4.69804e-09 -3.90473e-09 0)
(-3.19922e-09 -4.71356e-09 0)
(1.80542e-09 -4.81832e-09 0)
(4.88776e-09 -7.08816e-10 0)
(1.54346e-09 -5.86951e-11 0)
(-1.31662e-09 1.30664e-09 0)
(-6.35971e-09 1.61517e-09 0)
(-6.79857e-09 1.49597e-09 0)
(-4.32884e-09 1.00946e-09 0)
(-3.06201e-10 -1.05959e-09 0)
(-1.01195e-09 -6.67651e-10 0)
(1.37957e-09 -1.20151e-09 0)
(3.90112e-09 -1.90639e-09 0)
(4.43294e-09 -1.90792e-09 0)
(2.87807e-09 -1.33715e-09 0)
(5.5476e-10 -4.0825e-10 0)
(-2.0008e-09 3.72811e-10 0)
(-4.57476e-09 2.734e-10 0)
(-6.16438e-09 3.3588e-11 0)
(-7.41491e-09 -1.09368e-09 0)
(-5.1389e-09 -2.65038e-09 0)
(-3.60518e-09 -3.51822e-09 0)
(1.4132e-09 -5.97521e-09 0)
(5.0216e-09 -2.66308e-09 0)
(1.27893e-09 1.23281e-09 0)
(-1.08418e-09 1.94768e-09 0)
(-4.31379e-09 -5.74869e-10 0)
(-3.90099e-09 -3.70717e-09 0)
(-2.28778e-09 -6.28103e-09 0)
(-1.70499e-09 -6.98122e-09 0)
(-9.78251e-10 -7.39155e-09 0)
(3.30011e-10 -5.67646e-09 0)
(1.28217e-09 -2.62248e-09 0)
(1.37311e-09 7.72499e-11 0)
(4.0094e-10 1.91094e-09 0)
(-5.24486e-10 2.93529e-09 0)
(-1.76019e-09 3.42337e-09 0)
(-3.36533e-09 2.23297e-09 0)
(-4.67319e-09 5.00709e-10 0)
(-5.94915e-09 -3.56025e-09 0)
(-4.02539e-09 -7.59437e-09 0)
(-2.61932e-09 -9.61484e-09 0)
(2.18839e-09 -1.28316e-08 0)
(4.91489e-09 -4.0001e-09 0)
(1.23717e-09 2.48663e-09 0)
(-1.02308e-09 2.64412e-09 0)
(-5.09976e-09 -8.58424e-10 0)
(-5.72626e-09 -4.80322e-09 0)
(-3.77322e-09 -8.03911e-09 0)
(-1.73934e-09 -9.97309e-09 0)
(1.86883e-10 -1.02532e-08 0)
(2.15962e-09 -7.99614e-09 0)
(4.23724e-09 -4.06586e-09 0)
(4.07452e-09 -7.73888e-10 0)
(2.72756e-09 1.75125e-09 0)
(8.02682e-10 3.05039e-09 0)
(-1.75183e-09 3.92874e-09 0)
(-4.30693e-09 2.96847e-09 0)
(-5.8485e-09 1.28097e-09 0)
(-7.03434e-09 -3.82154e-09 0)
(-4.70976e-09 -9.36399e-09 0)
(-2.99025e-09 -1.23787e-08 0)
(2.23653e-09 -1.71566e-08 0)
(5.76479e-09 -5.63243e-09 0)
(1.11722e-09 2.08893e-09 0)
(-8.84049e-10 3.35229e-09 0)
(-3.37605e-09 8.22697e-10 0)
(-3.51961e-09 -3.47384e-09 0)
(-2.21031e-09 -7.43293e-09 0)
(-1.41715e-09 -9.49819e-09 0)
(-1.30051e-09 -9.48664e-09 0)
(-3.01854e-10 -7.01634e-09 0)
(3.93967e-10 -3.79121e-09 0)
(5.94078e-10 -4.60069e-10 0)
(5.86254e-10 2.72351e-09 0)
(-8.4352e-12 4.4886e-09 0)
(-8.2186e-10 5.41206e-09 0)
(-1.734e-09 3.8023e-09 0)
(-2.42645e-09 1.5107e-09 0)
(-3.43681e-09 -4.30614e-09 0)
(-2.4874e-09 -1.04791e-08 0)
(-2.01295e-09 -1.36932e-08 0)
(6.95458e-10 -2.00779e-08 0)
(3.21567e-09 -7.10598e-09 0)
(9.28285e-10 2.51355e-09 0)
(-1.3612e-09 1.97164e-09 0)
(-4.02111e-09 -2.80713e-09 0)
(-4.8021e-09 -8.96565e-09 0)
(-3.47547e-09 -1.43558e-08 0)
(-1.24724e-09 -1.69526e-08 0)
(1.05056e-09 -1.59696e-08 0)
(3.09413e-09 -1.13643e-08 0)
(3.73536e-09 -5.54545e-09 0)
(3.43735e-09 1.40351e-10 0)
(1.8043e-09 4.40695e-09 0)
(-3.07361e-10 6.69842e-09 0)
(-2.19988e-09 8.11734e-09 0)
(-3.88628e-09 6.28171e-09 0)
(-4.97391e-09 3.06769e-09 0)
(-5.59312e-09 -5.04929e-09 0)
(-3.17602e-09 -1.33481e-08 0)
(-1.32451e-09 -1.77234e-08 0)
(3.45166e-09 -2.48002e-08 0)
(5.81488e-09 -8.00306e-09 0)
(5.87209e-10 1.71693e-09 0)
(-1.02764e-09 1.40128e-09 0)
(-2.42791e-09 -1.37608e-09 0)
(-2.34497e-09 -5.82312e-09 0)
(-1.37113e-09 -1.06764e-08 0)
(-9.29478e-10 -1.36453e-08 0)
(-6.89857e-10 -1.34183e-08 0)
(-1.90756e-10 -1.02923e-08 0)
(4.97635e-10 -5.56406e-09 0)
(9.06206e-10 -7.39233e-10 0)
(5.42748e-10 3.3529e-09 0)
(1.28737e-10 6.10968e-09 0)
(-1.08443e-10 8.15626e-09 0)
(-5.65352e-10 6.75999e-09 0)
(-1.04291e-09 4.00618e-09 0)
(-1.85118e-09 -3.91551e-09 0)
(-1.41282e-09 -1.25785e-08 0)
(-1.32441e-09 -1.74337e-08 0)
(3.5068e-10 -2.61774e-08 0)
(2.40735e-09 -9.19502e-09 0)
(3.64099e-10 8.99108e-10 0)
(-9.02449e-10 1.10556e-10 0)
(-2.29675e-09 -3.43259e-09 0)
(-2.64475e-09 -9.29583e-09 0)
(-1.62557e-09 -1.53096e-08 0)
(-2.46944e-10 -1.83863e-08 0)
(7.25058e-10 -1.71309e-08 0)
(1.39735e-09 -1.21226e-08 0)
(1.73909e-09 -5.33371e-09 0)
(1.41758e-09 1.13828e-09 0)
(5.58855e-10 6.35169e-09 0)
(-2.95375e-10 9.42933e-09 0)
(-1.2132e-09 1.11745e-08 0)
(-2.18108e-09 8.83631e-09 0)
(-2.71281e-09 4.96876e-09 0)
(-2.9561e-09 -4.68326e-09 0)
(-1.50181e-09 -1.46463e-08 0)
(-4.72429e-10 -2.00778e-08 0)
(2.2922e-09 -2.9156e-08 0)
(3.83168e-09 -9.55844e-09 0)
(7.75723e-11 2.63011e-10 0)
(-6.04219e-10 -1.14308e-09 0)
(-1.22767e-09 -4.15813e-09 0)
(-1.15658e-09 -9.35898e-09 0)
(-5.64071e-10 -1.50871e-08 0)
(-1.75815e-10 -1.82955e-08 0)
(-8.67167e-11 -1.75119e-08 0)
(1.0724e-10 -1.30115e-08 0)
(3.00454e-10 -6.74322e-09 0)
(1.88314e-10 -3.96478e-10 0)
(-7.33235e-11 5.20636e-09 0)
(-2.44615e-10 8.91132e-09 0)
(-3.40465e-10 1.14548e-08 0)
(-4.43582e-10 9.87723e-09 0)
(-4.85796e-10 6.5543e-09 0)
(-6.17585e-10 -2.99739e-09 0)
(-3.35177e-10 -1.34994e-08 0)
(-2.25803e-10 -1.95049e-08 0)
(4.6394e-10 -2.97664e-08 0)
(1.23581e-09 -1.03354e-08 0)
(-3.50202e-11 1.92204e-10 0)
(-2.14146e-10 -1.49913e-09 0)
(-4.32499e-10 -4.78374e-09 0)
(-3.8567e-10 -1.04526e-08 0)
(-1.80957e-10 -1.68253e-08 0)
(-1.51306e-10 -2.02201e-08 0)
(-2.30037e-10 -1.8955e-08 0)
(-1.57492e-10 -1.35893e-08 0)
(2.87906e-11 -6.45427e-09 0)
(2.30783e-10 6.12274e-10 0)
(3.62477e-10 6.56155e-09 0)
(3.24744e-10 1.01792e-08 0)
(2.07497e-11 1.2402e-08 0)
(-4.26164e-10 1.03324e-08 0)
(-7.68524e-10 6.54593e-09 0)
(-1.03174e-09 -3.56823e-09 0)
(-6.91893e-10 -1.43371e-08 0)
(-3.98795e-10 -2.03663e-08 0)
(5.69882e-10 -3.05307e-08 0)
(1.1599e-09 -1.02294e-08 0)
(3.77054e-11 1.93909e-10 0)
(2.17636e-10 -1.49474e-09 0)
(4.3871e-10 -4.78058e-09 0)
(3.87493e-10 -1.04531e-08 0)
(1.78792e-10 -1.68275e-08 0)
(1.48171e-10 -2.02239e-08 0)
(2.29864e-10 -1.89592e-08 0)
(1.62333e-10 -1.3595e-08 0)
(-2.16244e-11 -6.46153e-09 0)
(-2.24421e-10 6.02896e-10 0)
(-3.62505e-10 6.55267e-09 0)
(-3.28981e-10 1.01723e-08 0)
(-2.2499e-11 1.23947e-08 0)
(4.25553e-10 1.03249e-08 0)
(7.65521e-10 6.53996e-09 0)
(1.02197e-09 -3.57141e-09 0)
(6.78004e-10 -1.43372e-08 0)
(3.89763e-10 -2.03663e-08 0)
(-5.79214e-10 -3.05295e-08 0)
(-1.1755e-09 -1.02281e-08 0)
(-7.48509e-11 2.68749e-10 0)
(6.07822e-10 -1.13537e-09 0)
(1.22946e-09 -4.15413e-09 0)
(1.15871e-09 -9.3621e-09 0)
(5.64599e-10 -1.50943e-08 0)
(1.75155e-10 -1.83082e-08 0)
(8.42583e-11 -1.75244e-08 0)
(-1.09081e-10 -1.30249e-08 0)
(-3.01285e-10 -6.75691e-09 0)
(-1.86044e-10 -4.1542e-10 0)
(7.55333e-11 5.18606e-09 0)
(2.4014e-10 8.89693e-09 0)
(3.34949e-10 1.14422e-08 0)
(4.44333e-10 9.86292e-09 0)
(4.91691e-10 6.5381e-09 0)
(6.18778e-10 -3.01115e-09 0)
(3.2879e-10 -1.35031e-08 0)
(2.18299e-10 -1.95069e-08 0)
(-4.73853e-10 -2.97564e-08 0)
(-1.25018e-09 -1.03232e-08 0)
(-3.66153e-10 9.08736e-10 0)
(9.04783e-10 1.13924e-10 0)
(2.29538e-09 -3.43478e-09 0)
(2.64226e-09 -9.29984e-09 0)
(1.62337e-09 -1.53188e-08 0)
(2.48219e-10 -1.84038e-08 0)
(-7.25704e-10 -1.71438e-08 0)
(-1.39906e-09 -1.21331e-08 0)
(-1.74375e-09 -5.34101e-09 0)
(-1.41947e-09 1.12479e-09 0)
(-5.47502e-10 6.32648e-09 0)
(3.03042e-10 9.40889e-09 0)
(1.20678e-09 1.11661e-08 0)
(2.17142e-09 8.83186e-09 0)
(2.7127e-09 4.95756e-09 0)
(2.96187e-09 -4.70014e-09 0)
(1.50514e-09 -1.46542e-08 0)
(4.73055e-10 -2.00842e-08 0)
(-2.29565e-09 -2.91439e-08 0)
(-3.83954e-09 -9.5401e-09 0)
(-5.94391e-10 1.72442e-09 0)
(1.02378e-09 1.39506e-09 0)
(2.42447e-09 -1.38615e-09 0)
(2.34188e-09 -5.82897e-09 0)
(1.37017e-09 -1.06876e-08 0)
(9.31359e-10 -1.36461e-08 0)
(6.90081e-10 -1.34107e-08 0)
(1.81582e-10 -1.0272e-08 0)
(-5.12719e-10 -5.54426e-09 0)
(-9.32723e-10 -7.20822e-10 0)
(-5.45912e-10 3.34579e-09 0)
(-1.05114e-10 6.08564e-09 0)
(1.22241e-10 8.14282e-09 0)
(5.56203e-10 6.76496e-09 0)
(1.03385e-09 4.01245e-09 0)
(1.85679e-09 -3.91692e-09 0)
(1.42614e-09 -1.25788e-08 0)
(1.33502e-09 -1.74398e-08 0)
(-3.50366e-10 -2.61595e-08 0)
(-2.41568e-09 -9.17455e-09 0)
(-9.37322e-10 2.50926e-09 0)
(1.34998e-09 1.96061e-09 0)
(4.01452e-09 -2.81244e-09 0)
(4.79565e-09 -8.96879e-09 0)
(3.48039e-09 -1.43502e-08 0)
(1.24768e-09 -1.69062e-08 0)
(-1.0394e-09 -1.59527e-08 0)
(-3.11006e-09 -1.13133e-08 0)
(-3.75886e-09 -5.48998e-09 0)
(-3.48092e-09 1.97575e-10 0)
(-1.85009e-09 4.44494e-09 0)
(3.11755e-10 6.69698e-09 0)
(2.23155e-09 8.10075e-09 0)
(3.89484e-09 6.27885e-09 0)
(4.96206e-09 3.0751e-09 0)
(5.58258e-09 -5.04912e-09 0)
(3.17515e-09 -1.33496e-08 0)
(1.32538e-09 -1.7735e-08 0)
(-3.45805e-09 -2.47856e-08 0)
(-5.81902e-09 -7.97563e-09 0)
(-1.12016e-09 2.07298e-09 0)
(8.7189e-10 3.34137e-09 0)
(3.36904e-09 8.23666e-10 0)
(3.52428e-09 -3.46341e-09 0)
(2.23167e-09 -7.3798e-09 0)
(1.41414e-09 -9.45479e-09 0)
(1.32303e-09 -9.52603e-09 0)
(3.49208e-10 -7.05359e-09 0)
(-4.12102e-10 -3.76511e-09 0)
(-6.42137e-10 -4.13559e-10 0)
(-6.723e-10 2.78352e-09 0)
(-4.69016e-11 4.52263e-09 0)
(8.30346e-10 5.41033e-09 0)
(1.75434e-09 3.79826e-09 0)
(2.42492e-09 1.52096e-09 0)
(3.4239e-09 -4.28892e-09 0)
(2.48198e-09 -1.04627e-08 0)
(2.01647e-09 -1.36941e-08 0)
(-6.92339e-10 -2.00614e-08 0)
(-3.21646e-09 -7.08912e-09 0)
(-1.23058e-09 2.46437e-09 0)
(1.01843e-09 2.63481e-09 0)
(5.10021e-09 -8.52851e-10 0)
(5.75044e-09 -4.7564e-09 0)
(3.78273e-09 -7.93224e-09 0)
(1.72938e-09 -1.00747e-08 0)
(-2.39728e-10 -1.0292e-08 0)
(-2.00734e-09 -8.22002e-09 0)
(-4.12492e-09 -4.18965e-09 0)
(-4.05136e-09 -7.80498e-10 0)
(-2.77782e-09 1.80761e-09 0)
(-8.85583e-10 3.10891e-09 0)
(1.71829e-09 3.95172e-09 0)
(4.31617e-09 2.96782e-09 0)
(5.85703e-09 1.27743e-09 0)
(7.02249e-09 -3.82595e-09 0)
(4.69183e-09 -9.36313e-09 0)
(2.97501e-09 -1.23885e-08 0)
(-2.25248e-09 -1.71394e-08 0)
(-5.76559e-09 -5.6023e-09 0)
(-1.26316e-09 1.23584e-09 0)
(1.0922e-09 1.95248e-09 0)
(4.34592e-09 -5.77368e-10 0)
(3.95936e-09 -3.68838e-09 0)
(2.20845e-09 -6.21003e-09 0)
(1.76112e-09 -7.10283e-09 0)
(6.9846e-10 -6.83717e-09 0)
(-3.91827e-10 -5.83573e-09 0)
(-9.57464e-10 -2.71043e-09 0)
(-1.13441e-09 5.79441e-11 0)
(-3.58788e-10 1.89788e-09 0)
(4.41154e-10 2.9395e-09 0)
(1.68792e-09 3.43747e-09 0)
(3.34767e-09 2.24073e-09 0)
(4.67902e-09 5.0163e-10 0)
(5.94464e-09 -3.55713e-09 0)
(4.01106e-09 -7.58434e-09 0)
(2.60414e-09 -9.61166e-09 0)
(-2.20417e-09 -1.28166e-08 0)
(-4.91494e-09 -3.98781e-09 0)
(-1.54441e-09 -3.46793e-11 0)
(1.31106e-09 1.33315e-09 0)
(6.3716e-09 1.64439e-09 0)
(6.88536e-09 1.44086e-09 0)
(4.34676e-09 6.87643e-10 0)
(6.44551e-10 -9.30431e-10 0)
(-2.9363e-09 -1.15286e-09 0)
(-1.87065e-09 -7.06676e-10 0)
(-3.60459e-09 -1.78094e-09 0)
(-4.29605e-09 -2.08203e-09 0)
(-2.87682e-09 -1.55838e-09 0)
(-5.89568e-10 -5.09147e-10 0)
(1.96503e-09 3.67565e-10 0)
(4.55179e-09 2.85424e-10 0)
(6.15911e-09 3.15643e-11 0)
(7.41224e-09 -1.10211e-09 0)
(5.13659e-09 -2.64975e-09 0)
(3.6004e-09 -3.51629e-09 0)
(-1.41629e-09 -5.95501e-09 0)
(-5.01384e-09 -2.64383e-09 0)
(-1.41736e-09 6.40305e-10 0)
(1.13292e-09 -1.56789e-10 0)
(4.9988e-09 -2.37208e-09 0)
(4.41001e-09 -4.28671e-09 0)
(1.77369e-09 -5.77265e-09 0)
(1.81256e-09 -7.73509e-09 0)
(2.80731e-09 -6.6224e-09 0)
(-2.6152e-09 -3.01469e-09 0)
(-3.84255e-09 -1.40511e-09 0)
(-2.9904e-09 9.9008e-11 0)
(-8.06198e-10 1.14065e-09 0)
(1.00834e-09 1.72525e-09 0)
(2.36331e-09 1.99756e-09 0)
(4.11863e-09 1.44754e-09 0)
(5.58642e-09 3.26678e-10 0)
(6.90004e-09 -1.97471e-09 0)
(4.6921e-09 -3.90579e-09 0)
(3.18483e-09 -4.71548e-09 0)
(-1.8288e-09 -4.8141e-09 0)
(-4.8892e-09 -6.99202e-10 0)
)
;

boundaryField
{
    sides
    {
        type            calculated;
        value           nonuniform List<vector> 
40
(
(-1.41736e-09 0 0)
(1.13292e-09 0 0)
(4.9988e-09 0 0)
(4.41001e-09 0 0)
(1.77369e-09 0 0)
(1.81256e-09 0 0)
(2.80731e-09 0 0)
(-2.6152e-09 0 0)
(-3.84255e-09 0 0)
(-2.9904e-09 0 0)
(-8.06198e-10 0 0)
(1.00834e-09 0 0)
(2.36331e-09 0 0)
(4.11863e-09 0 0)
(5.58642e-09 0 0)
(6.90004e-09 0 0)
(4.6921e-09 0 0)
(3.18483e-09 0 0)
(-1.8288e-09 0 0)
(-4.8892e-09 0 0)
(1.4114e-09 0 0)
(-1.10912e-09 0 0)
(-5.02387e-09 0 0)
(-4.56627e-09 0 0)
(-1.73757e-09 0 0)
(-2.18868e-09 0 0)
(1.45018e-09 0 0)
(3.00113e-09 0 0)
(3.16655e-09 0 0)
(2.69881e-09 0 0)
(9.28828e-10 0 0)
(-7.91753e-10 0 0)
(-2.2756e-09 0 0)
(-4.12859e-09 0 0)
(-5.60187e-09 0 0)
(-6.90495e-09 0 0)
(-4.69804e-09 0 0)
(-3.19922e-09 0 0)
(1.80542e-09 0 0)
(4.88776e-09 0 0)
)
;
    }
    inlet
    {
        type            calculated;
        value           uniform (0 0 0);
    }
    outlet
    {
        type            calculated;
        value           nonuniform List<vector> 
20
(
(4.88776e-09 -7.08816e-10 0)
(5.0216e-09 -2.66308e-09 0)
(4.91489e-09 -4.0001e-09 0)
(5.76479e-09 -5.63243e-09 0)
(3.21567e-09 -7.10598e-09 0)
(5.81488e-09 -8.00306e-09 0)
(2.40735e-09 -9.19502e-09 0)
(3.83168e-09 -9.55844e-09 0)
(1.23581e-09 -1.03354e-08 0)
(1.1599e-09 -1.02294e-08 0)
(-1.1755e-09 -1.02281e-08 0)
(-1.25018e-09 -1.03232e-08 0)
(-3.83954e-09 -9.5401e-09 0)
(-2.41568e-09 -9.17455e-09 0)
(-5.81902e-09 -7.97563e-09 0)
(-3.21646e-09 -7.08912e-09 0)
(-5.76559e-09 -5.6023e-09 0)
(-4.91494e-09 -3.98781e-09 0)
(-5.01384e-09 -2.64383e-09 0)
(-4.8892e-09 -6.99202e-10 0)
)
;
    }
    frontAndBack
    {
        type            empty;
    }
}


// ************************************************************************* //
