/*--------------------------------*- C++ -*----------------------------------*\
  =========                 |
  \\      /  F ield         | OpenFOAM: The Open Source CFD Toolbox
   \\    /   O peration     | Website:  https://openfoam.org
    \\  /    A nd           | Version:  7
     \\/     M anipulation  |
\*---------------------------------------------------------------------------*/
FoamFile
{
    version     2.0;
    format      ascii;
    class       surfaceScalarField;
    location    "31";
    object      ddtCorrDdt0(phi);
}
// * * * * * * * * * * * * * * * * * * * * * * * * * * * * * * * * * * * * * //

dimensions      [0 4 -2 0 0 0 0];

internalField   nonuniform List<scalar> 
760
(
-1.20306e-11
2.04053e-12
-1.56181e-11
3.34889e-12
-2.04969e-11
-1.08618e-12
-1.92219e-11
-3.80928e-11
-4.03638e-12
-4.85513e-11
-9.95139e-12
-2.04039e-10
1.44637e-11
-3.93429e-10
1.74952e-11
2.20855e-10
1.3879e-11
-1.27112e-11
8.67639e-12
-3.31166e-12
4.64652e-13
-7.97227e-13
-6.96109e-12
1.77706e-12
-1.59787e-11
4.18683e-12
-2.47514e-11
3.28642e-12
-3.09121e-11
6.7706e-13
-2.92463e-11
-6.5984e-12
-1.93995e-11
-1.41527e-11
-4.63284e-12
-1.83916e-11
1.74529e-11
-2.4542e-11
-8.09589e-12
-1.02478e-11
3.83045e-12
-2.23535e-11
1.03162e-11
-2.93212e-11
2.03798e-12
-2.50788e-11
-1.04501e-11
-1.96184e-11
-1.87995e-11
1.97122e-12
-2.04732e-11
1.73482e-12
-2.74595e-11
1.22132e-11
-2.24502e-11
2.03858e-11
-1.32931e-11
1.84499e-11
-3.60829e-12
9.22853e-12
3.94239e-12
-3.0908e-12
8.98505e-12
-1.66444e-11
1.21004e-11
-2.70324e-11
8.03735e-12
-3.35123e-11
2.02958e-12
-3.17869e-11
-1.26692e-11
-2.14087e-11
-2.81679e-11
-6.99712e-12
-3.57264e-11
1.682e-11
-5.0228e-11
-1.72163e-11
-7.53517e-12
1.1206e-11
-1.65583e-11
1.09868e-11
-1.62429e-11
-2.18362e-12
-1.53616e-11
-1.71037e-11
-1.51223e-11
-2.93429e-11
-5.14346e-12
-3.7042e-11
4.236e-13
-3.90168e-11
3.71026e-12
-3.20536e-11
6.23724e-12
-1.6802e-11
3.86383e-12
-2.87436e-12
5.83207e-13
6.75459e-12
-5.09437e-12
1.21898e-11
-1.30402e-11
1.55422e-11
-2.05382e-11
1.08867e-11
-2.61811e-11
3.53752e-12
-2.51221e-11
-1.7365e-11
-1.63388e-11
-3.98001e-11
-1.92178e-12
-5.18956e-11
1.86844e-11
-7.19082e-11
-2.3546e-11
-8.27163e-12
1.10204e-11
-1.86361e-11
1.33194e-11
-2.2848e-11
-2.34985e-12
-2.2513e-11
-2.40069e-11
-1.69029e-11
-4.36378e-11
-3.88486e-12
-5.5262e-11
6.29128e-12
-5.45298e-11
1.70116e-11
-4.09538e-11
2.02124e-11
-1.98215e-11
1.62988e-11
-2.49387e-12
9.72818e-12
1.33936e-11
-1.72855e-12
2.18623e-11
-1.53636e-11
2.6104e-11
-2.55685e-11
1.84624e-11
-3.16566e-11
7.14227e-12
-2.96938e-11
-2.20942e-11
-1.89456e-11
-5.26108e-11
-3.17842e-12
-6.84896e-11
2.05159e-11
-9.59468e-11
-3.22833e-11
-7.06948e-12
1.1906e-11
-1.18125e-11
1.3199e-11
-1.49637e-11
-5.49969e-12
-1.45754e-11
-3.06804e-11
-1.17332e-11
-5.2675e-11
-6.25696e-12
-6.32231e-11
-3.2463e-12
-6.18538e-11
1.61913e-12
-4.46631e-11
8.91589e-13
-2.49869e-11
2.80459e-12
-3.48946e-12
2.10715e-12
1.45897e-11
-1.86219e-12
2.4345e-11
-6.65041e-12
3.05163e-11
-1.06099e-11
2.31411e-11
-1.41672e-11
1.09145e-11
-1.49171e-11
-2.20727e-11
-1.09874e-11
-5.71571e-11
-3.77819e-12
-7.58046e-11
1.0492e-11
-1.10146e-10
-3.75277e-11
-9.66454e-12
1.20457e-11
-1.51849e-11
1.09259e-11
-1.94894e-11
-7.36242e-12
-2.02591e-11
-3.53411e-11
-1.35023e-11
-6.28605e-11
-1.32221e-12
-7.75422e-11
1.21381e-11
-7.36425e-11
1.72706e-11
-5.34659e-11
1.707e-11
-2.55884e-11
1.32193e-11
1.71139e-12
3.99824e-12
2.23861e-11
-6.10889e-12
3.44616e-11
-1.53746e-11
4.2425e-11
-2.22207e-11
3.31438e-11
-2.59032e-11
1.68999e-11
-2.20154e-11
-2.45493e-11
-1.08169e-11
-6.74018e-11
4.29613e-12
-9.0298e-11
2.34408e-11
-1.28796e-10
-4.30803e-11
-7.57244e-12
6.66936e-12
-9.13363e-12
2.80947e-12
-1.07065e-11
-1.4543e-11
-9.72218e-12
-3.95211e-11
-6.91515e-12
-6.58249e-11
-4.20874e-12
-8.10001e-11
-8.6539e-13
-7.75286e-11
7.96474e-13
-5.76098e-11
3.10753e-12
-2.86145e-11
3.32487e-12
-3.38702e-13
1.71621e-12
2.31359e-11
2.47693e-13
3.82324e-11
-1.79208e-12
4.82538e-11
-4.18517e-12
3.94861e-11
-6.87352e-12
2.34426e-11
-8.02838e-12
-2.00056e-11
-6.50904e-12
-6.65418e-11
-2.87145e-12
-9.25408e-11
7.34621e-12
-1.3794e-10
-4.6963e-11
-5.73452e-12
1.36377e-12
-9.37979e-12
-3.43967e-12
-1.0991e-11
-1.81106e-11
-1.07294e-11
-4.53689e-11
-5.73167e-12
-7.4458e-11
1.24907e-12
-8.98918e-11
6.04434e-12
-8.50395e-11
8.17769e-12
-6.18921e-11
7.54463e-12
-3.01891e-11
4.41945e-12
1.20289e-12
7.05426e-13
2.82251e-11
-3.52476e-12
4.54755e-11
-8.58072e-12
5.65236e-11
-1.23839e-11
4.69673e-11
-1.3846e-11
2.90696e-11
-1.09773e-11
-1.90791e-11
-4.56567e-12
-7.04134e-11
3.87624e-12
-9.92425e-11
1.5443e-11
-1.4755e-10
-4.98538e-11
-3.45823e-12
9.49443e-13
-5.13195e-12
-7.07871e-12
-5.481e-12
-2.32662e-11
-4.23814e-12
-5.04984e-11
-2.39245e-12
-8.04635e-11
-7.33302e-13
-9.68499e-11
2.83441e-13
-9.16798e-11
1.24595e-12
-6.6463e-11
9.50415e-13
-3.211e-11
-4.19497e-14
2.13077e-12
-6.58966e-13
3.11438e-11
-1.25918e-12
4.89265e-11
-2.01822e-12
6.00157e-11
-2.41542e-12
5.02476e-11
-2.58117e-12
3.22212e-11
-2.22565e-12
-1.68037e-11
-1.24719e-12
-6.96442e-11
1.22286e-13
-9.92324e-11
4.35001e-12
-1.49924e-10
-5.09566e-11
-1.0531e-12
7.52687e-13
-1.9447e-12
-8.74347e-12
-1.91486e-12
-2.53429e-11
-1.27325e-12
-5.37592e-11
-9.93465e-13
-8.59979e-11
-1.15374e-12
-1.02782e-10
-9.28595e-13
-9.5535e-11
-1.18944e-13
-6.82196e-11
6.37225e-13
-3.29048e-11
1.36648e-12
2.0293e-12
1.70947e-12
3.19775e-11
8.41903e-13
5.08589e-11
-1.07407e-12
6.30042e-11
-3.0127e-12
5.34101e-11
-4.40764e-12
3.47104e-11
-4.22685e-12
-1.6144e-11
-2.62927e-12
-7.06335e-11
3.75964e-13
-1.01628e-10
4.47824e-12
-1.53201e-10
-5.15494e-11
1.05694e-12
9.66279e-13
1.97683e-12
-7.03047e-12
1.9431e-12
-2.32312e-11
1.26976e-12
-5.05057e-11
9.86056e-13
-8.04918e-11
1.13964e-12
-9.68934e-11
9.40476e-13
-9.17252e-11
1.4617e-13
-6.65182e-11
-5.97572e-13
-3.21752e-11
-1.34799e-12
2.04779e-12
-1.72603e-12
3.1064e-11
-8.63127e-13
4.88624e-11
1.06729e-12
5.99429e-11
3.01199e-12
5.01659e-11
4.37853e-12
3.21467e-11
4.16235e-12
-1.68545e-11
2.56527e-12
-6.96551e-11
-4.02034e-13
-9.92367e-11
-4.5352e-12
-1.49895e-10
-5.09225e-11
3.48994e-12
1.40392e-12
5.14526e-12
-3.40371e-12
5.48297e-12
-1.80987e-11
4.24648e-12
-4.53903e-11
2.39822e-12
-7.45028e-11
7.25563e-13
-8.99809e-11
-2.96763e-13
-8.51272e-11
-1.25474e-12
-6.19774e-11
-9.47708e-13
-3.02675e-11
6.01987e-14
1.09034e-12
6.55231e-13
2.80959e-11
1.22298e-12
4.53917e-11
1.99958e-12
5.6473e-11
2.43958e-12
4.69114e-11
2.60478e-12
2.89871e-11
2.21323e-12
-1.91634e-11
1.20748e-12
-7.04404e-11
-1.52381e-13
-9.92575e-11
-4.40534e-12
-1.47494e-10
-4.97811e-11
5.76413e-12
6.72933e-12
9.37172e-12
2.80819e-12
1.09652e-11
-1.45879e-11
1.07287e-11
-3.95524e-11
5.72325e-12
-6.58813e-11
-1.23459e-12
-8.1095e-11
-6.05672e-12
-7.7571e-11
-8.18752e-12
-5.7625e-11
-7.57684e-12
-2.86025e-11
-4.3936e-12
-3.53748e-13
-6.39139e-13
2.30168e-11
3.52335e-12
3.81083e-11
8.52603e-12
4.82169e-11
1.23553e-11
3.95053e-11
1.38661e-11
2.34291e-11
1.10112e-11
-2.00665e-11
4.57751e-12
-6.65774e-11
-3.88005e-12
-9.25813e-11
-1.54734e-11
-1.37869e-10
-4.68653e-11
7.55593e-12
1.20609e-11
9.09128e-12
1.08673e-11
1.06934e-11
-7.40809e-12
9.71735e-12
-3.53579e-11
6.8943e-12
-6.29208e-11
4.2572e-12
-7.74453e-11
8.24061e-13
-7.34984e-11
-8.41199e-13
-5.3218e-11
-3.22475e-12
-2.53747e-11
-3.42992e-12
1.93629e-12
-1.64245e-12
2.24599e-11
-1.2992e-13
3.43615e-11
1.79457e-12
4.23291e-11
4.11767e-12
3.31575e-11
6.86034e-12
1.69504e-11
8.09352e-12
-2.45435e-11
6.57826e-12
-6.74041e-11
2.90077e-12
-9.03399e-11
-7.3681e-12
-1.28707e-10
-4.29572e-11
9.58042e-12
1.18461e-11
1.51344e-11
1.31318e-11
1.9475e-11
-5.51687e-12
2.02e-11
-3.06931e-11
1.35767e-11
-5.25179e-11
1.355e-12
-6.27762e-11
-1.2133e-11
-6.18447e-11
-1.73994e-11
-4.44288e-11
-1.7205e-11
-2.46692e-11
-1.34992e-11
-3.14836e-12
-4.11946e-12
1.49123e-11
6.24246e-12
2.44499e-11
1.54959e-11
3.04533e-11
2.21905e-11
2.31121e-11
2.58298e-11
1.0969e-11
2.19982e-11
-2.20116e-11
1.08292e-11
-5.71095e-11
-4.30387e-12
-7.58339e-11
-2.34706e-11
-1.10072e-10
-3.74192e-11
6.98245e-12
1.09281e-11
1.17826e-11
1.32883e-11
1.49193e-11
-2.33541e-12
1.45993e-11
-2.39103e-11
1.20392e-11
-4.31501e-11
6.00557e-12
-5.51908e-11
3.61612e-12
-5.51787e-11
-1.61291e-12
-4.18182e-11
-1.02491e-12
-1.99253e-11
-3.16143e-12
-2.3328e-12
-2.5288e-12
1.37073e-11
1.76392e-12
2.21277e-11
6.7682e-12
2.61697e-11
1.06594e-11
1.84413e-11
1.4112e-11
7.15198e-12
1.48695e-11
-2.20598e-11
1.0989e-11
-5.25643e-11
3.80128e-12
-6.85171e-11
-1.04861e-11
-9.58618e-11
-3.21647e-11
8.24955e-12
1.11827e-11
1.86372e-11
1.09778e-11
2.28191e-11
-2.13238e-12
2.28005e-11
-1.68466e-11
1.6989e-11
-2.91065e-11
3.32505e-12
-3.79955e-11
-5.91519e-12
-3.93433e-11
-1.61809e-11
-3.2944e-11
-1.99224e-11
-1.77595e-11
-1.63404e-11
-3.29333e-12
-1.01408e-11
6.73787e-12
1.40381e-12
1.23832e-11
1.53391e-11
1.5689e-11
2.56393e-11
1.09231e-11
3.16424e-11
3.53011e-12
2.96098e-11
-1.73668e-11
1.88614e-11
-3.97674e-11
3.10764e-12
-5.19059e-11
-2.05532e-11
-7.18272e-11
-2.34418e-11
7.58178e-12
3.91208e-12
1.65947e-11
1.03918e-11
1.64942e-11
2.09444e-12
1.60585e-11
-1.03178e-11
1.37852e-11
-1.93956e-11
5.57246e-12
-2.19967e-11
-2.17469e-12
-1.45947e-11
-2.5577e-12
-2.12268e-11
-4.70233e-12
-1.37457e-11
-3.13754e-12
-4.26317e-12
-7.94945e-13
3.467e-12
4.62792e-12
8.81794e-12
1.28269e-11
1.21305e-11
2.05408e-11
8.08646e-12
2.61942e-11
2.02464e-12
2.50675e-11
-1.26942e-11
1.62569e-11
-2.81536e-11
1.84798e-12
-3.57259e-11
-1.87228e-11
-5.0144e-11
-1.71373e-11
1.0255e-11
2.14111e-12
2.22303e-11
3.49046e-12
2.94837e-11
-9.18228e-13
2.64258e-11
-4.22664e-11
1.7469e-11
-6.58357e-11
-5.72019e-12
-1.58618e-10
-1.76922e-11
-2.90453e-10
-1.09748e-11
1.87524e-10
-1.91477e-11
-1.14303e-11
-1.8193e-11
-3.50715e-12
-9.35861e-12
-1.54136e-12
2.89987e-12
1.26327e-12
1.64887e-11
4.07021e-12
2.6968e-11
3.32345e-12
3.35026e-11
6.90923e-13
3.17744e-11
-6.62644e-12
2.13889e-11
-1.41618e-11
6.97452e-12
-1.83949e-11
-1.68002e-11
-2.44869e-11
-8.02464e-12
1.21382e-11
1.58212e-11
2.02203e-11
1.69746e-11
7.13724e-12
1.40519e-11
2.58228e-12
-2.05391e-11
-1.6566e-11
-8.96184e-12
6.60864e-13
7.76525e-12
1.60942e-11
2.46461e-11
3.08685e-11
2.92267e-11
1.93483e-11
4.53665e-12
-1.75176e-11
)
;

boundaryField
{
    sides
    {
        type            calculated;
        value           uniform 0;
    }
    inlet
    {
        type            calculated;
        value           uniform 0;
    }
    outlet
    {
        type            calculated;
        value           nonuniform List<scalar> 
20
(
2.46677e-11
2.52375e-11
2.4442e-11
2.90084e-11
1.57381e-11
2.9236e-11
1.17422e-11
1.94151e-11
6.52504e-12
5.52706e-12
-5.63534e-12
-6.62268e-12
-1.94652e-11
-1.1795e-11
-2.92686e-11
-1.57495e-11
-2.90199e-11
-2.44373e-11
-2.52019e-11
-2.46664e-11
)
;
    }
    frontAndBack
    {
        type            empty;
        value           nonuniform 0();
    }
}


// ************************************************************************* //
