/*--------------------------------*- C++ -*----------------------------------*\
  =========                 |
  \\      /  F ield         | OpenFOAM: The Open Source CFD Toolbox
   \\    /   O peration     | Website:  https://openfoam.org
    \\  /    A nd           | Version:  7
     \\/     M anipulation  |
\*---------------------------------------------------------------------------*/
FoamFile
{
    version     2.0;
    format      ascii;
    class       volVectorField;
    location    "31";
    object      hU_0;
}
// * * * * * * * * * * * * * * * * * * * * * * * * * * * * * * * * * * * * * //

dimensions      [0 2 -1 0 0 0 0];

internalField   nonuniform List<vector> 
400
(
(0.001 -9.51739e-09 0)
(0.000999997 -2.59708e-08 0)
(0.000999999 -3.88109e-08 0)
(0.001 -4.92471e-08 0)
(0.00100001 -5.81982e-08 0)
(0.00100002 -6.68482e-08 0)
(0.00100002 -7.53604e-08 0)
(0.00100003 -8.50505e-08 0)
(0.00100004 -9.55915e-08 0)
(0.00100005 -1.08385e-07 0)
(0.00100007 -1.20538e-07 0)
(0.00100009 -1.35512e-07 0)
(0.00100011 -1.47416e-07 0)
(0.00100015 -1.6558e-07 0)
(0.00100017 -1.75151e-07 0)
(0.00100024 -1.99357e-07 0)
(0.00100026 -2.02061e-07 0)
(0.00100038 -2.42847e-07 0)
(0.00100038 -2.35819e-07 0)
(0.0010006 -3.27698e-07 0)
(0.001 3.85162e-09 0)
(0.001 1.1526e-08 0)
(0.00100001 1.88624e-08 0)
(0.00100002 2.56945e-08 0)
(0.00100002 3.24278e-08 0)
(0.00100003 3.87627e-08 0)
(0.00100003 4.52104e-08 0)
(0.00100004 5.11974e-08 0)
(0.00100005 5.72437e-08 0)
(0.00100006 6.17385e-08 0)
(0.00100007 6.65952e-08 0)
(0.0010001 6.79898e-08 0)
(0.00100011 7.13425e-08 0)
(0.00100015 6.7536e-08 0)
(0.00100018 7.10345e-08 0)
(0.00100023 5.7858e-08 0)
(0.00100026 6.42712e-08 0)
(0.00100035 2.93106e-08 0)
(0.00100038 4.01097e-08 0)
(0.0010005 -5.17037e-08 0)
(0.001 -4.96037e-09 0)
(0.000999998 -1.67825e-08 0)
(0.000999999 -2.85808e-08 0)
(0.001 -3.91679e-08 0)
(0.00100001 -4.80194e-08 0)
(0.00100001 -5.60644e-08 0)
(0.00100002 -6.37729e-08 0)
(0.00100003 -7.31998e-08 0)
(0.00100003 -8.38117e-08 0)
(0.00100005 -9.79682e-08 0)
(0.00100006 -1.12545e-07 0)
(0.00100008 -1.32114e-07 0)
(0.0010001 -1.49125e-07 0)
(0.00100013 -1.75359e-07 0)
(0.00100015 -1.92012e-07 0)
(0.00100021 -2.28987e-07 0)
(0.00100023 -2.40202e-07 0)
(0.00100031 -2.99865e-07 0)
(0.00100033 -3.014e-07 0)
(0.00100046 -4.13225e-07 0)
(0.001 -1.84687e-09 0)
(0.001 -6.07973e-09 0)
(0.001 -8.00252e-09 0)
(0.00100001 -7.74674e-09 0)
(0.00100002 -5.67494e-09 0)
(0.00100002 -2.68523e-09 0)
(0.00100003 7.55635e-10 0)
(0.00100004 2.18496e-09 0)
(0.00100004 1.69413e-09 0)
(0.00100005 -3.12619e-09 0)
(0.00100006 -9.09131e-09 0)
(0.00100008 -2.09008e-08 0)
(0.0010001 -3.0939e-08 0)
(0.00100013 -5.14561e-08 0)
(0.00100015 -6.29436e-08 0)
(0.00100019 -9.60898e-08 0)
(0.00100022 -1.02597e-07 0)
(0.00100028 -1.59027e-07 0)
(0.00100031 -1.55951e-07 0)
(0.00100039 -2.64984e-07 0)
(0.001 -4.02331e-09 0)
(0.000999999 -1.39854e-08 0)
(0.001 -2.39182e-08 0)
(0.001 -3.29849e-08 0)
(0.00100001 -4.04942e-08 0)
(0.00100001 -4.72212e-08 0)
(0.00100002 -5.36508e-08 0)
(0.00100002 -6.21436e-08 0)
(0.00100003 -7.24822e-08 0)
(0.00100004 -8.71635e-08 0)
(0.00100005 -1.03388e-07 0)
(0.00100007 -1.26112e-07 0)
(0.00100008 -1.47417e-07 0)
(0.00100011 -1.79555e-07 0)
(0.00100012 -2.02133e-07 0)
(0.00100016 -2.47067e-07 0)
(0.00100018 -2.63762e-07 0)
(0.00100024 -3.3153e-07 0)
(0.00100025 -3.35767e-07 0)
(0.00100033 -4.5128e-07 0)
(0.001 -4.91308e-09 0)
(0.001 -1.52734e-08 0)
(0.001 -2.35356e-08 0)
(0.00100001 -2.89299e-08 0)
(0.00100001 -3.11253e-08 0)
(0.00100002 -3.15819e-08 0)
(0.00100002 -3.16871e-08 0)
(0.00100002 -3.4742e-08 0)
(0.00100003 -4.09619e-08 0)
(0.00100004 -5.28207e-08 0)
(0.00100004 -6.71587e-08 0)
(0.00100006 -8.84606e-08 0)
(0.00100007 -1.08872e-07 0)
(0.00100009 -1.40462e-07 0)
(0.00100011 -1.6253e-07 0)
(0.00100014 -2.06635e-07 0)
(0.00100016 -2.21017e-07 0)
(0.0010002 -2.86208e-07 0)
(0.00100022 -2.86337e-07 0)
(0.00100027 -3.98304e-07 0)
(0.001 -5.6434e-09 0)
(0.001 -1.69146e-08 0)
(0.001 -2.71139e-08 0)
(0.001 -3.59045e-08 0)
(0.00100001 -4.23979e-08 0)
(0.00100001 -4.74845e-08 0)
(0.00100001 -5.21509e-08 0)
(0.00100002 -5.9423e-08 0)
(0.00100002 -6.94261e-08 0)
(0.00100003 -8.48149e-08 0)
(0.00100004 -1.0274e-07 0)
(0.00100005 -1.28056e-07 0)
(0.00100006 -1.52903e-07 0)
(0.00100007 -1.89537e-07 0)
(0.00100008 -2.16689e-07 0)
(0.00100011 -2.66652e-07 0)
(0.00100012 -2.85958e-07 0)
(0.00100015 -3.56754e-07 0)
(0.00100016 -3.60094e-07 0)
(0.00100021 -4.753e-07 0)
(0.001 -6.3477e-09 0)
(0.001 -1.87492e-08 0)
(0.001 -2.97352e-08 0)
(0.001 -3.8379e-08 0)
(0.00100001 -4.35681e-08 0)
(0.00100001 -4.67069e-08 0)
(0.00100001 -4.95703e-08 0)
(0.00100001 -5.57076e-08 0)
(0.00100002 -6.55228e-08 0)
(0.00100002 -8.15248e-08 0)
(0.00100003 -1.00669e-07 0)
(0.00100003 -1.27308e-07 0)
(0.00100004 -1.53484e-07 0)
(0.00100005 -1.91019e-07 0)
(0.00100006 -2.18679e-07 0)
(0.00100008 -2.68493e-07 0)
(0.00100009 -2.86744e-07 0)
(0.00100011 -3.56246e-07 0)
(0.00100012 -3.57529e-07 0)
(0.00100015 -4.70523e-07 0)
(0.001 -6.77703e-09 0)
(0.001 -1.95778e-08 0)
(0.001 -3.09769e-08 0)
(0.001 -4.04208e-08 0)
(0.001 -4.67182e-08 0)
(0.001 -5.10073e-08 0)
(0.00100001 -5.48792e-08 0)
(0.00100001 -6.17972e-08 0)
(0.00100001 -7.21421e-08 0)
(0.00100001 -8.85385e-08 0)
(0.00100002 -1.08161e-07 0)
(0.00100002 -1.35659e-07 0)
(0.00100003 -1.63112e-07 0)
(0.00100003 -2.02582e-07 0)
(0.00100004 -2.3236e-07 0)
(0.00100005 -2.84827e-07 0)
(0.00100005 -3.05066e-07 0)
(0.00100007 -3.7678e-07 0)
(0.00100007 -3.7889e-07 0)
(0.00100009 -4.92944e-07 0)
(0.001 -6.9084e-09 0)
(0.001 -2.00273e-08 0)
(0.001 -3.18411e-08 0)
(0.001 -4.15962e-08 0)
(0.001 -4.79004e-08 0)
(0.001 -5.1968e-08 0)
(0.001 -5.56165e-08 0)
(0.001 -6.25342e-08 0)
(0.001 -7.32463e-08 0)
(0.001 -9.03426e-08 0)
(0.00100001 -1.10887e-07 0)
(0.00100001 -1.39245e-07 0)
(0.00100001 -1.67434e-07 0)
(0.00100001 -2.07325e-07 0)
(0.00100001 -2.37333e-07 0)
(0.00100002 -2.89728e-07 0)
(0.00100002 -3.09697e-07 0)
(0.00100002 -3.81106e-07 0)
(0.00100002 -3.82802e-07 0)
(0.00100003 -4.96367e-07 0)
(0.001 -6.90892e-09 0)
(0.001 -2.00273e-08 0)
(0.001 -3.18404e-08 0)
(0.000999999 -4.15954e-08 0)
(0.000999999 -4.79002e-08 0)
(0.000999998 -5.19682e-08 0)
(0.000999998 -5.5617e-08 0)
(0.000999997 -6.25349e-08 0)
(0.000999996 -7.32471e-08 0)
(0.000999996 -9.03429e-08 0)
(0.000999995 -1.10886e-07 0)
(0.000999993 -1.39243e-07 0)
(0.000999992 -1.67432e-07 0)
(0.00099999 -2.07322e-07 0)
(0.000999988 -2.37331e-07 0)
(0.000999984 -2.89726e-07 0)
(0.000999982 -3.09696e-07 0)
(0.000999977 -3.81103e-07 0)
(0.000999975 -3.828e-07 0)
(0.00099997 -4.96366e-07 0)
(0.001 -6.77802e-09 0)
(0.001 -1.95775e-08 0)
(0.000999999 -3.09753e-08 0)
(0.000999998 -4.04193e-08 0)
(0.000999997 -4.67178e-08 0)
(0.000999996 -5.10072e-08 0)
(0.000999994 -5.48791e-08 0)
(0.000999992 -6.17967e-08 0)
(0.00099999 -7.21424e-08 0)
(0.000999987 -8.85385e-08 0)
(0.000999984 -1.08161e-07 0)
(0.000999979 -1.35655e-07 0)
(0.000999975 -1.63107e-07 0)
(0.000999968 -2.02571e-07 0)
(0.000999962 -2.3235e-07 0)
(0.000999953 -2.84805e-07 0)
(0.000999947 -3.05045e-07 0)
(0.000999934 -3.7674e-07 0)
(0.00099993 -3.7885e-07 0)
(0.000999912 -4.9289e-07 0)
(0.001 -6.34793e-09 0)
(0.001 -1.87478e-08 0)
(0.000999999 -2.97336e-08 0)
(0.000999997 -3.83796e-08 0)
(0.000999994 -4.35711e-08 0)
(0.000999992 -4.67109e-08 0)
(0.00099999 -4.95735e-08 0)
(0.000999987 -5.57102e-08 0)
(0.000999984 -6.55267e-08 0)
(0.000999979 -8.15302e-08 0)
(0.000999974 -1.00676e-07 0)
(0.000999967 -1.27312e-07 0)
(0.000999959 -1.53489e-07 0)
(0.000999948 -1.9102e-07 0)
(0.000999937 -2.18685e-07 0)
(0.00099992 -2.6849e-07 0)
(0.000999909 -2.86745e-07 0)
(0.000999888 -3.56235e-07 0)
(0.00099988 -3.57516e-07 0)
(0.000999852 -4.70515e-07 0)
(0.001 -5.64274e-09 0)
(0.001 -1.69131e-08 0)
(0.000999998 -2.71126e-08 0)
(0.000999996 -3.59044e-08 0)
(0.000999994 -4.23999e-08 0)
(0.000999991 -4.74859e-08 0)
(0.000999987 -5.21483e-08 0)
(0.000999982 -5.9417e-08 0)
(0.000999977 -6.942e-08 0)
(0.000999971 -8.48081e-08 0)
(0.000999964 -1.02734e-07 0)
(0.000999954 -1.28041e-07 0)
(0.000999944 -1.52885e-07 0)
(0.000999928 -1.89504e-07 0)
(0.000999916 -2.16663e-07 0)
(0.000999893 -2.666e-07 0)
(0.000999879 -2.85915e-07 0)
(0.000999847 -3.56667e-07 0)
(0.000999838 -3.60012e-07 0)
(0.000999793 -4.75174e-07 0)
(0.001 -4.91195e-09 0)
(0.001 -1.5273e-08 0)
(0.000999998 -2.35379e-08 0)
(0.000999993 -2.89361e-08 0)
(0.000999989 -3.11353e-08 0)
(0.000999985 -3.15885e-08 0)
(0.00099998 -3.16889e-08 0)
(0.000999975 -3.47404e-08 0)
(0.00099997 -4.0964e-08 0)
(0.000999963 -5.28271e-08 0)
(0.000999955 -6.71723e-08 0)
(0.000999942 -8.84729e-08 0)
(0.000999929 -1.08886e-07 0)
(0.000999908 -1.40468e-07 0)
(0.000999889 -1.62543e-07 0)
(0.000999859 -2.06634e-07 0)
(0.000999839 -2.21021e-07 0)
(0.000999799 -2.86192e-07 0)
(0.000999784 -2.86318e-07 0)
(0.000999733 -3.98291e-07 0)
(0.001 -4.023e-09 0)
(0.001 -1.39848e-08 0)
(0.000999999 -2.39172e-08 0)
(0.000999996 -3.29849e-08 0)
(0.000999993 -4.04939e-08 0)
(0.000999989 -4.72122e-08 0)
(0.000999984 -5.36427e-08 0)
(0.000999977 -6.21258e-08 0)
(0.000999969 -7.24646e-08 0)
(0.00099996 -8.71448e-08 0)
(0.000999949 -1.03376e-07 0)
(0.000999934 -1.26094e-07 0)
(0.000999919 -1.47402e-07 0)
(0.000999895 -1.7952e-07 0)
(0.000999875 -2.02111e-07 0)
(0.000999838 -2.47012e-07 0)
(0.000999817 -2.63731e-07 0)
(0.000999764 -3.31442e-07 0)
(0.00099975 -3.35698e-07 0)
(0.000999671 -4.51138e-07 0)
(0.001 -1.84835e-09 0)
(0.001 -6.0836e-09 0)
(0.000999996 -8.0089e-09 0)
(0.000999989 -7.7528e-09 0)
(0.000999983 -5.6691e-09 0)
(0.000999978 -2.67128e-09 0)
(0.000999972 7.46724e-10 0)
(0.000999964 2.18297e-09 0)
(0.000999957 1.70396e-09 0)
(0.000999948 -3.11587e-09 0)
(0.000999937 -9.09029e-09 0)
(0.000999919 -2.09021e-08 0)
(0.000999902 -3.09471e-08 0)
(0.000999874 -5.14524e-08 0)
(0.000999849 -6.2947e-08 0)
(0.000999806 -9.60687e-08 0)
(0.000999777 -1.02582e-07 0)
(0.000999717 -1.58978e-07 0)
(0.000999694 -1.559e-07 0)
(0.000999612 -2.64927e-07 0)
(0.001 -4.96092e-09 0)
(0.001 -1.67804e-08 0)
(0.001 -2.85793e-08 0)
(0.000999997 -3.91709e-08 0)
(0.000999994 -4.80163e-08 0)
(0.000999989 -5.60474e-08 0)
(0.000999983 -6.38043e-08 0)
(0.000999974 -7.31986e-08 0)
(0.000999966 -8.38041e-08 0)
(0.000999954 -9.7963e-08 0)
(0.000999941 -1.12546e-07 0)
(0.00099992 -1.32107e-07 0)
(0.000999902 -1.4913e-07 0)
(0.000999869 -1.75349e-07 0)
(0.000999845 -1.92025e-07 0)
(0.000999793 -2.2897e-07 0)
(0.000999766 -2.40221e-07 0)
(0.000999686 -2.99832e-07 0)
(0.000999669 -3.01403e-07 0)
(0.000999542 -4.13161e-07 0)
(0.001 3.84791e-09 0)
(0.000999998 1.15264e-08 0)
(0.000999992 1.88713e-08 0)
(0.000999985 2.57116e-08 0)
(0.000999979 3.24138e-08 0)
(0.000999973 3.87024e-08 0)
(0.000999966 4.52443e-08 0)
(0.000999958 5.1178e-08 0)
(0.00099995 5.71939e-08 0)
(0.000999938 6.17056e-08 0)
(0.000999926 6.65861e-08 0)
(0.000999905 6.80047e-08 0)
(0.000999885 7.13549e-08 0)
(0.000999851 6.75626e-08 0)
(0.000999823 7.105e-08 0)
(0.000999768 5.7907e-08 0)
(0.000999736 6.43037e-08 0)
(0.000999651 2.93946e-08 0)
(0.000999625 4.01749e-08 0)
(0.000999497 -5.15851e-08 0)
(0.001 -9.52005e-09 0)
(0.001 -2.5973e-08 0)
(0.001 -3.88097e-08 0)
(0.000999996 -4.92385e-08 0)
(0.000999991 -5.82243e-08 0)
(0.000999985 -6.69369e-08 0)
(0.000999978 -7.53311e-08 0)
(0.000999969 -8.5107e-08 0)
(0.00099996 -9.56763e-08 0)
(0.000999947 -1.08449e-07 0)
(0.000999934 -1.20584e-07 0)
(0.00099991 -1.35546e-07 0)
(0.000999893 -1.47458e-07 0)
(0.000999852 -1.65624e-07 0)
(0.000999831 -1.75207e-07 0)
(0.000999761 -1.99413e-07 0)
(0.000999741 -2.02125e-07 0)
(0.000999621 -2.42916e-07 0)
(0.000999615 -2.35887e-07 0)
(0.000999396 -3.27823e-07 0)
)
;

boundaryField
{
    sides
    {
        type            slip;
    }
    inlet
    {
        type            fixedValue;
        value           uniform (0.001 0 0);
    }
    outlet
    {
        type            zeroGradient;
    }
    frontAndBack
    {
        type            empty;
    }
}


// ************************************************************************* //
