/*--------------------------------*- C++ -*----------------------------------*\
  =========                 |
  \\      /  F ield         | OpenFOAM: The Open Source CFD Toolbox
   \\    /   O peration     | Website:  https://openfoam.org
    \\  /    A nd           | Version:  7
     \\/     M anipulation  |
\*---------------------------------------------------------------------------*/
FoamFile
{
    version     2.0;
    format      ascii;
    class       surfaceScalarField;
    location    "31";
    object      phi;
}
// * * * * * * * * * * * * * * * * * * * * * * * * * * * * * * * * * * * * * //

dimensions      [0 4 -1 0 0 0 0];

internalField   nonuniform List<scalar> 
760
(
4.99999e-06
7.22546e-12
4.99999e-06
-1.17873e-11
5.00001e-06
-2.433e-11
5.00003e-06
-3.0138e-11
5.00006e-06
-3.48755e-11
5.00009e-06
-4.41133e-11
5.00013e-06
-4.51864e-11
5.00018e-06
-4.32105e-11
5.00023e-06
-5.78306e-11
5.0003e-06
-7.31936e-11
5.00038e-06
-8.70929e-11
5.00049e-06
-1.1394e-10
5.00062e-06
-1.31177e-10
5.0008e-06
-1.77156e-10
5.00098e-06
-1.90623e-10
5.00125e-06
-2.72528e-10
5.00152e-06
-2.66844e-10
5.00196e-06
-4.38996e-10
5.00236e-06
-4.08908e-10
-8.75855e-10
5.00002e-06
-1.49922e-11
5.00003e-06
-3.32759e-11
5.00005e-06
-5.18646e-11
5.00008e-06
-6.69564e-11
5.00012e-06
-7.56238e-11
5.00015e-06
-8.18519e-11
5.00019e-06
-8.6861e-11
5.00023e-06
-9.68407e-11
5.00028e-06
-1.11034e-10
5.00034e-06
-1.4005e-10
5.00042e-06
-1.68755e-10
5.00052e-06
-2.21448e-10
5.00065e-06
-2.60141e-10
5.00081e-06
-3.4466e-10
5.001e-06
-3.81123e-10
5.00125e-06
-5.18998e-10
5.00151e-06
-5.31678e-10
5.00185e-06
-7.83266e-10
5.00219e-06
-7.5034e-10
-1.23295e-09
4.99999e-06
-9.58884e-12
4.99999e-06
-4.04548e-11
5e-06
-6.91309e-11
5.00002e-06
-9.14383e-11
5.00004e-06
-1.06363e-10
5.00007e-06
-1.17743e-10
5.00011e-06
-1.27193e-10
5.00015e-06
-1.43733e-10
5.0002e-06
-1.66424e-10
5.00026e-06
-2.07064e-10
5.00034e-06
-2.52176e-10
5.00044e-06
-3.23362e-10
5.00056e-06
-3.85564e-10
5.00071e-06
-4.95687e-10
5.00089e-06
-5.63383e-10
5.0011e-06
-7.33365e-10
5.00135e-06
-7.79955e-10
5.00163e-06
-1.06324e-09
5.00195e-06
-1.06845e-09
-1.64445e-09
5e-06
-1.79527e-11
5.00002e-06
-5.8832e-11
5.00004e-06
-9.54462e-11
5.00006e-06
-1.24627e-10
5.00009e-06
-1.4357e-10
5.00013e-06
-1.56241e-10
5.00016e-06
-1.65297e-10
5.0002e-06
-1.84337e-10
5.00024e-06
-2.1294e-10
5.00029e-06
-2.64899e-10
5.00036e-06
-3.2374e-10
5.00045e-06
-4.15229e-10
5.00055e-06
-4.97825e-10
5.00069e-06
-6.36142e-10
5.00085e-06
-7.25302e-10
5.00105e-06
-9.28875e-10
5.00125e-06
-9.90359e-10
5.0015e-06
-1.30923e-09
5.00174e-06
-1.31125e-09
-1.83984e-09
5e-06
-2.05724e-11
5e-06
-6.79233e-11
5.00001e-06
-1.11064e-10
5.00003e-06
-1.45421e-10
5.00004e-06
-1.6871e-10
5.00007e-06
-1.85769e-10
5.0001e-06
-2.00284e-10
5.00013e-06
-2.25035e-10
5.00018e-06
-2.61092e-10
5.00023e-06
-3.2113e-10
5.00029e-06
-3.91481e-10
5.00037e-06
-4.95799e-10
5.00046e-06
-5.95675e-10
5.00058e-06
-7.5163e-10
5.00071e-06
-8.62447e-10
5.00087e-06
-1.08534e-09
5.00104e-06
-1.16665e-09
5.00123e-06
-1.4968e-09
5.00143e-06
-1.51199e-09
-2.09435e-09
5e-06
-2.50436e-11
5.00001e-06
-8.00726e-11
5.00002e-06
-1.30124e-10
5.00004e-06
-1.71366e-10
5.00006e-06
-1.98377e-10
5.00009e-06
-2.15662e-10
5.00011e-06
-2.29209e-10
5.00014e-06
-2.55596e-10
5.00017e-06
-2.96397e-10
5.0002e-06
-3.6526e-10
5.00026e-06
-4.47098e-10
5.00032e-06
-5.6588e-10
5.0004e-06
-6.80978e-10
5.00051e-06
-8.55143e-10
5.00062e-06
-9.8103e-10
5.00076e-06
-1.22186e-09
5.0009e-06
-1.31032e-09
5.00106e-06
-1.65539e-09
5.00122e-06
-1.66912e-09
-2.213e-09
5e-06
-2.99196e-11
5.00001e-06
-8.96747e-11
5.00001e-06
-1.43167e-10
5.00002e-06
-1.87335e-10
5.00004e-06
-2.17589e-10
5.00005e-06
-2.38386e-10
5.00008e-06
-2.55534e-10
5.0001e-06
-2.85409e-10
5.00013e-06
-3.30369e-10
5.00016e-06
-4.04225e-10
5.00021e-06
-4.92879e-10
5.00026e-06
-6.19629e-10
5.00032e-06
-7.44805e-10
5.00039e-06
-9.298e-10
5.00048e-06
-1.06771e-09
5.00057e-06
-1.32071e-09
5.00068e-06
-1.41928e-09
5.0008e-06
-1.77085e-09
5.00091e-06
-1.78485e-09
-2.35537e-09
5e-06
-3.29454e-11
5e-06
-9.62937e-11
5.00001e-06
-1.5384e-10
5.00002e-06
-2.02449e-10
5.00003e-06
-2.35e-10
5.00005e-06
-2.5616e-10
5.00006e-06
-2.73551e-10
5.00007e-06
-3.04774e-10
5.00009e-06
-3.52635e-10
5.00012e-06
-4.30984e-10
5.00015e-06
-5.25718e-10
5.00018e-06
-6.6004e-10
5.00023e-06
-7.93801e-10
5.00029e-06
-9.88182e-10
5.00035e-06
-1.13431e-09
5.00043e-06
-1.39552e-09
5.00051e-06
-1.49727e-09
5.00059e-06
-1.85403e-09
5.00067e-06
-1.86895e-09
-2.42203e-09
5e-06
-3.44497e-11
5e-06
-1.00298e-10
5.00001e-06
-1.60017e-10
5.00001e-06
-2.10489e-10
5.00002e-06
-2.44838e-10
5.00003e-06
-2.67213e-10
5.00003e-06
-2.85437e-10
5.00004e-06
-3.17721e-10
5.00006e-06
-3.67425e-10
5.00007e-06
-4.48481e-10
5.00009e-06
-5.46726e-10
5.00011e-06
-6.8495e-10
5.00014e-06
-8.22717e-10
5.00017e-06
-1.02129e-09
5.00021e-06
-1.17145e-09
5.00025e-06
-1.4372e-09
5.0003e-06
-1.54228e-09
5.00035e-06
-1.90221e-09
5.00039e-06
-1.91621e-09
-2.47603e-09
5e-06
-3.47618e-11
5e-06
-1.01386e-10
5e-06
-1.61922e-10
5e-06
-2.13562e-10
5.00001e-06
-2.48591e-10
5.00001e-06
-2.71278e-10
5.00001e-06
-2.89715e-10
5.00002e-06
-3.22312e-10
5.00002e-06
-3.72404e-10
5.00002e-06
-4.5377e-10
5.00003e-06
-5.52606e-10
5.00004e-06
-6.91969e-10
5.00005e-06
-8.31753e-10
5.00006e-06
-1.03277e-09
5.00007e-06
-1.18544e-09
5.00009e-06
-1.45325e-09
5.0001e-06
-1.55901e-09
5.00012e-06
-1.91911e-09
5.00014e-06
-1.93238e-09
-2.48942e-09
5e-06
-3.44517e-11
5e-06
-1.00294e-10
5e-06
-1.60008e-10
5e-06
-2.10484e-10
4.99999e-06
-2.44839e-10
4.99999e-06
-2.67219e-10
4.99999e-06
-2.85444e-10
4.99998e-06
-3.17727e-10
4.99998e-06
-3.67434e-10
4.99998e-06
-4.48491e-10
4.99997e-06
-5.46737e-10
4.99996e-06
-6.84951e-10
4.99995e-06
-8.22718e-10
4.99994e-06
-1.02127e-09
4.99993e-06
-1.17144e-09
4.99991e-06
-1.43716e-09
4.9999e-06
-1.54224e-09
4.99988e-06
-1.90213e-09
4.99986e-06
-1.91613e-09
-2.4759e-09
5e-06
-3.29449e-11
5e-06
-9.62866e-11
4.99999e-06
-1.5383e-10
4.99999e-06
-2.02446e-10
4.99998e-06
-2.35008e-10
4.99997e-06
-2.56175e-10
4.99997e-06
-2.73564e-10
4.99996e-06
-3.04783e-10
4.99994e-06
-3.52647e-10
4.99993e-06
-4.30999e-10
4.99991e-06
-5.25735e-10
4.99989e-06
-6.60035e-10
4.99986e-06
-7.93791e-10
4.99983e-06
-9.8814e-10
4.99979e-06
-1.13428e-09
4.99975e-06
-1.39544e-09
4.9997e-06
-1.4972e-09
4.99965e-06
-1.85388e-09
4.99961e-06
-1.86878e-09
-2.42184e-09
5e-06
-2.99129e-11
5e-06
-8.96679e-11
4.99999e-06
-1.43165e-10
4.99998e-06
-1.87342e-10
4.99997e-06
-2.17611e-10
4.99995e-06
-2.38412e-10
4.99994e-06
-2.55546e-10
4.99993e-06
-2.85408e-10
4.99991e-06
-3.30369e-10
4.99988e-06
-4.04229e-10
4.99985e-06
-4.92899e-10
4.99982e-06
-6.19624e-10
4.99977e-06
-7.44795e-10
4.99971e-06
-9.29741e-10
4.99965e-06
-1.06768e-09
4.99957e-06
-1.3206e-09
4.99949e-06
-1.41921e-09
4.99941e-06
-1.77064e-09
4.99933e-06
-1.78464e-09
-2.35504e-09
5e-06
-2.50385e-11
4.99999e-06
-8.00713e-11
4.99999e-06
-1.30128e-10
4.99998e-06
-1.7138e-10
4.99996e-06
-1.98406e-10
4.99995e-06
-2.15669e-10
4.99992e-06
-2.29191e-10
4.9999e-06
-2.55554e-10
4.99987e-06
-2.96362e-10
4.99984e-06
-3.65232e-10
4.99979e-06
-4.47098e-10
4.99974e-06
-5.65866e-10
4.99968e-06
-6.80964e-10
4.99961e-06
-8.55063e-10
4.99952e-06
-9.80981e-10
4.99943e-06
-1.22171e-09
4.99932e-06
-1.31021e-09
4.9992e-06
-1.65512e-09
4.99909e-06
-1.66884e-09
-2.21263e-09
5e-06
-2.05763e-11
4.99999e-06
-6.79301e-11
4.99998e-06
-1.11075e-10
4.99996e-06
-1.45443e-10
4.99994e-06
-1.68722e-10
4.99991e-06
-1.85733e-10
4.99989e-06
-2.00262e-10
4.99986e-06
-2.24977e-10
4.99983e-06
-2.61031e-10
4.9998e-06
-3.21074e-10
4.99974e-06
-3.91457e-10
4.99968e-06
-4.95775e-10
4.9996e-06
-5.95677e-10
4.99949e-06
-7.51562e-10
4.99938e-06
-8.6242e-10
4.99924e-06
-1.08519e-09
4.9991e-06
-1.16657e-09
4.99894e-06
-1.49654e-09
4.99878e-06
-1.51176e-09
-2.09395e-09
5e-06
-1.7963e-11
5e-06
-5.88384e-11
4.99999e-06
-9.54502e-11
4.99997e-06
-1.24623e-10
4.99996e-06
-1.43519e-10
4.99993e-06
-1.56188e-10
4.9999e-06
-1.65314e-10
4.99987e-06
-1.84342e-10
4.99982e-06
-2.12892e-10
4.99977e-06
-2.64826e-10
4.99971e-06
-3.23685e-10
4.99963e-06
-4.15159e-10
4.99954e-06
-4.97799e-10
4.99942e-06
-6.36049e-10
4.99929e-06
-7.25265e-10
4.99913e-06
-9.28697e-10
4.99896e-06
-9.90258e-10
4.99877e-06
-1.30891e-09
4.99857e-06
-1.31096e-09
-1.83936e-09
5e-06
-9.59936e-12
4.99998e-06
-4.04639e-11
4.99996e-06
-6.9134e-11
4.99994e-06
-9.14132e-11
4.99991e-06
-1.06323e-10
4.99987e-06
-1.17821e-10
4.99984e-06
-1.27188e-10
4.99981e-06
-1.43817e-10
4.99976e-06
-1.66513e-10
4.99971e-06
-2.0709e-10
4.99964e-06
-2.52181e-10
4.99955e-06
-3.23328e-10
4.99945e-06
-3.85571e-10
4.99931e-06
-4.95639e-10
4.99915e-06
-5.63406e-10
4.99895e-06
-7.33252e-10
4.99875e-06
-7.79935e-10
4.9985e-06
-1.063e-09
4.99826e-06
-1.0683e-09
-1.6441e-09
5.00001e-06
-1.49926e-11
5.00001e-06
-3.32603e-11
5e-06
-5.18372e-11
4.99998e-06
-6.69137e-11
4.99996e-06
-7.5655e-11
4.99993e-06
-8.20609e-11
4.99989e-06
-8.59759e-11
4.99985e-06
-9.68413e-11
4.9998e-06
-1.11132e-10
4.99974e-06
-1.40119e-10
4.99966e-06
-1.68806e-10
4.99956e-06
-2.21417e-10
4.99944e-06
-2.60131e-10
4.99929e-06
-3.44563e-10
4.99911e-06
-3.81124e-10
4.9989e-06
-5.18837e-10
4.99865e-06
-5.31659e-10
4.99837e-06
-7.82979e-10
4.99805e-06
-7.50184e-10
-1.23251e-09
4.99998e-06
7.2199e-12
4.99997e-06
-1.17746e-11
4.99995e-06
-2.42887e-11
4.99992e-06
-3.01012e-11
4.99988e-06
-3.49333e-11
4.99985e-06
-4.55207e-11
4.99981e-06
-4.80789e-11
4.99977e-06
-4.36981e-11
4.99972e-06
-5.79434e-11
4.99966e-06
-7.33793e-11
4.99958e-06
-8.72898e-11
4.99948e-06
-1.14056e-10
4.99935e-06
-1.31265e-10
4.99919e-06
-1.77196e-10
4.999e-06
-1.90712e-10
4.99876e-06
-2.7255e-10
4.99849e-06
-2.66918e-10
4.99815e-06
-4.3897e-10
4.99781e-06
-4.08918e-10
-8.75858e-10
5.00001e-06
5.00001e-06
4.99999e-06
4.99997e-06
4.99994e-06
4.99991e-06
4.99987e-06
4.99982e-06
4.99977e-06
4.9997e-06
4.99962e-06
4.99951e-06
4.99938e-06
4.9992e-06
4.99902e-06
4.99875e-06
4.99848e-06
4.99804e-06
4.99764e-06
)
;

boundaryField
{
    sides
    {
        type            calculated;
        value           uniform 0;
    }
    inlet
    {
        type            calculated;
        value           nonuniform List<scalar> 
20
(
-5e-06
-5e-06
-5e-06
-5e-06
-5e-06
-5e-06
-5e-06
-5e-06
-5e-06
-5e-06
-5e-06
-5e-06
-5e-06
-5e-06
-5e-06
-5e-06
-5e-06
-5e-06
-5e-06
-5e-06
)
;
    }
    outlet
    {
        type            calculated;
        value           nonuniform List<scalar> 
20
(
5.00324e-06
5.00255e-06
5.00236e-06
5.00194e-06
5.00168e-06
5.00133e-06
5.00106e-06
5.00074e-06
5.00045e-06
5.00015e-06
4.99985e-06
4.99955e-06
4.99926e-06
4.99894e-06
4.99867e-06
4.99832e-06
4.99806e-06
4.99764e-06
4.99745e-06
4.99676e-06
)
;
    }
    frontAndBack
    {
        type            empty;
        value           nonuniform 0();
    }
}


// ************************************************************************* //
