/*--------------------------------*- C++ -*----------------------------------*\
  =========                 |
  \\      /  F ield         | OpenFOAM: The Open Source CFD Toolbox
   \\    /   O peration     | Website:  https://openfoam.org
    \\  /    A nd           | Version:  7
     \\/     M anipulation  |
\*---------------------------------------------------------------------------*/
FoamFile
{
    version     2.0;
    format      ascii;
    class       volVectorField;
    location    "31";
    object      U;
}
// * * * * * * * * * * * * * * * * * * * * * * * * * * * * * * * * * * * * * //

dimensions      [0 1 -1 0 0 0 0];

internalField   nonuniform List<vector> 
400
(
(0.0999934 -9.44004e-07 0)
(0.0999931 -2.596e-06 0)
(0.0999932 -3.90132e-06 0)
(0.0999938 -4.96257e-06 0)
(0.0999943 -5.87381e-06 0)
(0.099995 -6.75665e-06 0)
(0.0999957 -7.58199e-06 0)
(0.0999968 -8.5483e-06 0)
(0.0999977 -9.57576e-06 0)
(0.0999993 -1.08366e-05 0)
(0.100001 -1.20416e-05 0)
(0.100003 -1.35342e-05 0)
(0.100005 -1.47219e-05 0)
(0.10001 -1.65426e-05 0)
(0.100012 -1.75096e-05 0)
(0.10002 -1.99523e-05 0)
(0.100022 -2.02427e-05 0)
(0.100035 -2.43302e-05 0)
(0.100037 -2.3631e-05 0)
(0.10006 -3.27789e-05 0)
(0.0999946 3.87166e-07 0)
(0.0999947 1.16636e-06 0)
(0.0999953 1.90391e-06 0)
(0.0999961 2.58731e-06 0)
(0.0999968 3.25159e-06 0)
(0.0999974 3.86951e-06 0)
(0.0999981 4.52086e-06 0)
(0.0999991 5.10435e-06 0)
(0.1 5.70574e-06 0)
(0.100001 6.15487e-06 0)
(0.100003 6.64491e-06 0)
(0.100005 6.79253e-06 0)
(0.100007 7.1364e-06 0)
(0.100011 6.75607e-06 0)
(0.100014 7.10431e-06 0)
(0.10002 5.77645e-06 0)
(0.100024 6.40233e-06 0)
(0.100033 2.89805e-06 0)
(0.100036 3.95192e-06 0)
(0.10005 -5.19875e-06 0)
(0.0999951 -4.83118e-07 0)
(0.0999948 -1.65614e-06 0)
(0.0999949 -2.85912e-06 0)
(0.0999953 -3.94945e-06 0)
(0.0999956 -4.86117e-06 0)
(0.0999961 -5.67746e-06 0)
(0.0999969 -6.45662e-06 0)
(0.0999978 -7.37483e-06 0)
(0.0999988 -8.41083e-06 0)
(0.1 -9.79867e-06 0)
(0.100001 -1.12369e-05 0)
(0.100004 -1.31831e-05 0)
(0.100006 -1.48781e-05 0)
(0.100009 -1.75116e-05 0)
(0.100012 -1.91927e-05 0)
(0.100018 -2.29289e-05 0)
(0.100021 -2.40914e-05 0)
(0.100029 -3.00783e-05 0)
(0.100032 -3.02687e-05 0)
(0.100045 -4.13671e-05 0)
(0.0999959 -1.62263e-07 0)
(0.0999959 -5.78833e-07 0)
(0.0999962 -8.04071e-07 0)
(0.0999969 -8.17733e-07 0)
(0.0999976 -6.42159e-07 0)
(0.0999982 -3.65955e-07 0)
(0.0999988 -2.83214e-08 0)
(0.0999997 1.34742e-07 0)
(0.1 1.22765e-07 0)
(0.100002 -3.25096e-07 0)
(0.100003 -8.95412e-07 0)
(0.100005 -2.06168e-06 0)
(0.100007 -3.05507e-06 0)
(0.10001 -5.11464e-06 0)
(0.100012 -6.27811e-06 0)
(0.100017 -9.64087e-06 0)
(0.10002 -1.03476e-05 0)
(0.100027 -1.60211e-05 0)
(0.10003 -1.57673e-05 0)
(0.100039 -2.65611e-05 0)
(0.0999965 -3.84492e-07 0)
(0.0999964 -1.36464e-06 0)
(0.0999966 -2.37992e-06 0)
(0.0999969 -3.32852e-06 0)
(0.0999972 -4.11905e-06 0)
(0.0999976 -4.81537e-06 0)
(0.0999982 -5.46094e-06 0)
(0.0999989 -6.28944e-06 0)
(0.0999998 -7.29022e-06 0)
(0.100001 -8.7254e-06 0)
(0.100002 -1.03152e-05 0)
(0.100004 -1.25675e-05 0)
(0.100005 -1.46867e-05 0)
(0.100008 -1.79146e-05 0)
(0.10001 -2.01932e-05 0)
(0.100014 -2.47418e-05 0)
(0.100017 -2.64742e-05 0)
(0.100022 -3.32837e-05 0)
(0.100024 -3.37778e-05 0)
(0.100033 -4.52064e-05 0)
(0.0999972 -4.67277e-07 0)
(0.0999971 -1.5042e-06 0)
(0.0999973 -2.37381e-06 0)
(0.0999978 -2.97451e-06 0)
(0.0999983 -3.25019e-06 0)
(0.0999987 -3.32545e-06 0)
(0.0999992 -3.33039e-06 0)
(0.0999998 -3.59247e-06 0)
(0.1 -4.15688e-06 0)
(0.100001 -5.28615e-06 0)
(0.100002 -6.67485e-06 0)
(0.100003 -8.77998e-06 0)
(0.100005 -1.08052e-05 0)
(0.100007 -1.39799e-05 0)
(0.100009 -1.62155e-05 0)
(0.100013 -2.07035e-05 0)
(0.100015 -2.22264e-05 0)
(0.100019 -2.87908e-05 0)
(0.100021 -2.88835e-05 0)
(0.100027 -3.99201e-05 0)
(0.0999978 -5.45184e-07 0)
(0.0999978 -1.67216e-06 0)
(0.0999979 -2.71725e-06 0)
(0.0999982 -3.6401e-06 0)
(0.0999984 -4.33974e-06 0)
(0.0999987 -4.88095e-06 0)
(0.0999991 -5.34877e-06 0)
(0.0999997 -6.0462e-06 0)
(0.1 -7.0007e-06 0)
(0.100001 -8.49097e-06 0)
(0.100002 -1.02412e-05 0)
(0.100003 -1.27446e-05 0)
(0.100004 -1.52074e-05 0)
(0.100006 -1.88821e-05 0)
(0.100007 -2.16218e-05 0)
(0.10001 -2.66936e-05 0)
(0.100011 -2.87125e-05 0)
(0.100015 -3.58417e-05 0)
(0.100016 -3.62721e-05 0)
(0.100021 -4.7632e-05 0)
(0.0999985 -6.21128e-07 0)
(0.0999984 -1.86518e-06 0)
(0.0999985 -2.99681e-06 0)
(0.0999988 -3.91895e-06 0)
(0.099999 -4.50001e-06 0)
(0.0999993 -4.84867e-06 0)
(0.0999995 -5.1264e-06 0)
(0.0999999 -5.69282e-06 0)
(0.1 -6.60767e-06 0)
(0.100001 -8.14249e-06 0)
(0.100001 -1.00038e-05 0)
(0.100002 -1.2636e-05 0)
(0.100003 -1.52341e-05 0)
(0.100004 -1.9008e-05 0)
(0.100005 -2.18097e-05 0)
(0.100007 -2.68839e-05 0)
(0.100008 -2.88109e-05 0)
(0.100011 -3.58169e-05 0)
(0.100012 -3.60462e-05 0)
(0.100015 -4.71595e-05 0)
(0.0999991 -6.70581e-07 0)
(0.0999991 -1.96098e-06 0)
(0.0999991 -3.12843e-06 0)
(0.0999993 -4.12288e-06 0)
(0.0999994 -4.81077e-06 0)
(0.0999995 -5.27485e-06 0)
(0.0999997 -5.6579e-06 0)
(0.0999999 -6.30809e-06 0)
(0.1 -7.2815e-06 0)
(0.1 -8.858e-06 0)
(0.100001 -1.07639e-05 0)
(0.100001 -1.34758e-05 0)
(0.100002 -1.6194e-05 0)
(0.100003 -2.01543e-05 0)
(0.100003 -2.31625e-05 0)
(0.100004 -2.85008e-05 0)
(0.100005 -3.06316e-05 0)
(0.100006 -3.78641e-05 0)
(0.100007 -3.81879e-05 0)
(0.100009 -4.94093e-05 0)
(0.0999997 -6.869e-07 0)
(0.0999997 -2.0117e-06 0)
(0.0999997 -3.22189e-06 0)
(0.0999998 -4.25062e-06 0)
(0.0999998 -4.94423e-06 0)
(0.0999998 -5.38833e-06 0)
(0.0999999 -5.74588e-06 0)
(0.1 -6.38846e-06 0)
(0.1 -7.39009e-06 0)
(0.1 -9.02909e-06 0)
(0.1 -1.10229e-05 0)
(0.1 -1.38211e-05 0)
(0.100001 -1.6616e-05 0)
(0.100001 -2.06233e-05 0)
(0.100001 -2.36593e-05 0)
(0.100001 -2.89962e-05 0)
(0.100002 -3.11031e-05 0)
(0.100002 -3.83055e-05 0)
(0.100002 -3.85874e-05 0)
(0.100003 -4.97512e-05 0)
(0.1 -6.86925e-07 0)
(0.1 -2.01167e-06 0)
(0.1 -3.22181e-06 0)
(0.1 -4.25058e-06 0)
(0.1 -4.94427e-06 0)
(0.1 -5.38844e-06 0)
(0.1 -5.74601e-06 0)
(0.1 -6.38862e-06 0)
(0.0999999 -7.39026e-06 0)
(0.0999998 -9.02925e-06 0)
(0.0999997 -1.1023e-05 0)
(0.0999996 -1.38211e-05 0)
(0.0999994 -1.6616e-05 0)
(0.0999992 -2.06233e-05 0)
(0.099999 -2.36593e-05 0)
(0.0999986 -2.89962e-05 0)
(0.0999983 -3.11032e-05 0)
(0.0999978 -3.83053e-05 0)
(0.0999976 -3.85871e-05 0)
(0.099997 -4.9751e-05 0)
(0.100001 -6.70606e-07 0)
(0.100001 -1.96091e-06 0)
(0.100001 -3.12832e-06 0)
(0.100001 -4.12287e-06 0)
(0.100001 -4.81091e-06 0)
(0.1 -5.27507e-06 0)
(0.1 -5.65811e-06 0)
(0.1 -6.30826e-06 0)
(0.0999999 -7.28174e-06 0)
(0.0999995 -8.85829e-06 0)
(0.0999992 -1.07643e-05 0)
(0.0999987 -1.34758e-05 0)
(0.0999982 -1.61938e-05 0)
(0.0999974 -2.01535e-05 0)
(0.0999968 -2.31619e-05 0)
(0.0999958 -2.84989e-05 0)
(0.0999951 -3.06298e-05 0)
(0.0999937 -3.78604e-05 0)
(0.0999931 -3.8184e-05 0)
(0.0999912 -4.94038e-05 0)
(0.100002 -6.21072e-07 0)
(0.100002 -1.86508e-06 0)
(0.100001 -2.99678e-06 0)
(0.100001 -3.91918e-06 0)
(0.100001 -4.50055e-06 0)
(0.100001 -4.84936e-06 0)
(0.1 -5.12698e-06 0)
(0.1 -5.6933e-06 0)
(0.0999998 -6.60827e-06 0)
(0.0999993 -8.14331e-06 0)
(0.0999988 -1.00049e-05 0)
(0.099998 -1.26369e-05 0)
(0.0999971 -1.52351e-05 0)
(0.0999959 -1.90086e-05 0)
(0.0999947 -2.18108e-05 0)
(0.0999929 -2.68842e-05 0)
(0.0999916 -2.88115e-05 0)
(0.0999892 -3.58161e-05 0)
(0.0999882 -3.60452e-05 0)
(0.0999853 -4.71585e-05 0)
(0.100002 -5.45104e-07 0)
(0.100002 -1.67216e-06 0)
(0.100002 -2.71733e-06 0)
(0.100002 -3.64031e-06 0)
(0.100002 -4.34019e-06 0)
(0.100001 -4.88119e-06 0)
(0.100001 -5.34863e-06 0)
(0.1 -6.04561e-06 0)
(0.0999998 -7.00013e-06 0)
(0.099999 -8.49036e-06 0)
(0.0999983 -1.02409e-05 0)
(0.0999971 -1.27437e-05 0)
(0.099996 -1.52063e-05 0)
(0.0999944 -1.88793e-05 0)
(0.0999929 -2.16196e-05 0)
(0.0999905 -2.6689e-05 0)
(0.0999888 -2.87087e-05 0)
(0.0999854 -3.58335e-05 0)
(0.0999842 -3.62641e-05 0)
(0.0999794 -4.76193e-05 0)
(0.100003 -4.67274e-07 0)
(0.100003 -1.50435e-06 0)
(0.100003 -2.37421e-06 0)
(0.100002 -2.97529e-06 0)
(0.100002 -3.25115e-06 0)
(0.100001 -3.32584e-06 0)
(0.100001 -3.33065e-06 0)
(0.1 -3.59224e-06 0)
(0.0999996 -4.15685e-06 0)
(0.0999988 -5.28653e-06 0)
(0.0999979 -6.67606e-06 0)
(0.0999965 -8.78145e-06 0)
(0.099995 -1.08071e-05 0)
(0.0999928 -1.3981e-05 0)
(0.0999907 -1.62174e-05 0)
(0.0999875 -2.0704e-05 0)
(0.0999851 -2.22274e-05 0)
(0.0999808 -2.87898e-05 0)
(0.0999789 -2.88818e-05 0)
(0.0999734 -3.99187e-05 0)
(0.100003 -3.8465e-07 0)
(0.100004 -1.36475e-06 0)
(0.100003 -2.37997e-06 0)
(0.100003 -3.32854e-06 0)
(0.100003 -4.11872e-06 0)
(0.100002 -4.81475e-06 0)
(0.100002 -5.46077e-06 0)
(0.100001 -6.28876e-06 0)
(0.1 -7.28908e-06 0)
(0.0999992 -8.72389e-06 0)
(0.099998 -1.03141e-05 0)
(0.0999963 -1.2566e-05 0)
(0.0999946 -1.46859e-05 0)
(0.099992 -1.79121e-05 0)
(0.0999898 -2.01918e-05 0)
(0.0999858 -2.47372e-05 0)
(0.0999833 -2.64718e-05 0)
(0.0999776 -3.32756e-05 0)
(0.0999758 -3.37712e-05 0)
(0.0999674 -4.51923e-05 0)
(0.100004 -1.62628e-07 0)
(0.100004 -5.7934e-07 0)
(0.100004 -8.04658e-07 0)
(0.100003 -8.17784e-07 0)
(0.100002 -6.40968e-07 0)
(0.100002 -3.66131e-07 0)
(0.100001 -2.84201e-08 0)
(0.1 1.33042e-07 0)
(0.0999995 1.22146e-07 0)
(0.0999984 -3.24714e-07 0)
(0.0999972 -8.95218e-07 0)
(0.0999953 -2.06148e-06 0)
(0.0999933 -3.05576e-06 0)
(0.0999903 -5.11449e-06 0)
(0.0999875 -6.2788e-06 0)
(0.0999829 -9.63925e-06 0)
(0.0999796 -1.03464e-05 0)
(0.0999731 -1.60167e-05 0)
(0.0999702 -1.57623e-05 0)
(0.0999615 -2.65552e-05 0)
(0.100005 -4.8316e-07 0)
(0.100005 -1.65607e-06 0)
(0.100005 -2.85927e-06 0)
(0.100005 -3.94984e-06 0)
(0.100004 -4.86099e-06 0)
(0.100004 -5.6783e-06 0)
(0.100003 -6.45124e-06 0)
(0.100002 -7.37567e-06 0)
(0.100001 -8.41171e-06 0)
(0.0999999 -9.79938e-06 0)
(0.0999985 -1.12383e-05 0)
(0.0999963 -1.31837e-05 0)
(0.0999942 -1.48796e-05 0)
(0.0999906 -1.75118e-05 0)
(0.0999879 -1.91952e-05 0)
(0.0999823 -2.29285e-05 0)
(0.0999791 -2.40944e-05 0)
(0.0999705 -3.00761e-05 0)
(0.0999681 -3.02696e-05 0)
(0.0999546 -4.13611e-05 0)
(0.100005 3.87146e-07 0)
(0.100005 1.16678e-06 0)
(0.100005 1.90513e-06 0)
(0.100004 2.58807e-06 0)
(0.100003 3.24789e-06 0)
(0.100003 3.86747e-06 0)
(0.100002 4.51368e-06 0)
(0.100001 5.10602e-06 0)
(0.1 5.70391e-06 0)
(0.0999987 6.15179e-06 0)
(0.0999973 6.64284e-06 0)
(0.099995 6.79334e-06 0)
(0.0999928 7.13788e-06 0)
(0.0999891 6.75929e-06 0)
(0.099986 7.10636e-06 0)
(0.09998 5.78162e-06 0)
(0.0999762 6.40589e-06 0)
(0.0999672 2.90655e-06 0)
(0.0999637 3.95871e-06 0)
(0.0999501 -5.18675e-06 0)
(0.100007 -9.44263e-07 0)
(0.100007 -2.59635e-06 0)
(0.100007 -3.90144e-06 0)
(0.100006 -4.96338e-06 0)
(0.100006 -5.87982e-06 0)
(0.100005 -6.76212e-06 0)
(0.100004 -7.5992e-06 0)
(0.100003 -8.55257e-06 0)
(0.100002 -9.58337e-06 0)
(0.100001 -1.08451e-05 0)
(0.0999994 -1.20492e-05 0)
(0.0999967 -1.35402e-05 0)
(0.0999947 -1.47279e-05 0)
(0.0999904 -1.65486e-05 0)
(0.0999879 -1.75169e-05 0)
(0.0999805 -1.99596e-05 0)
(0.0999778 -2.02505e-05 0)
(0.0999651 -2.43386e-05 0)
(0.0999635 -2.36387e-05 0)
(0.0999404 -3.27918e-05 0)
)
;

boundaryField
{
    sides
    {
        type            calculated;
        value           nonuniform List<vector> 
40
(
(0.100007 0 0)
(0.100007 0 0)
(0.100007 0 0)
(0.100006 0 0)
(0.100006 0 0)
(0.100005 0 0)
(0.100004 0 0)
(0.100003 0 0)
(0.100002 0 0)
(0.100001 0 0)
(0.0999994 0 0)
(0.0999967 0 0)
(0.0999947 0 0)
(0.0999904 0 0)
(0.0999879 0 0)
(0.0999805 0 0)
(0.0999778 0 0)
(0.0999651 0 0)
(0.0999635 0 0)
(0.0999404 0 0)
(0.0999934 0 0)
(0.0999931 0 0)
(0.0999932 0 0)
(0.0999938 0 0)
(0.0999943 0 0)
(0.099995 0 0)
(0.0999957 0 0)
(0.0999968 0 0)
(0.0999977 0 0)
(0.0999993 0 0)
(0.100001 0 0)
(0.100003 0 0)
(0.100005 0 0)
(0.10001 0 0)
(0.100012 0 0)
(0.10002 0 0)
(0.100022 0 0)
(0.100035 0 0)
(0.100037 0 0)
(0.10006 0 0)
)
;
    }
    inlet
    {
        type            calculated;
        value           nonuniform List<vector> 
20
(
(0.0999934 0 0)
(0.0999946 0 0)
(0.0999951 0 0)
(0.0999959 0 0)
(0.0999965 0 0)
(0.0999972 0 0)
(0.0999978 0 0)
(0.0999985 0 0)
(0.0999991 0 0)
(0.0999997 0 0)
(0.1 0 0)
(0.100001 0 0)
(0.100002 0 0)
(0.100002 0 0)
(0.100003 0 0)
(0.100003 0 0)
(0.100004 0 0)
(0.100005 0 0)
(0.100005 0 0)
(0.100007 0 0)
)
;
    }
    outlet
    {
        type            calculated;
        value           nonuniform List<vector> 
20
(
(0.10006 -3.27792e-05 0)
(0.10005 -5.19878e-06 0)
(0.100046 -4.13673e-05 0)
(0.100039 -2.65612e-05 0)
(0.100033 -4.52065e-05 0)
(0.100027 -3.99202e-05 0)
(0.100021 -4.7632e-05 0)
(0.100015 -4.71595e-05 0)
(0.100009 -4.94094e-05 0)
(0.100003 -4.97512e-05 0)
(0.099997 -4.9751e-05 0)
(0.0999912 -4.94038e-05 0)
(0.0999852 -4.71585e-05 0)
(0.0999792 -4.76192e-05 0)
(0.0999732 -3.99186e-05 0)
(0.0999671 -4.51922e-05 0)
(0.0999612 -2.65552e-05 0)
(0.0999542 -4.13609e-05 0)
(0.0999496 -5.18673e-06 0)
(0.0999396 -3.27915e-05 0)
)
;
    }
    frontAndBack
    {
        type            empty;
    }
}


// ************************************************************************* //
