/*--------------------------------*- C++ -*----------------------------------*\
  =========                 |
  \\      /  F ield         | OpenFOAM: The Open Source CFD Toolbox
   \\    /   O peration     | Website:  https://openfoam.org
    \\  /    A nd           | Version:  7
     \\/     M anipulation  |
\*---------------------------------------------------------------------------*/
FoamFile
{
    version     2.0;
    format      ascii;
    class       volScalarField;
    location    "65";
    object      ddt0(h);
}
// * * * * * * * * * * * * * * * * * * * * * * * * * * * * * * * * * * * * * //

dimensions      [0 1 -1 0 0 0 0];

internalField   nonuniform List<scalar> 
400
(
-1.14848e-09
-3.45373e-09
-1.13616e-09
1.69579e-10
1.09015e-09
-1.04799e-08
-9.74288e-09
-2.54852e-08
-5.20464e-10
8.9353e-10
-1.37494e-09
-1.71799e-09
-1.18114e-09
-4.38179e-10
6.98798e-11
1.27162e-10
-5.71276e-11
-1.84753e-10
-1.81003e-10
-9.08727e-11
-1.28472e-09
-1.38242e-09
-1.75575e-09
-2.26764e-09
-2.52204e-09
5.58883e-09
1.0658e-08
1.77892e-08
1.65283e-09
-1.46795e-09
-9.77538e-10
-5.24151e-10
-4.66434e-10
-3.48925e-10
-2.44661e-10
-2.79927e-10
-3.42918e-10
-2.89436e-10
-1.40695e-10
-3.11474e-11
-1.25752e-09
3.51075e-11
-2.73189e-09
-2.28579e-09
-3.38628e-09
3.44949e-09
-6.7939e-09
3.94882e-09
-1.28843e-09
-2.99688e-09
-7.83777e-10
-1.3576e-10
-6.72047e-11
-9.11818e-11
-3.92248e-10
-6.8087e-10
-6.58776e-10
-3.93655e-10
-9.50444e-11
1.18065e-11
-1.51522e-09
-4.4578e-10
-1.29161e-09
-1.23489e-09
-1.70521e-09
-1.19455e-09
-4.36405e-10
2.25291e-09
-3.92801e-09
-1.15737e-09
4.24622e-11
-2.12657e-10
-2.48435e-10
-2.6806e-10
-5.78123e-10
-8.07824e-10
-6.30301e-10
-2.01705e-10
8.64567e-11
6.68612e-11
-1.75311e-09
-9.8544e-10
-1.42755e-10
-1.26145e-09
2.96391e-10
-3.34177e-09
7.30183e-10
-2.90914e-09
-1.87834e-09
5.24896e-10
-1.31542e-10
-5.40552e-10
-4.49147e-10
-5.94338e-10
-7.13086e-10
-6.26118e-10
-3.19834e-10
6.99822e-11
2.17722e-10
8.11678e-11
-1.19908e-09
-1.2371e-09
-1.24442e-11
-9.35223e-10
2.57637e-10
-1.17876e-09
5.1584e-12
-1.82488e-09
4.59036e-10
4.5484e-10
-9.38937e-10
-6.45623e-10
-4.57592e-10
-8.20354e-10
-6.77266e-10
-1.41721e-10
1.75914e-10
1.96637e-10
1.85702e-10
9.41736e-11
-6.00986e-10
-1.08615e-09
-5.79081e-10
-4.42193e-11
-8.20804e-10
1.85267e-10
-3.89817e-10
-1.97893e-10
6.59218e-10
-9.11494e-10
-9.47331e-10
-3.12135e-10
-4.98822e-10
-8.30899e-10
-4.8577e-10
2.78921e-10
5.43991e-10
1.55741e-10
-6.60606e-11
-1.45688e-11
-2.61046e-10
-1.92647e-10
-1.07361e-09
3.48565e-11
-9.57303e-10
2.02748e-10
-7.72284e-10
3.72995e-10
-3.91704e-10
-9.99476e-10
1.44202e-11
-3.81941e-10
-8.43323e-10
-5.22992e-10
-1.90734e-10
1.76001e-10
3.54437e-10
-2.20992e-12
-2.97044e-10
-1.5816e-10
-1.29536e-10
2.07028e-10
-4.26457e-10
-4.57994e-10
-5.87995e-10
-2.46497e-10
-5.0611e-10
2.47943e-11
-6.62039e-10
-2.55194e-10
1.82084e-10
-5.14172e-10
-5.30876e-10
2.86782e-11
5.20228e-12
-2.7575e-10
-3.22847e-10
-3.32385e-10
-3.54832e-10
-1.76496e-10
5.07557e-11
-1.21501e-10
2.8786e-10
-3.46743e-10
-6.73203e-12
-4.68839e-10
4.08951e-11
-5.51992e-10
-2.70973e-10
1.89635e-10
-1.15861e-10
1.96543e-10
2.85284e-10
-6.30447e-12
-1.13586e-10
-3.33471e-10
-6.34045e-10
-5.78289e-10
-3.70394e-10
-1.48921e-10
1.30912e-10
-2.36428e-10
5.29724e-10
-1.48621e-10
4.10915e-10
-2.82718e-10
4.43563e-10
-5.12872e-10
-8.96695e-12
4.07004e-10
-1.3846e-10
5.02154e-10
6.23575e-10
1.01391e-10
3.0627e-11
-1.55074e-10
-5.15655e-10
-3.79872e-10
-1.27698e-10
-4.31264e-11
1.39415e-10
1.96453e-10
2.73218e-10
-1.56133e-11
4.50858e-10
2.27185e-10
4.04311e-10
2.58575e-10
-1.87037e-10
3.76589e-10
2.71151e-10
-3.5557e-11
2.27817e-10
6.33028e-10
5.51095e-10
4.50461e-11
-1.50258e-10
1.559e-10
2.71548e-10
9.48676e-11
3.34474e-10
5.53875e-10
-2.28607e-10
7.50452e-10
1.70285e-10
9.04381e-10
4.41837e-11
1.11753e-09
-4.49348e-11
-1.22367e-10
6.95094e-10
-4.06986e-11
-2.74028e-10
4.11148e-10
6.65089e-10
5.43432e-10
5.63834e-10
5.62838e-10
3.24496e-10
8.04907e-11
6.74495e-10
3.48318e-10
3.03843e-10
1.37714e-09
-2.08584e-10
1.28155e-09
4.5046e-11
1.18816e-09
1.17244e-09
-3.57164e-10
2.076e-10
3.90191e-10
-1.00445e-11
-4.61401e-11
2.95117e-10
7.66723e-10
8.89313e-10
5.15372e-10
1.6976e-10
5.21445e-11
7.82083e-10
5.67047e-10
1.406e-09
6.74946e-10
7.07552e-10
7.28491e-10
7.46428e-10
-1.11538e-10
2.22141e-09
1.1124e-09
7.82443e-11
4.71805e-10
3.56307e-10
-1.50273e-10
-5.59143e-11
4.5943e-10
6.28061e-10
3.0006e-10
3.92728e-11
1.06185e-11
8.32638e-10
1.19108e-09
1.95533e-09
3.34522e-10
2.0106e-09
-1.22269e-09
1.8353e-09
-1.34786e-09
7.67748e-10
2.14411e-09
1.00931e-09
7.82052e-10
6.7952e-10
1.03677e-10
-1.9144e-10
-4.03369e-11
1.83742e-10
1.79249e-10
2.03713e-11
-2.73504e-11
1.04867e-09
1.71825e-09
1.08492e-09
4.64269e-10
1.65518e-09
-1.32869e-09
4.00942e-09
-9.09743e-10
-1.71759e-09
1.14654e-09
1.42248e-09
1.19246e-09
1.08651e-09
6.44312e-10
5.8905e-11
-1.94116e-10
-6.74097e-11
8.26154e-11
3.41877e-11
-1.78651e-11
1.57059e-09
2.69633e-09
3.41246e-10
4.10155e-10
7.72942e-10
3.58351e-09
3.14289e-11
1.0281e-08
-3.01346e-09
-8.13336e-10
1.10567e-09
1.45507e-09
1.41109e-09
1.05458e-09
4.21145e-10
-2.336e-11
-9.20546e-11
1.18489e-11
8.50367e-11
6.5918e-11
1.62643e-09
1.67341e-09
1.15014e-09
1.05873e-09
-6.66081e-10
-6.02275e-09
-6.08419e-09
-6.03583e-10
2.28362e-09
-5.93747e-10
5.49108e-10
8.43162e-10
7.13636e-10
6.91977e-10
5.91187e-10
3.44776e-10
9.58883e-11
3.19529e-11
1.0044e-10
8.05659e-11
1.97305e-09
-3.24974e-11
2.05839e-09
3.73421e-09
3.04682e-09
9.62124e-09
5.73515e-09
-2.77797e-09
4.69507e-09
2.42319e-09
-1.72989e-10
-7.77107e-10
-3.62727e-10
4.41668e-10
9.46605e-10
8.08567e-10
3.47504e-10
9.24748e-11
9.19805e-11
6.76338e-11
)
;

boundaryField
{
    sides
    {
        type            calculated;
        value           nonuniform List<scalar> 
40
(
1.97305e-09
-3.24974e-11
2.05839e-09
3.73421e-09
3.04682e-09
9.62124e-09
5.73515e-09
-2.77797e-09
4.69507e-09
2.42319e-09
-1.72989e-10
-7.77107e-10
-3.62727e-10
4.41668e-10
9.46605e-10
8.08567e-10
3.47504e-10
9.24748e-11
9.19805e-11
6.76338e-11
-1.14848e-09
-3.45373e-09
-1.13616e-09
1.69579e-10
1.09015e-09
-1.04799e-08
-9.74288e-09
-2.54852e-08
-5.20464e-10
8.9353e-10
-1.37494e-09
-1.71799e-09
-1.18114e-09
-4.38179e-10
6.98798e-11
1.27162e-10
-5.71276e-11
-1.84753e-10
-1.81003e-10
-9.08727e-11
)
;
    }
    inlet
    {
        type            calculated;
        value           nonuniform List<scalar> 
20
(
-1.14848e-09
-1.28472e-09
-1.25752e-09
-1.51522e-09
-1.75311e-09
-1.19908e-09
-6.00986e-10
-2.61046e-10
-1.29536e-10
5.07557e-11
1.30912e-10
1.39415e-10
3.34474e-10
6.74495e-10
7.82083e-10
8.32638e-10
1.04867e-09
1.57059e-09
1.62643e-09
1.97305e-09
)
;
    }
    outlet
    {
        type            calculated;
        value           uniform 0;
    }
    frontAndBack
    {
        type            empty;
    }
}


// ************************************************************************* //
