/*--------------------------------*- C++ -*----------------------------------*\
  =========                 |
  \\      /  F ield         | OpenFOAM: The Open Source CFD Toolbox
   \\    /   O peration     | Website:  https://openfoam.org
    \\  /    A nd           | Version:  7
     \\/     M anipulation  |
\*---------------------------------------------------------------------------*/
FoamFile
{
    version     2.0;
    format      ascii;
    class       volVectorField;
    location    "65";
    object      ddt0(hU);
}
// * * * * * * * * * * * * * * * * * * * * * * * * * * * * * * * * * * * * * //

dimensions      [0 2 -2 0 0 0 0];

internalField   nonuniform List<vector> 
400
(
(2.26089e-10 1.84752e-10 0)
(2.38848e-10 -6.9154e-11 0)
(7.14286e-11 -3.28886e-10 0)
(-1.46268e-10 -3.94447e-11 0)
(-2.52601e-12 4.96353e-10 0)
(-4.4273e-10 5.42454e-10 0)
(-3.78823e-10 3.25571e-10 0)
(-2.92373e-09 1.50037e-10 0)
(1.39537e-10 5.38104e-10 0)
(5.23939e-10 1.7414e-11 0)
(-4.39785e-10 -2.1826e-10 0)
(-6.56637e-10 -1.30991e-10 0)
(-4.23821e-10 -6.50747e-11 0)
(-8.22125e-11 -6.78079e-11 0)
(1.08552e-10 -1.129e-10 0)
(1.50567e-10 -1.31696e-10 0)
(5.42727e-11 -4.07223e-11 0)
(-3.59347e-11 2.49835e-11 0)
(-3.65339e-11 1.9862e-10 0)
(-2.33996e-10 1.82201e-10 0)
(-1.88472e-11 2.85898e-10 0)
(-6.89196e-11 -1.40078e-10 0)
(1.6944e-11 -5.13649e-10 0)
(3.39942e-10 -6.55959e-11 0)
(7.77774e-11 1.50824e-10 0)
(8.59012e-10 5.67557e-10 0)
(1.22405e-09 -5.2276e-10 0)
(1.64466e-09 -2.49071e-10 0)
(3.15362e-10 6.40633e-10 0)
(-3.61776e-10 -2.32251e-10 0)
(-4.12149e-10 -4.00079e-10 0)
(-2.6596e-10 -1.6519e-10 0)
(-2.19408e-10 2.81987e-11 0)
(-1.24771e-10 7.37245e-11 0)
(-5.74309e-11 -4.13431e-12 0)
(2.45863e-14 -1.29026e-10 0)
(1.02739e-12 -1.42255e-10 0)
(-2.39289e-11 -1.11061e-10 0)
(1.16997e-11 -5.60488e-12 0)
(-1.52549e-10 9.14887e-11 0)
(-2.01327e-10 7.99291e-12 0)
(-2.39698e-10 -9.71328e-11 0)
(3.36009e-11 -2.48599e-10 0)
(3.11542e-10 -1.54133e-10 0)
(1.61047e-10 -4.42479e-10 0)
(2.56434e-10 2.80655e-10 0)
(-9.81899e-10 -4.04534e-10 0)
(1.14726e-09 5.53215e-10 0)
(6.38683e-11 2.48176e-10 0)
(-9.49803e-10 -1.42023e-10 0)
(-2.73984e-10 -1.11821e-10 0)
(-6.11841e-12 -1.49199e-10 0)
(-1.51625e-11 -2.18446e-10 0)
(-4.00793e-11 -2.66358e-10 0)
(-1.04998e-10 -3.03451e-10 0)
(-5.42656e-11 -3.10026e-10 0)
(4.55967e-12 -1.20283e-10 0)
(3.50899e-11 2.40913e-12 0)
(6.4904e-11 3.33578e-10 0)
(-1.89523e-10 3.81252e-10 0)
(-1.13375e-10 -1.8777e-10 0)
(-1.64146e-10 -3.79711e-11 0)
(2.30852e-11 -6.80028e-11 0)
(1.56758e-10 -2.94802e-10 0)
(3.70631e-10 -2.8727e-10 0)
(1.33913e-11 -2.63333e-10 0)
(1.51342e-10 3.68127e-10 0)
(7.08733e-10 5.68221e-10 0)
(-8.75197e-10 -3.21999e-10 0)
(-5.02477e-10 3.79323e-11 0)
(-5.80866e-11 1.23416e-10 0)
(-9.14707e-11 -8.53141e-11 0)
(-1.33857e-10 -3.08915e-10 0)
(-1.48912e-10 -4.58474e-10 0)
(-1.85247e-10 -5.02245e-10 0)
(-1.13931e-10 -4.43603e-10 0)
(4.69609e-12 -1.47289e-10 0)
(6.5217e-11 1.75387e-11 0)
(9.02289e-11 4.61979e-10 0)
(-1.12883e-10 5.34832e-10 0)
(-5.13978e-11 -1.89142e-10 0)
(-5.07156e-11 -1.5803e-10 0)
(6.39431e-11 -1.10518e-10 0)
(2.9973e-11 -3.08184e-10 0)
(2.21002e-10 -9.77579e-11 0)
(-1.67549e-10 -4.63393e-10 0)
(3.21058e-10 2.98636e-10 0)
(-3.22035e-10 -1.77773e-10 0)
(-4.41297e-10 -1.06665e-10 0)
(1.72344e-10 2.75571e-10 0)
(5.84814e-11 8.77494e-11 0)
(-1.01326e-10 -1.96163e-10 0)
(-1.33025e-10 -4.13112e-10 0)
(-1.79197e-10 -5.55545e-10 0)
(-1.82567e-10 -5.69208e-10 0)
(-6.95003e-11 -4.69188e-10 0)
(3.67757e-11 -1.33177e-10 0)
(8.59538e-11 2.84006e-11 0)
(7.10876e-11 4.89916e-10 0)
(-1.70904e-10 5.88208e-10 0)
(5.23273e-12 -1.50318e-10 0)
(-2.88495e-12 -3.0047e-10 0)
(7.42973e-11 -2.5761e-10 0)
(1.14824e-10 -3.22778e-10 0)
(1.70351e-10 -7.53668e-11 0)
(5.04024e-11 -1.49856e-11 0)
(2.11292e-10 3.34099e-10 0)
(-2.90734e-10 1.81025e-10 0)
(4.71167e-11 5.48611e-10 0)
(8.32317e-11 4.19681e-10 0)
(-3.06863e-10 -1.2918e-11 0)
(-2.89588e-10 -2.96296e-10 0)
(-2.25726e-10 -5.67283e-10 0)
(-2.21009e-10 -7.15895e-10 0)
(-8.83656e-11 -6.8734e-10 0)
(1.50299e-10 -5.43189e-10 0)
(2.43593e-10 -9.90052e-11 0)
(2.20986e-10 1.03414e-10 0)
(1.18973e-10 7.1538e-10 0)
(-2.29996e-10 7.8789e-10 0)
(2.72961e-11 -8.52334e-11 0)
(2.06239e-11 -3.09714e-10 0)
(2.04435e-11 -4.29245e-10 0)
(8.93693e-11 -3.70163e-10 0)
(-3.64605e-11 -3.59443e-10 0)
(6.48743e-11 -6.64513e-12 0)
(7.35769e-12 8.59155e-11 0)
(5.8231e-12 2.55917e-10 0)
(2.27796e-10 4.80023e-10 0)
(-1.06441e-10 1.63095e-10 0)
(-1.97163e-10 -5.63673e-11 0)
(-9.95564e-11 -2.04644e-10 0)
(-1.68171e-10 -4.97119e-10 0)
(-2.02302e-10 -6.22518e-10 0)
(-8.30545e-11 -5.60776e-10 0)
(8.97853e-11 -5.00217e-10 0)
(1.48117e-10 -1.57805e-10 0)
(8.17381e-11 -3.80088e-12 0)
(5.24829e-14 5.81562e-10 0)
(-1.82923e-10 7.48391e-10 0)
(1.27939e-11 -8.27692e-11 0)
(-5.86391e-12 -3.05994e-10 0)
(-3.00712e-11 -5.4151e-10 0)
(8.14512e-11 -4.2231e-10 0)
(-2.83252e-11 -3.33512e-10 0)
(1.12695e-10 8.65438e-11 0)
(-5.17456e-11 2.4089e-10 0)
(1.26779e-10 5.20118e-10 0)
(-1.38571e-11 4.58777e-10 0)
(-2.19104e-10 2.15877e-10 0)
(-4.34461e-11 2.81721e-11 0)
(-1.56527e-10 -2.52959e-10 0)
(-2.58323e-10 -5.62634e-10 0)
(-8.31504e-11 -6.38748e-10 0)
(5.02467e-11 -5.60117e-10 0)
(1.29438e-10 -5.08652e-10 0)
(1.62935e-10 -1.53029e-10 0)
(1.18379e-10 -1.76877e-11 0)
(6.9455e-12 6.44409e-10 0)
(-2.00662e-10 8.24545e-10 0)
(1.75426e-11 -1.04943e-10 0)
(-1.82166e-11 -3.55461e-10 0)
(-2.28204e-11 -4.6898e-10 0)
(3.12824e-11 -4.85611e-10 0)
(2.06749e-11 -2.59635e-10 0)
(3.14554e-11 -1.82111e-12 0)
(-5.75435e-11 2.56264e-10 0)
(3.93979e-11 4.81058e-10 0)
(-8.97716e-11 3.6276e-10 0)
(-5.09153e-11 3.32561e-10 0)
(2.9347e-11 4.50562e-11 0)
(-1.21973e-10 -2.80933e-10 0)
(-9.72748e-11 -4.2243e-10 0)
(7.58273e-11 -5.09906e-10 0)
(6.00386e-11 -5.7089e-10 0)
(-5.84147e-11 -5.65371e-10 0)
(-9.11382e-11 -1.88648e-10 0)
(-7.01751e-11 -7.56945e-11 0)
(-5.91738e-11 5.67124e-10 0)
(-6.56227e-11 8.12961e-10 0)
(-7.57753e-12 -1.13908e-10 0)
(-3.11556e-11 -3.98639e-10 0)
(2.926e-11 -4.27996e-10 0)
(-4.05805e-12 -4.77204e-10 0)
(5.70486e-11 -2.48669e-10 0)
(-3.70609e-11 -3.12276e-11 0)
(1.04758e-11 2.88781e-10 0)
(-7.20483e-11 4.84532e-10 0)
(-1.97815e-11 4.1604e-10 0)
(3.99026e-11 3.55797e-10 0)
(-5.99257e-11 -1.27517e-11 0)
(4.83011e-11 -3.36047e-10 0)
(1.09863e-10 -4.78491e-10 0)
(8.96172e-12 -6.18433e-10 0)
(-4.98888e-11 -7.13519e-10 0)
(-7.38141e-11 -6.54258e-10 0)
(-1.27839e-10 -1.70951e-10 0)
(-1.25478e-10 6.7911e-12 0)
(-2.12121e-11 6.80337e-10 0)
(6.93388e-11 8.73364e-10 0)
(-1.76338e-11 -1.38753e-10 0)
(-1.75205e-11 -3.39043e-10 0)
(4.76623e-11 -4.76318e-10 0)
(-2.70365e-11 -4.13825e-10 0)
(6.34615e-11 -3.00633e-10 0)
(-4.76383e-11 -4.91631e-12 0)
(4.19985e-11 2.61573e-10 0)
(-1.06836e-10 4.70976e-10 0)
(-1.60618e-11 4.92405e-10 0)
(5.53537e-11 2.90468e-10 0)
(-7.26843e-11 3.54361e-11 0)
(1.43331e-10 -2.66265e-10 0)
(2.3036e-10 -6.30139e-10 0)
(3.9352e-11 -8.03417e-10 0)
(-2.89426e-11 -7.86806e-10 0)
(-5.0752e-11 -6.99337e-10 0)
(-1.4347e-10 -2.08132e-10 0)
(-1.88971e-10 5.12846e-11 0)
(-8.63803e-11 8.04085e-10 0)
(1.27632e-10 9.46228e-10 0)
(1.47067e-11 -1.29407e-10 0)
(3.20645e-11 -3.1222e-10 0)
(8.3273e-13 -4.69468e-10 0)
(-5.82949e-11 -3.71137e-10 0)
(3.15617e-12 -3.20684e-10 0)
(-1.40565e-11 -1.08436e-11 0)
(8.66738e-12 2.31168e-10 0)
(2.01963e-11 3.97896e-10 0)
(-5.06293e-11 5.34514e-10 0)
(6.37704e-11 2.64413e-10 0)
(4.91371e-11 7.33652e-11 0)
(-8.76827e-12 -1.51311e-10 0)
(5.48561e-11 -6.06692e-10 0)
(1.07795e-10 -8.38607e-10 0)
(6.85466e-11 -8.08503e-10 0)
(-5.02867e-12 -7.24254e-10 0)
(-2.4629e-11 -2.42106e-10 0)
(-3.25789e-12 5.80979e-11 0)
(3.0609e-11 8.3542e-10 0)
(1.0685e-10 9.61506e-10 0)
(1.52731e-11 -1.09197e-10 0)
(6.79854e-11 -3.24801e-10 0)
(-3.70514e-11 -3.76616e-10 0)
(-3.93911e-11 -4.43347e-10 0)
(-1.00943e-10 -2.55548e-10 0)
(2.80155e-11 -6.0826e-11 0)
(-9.22439e-11 3.12606e-10 0)
(1.42332e-10 3.71953e-10 0)
(-1.13685e-11 5.33293e-10 0)
(-1.22285e-11 3.69287e-10 0)
(2.09924e-10 2.54259e-11 0)
(2.97075e-11 -2.14714e-10 0)
(-7.14779e-11 -5.26193e-10 0)
(5.56196e-11 -7.56012e-10 0)
(1.00071e-10 -7.99213e-10 0)
(5.06011e-11 -6.91437e-10 0)
(6.41743e-11 -1.82277e-10 0)
(4.47135e-11 9.2169e-11 0)
(-2.90989e-11 8.36386e-10 0)
(5.22514e-11 9.31944e-10 0)
(2.8114e-11 -1.03077e-10 0)
(8.41403e-11 -2.69941e-10 0)
(-4.84663e-11 -3.53697e-10 0)
(-3.11601e-11 -5.00545e-10 0)
(-1.48344e-10 -2.25681e-10 0)
(8.46669e-11 -2.35708e-10 0)
(-7.06593e-11 1.76599e-10 0)
(1.15129e-10 1.98135e-10 0)
(2.1018e-10 1.76132e-10 0)
(-9.4684e-11 3.21774e-10 0)
(3.49474e-11 6.99064e-11 0)
(7.39044e-11 -1.89057e-10 0)
(-4.88127e-11 -3.37718e-10 0)
(-4.64272e-11 -4.83864e-10 0)
(6.90631e-11 -5.7331e-10 0)
(1.85573e-10 -5.54284e-10 0)
(2.20971e-10 -2.04913e-10 0)
(1.52454e-10 -5.3401e-11 0)
(1.21433e-12 5.7712e-10 0)
(-1.82941e-11 7.66975e-10 0)
(2.78336e-11 -7.20306e-11 0)
(7.43194e-11 -2.2305e-10 0)
(-3.59957e-11 -4.27462e-10 0)
(-1.28355e-10 -3.71998e-10 0)
(-2.09367e-10 -1.87786e-10 0)
(-1.26257e-10 1.93801e-11 0)
(-2.08186e-11 2.94309e-10 0)
(-1.83336e-10 4.97088e-10 0)
(4.44767e-10 1.16739e-10 0)
(4.02711e-10 1.29377e-10 0)
(1.67918e-10 2.46164e-11 0)
(2.14832e-10 -2.35986e-10 0)
(1.25874e-10 -4.11143e-10 0)
(-6.46563e-11 -4.83618e-10 0)
(-7.80521e-11 -4.97109e-10 0)
(-4.39041e-11 -4.71013e-10 0)
(-2.24995e-11 -1.63916e-10 0)
(-2.31678e-11 -4.70574e-11 0)
(-4.76738e-11 5.71257e-10 0)
(9.80822e-11 7.28664e-10 0)
(-1.38282e-12 -2.91723e-11 0)
(1.31093e-11 -2.0199e-10 0)
(-1.06645e-11 -3.86759e-10 0)
(-1.33052e-10 -2.10023e-10 0)
(5.84029e-12 -3.60644e-10 0)
(-2.09723e-10 2.03743e-10 0)
(1.81271e-10 -1.6018e-10 0)
(-4.53359e-10 5.15973e-10 0)
(-4.92826e-11 1.35042e-10 0)
(4.9928e-10 -1.86997e-10 0)
(2.99577e-10 -2.13942e-10 0)
(2.04302e-10 -2.8704e-10 0)
(1.61925e-10 -3.8136e-10 0)
(5.37249e-12 -3.79606e-10 0)
(-6.21005e-11 -3.32012e-10 0)
(-8.14626e-11 -3.35286e-10 0)
(-4.85111e-11 -1.4583e-10 0)
(2.32733e-11 -7.95489e-11 0)
(3.11394e-11 3.25474e-10 0)
(1.5689e-10 4.9486e-10 0)
(-5.32182e-11 -5.59638e-12 0)
(-4.18299e-11 -2.71126e-10 0)
(-2.5294e-12 -4.07633e-10 0)
(-1.89797e-10 -1.26471e-10 0)
(3.1925e-11 -1.54053e-10 0)
(-4.50475e-10 4.28282e-10 0)
(2.90796e-10 -4.11107e-10 0)
(-1.00533e-10 5.00858e-10 0)
(-6.39073e-10 6.7571e-10 0)
(2.68505e-10 -2.09192e-11 0)
(5.34675e-10 -2.85641e-10 0)
(4.68238e-10 -3.52369e-10 0)
(3.93187e-10 -4.25061e-10 0)
(2.04978e-10 -4.14533e-10 0)
(-6.57017e-13 -3.55109e-10 0)
(-1.63203e-10 -3.13572e-10 0)
(-1.76561e-10 -8.37711e-11 0)
(-8.09116e-11 8.26147e-12 0)
(-2.25711e-11 3.77192e-10 0)
(1.98088e-10 4.73686e-10 0)
(-1.30914e-10 -7.85068e-11 0)
(-1.52891e-10 -1.03832e-10 0)
(5.60384e-12 -8.38711e-11 0)
(-1.90925e-11 -2.18317e-10 0)
(8.5364e-11 1.37712e-10 0)
(-3.52792e-10 3.65073e-11 0)
(-2.70604e-10 -7.12148e-10 0)
(1.72968e-09 -1.67856e-09 0)
(-8.24648e-10 4.40861e-10 0)
(-4.71512e-10 2.54329e-10 0)
(3.68848e-10 -3.49864e-11 0)
(5.15066e-10 -1.90413e-10 0)
(4.63879e-10 -3.50311e-10 0)
(2.75114e-10 -4.223e-10 0)
(4.25329e-11 -3.84149e-10 0)
(-1.82638e-10 -2.83016e-10 0)
(-2.16132e-10 -3.26693e-11 0)
(-1.41525e-10 7.38893e-11 0)
(-4.82336e-11 3.55356e-10 0)
(3.01623e-10 3.79748e-10 0)
(4.07425e-12 -2.14533e-10 0)
(1.0784e-11 1.02916e-10 0)
(-9.18984e-11 4.0883e-10 0)
(-1.26317e-11 -2.25148e-10 0)
(-1.4266e-10 -2.75807e-10 0)
(-2.00767e-09 -1.13656e-09 0)
(-2.63152e-09 1.92761e-09 0)
(9.63675e-10 6.04115e-10 0)
(1.84156e-09 -5.73239e-10 0)
(-2.09416e-10 4.80129e-10 0)
(2.49763e-10 4.07552e-10 0)
(3.6931e-10 7.37787e-11 0)
(3.03624e-10 -2.04551e-10 0)
(2.28465e-10 -3.14373e-10 0)
(1.43327e-10 -2.64406e-10 0)
(6.19801e-13 -1.65109e-10 0)
(-8.23668e-11 -3.94776e-11 0)
(-7.42262e-11 7.69002e-12 0)
(-3.57109e-11 7.70116e-11 0)
(2.15229e-10 1.22193e-10 0)
(2.16957e-10 -1.37661e-10 0)
(2.5231e-10 2.65386e-11 0)
(-1.07617e-10 2.3712e-10 0)
(-3.6621e-10 -5.57114e-11 0)
(-5.99432e-10 -2.73698e-10 0)
(2.3557e-09 -7.42011e-10 0)
(2.1085e-09 2.70199e-09 0)
(-2.18987e-09 2.76888e-09 0)
(-2.57761e-10 -2.61313e-10 0)
(8.71164e-10 4.44655e-10 0)
(-1.3677e-10 3.34024e-10 0)
(-2.67153e-10 -3.35434e-12 0)
(-4.68875e-11 -2.47595e-10 0)
(1.92881e-10 -3.11646e-10 0)
(2.80394e-10 -2.54531e-10 0)
(1.40638e-10 -1.41714e-10 0)
(-6.63419e-12 1.90281e-11 0)
(-6.04875e-11 8.97585e-11 0)
(-3.91778e-11 2.45502e-10 0)
(2.31435e-10 1.99818e-10 0)
)
;

boundaryField
{
    sides
    {
        type            calculated;
        value           nonuniform List<vector> 
40
(
(2.16957e-10 0 0)
(2.5231e-10 0 0)
(-1.07617e-10 0 0)
(-3.6621e-10 0 0)
(-5.99432e-10 0 0)
(2.3557e-09 0 0)
(2.1085e-09 0 0)
(-2.18987e-09 0 0)
(-2.57761e-10 0 0)
(8.71164e-10 0 0)
(-1.3677e-10 0 0)
(-2.67153e-10 0 0)
(-4.68875e-11 0 0)
(1.92881e-10 0 0)
(2.80394e-10 0 0)
(1.40638e-10 0 0)
(-6.63419e-12 0 0)
(-6.04875e-11 0 0)
(-3.91778e-11 0 0)
(2.31435e-10 0 0)
(2.26089e-10 0 0)
(2.38848e-10 0 0)
(7.14286e-11 0 0)
(-1.46268e-10 0 0)
(-2.52601e-12 0 0)
(-4.4273e-10 0 0)
(-3.78823e-10 0 0)
(-2.92373e-09 0 0)
(1.39537e-10 0 0)
(5.23939e-10 0 0)
(-4.39785e-10 0 0)
(-6.56637e-10 0 0)
(-4.23821e-10 0 0)
(-8.22125e-11 0 0)
(1.08552e-10 0 0)
(1.50567e-10 0 0)
(5.42727e-11 0 0)
(-3.59347e-11 0 0)
(-3.65339e-11 0 0)
(-2.33996e-10 0 0)
)
;
    }
    inlet
    {
        type            calculated;
        value           uniform (0 0 0);
    }
    outlet
    {
        type            calculated;
        value           nonuniform List<vector> 
20
(
(-2.33996e-10 1.82201e-10 0)
(-1.52549e-10 9.14887e-11 0)
(-1.89523e-10 3.81252e-10 0)
(-1.12883e-10 5.34832e-10 0)
(-1.70904e-10 5.88208e-10 0)
(-2.29996e-10 7.8789e-10 0)
(-1.82923e-10 7.48391e-10 0)
(-2.00662e-10 8.24545e-10 0)
(-6.56227e-11 8.12961e-10 0)
(6.93388e-11 8.73364e-10 0)
(1.27632e-10 9.46228e-10 0)
(1.0685e-10 9.61506e-10 0)
(5.22514e-11 9.31944e-10 0)
(-1.82941e-11 7.66975e-10 0)
(9.80822e-11 7.28664e-10 0)
(1.5689e-10 4.9486e-10 0)
(1.98088e-10 4.73686e-10 0)
(3.01623e-10 3.79748e-10 0)
(2.15229e-10 1.22193e-10 0)
(2.31435e-10 1.99818e-10 0)
)
;
    }
    frontAndBack
    {
        type            empty;
    }
}


// ************************************************************************* //
