/*--------------------------------*- C++ -*----------------------------------*\
  =========                 |
  \\      /  F ield         | OpenFOAM: The Open Source CFD Toolbox
   \\    /   O peration     | Website:  https://openfoam.org
    \\  /    A nd           | Version:  7
     \\/     M anipulation  |
\*---------------------------------------------------------------------------*/
FoamFile
{
    version     2.0;
    format      ascii;
    class       surfaceScalarField;
    location    "65";
    object      ddtCorrDdt0(phi);
}
// * * * * * * * * * * * * * * * * * * * * * * * * * * * * * * * * * * * * * //

dimensions      [0 4 -2 0 0 0 0];

internalField   nonuniform List<scalar> 
760
(
2.00068e-12
1.21292e-12
2.47482e-12
-8.65842e-13
-1.6547e-12
-2.07326e-12
-1.16638e-12
3.48206e-13
-2.18695e-12
2.41604e-12
2.2088e-12
3.12027e-10
-1.11872e-11
2.57711e-10
-7.90377e-12
2.69886e-10
3.88784e-12
6.76711e-12
-2.23147e-13
2.28058e-14
-3.19039e-12
-1.18463e-12
-2.93425e-12
-9.16067e-13
-1.22325e-12
-3.15528e-13
2.74076e-13
-1.04192e-14
7.6184e-13
-1.38121e-13
4.94488e-13
-4.40243e-13
-6.51721e-14
-3.28827e-13
-2.62043e-13
-2.03097e-13
-6.05684e-13
3.87864e-13
6.23267e-13
-1.7378e-13
7.20691e-13
9.56609e-14
-6.67795e-13
1.34954e-13
-2.58346e-12
3.39985e-12
-1.21535e-12
-9.00426e-13
-1.2296e-12
8.00588e-12
4.74109e-12
5.29147e-12
-1.31702e-11
5.60216e-12
-9.85248e-12
1.78795e-14
3.65755e-12
-2.27383e-12
-8.51334e-13
-1.57489e-12
-1.23112e-12
-1.22292e-12
-7.42295e-13
-8.47902e-13
-6.29602e-13
-4.0861e-13
-7.16508e-13
-1.43951e-13
-9.05973e-13
-1.3152e-14
-1.09495e-12
-1.0569e-13
-5.7167e-13
-1.04968e-13
-1.78672e-13
-2.97266e-13
9.18719e-13
1.21956e-12
-1.89466e-12
-4.13564e-13
-9.61241e-13
-1.6508e-13
2.28948e-12
-1.13875e-12
3.91299e-13
-1.17621e-12
2.92248e-12
-2.22505e-12
-4.99481e-12
2.28729e-12
9.59372e-13
-7.44403e-13
6.07726e-12
1.05274e-11
-4.93119e-12
-5.83474e-13
-2.81025e-12
-1.40014e-12
-3.49251e-13
-1.20328e-13
4.45938e-14
-2.88319e-13
-1.04641e-13
-1.03345e-12
-3.82773e-13
-1.67225e-12
-5.03661e-13
-1.95051e-12
-1.33885e-13
-1.87973e-12
1.11485e-13
-7.24864e-13
1.79421e-13
-1.80088e-14
-2.54047e-13
1.85118e-12
2.21266e-12
-7.01888e-13
-1.03252e-12
-7.82264e-13
-5.47197e-13
1.4856e-12
-6.20552e-13
-4.77016e-13
-1.37968e-12
4.20667e-12
-1.02257e-12
-4.02688e-12
-2.76012e-12
6.20534e-12
3.12167e-12
-1.96133e-12
-1.49518e-13
-4.30386e-12
-1.7941e-12
-7.41447e-13
9.35389e-13
-2.45616e-13
7.92005e-13
-5.45064e-13
-6.38527e-13
-6.98874e-13
-1.86702e-12
-8.89798e-13
-2.64585e-12
-8.53573e-13
-2.80985e-12
-2.74001e-13
-2.37515e-12
2.32726e-13
-7.2187e-13
3.37689e-13
1.41239e-13
-4.12771e-14
2.51851e-12
2.89687e-12
3.54607e-13
-9.88177e-13
-4.01848e-13
-1.20376e-12
5.65249e-13
-6.44669e-13
2.39217e-14
-1.56549e-12
8.02075e-13
7.97724e-14
-2.92376e-13
-1.8861e-12
1.48785e-12
1.13135e-12
-3.75911e-12
-9.74788e-13
-1.02676e-13
1.14159e-12
9.47434e-13
2.22253e-12
-2.4356e-13
3.79648e-13
-5.49901e-13
-1.28476e-12
-8.15366e-13
-2.44615e-12
-9.77372e-13
-3.14485e-12
-6.63199e-13
-3.13855e-12
-5.74189e-14
-2.5119e-12
3.46384e-13
-5.73025e-13
4.29224e-13
3.02408e-13
-2.27844e-13
2.95493e-12
3.42472e-12
4.76963e-13
-5.6116e-13
3.57584e-13
-1.61751e-12
-3.99461e-14
-1.53749e-12
1.37114e-12
-1.79858e-12
-5.89886e-13
-1.18797e-12
1.86166e-12
3.15681e-13
-6.21677e-13
9.71143e-13
-1.28659e-12
1.20123e-12
1.17379e-12
3.11257e-12
-6.97169e-13
1.46735e-12
-1.6547e-12
-5.35776e-13
-1.18097e-12
-1.48375e-12
-1.19376e-12
-2.8119e-12
-8.62924e-13
-3.49709e-12
2.06368e-13
-3.25764e-12
1.02235e-12
-2.67725e-12
1.1557e-12
-6.02976e-13
9.65759e-13
3.74898e-13
-2.61288e-13
3.3935e-12
3.89368e-12
2.02922e-13
-2.92218e-13
6.90238e-13
-1.58812e-12
-4.48892e-13
-2.72249e-12
7.0253e-13
-1.68846e-12
-7.17291e-13
-1.84331e-12
1.12508e-12
4.83343e-13
-8.504e-13
8.12539e-13
1.04124e-12
2.17618e-12
4.52014e-13
2.37466e-12
-1.04061e-12
6.19111e-13
-6.11463e-13
-1.26461e-14
-6.78318e-13
-8.89435e-13
-1.03845e-12
-2.62498e-12
-7.24983e-13
-3.18397e-12
9.32255e-14
-2.72673e-12
6.06496e-13
-2.48193e-12
5.83375e-13
-8.15769e-13
3.42038e-13
-9.09745e-14
-4.64385e-13
3.04141e-12
3.92646e-12
-2.76077e-14
-5.2927e-13
2.0601e-14
-1.47443e-12
2.91784e-13
-2.65257e-12
-1.94354e-13
-2.40413e-12
4.04141e-13
-1.52558e-12
2.02633e-13
1.43553e-13
-2.24018e-13
1.20447e-12
8.9888e-13
2.5805e-12
-1.07013e-12
1.93943e-12
-5.08388e-13
1.4667e-12
-2.47968e-13
3.93915e-13
-1.35816e-12
-1.30219e-12
-9.00822e-13
-2.48201e-12
9.75863e-14
-2.74858e-12
4.60496e-13
-2.6059e-12
6.48713e-13
-2.54947e-12
7.24813e-13
-8.90566e-13
4.47782e-13
-3.6383e-13
-5.00608e-13
2.92977e-12
4.06715e-12
1.40376e-13
-5.30201e-13
-4.20381e-13
-2.02781e-12
4.28205e-13
-2.03254e-12
-2.5752e-13
-2.54054e-12
5.30485e-13
-1.17052e-12
-3.72378e-13
-1.96378e-13
1.37724e-14
1.46219e-12
2.12163e-14
2.42159e-12
-6.20949e-13
1.89289e-12
1.93438e-13
1.86196e-12
-2.2305e-13
-9.52146e-14
-7.97729e-13
-1.73111e-12
3.07719e-14
-2.04637e-12
5.38835e-13
-2.60961e-12
-3.96893e-14
-3.21746e-12
-5.0681e-13
-3.03602e-12
-4.20617e-13
-7.832e-13
-2.61073e-13
-1.28865e-13
-2.85126e-13
2.9977e-12
4.12153e-12
-2.23214e-13
-6.35175e-13
1.36241e-13
-1.91894e-12
-1.22274e-13
-2.18851e-12
3.02099e-13
-2.21135e-12
5.74162e-14
-1.28734e-12
-1.6611e-13
-1.08724e-13
-1.18931e-14
1.36076e-12
-4.84607e-13
2.30997e-12
3.55591e-13
2.17319e-12
-2.20629e-13
1.61311e-12
-2.12156e-13
9.91117e-15
6.61472e-13
-1.51461e-12
3.47276e-13
-2.6672e-12
-1.88988e-13
-3.51058e-12
-2.99453e-13
-3.84458e-12
-4.81465e-13
-3.49749e-12
-7.05821e-13
-1.00127e-12
-5.17962e-13
1.08027e-13
1.54781e-13
3.67405e-12
4.53059e-12
-2.87512e-13
-7.64656e-13
3.65417e-13
-1.44692e-12
-3.01514e-13
-2.55552e-12
4.18987e-13
-1.87373e-12
-7.98067e-14
-1.65711e-12
-6.98444e-14
7.70192e-14
1.78676e-14
1.19376e-12
-6.79305e-13
2.26304e-12
5.75952e-13
2.61701e-12
-3.3804e-13
1.2407e-12
-4.93753e-14
3.56738e-13
1.36765e-12
-1.06373e-12
6.91007e-13
-3.47977e-12
-1.93594e-13
-4.39517e-12
-1.78718e-13
-3.97212e-12
-3.58971e-13
-3.5044e-12
-8.93754e-13
-1.1459e-12
-9.30547e-13
3.0494e-13
1.49894e-13
4.19915e-12
4.82132e-12
3.03912e-13
-5.27953e-13
-1.98863e-13
-1.66785e-12
8.01772e-14
-2.12958e-12
-3.44456e-13
-1.85266e-12
2.78424e-13
-1.63185e-12
-3.60487e-13
-2.12266e-13
3.52646e-13
1.21305e-12
-2.16469e-13
1.87114e-12
2.87061e-14
2.82157e-12
3.79132e-13
1.4513e-12
-2.57773e-14
2.34612e-13
1.21588e-13
-7.28838e-13
4.87733e-13
-2.81972e-12
4.36509e-13
-4.1442e-12
1.07838e-13
-4.1949e-12
-1.92695e-14
-3.67134e-12
-3.15109e-14
-1.09432e-12
-8.16377e-14
4.68267e-13
3.16465e-13
4.33832e-12
4.813e-12
3.22898e-13
-5.9106e-13
-2.01004e-13
-1.56084e-12
2.44273e-13
-1.48744e-12
-9.15549e-13
-2.46413e-12
3.18271e-13
-9.72539e-13
-4.80328e-13
-6.46985e-13
1.18329e-13
1.49558e-12
7.92595e-13
1.3949e-12
-6.25957e-13
2.10036e-12
7.39957e-13
2.10892e-12
7.86157e-13
2.07685e-13
-3.98249e-13
-1.0602e-12
-5.24339e-14
-1.97118e-12
4.74405e-13
-2.9394e-12
3.28346e-13
-3.4383e-12
3.34105e-13
-3.14628e-12
3.91371e-13
-9.56004e-13
1.80555e-14
1.04613e-13
-2.0716e-14
3.51528e-12
4.23883e-12
2.14701e-13
-4.5881e-13
3.41882e-13
-1.17002e-12
-6.40832e-13
-2.10329e-12
-8.6432e-14
-2.33016e-12
-4.96586e-13
-6.99433e-13
5.41102e-13
-9.33293e-13
-6.80451e-13
1.23692e-12
1.67244e-12
1.53161e-12
-3.58775e-14
2.55353e-13
-3.33655e-13
1.34723e-12
5.53646e-13
4.87023e-13
-3.06488e-14
-1.09011e-12
-3.55987e-13
-1.89426e-12
1.60014e-14
-2.37848e-12
6.55799e-13
-2.62526e-12
1.09317e-12
-2.49473e-12
1.02342e-12
-8.96751e-13
4.59651e-13
-2.9128e-13
-1.24394e-13
2.89311e-12
3.769e-12
3.09411e-13
-1.9283e-13
1.22461e-13
-1.02225e-12
-1.13412e-12
-2.28655e-12
4.28201e-13
-1.34248e-12
-2.30737e-12
-1.78361e-12
1.0608e-12
5.05948e-13
-1.50811e-12
7.99078e-13
7.52557e-13
2.65026e-12
2.73914e-12
1.09504e-13
1.0404e-12
-8.21256e-13
9.54326e-13
-5.68545e-13
9.70563e-13
-1.16165e-12
5.20609e-14
-1.82401e-12
-4.70329e-13
-1.96873e-12
-2.33482e-13
-1.85095e-12
-1.41618e-13
-1.88282e-12
-1.14768e-13
-7.98226e-13
-1.84187e-14
-4.53079e-13
1.00672e-13
2.03757e-12
2.96894e-12
1.79175e-13
-7.1414e-14
-5.43183e-13
-1.17762e-12
-2.8079e-13
-1.9564e-12
1.56398e-13
-9.96966e-13
-1.22675e-12
-1.53224e-12
6.46074e-13
2.8645e-12
-5.55123e-13
-1.9769e-12
-2.40925e-12
4.00036e-12
1.96581e-12
2.27347e-12
2.05118e-12
-5.61237e-13
1.0998e-12
-1.47433e-12
1.01831e-12
-1.75879e-12
3.76388e-13
-2.2201e-12
-2.25412e-13
-2.17665e-12
-3.2603e-13
-1.82235e-12
-3.72642e-13
-1.66048e-12
-1.11021e-13
-5.39506e-13
2.84493e-13
-1.01437e-13
4.78147e-13
1.84295e-12
2.44389e-12
-4.84388e-13
-3.04687e-13
-1.00932e-12
-9.12799e-13
8.13712e-13
-6.51863e-13
-1.82987e-12
-7.38654e-13
1.4528e-12
9.51599e-14
-3.97382e-12
-7.0172e-14
4.30757e-12
-1.52289e-12
-4.34095e-12
-1.02426e-12
-6.50406e-13
4.46967e-12
2.39308e-12
1.16886e-12
2.48182e-12
-8.32054e-13
2.22254e-12
-1.63246e-12
1.5202e-12
-2.13257e-12
4.85771e-13
-2.11964e-12
-4.36515e-13
-1.782e-12
-9.27181e-13
-1.41164e-12
-6.72487e-13
-2.53465e-13
-1.9367e-13
2.03055e-13
4.45662e-13
1.72316e-12
2.06201e-12
-1.72661e-12
-6.73956e-13
-1.41357e-12
-1.71e-13
2.09728e-12
1.05107e-12
-1.66181e-12
-9.71792e-13
3.23004e-12
4.1783e-13
-8.74069e-12
-5.80455e-12
1.00354e-11
8.08168e-13
7.89113e-13
-2.51346e-11
-4.78467e-12
-5.24064e-13
3.54315e-13
2.44663e-12
2.40609e-12
8.31776e-13
2.54036e-12
-4.97755e-13
1.92362e-12
-1.40676e-12
7.66933e-13
-1.78752e-12
-4.156e-13
-1.68535e-12
-1.06521e-12
-1.24586e-12
-8.93343e-13
-2.22968e-13
-4.84372e-13
2.37489e-13
6.00026e-13
1.21879e-12
1.34391e-12
-2.96272e-13
-9.5767e-13
-4.83209e-13
6.24068e-13
-7.14999e-13
1.48816e-12
1.13423e-12
-1.29352e-12
-3.28911e-12
-1.98845e-12
-1.66015e-11
1.16424e-10
-7.23548e-12
4.60863e-10
1.67457e-11
4.09095e-10
-8.15743e-13
1.11392e-11
2.25823e-13
6.97932e-13
1.74365e-12
1.45139e-12
1.69218e-12
6.00668e-13
1.34266e-12
-5.8103e-13
9.36605e-13
-1.23778e-12
3.53608e-13
-1.21862e-12
-2.0025e-13
-8.39658e-13
-3.78238e-13
-1.37817e-13
-3.11182e-13
2.02812e-13
4.14306e-13
7.58651e-13
7.95259e-13
1.3098e-12
1.80942e-12
-3.09276e-12
-1.39482e-12
-2.40655e-12
2.44304e-11
-5.90963e-12
-1.13448e-11
6.7531e-12
8.71503e-13
-1.38769e-12
-9.33419e-13
4.68831e-13
1.30604e-12
1.13273e-12
3.57147e-13
-1.73927e-13
-2.96829e-13
4.23113e-13
)
;

boundaryField
{
    sides
    {
        type            calculated;
        value           uniform 0;
    }
    inlet
    {
        type            calculated;
        value           uniform 0;
    }
    outlet
    {
        type            calculated;
        value           nonuniform List<scalar> 
20
(
-1.14565e-12
-6.78648e-13
-8.94368e-13
-4.81931e-13
-9.78575e-13
-1.38755e-12
-1.21437e-12
-1.23384e-12
-3.9178e-13
5.97156e-13
9.81754e-13
7.61761e-13
2.66869e-13
-2.21142e-13
2.5853e-13
6.67847e-13
9.92577e-13
1.6778e-12
1.16911e-12
1.25462e-12
)
;
    }
    frontAndBack
    {
        type            empty;
        value           nonuniform 0();
    }
}


// ************************************************************************* //
