/*--------------------------------*- C++ -*----------------------------------*\
  =========                 |
  \\      /  F ield         | OpenFOAM: The Open Source CFD Toolbox
   \\    /   O peration     | Website:  https://openfoam.org
    \\  /    A nd           | Version:  7
     \\/     M anipulation  |
\*---------------------------------------------------------------------------*/
FoamFile
{
    version     2.0;
    format      ascii;
    class       volVectorField;
    location    "65";
    object      hU;
}
// * * * * * * * * * * * * * * * * * * * * * * * * * * * * * * * * * * * * * //

dimensions      [0 2 -1 0 0 0 0];

internalField   nonuniform List<vector> 
400
(
(0.001 -8.6924e-09 0)
(0.000999999 -2.3689e-08 0)
(0.001 -3.59075e-08 0)
(0.001 -4.6565e-08 0)
(0.00100001 -5.66411e-08 0)
(0.00100001 -6.71134e-08 0)
(0.00100002 -7.78491e-08 0)
(0.00100003 -8.91388e-08 0)
(0.00100004 -9.99376e-08 0)
(0.00100006 -1.12017e-07 0)
(0.00100007 -1.22781e-07 0)
(0.0010001 -1.36265e-07 0)
(0.00100011 -1.46582e-07 0)
(0.00100015 -1.63323e-07 0)
(0.00100017 -1.72089e-07 0)
(0.00100024 -1.96141e-07 0)
(0.00100026 -2.00626e-07 0)
(0.00100038 -2.42871e-07 0)
(0.00100038 -2.39047e-07 0)
(0.00100061 -3.31899e-07 0)
(0.001 4.01583e-09 0)
(0.001 1.21108e-08 0)
(0.00100001 2.01711e-08 0)
(0.00100001 2.78991e-08 0)
(0.00100002 3.51957e-08 0)
(0.00100002 4.17757e-08 0)
(0.00100003 4.7789e-08 0)
(0.00100004 5.31183e-08 0)
(0.00100005 5.84927e-08 0)
(0.00100007 6.23043e-08 0)
(0.00100008 6.69349e-08 0)
(0.0010001 6.85533e-08 0)
(0.00100012 7.26674e-08 0)
(0.00100016 6.98688e-08 0)
(0.00100018 7.40289e-08 0)
(0.00100023 6.17055e-08 0)
(0.00100026 6.72318e-08 0)
(0.00100035 3.18479e-08 0)
(0.00100037 3.99879e-08 0)
(0.0010005 -5.45368e-08 0)
(0.001 -3.94547e-09 0)
(0.000999999 -1.29401e-08 0)
(0.001 -2.29053e-08 0)
(0.001 -3.34121e-08 0)
(0.00100001 -4.39096e-08 0)
(0.00100001 -5.46813e-08 0)
(0.00100002 -6.54107e-08 0)
(0.00100003 -7.71471e-08 0)
(0.00100004 -8.88397e-08 0)
(0.00100005 -1.02642e-07 0)
(0.00100006 -1.15445e-07 0)
(0.00100009 -1.32595e-07 0)
(0.0010001 -1.46635e-07 0)
(0.00100014 -1.70026e-07 0)
(0.00100016 -1.85027e-07 0)
(0.00100021 -2.20881e-07 0)
(0.00100023 -2.35366e-07 0)
(0.00100031 -2.97267e-07 0)
(0.00100033 -3.05902e-07 0)
(0.00100046 -4.22189e-07 0)
(0.001 -1.43648e-10 0)
(0.001 8.09515e-11 0)
(0.00100001 8.74973e-10 0)
(0.00100001 1.70387e-09 0)
(0.00100001 2.46229e-09 0)
(0.00100002 2.38973e-09 0)
(0.00100003 1.97279e-09 0)
(0.00100004 -5.09543e-11 0)
(0.00100004 -2.306e-09 0)
(0.00100006 -7.12298e-09 0)
(0.00100007 -1.13728e-08 0)
(0.00100009 -2.06617e-08 0)
(0.00100011 -2.73233e-08 0)
(0.00100013 -4.42792e-08 0)
(0.00100016 -5.34205e-08 0)
(0.00100019 -8.46461e-08 0)
(0.00100022 -9.50597e-08 0)
(0.00100028 -1.54241e-07 0)
(0.0010003 -1.60527e-07 0)
(0.00100039 -2.75851e-07 0)
(0.001 -2.90529e-09 0)
(0.001 -9.16701e-09 0)
(0.001 -1.61376e-08 0)
(0.001 -2.40889e-08 0)
(0.00100001 -3.26587e-08 0)
(0.00100001 -4.23426e-08 0)
(0.00100002 -5.24532e-08 0)
(0.00100002 -6.42894e-08 0)
(0.00100003 -7.63724e-08 0)
(0.00100004 -9.12854e-08 0)
(0.00100005 -1.05787e-07 0)
(0.00100007 -1.25614e-07 0)
(0.00100009 -1.42912e-07 0)
(0.00100011 -1.70954e-07 0)
(0.00100013 -1.91105e-07 0)
(0.00100016 -2.33979e-07 0)
(0.00100018 -2.55323e-07 0)
(0.00100024 -3.26089e-07 0)
(0.00100025 -3.41046e-07 0)
(0.00100033 -4.64369e-07 0)
(0.001 -2.53469e-09 0)
(0.001 -7.39064e-09 0)
(0.001 -1.18895e-08 0)
(0.00100001 -1.64285e-08 0)
(0.00100001 -2.10402e-08 0)
(0.00100001 -2.6551e-08 0)
(0.00100002 -3.25919e-08 0)
(0.00100002 -4.04715e-08 0)
(0.00100003 -4.88074e-08 0)
(0.00100004 -6.02888e-08 0)
(0.00100005 -7.15993e-08 0)
(0.00100006 -8.85837e-08 0)
(0.00100008 -1.03448e-07 0)
(0.0010001 -1.29474e-07 0)
(0.00100011 -1.48135e-07 0)
(0.00100014 -1.89761e-07 0)
(0.00100016 -2.10352e-07 0)
(0.0010002 -2.7987e-07 0)
(0.00100021 -2.93925e-07 0)
(0.00100027 -4.15017e-07 0)
(0.001 -2.87499e-09 0)
(0.001 -8.76812e-09 0)
(0.001 -1.49307e-08 0)
(0.001 -2.1801e-08 0)
(0.00100001 -2.93724e-08 0)
(0.00100001 -3.82831e-08 0)
(0.00100001 -4.81222e-08 0)
(0.00100002 -6.0052e-08 0)
(0.00100002 -7.27061e-08 0)
(0.00100003 -8.87304e-08 0)
(0.00100004 -1.04736e-07 0)
(0.00100005 -1.26663e-07 0)
(0.00100006 -1.46558e-07 0)
(0.00100007 -1.77864e-07 0)
(0.00100009 -2.01654e-07 0)
(0.00100011 -2.48729e-07 0)
(0.00100012 -2.74091e-07 0)
(0.00100015 -3.48922e-07 0)
(0.00100016 -3.66577e-07 0)
(0.00100021 -4.92162e-07 0)
(0.001 -3.1802e-09 0)
(0.001 -9.64167e-09 0)
(0.001 -1.62768e-08 0)
(0.001 -2.345e-08 0)
(0.001 -3.11136e-08 0)
(0.00100001 -3.99291e-08 0)
(0.00100001 -4.95091e-08 0)
(0.00100001 -6.10861e-08 0)
(0.00100002 -7.33686e-08 0)
(0.00100002 -8.89981e-08 0)
(0.00100003 -1.04684e-07 0)
(0.00100004 -1.26362e-07 0)
(0.00100004 -1.46167e-07 0)
(0.00100006 -1.77431e-07 0)
(0.00100006 -2.01468e-07 0)
(0.00100008 -2.48654e-07 0)
(0.00100009 -2.745e-07 0)
(0.00100011 -3.49086e-07 0)
(0.00100012 -3.66914e-07 0)
(0.00100015 -4.90849e-07 0)
(0.001 -3.36362e-09 0)
(0.001 -1.01378e-08 0)
(0.001 -1.70372e-08 0)
(0.001 -2.44936e-08 0)
(0.001 -3.24602e-08 0)
(0.001 -4.16995e-08 0)
(0.00100001 -5.18206e-08 0)
(0.00100001 -6.41355e-08 0)
(0.00100001 -7.73289e-08 0)
(0.00100001 -9.40676e-08 0)
(0.00100002 -1.11049e-07 0)
(0.00100002 -1.3423e-07 0)
(0.00100003 -1.55615e-07 0)
(0.00100003 -1.88691e-07 0)
(0.00100004 -2.14467e-07 0)
(0.00100005 -2.63634e-07 0)
(0.00100005 -2.91032e-07 0)
(0.00100007 -3.67598e-07 0)
(0.00100007 -3.8642e-07 0)
(0.00100009 -5.12458e-07 0)
(0.001 -3.45087e-09 0)
(0.001 -1.03802e-08 0)
(0.001 -1.74229e-08 0)
(0.001 -2.50471e-08 0)
(0.001 -3.32212e-08 0)
(0.001 -4.27271e-08 0)
(0.001 -5.31807e-08 0)
(0.001 -6.58864e-08 0)
(0.001 -7.94967e-08 0)
(0.001 -9.66491e-08 0)
(0.00100001 -1.1404e-07 0)
(0.00100001 -1.37587e-07 0)
(0.00100001 -1.59361e-07 0)
(0.00100001 -1.92774e-07 0)
(0.00100001 -2.18954e-07 0)
(0.00100002 -2.68385e-07 0)
(0.00100002 -2.96184e-07 0)
(0.00100002 -3.72818e-07 0)
(0.00100002 -3.91957e-07 0)
(0.00100003 -5.17457e-07 0)
(0.001 -3.45366e-09 0)
(0.001 -1.03776e-08 0)
(0.001 -1.7429e-08 0)
(0.000999999 -2.50421e-08 0)
(0.000999999 -3.32229e-08 0)
(0.000999999 -4.27206e-08 0)
(0.000999998 -5.31784e-08 0)
(0.000999997 -6.588e-08 0)
(0.000999996 -7.9489e-08 0)
(0.000999995 -9.66544e-08 0)
(0.000999994 -1.14039e-07 0)
(0.000999993 -1.37589e-07 0)
(0.000999991 -1.59377e-07 0)
(0.000999989 -1.92789e-07 0)
(0.000999987 -2.18957e-07 0)
(0.000999984 -2.6838e-07 0)
(0.000999982 -2.96173e-07 0)
(0.000999978 -3.72799e-07 0)
(0.000999977 -3.91937e-07 0)
(0.00099997 -5.17445e-07 0)
(0.001 -3.36924e-09 0)
(0.001 -1.01394e-08 0)
(0.000999999 -1.70413e-08 0)
(0.000999998 -2.44794e-08 0)
(0.000999997 -3.24581e-08 0)
(0.000999996 -4.16888e-08 0)
(0.000999994 -5.18134e-08 0)
(0.000999992 -6.41252e-08 0)
(0.000999989 -7.7309e-08 0)
(0.000999986 -9.40726e-08 0)
(0.000999983 -1.1105e-07 0)
(0.000999978 -1.34228e-07 0)
(0.000999973 -1.55638e-07 0)
(0.000999967 -1.88715e-07 0)
(0.000999961 -2.14475e-07 0)
(0.000999952 -2.63612e-07 0)
(0.000999946 -2.90993e-07 0)
(0.000999934 -3.67531e-07 0)
(0.00099993 -3.86354e-07 0)
(0.000999911 -5.12385e-07 0)
(0.001 -3.18813e-09 0)
(0.001 -9.64811e-09 0)
(0.000999999 -1.62616e-08 0)
(0.000999997 -2.34394e-08 0)
(0.000999996 -3.11006e-08 0)
(0.000999993 -3.99313e-08 0)
(0.000999991 -4.94991e-08 0)
(0.000999987 -6.1087e-08 0)
(0.000999983 -7.33525e-08 0)
(0.000999977 -8.89869e-08 0)
(0.000999971 -1.0469e-07 0)
(0.000999964 -1.26364e-07 0)
(0.000999956 -1.46178e-07 0)
(0.000999945 -1.77454e-07 0)
(0.000999936 -2.01497e-07 0)
(0.00099992 -2.4866e-07 0)
(0.000999911 -2.7449e-07 0)
(0.000999889 -3.49056e-07 0)
(0.000999882 -3.6689e-07 0)
(0.000999852 -4.90825e-07 0)
(0.001 -2.8804e-09 0)
(0.000999999 -8.76368e-09 0)
(0.000999998 -1.49135e-08 0)
(0.000999996 -2.18036e-08 0)
(0.000999994 -2.93593e-08 0)
(0.000999991 -3.83028e-08 0)
(0.000999987 -4.81168e-08 0)
(0.000999982 -6.00587e-08 0)
(0.000999977 -7.27141e-08 0)
(0.000999969 -8.87e-08 0)
(0.000999962 -1.04712e-07 0)
(0.000999951 -1.26637e-07 0)
(0.000999941 -1.46526e-07 0)
(0.000999925 -1.77831e-07 0)
(0.000999913 -2.01639e-07 0)
(0.000999891 -2.48691e-07 0)
(0.000999878 -2.74054e-07 0)
(0.000999847 -3.4884e-07 0)
(0.000999839 -3.66499e-07 0)
(0.000999792 -4.92019e-07 0)
(0.001 -2.52817e-09 0)
(0.000999999 -7.37723e-09 0)
(0.000999997 -1.18949e-08 0)
(0.000999995 -1.64419e-08 0)
(0.000999991 -2.10583e-08 0)
(0.000999987 -2.65728e-08 0)
(0.000999982 -3.26116e-08 0)
(0.000999976 -4.04775e-08 0)
(0.000999968 -4.88593e-08 0)
(0.000999959 -6.03113e-08 0)
(0.000999949 -7.15967e-08 0)
(0.000999935 -8.85744e-08 0)
(0.000999922 -1.03434e-07 0)
(0.000999903 -1.29458e-07 0)
(0.000999886 -1.48141e-07 0)
(0.000999859 -1.89776e-07 0)
(0.000999841 -2.10387e-07 0)
(0.000999802 -2.79888e-07 0)
(0.000999788 -2.93946e-07 0)
(0.000999731 -4.15008e-07 0)
(0.001 -2.88159e-09 0)
(0.001 -9.16155e-09 0)
(0.000999999 -1.61686e-08 0)
(0.000999997 -2.4098e-08 0)
(0.000999994 -3.26829e-08 0)
(0.00099999 -4.22961e-08 0)
(0.000999984 -5.24798e-08 0)
(0.000999977 -6.42385e-08 0)
(0.000999969 -7.63714e-08 0)
(0.000999958 -9.13193e-08 0)
(0.000999946 -1.05798e-07 0)
(0.00099993 -1.25594e-07 0)
(0.000999915 -1.42881e-07 0)
(0.000999891 -1.70896e-07 0)
(0.000999872 -1.91064e-07 0)
(0.000999837 -2.33931e-07 0)
(0.000999817 -2.5531e-07 0)
(0.000999764 -3.26023e-07 0)
(0.000999752 -3.41001e-07 0)
(0.00099967 -4.64219e-07 0)
(0.001 -1.09917e-10 0)
(0.000999998 6.92704e-11 0)
(0.000999994 8.1128e-10 0)
(0.00099999 1.67697e-09 0)
(0.000999986 2.46318e-09 0)
(0.00099998 2.46221e-09 0)
(0.000999973 1.92193e-09 0)
(0.000999965 -3.62374e-11 0)
(0.000999956 -2.26526e-09 0)
(0.000999943 -7.16396e-09 0)
(0.00099993 -1.14227e-08 0)
(0.000999912 -2.06816e-08 0)
(0.000999894 -2.73251e-08 0)
(0.000999867 -4.42561e-08 0)
(0.000999845 -5.33998e-08 0)
(0.000999805 -8.462e-08 0)
(0.000999779 -9.50558e-08 0)
(0.00099972 -1.54215e-07 0)
(0.000999699 -1.60514e-07 0)
(0.000999611 -2.75798e-07 0)
(0.001 -3.95249e-09 0)
(0.001 -1.29427e-08 0)
(0.001 -2.2895e-08 0)
(0.000999998 -3.34205e-08 0)
(0.000999995 -4.38661e-08 0)
(0.000999989 -5.46287e-08 0)
(0.000999983 -6.54287e-08 0)
(0.000999974 -7.7267e-08 0)
(0.000999963 -8.88246e-08 0)
(0.00099995 -1.02619e-07 0)
(0.000999935 -1.15449e-07 0)
(0.000999914 -1.32606e-07 0)
(0.000999896 -1.46665e-07 0)
(0.000999864 -1.70036e-07 0)
(0.000999841 -1.8504e-07 0)
(0.000999791 -2.20854e-07 0)
(0.000999767 -2.3537e-07 0)
(0.000999687 -2.97225e-07 0)
(0.000999672 -3.05905e-07 0)
(0.000999539 -4.22113e-07 0)
(0.001 3.95317e-09 0)
(0.000999996 1.20952e-08 0)
(0.000999991 2.02724e-08 0)
(0.000999986 2.79606e-08 0)
(0.000999982 3.51723e-08 0)
(0.000999976 4.15658e-08 0)
(0.000999968 4.79389e-08 0)
(0.000999959 5.31315e-08 0)
(0.000999949 5.84747e-08 0)
(0.000999934 6.24066e-08 0)
(0.000999919 6.6991e-08 0)
(0.000999897 6.85463e-08 0)
(0.000999877 7.26228e-08 0)
(0.000999844 6.98492e-08 0)
(0.000999819 7.40324e-08 0)
(0.000999767 6.17636e-08 0)
(0.000999738 6.72798e-08 0)
(0.000999654 3.19377e-08 0)
(0.000999629 4.0048e-08 0)
(0.000999496 -5.44099e-08 0)
(0.001 -8.72964e-09 0)
(0.001 -2.37086e-08 0)
(0.001 -3.5855e-08 0)
(0.000999997 -4.65189e-08 0)
(0.000999993 -5.67036e-08 0)
(0.000999986 -6.73576e-08 0)
(0.000999979 -7.77276e-08 0)
(0.000999968 -8.90477e-08 0)
(0.000999958 -9.99768e-08 0)
(0.000999942 -1.1199e-07 0)
(0.000999928 -1.22792e-07 0)
(0.000999903 -1.36325e-07 0)
(0.000999885 -1.46663e-07 0)
(0.000999846 -1.63394e-07 0)
(0.000999826 -1.72148e-07 0)
(0.00099976 -1.96187e-07 0)
(0.000999742 -2.00678e-07 0)
(0.000999623 -2.42934e-07 0)
(0.000999618 -2.39121e-07 0)
(0.000999394 -3.32026e-07 0)
)
;

boundaryField
{
    sides
    {
        type            slip;
    }
    inlet
    {
        type            fixedValue;
        value           uniform (0.001 0 0);
    }
    outlet
    {
        type            zeroGradient;
    }
    frontAndBack
    {
        type            empty;
    }
}


// ************************************************************************* //
