/*--------------------------------*- C++ -*----------------------------------*\
  =========                 |
  \\      /  F ield         | OpenFOAM: The Open Source CFD Toolbox
   \\    /   O peration     | Website:  https://openfoam.org
    \\  /    A nd           | Version:  7
     \\/     M anipulation  |
\*---------------------------------------------------------------------------*/
FoamFile
{
    version     2.0;
    format      ascii;
    class       volVectorField;
    location    "65";
    object      hU_0;
}
// * * * * * * * * * * * * * * * * * * * * * * * * * * * * * * * * * * * * * //

dimensions      [0 2 -1 0 0 0 0];

internalField   nonuniform List<vector> 
400
(
(0.001 -8.70709e-09 0)
(0.000999999 -2.36766e-08 0)
(0.001 -3.58814e-08 0)
(0.001 -4.65691e-08 0)
(0.00100001 -5.66943e-08 0)
(0.00100001 -6.70678e-08 0)
(0.00100002 -7.79475e-08 0)
(0.00100003 -8.90955e-08 0)
(0.00100004 -9.99721e-08 0)
(0.00100006 -1.12031e-07 0)
(0.00100007 -1.22763e-07 0)
(0.0010001 -1.36248e-07 0)
(0.00100011 -1.46571e-07 0)
(0.00100015 -1.63315e-07 0)
(0.00100017 -1.72078e-07 0)
(0.00100024 -1.9613e-07 0)
(0.00100026 -2.00623e-07 0)
(0.00100038 -2.42874e-07 0)
(0.00100038 -2.39066e-07 0)
(0.00100061 -3.31917e-07 0)
(0.001 3.99363e-09 0)
(0.001 1.21336e-08 0)
(0.00100001 2.0208e-08 0)
(0.00100001 2.78985e-08 0)
(0.00100002 3.5167e-08 0)
(0.00100002 4.18046e-08 0)
(0.00100003 4.7764e-08 0)
(0.00100004 5.31925e-08 0)
(0.00100005 5.84484e-08 0)
(0.00100007 6.23042e-08 0)
(0.00100008 6.69693e-08 0)
(0.0010001 6.85765e-08 0)
(0.00100012 7.26725e-08 0)
(0.00100016 6.98657e-08 0)
(0.00100018 7.40281e-08 0)
(0.00100023 6.1714e-08 0)
(0.00100026 6.72424e-08 0)
(0.00100035 3.18578e-08 0)
(0.00100037 3.99893e-08 0)
(0.0010005 -5.45452e-08 0)
(0.001 -3.9467e-09 0)
(0.000999999 -1.29272e-08 0)
(0.001 -2.2881e-08 0)
(0.001 -3.33902e-08 0)
(0.00100001 -4.38704e-08 0)
(0.00100001 -5.47366e-08 0)
(0.00100002 -6.53594e-08 0)
(0.00100003 -7.71963e-08 0)
(0.00100004 -8.88831e-08 0)
(0.00100005 -1.02637e-07 0)
(0.00100006 -1.15431e-07 0)
(0.00100009 -1.32578e-07 0)
(0.0010001 -1.46611e-07 0)
(0.00100014 -1.69998e-07 0)
(0.00100016 -1.84998e-07 0)
(0.00100021 -2.20852e-07 0)
(0.00100023 -2.35354e-07 0)
(0.00100031 -2.97265e-07 0)
(0.00100033 -3.05932e-07 0)
(0.00100046 -4.22226e-07 0)
(0.001 -1.31034e-10 0)
(0.001 8.36886e-11 0)
(0.00100001 8.9419e-10 0)
(0.00100001 1.73791e-09 0)
(0.00100001 2.50428e-09 0)
(0.00100002 2.38734e-09 0)
(0.00100003 1.97228e-09 0)
(0.00100003 -1.15744e-10 0)
(0.00100004 -2.29503e-09 0)
(0.00100006 -7.11394e-09 0)
(0.00100007 -1.13781e-08 0)
(0.00100009 -2.06545e-08 0)
(0.00100011 -2.72955e-08 0)
(0.00100013 -4.42371e-08 0)
(0.00100016 -5.33729e-08 0)
(0.00100019 -8.46009e-08 0)
(0.00100022 -9.50414e-08 0)
(0.00100028 -1.54238e-07 0)
(0.0010003 -1.60568e-07 0)
(0.00100039 -2.75903e-07 0)
(0.001 -2.88889e-09 0)
(0.001 -9.15355e-09 0)
(0.001 -1.6119e-08 0)
(0.001 -2.40578e-08 0)
(0.00100001 -3.2635e-08 0)
(0.00100001 -4.23067e-08 0)
(0.00100002 -5.24667e-08 0)
(0.00100002 -6.42975e-08 0)
(0.00100003 -7.63536e-08 0)
(0.00100004 -9.12987e-08 0)
(0.00100005 -1.05797e-07 0)
(0.00100007 -1.25599e-07 0)
(0.00100009 -1.42874e-07 0)
(0.00100011 -1.70903e-07 0)
(0.00100013 -1.9105e-07 0)
(0.00100016 -2.33929e-07 0)
(0.00100018 -2.55303e-07 0)
(0.00100024 -3.26086e-07 0)
(0.00100025 -3.4109e-07 0)
(0.00100033 -4.64427e-07 0)
(0.001 -2.51723e-09 0)
(0.001 -7.36243e-09 0)
(0.001 -1.18628e-08 0)
(0.00100001 -1.63922e-08 0)
(0.00100001 -2.10303e-08 0)
(0.00100001 -2.6537e-08 0)
(0.00100002 -3.26234e-08 0)
(0.00100002 -4.04868e-08 0)
(0.00100003 -4.88454e-08 0)
(0.00100004 -6.03328e-08 0)
(0.00100005 -7.16063e-08 0)
(0.00100006 -8.85578e-08 0)
(0.00100008 -1.03395e-07 0)
(0.0010001 -1.29406e-07 0)
(0.00100011 -1.48066e-07 0)
(0.00100014 -1.897e-07 0)
(0.00100016 -2.10334e-07 0)
(0.0010002 -2.79875e-07 0)
(0.00100021 -2.93993e-07 0)
(0.00100027 -4.15096e-07 0)
(0.001 -2.86328e-09 0)
(0.001 -8.73496e-09 0)
(0.001 -1.48927e-08 0)
(0.001 -2.1759e-08 0)
(0.00100001 -2.93413e-08 0)
(0.00100001 -3.82713e-08 0)
(0.00100001 -4.81327e-08 0)
(0.00100002 -6.00682e-08 0)
(0.00100002 -7.27505e-08 0)
(0.00100003 -8.87569e-08 0)
(0.00100004 -1.04732e-07 0)
(0.00100005 -1.26642e-07 0)
(0.00100006 -1.46513e-07 0)
(0.00100007 -1.77802e-07 0)
(0.00100009 -2.01595e-07 0)
(0.00100011 -2.48675e-07 0)
(0.00100012 -2.74072e-07 0)
(0.00100015 -3.48919e-07 0)
(0.00100016 -3.66632e-07 0)
(0.00100021 -4.92237e-07 0)
(0.001 -3.171e-09 0)
(0.001 -9.6069e-09 0)
(0.001 -1.62249e-08 0)
(0.001 -2.34067e-08 0)
(0.001 -3.10796e-08 0)
(0.00100001 -3.99334e-08 0)
(0.00100001 -4.95332e-08 0)
(0.00100001 -6.11337e-08 0)
(0.00100002 -7.34203e-08 0)
(0.00100002 -8.90228e-08 0)
(0.00100003 -1.04684e-07 0)
(0.00100004 -1.26338e-07 0)
(0.00100004 -1.46114e-07 0)
(0.00100006 -1.77363e-07 0)
(0.00100006 -2.01407e-07 0)
(0.00100008 -2.48602e-07 0)
(0.00100009 -2.74485e-07 0)
(0.00100011 -3.49084e-07 0)
(0.00100012 -3.66976e-07 0)
(0.00100015 -4.90932e-07 0)
(0.001 -3.35372e-09 0)
(0.001 -1.01035e-08 0)
(0.001 -1.69854e-08 0)
(0.001 -2.4446e-08 0)
(0.001 -3.24275e-08 0)
(0.001 -4.16985e-08 0)
(0.00100001 -5.18411e-08 0)
(0.00100001 -6.41839e-08 0)
(0.00100001 -7.73684e-08 0)
(0.00100001 -9.40966e-08 0)
(0.00100002 -1.11056e-07 0)
(0.00100002 -1.34204e-07 0)
(0.00100003 -1.55569e-07 0)
(0.00100003 -1.88635e-07 0)
(0.00100004 -2.14408e-07 0)
(0.00100005 -2.63577e-07 0)
(0.00100005 -2.91014e-07 0)
(0.00100007 -3.67591e-07 0)
(0.00100007 -3.86474e-07 0)
(0.00100009 -5.1254e-07 0)
(0.001 -3.44045e-09 0)
(0.001 -1.03449e-08 0)
(0.001 -1.73752e-08 0)
(0.001 -2.4998e-08 0)
(0.001 -3.31885e-08 0)
(0.001 -4.27214e-08 0)
(0.001 -5.32026e-08 0)
(0.001 -6.59344e-08 0)
(0.001 -7.95384e-08 0)
(0.001 -9.6682e-08 0)
(0.00100001 -1.14044e-07 0)
(0.00100001 -1.37555e-07 0)
(0.00100001 -1.59308e-07 0)
(0.00100001 -1.9271e-07 0)
(0.00100001 -2.18883e-07 0)
(0.00100002 -2.68318e-07 0)
(0.00100002 -2.96163e-07 0)
(0.00100002 -3.72814e-07 0)
(0.00100002 -3.9202e-07 0)
(0.00100003 -5.17544e-07 0)
(0.001 -3.44218e-09 0)
(0.001 -1.03435e-08 0)
(0.001 -1.73824e-08 0)
(0.000999999 -2.49973e-08 0)
(0.000999999 -3.31892e-08 0)
(0.000999999 -4.27134e-08 0)
(0.000999998 -5.32002e-08 0)
(0.000999997 -6.5922e-08 0)
(0.000999996 -7.95373e-08 0)
(0.000999995 -9.66858e-08 0)
(0.000999994 -1.14044e-07 0)
(0.000999993 -1.37565e-07 0)
(0.000999991 -1.59319e-07 0)
(0.000999989 -1.92708e-07 0)
(0.000999987 -2.18875e-07 0)
(0.000999984 -2.68305e-07 0)
(0.000999982 -2.96146e-07 0)
(0.000999978 -3.72796e-07 0)
(0.000999977 -3.92008e-07 0)
(0.00099997 -5.17537e-07 0)
(0.001 -3.35787e-09 0)
(0.001 -1.0106e-08 0)
(0.000999999 -1.69983e-08 0)
(0.000999998 -2.44362e-08 0)
(0.000999997 -3.24262e-08 0)
(0.000999996 -4.16794e-08 0)
(0.000999994 -5.18351e-08 0)
(0.000999992 -6.41581e-08 0)
(0.000999989 -7.73587e-08 0)
(0.000999986 -9.41051e-08 0)
(0.000999983 -1.11057e-07 0)
(0.000999978 -1.34215e-07 0)
(0.000999973 -1.55586e-07 0)
(0.000999967 -1.88634e-07 0)
(0.000999961 -2.14392e-07 0)
(0.000999952 -2.63535e-07 0)
(0.000999946 -2.90961e-07 0)
(0.000999934 -3.67526e-07 0)
(0.00099993 -3.86428e-07 0)
(0.000999911 -5.12478e-07 0)
(0.001 -3.17694e-09 0)
(0.001 -9.61693e-09 0)
(0.000999999 -1.62222e-08 0)
(0.000999997 -2.33901e-08 0)
(0.000999996 -3.10737e-08 0)
(0.000999993 -3.992e-08 0)
(0.000999991 -4.95266e-08 0)
(0.000999987 -6.1122e-08 0)
(0.000999983 -7.33972e-08 0)
(0.000999977 -8.90262e-08 0)
(0.000999971 -1.04696e-07 0)
(0.000999964 -1.26343e-07 0)
(0.000999956 -1.46128e-07 0)
(0.000999945 -1.77383e-07 0)
(0.000999936 -2.0142e-07 0)
(0.00099992 -2.48587e-07 0)
(0.000999911 -2.74463e-07 0)
(0.000999889 -3.49058e-07 0)
(0.000999882 -3.66966e-07 0)
(0.000999852 -4.90917e-07 0)
(0.001 -2.87016e-09 0)
(0.000999999 -8.73743e-09 0)
(0.000999998 -1.4871e-08 0)
(0.000999996 -2.17554e-08 0)
(0.000999994 -2.93289e-08 0)
(0.000999991 -3.82822e-08 0)
(0.000999987 -4.81267e-08 0)
(0.000999982 -6.00843e-08 0)
(0.000999977 -7.2727e-08 0)
(0.000999969 -8.87229e-08 0)
(0.000999962 -1.04721e-07 0)
(0.000999951 -1.26619e-07 0)
(0.000999941 -1.4649e-07 0)
(0.000999925 -1.77784e-07 0)
(0.000999913 -2.01585e-07 0)
(0.000999891 -2.48635e-07 0)
(0.000999878 -2.7403e-07 0)
(0.000999846 -3.48832e-07 0)
(0.000999839 -3.66553e-07 0)
(0.000999792 -4.92095e-07 0)
(0.001 -2.52125e-09 0)
(0.000999999 -7.35178e-09 0)
(0.000999997 -1.1848e-08 0)
(0.000999995 -1.64064e-08 0)
(0.000999991 -2.10294e-08 0)
(0.000999987 -2.65821e-08 0)
(0.000999982 -3.26316e-08 0)
(0.000999976 -4.05326e-08 0)
(0.000999968 -4.88828e-08 0)
(0.000999959 -6.0318e-08 0)
(0.000999949 -7.15949e-08 0)
(0.000999935 -8.85505e-08 0)
(0.000999922 -1.0339e-07 0)
(0.000999903 -1.29408e-07 0)
(0.000999886 -1.48091e-07 0)
(0.000999859 -1.8973e-07 0)
(0.000999841 -2.10371e-07 0)
(0.000999802 -2.79883e-07 0)
(0.000999788 -2.94e-07 0)
(0.000999731 -4.15081e-07 0)
(0.001 -2.87714e-09 0)
(0.001 -9.13818e-09 0)
(0.000999999 -1.61344e-08 0)
(0.000999997 -2.40742e-08 0)
(0.000999994 -3.26481e-08 0)
(0.00099999 -4.23108e-08 0)
(0.000999984 -5.24615e-08 0)
(0.000999977 -6.42748e-08 0)
(0.000999969 -7.64031e-08 0)
(0.000999958 -9.13109e-08 0)
(0.000999946 -1.05775e-07 0)
(0.00099993 -1.25563e-07 0)
(0.000999915 -1.4284e-07 0)
(0.000999891 -1.70854e-07 0)
(0.000999872 -1.91028e-07 0)
(0.000999837 -2.33899e-07 0)
(0.000999817 -2.55297e-07 0)
(0.000999764 -3.26015e-07 0)
(0.000999752 -3.41031e-07 0)
(0.00099967 -4.64268e-07 0)
(0.001 -1.05244e-10 0)
(0.000999998 9.91623e-11 0)
(0.000999994 8.42962e-10 0)
(0.00099999 1.69367e-09 0)
(0.000999986 2.47346e-09 0)
(0.00099998 2.45293e-09 0)
(0.000999973 1.93465e-09 0)
(0.000999965 -3.68278e-11 0)
(0.000999956 -2.33067e-09 0)
(0.000999943 -7.18207e-09 0)
(0.00099993 -1.14017e-08 0)
(0.000999912 -2.06469e-08 0)
(0.000999894 -2.7281e-08 0)
(0.000999867 -4.42102e-08 0)
(0.000999845 -5.336e-08 0)
(0.000999805 -8.45864e-08 0)
(0.000999779 -9.50464e-08 0)
(0.00099972 -1.54214e-07 0)
(0.000999699 -1.60549e-07 0)
(0.000999611 -2.75845e-07 0)
(0.001 -3.94337e-09 0)
(0.001 -1.29326e-08 0)
(0.001 -2.28842e-08 0)
(0.000999998 -3.33986e-08 0)
(0.000999995 -4.38797e-08 0)
(0.000999989 -5.46e-08 0)
(0.000999983 -6.54721e-08 0)
(0.000999973 -7.72006e-08 0)
(0.000999963 -8.88408e-08 0)
(0.00099995 -1.02647e-07 0)
(0.000999935 -1.15452e-07 0)
(0.000999914 -1.32591e-07 0)
(0.000999896 -1.46634e-07 0)
(0.000999864 -1.69995e-07 0)
(0.000999841 -1.84999e-07 0)
(0.000999791 -2.20821e-07 0)
(0.000999767 -2.35363e-07 0)
(0.000999687 -2.9723e-07 0)
(0.000999672 -3.05938e-07 0)
(0.000999539 -4.22151e-07 0)
(0.001 3.97137e-09 0)
(0.000999996 1.20781e-08 0)
(0.000999991 2.02464e-08 0)
(0.000999986 2.79898e-08 0)
(0.000999982 3.52103e-08 0)
(0.000999976 4.1621e-08 0)
(0.000999969 4.79013e-08 0)
(0.000999959 5.30867e-08 0)
(0.000999948 5.85427e-08 0)
(0.000999934 6.23886e-08 0)
(0.000999919 6.69519e-08 0)
(0.000999897 6.85283e-08 0)
(0.000999877 7.26314e-08 0)
(0.000999844 6.98743e-08 0)
(0.000999819 7.40594e-08 0)
(0.000999767 6.17842e-08 0)
(0.000999738 6.72873e-08 0)
(0.000999654 3.19388e-08 0)
(0.000999629 4.00416e-08 0)
(0.000999496 -5.44216e-08 0)
(0.001 -8.71776e-09 0)
(0.001 -2.37158e-08 0)
(0.001 -3.58702e-08 0)
(0.000999997 -4.65044e-08 0)
(0.000999993 -5.66658e-08 0)
(0.000999986 -6.73496e-08 0)
(0.000999979 -7.77537e-08 0)
(0.000999968 -8.91738e-08 0)
(0.000999958 -9.99586e-08 0)
(0.000999942 -1.12013e-07 0)
(0.000999928 -1.22824e-07 0)
(0.000999903 -1.36333e-07 0)
(0.000999885 -1.46646e-07 0)
(0.000999846 -1.63366e-07 0)
(0.000999826 -1.72122e-07 0)
(0.00099976 -1.9617e-07 0)
(0.000999742 -2.00678e-07 0)
(0.000999623 -2.42941e-07 0)
(0.000999618 -2.39144e-07 0)
(0.000999394 -3.32046e-07 0)
)
;

boundaryField
{
    sides
    {
        type            slip;
    }
    inlet
    {
        type            fixedValue;
        value           uniform (0.001 0 0);
    }
    outlet
    {
        type            zeroGradient;
    }
    frontAndBack
    {
        type            empty;
    }
}


// ************************************************************************* //
