/*--------------------------------*- C++ -*----------------------------------*\
  =========                 |
  \\      /  F ield         | OpenFOAM: The Open Source CFD Toolbox
   \\    /   O peration     | Website:  https://openfoam.org
    \\  /    A nd           | Version:  7
     \\/     M anipulation  |
\*---------------------------------------------------------------------------*/
FoamFile
{
    version     2.0;
    format      ascii;
    class       surfaceScalarField;
    location    "65";
    object      phi_0;
}
// * * * * * * * * * * * * * * * * * * * * * * * * * * * * * * * * * * * * * //

dimensions      [0 4 -1 0 0 0 0];

internalField   nonuniform List<scalar> 
760
(
4.99999e-06
1.01643e-11
5e-06
-4.02013e-12
5.00001e-06
-1.26203e-11
5.00003e-06
-1.9166e-11
5.00005e-06
-2.58831e-11
5.00009e-06
-3.34233e-11
5.00013e-06
-3.74764e-11
5.00018e-06
-4.85613e-11
5.00025e-06
-6.22773e-11
5.00032e-06
-7.83201e-11
5.00041e-06
-9.03151e-11
5.00053e-06
-1.1415e-10
5.00066e-06
-1.2697e-10
5.00082e-06
-1.67734e-10
5.001e-06
-1.77856e-10
5.00126e-06
-2.56439e-10
5.00151e-06
-2.55672e-10
5.00195e-06
-4.31207e-10
5.00236e-06
-4.13614e-10
-8.91686e-10
5.00002e-06
-1.17046e-11
5.00004e-06
-1.84574e-11
5.00005e-06
-2.85935e-11
5.00008e-06
-4.08971e-11
5.0001e-06
-5.32694e-11
5.00014e-06
-6.78567e-11
5.00018e-06
-8.3203e-11
5.00023e-06
-1.03625e-10
5.00029e-06
-1.23631e-10
5.00037e-06
-1.53556e-10
5.00045e-06
-1.77551e-10
5.00056e-06
-2.22553e-10
5.00069e-06
-2.50609e-10
5.00084e-06
-3.24016e-10
5.00102e-06
-3.53497e-10
5.00125e-06
-4.85231e-10
5.0015e-06
-5.08162e-10
5.00184e-06
-7.6686e-10
5.00218e-06
-7.5887e-10
-1.26209e-09
4.99999e-06
-4.49067e-12
4.99999e-06
-1.98419e-11
5e-06
-3.65577e-11
5.00002e-06
-5.51575e-11
5.00004e-06
-7.46703e-11
5.00007e-06
-9.75714e-11
5.00011e-06
-1.20993e-10
5.00016e-06
-1.51485e-10
5.00021e-06
-1.8248e-10
5.00029e-06
-2.24126e-10
5.00037e-06
-2.63005e-10
5.00047e-06
-3.2402e-10
5.00059e-06
-3.72404e-10
5.00074e-06
-4.67334e-10
5.00091e-06
-5.25027e-10
5.00111e-06
-6.85248e-10
5.00135e-06
-7.46153e-10
5.00162e-06
-1.03941e-09
5.00194e-06
-1.08158e-09
-1.68983e-09
5.00001e-06
-1.2574e-11
5.00002e-06
-3.27637e-11
5.00004e-06
-5.30555e-11
5.00006e-06
-7.56067e-11
5.00008e-06
-9.93704e-11
5.00012e-06
-1.28083e-10
5.00015e-06
-1.58167e-10
5.0002e-06
-1.96962e-10
5.00025e-06
-2.35877e-10
5.00032e-06
-2.89264e-10
5.00039e-06
-3.39426e-10
5.00049e-06
-4.16351e-10
5.00059e-06
-4.79019e-10
5.00072e-06
-5.96202e-10
5.00087e-06
-6.71807e-10
5.00105e-06
-8.63027e-10
5.00124e-06
-9.44508e-10
5.00148e-06
-1.2777e-09
5.00173e-06
-1.32932e-09
-1.89829e-09
5e-06
-1.14378e-11
5e-06
-3.57492e-11
5.00001e-06
-6.06204e-11
5.00002e-06
-8.78792e-11
5.00004e-06
-1.17201e-10
5.00006e-06
-1.51536e-10
5.0001e-06
-1.88988e-10
5.00013e-06
-2.34895e-10
5.00018e-06
-2.82997e-10
5.00024e-06
-3.46027e-10
5.00031e-06
-4.07885e-10
5.00039e-06
-4.96728e-10
5.00048e-06
-5.7483e-10
5.00059e-06
-7.06891e-10
5.00072e-06
-8.02279e-10
5.00087e-06
-1.01012e-09
5.00104e-06
-1.11369e-09
5.00122e-06
-1.45892e-09
5.00142e-06
-1.53036e-09
-2.16321e-09
5e-06
-1.37243e-11
5.00001e-06
-4.24026e-11
5.00002e-06
-7.13627e-11
5.00004e-06
-1.0242e-10
5.00005e-06
-1.3572e-10
5.00008e-06
-1.74527e-10
5.0001e-06
-2.17063e-10
5.00014e-06
-2.69158e-10
5.00018e-06
-3.24196e-10
5.00023e-06
-3.95429e-10
5.00029e-06
-4.65675e-10
5.00036e-06
-5.65204e-10
5.00044e-06
-6.53858e-10
5.00053e-06
-7.99501e-10
5.00063e-06
-9.07131e-10
5.00075e-06
-1.13144e-09
5.00089e-06
-1.24775e-09
5.00104e-06
-1.61271e-09
5.00121e-06
-1.69441e-09
-2.294e-09
5e-06
-1.55176e-11
5.00001e-06
-4.67449e-11
5.00001e-06
-7.84819e-11
5.00002e-06
-1.12339e-10
5.00004e-06
-1.48793e-10
5.00005e-06
-1.91485e-10
5.00008e-06
-2.38329e-10
5.0001e-06
-2.95371e-10
5.00013e-06
-3.56132e-10
5.00017e-06
-4.33487e-10
5.00022e-06
-5.11094e-10
5.00027e-06
-6.18569e-10
5.00033e-06
-7.16491e-10
5.00041e-06
-8.7152e-10
5.00049e-06
-9.90189e-10
5.00058e-06
-1.22465e-09
5.00069e-06
-1.35205e-09
5.0008e-06
-1.72322e-09
5.00091e-06
-1.80905e-09
-2.44256e-09
5e-06
-1.66134e-11
5e-06
-4.97886e-11
5.00001e-06
-8.33792e-11
5.00002e-06
-1.19725e-10
5.00003e-06
-1.58727e-10
5.00004e-06
-2.04342e-10
5.00006e-06
-2.54362e-10
5.00008e-06
-3.15183e-10
5.0001e-06
-3.79959e-10
5.00013e-06
-4.6196e-10
5.00016e-06
-5.44715e-10
5.0002e-06
-6.57937e-10
5.00025e-06
-7.61893e-10
5.0003e-06
-9.23817e-10
5.00036e-06
-1.04926e-09
5.00043e-06
-1.29111e-09
5.0005e-06
-1.4248e-09
5.00058e-06
-1.80364e-09
5.00067e-06
-1.89706e-09
-2.5167e-09
5e-06
-1.72453e-11
5e-06
-5.16701e-11
5.00001e-06
-8.64792e-11
5.00001e-06
-1.24291e-10
5.00002e-06
-1.64926e-10
5.00002e-06
-2.12252e-10
5.00003e-06
-2.64145e-10
5.00005e-06
-3.27138e-10
5.00006e-06
-3.94283e-10
5.00008e-06
-4.79057e-10
5.0001e-06
-5.64864e-10
5.00012e-06
-6.81401e-10
5.00015e-06
-7.89051e-10
5.00018e-06
-9.55015e-10
5.00022e-06
-1.08461e-09
5.00026e-06
-1.33067e-09
5.0003e-06
-1.46843e-09
5.00035e-06
-1.85067e-09
5.00039e-06
-1.94433e-09
-2.57266e-09
5e-06
-1.74659e-11
5e-06
-5.22952e-11
5e-06
-8.75868e-11
5e-06
-1.2586e-10
5.00001e-06
-1.67033e-10
5.00001e-06
-2.14871e-10
5.00001e-06
-2.67387e-10
5.00002e-06
-3.3103e-10
5.00002e-06
-3.99022e-10
5.00003e-06
-4.84741e-10
5.00003e-06
-5.71594e-10
5.00004e-06
-6.8932e-10
5.00005e-06
-7.98265e-10
5.00006e-06
-9.65478e-10
5.00007e-06
-1.09646e-09
5.00009e-06
-1.34374e-09
5.0001e-06
-1.48277e-09
5.00012e-06
-1.86574e-09
5.00013e-06
-1.96131e-09
-2.58892e-09
5e-06
-1.72639e-11
5e-06
-5.16541e-11
5e-06
-8.65511e-11
5e-06
-1.24285e-10
4.99999e-06
-1.64931e-10
4.99999e-06
-2.12171e-10
4.99999e-06
-2.6412e-10
4.99998e-06
-3.27016e-10
4.99998e-06
-3.94274e-10
4.99997e-06
-4.79097e-10
4.99997e-06
-5.64867e-10
4.99996e-06
-6.815e-10
4.99995e-06
-7.8916e-10
4.99994e-06
-9.55003e-10
4.99993e-06
-1.08454e-09
4.99991e-06
-1.33054e-09
4.9999e-06
-1.46826e-09
4.99988e-06
-1.85047e-09
4.99987e-06
-1.9442e-09
-2.5725e-09
5e-06
-1.66371e-11
5e-06
-4.983e-11
4.99999e-06
-8.34402e-11
4.99999e-06
-1.1963e-10
4.99998e-06
-1.58702e-10
4.99998e-06
-2.04228e-10
4.99997e-06
-2.54322e-10
4.99995e-06
-3.1505e-10
4.99994e-06
-3.79872e-10
4.99992e-06
-4.6201e-10
4.9999e-06
-5.44735e-10
4.99988e-06
-6.57963e-10
4.99985e-06
-7.61978e-10
4.99982e-06
-9.2387e-10
4.99978e-06
-1.04924e-09
4.99974e-06
-1.29091e-09
4.9997e-06
-1.42454e-09
4.99965e-06
-1.80334e-09
4.99961e-06
-1.89686e-09
-2.51647e-09
5e-06
-1.55551e-11
5e-06
-4.68127e-11
4.99999e-06
-7.83945e-11
4.99998e-06
-1.12263e-10
4.99997e-06
-1.48756e-10
4.99996e-06
-1.9146e-10
4.99994e-06
-2.38292e-10
4.99992e-06
-2.95372e-10
4.9999e-06
-3.55967e-10
4.99987e-06
-4.33427e-10
4.99984e-06
-5.11144e-10
4.9998e-06
-6.18527e-10
4.99975e-06
-7.16466e-10
4.9997e-06
-8.71554e-10
4.99964e-06
-9.90233e-10
4.99957e-06
-1.22453e-09
4.9995e-06
-1.3519e-09
4.99942e-06
-1.72297e-09
4.99933e-06
-1.80887e-09
-2.4422e-09
5e-06
-1.37575e-11
4.99999e-06
-4.23622e-11
4.99999e-06
-7.12336e-11
4.99998e-06
-1.02484e-10
4.99996e-06
-1.35646e-10
4.99995e-06
-1.74701e-10
4.99992e-06
-2.17078e-10
4.9999e-06
-2.6937e-10
4.99987e-06
-3.24193e-10
4.99983e-06
-3.95223e-10
4.99978e-06
-4.65597e-10
4.99973e-06
-5.65123e-10
4.99967e-06
-6.53772e-10
4.99959e-06
-7.99447e-10
4.99951e-06
-9.07172e-10
4.99942e-06
-1.13143e-09
4.99931e-06
-1.24775e-09
4.9992e-06
-1.61252e-09
4.99909e-06
-1.69422e-09
-2.2936e-09
5e-06
-1.1421e-11
4.99999e-06
-3.56412e-11
4.99998e-06
-6.06119e-11
4.99996e-06
-8.79816e-11
4.99995e-06
-1.17259e-10
4.99992e-06
-1.51813e-10
4.9999e-06
-1.88979e-10
4.99986e-06
-2.35066e-10
4.99982e-06
-2.8334e-10
4.99977e-06
-3.46029e-10
4.99971e-06
-4.07759e-10
4.99964e-06
-4.96603e-10
4.99956e-06
-5.74722e-10
4.99947e-06
-7.0676e-10
4.99937e-06
-8.02287e-10
4.99925e-06
-1.01014e-09
4.99911e-06
-1.11379e-09
4.99896e-06
-1.45877e-09
4.99879e-06
-1.53024e-09
-2.16278e-09
5e-06
-1.24728e-11
5e-06
-3.26831e-11
4.99999e-06
-5.32177e-11
4.99998e-06
-7.57292e-11
4.99996e-06
-9.95835e-11
4.99994e-06
-1.2784e-10
4.9999e-06
-1.58128e-10
4.99987e-06
-1.96595e-10
4.99982e-06
-2.36124e-10
4.99976e-06
-2.8951e-10
4.99969e-06
-3.39441e-10
4.99961e-06
-4.16245e-10
4.99952e-06
-4.78894e-10
4.99941e-06
-5.95992e-10
4.99928e-06
-6.71708e-10
4.99913e-06
-8.62924e-10
4.99896e-06
-9.44534e-10
4.99878e-06
-1.2775e-09
4.99858e-06
-1.32916e-09
-1.89778e-09
4.99999e-06
-4.37802e-12
4.99998e-06
-1.98872e-11
4.99996e-06
-3.6738e-11
4.99994e-06
-5.52155e-11
4.99992e-06
-7.46954e-11
4.99989e-06
-9.69869e-11
4.99985e-06
-1.21646e-10
4.9998e-06
-1.51028e-10
4.99975e-06
-1.82218e-10
4.99968e-06
-2.2436e-10
4.99961e-06
-2.63218e-10
4.99951e-06
-3.24087e-10
4.99941e-06
-3.72416e-10
4.99928e-06
-4.67222e-10
4.99913e-06
-5.24953e-10
4.99895e-06
-6.85099e-10
4.99876e-06
-7.46155e-10
4.99852e-06
-1.03923e-09
4.99827e-06
-1.08152e-09
-1.68945e-09
5.00001e-06
-1.17705e-11
5.00001e-06
-1.86749e-11
5e-06
-2.8553e-11
4.99998e-06
-4.06534e-11
4.99996e-06
-5.28975e-11
4.99993e-06
-6.78678e-11
4.99989e-06
-8.37901e-11
4.99984e-06
-1.04679e-10
4.99979e-06
-1.23208e-10
4.99971e-06
-1.53402e-10
4.99963e-06
-1.77661e-10
4.99953e-06
-2.22665e-10
4.9994e-06
-2.50742e-10
4.99926e-06
-3.23996e-10
4.99909e-06
-3.53451e-10
4.99889e-06
-4.84988e-10
4.99865e-06
-5.0808e-10
4.99838e-06
-7.66564e-10
4.99806e-06
-7.58756e-10
-1.26161e-09
4.99998e-06
1.00145e-11
4.99996e-06
-4.25358e-12
4.99995e-06
-1.2375e-11
4.99992e-06
-1.87521e-11
4.9999e-06
-2.60357e-11
4.99986e-06
-2.99854e-11
4.99982e-06
-4.3096e-11
4.99977e-06
-5.26157e-11
4.99971e-06
-6.23116e-11
4.99963e-06
-7.80894e-11
4.99955e-06
-9.03527e-11
4.99944e-06
-1.14371e-10
4.99931e-06
-1.27248e-10
4.99916e-06
-1.67895e-10
4.99898e-06
-1.77926e-10
4.99875e-06
-2.56377e-10
4.9985e-06
-2.55678e-10
4.99817e-06
-4.31158e-10
4.99782e-06
-4.13665e-10
-8.91689e-10
5.00001e-06
5.00001e-06
4.99999e-06
4.99997e-06
4.99995e-06
4.99991e-06
4.99987e-06
4.99982e-06
4.99975e-06
4.99967e-06
4.99958e-06
4.99947e-06
4.99934e-06
4.99918e-06
4.999e-06
4.99874e-06
4.99848e-06
4.99805e-06
4.99764e-06
)
;

boundaryField
{
    sides
    {
        type            calculated;
        value           uniform 0;
    }
    inlet
    {
        type            calculated;
        value           nonuniform List<scalar> 
20
(
-5e-06
-5e-06
-5e-06
-5e-06
-5e-06
-5e-06
-5e-06
-5e-06
-5e-06
-5e-06
-5e-06
-5e-06
-5e-06
-5e-06
-5e-06
-5e-06
-5e-06
-5e-06
-5e-06
-5e-06
)
;
    }
    outlet
    {
        type            calculated;
        value           nonuniform List<scalar> 
20
(
5.00325e-06
5.00255e-06
5.00237e-06
5.00194e-06
5.00169e-06
5.00134e-06
5.00106e-06
5.00074e-06
5.00045e-06
5.00015e-06
4.99985e-06
4.99955e-06
4.99926e-06
4.99894e-06
4.99866e-06
4.99831e-06
4.99806e-06
4.99763e-06
4.99745e-06
4.99675e-06
)
;
    }
    frontAndBack
    {
        type            empty;
        value           nonuniform 0();
    }
}


// ************************************************************************* //
