/*--------------------------------*- C++ -*----------------------------------*\
  =========                 |
  \\      /  F ield         | OpenFOAM: The Open Source CFD Toolbox
   \\    /   O peration     | Website:  https://openfoam.org
    \\  /    A nd           | Version:  7
     \\/     M anipulation  |
\*---------------------------------------------------------------------------*/
FoamFile
{
    version     2.0;
    format      ascii;
    class       volVectorField;
    location    "73";
    object      ddtCorrDdt0(hU);
}
// * * * * * * * * * * * * * * * * * * * * * * * * * * * * * * * * * * * * * //

dimensions      [0 2 -2 0 0 0 0];

internalField   nonuniform List<vector> 
400
(
(-4.62468e-11 -3.27557e-11 0)
(-1.18598e-10 -6.33252e-11 0)
(-1.2483e-10 6.90826e-11 0)
(8.76929e-11 5.81978e-11 0)
(1.31412e-10 -5.03601e-10 0)
(1.32352e-09 -4.11301e-10 0)
(4.32588e-10 -5.13429e-10 0)
(1.83413e-09 -2.49587e-09 0)
(-1.74099e-09 6.87802e-10 0)
(5.6828e-10 5.2114e-10 0)
(4.69105e-10 2.3066e-10 0)
(3.81674e-10 7.34635e-11 0)
(9.18224e-11 -2.65409e-11 0)
(-1.68592e-10 -5.49817e-11 0)
(-2.32663e-10 -4.40397e-11 0)
(-1.99053e-10 -5.34948e-11 0)
(-8.60212e-11 -7.56897e-11 0)
(1.55235e-11 -9.22366e-11 0)
(1.34554e-10 -1.00667e-10 0)
(1.60118e-10 -1.03758e-11 0)
(9.16091e-13 -4.62668e-11 0)
(-2.37526e-11 2.64083e-11 0)
(-1.33765e-10 1.70611e-10 0)
(-8.93004e-11 2.96297e-10 0)
(-4.24378e-10 -5.59955e-10 0)
(-1.16242e-09 2.33666e-10 0)
(1.97258e-10 -1.0326e-09 0)
(-4.18499e-09 -1.53823e-09 0)
(2.00782e-09 9.53471e-10 0)
(-1.10096e-10 4.43801e-10 0)
(-1.91006e-10 2.84571e-10 0)
(-1.34948e-11 8.65332e-11 0)
(-6.61697e-11 -1.08734e-10 0)
(-1.25329e-10 -1.29852e-10 0)
(-1.26987e-10 -5.17741e-11 0)
(-1.15776e-10 4.21312e-12 0)
(-5.71771e-11 6.77438e-14 0)
(-2.04573e-12 -1.87184e-11 0)
(9.03748e-11 -6.03292e-11 0)
(1.34554e-10 -3.76507e-11 0)
(8.81059e-11 7.31995e-12 0)
(6.1293e-11 3.37702e-11 0)
(-1.18504e-10 -9.59193e-11 0)
(-2.03184e-10 4.53816e-11 0)
(-1.50986e-10 -2.15386e-10 0)
(8.33061e-11 3.8083e-10 0)
(-1.41898e-09 -6.12352e-10 0)
(2.13689e-09 1.47725e-09 0)
(6.04083e-10 -4.27879e-11 0)
(-3.37593e-10 -1.98505e-10 0)
(-2.85259e-11 1.1654e-10 0)
(-2.14356e-10 1.09537e-10 0)
(-2.70069e-10 4.04712e-11 0)
(-1.52189e-10 3.1752e-11 0)
(-7.40979e-11 4.01571e-11 0)
(-6.5817e-11 -2.82052e-11 0)
(-1.03303e-11 -1.12665e-10 0)
(9.22085e-12 -1.35047e-10 0)
(8.73623e-11 -1.80283e-10 0)
(1.31991e-10 -4.8009e-11 0)
(4.83284e-11 5.69444e-11 0)
(-2.99107e-11 -1.81064e-11 0)
(-8.87624e-11 -1.64796e-10 0)
(-2.10683e-10 -1.74931e-10 0)
(3.2598e-11 4.03628e-11 0)
(-2.82385e-10 -3.86646e-10 0)
(2.35962e-10 2.6025e-10 0)
(7.88955e-10 4.19623e-10 0)
(-5.5795e-10 -5.61691e-10 0)
(-4.52041e-11 -1.56182e-10 0)
(9.73103e-11 -1.82039e-11 0)
(-1.83753e-10 -3.66748e-11 0)
(-1.56444e-10 8.17436e-11 0)
(-2.64263e-11 1.57914e-10 0)
(-3.07841e-12 1.22345e-10 0)
(-4.22804e-11 -1.39891e-11 0)
(-1.97588e-11 -1.38151e-10 0)
(-1.7979e-11 -1.75088e-10 0)
(-3.41273e-12 -2.52299e-10 0)
(3.90443e-11 -7.99085e-11 0)
(2.25151e-11 3.47361e-11 0)
(-6.94457e-11 -4.89649e-13 0)
(-2.51582e-11 -1.0215e-11 0)
(-1.65689e-10 -1.91836e-10 0)
(7.56987e-11 1.13266e-10 0)
(-2.65319e-10 -4.22927e-10 0)
(3.76628e-10 2.56165e-10 0)
(-2.40967e-10 -4.34015e-10 0)
(-3.77669e-10 -3.35243e-10 0)
(1.97658e-10 7.14491e-11 0)
(-9.44822e-11 -2.26228e-11 0)
(-1.91476e-10 -1.60095e-12 0)
(2.35159e-11 2.00879e-10 0)
(9.12347e-11 2.46245e-10 0)
(4.80259e-11 1.30486e-10 0)
(-8.88642e-12 -3.54655e-11 0)
(-8.98825e-12 -1.57667e-10 0)
(-2.16237e-11 -2.12484e-10 0)
(-1.5334e-11 -3.33102e-10 0)
(7.67282e-12 -1.28606e-10 0)
(1.01961e-11 -1.2838e-11 0)
(-5.61307e-11 -6.41296e-11 0)
(-4.58097e-11 -3.01964e-11 0)
(-1.01942e-10 -2.6054e-10 0)
(-1.92326e-11 -1.62751e-10 0)
(-1.08232e-10 -3.2974e-10 0)
(1.79372e-10 -1.68393e-10 0)
(-3.35043e-10 -4.75935e-10 0)
(1.61705e-10 -1.58828e-11 0)
(1.86702e-10 2.8958e-11 0)
(-2.18087e-10 -2.10025e-11 0)
(8.65502e-12 2.19515e-10 0)
(1.77669e-10 3.86858e-10 0)
(2.54112e-11 3.03722e-10 0)
(-8.18708e-11 1.1155e-10 0)
(-9.43429e-11 -1.2003e-10 0)
(-6.78354e-11 -2.90484e-10 0)
(-5.77087e-11 -3.74162e-10 0)
(4.07154e-11 -5.13281e-10 0)
(1.17057e-10 -1.77205e-10 0)
(4.16487e-12 -8.24606e-12 0)
(1.43671e-11 -1.24722e-11 0)
(-3.60629e-11 -4.02289e-11 0)
(2.28626e-11 -5.50819e-11 0)
(-7.5938e-11 -2.6313e-10 0)
(5.40715e-11 -1.34242e-10 0)
(-7.88218e-11 -2.91267e-10 0)
(-1.18454e-10 -2.40103e-10 0)
(1.38742e-10 2.77868e-11 0)
(-2.02593e-10 -1.43866e-10 0)
(-8.43115e-11 6.43006e-11 0)
(2.45756e-10 3.4347e-10 0)
(1.97506e-10 3.207e-10 0)
(-2.06344e-12 1.91608e-10 0)
(-8.90677e-11 9.3159e-11 0)
(-8.2779e-11 -9.42294e-11 0)
(-7.80071e-11 -3.04322e-10 0)
(-9.15696e-11 -3.96154e-10 0)
(-2.00308e-12 -5.17647e-10 0)
(1.32882e-10 -1.91549e-10 0)
(6.46297e-13 2.5341e-11 0)
(5.1151e-11 5.33482e-11 0)
(-4.60078e-11 -1.08534e-10 0)
(2.71687e-11 -1.00761e-10 0)
(-8.11809e-11 -3.53888e-10 0)
(7.84558e-11 -2.85298e-10 0)
(-1.26226e-10 -4.30091e-10 0)
(8.32808e-11 -2.0389e-10 0)
(-2.05298e-11 -1.55572e-10 0)
(-1.14208e-10 -5.56324e-11 0)
(2.33397e-10 2.71782e-10 0)
(1.62228e-10 3.52014e-10 0)
(-4.50131e-11 2.29037e-10 0)
(-6.16023e-11 1.0456e-10 0)
(-1.09815e-10 5.29085e-11 0)
(-1.66604e-10 -1.19995e-10 0)
(-1.13229e-10 -3.6776e-10 0)
(-4.89488e-11 -4.49265e-10 0)
(7.3531e-11 -4.99135e-10 0)
(1.88127e-10 -1.35385e-10 0)
(1.02634e-11 7.26079e-11 0)
(2.27952e-11 2.19458e-11 0)
(-4.67041e-11 -8.55826e-11 0)
(-3.42766e-11 -2.45623e-10 0)
(-2.78834e-11 -3.18262e-10 0)
(2.16349e-11 -4.0639e-10 0)
(-3.41851e-11 -4.10254e-10 0)
(8.08858e-11 -2.57232e-10 0)
(-3.02079e-11 -2.50707e-10 0)
(5.75375e-11 4.61596e-11 0)
(1.43347e-10 1.88839e-10 0)
(-8.09178e-11 1.50145e-10 0)
(-1.37999e-10 1.8452e-10 0)
(-3.22641e-12 1.08099e-10 0)
(-5.99734e-12 1.4825e-11 0)
(-8.99212e-11 -1.10636e-10 0)
(-6.75021e-11 -3.00269e-10 0)
(1.76088e-11 -3.6577e-10 0)
(7.36387e-11 -4.33051e-10 0)
(7.53427e-11 -1.16473e-10 0)
(-1.90312e-11 4.52634e-11 0)
(-5.93532e-11 -4.58267e-11 0)
(-2.06299e-11 -6.91318e-11 0)
(-6.36729e-11 -2.44533e-10 0)
(3.45002e-12 -2.7766e-10 0)
(-5.61706e-11 -3.9975e-10 0)
(4.18478e-11 -3.73529e-10 0)
(7.2714e-13 -2.89117e-10 0)
(5.86118e-11 -2.25364e-10 0)
(1.12505e-10 3.5284e-11 0)
(-7.10232e-11 1.06743e-10 0)
(-9.60058e-11 1.29225e-10 0)
(-7.31379e-11 2.51754e-10 0)
(-9.23314e-11 1.79115e-10 0)
(-1.15463e-11 3.0364e-11 0)
(5.62081e-11 -1.20949e-10 0)
(4.65144e-11 -2.76501e-10 0)
(3.3694e-11 -3.30337e-10 0)
(2.61577e-11 -4.36634e-10 0)
(-2.83327e-11 -1.21884e-10 0)
(-1.26775e-11 -7.6079e-11 0)
(-6.53117e-11 -2.92971e-11 0)
(1.85594e-11 -9.35896e-11 0)
(-4.61178e-11 -1.21325e-10 0)
(1.81018e-11 -2.42004e-10 0)
(-8.32105e-11 -2.7744e-10 0)
(5.97704e-11 -3.2273e-10 0)
(-2.21731e-11 -2.63211e-10 0)
(7.74828e-11 -1.56639e-10 0)
(1.10531e-10 -7.97723e-11 0)
(-1.43356e-10 9.00545e-11 0)
(-9.33674e-11 2.14951e-10 0)
(-3.75009e-11 2.61937e-10 0)
(-8.84759e-11 2.42269e-10 0)
(3.67484e-11 1.61668e-10 0)
(1.67295e-10 -6.61793e-11 0)
(1.25886e-10 -2.92989e-10 0)
(5.37484e-11 -3.68865e-10 0)
(-3.29423e-11 -5.04163e-10 0)
(-1.39195e-10 -1.63612e-10 0)
(4.13435e-11 -9.12028e-11 0)
(3.47689e-11 -2.97854e-11 0)
(4.92527e-11 -9.0654e-11 0)
(1.182e-11 -8.04034e-11 0)
(2.3574e-11 -2.4987e-10 0)
(-3.61141e-11 -2.32167e-10 0)
(-6.83593e-12 -2.82071e-10 0)
(2.3076e-11 -2.73312e-10 0)
(-3.39948e-11 -9.72241e-11 0)
(8.74338e-11 -1.68117e-10 0)
(3.51985e-11 1.5636e-11 0)
(-9.17645e-11 2.49839e-10 0)
(-4.68166e-11 2.98158e-10 0)
(6.51197e-11 2.92092e-10 0)
(9.29731e-11 2.06766e-10 0)
(4.5435e-11 -7.13053e-11 0)
(1.57772e-11 -3.13889e-10 0)
(2.14936e-11 -3.97234e-10 0)
(-2.87191e-11 -5.69583e-10 0)
(-1.15831e-10 -2.16217e-10 0)
(1.86197e-11 2.34942e-11 0)
(9.78436e-11 -3.37679e-11 0)
(6.18055e-11 -3.14362e-11 0)
(1.11488e-10 -2.24887e-10 0)
(4.4712e-12 -2.53541e-10 0)
(7.37677e-11 -3.59696e-10 0)
(-1.13811e-10 -2.49841e-10 0)
(8.03685e-11 -3.43213e-10 0)
(-1.32139e-10 -8.99292e-11 0)
(-1.06226e-10 -4.51078e-11 0)
(2.06477e-10 -3.45133e-11 0)
(6.39684e-11 1.67893e-10 0)
(-4.04293e-11 3.42077e-10 0)
(7.81431e-11 3.07374e-10 0)
(7.09308e-11 1.12125e-10 0)
(7.30704e-12 -1.69239e-10 0)
(2.98434e-12 -3.52224e-10 0)
(1.09885e-11 -4.18886e-10 0)
(-5.44507e-11 -5.86763e-10 0)
(-8.86302e-11 -2.14064e-10 0)
(-3.32746e-11 1.21109e-10 0)
(6.58726e-11 3.58428e-11 0)
(4.56755e-11 -3.97252e-11 0)
(1.52031e-10 -2.89747e-10 0)
(-2.61303e-11 -1.55866e-10 0)
(1.48806e-10 -4.24406e-10 0)
(-1.27746e-10 -1.68188e-10 0)
(2.24488e-11 -2.83026e-10 0)
(5.12689e-11 -2.40146e-10 0)
(-2.84317e-10 9.51983e-11 0)
(3.63919e-11 3.48231e-11 0)
(2.42312e-10 8.77144e-12 0)
(1.06796e-10 1.89926e-10 0)
(-1.82217e-11 2.11162e-10 0)
(-7.32535e-11 6.98489e-11 0)
(-3.74395e-11 -1.24074e-10 0)
(4.2628e-12 -2.8545e-10 0)
(2.20493e-12 -3.58682e-10 0)
(6.8416e-12 -4.90268e-10 0)
(3.15717e-11 -1.8013e-10 0)
(-7.38283e-11 1.25788e-10 0)
(-2.57005e-11 4.91953e-11 0)
(5.81086e-11 -1.68835e-10 0)
(1.27121e-10 -2.12164e-10 0)
(6.50127e-11 -2.86912e-10 0)
(8.30281e-11 -3.72237e-10 0)
(7.3338e-11 -2.71982e-10 0)
(-3.51208e-10 -7.34955e-12 0)
(1.81003e-10 -3.00819e-10 0)
(-9.68063e-11 5.8376e-11 0)
(-2.83863e-10 2.66361e-10 0)
(9.53123e-11 1.54287e-10 0)
(2.31364e-10 1.39257e-10 0)
(9.31233e-11 1.18322e-10 0)
(1.71666e-11 5.99482e-11 0)
(5.68833e-11 -9.28207e-11 0)
(3.71355e-11 -2.80998e-10 0)
(7.60961e-12 -3.58e-10 0)
(-3.44518e-11 -4.26383e-10 0)
(-3.76662e-11 -1.1516e-10 0)
(-7.94175e-11 2.11919e-11 0)
(-1.15745e-10 2.57361e-11 0)
(4.31528e-11 -7.40306e-11 0)
(5.28718e-12 1.20154e-10 0)
(1.8737e-10 -2.8036e-10 0)
(-8.70253e-11 1.44439e-10 0)
(4.58824e-10 -4.19721e-10 0)
(-3.87676e-10 2.55607e-10 0)
(-1.85315e-10 3.79271e-11 0)
(2.35662e-10 -6.43073e-11 0)
(-1.63515e-10 2.26307e-10 0)
(-1.07291e-10 2.45174e-10 0)
(1.1781e-10 1.22259e-10 0)
(1.15277e-10 5.25253e-11 0)
(5.22326e-11 5.96884e-11 0)
(3.95635e-11 -7.39267e-12 0)
(1.74857e-11 -1.53013e-10 0)
(2.16059e-11 -2.22633e-10 0)
(-1.68119e-11 -2.96084e-10 0)
(-4.83674e-11 -9.78941e-11 0)
(7.74221e-12 -7.54252e-11 0)
(-4.55052e-11 -7.66308e-11 0)
(1.19618e-10 -3.07902e-11 0)
(-2.20341e-11 1.22518e-10 0)
(2.67492e-10 -3.75739e-10 0)
(-2.33985e-10 1.90185e-10 0)
(5.17609e-10 -9.93401e-10 0)
(2.32063e-10 -4.6331e-11 0)
(-5.5416e-10 2.84286e-10 0)
(3.35954e-12 -2.54801e-12 0)
(-3.00462e-11 1.3322e-10 0)
(-1.91373e-10 2.57646e-10 0)
(-3.22509e-11 1.9355e-10 0)
(1.3081e-10 8.95411e-11 0)
(1.50201e-10 4.53285e-11 0)
(1.14382e-10 -2.83842e-11 0)
(5.69062e-11 -1.39885e-10 0)
(2.26054e-11 -2.01722e-10 0)
(-6.13394e-11 -2.74224e-10 0)
(-1.08906e-10 -8.46806e-11 0)
(8.94243e-11 -2.82767e-11 0)
(2.23506e-11 -6.47526e-11 0)
(1.22422e-10 4.6015e-11 0)
(-6.91054e-11 -1.0394e-10 0)
(1.67697e-10 -3.50019e-11 0)
(-3.56155e-10 -5.48122e-10 0)
(-5.41283e-11 -1.37387e-09 0)
(1.63357e-09 -7.47426e-10 0)
(-4.28065e-10 3.2697e-10 0)
(-1.93189e-10 1.10575e-10 0)
(3.04878e-11 1.81837e-12 0)
(-1.44797e-10 1.33644e-10 0)
(-7.30475e-11 2.01325e-10 0)
(1.06735e-10 1.25943e-10 0)
(1.67319e-10 2.85299e-11 0)
(1.469e-10 -5.63122e-11 0)
(5.38573e-11 -1.20739e-10 0)
(-9.93487e-12 -1.50306e-10 0)
(-1.2732e-10 -1.96917e-10 0)
(-1.62229e-10 -5.10491e-11 0)
(-4.98172e-11 -4.80525e-11 0)
(7.4861e-11 6.75649e-11 0)
(1.28327e-10 9.17831e-11 0)
(1.67527e-10 -3.80543e-10 0)
(-2.48954e-10 5.10342e-10 0)
(-1.49752e-09 -3.96262e-10 0)
(-8.6346e-10 2.87984e-09 0)
(6.95972e-09 -4.64233e-10 0)
(5.57355e-10 -8.01193e-10 0)
(-5.74356e-10 -1.55067e-10 0)
(-1.0774e-10 -1.80737e-10 0)
(-6.21869e-13 -2.6036e-11 0)
(-1.57725e-11 1.08411e-10 0)
(4.01918e-11 9.08758e-11 0)
(1.07824e-10 2.30337e-11 0)
(1.36949e-10 -1.21055e-11 0)
(7.10568e-11 -2.3823e-11 0)
(1.18052e-11 -1.86225e-11 0)
(-7.41011e-11 -4.48553e-11 0)
(-1.32163e-10 -2.75993e-11 0)
(-2.80332e-11 -6.78722e-11 0)
(1.64173e-10 3.7775e-11 0)
(3.95766e-11 -3.52565e-11 0)
(2.93333e-10 -3.66886e-10 0)
(7.80593e-11 2.00122e-10 0)
(2.30215e-09 1.86008e-11 0)
(2.51225e-10 3.45901e-09 0)
(-8.23546e-09 6.17331e-11 0)
(2.22946e-10 -1.00006e-09 0)
(5.04838e-10 -1.97472e-10 0)
(1.64129e-10 -5.05537e-11 0)
(2.09053e-10 5.55842e-11 0)
(4.79138e-11 1.12918e-10 0)
(-8.14437e-12 7.41184e-11 0)
(6.45141e-11 6.81981e-12 0)
(1.31288e-10 -6.04157e-11 0)
(7.61262e-11 -9.41428e-11 0)
(2.09331e-11 -9.1018e-11 0)
(-8.36242e-11 -8.64616e-11 0)
(-1.57764e-10 -3.09901e-12 0)
)
;

boundaryField
{
    sides
    {
        type            calculated;
        value           nonuniform List<vector> 
40
(
(-2.80332e-11 0 0)
(1.64173e-10 0 0)
(3.95766e-11 0 0)
(2.93333e-10 0 0)
(7.80593e-11 0 0)
(2.30215e-09 0 0)
(2.51225e-10 0 0)
(-8.23546e-09 0 0)
(2.22946e-10 0 0)
(5.04838e-10 0 0)
(1.64129e-10 0 0)
(2.09053e-10 0 0)
(4.79138e-11 0 0)
(-8.14437e-12 0 0)
(6.45141e-11 0 0)
(1.31288e-10 0 0)
(7.61262e-11 0 0)
(2.09331e-11 0 0)
(-8.36242e-11 0 0)
(-1.57764e-10 0 0)
(-4.62468e-11 0 0)
(-1.18598e-10 0 0)
(-1.2483e-10 0 0)
(8.76929e-11 0 0)
(1.31412e-10 0 0)
(1.32352e-09 0 0)
(4.32588e-10 0 0)
(1.83413e-09 0 0)
(-1.74099e-09 0 0)
(5.6828e-10 0 0)
(4.69105e-10 0 0)
(3.81674e-10 0 0)
(9.18224e-11 0 0)
(-1.68592e-10 0 0)
(-2.32663e-10 0 0)
(-1.99053e-10 0 0)
(-8.60212e-11 0 0)
(1.55235e-11 0 0)
(1.34554e-10 0 0)
(1.60118e-10 0 0)
)
;
    }
    inlet
    {
        type            calculated;
        value           uniform (0 0 0);
    }
    outlet
    {
        type            calculated;
        value           nonuniform List<vector> 
20
(
(1.60118e-10 -1.03758e-11 0)
(1.34554e-10 -3.76507e-11 0)
(1.31991e-10 -4.8009e-11 0)
(3.90443e-11 -7.99085e-11 0)
(7.67282e-12 -1.28606e-10 0)
(1.17057e-10 -1.77205e-10 0)
(1.32882e-10 -1.91549e-10 0)
(1.88127e-10 -1.35385e-10 0)
(7.53427e-11 -1.16473e-10 0)
(-2.83327e-11 -1.21884e-10 0)
(-1.39195e-10 -1.63612e-10 0)
(-1.15831e-10 -2.16217e-10 0)
(-8.86302e-11 -2.14064e-10 0)
(3.15717e-11 -1.8013e-10 0)
(-3.76662e-11 -1.1516e-10 0)
(-4.83674e-11 -9.78941e-11 0)
(-1.08906e-10 -8.46806e-11 0)
(-1.62229e-10 -5.10491e-11 0)
(-1.32163e-10 -2.75993e-11 0)
(-1.57764e-10 -3.09901e-12 0)
)
;
    }
    frontAndBack
    {
        type            empty;
    }
}


// ************************************************************************* //
