/*--------------------------------*- C++ -*----------------------------------*\
  =========                 |
  \\      /  F ield         | OpenFOAM: The Open Source CFD Toolbox
   \\    /   O peration     | Website:  https://openfoam.org
    \\  /    A nd           | Version:  7
     \\/     M anipulation  |
\*---------------------------------------------------------------------------*/
FoamFile
{
    version     2.0;
    format      ascii;
    class       volVectorField;
    location    "73";
    object      hU;
}
// * * * * * * * * * * * * * * * * * * * * * * * * * * * * * * * * * * * * * //

dimensions      [0 2 -1 0 0 0 0];

internalField   nonuniform List<vector> 
400
(
(0.001 -8.74702e-09 0)
(0.000999999 -2.38115e-08 0)
(0.001 -3.60591e-08 0)
(0.001 -4.67615e-08 0)
(0.00100001 -5.69687e-08 0)
(0.00100001 -6.75285e-08 0)
(0.00100002 -7.81214e-08 0)
(0.00100003 -8.9164e-08 0)
(0.00100004 -9.97772e-08 0)
(0.00100006 -1.1182e-07 0)
(0.00100007 -1.2262e-07 0)
(0.0010001 -1.36179e-07 0)
(0.00100011 -1.46587e-07 0)
(0.00100015 -1.63434e-07 0)
(0.00100017 -1.72264e-07 0)
(0.00100024 -1.96389e-07 0)
(0.00100026 -2.0084e-07 0)
(0.00100038 -2.43045e-07 0)
(0.00100038 -2.3911e-07 0)
(0.00100061 -3.31758e-07 0)
(0.001 3.97273e-09 0)
(0.001 1.20859e-08 0)
(0.00100001 2.02228e-08 0)
(0.00100001 2.79506e-08 0)
(0.00100002 3.50816e-08 0)
(0.00100002 4.15599e-08 0)
(0.00100003 4.75825e-08 0)
(0.00100004 5.30179e-08 0)
(0.00100005 5.84904e-08 0)
(0.00100007 6.2328e-08 0)
(0.00100008 6.69524e-08 0)
(0.0010001 6.8538e-08 0)
(0.00100012 7.26298e-08 0)
(0.00100016 6.98128e-08 0)
(0.00100018 7.39758e-08 0)
(0.00100023 6.16284e-08 0)
(0.00100026 6.71296e-08 0)
(0.00100035 3.1735e-08 0)
(0.00100037 3.98489e-08 0)
(0.0010005 -5.45492e-08 0)
(0.001 -3.99873e-09 0)
(0.000999999 -1.31007e-08 0)
(0.001 -2.31787e-08 0)
(0.001 -3.37873e-08 0)
(0.00100001 -4.43192e-08 0)
(0.00100001 -5.50108e-08 0)
(0.00100002 -6.56592e-08 0)
(0.00100003 -7.7268e-08 0)
(0.00100004 -8.88229e-08 0)
(0.00100005 -1.02468e-07 0)
(0.00100006 -1.15211e-07 0)
(0.00100009 -1.32414e-07 0)
(0.0010001 -1.46578e-07 0)
(0.00100014 -1.70153e-07 0)
(0.00100016 -1.8528e-07 0)
(0.00100021 -2.21297e-07 0)
(0.00100023 -2.3578e-07 0)
(0.00100031 -2.97636e-07 0)
(0.00100033 -3.06144e-07 0)
(0.00100046 -4.2201e-07 0)
(0.001 -1.94824e-10 0)
(0.001 -1.68915e-10 0)
(0.00100001 4.21803e-10 0)
(0.00100001 1.11394e-09 0)
(0.00100001 1.84669e-09 0)
(0.00100002 1.79675e-09 0)
(0.00100003 1.51736e-09 0)
(0.00100004 -3.11901e-10 0)
(0.00100004 -2.37504e-09 0)
(0.00100006 -7.01502e-09 0)
(0.00100007 -1.11755e-08 0)
(0.00100009 -2.04749e-08 0)
(0.00100011 -2.72355e-08 0)
(0.00100013 -4.44078e-08 0)
(0.00100016 -5.37267e-08 0)
(0.00100019 -8.51977e-08 0)
(0.00100022 -9.56384e-08 0)
(0.00100028 -1.54763e-07 0)
(0.0010003 -1.60899e-07 0)
(0.00100039 -2.75653e-07 0)
(0.001 -2.93739e-09 0)
(0.001 -9.33714e-09 0)
(0.001 -1.64523e-08 0)
(0.001 -2.45437e-08 0)
(0.00100001 -3.31991e-08 0)
(0.00100001 -4.28874e-08 0)
(0.00100002 -5.28955e-08 0)
(0.00100002 -6.45609e-08 0)
(0.00100003 -7.64378e-08 0)
(0.00100004 -9.11674e-08 0)
(0.00100005 -1.05568e-07 0)
(0.00100007 -1.25398e-07 0)
(0.00100009 -1.42796e-07 0)
(0.00100011 -1.71077e-07 0)
(0.00100013 -1.91432e-07 0)
(0.00100016 -2.34582e-07 0)
(0.00100018 -2.55969e-07 0)
(0.00100024 -3.26668e-07 0)
(0.00100025 -3.41484e-07 0)
(0.00100033 -4.64185e-07 0)
(0.001 -2.62066e-09 0)
(0.001 -7.69856e-09 0)
(0.001 -1.24417e-08 0)
(0.00100001 -1.72087e-08 0)
(0.00100001 -2.19371e-08 0)
(0.00100001 -2.73944e-08 0)
(0.00100002 -3.32248e-08 0)
(0.00100002 -4.07861e-08 0)
(0.00100003 -4.8787e-08 0)
(0.00100004 -5.9997e-08 0)
(0.00100005 -7.11847e-08 0)
(0.00100006 -8.82174e-08 0)
(0.00100008 -1.03284e-07 0)
(0.0010001 -1.29688e-07 0)
(0.00100011 -1.48651e-07 0)
(0.00100014 -1.90647e-07 0)
(0.00100016 -2.11246e-07 0)
(0.0010002 -2.80649e-07 0)
(0.00100021 -2.94441e-07 0)
(0.00100027 -4.14682e-07 0)
(0.001 -2.95294e-09 0)
(0.001 -9.0363e-09 0)
(0.001 -1.54035e-08 0)
(0.001 -2.24736e-08 0)
(0.00100001 -3.01903e-08 0)
(0.00100001 -3.91099e-08 0)
(0.00100001 -4.88076e-08 0)
(0.00100002 -6.04666e-08 0)
(0.00100002 -7.2819e-08 0)
(0.00100003 -8.85766e-08 0)
(0.00100004 -1.04432e-07 0)
(0.00100005 -1.26371e-07 0)
(0.00100006 -1.4643e-07 0)
(0.00100007 -1.78081e-07 0)
(0.00100009 -2.02145e-07 0)
(0.00100011 -2.49574e-07 0)
(0.00100012 -2.74974e-07 0)
(0.00100015 -3.49713e-07 0)
(0.00100016 -3.67171e-07 0)
(0.00100021 -4.91898e-07 0)
(0.001 -3.25001e-09 0)
(0.001 -9.92491e-09 0)
(0.001 -1.6815e-08 0)
(0.001 -2.42304e-08 0)
(0.001 -3.20516e-08 0)
(0.00100001 -4.0848e-08 0)
(0.00100001 -5.02186e-08 0)
(0.00100001 -6.14399e-08 0)
(0.00100002 -7.33548e-08 0)
(0.00100002 -8.86804e-08 0)
(0.00100003 -1.04236e-07 0)
(0.00100004 -1.25993e-07 0)
(0.00100004 -1.46053e-07 0)
(0.00100005 -1.77756e-07 0)
(0.00100006 -2.02111e-07 0)
(0.00100008 -2.49679e-07 0)
(0.00100009 -2.75518e-07 0)
(0.00100011 -3.49973e-07 0)
(0.00100012 -3.67517e-07 0)
(0.00100015 -4.90476e-07 0)
(0.001 -3.41969e-09 0)
(0.001 -1.04247e-08 0)
(0.001 -1.76039e-08 0)
(0.001 -2.53098e-08 0)
(0.001 -3.34245e-08 0)
(0.001 -4.26471e-08 0)
(0.00100001 -5.25747e-08 0)
(0.00100001 -6.45596e-08 0)
(0.00100001 -7.74014e-08 0)
(0.00100001 -9.38367e-08 0)
(0.00100002 -1.1067e-07 0)
(0.00100002 -1.33898e-07 0)
(0.00100003 -1.55498e-07 0)
(0.00100003 -1.88984e-07 0)
(0.00100004 -2.15063e-07 0)
(0.00100005 -2.64621e-07 0)
(0.00100005 -2.92049e-07 0)
(0.00100007 -3.68514e-07 0)
(0.00100007 -3.87091e-07 0)
(0.00100009 -5.12126e-07 0)
(0.001 -3.49877e-09 0)
(0.001 -1.06645e-08 0)
(0.001 -1.79995e-08 0)
(0.001 -2.58869e-08 0)
(0.001 -3.4223e-08 0)
(0.001 -4.37199e-08 0)
(0.001 -5.39709e-08 0)
(0.001 -6.63191e-08 0)
(0.001 -7.95449e-08 0)
(0.001 -9.6375e-08 0)
(0.00100001 -1.13621e-07 0)
(0.00100001 -1.37234e-07 0)
(0.00100001 -1.59248e-07 0)
(0.00100001 -1.93097e-07 0)
(0.00100001 -2.19598e-07 0)
(0.00100002 -2.69437e-07 0)
(0.00100002 -2.97255e-07 0)
(0.00100002 -3.73769e-07 0)
(0.00100002 -3.9263e-07 0)
(0.00100003 -5.17091e-07 0)
(0.001 -3.50801e-09 0)
(0.001 -1.06637e-08 0)
(0.001 -1.80032e-08 0)
(0.000999999 -2.58766e-08 0)
(0.000999999 -3.42171e-08 0)
(0.000999999 -4.37056e-08 0)
(0.000999998 -5.39645e-08 0)
(0.000999997 -6.63141e-08 0)
(0.000999996 -7.95398e-08 0)
(0.000999995 -9.63793e-08 0)
(0.000999994 -1.13613e-07 0)
(0.000999993 -1.37221e-07 0)
(0.000999991 -1.5924e-07 0)
(0.000999989 -1.93083e-07 0)
(0.000999987 -2.19584e-07 0)
(0.000999984 -2.69437e-07 0)
(0.000999982 -2.97262e-07 0)
(0.000999978 -3.73771e-07 0)
(0.000999976 -3.92629e-07 0)
(0.00099997 -5.17088e-07 0)
(0.001 -3.43372e-09 0)
(0.001 -1.04291e-08 0)
(0.000999999 -1.76064e-08 0)
(0.000999998 -2.52918e-08 0)
(0.000999997 -3.34138e-08 0)
(0.000999996 -4.26246e-08 0)
(0.000999994 -5.25637e-08 0)
(0.000999992 -6.45585e-08 0)
(0.000999989 -7.73941e-08 0)
(0.000999986 -9.38487e-08 0)
(0.000999983 -1.10665e-07 0)
(0.000999978 -1.33872e-07 0)
(0.000999973 -1.55473e-07 0)
(0.000999967 -1.88946e-07 0)
(0.000999961 -2.15033e-07 0)
(0.000999952 -2.6461e-07 0)
(0.000999946 -2.92051e-07 0)
(0.000999934 -3.68487e-07 0)
(0.00099993 -3.87065e-07 0)
(0.000999911 -5.12073e-07 0)
(0.001 -3.25464e-09 0)
(0.001 -9.93239e-09 0)
(0.000999999 -1.68057e-08 0)
(0.000999997 -2.42315e-08 0)
(0.000999996 -3.20425e-08 0)
(0.000999993 -4.08493e-08 0)
(0.00099999 -5.02101e-08 0)
(0.000999987 -6.14585e-08 0)
(0.000999983 -7.33611e-08 0)
(0.000999977 -8.8692e-08 0)
(0.000999971 -1.0426e-07 0)
(0.000999964 -1.25999e-07 0)
(0.000999956 -1.46039e-07 0)
(0.000999945 -1.77733e-07 0)
(0.000999936 -2.02105e-07 0)
(0.000999921 -2.49687e-07 0)
(0.000999911 -2.75534e-07 0)
(0.000999889 -3.49972e-07 0)
(0.000999882 -3.67521e-07 0)
(0.000999852 -4.90467e-07 0)
(0.001 -2.94763e-09 0)
(0.000999999 -9.03439e-09 0)
(0.000999998 -1.53974e-08 0)
(0.000999996 -2.24902e-08 0)
(0.000999994 -3.01801e-08 0)
(0.000999991 -3.91312e-08 0)
(0.000999987 -4.87955e-08 0)
(0.000999982 -6.04761e-08 0)
(0.000999977 -7.28385e-08 0)
(0.000999969 -8.8562e-08 0)
(0.000999962 -1.04439e-07 0)
(0.000999951 -1.26384e-07 0)
(0.000999941 -1.46423e-07 0)
(0.000999925 -1.78048e-07 0)
(0.000999913 -2.02113e-07 0)
(0.000999891 -2.49521e-07 0)
(0.000999878 -2.74927e-07 0)
(0.000999847 -3.49627e-07 0)
(0.000999839 -3.67094e-07 0)
(0.000999792 -4.91758e-07 0)
(0.001 -2.61031e-09 0)
(0.000999999 -7.69302e-09 0)
(0.000999997 -1.2456e-08 0)
(0.000999995 -1.72175e-08 0)
(0.000999991 -2.19463e-08 0)
(0.000999987 -2.74104e-08 0)
(0.000999982 -3.32273e-08 0)
(0.000999975 -4.07601e-08 0)
(0.000999968 -4.88174e-08 0)
(0.000999959 -6.00037e-08 0)
(0.000999949 -7.11882e-08 0)
(0.000999936 -8.82462e-08 0)
(0.000999922 -1.03323e-07 0)
(0.000999903 -1.29713e-07 0)
(0.000999887 -1.48664e-07 0)
(0.000999859 -1.90639e-07 0)
(0.000999841 -2.11247e-07 0)
(0.000999802 -2.80641e-07 0)
(0.000999787 -2.94444e-07 0)
(0.000999731 -4.14665e-07 0)
(0.001 -2.92682e-09 0)
(0.001 -9.33219e-09 0)
(0.000999999 -1.64642e-08 0)
(0.000999997 -2.45242e-08 0)
(0.000999994 -3.32252e-08 0)
(0.00099999 -4.28489e-08 0)
(0.000999984 -5.29242e-08 0)
(0.000999977 -6.44788e-08 0)
(0.000999969 -7.63951e-08 0)
(0.000999958 -9.11548e-08 0)
(0.000999946 -1.0554e-07 0)
(0.00099993 -1.25375e-07 0)
(0.000999915 -1.42804e-07 0)
(0.000999891 -1.71073e-07 0)
(0.000999872 -1.91424e-07 0)
(0.000999837 -2.34526e-07 0)
(0.000999817 -2.55926e-07 0)
(0.000999764 -3.26577e-07 0)
(0.000999752 -3.41421e-07 0)
(0.00099967 -4.64027e-07 0)
(0.001 -1.85129e-10 0)
(0.000999998 -1.70908e-10 0)
(0.000999995 4.17577e-10 0)
(0.00099999 1.13554e-09 0)
(0.000999986 1.80084e-09 0)
(0.00099998 1.82451e-09 0)
(0.000999973 1.41172e-09 0)
(0.000999965 -3.08293e-10 0)
(0.000999955 -2.29003e-09 0)
(0.000999943 -6.9867e-09 0)
(0.00099993 -1.11605e-08 0)
(0.000999912 -2.0461e-08 0)
(0.000999894 -2.72441e-08 0)
(0.000999868 -4.44206e-08 0)
(0.000999845 -5.37445e-08 0)
(0.000999805 -8.51876e-08 0)
(0.000999779 -9.56287e-08 0)
(0.00099972 -1.54727e-07 0)
(0.000999698 -1.60875e-07 0)
(0.000999611 -2.75593e-07 0)
(0.001 -4.00861e-09 0)
(0.001 -1.31111e-08 0)
(0.001 -2.31677e-08 0)
(0.000999998 -3.37829e-08 0)
(0.000999995 -4.42996e-08 0)
(0.000999989 -5.50846e-08 0)
(0.000999983 -6.574e-08 0)
(0.000999974 -7.73967e-08 0)
(0.000999963 -8.87695e-08 0)
(0.00099995 -1.02443e-07 0)
(0.000999936 -1.15221e-07 0)
(0.000999915 -1.32405e-07 0)
(0.000999896 -1.4657e-07 0)
(0.000999864 -1.7014e-07 0)
(0.000999841 -1.853e-07 0)
(0.000999791 -2.21293e-07 0)
(0.000999767 -2.35804e-07 0)
(0.000999687 -2.97602e-07 0)
(0.000999671 -3.06145e-07 0)
(0.000999539 -4.21931e-07 0)
(0.001 3.93944e-09 0)
(0.000999996 1.20873e-08 0)
(0.000999991 2.02399e-08 0)
(0.000999987 2.7888e-08 0)
(0.000999982 3.51463e-08 0)
(0.000999976 4.15545e-08 0)
(0.000999968 4.78543e-08 0)
(0.000999959 5.29721e-08 0)
(0.000999948 5.8291e-08 0)
(0.000999934 6.22639e-08 0)
(0.000999919 6.69381e-08 0)
(0.000999897 6.85744e-08 0)
(0.000999878 7.26783e-08 0)
(0.000999845 6.98628e-08 0)
(0.000999819 7.39948e-08 0)
(0.000999767 6.16613e-08 0)
(0.000999738 6.71441e-08 0)
(0.000999654 3.18069e-08 0)
(0.000999629 3.9907e-08 0)
(0.000999495 -5.44207e-08 0)
(0.001 -8.76455e-09 0)
(0.001 -2.38015e-08 0)
(0.001 -3.60537e-08 0)
(0.000999997 -4.68238e-08 0)
(0.000999993 -5.69571e-08 0)
(0.000999986 -6.74744e-08 0)
(0.000999979 -7.78589e-08 0)
(0.000999968 -8.91408e-08 0)
(0.000999958 -1.00013e-07 0)
(0.000999942 -1.11922e-07 0)
(0.000999928 -1.22662e-07 0)
(0.000999903 -1.36197e-07 0)
(0.000999886 -1.46609e-07 0)
(0.000999846 -1.63466e-07 0)
(0.000999826 -1.72316e-07 0)
(0.00099976 -1.96448e-07 0)
(0.000999742 -2.0091e-07 0)
(0.000999623 -2.43118e-07 0)
(0.000999618 -2.39185e-07 0)
(0.000999394 -3.31884e-07 0)
)
;

boundaryField
{
    sides
    {
        type            slip;
    }
    inlet
    {
        type            fixedValue;
        value           uniform (0.001 0 0);
    }
    outlet
    {
        type            zeroGradient;
    }
    frontAndBack
    {
        type            empty;
    }
}


// ************************************************************************* //
