/*--------------------------------*- C++ -*----------------------------------*\
  =========                 |
  \\      /  F ield         | OpenFOAM: The Open Source CFD Toolbox
   \\    /   O peration     | Website:  https://openfoam.org
    \\  /    A nd           | Version:  7
     \\/     M anipulation  |
\*---------------------------------------------------------------------------*/
FoamFile
{
    version     2.0;
    format      ascii;
    class       volVectorField;
    location    "73";
    object      hU_0;
}
// * * * * * * * * * * * * * * * * * * * * * * * * * * * * * * * * * * * * * //

dimensions      [0 2 -1 0 0 0 0];

internalField   nonuniform List<vector> 
400
(
(0.001 -8.7425e-09 0)
(0.000999999 -2.3808e-08 0)
(0.001 -3.60706e-08 0)
(0.001 -4.67532e-08 0)
(0.00100001 -5.69288e-08 0)
(0.00100001 -6.74872e-08 0)
(0.00100002 -7.8153e-08 0)
(0.00100003 -8.90567e-08 0)
(0.00100004 -9.97937e-08 0)
(0.00100006 -1.1187e-07 0)
(0.00100007 -1.2265e-07 0)
(0.0010001 -1.36194e-07 0)
(0.00100011 -1.46589e-07 0)
(0.00100015 -1.63431e-07 0)
(0.00100017 -1.7226e-07 0)
(0.00100024 -1.96383e-07 0)
(0.00100026 -2.00831e-07 0)
(0.00100038 -2.43036e-07 0)
(0.00100038 -2.391e-07 0)
(0.00100061 -3.31757e-07 0)
(0.001 3.9792e-09 0)
(0.001 1.20827e-08 0)
(0.00100001 2.01978e-08 0)
(0.00100001 2.79415e-08 0)
(0.00100002 3.5116e-08 0)
(0.00100002 4.15628e-08 0)
(0.00100003 4.75829e-08 0)
(0.00100004 5.31462e-08 0)
(0.00100005 5.84457e-08 0)
(0.00100007 6.22798e-08 0)
(0.00100008 6.69192e-08 0)
(0.0010001 6.85206e-08 0)
(0.00100012 7.26319e-08 0)
(0.00100016 6.98219e-08 0)
(0.00100018 7.39812e-08 0)
(0.00100023 6.16305e-08 0)
(0.00100026 6.71324e-08 0)
(0.00100035 3.17371e-08 0)
(0.00100037 3.98528e-08 0)
(0.0010005 -5.45465e-08 0)
(0.001 -3.99946e-09 0)
(0.000999999 -1.31023e-08 0)
(0.001 -2.31735e-08 0)
(0.001 -3.37916e-08 0)
(0.00100001 -4.43024e-08 0)
(0.00100001 -5.50352e-08 0)
(0.00100002 -6.55843e-08 0)
(0.00100003 -7.72977e-08 0)
(0.00100004 -8.88469e-08 0)
(0.00100005 -1.02456e-07 0)
(0.00100006 -1.15218e-07 0)
(0.00100009 -1.32427e-07 0)
(0.0010001 -1.46585e-07 0)
(0.00100014 -1.70157e-07 0)
(0.00100016 -1.85282e-07 0)
(0.00100021 -2.21292e-07 0)
(0.00100023 -2.35768e-07 0)
(0.00100031 -2.97624e-07 0)
(0.00100033 -3.06128e-07 0)
(0.00100046 -4.22005e-07 0)
(0.001 -2.01281e-10 0)
(0.001 -1.68665e-10 0)
(0.00100001 4.39276e-10 0)
(0.00100001 1.1187e-09 0)
(0.00100001 1.85751e-09 0)
(0.00100002 1.80901e-09 0)
(0.00100003 1.54025e-09 0)
(0.00100004 -3.77626e-10 0)
(0.00100004 -2.35088e-09 0)
(0.00100006 -6.99578e-09 0)
(0.00100007 -1.11737e-08 0)
(0.00100009 -2.04725e-08 0)
(0.00100011 -2.7241e-08 0)
(0.00100013 -4.44201e-08 0)
(0.00100016 -5.37363e-08 0)
(0.00100019 -8.51959e-08 0)
(0.00100022 -9.56261e-08 0)
(0.00100028 -1.54747e-07 0)
(0.0010003 -1.60873e-07 0)
(0.00100039 -2.75644e-07 0)
(0.001 -2.94132e-09 0)
(0.001 -9.33961e-09 0)
(0.001 -1.6447e-08 0)
(0.001 -2.45339e-08 0)
(0.00100001 -3.32017e-08 0)
(0.00100001 -4.28584e-08 0)
(0.00100002 -5.29071e-08 0)
(0.00100002 -6.45502e-08 0)
(0.00100003 -7.64004e-08 0)
(0.00100004 -9.11656e-08 0)
(0.00100005 -1.0557e-07 0)
(0.00100007 -1.25397e-07 0)
(0.00100009 -1.42811e-07 0)
(0.00100011 -1.71098e-07 0)
(0.00100013 -1.91444e-07 0)
(0.00100016 -2.34581e-07 0)
(0.00100018 -2.55957e-07 0)
(0.00100024 -3.26649e-07 0)
(0.00100025 -3.41449e-07 0)
(0.00100033 -4.6417e-07 0)
(0.001 -2.62008e-09 0)
(0.001 -7.69469e-09 0)
(0.001 -1.24374e-08 0)
(0.00100001 -1.71825e-08 0)
(0.00100001 -2.19267e-08 0)
(0.00100001 -2.73551e-08 0)
(0.00100002 -3.32137e-08 0)
(0.00100002 -4.07431e-08 0)
(0.00100003 -4.87702e-08 0)
(0.00100004 -6.00017e-08 0)
(0.00100005 -7.11848e-08 0)
(0.00100006 -8.82324e-08 0)
(0.00100008 -1.03317e-07 0)
(0.0010001 -1.29718e-07 0)
(0.00100011 -1.48665e-07 0)
(0.00100014 -1.90641e-07 0)
(0.00100016 -2.11222e-07 0)
(0.0010002 -2.80613e-07 0)
(0.00100021 -2.94388e-07 0)
(0.00100027 -4.14661e-07 0)
(0.001 -2.95344e-09 0)
(0.001 -9.03465e-09 0)
(0.001 -1.54048e-08 0)
(0.001 -2.24623e-08 0)
(0.00100001 -3.01728e-08 0)
(0.00100001 -3.90885e-08 0)
(0.00100001 -4.87864e-08 0)
(0.00100002 -6.04344e-08 0)
(0.00100002 -7.2817e-08 0)
(0.00100003 -8.85691e-08 0)
(0.00100004 -1.04432e-07 0)
(0.00100005 -1.26399e-07 0)
(0.00100006 -1.46464e-07 0)
(0.00100007 -1.78104e-07 0)
(0.00100009 -2.02158e-07 0)
(0.00100011 -2.4957e-07 0)
(0.00100012 -2.74947e-07 0)
(0.00100015 -3.49675e-07 0)
(0.00100016 -3.67118e-07 0)
(0.00100021 -4.91877e-07 0)
(0.001 -3.25412e-09 0)
(0.001 -9.92822e-09 0)
(0.001 -1.6809e-08 0)
(0.001 -2.42206e-08 0)
(0.001 -3.20185e-08 0)
(0.00100001 -4.08193e-08 0)
(0.00100001 -5.0179e-08 0)
(0.00100001 -6.14136e-08 0)
(0.00100002 -7.3342e-08 0)
(0.00100002 -8.86726e-08 0)
(0.00100003 -1.04256e-07 0)
(0.00100004 -1.2603e-07 0)
(0.00100004 -1.46082e-07 0)
(0.00100005 -1.7777e-07 0)
(0.00100006 -2.02119e-07 0)
(0.00100008 -2.4967e-07 0)
(0.00100009 -2.75482e-07 0)
(0.00100011 -3.49929e-07 0)
(0.00100012 -3.67466e-07 0)
(0.00100015 -4.9046e-07 0)
(0.001 -3.42562e-09 0)
(0.001 -1.0429e-08 0)
(0.001 -1.7594e-08 0)
(0.001 -2.52917e-08 0)
(0.001 -3.33922e-08 0)
(0.001 -4.2613e-08 0)
(0.00100001 -5.25334e-08 0)
(0.00100001 -6.45351e-08 0)
(0.00100001 -7.7378e-08 0)
(0.00100001 -9.38352e-08 0)
(0.00100002 -1.10692e-07 0)
(0.00100002 -1.3392e-07 0)
(0.00100003 -1.55519e-07 0)
(0.00100003 -1.89e-07 0)
(0.00100004 -2.15069e-07 0)
(0.00100005 -2.64609e-07 0)
(0.00100005 -2.92016e-07 0)
(0.00100007 -3.68477e-07 0)
(0.00100007 -3.87047e-07 0)
(0.00100009 -5.12113e-07 0)
(0.001 -3.50034e-09 0)
(0.001 -1.06636e-08 0)
(0.001 -1.79912e-08 0)
(0.001 -2.58676e-08 0)
(0.001 -3.41955e-08 0)
(0.001 -4.36857e-08 0)
(0.001 -5.39332e-08 0)
(0.001 -6.62929e-08 0)
(0.001 -7.95224e-08 0)
(0.001 -9.6375e-08 0)
(0.00100001 -1.13636e-07 0)
(0.00100001 -1.3725e-07 0)
(0.00100001 -1.59272e-07 0)
(0.00100001 -1.93119e-07 0)
(0.00100001 -2.19605e-07 0)
(0.00100002 -2.69424e-07 0)
(0.00100002 -2.97224e-07 0)
(0.00100002 -3.73737e-07 0)
(0.00100002 -3.92587e-07 0)
(0.00100003 -5.17077e-07 0)
(0.001 -3.50137e-09 0)
(0.001 -1.06597e-08 0)
(0.001 -1.7997e-08 0)
(0.000999999 -2.58653e-08 0)
(0.000999999 -3.41946e-08 0)
(0.000999999 -4.36768e-08 0)
(0.000999998 -5.39333e-08 0)
(0.000999997 -6.62865e-08 0)
(0.000999996 -7.95242e-08 0)
(0.000999995 -9.63712e-08 0)
(0.000999994 -1.13618e-07 0)
(0.000999993 -1.37241e-07 0)
(0.000999991 -1.59267e-07 0)
(0.000999989 -1.93106e-07 0)
(0.000999987 -2.19599e-07 0)
(0.000999984 -2.69433e-07 0)
(0.000999982 -2.97236e-07 0)
(0.000999978 -3.73736e-07 0)
(0.000999976 -3.92579e-07 0)
(0.00099997 -5.1707e-07 0)
(0.001 -3.42778e-09 0)
(0.001 -1.04241e-08 0)
(0.000999999 -1.76026e-08 0)
(0.000999998 -2.52798e-08 0)
(0.000999997 -3.33922e-08 0)
(0.000999996 -4.25961e-08 0)
(0.000999994 -5.25386e-08 0)
(0.000999992 -6.45291e-08 0)
(0.000999989 -7.73841e-08 0)
(0.000999986 -9.38369e-08 0)
(0.000999983 -1.10661e-07 0)
(0.000999978 -1.33891e-07 0)
(0.000999973 -1.55504e-07 0)
(0.000999967 -1.88973e-07 0)
(0.000999961 -2.15052e-07 0)
(0.000999952 -2.64609e-07 0)
(0.000999946 -2.92026e-07 0)
(0.000999934 -3.6845e-07 0)
(0.00099993 -3.87007e-07 0)
(0.000999911 -5.12049e-07 0)
(0.001 -3.25869e-09 0)
(0.001 -9.93198e-09 0)
(0.000999999 -1.68023e-08 0)
(0.000999997 -2.42072e-08 0)
(0.000999996 -3.20204e-08 0)
(0.000999993 -4.08118e-08 0)
(0.000999991 -5.01864e-08 0)
(0.000999987 -6.14281e-08 0)
(0.000999983 -7.33485e-08 0)
(0.000999977 -8.86931e-08 0)
(0.000999971 -1.04259e-07 0)
(0.000999964 -1.26011e-07 0)
(0.000999956 -1.46071e-07 0)
(0.000999945 -1.77764e-07 0)
(0.000999936 -2.02119e-07 0)
(0.000999921 -2.49677e-07 0)
(0.000999911 -2.75504e-07 0)
(0.000999889 -3.49931e-07 0)
(0.000999882 -3.67461e-07 0)
(0.000999852 -4.90443e-07 0)
(0.001 -2.96011e-09 0)
(0.000999999 -9.04183e-09 0)
(0.000999998 -1.53891e-08 0)
(0.000999996 -2.2469e-08 0)
(0.000999994 -3.01611e-08 0)
(0.000999991 -3.90968e-08 0)
(0.000999987 -4.87722e-08 0)
(0.000999982 -6.04586e-08 0)
(0.000999977 -7.2813e-08 0)
(0.000999969 -8.85666e-08 0)
(0.000999962 -1.0445e-07 0)
(0.000999951 -1.26388e-07 0)
(0.000999941 -1.46439e-07 0)
(0.000999925 -1.7807e-07 0)
(0.000999913 -2.02123e-07 0)
(0.000999891 -2.49511e-07 0)
(0.000999878 -2.74901e-07 0)
(0.000999847 -3.49592e-07 0)
(0.000999839 -3.67043e-07 0)
(0.000999792 -4.91737e-07 0)
(0.001 -2.62194e-09 0)
(0.000999999 -7.69854e-09 0)
(0.000999997 -1.24407e-08 0)
(0.000999995 -1.72054e-08 0)
(0.000999991 -2.19115e-08 0)
(0.000999987 -2.73863e-08 0)
(0.000999982 -3.31891e-08 0)
(0.000999975 -4.076e-08 0)
(0.000999968 -4.87979e-08 0)
(0.000999959 -6.00006e-08 0)
(0.000999949 -7.12135e-08 0)
(0.000999936 -8.82675e-08 0)
(0.000999922 -1.0334e-07 0)
(0.000999903 -1.29726e-07 0)
(0.000999887 -1.48671e-07 0)
(0.000999859 -1.9063e-07 0)
(0.000999841 -2.11219e-07 0)
(0.000999802 -2.80606e-07 0)
(0.000999787 -2.944e-07 0)
(0.000999731 -4.14651e-07 0)
(0.001 -2.9255e-09 0)
(0.001 -9.33295e-09 0)
(0.000999999 -1.64648e-08 0)
(0.000999997 -2.45347e-08 0)
(0.000999994 -3.32029e-08 0)
(0.00099999 -4.28616e-08 0)
(0.000999984 -5.28806e-08 0)
(0.000999977 -6.44819e-08 0)
(0.000999969 -7.64077e-08 0)
(0.000999958 -9.11505e-08 0)
(0.000999946 -1.05556e-07 0)
(0.00099993 -1.25401e-07 0)
(0.000999915 -1.4282e-07 0)
(0.000999891 -1.7108e-07 0)
(0.000999872 -1.9143e-07 0)
(0.000999837 -2.34525e-07 0)
(0.000999817 -2.5591e-07 0)
(0.000999764 -3.26556e-07 0)
(0.000999752 -3.41392e-07 0)
(0.00099967 -4.64017e-07 0)
(0.001 -1.72049e-10 0)
(0.000999998 -1.621e-10 0)
(0.000999995 4.11027e-10 0)
(0.00099999 1.13155e-09 0)
(0.000999986 1.82333e-09 0)
(0.00099998 1.8277e-09 0)
(0.000999973 1.47343e-09 0)
(0.000999965 -2.54846e-10 0)
(0.000999955 -2.30644e-09 0)
(0.000999943 -6.99175e-09 0)
(0.00099993 -1.11705e-08 0)
(0.000999912 -2.04847e-08 0)
(0.000999894 -2.72656e-08 0)
(0.000999868 -4.44315e-08 0)
(0.000999845 -5.37503e-08 0)
(0.000999805 -8.51852e-08 0)
(0.000999779 -9.56142e-08 0)
(0.00099972 -1.54708e-07 0)
(0.000999698 -1.60849e-07 0)
(0.000999611 -2.75585e-07 0)
(0.001 -4.00893e-09 0)
(0.001 -1.31078e-08 0)
(0.001 -2.31711e-08 0)
(0.000999998 -3.37687e-08 0)
(0.000999995 -4.42974e-08 0)
(0.000999989 -5.50315e-08 0)
(0.000999983 -6.57378e-08 0)
(0.000999973 -7.72312e-08 0)
(0.000999963 -8.8763e-08 0)
(0.00099995 -1.02455e-07 0)
(0.000999936 -1.15224e-07 0)
(0.000999915 -1.32416e-07 0)
(0.000999896 -1.46589e-07 0)
(0.000999864 -1.70153e-07 0)
(0.000999841 -1.85304e-07 0)
(0.000999791 -2.21289e-07 0)
(0.000999767 -2.35792e-07 0)
(0.000999687 -2.97588e-07 0)
(0.000999671 -3.06125e-07 0)
(0.000999539 -4.21925e-07 0)
(0.001 3.93244e-09 0)
(0.000999996 1.20779e-08 0)
(0.000999991 2.02467e-08 0)
(0.000999987 2.79147e-08 0)
(0.000999982 3.5106e-08 0)
(0.000999976 4.15771e-08 0)
(0.000999969 4.77321e-08 0)
(0.000999959 5.28225e-08 0)
(0.000999948 5.83452e-08 0)
(0.000999934 6.22854e-08 0)
(0.000999919 6.69567e-08 0)
(0.000999897 6.85817e-08 0)
(0.000999878 7.26711e-08 0)
(0.000999845 6.98538e-08 0)
(0.000999819 7.39914e-08 0)
(0.000999767 6.16616e-08 0)
(0.000999738 6.71459e-08 0)
(0.000999654 3.18087e-08 0)
(0.000999629 3.99125e-08 0)
(0.000999496 -5.44171e-08 0)
(0.001 -8.76345e-09 0)
(0.001 -2.3805e-08 0)
(0.001 -3.60402e-08 0)
(0.000999997 -4.67982e-08 0)
(0.000999993 -5.69728e-08 0)
(0.000999986 -6.74775e-08 0)
(0.000999978 -7.79377e-08 0)
(0.000999968 -8.94013e-08 0)
(0.000999958 -9.99664e-08 0)
(0.000999942 -1.11896e-07 0)
(0.000999928 -1.22653e-07 0)
(0.000999903 -1.36199e-07 0)
(0.000999886 -1.46618e-07 0)
(0.000999846 -1.63474e-07 0)
(0.000999826 -1.72318e-07 0)
(0.00099976 -1.96443e-07 0)
(0.000999742 -2.00901e-07 0)
(0.000999623 -2.43109e-07 0)
(0.000999618 -2.39175e-07 0)
(0.000999394 -3.31883e-07 0)
)
;

boundaryField
{
    sides
    {
        type            slip;
    }
    inlet
    {
        type            fixedValue;
        value           uniform (0.001 0 0);
    }
    outlet
    {
        type            zeroGradient;
    }
    frontAndBack
    {
        type            empty;
    }
}


// ************************************************************************* //
