/*--------------------------------*- C++ -*----------------------------------*\
  =========                 |
  \\      /  F ield         | OpenFOAM: The Open Source CFD Toolbox
   \\    /   O peration     | Website:  https://openfoam.org
    \\  /    A nd           | Version:  7
     \\/     M anipulation  |
\*---------------------------------------------------------------------------*/
FoamFile
{
    version     2.0;
    format      ascii;
    class       volVectorField;
    location    "24";
    object      ddtCorrDdt0(hU);
}
// * * * * * * * * * * * * * * * * * * * * * * * * * * * * * * * * * * * * * //

dimensions      [0 2 -2 0 0 0 0];

internalField   nonuniform List<vector> 
400
(
(1.10726e-09 -2.09305e-10 0)
(-1.10388e-09 -9.89175e-10 0)
(-3.48036e-09 -2.75024e-09 0)
(-8.3148e-10 -5.25162e-09 0)
(4.18868e-09 -7.15924e-09 0)
(6.91473e-09 -6.22079e-09 0)
(8.55317e-09 -2.13276e-09 0)
(8.84155e-09 3.38722e-09 0)
(7.19254e-09 7.32906e-09 0)
(1.85628e-09 7.75565e-09 0)
(-5.08099e-09 5.38517e-09 0)
(-1.02663e-08 1.98537e-09 0)
(-1.37264e-08 -1.4944e-09 0)
(-1.39034e-08 -4.61681e-09 0)
(-1.20063e-08 -5.8231e-09 0)
(-8.68228e-09 -6.59342e-09 0)
(-2.68184e-09 -4.57953e-09 0)
(-2.31142e-09 -3.20995e-09 0)
(3.7886e-09 -1.30454e-09 0)
(-4.85827e-10 3.18047e-09 0)
(6.0632e-10 1.68553e-09 0)
(-2.47359e-09 3.11511e-09 0)
(-5.07591e-09 1.07565e-09 0)
(-2.20136e-09 1.24871e-09 0)
(4.33271e-09 3.30796e-09 0)
(9.8785e-09 3.02632e-09 0)
(1.2833e-08 3.01214e-10 0)
(1.41445e-08 -1.55519e-09 0)
(9.95028e-09 -8.44181e-10 0)
(2.08879e-09 1.31649e-09 0)
(-6.46976e-09 2.01196e-09 0)
(-1.25393e-08 6.8599e-10 0)
(-1.64325e-08 -2.07406e-09 0)
(-1.62004e-08 -5.57853e-09 0)
(-1.31822e-08 -6.64456e-09 0)
(-8.93063e-09 -8.00018e-09 0)
(-2.10097e-09 -6.46582e-09 0)
(-1.22757e-09 -4.9534e-09 0)
(5.02718e-09 -4.49322e-09 0)
(6.46279e-10 2.27161e-09 0)
(1.12987e-09 2.45525e-09 0)
(1.91215e-09 1.38276e-09 0)
(8.35773e-10 -4.45549e-09 0)
(5.91956e-09 -8.1557e-09 0)
(7.35695e-09 -8.53635e-09 0)
(2.76008e-09 -9.38463e-09 0)
(5.1039e-11 -7.28107e-09 0)
(1.81779e-09 -9.61933e-10 0)
(3.13714e-09 5.5175e-09 0)
(4.72967e-10 9.68205e-09 0)
(-4.39357e-09 8.80585e-09 0)
(-7.66703e-09 3.46653e-09 0)
(-9.94222e-09 -4.14977e-09 0)
(-1.02406e-08 -1.21531e-08 0)
(-9.19128e-09 -1.48866e-08 0)
(-7.19284e-09 -1.75065e-08 0)
(-2.86239e-09 -1.33584e-08 0)
(-3.0215e-09 -9.6351e-09 0)
(2.24581e-09 -6.26575e-09 0)
(-1.32343e-09 6.9883e-09 0)
(4.18302e-10 2.69454e-09 0)
(-2.94531e-09 9.53026e-11 0)
(-5.1449e-09 -6.39883e-09 0)
(2.80698e-11 -1.26341e-08 0)
(4.55309e-09 -1.81008e-08 0)
(6.58601e-09 -1.92762e-08 0)
(1.08226e-08 -1.37764e-08 0)
(1.34142e-08 -4.34077e-09 0)
(9.93282e-09 5.17452e-09 0)
(1.87456e-09 1.10659e-08 0)
(-7.09011e-09 1.024e-08 0)
(-1.299e-08 3.72023e-09 0)
(-1.60492e-08 -5.88783e-09 0)
(-1.50063e-08 -1.63857e-08 0)
(-1.17018e-08 -2.02182e-08 0)
(-7.33179e-09 -2.40625e-08 0)
(-8.64648e-10 -1.87106e-08 0)
(4.53485e-12 -1.37918e-08 0)
(6.27995e-09 -9.8801e-09 0)
(1.57052e-09 8.33998e-09 0)
(5.27765e-10 2.27462e-09 0)
(1.25235e-09 -3.04068e-10 0)
(9.685e-10 -6.79647e-09 0)
(2.23061e-09 -1.3306e-08 0)
(3.23201e-09 -1.90721e-08 0)
(2.47191e-09 -1.91046e-08 0)
(3.87508e-10 -1.46974e-08 0)
(9.78589e-10 -6.41751e-09 0)
(2.98557e-09 3.16397e-09 0)
(1.58392e-09 1.06697e-08 0)
(-2.21162e-09 1.1124e-08 0)
(-5.15037e-09 4.53815e-09 0)
(-7.38144e-09 -6.45266e-09 0)
(-8.01154e-09 -1.91928e-08 0)
(-7.41335e-09 -2.41942e-08 0)
(-6.29436e-09 -2.91164e-08 0)
(-3.07072e-09 -2.27702e-08 0)
(-3.16767e-09 -1.6886e-08 0)
(7.99394e-10 -1.23779e-08 0)
(-1.2634e-09 9.84349e-09 0)
(-1.73022e-10 1.75667e-10 0)
(-1.66763e-09 -5.03207e-09 0)
(-2.37809e-09 -1.42379e-08 0)
(-2.81133e-09 -2.27341e-08 0)
(3.26582e-09 -2.8557e-08 0)
(8.7879e-09 -2.9599e-08 0)
(1.04515e-08 -2.2044e-08 0)
(1.04105e-08 -7.4406e-09 0)
(6.7048e-09 6.9258e-09 0)
(-9.72077e-12 1.59426e-08 0)
(-6.86588e-09 1.52086e-08 0)
(-1.0821e-08 6.05041e-09 0)
(-1.25772e-08 -7.87966e-09 0)
(-1.13603e-08 -2.35181e-08 0)
(-8.44593e-09 -2.96033e-08 0)
(-4.62452e-09 -3.5384e-08 0)
(4.70273e-10 -2.72421e-08 0)
(1.17043e-09 -2.00011e-08 0)
(5.92286e-09 -1.39578e-08 0)
(1.83634e-09 1.27856e-08 0)
(1.39631e-10 -1.28703e-09 0)
(-7.43066e-10 -7.0411e-09 0)
(4.80356e-10 -1.45182e-08 0)
(2.38651e-09 -2.18738e-08 0)
(9.15832e-10 -2.75693e-08 0)
(1.24746e-09 -2.91596e-08 0)
(1.96702e-09 -2.42736e-08 0)
(3.0066e-09 -1.25523e-08 0)
(3.43573e-09 7.10671e-10 0)
(1.29519e-09 1.08426e-08 0)
(-1.88368e-09 1.21611e-08 0)
(-3.98138e-09 4.60731e-09 0)
(-5.60095e-09 -8.75215e-09 0)
(-6.29126e-09 -2.46615e-08 0)
(-5.90829e-09 -3.06909e-08 0)
(-4.70989e-09 -3.68834e-08 0)
(-2.00766e-09 -2.87978e-08 0)
(-1.89443e-09 -2.15754e-08 0)
(9.61583e-10 -1.62441e-08 0)
(-1.93604e-10 1.27263e-08 0)
(-5.76079e-10 -4.04228e-09 0)
(-7.95124e-10 -1.18114e-08 0)
(1.73401e-12 -1.90047e-08 0)
(-8.64392e-10 -2.86502e-08 0)
(3.39204e-09 -3.66497e-08 0)
(3.82759e-09 -3.64583e-08 0)
(4.72457e-09 -2.77952e-08 0)
(5.23396e-09 -1.1446e-08 0)
(2.85193e-09 4.91432e-09 0)
(-3.77752e-10 1.61191e-08 0)
(-3.13302e-09 1.64807e-08 0)
(-4.98437e-09 6.54811e-09 0)
(-6.40786e-09 -9.80252e-09 0)
(-6.42192e-09 -2.83324e-08 0)
(-5.37677e-09 -3.50874e-08 0)
(-3.38852e-09 -4.14669e-08 0)
(-7.30338e-11 -3.15311e-08 0)
(7.4372e-10 -2.31586e-08 0)
(3.93303e-09 -1.61345e-08 0)
(1.72406e-09 1.57682e-08 0)
(-4.61538e-10 -6.38236e-09 0)
(-5.01511e-10 -1.4788e-08 0)
(1.74508e-10 -2.15032e-08 0)
(6.77519e-10 -3.01153e-08 0)
(1.02322e-09 -3.73445e-08 0)
(1.5045e-09 -3.89067e-08 0)
(1.62248e-09 -3.05881e-08 0)
(1.93668e-09 -1.55134e-08 0)
(9.25329e-10 9.72727e-10 0)
(-7.11789e-11 1.37185e-08 0)
(-6.52849e-10 1.54195e-08 0)
(-1.44946e-09 6.27033e-09 0)
(-2.53415e-09 -9.43106e-09 0)
(-2.88918e-09 -2.77229e-08 0)
(-2.53576e-09 -3.43843e-08 0)
(-1.8624e-09 -4.11442e-08 0)
(-6.45775e-10 -3.16313e-08 0)
(-4.51597e-10 -2.36834e-08 0)
(6.18499e-10 -1.79382e-08 0)
(4.4878e-11 1.50397e-08 0)
(-2.50539e-10 -7.82983e-09 0)
(-3.56527e-10 -1.66276e-08 0)
(3.70125e-11 -2.30093e-08 0)
(1.67472e-10 -3.22177e-08 0)
(4.28713e-10 -4.02771e-08 0)
(-2.3349e-11 -4.05417e-08 0)
(9.0848e-10 -3.10935e-08 0)
(7.87599e-10 -1.4739e-08 0)
(3.73414e-10 3.0115e-09 0)
(2.32332e-10 1.62875e-08 0)
(8.18644e-11 1.73166e-08 0)
(-2.45684e-10 6.64603e-09 0)
(-1.01435e-09 -1.05485e-08 0)
(-1.60964e-09 -2.96783e-08 0)
(-1.70149e-09 -3.63518e-08 0)
(-1.28866e-09 -4.29116e-08 0)
(-3.1509e-10 -3.24114e-08 0)
(2.49104e-11 -2.38094e-08 0)
(1.32958e-09 -1.72122e-08 0)
(9.24137e-10 1.65077e-08 0)
(2.50048e-10 -7.83224e-09 0)
(3.57502e-10 -1.66239e-08 0)
(-3.24667e-11 -2.30038e-08 0)
(-1.66692e-10 -3.22097e-08 0)
(-4.2334e-10 -4.02743e-08 0)
(3.32172e-11 -4.05407e-08 0)
(-8.93828e-10 -3.10923e-08 0)
(-7.67748e-10 -1.47383e-08 0)
(-3.51822e-10 3.01101e-09 0)
(-2.1238e-10 1.62859e-08 0)
(-6.49121e-11 1.73151e-08 0)
(2.61767e-10 6.64664e-09 0)
(1.03115e-09 -1.05466e-08 0)
(1.62272e-09 -2.96757e-08 0)
(1.71176e-09 -3.6351e-08 0)
(1.29119e-09 -4.2912e-08 0)
(3.16135e-10 -3.24116e-08 0)
(-2.42732e-11 -2.38112e-08 0)
(-1.33551e-09 -1.72124e-08 0)
(-9.34535e-10 1.65068e-08 0)
(4.61665e-10 -6.38516e-09 0)
(5.08475e-10 -1.47817e-08 0)
(-1.61857e-10 -2.14981e-08 0)
(-6.76523e-10 -3.01106e-08 0)
(-1.02351e-09 -3.73412e-08 0)
(-1.49471e-09 -3.89042e-08 0)
(-1.60853e-09 -3.05846e-08 0)
(-1.91957e-09 -1.55094e-08 0)
(-9.06161e-10 9.75353e-10 0)
(9.16338e-11 1.37174e-08 0)
(6.73355e-10 1.54157e-08 0)
(1.46928e-09 6.26808e-09 0)
(2.55179e-09 -9.43305e-09 0)
(2.90086e-09 -2.77212e-08 0)
(2.54512e-09 -3.43854e-08 0)
(1.86434e-09 -4.11445e-08 0)
(6.46035e-10 -3.16269e-08 0)
(4.48916e-10 -2.36836e-08 0)
(-6.26189e-10 -1.79211e-08 0)
(-5.38488e-11 1.50474e-08 0)
(5.75703e-10 -4.04121e-09 0)
(8.04432e-10 -1.18109e-08 0)
(-1.45136e-12 -1.9e-08 0)
(8.72107e-10 -2.86425e-08 0)
(-3.37895e-09 -3.66491e-08 0)
(-3.81348e-09 -3.64599e-08 0)
(-4.70903e-09 -2.77936e-08 0)
(-5.21646e-09 -1.14421e-08 0)
(-2.83404e-09 4.91761e-09 0)
(3.97363e-10 1.6119e-08 0)
(3.15367e-09 1.64764e-08 0)
(5.00313e-09 6.54398e-09 0)
(6.42259e-09 -9.80818e-09 0)
(6.43003e-09 -2.83337e-08 0)
(5.38397e-09 -3.50921e-08 0)
(3.3912e-09 -4.14711e-08 0)
(7.74516e-11 -3.15254e-08 0)
(-7.40263e-10 -2.31591e-08 0)
(-3.9363e-09 -1.61108e-08 0)
(-1.73e-09 1.57825e-08 0)
(-1.41143e-10 -1.28759e-09 0)
(7.42733e-10 -7.04095e-09 0)
(-4.59628e-10 -1.45088e-08 0)
(-2.37742e-09 -2.18722e-08 0)
(-9.16732e-10 -2.75669e-08 0)
(-1.2314e-09 -2.91607e-08 0)
(-1.94958e-09 -2.42746e-08 0)
(-2.9932e-09 -1.25512e-08 0)
(-3.42261e-09 7.12641e-10 0)
(-1.27737e-09 1.08413e-08 0)
(1.904e-09 1.21548e-08 0)
(4.00113e-09 4.60159e-09 0)
(5.61776e-09 -8.75652e-09 0)
(6.30214e-09 -2.46547e-08 0)
(5.91923e-09 -3.06872e-08 0)
(4.71581e-09 -3.68777e-08 0)
(2.01379e-09 -2.87879e-08 0)
(1.89478e-09 -2.15766e-08 0)
(-9.68944e-10 -1.62191e-08 0)
(1.86296e-10 1.2731e-08 0)
(1.70222e-10 1.72658e-10 0)
(1.67347e-09 -5.03128e-09 0)
(2.37203e-09 -1.42264e-08 0)
(2.8248e-09 -2.2732e-08 0)
(-3.2401e-09 -2.8557e-08 0)
(-8.77429e-09 -2.96033e-08 0)
(-1.04349e-08 -2.20451e-08 0)
(-1.03914e-08 -7.43688e-09 0)
(-6.68518e-09 6.9317e-09 0)
(3.10071e-11 1.59443e-08 0)
(6.88431e-09 1.52029e-08 0)
(1.08356e-08 6.04346e-09 0)
(1.25889e-08 -7.8905e-09 0)
(1.13671e-08 -2.35222e-08 0)
(8.45352e-09 -2.96101e-08 0)
(4.62554e-09 -3.53896e-08 0)
(-4.65706e-10 -2.72313e-08 0)
(-1.16962e-09 -2.00016e-08 0)
(-5.92311e-09 -1.3922e-08 0)
(-1.83062e-09 1.28098e-08 0)
(-5.31604e-10 2.26891e-09 0)
(-1.24622e-09 -2.99933e-10 0)
(-9.5462e-10 -6.78721e-09 0)
(-2.22471e-09 -1.32891e-08 0)
(-3.22387e-09 -1.9073e-08 0)
(-2.45048e-09 -1.91101e-08 0)
(-3.66027e-10 -1.47031e-08 0)
(-9.63019e-10 -6.42347e-09 0)
(-2.97492e-09 3.16125e-09 0)
(-1.57247e-09 1.06655e-08 0)
(2.22457e-09 1.11174e-08 0)
(5.16382e-09 4.53489e-09 0)
(7.39596e-09 -6.45352e-09 0)
(8.02484e-09 -1.91805e-08 0)
(7.42928e-09 -2.41864e-08 0)
(6.30582e-09 -2.91066e-08 0)
(3.08262e-09 -2.27573e-08 0)
(3.17386e-09 -1.68869e-08 0)
(-8.00642e-10 -1.23499e-08 0)
(1.26193e-09 9.84618e-09 0)
(-4.1924e-10 2.69296e-09 0)
(2.94739e-09 1.01673e-10 0)
(5.15358e-09 -6.38877e-09 0)
(-2.46609e-11 -1.26222e-08 0)
(-4.54005e-09 -1.80893e-08 0)
(-6.58001e-09 -1.92774e-08 0)
(-1.08062e-08 -1.37757e-08 0)
(-1.33956e-08 -4.33806e-09 0)
(-9.91549e-09 5.18184e-09 0)
(-1.8573e-09 1.10678e-08 0)
(7.1055e-09 1.02333e-08 0)
(1.30032e-08 3.71354e-09 0)
(1.60604e-08 -5.89678e-09 0)
(1.50145e-08 -1.6387e-08 0)
(1.17136e-08 -2.02236e-08 0)
(7.33378e-09 -2.40646e-08 0)
(8.72401e-10 -1.86949e-08 0)
(-3.48918e-12 -1.37877e-08 0)
(-6.27707e-09 -9.8402e-09 0)
(-1.55524e-09 8.36311e-09 0)
(-1.12838e-09 2.45539e-09 0)
(-1.90906e-09 1.3861e-09 0)
(-8.15506e-10 -4.4472e-09 0)
(-5.88943e-09 -8.1557e-09 0)
(-7.35611e-09 -8.53495e-09 0)
(-2.75251e-09 -9.38307e-09 0)
(-3.99938e-11 -7.28341e-09 0)
(-1.80245e-09 -9.65199e-10 0)
(-3.11888e-09 5.51172e-09 0)
(-4.62431e-10 9.68232e-09 0)
(4.40453e-09 8.80874e-09 0)
(7.68051e-09 3.47341e-09 0)
(9.95712e-09 -4.1425e-09 0)
(1.0254e-08 -1.21397e-08 0)
(9.20623e-09 -1.48788e-08 0)
(7.20016e-09 -1.74989e-08 0)
(2.87101e-09 -1.3348e-08 0)
(3.02372e-09 -9.63537e-09 0)
(-2.24597e-09 -6.2473e-09 0)
(1.33042e-09 6.98895e-09 0)
(-6.06891e-10 1.6825e-09 0)
(2.47966e-09 3.11751e-09 0)
(5.08371e-09 1.07657e-09 0)
(2.21759e-09 1.244e-09 0)
(-4.30552e-09 3.29708e-09 0)
(-9.85465e-09 3.02972e-09 0)
(-1.28161e-08 3.07322e-10 0)
(-1.41379e-08 -1.54144e-09 0)
(-9.93922e-09 -8.34589e-10 0)
(-2.07605e-09 1.31707e-09 0)
(6.47892e-09 2.00914e-09 0)
(1.25486e-08 6.82907e-10 0)
(1.64414e-08 -2.07921e-09 0)
(1.62099e-08 -5.57723e-09 0)
(1.3199e-08 -6.64591e-09 0)
(8.94146e-09 -7.99641e-09 0)
(2.11813e-09 -6.45131e-09 0)
(1.23546e-09 -4.9462e-09 0)
(-5.01455e-09 -4.46639e-09 0)
(-6.31482e-10 2.28e-09 0)
(-1.10768e-09 -2.08857e-10 0)
(1.10962e-09 -9.87389e-10 0)
(3.48878e-09 -2.74961e-09 0)
(8.4713e-10 -5.25059e-09 0)
(-4.16484e-09 -7.15964e-09 0)
(-6.89405e-09 -6.22175e-09 0)
(-8.53416e-09 -2.13316e-09 0)
(-8.81806e-09 3.39212e-09 0)
(-7.18148e-09 7.34126e-09 0)
(-1.83772e-09 7.76246e-09 0)
(5.09896e-09 5.39132e-09 0)
(1.02782e-08 1.99116e-09 0)
(1.37341e-08 -1.49188e-09 0)
(1.39082e-08 -4.61613e-09 0)
(1.20152e-08 -5.82567e-09 0)
(8.67984e-09 -6.59804e-09 0)
(2.68468e-09 -4.57651e-09 0)
(2.30978e-09 -3.2125e-09 0)
(-3.78747e-09 -1.29957e-09 0)
(5.03427e-10 3.18992e-09 0)
)
;

boundaryField
{
    sides
    {
        type            calculated;
        value           nonuniform List<vector> 
40
(
(-1.10768e-09 0 0)
(1.10962e-09 0 0)
(3.48878e-09 0 0)
(8.4713e-10 0 0)
(-4.16484e-09 0 0)
(-6.89405e-09 0 0)
(-8.53416e-09 0 0)
(-8.81806e-09 0 0)
(-7.18148e-09 0 0)
(-1.83772e-09 0 0)
(5.09896e-09 0 0)
(1.02782e-08 0 0)
(1.37341e-08 0 0)
(1.39082e-08 0 0)
(1.20152e-08 0 0)
(8.67984e-09 0 0)
(2.68468e-09 0 0)
(2.30978e-09 0 0)
(-3.78747e-09 0 0)
(5.03427e-10 0 0)
(1.10726e-09 0 0)
(-1.10388e-09 0 0)
(-3.48036e-09 0 0)
(-8.3148e-10 0 0)
(4.18868e-09 0 0)
(6.91473e-09 0 0)
(8.55317e-09 0 0)
(8.84155e-09 0 0)
(7.19254e-09 0 0)
(1.85628e-09 0 0)
(-5.08099e-09 0 0)
(-1.02663e-08 0 0)
(-1.37264e-08 0 0)
(-1.39034e-08 0 0)
(-1.20063e-08 0 0)
(-8.68228e-09 0 0)
(-2.68184e-09 0 0)
(-2.31142e-09 0 0)
(3.7886e-09 0 0)
(-4.85827e-10 0 0)
)
;
    }
    inlet
    {
        type            calculated;
        value           uniform (0 0 0);
    }
    outlet
    {
        type            calculated;
        value           nonuniform List<vector> 
20
(
(-4.85827e-10 3.18047e-09 0)
(6.46279e-10 2.27161e-09 0)
(-1.32343e-09 6.9883e-09 0)
(1.57052e-09 8.33998e-09 0)
(-1.2634e-09 9.84349e-09 0)
(1.83634e-09 1.27856e-08 0)
(-1.93604e-10 1.27263e-08 0)
(1.72406e-09 1.57682e-08 0)
(4.4878e-11 1.50397e-08 0)
(9.24137e-10 1.65077e-08 0)
(-9.34535e-10 1.65068e-08 0)
(-5.38488e-11 1.50474e-08 0)
(-1.73e-09 1.57825e-08 0)
(1.86296e-10 1.2731e-08 0)
(-1.83062e-09 1.28098e-08 0)
(1.26193e-09 9.84618e-09 0)
(-1.55524e-09 8.36311e-09 0)
(1.33042e-09 6.98895e-09 0)
(-6.31482e-10 2.28e-09 0)
(5.03427e-10 3.18992e-09 0)
)
;
    }
    frontAndBack
    {
        type            empty;
    }
}


// ************************************************************************* //
