/*--------------------------------*- C++ -*----------------------------------*\
  =========                 |
  \\      /  F ield         | OpenFOAM: The Open Source CFD Toolbox
   \\    /   O peration     | Website:  https://openfoam.org
    \\  /    A nd           | Version:  7
     \\/     M anipulation  |
\*---------------------------------------------------------------------------*/
FoamFile
{
    version     2.0;
    format      ascii;
    class       volVectorField;
    location    "24";
    object      hU;
}
// * * * * * * * * * * * * * * * * * * * * * * * * * * * * * * * * * * * * * //

dimensions      [0 2 -1 0 0 0 0];

internalField   nonuniform List<vector> 
400
(
(0.000999999 -8.8105e-09 0)
(0.000999999 -2.39891e-08 0)
(0.001 -3.55654e-08 0)
(0.00100001 -4.44556e-08 0)
(0.00100002 -5.1693e-08 0)
(0.00100002 -5.88906e-08 0)
(0.00100003 -6.68282e-08 0)
(0.00100003 -7.76438e-08 0)
(0.00100004 -9.12847e-08 0)
(0.00100005 -1.07835e-07 0)
(0.00100006 -1.22881e-07 0)
(0.00100009 -1.3907e-07 0)
(0.00100011 -1.50693e-07 0)
(0.00100015 -1.66658e-07 0)
(0.00100018 -1.73607e-07 0)
(0.00100024 -1.95209e-07 0)
(0.00100026 -1.96625e-07 0)
(0.00100037 -2.38395e-07 0)
(0.00100038 -2.31897e-07 0)
(0.00100059 -3.27081e-07 0)
(0.000999999 3.94993e-09 0)
(0.001 1.08353e-08 0)
(0.00100002 1.82486e-08 0)
(0.00100002 2.59523e-08 0)
(0.00100003 3.3458e-08 0)
(0.00100003 4.03787e-08 0)
(0.00100004 4.71951e-08 0)
(0.00100004 5.36504e-08 0)
(0.00100005 5.98893e-08 0)
(0.00100006 6.31378e-08 0)
(0.00100007 6.54191e-08 0)
(0.0010001 6.45158e-08 0)
(0.00100012 6.64634e-08 0)
(0.00100016 6.36515e-08 0)
(0.00100019 6.91992e-08 0)
(0.00100024 5.89128e-08 0)
(0.00100027 6.84994e-08 0)
(0.00100035 3.38256e-08 0)
(0.00100037 4.6409e-08 0)
(0.00100049 -4.88935e-08 0)
(0.000999999 -4.40369e-09 0)
(0.001 -1.50864e-08 0)
(0.001 -2.49129e-08 0)
(0.00100001 -3.29964e-08 0)
(0.00100001 -3.95564e-08 0)
(0.00100001 -4.56694e-08 0)
(0.00100002 -5.22254e-08 0)
(0.00100003 -6.31249e-08 0)
(0.00100003 -7.75331e-08 0)
(0.00100005 -9.70231e-08 0)
(0.00100006 -1.17472e-07 0)
(0.00100008 -1.40865e-07 0)
(0.0010001 -1.58957e-07 0)
(0.00100014 -1.81251e-07 0)
(0.00100016 -1.92283e-07 0)
(0.00100021 -2.22806e-07 0)
(0.00100023 -2.28835e-07 0)
(0.00100031 -2.89146e-07 0)
(0.00100032 -2.89279e-07 0)
(0.00100044 -4.09495e-07 0)
(0.000999999 -9.30502e-10 0)
(0.001 -3.52725e-09 0)
(0.00100001 -3.09938e-09 0)
(0.00100002 7.32497e-11 0)
(0.00100003 5.44215e-09 0)
(0.00100003 1.1405e-08 0)
(0.00100003 1.64745e-08 0)
(0.00100003 1.66352e-08 0)
(0.00100004 1.14763e-08 0)
(0.00100005 -7.50837e-10 0)
(0.00100006 -1.4938e-08 0)
(0.00100008 -3.22578e-08 0)
(0.0010001 -4.42814e-08 0)
(0.00100013 -5.994e-08 0)
(0.00100016 -6.40486e-08 0)
(0.0010002 -8.85047e-08 0)
(0.00100023 -8.77797e-08 0)
(0.00100028 -1.44952e-07 0)
(0.0010003 -1.39659e-07 0)
(0.00100038 -2.59426e-07 0)
(0.000999999 -3.78568e-09 0)
(0.001 -1.32716e-08 0)
(0.001 -2.09854e-08 0)
(0.00100001 -2.6899e-08 0)
(0.00100001 -3.10711e-08 0)
(0.00100001 -3.46601e-08 0)
(0.00100002 -3.92059e-08 0)
(0.00100003 -4.85824e-08 0)
(0.00100003 -6.30482e-08 0)
(0.00100004 -8.53946e-08 0)
(0.00100005 -1.10988e-07 0)
(0.00100007 -1.40279e-07 0)
(0.00100008 -1.64105e-07 0)
(0.00100011 -1.90694e-07 0)
(0.00100013 -2.04778e-07 0)
(0.00100016 -2.39404e-07 0)
(0.00100018 -2.47082e-07 0)
(0.00100023 -3.15186e-07 0)
(0.00100024 -3.15888e-07 0)
(0.00100032 -4.44337e-07 0)
(0.000999999 -4.0556e-09 0)
(0.001 -1.16964e-08 0)
(0.00100001 -1.61535e-08 0)
(0.00100001 -1.70925e-08 0)
(0.00100002 -1.46084e-08 0)
(0.00100002 -1.09345e-08 0)
(0.00100002 -8.81755e-09 0)
(0.00100002 -1.41778e-08 0)
(0.00100003 -2.77653e-08 0)
(0.00100003 -5.08905e-08 0)
(0.00100004 -7.74929e-08 0)
(0.00100006 -1.06715e-07 0)
(0.00100008 -1.2949e-07 0)
(0.0010001 -1.53319e-07 0)
(0.00100012 -1.6412e-07 0)
(0.00100015 -1.95225e-07 0)
(0.00100016 -1.99067e-07 0)
(0.0010002 -2.65406e-07 0)
(0.00100021 -2.62368e-07 0)
(0.00100026 -3.90498e-07 0)
(0.000999999 -5.15759e-09 0)
(0.001 -1.43689e-08 0)
(0.001 -2.16782e-08 0)
(0.00100001 -2.6796e-08 0)
(0.00100001 -2.88067e-08 0)
(0.00100001 -2.97909e-08 0)
(0.00100001 -3.22046e-08 0)
(0.00100002 -4.0809e-08 0)
(0.00100002 -5.65683e-08 0)
(0.00100003 -8.2259e-08 0)
(0.00100004 -1.12632e-07 0)
(0.00100005 -1.46694e-07 0)
(0.00100006 -1.74918e-07 0)
(0.00100007 -2.04241e-07 0)
(0.00100009 -2.20042e-07 0)
(0.00100011 -2.56348e-07 0)
(0.00100012 -2.63879e-07 0)
(0.00100015 -3.35298e-07 0)
(0.00100016 -3.34201e-07 0)
(0.0010002 -4.66138e-07 0)
(0.000999999 -6.22256e-09 0)
(0.001 -1.55982e-08 0)
(0.001 -2.25078e-08 0)
(0.00100001 -2.64459e-08 0)
(0.00100001 -2.62259e-08 0)
(0.00100001 -2.42896e-08 0)
(0.00100001 -2.43716e-08 0)
(0.00100001 -3.30884e-08 0)
(0.00100001 -5.11934e-08 0)
(0.00100002 -8.01362e-08 0)
(0.00100002 -1.13698e-07 0)
(0.00100003 -1.49755e-07 0)
(0.00100004 -1.78762e-07 0)
(0.00100006 -2.07004e-07 0)
(0.00100007 -2.21116e-07 0)
(0.00100008 -2.55137e-07 0)
(0.00100009 -2.60568e-07 0)
(0.00100011 -3.31269e-07 0)
(0.00100012 -3.28523e-07 0)
(0.00100014 -4.61155e-07 0)
(0.001 -6.9488e-09 0)
(0.001 -1.6368e-08 0)
(0.001 -2.37559e-08 0)
(0.001 -2.89361e-08 0)
(0.001 -3.01482e-08 0)
(0.00100001 -2.95869e-08 0)
(0.00100001 -3.07335e-08 0)
(0.00100001 -3.96404e-08 0)
(0.00100001 -5.74162e-08 0)
(0.00100001 -8.63333e-08 0)
(0.00100002 -1.20618e-07 0)
(0.00100002 -1.58171e-07 0)
(0.00100003 -1.89273e-07 0)
(0.00100003 -2.19966e-07 0)
(0.00100004 -2.36306e-07 0)
(0.00100005 -2.72736e-07 0)
(0.00100005 -2.79357e-07 0)
(0.00100007 -3.51834e-07 0)
(0.00100007 -3.48891e-07 0)
(0.00100009 -4.82386e-07 0)
(0.001 -7.37998e-09 0)
(0.001 -1.6923e-08 0)
(0.001 -2.4602e-08 0)
(0.001 -2.99644e-08 0)
(0.001 -3.07876e-08 0)
(0.001 -2.95196e-08 0)
(0.001 -3.02405e-08 0)
(0.001 -3.94948e-08 0)
(0.001 -5.8258e-08 0)
(0.001 -8.85624e-08 0)
(0.00100001 -1.24345e-07 0)
(0.00100001 -1.62975e-07 0)
(0.00100001 -1.94581e-07 0)
(0.00100001 -2.24934e-07 0)
(0.00100001 -2.40692e-07 0)
(0.00100002 -2.76299e-07 0)
(0.00100002 -2.82385e-07 0)
(0.00100002 -3.54849e-07 0)
(0.00100002 -3.51834e-07 0)
(0.00100003 -4.85999e-07 0)
(0.001 -7.38018e-09 0)
(0.001 -1.69218e-08 0)
(0.000999999 -2.46003e-08 0)
(0.000999999 -2.99633e-08 0)
(0.000999998 -3.07874e-08 0)
(0.000999998 -2.95191e-08 0)
(0.000999998 -3.02397e-08 0)
(0.000999997 -3.94936e-08 0)
(0.000999997 -5.82565e-08 0)
(0.000999996 -8.85605e-08 0)
(0.000999995 -1.24342e-07 0)
(0.000999993 -1.62972e-07 0)
(0.000999992 -1.94579e-07 0)
(0.000999989 -2.24932e-07 0)
(0.000999987 -2.40693e-07 0)
(0.000999983 -2.76299e-07 0)
(0.000999981 -2.82387e-07 0)
(0.000999977 -3.54849e-07 0)
(0.000999976 -3.51833e-07 0)
(0.000999972 -4.85998e-07 0)
(0.001 -6.94826e-09 0)
(0.000999999 -1.63657e-08 0)
(0.000999998 -2.37546e-08 0)
(0.000999996 -2.89355e-08 0)
(0.000999995 -3.01478e-08 0)
(0.000999995 -2.95851e-08 0)
(0.000999993 -3.073e-08 0)
(0.000999992 -3.96358e-08 0)
(0.00099999 -5.74121e-08 0)
(0.000999988 -8.63295e-08 0)
(0.000999984 -1.20614e-07 0)
(0.000999979 -1.58164e-07 0)
(0.000999974 -1.89265e-07 0)
(0.000999967 -2.19953e-07 0)
(0.000999961 -2.36296e-07 0)
(0.000999952 -2.72713e-07 0)
(0.000999947 -2.79342e-07 0)
(0.000999935 -3.51798e-07 0)
(0.000999932 -3.48863e-07 0)
(0.000999914 -4.82345e-07 0)
(0.001 -6.22096e-09 0)
(0.000999999 -1.55952e-08 0)
(0.000999996 -2.25072e-08 0)
(0.000999993 -2.64479e-08 0)
(0.000999991 -2.62286e-08 0)
(0.00099999 -2.42899e-08 0)
(0.000999988 -2.43691e-08 0)
(0.000999987 -3.30844e-08 0)
(0.000999985 -5.119e-08 0)
(0.000999982 -8.01347e-08 0)
(0.000999976 -1.13698e-07 0)
(0.000999967 -1.49755e-07 0)
(0.000999957 -1.78764e-07 0)
(0.000999944 -2.07002e-07 0)
(0.000999934 -2.21121e-07 0)
(0.000999918 -2.55129e-07 0)
(0.000999909 -2.60572e-07 0)
(0.000999889 -3.31261e-07 0)
(0.000999884 -3.28523e-07 0)
(0.000999858 -4.61163e-07 0)
(0.001 -5.15586e-09 0)
(0.000999999 -1.43648e-08 0)
(0.000999996 -2.16755e-08 0)
(0.000999993 -2.67958e-08 0)
(0.000999992 -2.88062e-08 0)
(0.000999989 -2.97873e-08 0)
(0.000999985 -3.2198e-08 0)
(0.00099998 -4.07984e-08 0)
(0.000999977 -5.65563e-08 0)
(0.000999972 -8.22448e-08 0)
(0.000999965 -1.12616e-07 0)
(0.000999954 -1.46671e-07 0)
(0.000999943 -1.74894e-07 0)
(0.000999926 -2.04206e-07 0)
(0.000999913 -2.20018e-07 0)
(0.00099989 -2.56296e-07 0)
(0.000999878 -2.63847e-07 0)
(0.000999848 -3.35219e-07 0)
(0.000999841 -3.34141e-07 0)
(0.000999798 -4.66032e-07 0)
(0.001 -4.05482e-09 0)
(0.000999998 -1.16943e-08 0)
(0.000999992 -1.61541e-08 0)
(0.000999986 -1.70973e-08 0)
(0.000999983 -1.46145e-08 0)
(0.00099998 -1.09375e-08 0)
(0.000999978 -8.81676e-09 0)
(0.000999977 -1.41758e-08 0)
(0.000999975 -2.77656e-08 0)
(0.000999968 -5.08945e-08 0)
(0.000999958 -7.74992e-08 0)
(0.000999942 -1.06721e-07 0)
(0.000999924 -1.29498e-07 0)
(0.000999901 -1.53319e-07 0)
(0.000999883 -1.6413e-07 0)
(0.000999854 -1.95213e-07 0)
(0.000999838 -1.99071e-07 0)
(0.000999802 -2.6539e-07 0)
(0.000999792 -2.62363e-07 0)
(0.000999743 -3.90509e-07 0)
(0.001 -3.78427e-09 0)
(0.000999999 -1.32667e-08 0)
(0.000999996 -2.09821e-08 0)
(0.000999993 -2.68975e-08 0)
(0.00099999 -3.10712e-08 0)
(0.000999988 -3.46577e-08 0)
(0.000999982 -3.92008e-08 0)
(0.000999974 -4.85719e-08 0)
(0.000999968 -6.30356e-08 0)
(0.000999959 -8.53782e-08 0)
(0.000999949 -1.10971e-07 0)
(0.000999933 -1.40255e-07 0)
(0.000999917 -1.64085e-07 0)
(0.000999892 -1.90661e-07 0)
(0.000999872 -2.04764e-07 0)
(0.000999836 -2.39354e-07 0)
(0.000999817 -2.47064e-07 0)
(0.000999767 -3.15105e-07 0)
(0.000999757 -3.1584e-07 0)
(0.00099968 -4.44215e-07 0)
(0.001 -9.30192e-10 0)
(0.000999997 -3.52708e-09 0)
(0.000999988 -3.10221e-09 0)
(0.000999979 6.8126e-11 0)
(0.000999975 5.43662e-09 0)
(0.000999971 1.14027e-08 0)
(0.000999968 1.64753e-08 0)
(0.000999965 1.66365e-08 0)
(0.000999963 1.14737e-08 0)
(0.000999954 -7.56211e-10 0)
(0.000999941 -1.49444e-08 0)
(0.00099992 -3.2259e-08 0)
(0.000999897 -4.42834e-08 0)
(0.000999865 -5.99279e-08 0)
(0.00099984 -6.40457e-08 0)
(0.000999797 -8.84699e-08 0)
(0.000999774 -8.77636e-08 0)
(0.000999719 -1.44904e-07 0)
(0.000999702 -1.39626e-07 0)
(0.000999624 -2.59394e-07 0)
(0.001 -4.40227e-09 0)
(0.001 -1.5084e-08 0)
(0.000999997 -2.4913e-08 0)
(0.000999993 -3.29992e-08 0)
(0.00099999 -3.95612e-08 0)
(0.000999987 -4.56733e-08 0)
(0.000999981 -5.2229e-08 0)
(0.000999972 -6.3124e-08 0)
(0.000999965 -7.75315e-08 0)
(0.000999954 -9.70175e-08 0)
(0.000999941 -1.17471e-07 0)
(0.000999919 -1.4086e-07 0)
(0.000999899 -1.58965e-07 0)
(0.000999865 -1.81248e-07 0)
(0.000999841 -1.92305e-07 0)
(0.00099979 -2.22796e-07 0)
(0.000999768 -2.28865e-07 0)
(0.000999691 -2.89118e-07 0)
(0.000999679 -2.89295e-07 0)
(0.000999555 -4.09446e-07 0)
(0.001 3.95001e-09 0)
(0.000999995 1.08364e-08 0)
(0.000999985 1.8249e-08 0)
(0.000999975 2.59533e-08 0)
(0.000999971 3.34607e-08 0)
(0.000999967 4.03858e-08 0)
(0.000999962 4.72032e-08 0)
(0.000999958 5.36585e-08 0)
(0.000999954 5.98923e-08 0)
(0.000999944 6.31405e-08 0)
(0.000999929 6.54222e-08 0)
(0.000999905 6.45287e-08 0)
(0.000999881 6.64762e-08 0)
(0.000999842 6.36827e-08 0)
(0.000999814 6.92189e-08 0)
(0.00099976 5.89684e-08 0)
(0.000999733 6.85278e-08 0)
(0.000999653 3.39053e-08 0)
(0.000999634 4.64582e-08 0)
(0.000999509 -4.87902e-08 0)
(0.001 -8.81132e-09 0)
(0.001 -2.39926e-08 0)
(0.000999995 -3.55731e-08 0)
(0.000999988 -4.44673e-08 0)
(0.000999985 -5.17088e-08 0)
(0.00099998 -5.89078e-08 0)
(0.000999975 -6.68465e-08 0)
(0.000999967 -7.76635e-08 0)
(0.000999962 -9.13101e-08 0)
(0.000999949 -1.07866e-07 0)
(0.000999936 -1.2292e-07 0)
(0.000999909 -1.39111e-07 0)
(0.000999889 -1.50744e-07 0)
(0.000999845 -1.66708e-07 0)
(0.000999824 -1.73667e-07 0)
(0.000999755 -1.95264e-07 0)
(0.00099974 -1.96689e-07 0)
(0.000999625 -2.38466e-07 0)
(0.000999624 -2.31968e-07 0)
(0.00099941 -3.27212e-07 0)
)
;

boundaryField
{
    sides
    {
        type            slip;
    }
    inlet
    {
        type            fixedValue;
        value           uniform (0.001 0 0);
    }
    outlet
    {
        type            zeroGradient;
    }
    frontAndBack
    {
        type            empty;
    }
}


// ************************************************************************* //
