/*--------------------------------*- C++ -*----------------------------------*\
  =========                 |
  \\      /  F ield         | OpenFOAM: The Open Source CFD Toolbox
   \\    /   O peration     | Website:  https://openfoam.org
    \\  /    A nd           | Version:  7
     \\/     M anipulation  |
\*---------------------------------------------------------------------------*/
FoamFile
{
    version     2.0;
    format      ascii;
    class       volVectorField;
    location    "24";
    object      hU_0;
}
// * * * * * * * * * * * * * * * * * * * * * * * * * * * * * * * * * * * * * //

dimensions      [0 2 -1 0 0 0 0];

internalField   nonuniform List<vector> 
400
(
(0.000999999 -8.79834e-09 0)
(0.001 -2.38989e-08 0)
(0.00100001 -3.52979e-08 0)
(0.00100001 -4.39271e-08 0)
(0.00100001 -5.09622e-08 0)
(0.00100002 -5.82029e-08 0)
(0.00100002 -6.65168e-08 0)
(0.00100003 -7.78673e-08 0)
(0.00100004 -9.1952e-08 0)
(0.00100005 -1.0859e-07 0)
(0.00100006 -1.23424e-07 0)
(0.00100009 -1.39278e-07 0)
(0.00100011 -1.50555e-07 0)
(0.00100016 -1.66205e-07 0)
(0.00100018 -1.7303e-07 0)
(0.00100025 -1.94546e-07 0)
(0.00100026 -1.96147e-07 0)
(0.00100038 -2.3806e-07 0)
(0.00100038 -2.31738e-07 0)
(0.00100059 -3.27375e-07 0)
(0.000999999 3.78712e-09 0)
(0.00100001 1.05391e-08 0)
(0.00100002 1.81266e-08 0)
(0.00100003 2.5906e-08 0)
(0.00100003 3.32303e-08 0)
(0.00100003 4.01067e-08 0)
(0.00100004 4.71269e-08 0)
(0.00100004 5.37913e-08 0)
(0.00100004 5.99932e-08 0)
(0.00100006 6.30431e-08 0)
(0.00100007 6.52455e-08 0)
(0.0010001 6.44619e-08 0)
(0.00100012 6.66718e-08 0)
(0.00100016 6.42044e-08 0)
(0.00100019 6.98607e-08 0)
(0.00100024 5.97166e-08 0)
(0.00100027 6.91692e-08 0)
(0.00100035 3.43312e-08 0)
(0.00100037 4.68843e-08 0)
(0.00100049 -4.90843e-08 0)
(0.000999999 -4.64871e-09 0)
(0.001 -1.52421e-08 0)
(0.001 -2.44976e-08 0)
(0.00100001 -3.21567e-08 0)
(0.00100001 -3.86432e-08 0)
(0.00100001 -4.47096e-08 0)
(0.00100002 -5.14614e-08 0)
(0.00100003 -6.29584e-08 0)
(0.00100003 -7.79886e-08 0)
(0.00100005 -9.79157e-08 0)
(0.00100006 -1.18332e-07 0)
(0.00100008 -1.41237e-07 0)
(0.0010001 -1.58596e-07 0)
(0.00100014 -1.80083e-07 0)
(0.00100016 -1.90815e-07 0)
(0.00100021 -2.2105e-07 0)
(0.00100023 -2.27453e-07 0)
(0.00100031 -2.8815e-07 0)
(0.00100032 -2.88579e-07 0)
(0.00100044 -4.10119e-07 0)
(0.000999999 -1.17325e-09 0)
(0.001 -3.57895e-09 0)
(0.00100001 -2.49505e-09 0)
(0.00100002 1.28024e-09 0)
(0.00100002 7.20132e-09 0)
(0.00100003 1.33777e-08 0)
(0.00100003 1.80035e-08 0)
(0.00100003 1.7248e-08 0)
(0.00100004 1.11182e-08 0)
(0.00100005 -1.75794e-09 0)
(0.00100006 -1.59419e-08 0)
(0.00100008 -3.2675e-08 0)
(0.0010001 -4.378e-08 0)
(0.00100014 -5.83784e-08 0)
(0.00100016 -6.20668e-08 0)
(0.0010002 -8.61095e-08 0)
(0.00100023 -8.58678e-08 0)
(0.00100028 -1.43543e-07 0)
(0.0010003 -1.38576e-07 0)
(0.00100038 -2.60156e-07 0)
(0.000999999 -3.95337e-09 0)
(0.001 -1.32578e-08 0)
(0.001 -2.03182e-08 0)
(0.00100001 -2.5608e-08 0)
(0.00100001 -2.91754e-08 0)
(0.00100001 -3.26426e-08 0)
(0.00100002 -3.75945e-08 0)
(0.00100003 -4.77937e-08 0)
(0.00100003 -6.32309e-08 0)
(0.00100004 -8.63803e-08 0)
(0.00100005 -1.12104e-07 0)
(0.00100007 -1.40809e-07 0)
(0.00100008 -1.63584e-07 0)
(0.00100011 -1.88885e-07 0)
(0.00100013 -2.02424e-07 0)
(0.00100016 -2.36522e-07 0)
(0.00100018 -2.44767e-07 0)
(0.00100023 -3.1347e-07 0)
(0.00100024 -3.14545e-07 0)
(0.00100032 -4.45199e-07 0)
(0.000999999 -4.03114e-09 0)
(0.001 -1.12016e-08 0)
(0.00100001 -1.47664e-08 0)
(0.00100001 -1.48233e-08 0)
(0.00100002 -1.17413e-08 0)
(0.00100002 -7.90556e-09 0)
(0.00100002 -6.44655e-09 0)
(0.00100002 -1.32179e-08 0)
(0.00100002 -2.82843e-08 0)
(0.00100003 -5.24102e-08 0)
(0.00100004 -7.90553e-08 0)
(0.00100006 -1.07444e-07 0)
(0.00100008 -1.28867e-07 0)
(0.0010001 -1.51107e-07 0)
(0.00100012 -1.61248e-07 0)
(0.00100015 -1.91726e-07 0)
(0.00100016 -1.96292e-07 0)
(0.0010002 -2.63367e-07 0)
(0.00100021 -2.60842e-07 0)
(0.00100026 -3.91632e-07 0)
(0.000999999 -5.01522e-09 0)
(0.001 -1.3671e-08 0)
(0.001 -2.02629e-08 0)
(0.00100001 -2.46306e-08 0)
(0.00100001 -2.59875e-08 0)
(0.00100001 -2.68351e-08 0)
(0.00100001 -2.96872e-08 0)
(0.00100002 -3.94065e-08 0)
(0.00100002 -5.65154e-08 0)
(0.00100003 -8.32977e-08 0)
(0.00100004 -1.13901e-07 0)
(0.00100005 -1.47287e-07 0)
(0.00100006 -1.74223e-07 0)
(0.00100007 -2.01933e-07 0)
(0.00100009 -2.17076e-07 0)
(0.00100011 -2.52712e-07 0)
(0.00100012 -2.60955e-07 0)
(0.00100015 -3.33107e-07 0)
(0.00100016 -3.32439e-07 0)
(0.0010002 -4.6725e-07 0)
(0.001 -5.84854e-09 0)
(0.001 -1.44468e-08 0)
(0.001 -2.06412e-08 0)
(0.00100001 -2.36389e-08 0)
(0.00100001 -2.25719e-08 0)
(0.00100001 -2.05739e-08 0)
(0.00100001 -2.14759e-08 0)
(0.00100001 -3.17959e-08 0)
(0.00100001 -5.15769e-08 0)
(0.00100002 -8.17253e-08 0)
(0.00100002 -1.15426e-07 0)
(0.00100003 -1.50576e-07 0)
(0.00100004 -1.78007e-07 0)
(0.00100006 -2.04367e-07 0)
(0.00100007 -2.17726e-07 0)
(0.00100008 -2.51038e-07 0)
(0.00100009 -2.57355e-07 0)
(0.00100011 -3.28908e-07 0)
(0.00100012 -3.26749e-07 0)
(0.00100014 -4.62554e-07 0)
(0.001 -6.36043e-09 0)
(0.001 -1.49299e-08 0)
(0.001 -2.168e-08 0)
(0.001 -2.60011e-08 0)
(0.001 -2.65062e-08 0)
(0.00100001 -2.57279e-08 0)
(0.00100001 -2.7603e-08 0)
(0.00100001 -3.7982e-08 0)
(0.00100001 -5.74184e-08 0)
(0.00100001 -8.7677e-08 0)
(0.00100002 -1.22252e-07 0)
(0.00100002 -1.5899e-07 0)
(0.00100003 -1.88578e-07 0)
(0.00100003 -2.1741e-07 0)
(0.00100004 -2.33001e-07 0)
(0.00100005 -2.68675e-07 0)
(0.00100005 -2.76129e-07 0)
(0.00100007 -3.49419e-07 0)
(0.00100007 -3.46937e-07 0)
(0.00100009 -4.83705e-07 0)
(0.001 -6.66466e-09 0)
(0.001 -1.53044e-08 0)
(0.001 -2.23636e-08 0)
(0.001 -2.6859e-08 0)
(0.001 -2.68621e-08 0)
(0.001 -2.54672e-08 0)
(0.001 -2.70531e-08 0)
(0.001 -3.79021e-08 0)
(0.001 -5.8441e-08 0)
(0.001 -9.01581e-08 0)
(0.00100001 -1.26196e-07 0)
(0.00100001 -1.6388e-07 0)
(0.00100001 -1.93818e-07 0)
(0.00100001 -2.22204e-07 0)
(0.00100001 -2.37195e-07 0)
(0.00100002 -2.72057e-07 0)
(0.00100002 -2.79071e-07 0)
(0.00100002 -3.52414e-07 0)
(0.00100002 -3.49941e-07 0)
(0.00100003 -4.87459e-07 0)
(0.001 -6.66488e-09 0)
(0.001 -1.53035e-08 0)
(0.000999999 -2.23622e-08 0)
(0.000999999 -2.68584e-08 0)
(0.000999998 -2.68621e-08 0)
(0.000999998 -2.54669e-08 0)
(0.000999998 -2.70523e-08 0)
(0.000999997 -3.7901e-08 0)
(0.000999997 -5.84394e-08 0)
(0.000999996 -9.0156e-08 0)
(0.000999995 -1.26193e-07 0)
(0.000999993 -1.63877e-07 0)
(0.000999992 -1.93815e-07 0)
(0.000999989 -2.22203e-07 0)
(0.000999987 -2.37196e-07 0)
(0.000999983 -2.72057e-07 0)
(0.000999981 -2.79073e-07 0)
(0.000999977 -3.52413e-07 0)
(0.000999976 -3.4994e-07 0)
(0.000999972 -4.87458e-07 0)
(0.001 -6.35986e-09 0)
(0.000999999 -1.49279e-08 0)
(0.000999998 -2.16792e-08 0)
(0.000999996 -2.60009e-08 0)
(0.000999996 -2.65061e-08 0)
(0.000999995 -2.57262e-08 0)
(0.000999993 -2.75998e-08 0)
(0.000999992 -3.79778e-08 0)
(0.00099999 -5.74145e-08 0)
(0.000999988 -8.7673e-08 0)
(0.000999984 -1.22247e-07 0)
(0.000999979 -1.58982e-07 0)
(0.000999974 -1.8857e-07 0)
(0.000999967 -2.17397e-07 0)
(0.000999961 -2.32992e-07 0)
(0.000999952 -2.68651e-07 0)
(0.000999947 -2.76114e-07 0)
(0.000999934 -3.49384e-07 0)
(0.000999932 -3.46911e-07 0)
(0.000999914 -4.83665e-07 0)
(0.001 -5.84683e-09 0)
(0.000999999 -1.44439e-08 0)
(0.000999996 -2.0641e-08 0)
(0.000999993 -2.36416e-08 0)
(0.000999991 -2.25747e-08 0)
(0.00099999 -2.0574e-08 0)
(0.000999989 -2.14733e-08 0)
(0.000999987 -3.17921e-08 0)
(0.000999986 -5.15738e-08 0)
(0.000999982 -8.17237e-08 0)
(0.000999975 -1.15425e-07 0)
(0.000999966 -1.50576e-07 0)
(0.000999957 -1.78008e-07 0)
(0.000999944 -2.04364e-07 0)
(0.000999933 -2.17731e-07 0)
(0.000999917 -2.5103e-07 0)
(0.000999909 -2.57359e-07 0)
(0.000999889 -3.28899e-07 0)
(0.000999885 -3.26752e-07 0)
(0.000999858 -4.62563e-07 0)
(0.001 -5.01329e-09 0)
(0.000999999 -1.36669e-08 0)
(0.000999996 -2.02612e-08 0)
(0.000999993 -2.46306e-08 0)
(0.000999992 -2.59871e-08 0)
(0.000999989 -2.68313e-08 0)
(0.000999985 -2.96803e-08 0)
(0.000999981 -3.93957e-08 0)
(0.000999977 -5.65034e-08 0)
(0.000999972 -8.32833e-08 0)
(0.000999965 -1.13884e-07 0)
(0.000999954 -1.47263e-07 0)
(0.000999942 -1.74199e-07 0)
(0.000999926 -2.01899e-07 0)
(0.000999913 -2.17053e-07 0)
(0.00099989 -2.52661e-07 0)
(0.000999878 -2.60924e-07 0)
(0.000999848 -3.33028e-07 0)
(0.000999841 -3.32381e-07 0)
(0.000999798 -4.67144e-07 0)
(0.001 -4.03014e-09 0)
(0.000999998 -1.11995e-08 0)
(0.000999992 -1.47682e-08 0)
(0.000999986 -1.48287e-08 0)
(0.000999983 -1.17474e-08 0)
(0.000999981 -7.90801e-09 0)
(0.000999979 -6.44552e-09 0)
(0.000999978 -1.32161e-08 0)
(0.000999976 -2.82851e-08 0)
(0.000999969 -5.24142e-08 0)
(0.000999957 -7.9061e-08 0)
(0.00099994 -1.07449e-07 0)
(0.000999923 -1.28874e-07 0)
(0.0009999 -1.51107e-07 0)
(0.000999882 -1.61257e-07 0)
(0.000999853 -1.91714e-07 0)
(0.000999838 -1.96298e-07 0)
(0.000999802 -2.63351e-07 0)
(0.000999793 -2.60841e-07 0)
(0.000999743 -3.91645e-07 0)
(0.001 -3.95147e-09 0)
(0.000999999 -1.32533e-08 0)
(0.000999996 -2.03155e-08 0)
(0.000999993 -2.56081e-08 0)
(0.000999991 -2.91759e-08 0)
(0.000999988 -3.264e-08 0)
(0.000999982 -3.75888e-08 0)
(0.000999974 -4.77825e-08 0)
(0.000999968 -6.32179e-08 0)
(0.00099996 -8.63635e-08 0)
(0.000999949 -1.12087e-07 0)
(0.000999932 -1.40785e-07 0)
(0.000999917 -1.63564e-07 0)
(0.000999891 -1.88852e-07 0)
(0.000999871 -2.02411e-07 0)
(0.000999835 -2.36473e-07 0)
(0.000999817 -2.44751e-07 0)
(0.000999766 -3.13389e-07 0)
(0.000999757 -3.145e-07 0)
(0.00099968 -4.45079e-07 0)
(0.001 -1.17276e-09 0)
(0.000999997 -3.5795e-09 0)
(0.000999987 -2.49888e-09 0)
(0.000999979 1.27406e-09 0)
(0.000999975 7.1947e-09 0)
(0.000999972 1.33753e-08 0)
(0.000999969 1.80041e-08 0)
(0.000999967 1.72488e-08 0)
(0.000999964 1.11149e-08 0)
(0.000999955 -1.76352e-09 0)
(0.000999941 -1.59475e-08 0)
(0.000999918 -3.26755e-08 0)
(0.000999896 -4.3781e-08 0)
(0.000999864 -5.83662e-08 0)
(0.000999838 -6.20634e-08 0)
(0.000999797 -8.60745e-08 0)
(0.000999774 -8.58533e-08 0)
(0.000999719 -1.43495e-07 0)
(0.000999703 -1.38548e-07 0)
(0.000999625 -2.60126e-07 0)
(0.001 -4.64722e-09 0)
(0.001 -1.52399e-08 0)
(0.000999997 -2.44984e-08 0)
(0.000999993 -3.21596e-08 0)
(0.000999991 -3.86478e-08 0)
(0.000999987 -4.47133e-08 0)
(0.000999981 -5.14646e-08 0)
(0.000999972 -6.29585e-08 0)
(0.000999965 -7.79866e-08 0)
(0.000999954 -9.79101e-08 0)
(0.000999941 -1.18331e-07 0)
(0.000999918 -1.41232e-07 0)
(0.000999898 -1.58604e-07 0)
(0.000999864 -1.8008e-07 0)
(0.00099984 -1.90838e-07 0)
(0.000999789 -2.21041e-07 0)
(0.000999767 -2.27485e-07 0)
(0.000999691 -2.88123e-07 0)
(0.000999679 -2.88598e-07 0)
(0.000999555 -4.1007e-07 0)
(0.001 3.78745e-09 0)
(0.000999995 1.05403e-08 0)
(0.000999984 1.81269e-08 0)
(0.000999975 2.59074e-08 0)
(0.000999971 3.32343e-08 0)
(0.000999968 4.01139e-08 0)
(0.000999963 4.71347e-08 0)
(0.000999959 5.38001e-08 0)
(0.000999955 5.99956e-08 0)
(0.000999944 6.30458e-08 0)
(0.000999929 6.5249e-08 0)
(0.000999903 6.44751e-08 0)
(0.000999879 6.66852e-08 0)
(0.000999841 6.42354e-08 0)
(0.000999813 6.98804e-08 0)
(0.000999759 5.97718e-08 0)
(0.000999733 6.91961e-08 0)
(0.000999653 3.44101e-08 0)
(0.000999634 4.69308e-08 0)
(0.000999509 -4.8982e-08 0)
(0.001 -8.79924e-09 0)
(0.001 -2.39025e-08 0)
(0.000999995 -3.53057e-08 0)
(0.000999988 -4.3939e-08 0)
(0.000999985 -5.09781e-08 0)
(0.000999981 -5.822e-08 0)
(0.000999975 -6.65351e-08 0)
(0.000999968 -7.78844e-08 0)
(0.000999962 -9.19779e-08 0)
(0.000999949 -1.08622e-07 0)
(0.000999935 -1.23463e-07 0)
(0.000999908 -1.3932e-07 0)
(0.000999887 -1.50606e-07 0)
(0.000999844 -1.66255e-07 0)
(0.000999822 -1.7309e-07 0)
(0.000999754 -1.94601e-07 0)
(0.00099974 -1.96212e-07 0)
(0.000999625 -2.38131e-07 0)
(0.000999625 -2.31809e-07 0)
(0.00099941 -3.27506e-07 0)
)
;

boundaryField
{
    sides
    {
        type            slip;
    }
    inlet
    {
        type            fixedValue;
        value           uniform (0.001 0 0);
    }
    outlet
    {
        type            zeroGradient;
    }
    frontAndBack
    {
        type            empty;
    }
}


// ************************************************************************* //
