/*--------------------------------*- C++ -*----------------------------------*\
  =========                 |
  \\      /  F ield         | OpenFOAM: The Open Source CFD Toolbox
   \\    /   O peration     | Website:  https://openfoam.org
    \\  /    A nd           | Version:  7
     \\/     M anipulation  |
\*---------------------------------------------------------------------------*/
FoamFile
{
    version     2.0;
    format      ascii;
    class       surfaceScalarField;
    location    "24";
    object      phi;
}
// * * * * * * * * * * * * * * * * * * * * * * * * * * * * * * * * * * * * * //

dimensions      [0 4 -1 0 0 0 0];

internalField   nonuniform List<scalar> 
760
(
5e-06
9.54658e-12
5.00001e-06
-8.3228e-12
5.00004e-06
-1.68426e-11
5.00006e-06
-1.8988e-11
5.00009e-06
-1.85583e-11
5.00012e-06
-1.96081e-11
5.00014e-06
-2.21716e-11
5.00018e-06
-3.18144e-11
5.00022e-06
-4.40913e-11
5.00029e-06
-6.86822e-11
5.00038e-06
-9.35476e-11
5.00051e-06
-1.28204e-10
5.00065e-06
-1.48531e-10
5.00083e-06
-1.88357e-10
5.00102e-06
-1.91825e-10
5.00127e-06
-2.61134e-10
5.00151e-06
-2.4483e-10
5.00192e-06
-4.17405e-10
5.00231e-06
-3.83453e-10
-8.66847e-10
5.00003e-06
-1.43022e-11
5.00006e-06
-3.22299e-11
5.0001e-06
-4.27987e-11
5.00013e-06
-4.50818e-11
5.00016e-06
-4.13238e-11
5.00018e-06
-3.76169e-11
5.0002e-06
-3.70502e-11
5.00022e-06
-5.3901e-11
5.00025e-06
-8.20777e-11
5.00032e-06
-1.33658e-10
5.00041e-06
-1.88276e-10
5.00053e-06
-2.58157e-10
5.00068e-06
-3.03021e-10
5.00086e-06
-3.72002e-10
5.00105e-06
-3.85965e-10
5.00128e-06
-4.9647e-10
5.00151e-06
-4.85118e-10
5.00183e-06
-7.37828e-10
5.00214e-06
-6.9559e-10
-1.21399e-09
5e-06
-7.1492e-12
5.00001e-06
-3.16903e-11
5.00002e-06
-4.93481e-11
5.00004e-06
-5.83639e-11
5.00006e-06
-6.10288e-11
5.00009e-06
-6.21234e-11
5.00012e-06
-6.5011e-11
5.00015e-06
-8.70561e-11
5.0002e-06
-1.28458e-10
5.00026e-06
-1.97714e-10
5.00035e-06
-2.75562e-10
5.00045e-06
-3.69594e-10
5.00058e-06
-4.40612e-10
5.00074e-06
-5.31085e-10
5.00091e-06
-5.68335e-10
5.00111e-06
-7.00925e-10
5.00133e-06
-7.15355e-10
5.00159e-06
-1.00006e-09
5.00189e-06
-9.93414e-10
-1.6191e-09
5.00002e-06
-1.76616e-11
5.00005e-06
-5.45817e-11
5.00008e-06
-7.71372e-11
5.00011e-06
-8.60731e-11
5.00014e-06
-8.33141e-11
5.00015e-06
-7.69822e-11
5.00016e-06
-7.61933e-11
5.00018e-06
-1.03602e-10
5.00021e-06
-1.60042e-10
5.00026e-06
-2.56247e-10
5.00034e-06
-3.63848e-10
5.00046e-06
-4.87063e-10
5.00059e-06
-5.80291e-10
5.00074e-06
-6.89013e-10
5.0009e-06
-7.34725e-10
5.00108e-06
-8.85672e-10
5.00126e-06
-9.02502e-10
5.00148e-06
-1.22321e-09
5.00169e-06
-1.20844e-09
-1.80476e-09
5.00001e-06
-1.70056e-11
5.00001e-06
-5.53723e-11
5.00002e-06
-8.18436e-11
5.00004e-06
-9.70162e-11
5.00006e-06
-1.00759e-10
5.00008e-06
-9.93184e-11
5.00011e-06
-1.04205e-10
5.00014e-06
-1.37744e-10
5.00018e-06
-2.02177e-10
5.00023e-06
-3.08374e-10
5.00029e-06
-4.32663e-10
5.00037e-06
-5.74176e-10
5.00047e-06
-6.8823e-10
5.00059e-06
-8.12745e-10
5.00073e-06
-8.75319e-10
5.00087e-06
-1.03866e-09
5.00103e-06
-1.06799e-09
5.0012e-06
-1.39933e-09
5.00139e-06
-1.3931e-09
-2.05332e-09
5.00001e-06
-2.37973e-11
5.00003e-06
-6.89803e-11
5.00005e-06
-1.01682e-10
5.00007e-06
-1.1826e-10
5.00009e-06
-1.16818e-10
5.0001e-06
-1.11411e-10
5.00011e-06
-1.13475e-10
5.00012e-06
-1.51415e-10
5.00014e-06
-2.29522e-10
5.00018e-06
-3.57142e-10
5.00025e-06
-5.03764e-10
5.00033e-06
-6.65061e-10
5.00043e-06
-7.94145e-10
5.00054e-06
-9.27986e-10
5.00066e-06
-9.94386e-10
5.00078e-06
-1.16351e-09
5.00089e-06
-1.19173e-09
5.00103e-06
-1.53942e-09
5.00117e-06
-1.53069e-09
-2.16597e-09
5.00001e-06
-2.91049e-11
5.00002e-06
-7.37771e-11
5.00002e-06
-1.06872e-10
5.00003e-06
-1.28138e-10
5.00005e-06
-1.32708e-10
5.00007e-06
-1.28969e-10
5.00008e-06
-1.34022e-10
5.0001e-06
-1.75692e-10
5.00013e-06
-2.58494e-10
5.00016e-06
-3.93314e-10
5.0002e-06
-5.51821e-10
5.00026e-06
-7.25782e-10
5.00032e-06
-8.67928e-10
5.0004e-06
-1.01124e-09
5.00049e-06
-1.08591e-09
5.00058e-06
-1.26146e-09
5.00068e-06
-1.29364e-09
5.00079e-06
-1.64677e-09
5.00089e-06
-1.63396e-09
-2.30367e-09
5.00001e-06
-3.30476e-11
5.00001e-06
-7.99821e-11
5.00003e-06
-1.17481e-10
5.00004e-06
-1.42041e-10
5.00005e-06
-1.44925e-10
5.00005e-06
-1.3944e-10
5.00006e-06
-1.43576e-10
5.00007e-06
-1.87749e-10
5.00008e-06
-2.77299e-10
5.00011e-06
-4.21941e-10
5.00014e-06
-5.91902e-10
5.00019e-06
-7.76808e-10
5.00024e-06
-9.28206e-10
5.00031e-06
-1.07674e-09
5.00037e-06
-1.1538e-09
5.00044e-06
-1.33079e-09
5.0005e-06
-1.36123e-09
5.00057e-06
-1.71989e-09
5.00065e-06
-1.70668e-09
-2.36661e-09
5e-06
-3.63755e-11
5.00001e-06
-8.41902e-11
5.00001e-06
-1.22513e-10
5.00002e-06
-1.4781e-10
5.00003e-06
-1.52502e-10
5.00003e-06
-1.47337e-10
5.00004e-06
-1.51325e-10
5.00004e-06
-1.97786e-10
5.00005e-06
-2.90225e-10
5.00007e-06
-4.39426e-10
5.00009e-06
-6.15481e-10
5.00012e-06
-8.06121e-10
5.00015e-06
-9.62227e-10
5.00018e-06
-1.11361e-09
5.00022e-06
-1.19249e-09
5.00026e-06
-1.37133e-09
5.0003e-06
-1.4024e-09
5.00034e-06
-1.76434e-09
5.00038e-06
-1.74909e-09
-2.41841e-09
5e-06
-3.76132e-11
5e-06
-8.52719e-11
5e-06
-1.23587e-10
5.00001e-06
-1.50754e-10
5.00001e-06
-1.56186e-10
5.00001e-06
-1.49648e-10
5.00001e-06
-1.54035e-10
5.00002e-06
-2.00545e-10
5.00002e-06
-2.93826e-10
5.00002e-06
-4.44383e-10
5.00003e-06
-6.22433e-10
5.00004e-06
-8.15459e-10
5.00005e-06
-9.74238e-10
5.00006e-06
-1.12732e-09
5.00007e-06
-1.20745e-09
5.00009e-06
-1.3866e-09
5.0001e-06
-1.4172e-09
5.00012e-06
-1.77878e-09
5.00013e-06
-1.76166e-09
-2.43129e-09
5e-06
-3.63755e-11
5e-06
-8.41816e-11
5e-06
-1.22504e-10
4.99999e-06
-1.47805e-10
4.99999e-06
-1.52501e-10
4.99999e-06
-1.47332e-10
4.99999e-06
-1.51314e-10
4.99998e-06
-1.97771e-10
4.99998e-06
-2.90211e-10
4.99998e-06
-4.39414e-10
4.99997e-06
-6.15469e-10
4.99996e-06
-8.06104e-10
4.99995e-06
-9.62211e-10
4.99994e-06
-1.11358e-09
4.99993e-06
-1.19248e-09
4.99991e-06
-1.37128e-09
4.9999e-06
-1.40237e-09
4.99988e-06
-1.76427e-09
4.99987e-06
-1.74905e-09
-2.41832e-09
5e-06
-3.30424e-11
4.99999e-06
-7.99643e-11
4.99999e-06
-1.17476e-10
4.99998e-06
-1.42045e-10
4.99997e-06
-1.44929e-10
4.99997e-06
-1.39433e-10
4.99996e-06
-1.43558e-10
4.99996e-06
-1.87725e-10
4.99995e-06
-2.77275e-10
4.99993e-06
-4.21919e-10
4.99991e-06
-5.91878e-10
4.99988e-06
-7.76772e-10
4.99985e-06
-9.28172e-10
4.99982e-06
-1.07669e-09
4.99978e-06
-1.15378e-09
4.99974e-06
-1.33069e-09
4.9997e-06
-1.36119e-09
4.99966e-06
-1.71976e-09
4.99962e-06
-1.70657e-09
-2.36649e-09
4.99999e-06
-2.90954e-11
4.99999e-06
-7.37627e-11
4.99997e-06
-1.06865e-10
4.99996e-06
-1.2814e-10
4.99995e-06
-1.32715e-10
4.99995e-06
-1.28965e-10
4.99994e-06
-1.34002e-10
4.99993e-06
-1.75658e-10
4.99992e-06
-2.58462e-10
4.99989e-06
-3.93285e-10
4.99986e-06
-5.51794e-10
4.99981e-06
-7.25743e-10
4.99976e-06
-8.67894e-10
4.99969e-06
-1.01117e-09
4.99963e-06
-1.08589e-09
4.99956e-06
-1.26133e-09
4.9995e-06
-1.29359e-09
4.99943e-06
-1.64657e-09
4.99935e-06
-1.63384e-09
-2.30345e-09
4.99999e-06
-2.37891e-11
4.99998e-06
-6.896e-11
4.99998e-06
-1.01674e-10
4.99997e-06
-1.18274e-10
4.99995e-06
-1.16829e-10
4.99993e-06
-1.11405e-10
4.99992e-06
-1.13452e-10
4.9999e-06
-1.51378e-10
4.99987e-06
-2.29487e-10
4.99984e-06
-3.57109e-10
4.9998e-06
-5.03729e-10
4.99974e-06
-6.65006e-10
4.99968e-06
-7.94095e-10
4.9996e-06
-9.27889e-10
4.99951e-06
-9.94341e-10
4.99942e-06
-1.16334e-09
4.99932e-06
-1.19165e-09
4.99921e-06
-1.53917e-09
4.99911e-06
-1.53052e-09
-2.16572e-09
4.99999e-06
-1.70026e-11
4.99997e-06
-5.53609e-11
4.99995e-06
-8.1841e-11
4.99993e-06
-9.70252e-11
4.99991e-06
-1.00779e-10
4.9999e-06
-9.93249e-11
4.99989e-06
-1.04194e-10
4.99988e-06
-1.37717e-10
4.99986e-06
-2.02151e-10
4.99982e-06
-3.08348e-10
4.99975e-06
-4.32642e-10
4.99967e-06
-5.74135e-10
4.99957e-06
-6.88204e-10
4.99946e-06
-8.12665e-10
4.99934e-06
-8.7531e-10
4.99922e-06
-1.0385e-09
4.99911e-06
-1.06795e-09
4.99897e-06
-1.39908e-09
4.99883e-06
-1.39296e-09
-2.05303e-09
4.99999e-06
-1.76545e-11
4.99999e-06
-5.45609e-11
4.99998e-06
-7.71319e-11
4.99996e-06
-8.60787e-11
4.99994e-06
-8.3328e-11
4.99992e-06
-7.69769e-11
4.99989e-06
-7.61737e-11
4.99986e-06
-1.03567e-10
4.99982e-06
-1.60013e-10
4.99977e-06
-2.56216e-10
4.99971e-06
-3.6382e-10
4.99963e-06
-4.87006e-10
4.99953e-06
-5.80249e-10
4.99941e-06
-6.88904e-10
4.99927e-06
-7.34693e-10
4.99913e-06
-8.8547e-10
4.99897e-06
-9.02436e-10
4.99879e-06
-1.22291e-09
4.99861e-06
-1.20826e-09
-1.8044e-09
4.99998e-06
-7.15078e-12
4.99995e-06
-3.16907e-11
4.99992e-06
-4.93569e-11
4.99989e-06
-5.83952e-11
4.99986e-06
-6.10417e-11
4.99985e-06
-6.2139e-11
4.99984e-06
-6.50171e-11
4.99982e-06
-8.70559e-11
4.99979e-06
-1.28462e-10
4.99974e-06
-1.97714e-10
4.99966e-06
-2.75573e-10
4.99954e-06
-3.69583e-10
4.99941e-06
-4.40628e-10
4.99926e-06
-5.31039e-10
4.9991e-06
-5.6837e-10
4.99892e-06
-7.00799e-10
4.99874e-06
-7.15369e-10
4.99852e-06
-9.99843e-10
4.99831e-06
-9.93347e-10
-1.61886e-09
5e-06
-1.42926e-11
4.99999e-06
-3.22152e-11
4.99998e-06
-4.27944e-11
4.99996e-06
-4.50843e-11
4.99994e-06
-4.13329e-11
4.99991e-06
-3.76033e-11
4.99988e-06
-3.70326e-11
4.99985e-06
-5.38523e-11
4.9998e-06
-8.20585e-11
4.99974e-06
-1.33631e-10
4.99965e-06
-1.88263e-10
4.99955e-06
-2.58108e-10
4.99941e-06
-3.03007e-10
4.99926e-06
-3.71911e-10
4.99909e-06
-3.85979e-10
4.99889e-06
-4.96301e-10
4.99867e-06
-4.85134e-10
4.99841e-06
-7.3756e-10
4.99811e-06
-6.95517e-10
-1.21363e-09
4.99997e-06
9.54245e-12
4.99994e-06
-8.33088e-12
4.9999e-06
-1.68638e-11
4.99987e-06
-1.90165e-11
4.99984e-06
-1.85912e-11
4.99982e-06
-1.96341e-11
4.9998e-06
-2.21986e-11
4.99978e-06
-3.17048e-11
4.99975e-06
-4.41215e-11
4.99968e-06
-6.87392e-11
4.99959e-06
-9.36194e-11
4.99947e-06
-1.28263e-10
4.99932e-06
-1.48612e-10
4.99914e-06
-1.884e-10
4.99895e-06
-1.91916e-10
4.99872e-06
-2.61138e-10
4.99849e-06
-2.44914e-10
4.99817e-06
-4.17394e-10
4.99786e-06
-3.83512e-10
-8.66908e-10
5e-06
4.99999e-06
4.99996e-06
4.99994e-06
4.99991e-06
4.99988e-06
4.99986e-06
4.99982e-06
4.99978e-06
4.99971e-06
4.99962e-06
4.99949e-06
4.99935e-06
4.99917e-06
4.99898e-06
4.99873e-06
4.99849e-06
4.99807e-06
4.99769e-06
)
;

boundaryField
{
    sides
    {
        type            calculated;
        value           uniform 0;
    }
    inlet
    {
        type            calculated;
        value           nonuniform List<scalar> 
20
(
-5e-06
-5e-06
-5e-06
-5e-06
-5e-06
-5e-06
-5e-06
-5e-06
-5e-06
-5e-06
-5e-06
-5e-06
-5e-06
-5e-06
-5e-06
-5e-06
-5e-06
-5e-06
-5e-06
-5e-06
)
;
    }
    outlet
    {
        type            calculated;
        value           nonuniform List<scalar> 
20
(
5.00317e-06
5.00248e-06
5.00229e-06
5.00187e-06
5.00163e-06
5.00128e-06
5.00103e-06
5.00071e-06
5.00043e-06
5.00014e-06
4.99986e-06
4.99957e-06
4.99929e-06
4.99897e-06
4.99872e-06
4.99836e-06
4.99813e-06
4.99771e-06
4.99752e-06
4.99683e-06
)
;
    }
    frontAndBack
    {
        type            empty;
        value           nonuniform 0();
    }
}


// ************************************************************************* //
