/*--------------------------------*- C++ -*----------------------------------*\
  =========                 |
  \\      /  F ield         | OpenFOAM: The Open Source CFD Toolbox
   \\    /   O peration     | Website:  https://openfoam.org
    \\  /    A nd           | Version:  7
     \\/     M anipulation  |
\*---------------------------------------------------------------------------*/
FoamFile
{
    version     2.0;
    format      ascii;
    class       volScalarField;
    location    "50";
    object      epsilon;
}
// * * * * * * * * * * * * * * * * * * * * * * * * * * * * * * * * * * * * * //

dimensions      [0 2 -3 0 0 0 0];

internalField   nonuniform List<scalar> 
96800
(
0.000600514
0.000597392
0.000595169
0.000599054
0.000604785
0.000609259
0.000611633
0.00061224
0.000611475
0.000609086
0.000607662
0.000607101
0.000604458
0.000602922
0.000606045
0.000611711
0.000616772
0.000617999
0.000616295
0.000617311
0.000623798
0.000635882
0.00061054
0.000609159
0.000603335
0.000603759
0.000607109
0.000610392
0.000612048
0.000612202
0.000611189
0.000609113
0.000608359
0.000607717
0.000605075
0.000603536
0.000605918
0.000611192
0.000616466
0.000618279
0.000617275
0.000619194
0.000627106
0.000637355
0.000626953
0.00062337
0.000610767
0.000604473
0.000602874
0.000603166
0.000603662
0.000603439
0.000602205
0.000600842
0.000600824
0.00060048
0.000598538
0.000596966
0.000598285
0.00060226
0.000606849
0.000609139
0.000609333
0.0006127
0.000623494
0.000636379
0.000639547
0.00063418
0.000616991
0.00060602
0.00060066
0.000598278
0.000597748
0.000597658
0.000596798
0.000595961
0.000595885
0.00059596
0.000595223
0.000594412
0.00059497
0.00059715
0.000599796
0.000601064
0.000601758
0.000606069
0.000619055
0.00063523
0.000644599
0.000638213
0.000618893
0.000606409
0.000599842
0.000596349
0.00059499
0.000594931
0.000594655
0.000593927
0.000593322
0.000593449
0.000593928
0.000594645
0.00059519
0.000595776
0.000595834
0.000595152
0.00059536
0.000599961
0.000614112
0.000632089
0.000645276
0.000637885
0.000617256
0.000604771
0.000598829
0.000595549
0.000593734
0.000593196
0.000593253
0.000592595
0.000591363
0.000591183
0.000592684
0.000595009
0.000596396
0.000596207
0.000594209
0.000591735
0.000591071
0.000595633
0.000609957
0.000628358
0.000646251
0.000637101
0.000614398
0.000601677
0.000596663
0.000594003
0.000592149
0.000591586
0.000592135
0.000592124
0.000590712
0.000589962
0.00059172
0.000595031
0.000597423
0.000597168
0.000594523
0.00059173
0.000591034
0.000595411
0.000609669
0.000628966
0.000650285
0.000638878
0.0006128
0.000598669
0.000593709
0.000591416
0.000589828
0.000589784
0.000591232
0.000592504
0.000591955
0.000591002
0.000592198
0.00059546
0.000598113
0.000598255
0.000596244
0.000594054
0.000593899
0.000599154
0.000615728
0.000638542
0.000656544
0.000643189
0.000613543
0.000597295
0.000591483
0.000589221
0.00058807
0.00058819
0.000590037
0.000592561
0.000593791
0.000593864
0.000594536
0.000596763
0.000598973
0.000599263
0.000597386
0.000595401
0.000595855
0.000602682
0.000623396
0.000651242
0.000661627
0.000647017
0.000614882
0.000597034
0.000590724
0.000588644
0.000587679
0.000587581
0.000589164
0.000592246
0.000595229
0.000597147
0.000597947
0.000598372
0.000599156
0.000598711
0.00059639
0.00059423
0.000594793
0.000602856
0.000626403
0.000657153
0.000664949
0.000649135
0.000615456
0.000596922
0.000591056
0.000589554
0.000588655
0.000588198
0.000589376
0.000592807
0.000597097
0.000600173
0.000601028
0.000600002
0.000598677
0.000596532
0.000593655
0.000591668
0.00059246
0.000600846
0.000624595
0.000655133
0.000670402
0.000652242
0.000615702
0.000596558
0.00059145
0.0005908
0.000590373
0.000589862
0.0005906
0.000593758
0.000598634
0.000602272
0.000602948
0.000600881
0.000597294
0.000593391
0.000590312
0.000589079
0.000590587
0.000599275
0.000622881
0.000652923
0.000675254
0.000655531
0.000616353
0.000596599
0.000591923
0.000592097
0.000592417
0.000592296
0.000592878
0.000595203
0.000599007
0.000601785
0.000601942
0.000599479
0.000595251
0.000590875
0.000588008
0.00058733
0.000589436
0.000599113
0.000624121
0.00065574
0.000677216
0.000656467
0.00061747
0.000598175
0.000593928
0.000594468
0.000595375
0.000595738
0.000596076
0.00059682
0.000597855
0.000598332
0.000597852
0.000596513
0.000593913
0.000590856
0.000588727
0.00058786
0.00058984
0.000600232
0.000626746
0.000660268
0.000673991
0.00065525
0.000618902
0.00060081
0.000596812
0.000597368
0.000598444
0.000599015
0.000598822
0.000597642
0.000595895
0.000594467
0.000594067
0.000594204
0.000593797
0.000592629
0.000591345
0.00059047
0.000592226
0.000602867
0.0006303
0.000664847
0.000678811
0.000659415
0.000622896
0.000603938
0.000598782
0.000598432
0.000599064
0.000599811
0.00059949
0.00059724
0.000594198
0.000592394
0.000592526
0.000593435
0.000594054
0.000593824
0.000593459
0.000593418
0.000595846
0.000607216
0.000636607
0.000674193
0.000694756
0.000672446
0.000630267
0.000607351
0.00059987
0.000597829
0.000597309
0.000597619
0.000597295
0.000595303
0.000592667
0.000591543
0.000592243
0.000593641
0.000594265
0.000593894
0.000594192
0.000595406
0.000599297
0.000612234
0.000645141
0.000687722
0.000710913
0.000684258
0.000635676
0.000608709
0.000599391
0.000596353
0.0005951
0.000594859
0.000594283
0.000593001
0.000591646
0.000591526
0.000592614
0.000593981
0.000594663
0.000594581
0.000595182
0.00059743
0.00060233
0.000616436
0.000652986
0.0007015
0.000711174
0.00068398
0.00063411
0.000606447
0.000597035
0.000594623
0.000594382
0.00059438
0.000593745
0.000592898
0.000592527
0.000592767
0.000593833
0.000594885
0.000595559
0.000596228
0.000597595
0.000600344
0.000605209
0.000619456
0.000658758
0.000713166
0.00070532
0.000678908
0.000630307
0.000603476
0.000594822
0.000593911
0.000595431
0.00059702
0.000597239
0.000596171
0.000595696
0.00059592
0.000596569
0.000597257
0.000597777
0.000598551
0.00060024
0.000602741
0.000606813
0.000620625
0.000661059
0.000718636
0.000710452
0.000681359
0.000630979
0.000603219
0.000594688
0.00059488
0.000597743
0.000600788
0.000602307
0.000601976
0.000601029
0.000600853
0.00060063
0.000600168
0.000600209
0.000600662
0.000601742
0.000603279
0.000606295
0.000619484
0.00066046
0.000719109
0.000729842
0.000695056
0.000638229
0.000607243
0.000598132
0.000598039
0.0006005
0.000603979
0.000606722
0.000607896
0.000607138
0.00060587
0.000603984
0.00060177
0.000601123
0.000601563
0.000602104
0.000602383
0.000604838
0.000618576
0.000660091
0.000719075
0.000756002
0.00071558
0.000650358
0.00061512
0.000604588
0.000603564
0.000604517
0.000606683
0.000609498
0.00061134
0.000611694
0.000610091
0.000606878
0.000603483
0.000601801
0.000601789
0.000601853
0.00060165
0.000604431
0.000619313
0.00066195
0.000722541
0.000790387
0.000743188
0.000667556
0.00062673
0.000613779
0.00061165
0.000611392
0.000611274
0.000611966
0.000613124
0.00061406
0.000613494
0.000610444
0.000606639
0.000603812
0.000603
0.000602714
0.000602777
0.000606332
0.00062276
0.00066818
0.000732795
0.000837633
0.000781875
0.000692521
0.000643495
0.000626192
0.000622023
0.000620563
0.000618226
0.000616944
0.000617212
0.000617802
0.000617854
0.000615986
0.000612649
0.000608967
0.000607068
0.000606772
0.000607108
0.000611503
0.000629942
0.00068045
0.000752409
0.000899979
0.000834067
0.000726585
0.000664448
0.000640918
0.000633864
0.000631575
0.0006288
0.00062625
0.000625958
0.00062593
0.000624931
0.000623214
0.000620938
0.000617492
0.000615125
0.000614673
0.00061499
0.000619282
0.000639173
0.000695746
0.000777227
0.000984646
0.000906456
0.000771758
0.000690211
0.000657557
0.000646589
0.00064278
0.000640484
0.000638247
0.000637476
0.000636699
0.000634652
0.000632382
0.00063042
0.0006279
0.000625915
0.000624758
0.000624761
0.000628401
0.000648397
0.000708973
0.000798599
0.00110293
0.00100348
0.000827989
0.000720176
0.000676676
0.000661808
0.000656534
0.000654154
0.00065167
0.00064968
0.000648135
0.000646045
0.000644078
0.00064231
0.000640852
0.000639589
0.000636887
0.000635295
0.000638034
0.000657752
0.00072181
0.000819495
0.00122573
0.00110371
0.0008875
0.000753173
0.000699164
0.000681088
0.000674637
0.000671315
0.000668188
0.000665047
0.000662135
0.000659495
0.000658168
0.000657199
0.000656989
0.000655959
0.000652809
0.000648547
0.000649441
0.000669038
0.000738393
0.000846701
0.00133693
0.00119734
0.00095215
0.000795023
0.000729586
0.000707427
0.000699135
0.000694369
0.000691087
0.000687559
0.00068309
0.000678695
0.000676125
0.000674984
0.00067486
0.00067383
0.000671057
0.000665636
0.000665036
0.000684551
0.000760728
0.000882814
0.00151104
0.00135439
0.00106653
0.000868021
0.000779578
0.000747617
0.000734929
0.000727278
0.000721769
0.000717552
0.000712388
0.000706607
0.000701948
0.000698919
0.000697489
0.000695333
0.000691741
0.000687382
0.000686965
0.000707115
0.000793915
0.000939522
0.00187204
0.00168192
0.0012968
0.00100579
0.000865254
0.000811875
0.000790484
0.000777933
0.000767451
0.000759611
0.000752292
0.000744672
0.000737775
0.000732569
0.000728778
0.000724188
0.000718788
0.000714768
0.000715264
0.000737859
0.000840177
0.00101912
0.00244576
0.00220274
0.00167695
0.00124352
0.00101126
0.000916019
0.000877592
0.000856439
0.000839738
0.000824814
0.000810821
0.000797964
0.00078704
0.000778753
0.000772174
0.000764397
0.000756415
0.000750544
0.000750887
0.000776159
0.000894764
0.0011082
0.00319576
0.00289293
0.00222642
0.0016292
0.00126087
0.0010873
0.00101407
0.000977073
0.000949972
0.000924715
0.000900238
0.000877273
0.000857515
0.000842594
0.000830342
0.000818329
0.000807304
0.000798511
0.000796948
0.000823348
0.000957406
0.00120809
0.00417253
0.00381192
0.00301271
0.00223952
0.00169064
0.00138454
0.00123884
0.00116493
0.00111589
0.00107375
0.00103363
0.000995203
0.000960803
0.000933288
0.000910666
0.00089187
0.000875983
0.000862614
0.000857315
0.000884386
0.00103599
0.00133181
0.00552712
0.00511536
0.00416207
0.00318557
0.00241522
0.00190668
0.00162557
0.00147384
0.00137728
0.00130151
0.00123409
0.00117228
0.00111574
0.00106665
0.00102637
0.000994852
0.000970225
0.000949445
0.000937124
0.00096284
0.0011344
0.00148596
0.00752355
0.0070349
0.00587531
0.00463363
0.00359163
0.00280613
0.00229421
0.00199304
0.00180405
0.0016632
0.00154387
0.00143951
0.0013466
0.001264
0.00119455
0.00114071
0.0011
0.0010667
0.00104555
0.0010657
0.00125553
0.00167567
0.0104889
0.00988837
0.00844411
0.00682549
0.00543031
0.00429208
0.00342446
0.00284825
0.0024838
0.00222436
0.00201662
0.00183855
0.00168406
0.00155023
0.00143771
0.00134695
0.00127957
0.00122795
0.001194
0.00120683
0.001414
0.00190315
0.0147802
0.0140692
0.0122486
0.0100929
0.00819693
0.00657787
0.00523344
0.0042209
0.00353841
0.00307247
0.00272143
0.00243119
0.00218398
0.00197252
0.00179569
0.00164615
0.00153017
0.00144822
0.00139634
0.00139708
0.00162247
0.00217815
0.0208732
0.0200854
0.0177866
0.0148984
0.0122783
0.00994792
0.00793628
0.00633633
0.00519295
0.0043952
0.00380061
0.00332513
0.00293116
0.00259701
0.00231949
0.00208919
0.00190144
0.00175895
0.00166709
0.00165192
0.00190149
0.00252565
0.0293693
0.0285875
0.0257201
0.0218932
0.0183069
0.0150036
0.012049
0.00962596
0.00781635
0.00650984
0.00552574
0.00474006
0.00408991
0.00354866
0.00310835
0.00274419
0.00244945
0.00222117
0.00204978
0.00199337
0.0022625
0.00299797
0.0409992
0.0403878
0.0371085
0.0321102
0.027407
0.0228961
0.0185601
0.0148396
0.0119731
0.00986083
0.00828295
0.00701715
0.005953
0.00505333
0.00431265
0.00372235
0.00324871
0.00289245
0.00260856
0.00247199
0.00275949
0.00364456
0.0566853
0.0567719
0.0536956
0.0473699
0.0416581
0.0354657
0.0289438
0.02332
0.018822
0.0154079
0.0128447
0.0107376
0.00898788
0.00750263
0.00624606
0.00525933
0.00447893
0.00388005
0.00340091
0.00314951
0.00345216
0.00456176
0.0784619
0.0800022
0.0779981
0.0710177
0.0640883
0.0553139
0.0457823
0.0374032
0.0303081
0.0246425
0.0201796
0.0165083
0.0136131
0.0111942
0.00921661
0.00761959
0.00633597
0.00545746
0.00468687
0.00413838
0.00441218
0.00585497
0.109497
0.114722
0.115557
0.108184
0.0992313
0.0881143
0.0743756
0.0610616
0.0492276
0.0396518
0.0320537
0.0259771
0.0211166
0.0171043
0.0138557
0.0113377
0.00914203
0.00764331
0.00652146
0.0057326
0.00581843
0.00767722
0.15669
0.168466
0.174395
0.166984
0.158325
0.143262
0.120825
0.0984089
0.0791965
0.0637281
0.0510994
0.0413824
0.0335259
0.0270446
0.0216727
0.0176526
0.014093
0.0110402
0.00913829
0.00792695
0.00797636
0.0102077
0.227778
0.252702
0.270382
0.266297
0.255769
0.228949
0.194352
0.15915
0.128171
0.101096
0.0795504
0.0640696
0.0518145
0.0419709
0.0333163
0.0263374
0.0210587
0.0170824
0.0135821
0.0111578
0.0110517
0.0138151
0.334375
0.386712
0.4312
0.429232
0.40256
0.363007
0.31166
0.252667
0.201777
0.159709
0.126945
0.102538
0.0820041
0.0656404
0.0521683
0.0406749
0.0314887
0.0252236
0.0207653
0.0164407
0.0158674
0.0187723
0.50136
0.599459
0.691095
0.681828
0.625557
0.564362
0.480928
0.385551
0.309865
0.24751
0.198041
0.160789
0.127986
0.101739
0.0824948
0.0672622
0.0507515
0.0385128
0.0316147
0.0254125
0.0240333
0.0261669
0.760998
0.935124
1.08755
1.05925
0.957147
0.84969
0.715509
0.574291
0.461374
0.368158
0.296412
0.244748
0.198443
0.160635
0.129892
0.10356
0.0840276
0.0640445
0.0475418
0.037291
0.0367042
0.0395368
1.15739
1.44542
1.65454
1.61474
1.43772
1.23901
1.04313
0.829982
0.66125
0.532758
0.439414
0.366267
0.300533
0.248412
0.208251
0.165655
0.126857
0.104509
0.0806665
0.0602918
0.0567171
0.0613982
1.7415
2.19933
2.45016
2.41165
2.0745
1.7018
1.3922
1.10206
0.8905
0.724659
0.59225
0.48957
0.410404
0.349654
0.296447
0.25241
0.205168
0.159391
0.126993
0.10315
0.0967527
0.10034
2.57897
3.2614
3.50852
3.28756
2.67334
2.08431
1.70374
1.38923
1.14683
0.942831
0.775091
0.652148
0.555463
0.476761
0.413889
0.354153
0.300233
0.246961
0.202196
0.159061
0.164464
0.193999
3.71341
4.68003
4.64205
3.94368
3.15233
2.51579
2.14588
1.84711
1.59492
1.36224
1.16035
0.995846
0.857683
0.734012
0.607109
0.494612
0.419024
0.370022
0.320383
0.26334
0.276915
0.387782
5.05182
6.29976
5.67465
4.68197
3.84494
3.19163
2.87048
2.57642
2.25765
1.94534
1.65658
1.42789
1.23864
1.08788
0.990226
0.883116
0.688006
0.531796
0.464081
0.430749
0.491324
0.764789
6.55122
7.98393
6.80429
5.70024
4.73343
4.20433
4.03349
3.72238
3.35272
2.91005
2.46421
2.08045
1.74634
1.47368
1.27296
1.17582
1.11352
0.941659
0.750442
0.70541
0.93743
1.5501
8.29255
9.93631
8.22303
6.88138
6.1195
6.02752
5.93852
5.64261
5.11329
4.35405
3.64175
3.01834
2.4599
2.04092
1.74658
1.49228
1.3661
1.31474
1.17771
1.19604
1.85369
3.14904
10.2518
12.2691
9.91673
8.73153
8.73099
9.18215
9.1057
8.67541
7.88216
6.75327
5.64968
4.70658
3.87008
3.17321
2.63965
2.28065
1.96494
1.73105
1.6489
1.81724
3.29224
5.86579
12.3494
14.8007
12.048
11.7623
13.3669
14.3232
14.2203
13.7069
12.699
10.8946
8.96042
7.29784
5.91638
4.75807
3.81492
3.29497
2.92133
2.44649
2.34385
2.7189
5.21175
9.81485
14.5536
17.4283
14.9223
16.5647
20.3175
22.7684
23.1171
22.3675
20.2744
17.0459
13.8573
11.1642
9.02712
7.2998
5.82975
4.6585
4.03292
3.66103
3.31193
4.0125
8.32926
15.1416
17.0866
20.6249
19.369
24.7
32.2631
36.7115
36.9606
34.7118
30.6177
25.4127
20.305
16.2749
13.3571
11.2532
9.50062
7.97293
6.39016
5.41563
5.06333
6.24037
12.9859
22.2068
20.6402
25.5638
27.6682
39.9931
52.7161
57.3825
56.1527
51.207
44.0844
35.9571
28.2531
22.4651
18.34
15.5725
13.5513
12.0878
10.669
9.21012
8.44357
9.95609
19.641
31.5131
27.8069
35.3881
44.6876
66.5701
84.1446
87.9258
83.5296
72.8664
60.8492
48.9116
38.1961
29.886
24.0496
20.3317
18.0597
16.893
15.7351
14.508
14.4658
16.7392
30.1115
45.6201
45.9934
58.4716
78.5113
108.919
127.986
127.447
114.806
95.9685
77.8781
61.1283
46.7589
36.1481
29.507
25.4875
22.7872
21.8708
22.4754
22.8278
23.5762
29.4787
49.263
66.8692
91.0771
111.815
141.505
167.674
178.413
168.719
144.511
116.163
90.1404
67.854
51.145
39.7197
33.2631
30.0494
28.6001
28.2128
29.9259
36.0382
44.3472
58.7029
84.517
113.158
195.939
232.579
232.888
233.444
226.618
203.529
164.852
126.378
95.2278
70.7127
53.1925
41.6811
35.3473
32.5182
32.1041
33.8662
39.6817
52.043
76.882
113.881
147.31
203.506
1388.61
966.013
637.761
438.739
332.822
290.582
283.739
297.758
313
317.999
317.685
322.276
321.699
308.328
270.547
222.835
186.512
182.679
207.34
218.305
213.252
199.793
188.274
188.075
204.506
215.989
213.43
206.231
191.714
180.873
184.629
190.735
198.349
212.735
232.236
236.649
228.17
214.722
204.283
195.044
192.744
200.282
214.42
226.957
240.803
255.071
260.722
255.651
240.017
230.615
227.322
227
228.182
232.209
231.634
228.138
233.916
239.418
236.89
224.697
202.115
178.481
166.999
177.286
191.445
190.081
176.354
167.165
164.907
169.22
185.789
199.362
202.551
201.199
203.64
208.503
215.491
229.48
239.285
241.256
241.648
242.422
253.907
278.888
295.567
297.133
292.785
286.149
272.96
259.467
241.567
229.009
239.708
260.551
261.086
249.655
224.437
197.589
180.813
175.386
187.618
213.466
237.595
260.18
273.696
273.346
264.835
265.986
299.732
350.335
331.687
322.997
289.895
266.653
245.607
214.37
167.733
124.629
91.5527
66.7621
49.3951
38.4965
33.0314
31.735
31.8883
34.226
43.5933
65.9726
113.7
194.215
245.387
245.53
221.455
207.726
249.143
295.004
330.013
335.428
307.037
255.46
213.167
195.47
214.544
251.478
268.011
262.89
239.028
208.984
180.368
155.837
148.159
159.307
173.333
186.42
201.311
224.168
249.427
255.04
251.217
239.766
220.041
203.552
194.53
187.849
188.111
203.16
221.258
235.333
256.981
280.854
293.388
291.801
277.489
245.837
207.674
183.861
174.983
181.572
191.954
197.726
196.879
190.601
185.115
186.941
192.408
190.583
176.854
162.106
153.383
146.102
142.783
144.968
152.377
156.971
157.378
154.692
151.09
147.788
145.016
149.268
158.161
161.179
166.274
172.239
171.503
168.006
165.786
161.492
153.396
145.009
141.042
139.225
141.696
148.763
159.885
165.21
164.928
163.485
158.764
153.862
155.257
171.059
199.417
218.172
222.822
223.617
222.235
219.976
226.165
235.994
241.097
246.845
246.057
237.989
223.131
202.606
183.275
171.74
184.357
226.829
290.543
364.902
593.334
712.18
589.187
485.745
443.69
431.995
434.73
451.223
462.093
458.452
449.302
459.611
458.357
430.4
368.836
295.848
245.595
248.983
293.159
312.369
303.802
278.051
255.018
247.192
261.225
276.084
271.937
259.926
240.908
228.986
234.671
240.17
251.081
271.744
307.83
322.052
310.7
296.445
285.116
279.021
281.823
293.695
310.583
324.814
344.118
361.165
365.414
352.367
319.906
305.229
301.877
296.377
294.156
299.012
300.071
297.231
303.886
307.001
301.874
286.284
262.307
230.562
213.392
221.576
243.789
247.141
237.776
232.285
227.863
230.034
250.399
266.87
270.287
263.382
257.877
257.586
264.106
282.256
300.139
308.729
307.559
306.221
324.117
369.521
406.553
429.145
429.704
420.415
396.256
362.454
319.235
295.901
313.868
359.156
369.738
356.385
322.802
281.748
255.086
246.104
257.584
281.853
297.953
320.968
341.254
361.927
375.399
390.737
430.777
440.828
305.631
261.759
264.369
250.457
233.988
200.344
150.506
106.416
75.0059
52.9545
37.7416
28.5119
24.3667
24.5193
26.9569
31.6066
41.7996
65.7281
119.632
209.878
247.853
202.32
180.726
236.922
339.9
429.929
513.067
534.953
465.907
360.575
285.99
251.763
266.624
313.003
348.088
348.867
326.966
288.971
251.518
221.122
217.212
234.316
238.606
245.163
266.833
312.128
359.732
373.077
366.905
346.417
317.332
286.657
262.069
244.14
238.588
256.265
279.709
298.264
332.29
365.323
380.217
378.945
357.822
320.357
267.776
235.1
222.104
233.596
260.432
283.115
289.807
277.115
263.215
260.986
266.24
266.875
252.29
233.866
224.426
214.691
208.123
208.985
217.749
221.757
221.776
218.817
216.47
213.279
206.924
210.651
222.96
226.003
234.168
248.042
254.616
251.953
250.17
248.676
240.866
225.619
216.109
211.799
210.754
213.545
230.059
241.363
240.608
238.816
234.582
227.539
226.298
248.614
296.19
327.422
334.662
339.042
335.531
331.206
344.442
355.774
356.413
365.192
368.883
355.123
326.617
289.67
258.546
247.124
275.381
330.839
383.403
423.123
135.908
253.735
276.989
272.373
274.503
275.307
267.247
256.776
245.294
231.868
215.8
205.841
207.949
205.434
185.28
150.28
121.462
112.414
124.369
150.778
156.368
145.382
132.052
120.065
112.472
116.366
122.026
121.126
114.745
107.902
102.859
101.214
103.295
110.855
122.474
135.436
140.186
138.557
134.588
135.051
141.983
147.801
155.11
163.201
172.716
177.69
177.478
172.225
153.875
138.856
132.924
128.906
123.584
121.388
122.549
122.068
122.204
124.544
124.586
122.686
116.449
104.265
91.6427
86.5798
90.2796
100.542
106.453
106.556
104.369
101.085
101.416
110.337
114.854
112.993
109.548
106.607
106.04
111.497
117.683
122.123
124.781
124.558
127.571
139.905
161.233
186.925
199.786
204.704
203.531
191.239
164.472
142.747
139.706
155.212
167.57
168.287
164.268
149.784
130.237
117.708
110.586
108.987
109.372
119.193
136.325
162.476
192.175
219.675
257.971
287.957
263.365
244.594
253.619
249.333
225.066
175.641
121.337
80.2028
53.6057
36.0866
24.2398
17.2388
14.6451
14.9822
16.843
21.2912
31.0379
52.199
98.4881
180.902
238.784
215.94
166.338
150.59
184.313
228.701
276.449
332.485
311.131
232.739
166.323
128.23
112.087
115.928
129.493
139.698
144.626
145.633
135.703
115.243
101.36
103.368
109.37
109.259
117.967
133.9
153.934
166.83
170.097
171.615
166.981
151.687
130.237
111.17
104.019
105.244
112.752
120.188
127.843
138.086
147.61
153.136
151.859
144.462
127.811
109.405
98.2441
97.8421
110.607
126.691
136.986
134.244
126.238
121.381
120.231
125.92
125.619
120.588
118.477
118.589
118.282
117.485
115.231
110.3
105.404
103.374
103.206
103.019
99.1663
95.7927
97.7177
102.292
106.424
114.966
122.974
124.992
126.671
128.566
129.816
127.567
124.671
119.587
113.215
105.878
106.039
112.394
112.951
114.512
117.948
117.687
115.296
116.807
131.841
146.256
156.915
165.764
171.112
170.231
171.466
174.262
172.93
171.714
175.227
175.146
169.358
154.956
142.492
145.011
181.162
247.944
296.887
311.829
14.7656
64.9323
92.2517
101.426
99.9648
98.3597
97.2629
94.7273
86.2675
76.8385
67.43
64.199
68.7849
69.9424
67.8132
60.3638
48.2049
45.8103
50.5452
60.8357
61.6298
60.5374
55.2719
49.8165
49.8202
54.6881
60.5395
61.1019
59.9574
57.5764
52.38
44.9021
39.5248
36.8404
37.9873
43.772
48.0499
48.1809
48.0106
48.2356
49.3633
50.3334
51.2176
53.1956
56.1848
59.3841
63.2983
64.5279
61.3569
56.6485
55.6205
54.6149
49.7685
46.1729
44.8335
43.8734
43.4737
43.0363
43.0674
43.0662
41.9269
38.4269
32.8764
28.491
28.3839
35.2239
38.9753
40.839
40.6922
39.4378
38.2222
37.8322
39.0269
39.7919
39.932
39.6709
39.1987
39.5044
40.2946
40.0539
39.8436
39.4212
38.4679
38.9857
43.8251
50.4388
57.5487
76.0561
90.3473
90.0335
80.6072
73.0136
62.5345
58.383
57.2152
56.3278
55.5942
51.9567
45.2707
38.2402
33.0466
30.8341
30.9602
33.7634
41.5287
62.0956
104.155
172.707
263.748
348.72
378.285
359.873
319.449
265.136
203.84
139.779
89.8238
57.2101
36.9429
23.6616
15.2715
10.3934
8.32902
8.44057
9.29297
11.7421
17.1502
29.1383
57.6872
112.142
176.779
201.17
186.35
152.322
125.706
121.278
133.004
156.688
156.855
132.515
99.3913
70.8446
50.1051
39.1252
38.0452
40.6818
43.6142
45.4913
46.1603
47.7388
46.9812
55.2668
78.9466
84.4725
80.0707
69.3244
62.5913
58.8752
55.6222
55.0775
54.4832
52.4787
48.4961
44.332
41.4521
41.4499
41.3962
40.5963
40.1866
41.0817
45.0998
50.0472
52.7173
52.8898
51.3907
45.9192
38.5749
33.0741
34.2292
42.3295
50.0322
52.3404
50.5247
47.718
45.2882
44.9068
44.5804
42.227
41.234
42.7263
43.7601
44.7305
44.494
42.1011
38.8613
36.4855
34.5489
33.5579
32.5678
30.7557
30.9988
34.452
36.5706
37.8446
39.986
42.8747
48.4205
53.2008
55.3443
55.3545
55.08
53.7665
51.4854
48.4453
45.6587
44.8539
44.6567
44.5438
44.5519
43.8766
42.2587
39.3894
38.3889
39.3115
42.9317
45.9878
48.7874
49.9005
49.9349
50.3067
50.4172
50.2165
50.4048
52.8406
54.0713
53.4924
50.9894
50.2587
58.3217
92.286
134.222
148.031
0.324256
10.287
23.3486
30.684
33.5679
33.545
32.8077
32.3178
28.7544
23.4712
18.492
16.2607
17.1259
20.4935
21.0916
20.2173
23.1458
31.0163
31.2802
35.1319
44.0717
40.2483
33.3996
26.364
21.5245
19.6214
19.8127
20.0252
18.8168
18.021
17.2567
15.6098
13.3909
11.2005
10.0266
10.0646
11.2291
12.1957
12.0277
12.1301
12.8978
13.5075
14.0833
15.5448
18.0544
20.2503
23.0485
26.8672
29.1469
27.4716
24.4462
24.3221
23.7177
24.2837
24.0807
22.3177
20.0229
17.772
16.2651
15.471
15.6967
14.1532
12.4739
11.5422
11.6212
15.5577
21.643
28.5623
28.4897
21.9082
18.3796
16.933
15.4372
14.6987
14.1208
12.8585
11.5775
11.001
10.8857
10.7982
10.7292
10.9487
11.1907
10.5819
10.2954
12.5274
17.3132
23.3898
31.9906
35.1112
35.3705
32.2617
26.1006
24.2794
22.7262
20.1128
18.6229
17.9115
17.8115
16.0394
13.1741
10.9374
9.60667
10.4485
21.2448
52.2466
78.6362
121.225
196.167
285.412
352.364
338.409
281.448
208.426
138.879
87.9417
55.4106
35.0249
21.5299
12.9947
8.05365
5.29455
3.75445
3.73526
4.2159
5.2276
7.3365
12.1313
25.4576
52.6201
96.2664
136.036
153.21
149.76
140.921
133.407
118.69
102.118
105.587
95.0724
67.9008
42.8067
24.261
14.5022
11.421
11.0452
11.1894
13.3008
16.3825
23.0848
35.5615
53.7778
66.3424
65.3699
55.8102
42.932
31.9737
24.9919
20.8053
18.3782
16.9829
15.2506
13.1828
11.1933
10.8038
11.6351
12.5594
13.3087
12.7841
12.5276
12.6517
13.5501
15.7623
17.4784
17.0409
15.4815
12.8134
12.7043
15.2503
15.8193
19.022
24.8988
24.6619
22.6258
20.0187
18.2274
16.9305
15.5131
14.7543
14.5182
15.0915
16.9085
17.3311
17.0143
16.2556
15.2479
14.3577
14.8449
15.6661
16.609
18.8317
21.6087
23.9845
24.6255
24.9144
27.8443
35.2165
44.9742
56.4979
64.5514
68.1351
68.9914
67.3405
61.6594
61.8329
61.0412
57.8346
53.6228
49.5139
43.8326
36.5994
29.7431
23.7526
19.1475
15.6934
14.1238
13.0657
12.3654
12.0319
11.6056
11.5399
11.4855
11.5508
12.0279
12.7983
13.3077
13.6861
13.4901
13.9228
18.9835
34.3951
47.9269
0.0656049
2.68819
9.68967
13.4741
14.4362
14.1437
13.2414
12.3719
11.4293
10.065
8.19563
6.79883
6.89823
7.30192
7.27126
8.33342
13.0141
22.0951
26.1329
27.8012
25.4626
22.3884
19.9166
16.3396
12.7694
10.3878
8.80156
7.72121
6.59374
6.18669
5.99376
5.67466
5.34334
4.68979
4.05809
3.49532
3.21833
3.2788
3.41924
3.61469
4.1562
4.92237
5.5605
6.11693
7.24699
10.1732
13.9347
14.8802
15.0485
14.9181
13.9297
15.6911
16.0795
15.9011
19.0294
20.1468
19.6931
17.8456
16.4101
15.1894
11.6082
8.58438
7.38696
7.34321
8.47531
12.0314
16.3375
16.6843
15.3477
12.4379
10.6537
10.4751
10.008
9.09541
7.65194
6.07081
4.95384
4.60071
4.64111
4.86372
5.17892
5.25464
5.13881
5.10335
5.4512
7.60334
11.6473
13.7644
15.5683
16.2757
17.3233
16.7746
16.6214
17.2854
17.3477
15.1717
14.0392
13.0714
12.8329
12.262
10.7751
8.81119
7.45445
9.93408
28.2492
65.3607
70.6285
70.7222
76.9985
83.9522
94.3321
91.7544
79.7614
63.9931
49.7805
36.6599
26.0357
17.4901
11.249
7.23373
4.69468
3.15042
2.32136
2.30166
2.58068
2.82848
3.1427
4.24723
7.7854
19.1578
38.725
66.8558
85.5264
89.6111
89.8754
89.6483
81.8163
69.9754
78.9606
72.5058
49.4465
29.077
16.0454
9.808
6.72254
5.30628
4.68906
5.08844
7.45926
11.3524
18.9633
26.8136
37.8889
40.4567
34.5335
27.0052
19.8805
14.4952
11.1399
9.06052
7.34922
5.65135
4.1193
3.53806
3.76751
4.15604
4.58929
5.3481
6.14669
6.64828
6.53302
6.43982
6.12479
5.99978
5.62975
4.99309
4.56658
5.42
7.20173
7.28938
7.63659
8.1947
8.21103
8.22256
8.60948
9.45185
10.5689
11.5539
11.5952
11.9158
11.394
11.2902
11.8222
12.5844
13.29
13.0245
11.6271
10.0661
9.0687
8.87256
9.1476
10.6024
13.199
14.732
14.9696
16.402
22.5834
30.4835
40.6697
47.5119
49.6551
49.9012
49.6681
49.4828
49.4829
47.3968
41.7031
36.216
32.6495
28.7844
24.3955
20.0432
16.0942
12.8052
11.0423
9.59083
8.0016
6.49922
5.3817
4.5346
4.17643
4.01318
4.14688
4.54121
4.98498
5.29691
5.22564
5.00368
4.53031
4.22873
5.16194
9.02447
0.0269591
1.26351
6.68607
10.1174
10.9262
10.8782
10.4481
10.2868
9.45371
8.8217
7.46953
6.08708
5.6872
5.64782
5.03752
4.84072
6.25438
10.585
14.1205
16.7731
14.3049
12.7107
11.6241
10.399
8.85709
7.47696
6.77769
5.73897
4.62122
3.59874
3.28891
3.23764
3.21759
3.01765
2.77594
2.50495
2.28596
2.1274
2.09514
2.4441
3.01243
3.31633
3.8413
4.21684
4.36822
4.74904
6.01122
7.5216
9.28625
11.2042
11.1878
10.63
10.9288
12.0302
18.1515
21.4955
21.4989
20.6416
17.715
13.8494
9.63751
6.57206
5.22841
4.89056
4.96977
5.62261
7.65058
8.40596
8.14643
7.38552
6.50388
5.61629
5.16731
4.67536
4.14386
3.72753
3.65924
3.80691
4.16507
4.83864
5.36533
5.31314
4.98456
4.56903
4.51761
5.44682
6.81857
8.64634
10.0786
9.91197
10.2728
10.5859
12.4542
12.9214
12.5616
12.1975
12.2703
12.9848
12.5742
11.0585
8.9801
6.81613
6.07167
8.48824
21.9656
43.3153
54.669
54.3405
43.3724
36.838
37.3499
41.0079
41.0777
39.7752
36.2047
29.4349
22.0504
15.6278
10.5477
7.08802
4.93325
3.75388
3.02275
2.72135
2.75654
2.4833
2.32466
2.40988
2.89755
5.09101
12.1635
23.9648
37.961
46.4722
49.0662
48.7832
48.0344
48.0183
43.2879
36.1753
29.2131
21.5429
13.5791
8.94788
6.25229
4.68261
3.96135
3.87978
5.03237
6.551
9.54809
13.0404
16.4199
18.4111
19.086
17.5596
13.5648
10.1905
8.20361
6.86244
5.52738
4.02725
2.69589
2.3539
2.57312
2.80878
3.02079
3.25224
3.44337
3.62033
3.62822
3.4013
3.04487
2.66734
2.42985
2.42755
2.61326
2.9621
3.38075
3.64133
4.04041
4.25726
4.14991
3.90967
3.67724
3.72283
4.23339
5.21792
6.55406
8.12423
8.91667
9.89017
10.9846
11.4491
11.6098
11.4292
11.1204
10.6588
9.5014
9.76143
11.311
13.9348
15.946
15.9413
15.1313
13.9759
13.7218
15.0951
18.5792
21.7541
25.2512
26.8964
29.975
31.5866
29.577
26.533
23.8588
20.1762
17.3739
14.9285
13.1296
11.7259
10.534
9.27086
8.20129
7.64937
7.12544
6.1842
5.68199
5.31254
5.13766
5.12585
5.60698
6.12401
6.16239
6.00935
5.3311
4.59489
3.8865
3.11314
2.63827
2.82971
0.0144652
0.691432
5.16201
9.02831
10.7697
11.2664
10.7858
10.1051
9.34911
8.42876
7.44157
6.14487
5.55425
5.22833
5.08731
5.06942
6.23629
8.8665
11.1739
12.0145
12.4009
12.4483
11.4599
10.6882
9.01618
7.85221
6.9806
5.85994
4.36831
3.05332
2.66061
2.63656
2.61343
2.49178
2.36866
2.24947
2.14144
2.08769
2.05661
2.15197
2.46528
3.07927
3.67802
4.38973
5.61648
6.66655
8.09668
8.57543
9.05009
9.82052
10.2265
10.4754
11.1955
12.5302
16.0866
18.9805
19.7734
18.8348
16.0869
12.9359
8.85301
5.73905
4.87034
4.66794
4.43328
4.05309
3.73397
3.53795
3.44889
3.2496
3.18776
3.09743
3.00047
3.01702
3.31089
3.3641
3.51015
4.07881
4.6475
4.9511
4.8641
4.80197