/*--------------------------------*- C++ -*----------------------------------*\
  =========                 |
  \\      /  F ield         | OpenFOAM: The Open Source CFD Toolbox
   \\    /   O peration     | Website:  https://openfoam.org
    \\  /    A nd           | Version:  7
     \\/     M anipulation  |
\*---------------------------------------------------------------------------*/
FoamFile
{
    version     2.0;
    format      ascii;
    class       volScalarField;
    location    "50";
    object      k;
}
// * * * * * * * * * * * * * * * * * * * * * * * * * * * * * * * * * * * * * //

dimensions      [0 2 -2 0 0 0 0];

internalField   nonuniform List<scalar> 
96800
(
0.000818471
0.000816
0.000814566
0.000817606
0.000822002
0.00082541
0.000827166
0.000827557
0.00082689
0.00082508
0.00082405
0.00082361
0.000821609
0.000820479
0.00082284
0.000827165
0.000831008
0.000831947
0.000830753
0.000831472
0.00083599
0.000843657
0.00082571
0.000823832
0.000819578
0.000819985
0.000822555
0.000825033
0.000826242
0.000826281
0.000825451
0.000823884
0.000823345
0.000822878
0.000820891
0.00081972
0.00082154
0.00082555
0.000829547
0.000830931
0.000830217
0.000831651
0.000837379
0.000844625
0.000838116
0.0008344
0.000824999
0.000820323
0.000819127
0.000819332
0.000819664
0.000819447
0.000818482
0.000817456
0.000817461
0.000817227
0.000815763
0.000814569
0.000815579
0.00081862
0.000822111
0.000823845
0.000824002
0.000826534
0.000834564
0.000844271
0.000847564
0.000842457
0.000829609
0.000821397
0.000817334
0.000815501
0.000815063
0.000814968
0.000814309
0.000813683
0.000813645
0.000813721
0.000813169
0.000812554
0.000812983
0.000814662
0.000816676
0.000817621
0.000818129
0.000821362
0.000831073
0.000843302
0.000851298
0.000845406
0.000831001
0.000821651
0.000816656
0.000813964
0.000812909
0.000812847
0.000812637
0.000812098
0.000811653
0.000811758
0.00081214
0.000812689
0.000813105
0.000813549
0.000813584
0.000813039
0.000813166
0.00081661
0.000827207
0.00084082
0.000851624
0.000844972
0.000829669
0.000820366
0.000815852
0.000813318
0.000811924
0.000811511
0.000811546
0.000811058
0.00081013
0.00080999
0.000811163
0.000812955
0.000814013
0.000813842
0.000812309
0.000810405
0.000809859
0.000813268
0.000823993
0.000837934
0.000851924
0.000844072
0.000827314
0.000817924
0.000814157
0.000812111
0.000810694
0.000810285
0.00081072
0.000810696
0.000809603
0.00080901
0.00081038
0.00081294
0.00081477
0.000814556
0.000812546
0.000810406
0.000809834
0.000813087
0.00082371
0.000838232
0.000854489
0.000845026
0.00082585
0.000815494
0.000811833
0.000810101
0.000808902
0.000808907
0.000810065
0.000811011
0.000810534
0.000809772
0.000810698
0.000813225
0.000815263
0.000815359
0.000813845
0.00081218
0.000812026
0.000815902
0.000828124
0.000845087
0.000858828
0.000847933
0.000826207
0.000814313
0.000810056
0.000808382
0.000807526
0.00080766
0.000809142
0.000811067
0.000811943
0.000811946
0.000812446
0.000814158
0.000815848
0.000816045
0.000814634
0.000813126
0.000813434
0.00081846
0.000833627
0.000854138
0.000862466
0.000850614
0.000827114
0.000814061
0.000809442
0.000807928
0.000807215
0.000807152
0.000808424
0.000810821
0.000813084
0.000814486
0.000815015
0.000815309
0.000815887
0.000815518
0.000813761
0.000812131
0.000812536
0.00081848
0.000835703
0.000858318
0.000864773
0.000852072
0.00082748
0.000813966
0.000809687
0.000808601
0.000807931
0.000807585
0.00080853
0.000811224
0.00081452
0.000816814
0.000817361
0.000816524
0.000815465
0.000813797
0.000811603
0.00081011
0.000810711
0.000816937
0.000834386
0.00085695
0.000868454
0.000854082
0.000827519
0.000813624
0.000809933
0.000809485
0.000809168
0.000808781
0.000809394
0.00081191
0.000815671
0.000818391
0.000818788
0.000817139
0.000814361
0.000811355
0.000809003
0.000808078
0.000809246
0.000815744
0.000833195
0.000855424
0.000871793
0.000856226
0.000827841
0.000813585
0.000810256
0.000810433
0.000810654
0.00081055
0.000811053
0.000812935
0.000815882
0.000817945
0.000817948
0.000816017
0.000812758
0.000809397
0.000807208
0.000806691
0.000808322
0.000815583
0.000834133
0.000857597
0.000873239
0.000856938
0.000828638
0.000814747
0.000811749
0.000812218
0.000812897
0.00081312
0.000813385
0.000814033
0.000814874
0.000815192
0.000814779
0.000813719
0.000811701
0.000809369
0.00080776
0.000807081
0.000808608
0.000816434
0.000836061
0.000860776
0.00087102
0.000856126
0.000829747
0.000816738
0.000813923
0.000814401
0.000815238
0.000815609
0.000815434
0.00081456
0.000813275
0.000812198
0.000811858
0.000811924
0.000811572
0.000810705
0.000809758
0.000809106
0.000810461
0.00081846
0.000838723
0.000864217
0.000874184
0.000858965
0.000832594
0.000819047
0.000815401
0.000815199
0.00081577
0.00081631
0.000815941
0.000814201
0.000811895
0.00081053
0.000810643
0.000811363
0.00081174
0.000811525
0.000811289
0.000811335
0.000813245
0.000821745
0.000843354
0.000870945
0.000885029
0.000867848
0.000837721
0.000821473
0.000816198
0.000814784
0.000814421
0.000814606
0.000814272
0.000812695
0.000810665
0.000809801
0.000810404
0.000811493
0.000811852
0.000811543
0.000811817
0.000812893
0.000815895
0.000825453
0.000849409
0.000880366
0.000896416
0.000876121
0.000841533
0.000822462
0.000815854
0.000813614
0.000812589
0.000812297
0.000811871
0.00081088
0.000809821
0.000809729
0.000810666
0.000811709
0.00081211
0.000812062
0.000812624
0.000814492
0.000818184
0.000828462
0.000854783
0.000889711
0.00089708
0.000876235
0.000840498
0.000820777
0.000814031
0.000812159
0.000811882
0.000811815
0.000811339
0.000810698
0.000810353
0.000810645
0.000811592
0.000812358
0.000812832
0.000813416
0.00081458
0.000816719
0.000820267
0.0008305
0.000858532
0.000897099
0.000892798
0.000872372
0.000837447
0.000818295
0.000812135
0.000811544
0.000812756
0.000813859
0.000813904
0.000813124
0.000812722
0.000812937
0.000813573
0.000814074
0.000814469
0.000815181
0.000816567
0.000818388
0.000821251
0.000831106
0.00085986
0.00090046
0.000895533
0.000873481
0.000837458
0.000817792
0.000811856
0.000812233
0.000814556
0.000816791
0.000817784
0.00081743
0.000816722
0.000816544
0.000816372
0.00081603
0.000816072
0.000816553
0.000817482
0.000818519
0.000820644
0.000830233
0.00085947
0.000900859
0.00090778
0.000882045
0.000841984
0.000820356
0.000814185
0.0008144
0.000816545
0.000819248
0.000821221
0.000821876
0.000821275
0.00082032
0.000818865
0.000817167
0.00081654
0.000816891
0.000817351
0.000817615
0.000819519
0.000829662
0.000859453
0.000901199
0.000924077
0.000894846
0.000849739
0.000825664
0.00081869
0.000818183
0.000819176
0.000821105
0.000823327
0.000824587
0.000824655
0.000823386
0.000820945
0.000818343
0.000816931
0.000816798
0.000816926
0.000816939
0.000819202
0.000830419
0.00086118
0.000903864
0.000944442
0.000911302
0.000860452
0.000833435
0.000825133
0.000823842
0.000823824
0.00082398
0.00082483
0.000825823
0.000826416
0.00082578
0.000823511
0.000820661
0.0008185
0.000817723
0.000817583
0.000817808
0.000820911
0.000833442
0.000866163
0.00091163
0.000971137
0.000933397
0.000875563
0.000844507
0.000833847
0.000831333
0.000830342
0.000828828
0.000828093
0.000828393
0.000828932
0.00082891
0.000827558
0.000825175
0.000822509
0.000821066
0.000820856
0.000821413
0.000825194
0.000839035
0.000874927
0.00092489
0.00100491
0.000962053
0.000895362
0.000857833
0.000843995
0.000839857
0.000838341
0.000836366
0.000834574
0.000834272
0.000834499
0.000834015
0.000832943
0.000831381
0.000829029
0.000827379
0.000826968
0.000827492
0.000831117
0.000845752
0.00088514
0.00094038
0.00104809
0.0009995
0.000920024
0.000873316
0.000854985
0.000848735
0.000846416
0.000844834
0.000843253
0.000842554
0.000842191
0.000841054
0.000839672
0.000838423
0.000836861
0.000835615
0.000834672
0.000834666
0.00083769
0.00085231
0.000894024
0.000953913
0.00110852
0.00104916
0.000949789
0.000890624
0.000867235
0.00085899
0.000855907
0.00085443
0.000852758
0.000851411
0.000850387
0.000849171
0.000848084
0.000847081
0.000846409
0.000845771
0.000843839
0.000842533
0.00084466
0.000859203
0.000903417
0.000968468
0.00117271
0.00110147
0.000981179
0.000909122
0.000881199
0.00087169
0.000868059
0.000866095
0.000864101
0.000862092
0.000860257
0.00085867
0.000858037
0.000857637
0.000857682
0.000857641
0.00085545
0.000852439
0.00085318
0.000867794
0.000915712
0.000987436
0.0012228
0.00114359
0.00101058
0.000929922
0.000898437
0.000888051
0.000883901
0.00088134
0.000879554
0.000877469
0.000874718
0.000872141
0.000870809
0.00087038
0.000870576
0.000870532
0.000868536
0.000865109
0.000865066
0.000879814
0.00093238
0.00101265
0.00127795
0.00119422
0.00105032
0.000959783
0.000923467
0.000911071
0.000905731
0.000902077
0.000899519
0.000897574
0.000894698
0.000891435
0.000889063
0.000887755
0.000887203
0.00088608
0.000883727
0.000881269
0.000881618
0.000897049
0.000956422
0.00105037
0.00139565
0.00130111
0.00112694
0.00101019
0.000961524
0.000944904
0.000937577
0.000932233
0.000927432
0.000924202
0.000920882
0.000917086
0.000913733
0.00091144
0.000909674
0.000906954
0.000903714
0.000901585
0.000902589
0.000919688
0.000987583
0.00109844
0.00159991
0.00148367
0.00125641
0.00109219
0.00101945
0.000994609
0.000984233
0.00097663
0.000969547
0.00096316
0.00095708
0.000951361
0.000946517
0.000942978
0.000939926
0.000935584
0.000931096
0.000927923
0.000928801
0.00094753
0.00102357
0.00115036
0.00186467
0.00172367
0.00144023
0.00121686
0.00110662
0.00106603
0.0010505
0.00104043
0.00103058
0.00102011
0.00100954
0.00099954
0.0009911
0.000984818
0.000979128
0.000972938
0.000967174
0.000962566
0.000962427
0.000982115
0.00106648
0.00121102
0.0021853
0.00202375
0.00169299
0.00140591
0.00124164
0.00117256
0.00114518
0.00112926
0.00111485
0.00109949
0.00108327
0.00106706
0.00105263
0.00104118
0.00103105
0.00102218
0.00101445
0.00100773
0.00100594
0.0010263
0.00112041
0.00128621
0.00259303
0.00241689
0.00204136
0.0016883
0.00145517
0.00133818
0.00128645
0.00125713
0.00123318
0.00120971
0.00118564
0.00116182
0.00113915
0.00111897
0.00110183
0.00108804
0.00107688
0.00106686
0.00106177
0.00108155
0.00118625
0.00137692
0.00314139
0.00294578
0.00251909
0.00209331
0.0017803
0.00159526
0.00150234
0.00144938
0.00140782
0.00136889
0.00133061
0.00129393
0.00125907
0.00122639
0.00119802
0.00117582
0.00115853
0.00114338
0.00113473
0.00115149
0.0012649
0.00148345
0.00389116
0.00366812
0.00317832
0.00266412
0.00225899
0.00198495
0.00182378
0.00173057
0.00166217
0.0015981
0.00153638
0.0014771
0.00142188
0.00137174
0.00132792
0.00129175
0.00126477
0.00124326
0.00123
0.00124309
0.00136305
0.00160389
0.0048978
0.00464602
0.00407712
0.00344996
0.00293359
0.00255194
0.00229544
0.00213267
0.00201795
0.001918
0.00182317
0.00173231
0.00164757
0.0015716
0.00150617
0.00144849
0.00140338
0.00137149
0.00135237
0.00136044
0.00148666
0.00174414
0.00622711
0.00594798
0.00527853
0.00450646
0.00384701
0.00333524
0.00296554
0.00270859
0.00252059
0.00236161
0.00221509
0.00207977
0.00195577
0.00184325
0.00174704
0.00166365
0.00159357
0.00153986
0.00150579
0.00150892
0.00164518
0.00191708
0.0079581
0.00765802
0.00685854
0.00590541
0.00506661
0.00439721
0.00389325
0.00352131
0.00323247
0.00298475
0.00276135
0.00255936
0.00237686
0.002213
0.00207402
0.00195391
0.0018512
0.00177025
0.00170844
0.00169723
0.00184196
0.00214348
0.0101763
0.00986627
0.00893238
0.00775124
0.00670724
0.00585793
0.00518034
0.00464179
0.00420879
0.00384514
0.00352709
0.00323631
0.00296983
0.00272692
0.00251512
0.00234115
0.00219311
0.00207762
0.00198182
0.0019462
0.00209637
0.00243631
0.0129637
0.0126969
0.0116698
0.010214
0.00897102
0.00789431
0.0069705
0.00621379
0.00558861
0.00506723
0.0046187
0.00419535
0.00380989
0.00345729
0.00313619
0.00287573
0.00266581
0.00249505
0.00234101
0.00227021
0.00242325
0.00282182
0.0164819
0.0163024
0.0152523
0.0135725
0.0120999
0.0107071
0.00950392
0.00850271
0.00761679
0.00683907
0.00613672
0.00548194
0.00492108
0.00441851
0.00397817
0.00359823
0.00329382
0.00308363
0.00286504
0.00270923
0.00283994
0.00331701
0.0208977
0.0209594
0.0200922
0.0181986
0.0164029
0.0147508
0.0132452
0.0118771
0.0105673
0.00939406
0.00831801
0.00734136
0.00649413
0.0057559
0.00513299
0.00461624
0.00414071
0.00381019
0.00353094
0.00333266
0.00339954
0.00394376
0.0267729
0.0272531
0.0267239
0.0246506
0.022752
0.0207344
0.0185666
0.0165165
0.0146227
0.0129518
0.0113847
0.0100137
0.00879208
0.00772085
0.00679942
0.00609229
0.00542864
0.00482253
0.00439566
0.00410185
0.00416753
0.00474038
0.0348024
0.0361008
0.0361905
0.0343206
0.0320658
0.0290224
0.0259567
0.0230808
0.0203375
0.0177036
0.015357
0.0134688
0.0118092
0.0103636
0.00900577
0.00789057
0.00701862
0.00632875
0.00567313
0.00513739
0.00516396
0.00578538
0.0458674
0.0488073
0.0502242
0.048464
0.04462
0.0405298
0.0364005
0.0320929
0.0280343
0.024326
0.0211263
0.0184967
0.0160789
0.0139947
0.0121424
0.010503
0.00913247
0.00815716
0.00744462
0.00661581
0.00658042
0.00712921
0.0615436
0.0668384
0.0704041
0.0676847
0.0615992
0.0560284
0.0500136
0.0437953
0.0384315
0.0334527
0.0290226
0.0253205
0.0218126
0.0188528
0.0165309
0.0146188
0.0124387
0.0107874
0.00980008
0.00877756
0.00870753
0.00905337
0.0834604
0.0922383
0.0981912
0.0937088
0.0846035
0.0762764
0.0674354
0.0590858
0.0519755
0.0452632
0.0394003
0.0345866
0.0298916
0.0259238
0.022583
0.0197249
0.017413
0.0150331
0.0129354
0.0113152
0.0115261
0.0122079
0.113802
0.127277
0.135047
0.129286
0.115681
0.102347
0.0902134
0.0784058
0.0686091
0.0601475
0.0531644
0.0468753
0.0406721
0.0354685
0.0313658
0.02714
0.0232672
0.020752
0.0181364
0.0156694
0.015572
0.0167367
0.15502
0.175097
0.18374
0.177223
0.155088
0.132571
0.114385
0.0986198
0.0864508
0.0759084
0.0666694
0.0587158
0.0518904
0.0461225
0.0408444
0.0366431
0.0321003
0.0277652
0.024521
0.0222549
0.0226873
0.0241739
0.210494
0.238689
0.246543
0.229968
0.193953
0.159403
0.136644
0.119173
0.104861
0.0919995
0.0809567
0.0724357
0.0651364
0.0585236
0.0525735
0.0470883
0.0423601
0.0375435
0.0336652
0.0300494
0.0327807
0.0391064
0.283532
0.321125
0.315793
0.275668
0.228089
0.188672
0.165039
0.148058
0.133331
0.119154
0.106688
0.0965202
0.0875989
0.0788573
0.0693511
0.0606001
0.0543244
0.0498721
0.0460981
0.0425511
0.0476416
0.0634454
0.371474
0.416991
0.384312
0.325791
0.271985
0.22992
0.206909
0.189452
0.172255
0.154501
0.137586
0.124199
0.113131
0.103934
0.0971429
0.0891492
0.0765581
0.065704
0.060154
0.0593941
0.0717755
0.101864
0.471807
0.519866
0.458781
0.388869
0.325224
0.286103
0.267584
0.247445
0.229276
0.207386
0.183872
0.162577
0.143726
0.128106
0.116743
0.110347
0.105158
0.094822
0.0845946
0.0853478
0.114344
0.167058
0.584864
0.634927
0.546936
0.460127
0.398331
0.374225
0.355096
0.331679
0.30809
0.277733
0.246074
0.215129
0.185491
0.1624
0.146075
0.132483
0.12472
0.119296
0.113455
0.123338
0.185076
0.273318
0.710168
0.769166
0.652305
0.56051
0.515067
0.4994
0.475885
0.44398
0.412029
0.375185
0.335871
0.296761
0.257562
0.222158
0.194865
0.177234
0.162782
0.149
0.144611
0.165936
0.275648
0.422813
0.855686
0.928389
0.788157
0.707673
0.686824
0.667274
0.63884
0.603464
0.565524
0.516348
0.461551
0.405574
0.350958
0.299384
0.254384
0.229395
0.212905
0.192371
0.186954
0.222351
0.385345
0.615452
1.03922
1.12474
0.969395
0.913552
0.914767
0.911553
0.89666
0.852542
0.785774
0.705228
0.627031
0.550528
0.478086
0.411208
0.348803
0.29878
0.271597
0.255558
0.245111
0.299379
0.545126
0.858811
1.28426
1.3845
1.22339
1.21623
1.28172
1.3072
1.28271
1.19345
1.07423
0.946491
0.828565
0.727576
0.640271
0.566786
0.497938
0.435105
0.38052
0.346283
0.336279
0.421428
0.768345
1.17502
1.62301
1.75126
1.62886
1.73921
1.87994
1.88904
1.7981
1.63169
1.438
1.24012
1.06605
0.930381
0.817154
0.727438
0.653478
0.593734
0.546627
0.508495
0.499321
0.611035
1.08008
1.60474
2.15788
2.33646
2.3477
2.60632
2.76564
2.70647
2.48574
2.17959
1.87316
1.58914
1.35121
1.16325
1.01335
0.897706
0.815574
0.765747
0.730275
0.707466
0.733663
0.915356
1.56409
2.25608
3.17228
3.43405
3.63166
3.94125
3.98695
3.72043
3.26139
2.75753
2.30963
1.92008
1.60539
1.36897
1.20548
1.08292
0.985499
0.936833
0.949464
0.99153
1.07777
1.44247
2.39259
3.24844
5.12822
5.50591
5.76206
5.73352
5.40653
4.76494
4.00174
3.26832
2.64279
2.13306
1.76363
1.50673
1.35041
1.25169
1.18361
1.14411
1.18366
1.38376
1.70795
2.43098
3.7208
4.97149
8.57067
9.12324
8.48881
7.6516
6.70263
5.64669
4.52881
3.55781
2.80439
2.2379
1.84543
1.58286
1.42868
1.34686
1.31088
1.33276
1.47191
1.824
2.53192
3.83994
5.47381
7.41266
37.1765
30.8909
22.853
16.1782
11.8397
9.75357
9.09429
9.11061
9.22519
9.20376
9.10501
9.05009
8.94819
8.5172
7.67965
6.74476
6.15342
6.21645
6.61257
6.69216
6.55728
6.3382
6.2537
6.38658
6.75795
7.02244
7.00293
6.8474
6.57704
6.49376
6.67014
6.76291
6.82904
7.07341
7.482
7.63115
7.51233
7.34168
7.23186
7.12732
7.07873
7.11117
7.25461
7.44895
7.72177
8.02466
8.22929
8.18567
7.96129
7.81912
7.76474
7.78748
7.83324
7.90215
7.87072
7.76661
7.80934
7.80936
7.63506
7.17415
6.56435
6.0376
5.84977
6.01919
6.08665
5.92921
5.62623
5.58462
5.76241
6.03927
6.4539
6.79289
7.01075
7.12867
7.23413
7.27754
7.33563
7.53892
7.7097
7.73028
7.69904
7.67668
7.91819
8.4434
8.80467
8.86659
8.79906
8.68878
8.40358
8.06527
7.64793
7.40201
7.574
7.84974
7.78803
7.39339
6.77843
6.18944
5.85414
5.84614
6.2963
6.96883
7.61586
8.27614
8.84174
9.20954
9.50014
10.0561
11.1619
12.4076
12.0315
11.5235
10.0985
8.6134
7.25213
5.94741
4.62624
3.54936
2.75862
2.18123
1.76898
1.5004
1.36337
1.32408
1.32015
1.38738
1.64277
2.19405
3.31786
5.22856
7.11714
8.13878
8.75095
9.26178
10.4219
11.2549
11.445
10.9667
9.72906
8.30666
7.31605
6.97715
7.34414
7.91473
8.09257
7.883
7.30398
6.57804
5.85789
5.29747
5.15652
5.37226
5.62895
5.8963
6.26368
6.81344
7.3537
7.50981
7.43097
7.13156
6.66019
6.30757
6.24545
6.36988
6.59444
6.91323
7.18784
7.43974
7.83351
8.28214
8.60338
8.65738
8.43864
7.87191
7.14918
6.68349
6.54337
6.75066
7.03633
7.2039
7.19804
7.06081
6.8803
6.75534
6.70911
6.6383
6.41621
6.205
6.06485
5.92796
5.87254
5.91923
6.06928
6.23454
6.31489
6.24261
6.08647
5.90605
5.75583
5.83873
6.083
6.24804
6.38997
6.52187
6.54962
6.53463
6.51997
6.4406
6.2321
5.97211
5.7798
5.70681
5.77554
5.92269
6.0925
6.13875
6.11993
6.0577
5.90563
5.71844
5.67105
5.93542
6.50531
6.99634
7.27246
7.42473
7.42554
7.40001
7.57964
7.91277
8.14873
8.25802
8.19849
7.94683
7.51043
6.95516
6.41958
6.17091
6.82518
9.06486
12.4278
15.5641
19.8254
24.2658
20.792
16.4639
13.5374
11.9789
11.385
11.2956
11.2281
11.0156
10.7346
10.7281
10.5898
10.0167
8.90335
7.66964
6.97352
7.22834
7.90144
8.03589
7.81746
7.40544
7.16214
7.19568
7.50333
7.78567
7.75757
7.54714
7.2232
7.15406
7.36089
7.43033
7.53859
7.82795
8.41722
8.70647
8.59012
8.45906
8.39844
8.41326
8.48361
8.53577
8.64941
8.81586
9.13586
9.43268
9.58056
9.40618
8.98396
8.78613
8.73799
8.67014
8.66304
8.74516
8.73431
8.65449
8.70414
8.65118
8.42465
7.96248
7.32901
6.69582
6.4391
6.57361
6.73621
6.64485
6.44016
6.45396
6.58887
6.84352
7.33236
7.68541
7.89154
7.93317
7.93441
7.91785
7.95832
8.18746
8.43959
8.54487
8.47795
8.42526
8.74454
9.48524
10.1206
10.5286
10.6165
10.5215
10.1579
9.51825
8.71409
8.31711
8.59413
9.21976
9.26316
8.87698
8.15232
7.37627
6.90172
6.83154
7.22725
7.80245
8.25923
8.89772
9.58979
10.3896
11.2566
12.1849
13.3157
13.5921
10.8096
9.75651
9.28501
8.09729
6.8719
5.56904
4.23404
3.16251
2.40822
1.85561
1.45774
1.2066
1.0946
1.10233
1.1832
1.32264
1.62217
2.25006
3.49413
5.33733
6.74381
6.6477
7.22218
9.48779
11.8982
13.4587
14.3612
14.0863
12.1779
9.90574
8.37922
7.76376
8.0148
8.6443
9.02829
8.94732
8.48399
7.7306
6.92737
6.31184
6.25402
6.53076
6.59441
6.731
7.18699
8.04143
8.84772
9.09667
8.98852
8.59611
7.99841
7.40929
7.08845
7.06694
7.23616
7.61494
7.90764
8.20743
8.68196
9.17642
9.52224
9.62035
9.34905
8.78943
7.93378
7.37948
7.19528
7.49059
8.03381
8.49157
8.61469
8.37798
8.06152
7.8547
7.77765
7.71906
7.51992
7.3215
7.21614
7.09379
7.0168
7.04468
7.15284
7.26663
7.34642
7.29596
7.18134
7.01303
6.77789
6.8253
7.07272
7.24666
7.44826
7.69061
7.87575
7.91456
7.93623
7.93241
7.76407
7.40579
7.11163
6.96962
6.94562
6.98577
7.20903
7.32055
7.28443
7.22255
7.08529
6.88159
6.79102
7.09017
7.83844
8.45035
8.79091
9.06075
9.07667
9.03956
9.27632
9.58566
9.76486
9.92318
9.92966
9.60089
8.98947
8.22871
7.55868
7.3515
8.19699
10.5199
13.6676
16.1841
6.67641
11.4211
11.9193
10.8371
9.72763
8.84986
8.15752
7.69975
7.30501
6.89467
6.48457
6.24752
6.26237
6.15873
5.65172
4.8749
4.33713
4.29999
4.66884
5.10905
5.12306
4.83279
4.60646
4.48485
4.45164
4.58281
4.69562
4.66274
4.50934
4.41485
4.35917
4.31221
4.29456
4.37452
4.60395
4.91059
5.07898
5.07924
5.06677
5.22352
5.41057
5.44892
5.50519
5.60917
5.78239
5.89943
5.91703
5.80986
5.45721
5.18123
5.07444
4.98999
4.87148
4.8239
4.84188
4.82423
4.81152
4.8053
4.74512
4.57063
4.29792
3.93454
3.63307
3.53203
3.5922
3.77665
3.8767
3.88652
3.88656
3.93021
4.08573
4.32201
4.4851
4.51741
4.51666
4.49704
4.47474
4.53261
4.63398
4.69772
4.71477
4.67884
4.72285
4.99712
5.47713
6.01741
6.32323
6.55197
6.61338
6.37522
5.76156
5.27772
5.21044
5.45898
5.56348
5.48812
5.24066
4.8299
4.38273
4.13974
4.05185
4.12112
4.24485
4.59402
5.21471
6.15486
7.27082
8.33384
9.35012
9.80251
8.92649
8.16335
7.8731
7.14313
6.08025
4.75314
3.48836
2.51933
1.85043
1.38201
1.04507
0.832625
0.757171
0.770854
0.85801
1.02158
1.33522
1.95191
3.09265
4.73333
6.07949
6.03498
5.6569
6.09815
7.47444
8.59218
9.4614
10.2392
9.39746
7.46062
5.84747
4.92397
4.54485
4.5942
4.79695
4.93226
4.96514
4.93696
4.61631
4.11924
3.87016
4.01116
4.20993
4.23748
4.46333
4.8203
5.20479
5.42175
5.46151
5.44595
5.24735
4.82956
4.39213
4.13991
4.20122
4.36374
4.47122
4.56714
4.67191
4.85416
5.08047
5.27609
5.28719
5.16163
4.81941
4.41421
4.17151
4.2165
4.59588
5.00023
5.24074
5.16849
4.95363
4.75348
4.63755
4.66053
4.66254
4.60512
4.65015
4.76435
4.812
4.79741
4.69618
4.53491
4.4376
4.40398
4.37435
4.31126
4.11299
3.99099
4.05246
4.22187
4.37741
4.5748
4.78273
4.91938
5.03692
5.12263
5.13703
5.04934
4.90643
4.70923
4.51775
4.33558
4.32995
4.41013
4.40289
4.42168
4.45463
4.41393
4.3001
4.27088
4.50613
4.82531
5.15713
5.45449
5.66214
5.66134
5.69858
5.78492
5.82482
5.89097
5.9233
5.89242
5.69804
5.33787
5.02982
5.09147
5.96815
7.95783
10.3669
12.075
1.21929
4.20349
5.46151
5.53497
5.06183
4.57868
4.21616
3.96002
3.60848
3.27656
2.98631
2.88797
3.02823
3.03788
2.94388
2.70171
2.43329
2.56053
2.82101
3.02935
2.96593
2.87788
2.70773
2.60135
2.70276
2.84364
2.94781
2.93445
2.89434
2.85467
2.74719
2.52532
2.30917
2.16084
2.14382
2.30077
2.4517
2.49664
2.5095
2.60443
2.68349
2.68586
2.69288
2.72033
2.81396
2.92683
3.03826
3.04487
2.93438
2.79486
2.78038
2.76363
2.61718
2.51098
2.48042
2.45526
2.43733
2.39443
2.36387
2.3041
2.19138
2.02893
1.83749
1.72249
1.76929
2.09144
2.1914
2.21339
2.20184
2.16668
2.15461
2.17209
2.2179
2.26121
2.32103
2.35089
2.3519
2.34783
2.34634
2.33177
2.30555
2.25725
2.20023
2.19253
2.34059
2.54258
2.78546
3.41268
3.88907
3.89699
3.61333
3.38198
3.06043
2.92154
2.8318
2.73532
2.61917
2.43634
2.24089
2.08707
1.95295
1.88184
1.89043
2.02164
2.48221
3.43587
4.91295
6.70205
8.40455
9.45513
9.39665
8.63927
7.63017
6.41503
5.08625
3.75383
2.65244
1.86742
1.34037
0.972705
0.720916
0.559643
0.493634
0.502031
0.553884
0.671032
0.894279
1.319
2.16555
3.42684
4.71155
5.29134
5.21717
4.85686
4.70022
4.90654
5.40732
5.98475
5.86504
5.04048
4.02749
3.1864
2.60239
2.31094
2.26786
2.28062
2.31957
2.33636
2.35567
2.48445
2.62986
3.04827
3.70408
3.77047
3.56648
3.25607
3.0459
2.86227
2.70924
2.63278
2.546
2.41749
2.27479
2.19561
2.23346
2.37527
2.37307
2.31747
2.26451
2.24897
2.33677
2.48088
2.57439
2.58453
2.53919
2.38444
2.17484
2.07897
2.2433
2.54498
2.77555
2.8208
2.7131
2.56274
2.42993
2.37468
2.32916
2.2436
2.24036
2.35903
2.46362
2.53708
2.52531
2.41755
2.28653
2.19428
2.10446
2.04564
1.97907
1.90073
1.91134
2.05392
2.13634
2.17925
2.26458
2.43031
2.72359
2.9276
2.98103
2.95912
2.89739
2.7937
2.67087
2.55675
2.48032
2.45921
2.44432
2.41919
2.38611
2.33041
2.20361
2.05084
1.96547
1.97997
2.10935
2.2382
2.35687
2.40179
2.39852
2.4098
2.43962
2.47455
2.4959
2.56475
2.58278
2.55744
2.47528
2.43209
2.69247
3.76871
5.35628
6.46586
0.0758936
1.28588
2.36188
2.68411
2.63548
2.4123
2.17288
2.0055
1.76839
1.55466
1.40785
1.34541
1.39297
1.50188
1.48868
1.45695
1.73716
2.19039
2.19398
2.30526
2.5415
2.35095
2.06433
1.79284
1.61728
1.51975
1.48085
1.44541
1.39011
1.38635
1.39676
1.35314
1.23235
1.08699
0.98504
0.949122
0.985586
1.03137
1.03959
1.07729
1.1657
1.21418
1.24059
1.30457
1.42535
1.53226
1.64092
1.7438
1.76858
1.65325
1.53534
1.55306
1.55842
1.61945
1.6809
1.65926
1.57077
1.42411
1.29999
1.21888
1.20755
1.12634
1.08263
1.10307
1.16065
1.43287
1.6666
1.84679
1.76637
1.47274
1.33661
1.28758
1.23337
1.21059
1.19523
1.15726
1.13605
1.14977
1.15752
1.157
1.14872
1.14926
1.14885
1.10248
1.08519
1.23526
1.4937
1.70846
2.00572
2.1025
2.11539
2.01395
1.82893
1.80642
1.73662
1.56683
1.43399
1.37457
1.41908
1.38758
1.26583
1.14732
1.07574
1.16226
1.96029
3.17483
3.9445
4.93744
6.27616
7.49415
8.09728
7.59434
6.38537
4.98679
3.65946
2.58765
1.81548
1.27459
0.886616
0.622456
0.452967
0.345674
0.278688
0.280732
0.304712
0.366227
0.490504
0.726034
1.24332
2.06864
3.10038
3.94792
4.31859
4.33124
4.27645
4.19265
3.98171
3.79704
3.96136
3.66235
2.93516
2.24613
1.71396
1.41406
1.27186
1.20007
1.14002
1.21852
1.39599
1.81776
2.42154
3.0952
3.40948
3.28876
2.88229
2.42046
2.02119
1.7186
1.49101
1.32819
1.22128
1.12127
1.03396
0.994903
1.07045
1.18437
1.24057
1.28981
1.257
1.21856
1.1687
1.15438
1.2221
1.26365
1.22244
1.15497
1.13219
1.3458
1.53913
1.50385
1.60426
1.757
1.67537
1.52846
1.3812
1.28951
1.23004
1.17192
1.1468
1.14933
1.21558
1.35035
1.38496
1.36909
1.31414
1.24169
1.16862
1.19142
1.23365
1.27828
1.34946
1.41577
1.4638
1.4833
1.52109
1.72964
2.14392
2.54787
2.85825
2.99394
2.99645
2.94353
2.84854
2.68806
2.73251
2.74208
2.66904
2.54952
2.37951
2.10133
1.77658
1.49052
1.26416
1.10043
0.983137
0.94223
0.92301
0.917031
0.897745
0.874271
0.866454
0.866859
0.89212
0.937273
0.9746
0.994109
0.98999
0.975628
0.996344
1.24045
1.90133
2.60002
0.0184343
0.633706
1.51845
1.78053
1.72363
1.53247
1.33745
1.17541
1.05659
1.01864
1.01423
0.980703
0.988275
0.970189
0.910368
0.978653
1.38033
1.89944
2.04024
2.07472
1.94272
1.77769
1.61736
1.39515
1.18647
1.03637
0.916248
0.832328
0.790025
0.832981
0.871371
0.853984
0.814944
0.745985
0.672127
0.598469
0.553005
0.552128
0.56405
0.591275
0.665137
0.734811
0.768461
0.787586
0.84703
1.03975
1.21519
1.20542
1.16395
1.10913
1.02808
1.11086
1.14155
1.18523
1.46847
1.60057
1.57713
1.43094
1.29044
1.18405
0.994732
0.893249
0.88994
0.939387
1.04541
1.26168
1.40368
1.34898
1.22254
1.05864
0.981365
0.979438
0.949048
0.893126
0.808725
0.746164
0.753056
0.80167
0.831477
0.846458
0.858089
0.845095
0.823532
0.821919
0.877526
1.08603
1.29236
1.32017
1.32746
1.31406
1.38713
1.4503
1.57989
1.67665
1.64794
1.44972
1.32649
1.24214
1.23788
1.22882
1.18145
1.10188
1.06608
1.32967
2.42583
3.57654
3.52561
3.33897
3.30312
3.28769
3.34524
3.17546
2.78379
2.34364
1.87983
1.44642
1.08095
0.783457
0.558914
0.404945
0.301657
0.233918
0.198172
0.200561
0.212662
0.228337
0.255773
0.346022
0.558738
1.04441
1.67963
2.40861
2.85522
2.97915
2.994
2.97158
2.74681
2.49336
2.75112
2.69173
2.30696
1.90249
1.53516
1.28227
1.06196
0.907338
0.811872
0.825662
1.00945
1.29488
1.71855
2.09152
2.52109
2.56047
2.25509
1.89493
1.5347
1.23568
1.02168
0.865841
0.733129
0.63335
0.595872
0.651983
0.758342
0.806649
0.845209
0.912721
0.964052
0.962981
0.900037
0.82557
0.745429
0.693233
0.650008
0.643057
0.745032
0.956054
1.08008
1.03418
1.01246
0.992036
0.935312
0.876975
0.864376
0.885675
0.945175
0.988309
0.980258
0.981831
0.944032
0.962526
1.03647
1.09875
1.10681
1.0585
0.946579
0.8484
0.817616
0.82677
0.860002
0.944665
1.03937
1.08376
1.09596
1.19723
1.5668
1.93551
2.25692
2.38956
2.39178
2.36128
2.36074
2.39426
2.43995
2.40491
2.24356
2.06668
1.90462
1.67068
1.41301
1.18483
0.997856
0.848259
0.769925
0.703189
0.637023
0.58099
0.533615
0.479801
0.454593
0.454099
0.493009
0.528446
0.550015
0.546093
0.523821
0.493229
0.450575
0.435683
0.496343
0.770564
0.00850598
0.389679
1.23314
1.53189
1.49639
1.34962
1.19967
1.08522
0.958035
0.940626
0.961049
0.93346
0.914653
0.884653
0.77466
0.742992
0.940501
1.30309
1.52384
1.66279
1.50799
1.40393
1.28776
1.14733
0.987412
0.856784
0.778974
0.684507
0.634386
0.649425
0.685044
0.684373
0.670983
0.633646
0.593198
0.54433
0.502546
0.472713
0.46552
0.52099
0.594658
0.617264
0.645045
0.647904
0.644633
0.672239
0.765472
0.838817
0.906987
0.961473
0.913284
0.868107
0.8993
1.03876
1.45413
1.62457
1.60276
1.49895
1.29005
1.06617
0.886276
0.81008
0.782447
0.774847
0.777031
0.811349
0.915086
0.924835
0.902782
0.87045
0.821488
0.749975
0.698284
0.648033
0.617593
0.62515
0.691715
0.755995
0.80427
0.85428
0.864138
0.82596
0.771277
0.743367
0.768729
0.892192
0.975788
1.02799
1.02434
0.97913
1.05322
1.22267
1.49488
1.53583
1.46106
1.34811
1.28052
1.26639
1.20945
1.12911
1.07216
1.00962
1.0208
1.30036
2.1467
2.83598
2.97283
2.78759
2.33224
2.09483
2.06125
2.05666
1.95988
1.78993
1.5442
1.24007
0.948797
0.71245
0.529909
0.398097
0.31395
0.267732
0.237174
0.225212
0.225262
0.210352
0.203116
0.215745
0.271699
0.441443
0.782179
1.20948
1.623
1.86062
1.9213
1.90377
1.84951
1.81726
1.7195
1.6832
1.77832
1.78204
1.51356
1.24253
1.02522
0.865145
0.772104
0.744925
0.840993
0.944945
1.13656
1.37906
1.619
1.72918
1.72496
1.57433
1.27087
1.0197
0.862939
0.744153
0.626895
0.524745
0.504053
0.580561
0.674595
0.713741
0.740085
0.760561
0.75831
0.736941
0.689902
0.611021
0.534351
0.475994
0.46359
0.514273
0.622798
0.710877
0.74962
0.754592
0.76601
0.756526
0.708771
0.647809
0.591778
0.576628
0.6034
0.690702
0.772369
0.840946
0.857705
0.900367
0.964859
0.989221
0.988288
0.950745
0.901103
0.846864
0.813677
0.875139
0.976189
1.08572
1.14645
1.13162
1.09342
1.04733
1.06553
1.18817
1.34344
1.45114
1.56089
1.70547
1.99122
2.11486
2.0315
1.89129
1.78254
1.61388
1.45137
1.28054
1.13931
1.02849
0.922713
0.809823
0.713554
0.655458
0.6131
0.563426
0.540113
0.509642
0.502377
0.530173
0.608122
0.624711
0.610887
0.557307
0.488962