/*--------------------------------*- C++ -*----------------------------------*\
  =========                 |
  \\      /  F ield         | OpenFOAM: The Open Source CFD Toolbox
   \\    /   O peration     | Website:  https://openfoam.org
    \\  /    A nd           | Version:  7
     \\/     M anipulation  |
\*---------------------------------------------------------------------------*/
FoamFile
{
    version     2.0;
    format      ascii;
    class       volScalarField;
    location    "50";
    object      nut;
}
// * * * * * * * * * * * * * * * * * * * * * * * * * * * * * * * * * * * * * //

dimensions      [0 2 -1 0 0 0 0];

internalField   nonuniform List<scalar> 
96800
(
0.000100398
0.000100314
0.000100336
0.00010043
0.000100551
0.000100642
0.000100679
0.000100674
0.000100637
0.00010059
0.000100575
0.00010056
0.000100509
0.000100489
0.000100547
0.000100665
0.000100769
0.000100797
0.000100785
0.000100794
0.000100833
0.000100739
0.000100504
0.000100274
0.000100199
0.000100228
0.000100301
0.000100364
0.000100386
0.00010037
0.000100334
0.000100294
0.000100287
0.000100279
0.000100231
0.000100201
0.00010025
0.000100358
0.000100465
0.000100505
0.000100496
0.00010053
0.000100634
0.000100737
0.000100836
0.000100518
0.000100294
0.000100193
0.000100166
0.000100167
0.000100166
0.00010015
0.000100119
0.000100095
0.000100099
0.000100099
0.000100064
0.000100034
0.000100061
0.000100143
0.000100236
0.000100281
0.000100287
0.00010035
0.000100538
0.000100807
0.000101092
0.000100722
0.000100395
0.000100199
0.000100095
0.000100043
0.000100025
0.000100016
9.99985e-05
9.99851e-05
9.99884e-05
9.99946e-05
9.99825e-05
9.99677e-05
9.99795e-05
0.000100026
0.000100078
0.000100098
0.000100107
0.000100182
0.000100413
0.000100758
0.000101185
0.000100788
0.000100422
0.000100196
0.000100065
9.9989e-05
9.99578e-05
9.99525e-05
9.99472e-05
9.99369e-05
9.99291e-05
9.99336e-05
9.99472e-05
9.99617e-05
9.99723e-05
9.99831e-05
9.99821e-05
9.99626e-05
9.99588e-05
0.000100034
0.000100282
0.000100663
0.000101156
0.000100736
0.000100366
0.000100154
0.000100037
9.99645e-05
9.99266e-05
9.99155e-05
9.99147e-05
9.99052e-05
9.98844e-05
9.98803e-05
9.99161e-05
9.99659e-05
9.99933e-05
9.9983e-05
9.99415e-05
9.98894e-05
9.9867e-05
9.99381e-05
0.000100182
0.000100567
0.000101075
0.000100645
0.000100261
0.00010007
9.99839e-05
9.99274e-05
9.98908e-05
9.9885e-05
9.98996e-05
9.98954e-05
9.98645e-05
9.9845e-05
9.98857e-05
9.99587e-05
0.000100007
9.99971e-05
9.9947e-05
9.98906e-05
9.98669e-05
9.9931e-05
0.000100161
0.000100541
0.000101054
0.000100592
0.000100167
9.99762e-05
9.99084e-05
9.98683e-05
9.98411e-05
9.98497e-05
9.98907e-05
9.99091e-05
9.98841e-05
9.9857e-05
9.98835e-05
9.99566e-05
0.000100013
0.000100013
9.99774e-05
9.99358e-05
9.99239e-05
9.99953e-05
0.000100241
0.00010066
0.000101109
0.000100607
0.000100133
9.99164e-05
9.98459e-05
9.98154e-05
9.97993e-05
9.98117e-05
9.98648e-05
9.99133e-05
9.99217e-05
9.99102e-05
9.99202e-05
9.99673e-05
0.000100012
0.000100012
9.998e-05
9.99421e-05
9.99417e-05
0.000100035
0.000100328
0.000100822
0.000101184
0.000100645
0.000100134
9.98982e-05
9.98228e-05
9.98011e-05
9.97885e-05
9.97896e-05
9.98355e-05
9.99057e-05
9.99606e-05
9.99835e-05
9.99795e-05
9.99806e-05
9.99914e-05
9.99752e-05
9.99323e-05
9.98943e-05
9.98993e-05
0.00010001
0.000100344
0.000100896
0.000101218
0.000100661
0.000100129
9.98935e-05
9.9827e-05
9.98131e-05
9.98e-05
9.97918e-05
9.98258e-05
9.99103e-05
0.0001
0.000100049
0.000100041
0.000100006
9.9968e-05
9.99173e-05
9.9861e-05
9.98279e-05
9.98424e-05
9.99668e-05
0.000100318
0.000100884
0.000101251
0.000100655
0.000100099
9.98703e-05
9.98212e-05
9.98205e-05
9.98145e-05
9.98052e-05
9.98318e-05
9.99191e-05
0.000100026
0.000100086
0.00010007
0.000100011
9.99282e-05
9.98442e-05
9.9784e-05
9.97645e-05
9.97975e-05
9.99364e-05
0.000100307
0.000100866
0.000101298
0.000100653
0.000100071
9.98541e-05
9.98209e-05
9.98352e-05
9.98358e-05
9.98305e-05
9.98562e-05
9.99285e-05
0.000100015
0.000100058
0.000100032
9.99693e-05
9.98769e-05
9.97861e-05
9.97308e-05
9.97183e-05
9.97643e-05
9.99242e-05
0.000100333
0.000100943
0.00010134
0.000100677
0.000100082
9.98755e-05
9.98509e-05
9.98756e-05
9.98901e-05
9.98842e-05
9.98927e-05
9.9927e-05
9.99603e-05
9.99585e-05
9.99377e-05
9.99014e-05
9.98418e-05
9.97824e-05
9.97455e-05
9.97246e-05
9.97663e-05
9.99459e-05
0.000100375
0.000100996
0.000101308
0.000100673
0.000100118
9.99243e-05
9.99015e-05
9.99256e-05
9.99512e-05
9.99469e-05
9.99361e-05
9.9919e-05
9.98959e-05
9.98707e-05
9.98545e-05
9.98477e-05
9.98293e-05
9.98126e-05
9.97957e-05
9.97826e-05
9.98205e-05
0.000100004
0.000100446
0.000101103
0.000101321
0.000100701
0.00010016
9.99696e-05
9.99347e-05
9.99435e-05
9.99782e-05
9.99858e-05
9.99489e-05
9.98979e-05
9.98415e-05
9.98091e-05
9.98146e-05
9.9839e-05
9.98277e-05
9.98134e-05
9.98168e-05
9.9835e-05
9.98968e-05
0.000100086
0.000100552
0.00010126
0.000101467
0.000100803
0.000100211
9.99975e-05
9.99486e-05
9.99426e-05
9.99404e-05
9.9934e-05
9.99062e-05
9.98526e-05
9.97963e-05
9.9773e-05
9.98035e-05
9.98362e-05
9.98195e-05
9.9806e-05
9.98234e-05
9.98841e-05
9.99697e-05
0.000100164
0.000100652
0.000101428
0.000101729
0.00010096
0.000100265
0.000100015
9.9944e-05
9.99025e-05
9.98605e-05
9.98292e-05
9.98213e-05
9.97932e-05
9.97605e-05
9.9758e-05
9.98054e-05
9.98321e-05
9.98162e-05
9.98183e-05
9.98553e-05
9.99378e-05
0.000100025
0.000100208
0.000100705
0.000101558
0.000101842
0.000101028
0.000100265
9.9977e-05
9.98906e-05
9.9835e-05
9.98074e-05
9.97912e-05
9.97809e-05
9.97656e-05
9.9743e-05
9.97746e-05
9.98284e-05
9.984e-05
9.98433e-05
9.98749e-05
9.99316e-05
9.99972e-05
0.000100057
0.00010021
0.0001007
0.000101562
0.00010171
0.000100887
0.000100139
9.98626e-05
9.97958e-05
9.98033e-05
9.98462e-05
9.98508e-05
9.98253e-05
9.98126e-05
9.97936e-05
9.98087e-05
9.98561e-05
9.9864e-05
9.98741e-05
9.99193e-05
9.99774e-05
0.000100007
0.000100032
0.000100167
0.00010066
0.000101546
0.000101595
0.00010078
0.000100035
9.97821e-05
9.97498e-05
9.98101e-05
9.99011e-05
9.9941e-05
9.99314e-05
9.98997e-05
9.98839e-05
9.98695e-05
9.98645e-05
9.98577e-05
9.98612e-05
9.99035e-05
9.99512e-05
9.99498e-05
9.99697e-05
0.000100141
0.00010066
0.000101569
0.000101619
0.00010074
9.99708e-05
9.97435e-05
9.97451e-05
9.98134e-05
9.99286e-05
0.000100012
0.00010004
0.000100006
9.99844e-05
9.99608e-05
9.99175e-05
9.98696e-05
9.98237e-05
9.98366e-05
9.98593e-05
9.98774e-05
9.9936e-05
0.00010015
0.000100712
0.000101651
0.000101657
0.000100712
9.99219e-05
9.97447e-05
9.9775e-05
9.98205e-05
9.99053e-05
0.000100018
0.000100095
0.0001001
0.000100058
0.000100013
9.99468e-05
9.98731e-05
9.98067e-05
9.97763e-05
9.97971e-05
9.98339e-05
9.99259e-05
0.000100214
0.000100834
0.000101762
0.000101567
0.00010057
9.98178e-05
9.97484e-05
9.98341e-05
9.98681e-05
9.99061e-05
9.99631e-05
0.000100056
0.000100108
0.000100099
0.000100037
9.99852e-05
9.99171e-05
9.98569e-05
9.98018e-05
9.98148e-05
9.98593e-05
0.000100029
0.000100386
0.000101053
0.00010207
0.000101333
0.000100285
9.96286e-05
9.97478e-05
9.99328e-05
9.99968e-05
9.99933e-05
0.000100005
0.000100036
0.000100065
0.000100099
0.000100086
0.000100062
0.000100028
9.9984e-05
9.99451e-05
9.99425e-05
0.000100023
0.00010022
0.000100578
0.000101249
0.000102322
0.000100987
9.98712e-05
9.93009e-05
9.96752e-05
0.000100028
0.000100151
0.000100152
0.00010012
0.000100098
0.000100072
0.000100131
0.000100175
0.000100193
0.000100183
0.000100173
0.000100159
0.000100133
0.000100208
0.000100387
0.000100719
0.000101348
0.0001024
0.000100405
9.91886e-05
9.87097e-05
9.94497e-05
0.000100052
0.000100267
0.000100311
0.000100294
0.00010027
0.000100225
0.00010026
0.000100312
0.000100342
0.000100355
0.000100383
0.000100401
0.00010036
0.000100358
0.000100502
0.000100832
0.000101464
0.000102549
0.000100272
9.87229e-05
9.80555e-05
9.91271e-05
0.000100031
0.000100343
0.000100424
0.000100442
0.000100431
0.00010042
0.000100418
0.000100455
0.000100504
0.000100542
0.000100611
0.000100658
0.000100624
0.000100564
0.000100638
0.000101012
0.000101764
0.000103007
0.000100978
9.89319e-05
9.76272e-05
9.87625e-05
9.99566e-05
0.000100407
0.000100524
0.000100565
0.000100571
0.000100577
0.000100589
0.00010062
0.000100674
0.000100729
0.000100771
0.00010092
0.000100889
0.000100839
0.000100875
0.000101304
0.000102205
0.000103641
0.000100657
9.83035e-05
9.65327e-05
9.78938e-05
9.95729e-05
0.000100331
0.000100575
0.000100679
0.000100748
0.000100785
0.000100809
0.000100865
0.00010094
0.000101011
0.000101075
0.000101219
0.000101172
0.000101192
0.000101273
0.00010177
0.000102849
0.000104542
9.72733e-05
9.47689e-05
9.30927e-05
9.5512e-05
9.84522e-05
9.99236e-05
0.000100461
0.0001007
0.000100894
0.000101048
0.00010113
0.000101215
0.000101345
0.000101485
0.000101567
0.000101624
0.00010161
0.000101686
0.000101828
0.00010242
0.000103697
0.000105688
9.36444e-05
9.05874e-05
8.8139e-05
9.13154e-05
9.61655e-05
9.89756e-05
0.000100084
0.000100542
0.000100869
0.000101201
0.000101453
0.000101648
0.000101849
0.000102059
0.000102192
0.000102226
0.000102259
0.000102351
0.000102508
0.000103169
0.000104477
0.000106555
9.41939e-05
8.99404e-05
8.47197e-05
8.63343e-05
9.24934e-05
9.71948e-05
9.93449e-05
0.000100232
0.000100748
0.000101224
0.000101675
0.000102082
0.000102448
0.000102765
0.000102971
0.00010306
0.00010315
0.00010325
0.000103398
0.000104107
0.000105383
0.000107471
9.792e-05
9.24302e-05
8.38492e-05
8.17991e-05
8.74114e-05
9.40652e-05
9.7941e-05
9.97109e-05
0.000100622
0.000101281
0.00010189
0.000102496
0.000103095
0.000103594
0.000103912
0.000104108
0.000104283
0.000104429
0.000104604
0.000105435
0.000106918
0.000109257
0.000103006
9.66972e-05
8.5624e-05
7.94333e-05
8.20698e-05
8.93736e-05
9.52736e-05
9.85218e-05
0.000100243
0.000101327
0.000102177
0.00010297
0.000103791
0.000104538
0.00010506
0.000105438
0.000105732
0.000105953
0.00010623
0.000107189
0.000109054
0.000111795
0.000109486
0.000102773
9.01097e-05
8.0529e-05
7.89064e-05
8.45268e-05
9.1626e-05
9.65064e-05
9.93739e-05
0.000101195
0.000102518
0.00010363
0.000104674
0.000105648
0.000106455
0.000107097
0.000107572
0.000107892
0.00010827
0.00010934
0.000111643
0.00011483
0.000118049
0.000111016
9.72073e-05
8.51113e-05
7.94211e-05
8.16202e-05
8.85417e-05
9.48613e-05
9.88759e-05
0.000101399
0.000103213
0.000104677
0.000105951
0.000107091
0.000108135
0.000109082
0.000109817
0.000110302
0.000110835
0.000111976
0.000114691
0.000118195
0.000129919
0.000122463
0.000107667
9.35875e-05
8.45757e-05
8.26175e-05
8.74172e-05
9.46328e-05
0.000100109
0.000103334
0.000105345
0.000106805
0.000108047
0.000109242
0.000110387
0.000111493
0.000112514
0.00011329
0.000114037
0.00011524
0.000118255
0.000121651
0.000146072
0.000138082
0.000122141
0.000106134
9.44911e-05
8.9104e-05
9.06125e-05
9.69805e-05
0.000103575
0.000107758
0.000109926
0.00011109
0.000111861
0.000112696
0.000113699
0.00011471
0.000115839
0.000116895
0.000117881
0.000119228
0.000122599
0.000125694
0.000167196
0.000158526
0.000140986
0.00012268
0.00010848
0.000100639
9.9732e-05
0.000104205
0.000110112
0.000114204
0.000116191
0.000117075
0.000117446
0.000117744
0.000118428
0.00011923
0.0001202
0.000121325
0.000122409
0.000124048
0.000128107
0.000130964
0.000194074
0.000184629
0.000164601
0.000143362
0.000126201
0.000115985
0.000113218
0.000115933
0.000120312
0.000123165
0.000124193
0.000124372
0.000124319
0.000124206
0.000124548
0.000125209
0.000125917
0.000126978
0.000128154
0.000130058
0.000134963
0.000137928
0.000227327
0.000216919
0.00019351
0.0001684
0.00014773
0.000134887
0.00013013
0.000130674
0.000133153
0.000134944
0.000135173
0.000134333
0.000133342
0.000132437
0.000132013
0.000132521
0.000133245
0.00013431
0.00013551
0.000137902
0.000143334
0.000146576
0.000266828
0.000255568
0.00022826
0.000198212
0.000173871
0.000158148
0.000151083
0.000149014
0.000149343
0.000149983
0.000149471
0.000147526
0.000145348
0.000143384
0.000141723
0.000141517
0.000142799
0.000144399
0.000145029
0.000147275
0.000153091
0.000157097
0.000311601
0.000298981
0.00026843
0.00023345
0.000205602
0.00018653
0.000177562
0.00017396
0.000172277
0.000170825
0.000167959
0.000163835
0.000160105
0.000156964
0.000154539
0.000152929
0.00015411
0.000156811
0.000157623
0.000159626
0.000164515
0.000169126
0.000358953
0.00034463
0.000314415
0.000275521
0.000244025
0.000222242
0.00021229
0.00020792
0.000204157
0.000200303
0.000194269
0.000186726
0.000179746
0.000174327
0.000171141
0.000169159
0.000168791
0.000170944
0.000172059
0.00017437
0.000178763
0.000182331
0.00041171
0.000396792
0.000368559
0.000327508
0.00029426
0.000270082
0.000256775
0.000249485
0.000242993
0.000236905
0.000228282
0.000218079
0.000207513
0.000198377
0.000191988
0.000189232
0.000188201
0.00018959
0.000190294
0.000191028
0.000195972
0.000198126
0.000478573
0.000464161
0.000435967
0.000398095
0.00036181
0.000331108
0.000312
0.000301257
0.000290433
0.000279016
0.000266818
0.00025483
0.000242231
0.000230311
0.000219092
0.000212758
0.00021053
0.000211022
0.000213266
0.000212886
0.00021716
0.000218049
0.000566262
0.000554402
0.000526489
0.000492479
0.000445113
0.000407265
0.000382627
0.00036687
0.000350549
0.00033347
0.000316427
0.000300294
0.000283739
0.000268535
0.000254357
0.000244085
0.000238377
0.000237418
0.00024021
0.000239601
0.000245608
0.000243673
0.000679922
0.000670711
0.000645506
0.000604712
0.000545915
0.000500611
0.0004681
0.00044773
0.000428988
0.000406922
0.000382789
0.000358866
0.000334576
0.000314419
0.000298131
0.000285953
0.000274373
0.000271937
0.000273409
0.000272861
0.000283934
0.00028191
0.000823797
0.000818835
0.000797879
0.000746116
0.00067304
0.000616257
0.000572009
0.000547112
0.000526971
0.000500839
0.000471352
0.000439887
0.000405233
0.00037653
0.000353365
0.000338127
0.000324763
0.000317585
0.000316757
0.000309001
0.000325756
0.000339254
0.00100708
0.00100868
0.000992055
0.000931626
0.000837711
0.000760885
0.00070218
0.000666606
0.000640678
0.000611149
0.00057891
0.000539924
0.000495386
0.000455781
0.000425176
0.000400182
0.000384073
0.000370857
0.000366989
0.000366511
0.000384783
0.000410605
0.00124192
0.00125461
0.0012401
0.0011721
0.00104348
0.000929459
0.000845818
0.000794268
0.000755348
0.00071563
0.000675446
0.000633777
0.000590479
0.000547557
0.000506477
0.000478763
0.000452014
0.000435291
0.000426126
0.000432139
0.000478792
0.000524157
0.00154623
0.00157219
0.00155921
0.00144779
0.00126643
0.00109716
0.00098632
0.000920086
0.000862923
0.00080794
0.00076102
0.000724105
0.00068744
0.000646552
0.000601024
0.000563478
0.000537897
0.000513669
0.000504466
0.000510917
0.000588042
0.000709477
0.00194838
0.00198309
0.00193348
0.00173426
0.00148532
0.00127345
0.00114238
0.0010681
0.00100316
0.000938009
0.00088285
0.00084195
0.000805218
0.000762471
0.000712988
0.000668229
0.000633859
0.000604966
0.000596951
0.000618796
0.000737681
0.000934233
0.00245839
0.00248412
0.00234246
0.0020403
0.00173158
0.00149068
0.00134229
0.00125378
0.00118285
0.00110435
0.00102844
0.000972272
0.000929947
0.000893668
0.00085769
0.000809952
0.000766713
0.000730603
0.000701742
0.000737063
0.000943686
0.00122107
0.00305809
0.00304655
0.00278401
0.00238757
0.00201109
0.00175223
0.00159765
0.0014804
0.00141112
0.00133015
0.0012348
0.00114341
0.0010646
0.00100225
0.000963584
0.000932006
0.000893776
0.000859344
0.000858244
0.000929363
0.00125525
0.00162038
0.00371248
0.00365145
0.00327404
0.00276899
0.00233353
0.00209108
0.00191098
0.00175468
0.00167069
0.00159443
0.00149646
0.00137997
0.00125884
0.00116302
0.00109953
0.00105855
0.00102478
0.000974217
0.000983667
0.00114469
0.00166305
0.00213501
0.00442756
0.00433979
0.00386167
0.00323832
0.00273468
0.00244453
0.00223838
0.00204494
0.00193844
0.00187594
0.00179707
0.00168403
0.00154271
0.00139981
0.00129469
0.00123959
0.00121369
0.00115427
0.00114143
0.00136368
0.00207711
0.00274292
0.00533612
0.00524107
0.00464036
0.0038319
0.00317617
0.00279776
0.00258296
0.00239115
0.0022666
0.00220251
0.0021397
0.00202856
0.00187368
0.00169539
0.00152664
0.00143733
0.00139648
0.00136137
0.00134209
0.00163654
0.00256424
0.00347334
0.00667861
0.00653263
0.00566772
0.00453447
0.00370675
0.00328453
0.00313015
0.00292454
0.00274088
0.00262592
0.00255353
0.00244329
0.0022788
0.00208475
0.00187825
0.00172465
0.00164616
0.00160553
0.00163263
0.00201034
0.00321092
0.00438394
0.00868747
0.00836442
0.00695449
0.00538985
0.00458271
0.00418912
0.00400647
0.00369299
0.00339206
0.00317267
0.00304293
0.0029274
0.00276221
0.00256925
0.00234878
0.00213704
0.00203932
0.00199276
0.00201005
0.00256141
0.00409152
0.00559564
0.0114861
0.0107974
0.00863038
0.00680708
0.00603372
0.00559688
0.00518202
0.0046794
0.00422156
0.00384934
0.00362018
0.00346782
0.0032768
0.00305827
0.0028361
0.00262471
0.00252057
0.00252668
0.00265752
0.00337509
0.00534553
0.00735461
0.0150711
0.0138836
0.0111004
0.00918372
0.00818104
0.00749776
0.00665753
0.00586765
0.00518966
0.00464682
0.004302
0.00407491
0.00384287
0.00356729
0.00331482
0.00312398
0.00305032
0.00310488
0.00334883
0.00450493
0.00731194
0.0100414
0.019692
0.0181514
0.0151189
0.0128353
0.0111779
0.00977462
0.00833841
0.00713107
0.00616468
0.00542798
0.00496067
0.00466598
0.00443238
0.00414103
0.00383587
0.00361162
0.00360988
0.00387606
0.00443421
0.00635256
0.0104583
0.0142025
0.0259876
0.0244007
0.0211168
0.0176449
0.0147453
0.0121113
0.00997335
0.00827606
0.00697348
0.00603492
0.00547334
0.00514408
0.00493415
0.00469242
0.00440853
0.00417574
0.00421357
0.00478191
0.00592006
0.0090604
0.0147425
0.0196576
0.0337405
0.0322085
0.0278477
0.0225717
0.0178418
0.0140995
0.0111974
0.00901438
0.00743284
0.00637424
0.00576221
0.00540987
0.00519704
0.00502064
0.00481732
0.00472042
0.00491379
0.00575347
0.00750442
0.011653
0.0183058
0.0243005
0.0895775
0.088904
0.0737003
0.0536902
0.0379066
0.0294647
0.0262338
0.0250885
0.0244709
0.0239744
0.0234859
0.0228728
0.0224008
0.021175
0.0196193
0.0183736
0.0182713
0.0190388
0.0189801
0.0184634
0.0181467
0.0180964
0.018695
0.0195186
0.0200987
0.0205488
0.0206799
0.0204616
0.0203072
0.0209827
0.0216877
0.0215813
0.0211608
0.0211671
0.0216944
0.0221472
0.0222604
0.0225921
0.0230415
0.0234403
0.0233977
0.0227239
0.0220905
0.0220033
0.0222851
0.0227214
0.0233771
0.0235886
0.0237666
0.02386
0.0238701
0.0240442
0.0242016
0.0242021
0.0240696
0.0237963
0.0234645
0.0229254
0.0221473
0.0206151
0.0191879
0.0183815
0.0184419
0.0183926
0.0174163
0.0166455
0.0161544
0.0167913
0.0181223
0.0193981
0.0201774
0.020831
0.0218392
0.0227318
0.0231287
0.0228612
0.0224744
0.0222903
0.0223564
0.0222923
0.0220766
0.0218784
0.0222238
0.0230063
0.0236055
0.0238125
0.0237994
0.0237447
0.0232848
0.0225631
0.0217918
0.0215323
0.0215383
0.0212843
0.0209081
0.0197057
0.018425
0.0174495
0.0170584
0.0175382
0.0190168
0.0204755
0.0219707
0.0236932
0.0257069
0.0279258
0.030671
0.0342173
0.0374095
0.0395491
0.0392784
0.0370011
0.0316601
0.0250406
0.0192723
0.0148503
0.0114837
0.00909751
0.00748091
0.00641379
0.00570168
0.005263
0.00506456
0.00497199
0.00491877
0.00506148
0.00557157
0.00656709
0.00871366
0.0126684
0.0185782
0.0242804
0.0311219
0.0371655
0.039236
0.0386451
0.0357229
0.0322699
0.0277455
0.0243093
0.0225983
0.0224139
0.0226259
0.0224189
0.0219919
0.0212741
0.020087
0.0186347
0.0171224
0.0162072
0.016152
0.016305
0.0164519
0.0167846
0.0175402
0.0186381
0.0195124
0.0199018
0.0197827
0.0190908
0.0181431
0.0175911
0.0180461
0.01944
0.0208057
0.0211723
0.0210155
0.0211678
0.0214909
0.021981
0.0227059
0.0231169
0.0230963
0.0226859
0.0221499
0.0218655
0.0220216
0.0225884
0.0232134
0.0236219
0.0236849
0.023541
0.0230153
0.0219701
0.0210547
0.02081
0.02095
0.0213759
0.0215827
0.021647
0.0217379
0.0217521
0.0217569
0.0222861
0.022805
0.022673
0.0220667
0.021242
0.0205609
0.0205547
0.0210561
0.0217982
0.0221012
0.0222257
0.0225114
0.022875
0.0230774
0.0231177
0.0227875
0.0221362
0.0213167
0.0210528
0.0211869
0.021222
0.0208942
0.0205289
0.0204381
0.0202013
0.0197708
0.0191278
0.0186431
0.0185353
0.0190992
0.0201923
0.0213623
0.022187
0.0223299
0.0224043
0.022862
0.023878
0.0247874
0.0248639
0.0245852
0.0238821
0.0227516
0.0214884
0.0202373
0.0199558
0.022741
0.0326037
0.0478436
0.0597468
0.0596196
0.0744116
0.066036
0.0502227
0.0371735
0.0298948
0.026834
0.0254488
0.0245542
0.0238213
0.0230822
0.022537
0.02202
0.0209809
0.0193426
0.0178947
0.0178208
0.0188864
0.0191669
0.0186055
0.0181043
0.0177509
0.0181033
0.0188518
0.019397
0.0197603
0.0199171
0.0197223
0.0194917
0.0201158
0.0207799
0.020689
0.0203708
0.0202946
0.0207142
0.0211837
0.0213747
0.0217242
0.0222648
0.0228315
0.0229841
0.0223271
0.0216789
0.0215346
0.021829
0.0221721
0.0226068
0.0225982
0.0227068
0.0227621
0.0227633
0.0228271
0.0229617
0.0230191
0.0228811
0.0226794
0.022438
0.0219409
0.0211602
0.0199316
0.0184299
0.017501
0.017487
0.017552
0.0167517
0.0160793
0.0156989
0.0161389
0.0171471
0.0183236
0.019324
0.0199194
0.0207368
0.0215055
0.0219714
0.0219046
0.0215828
0.0213746
0.0213581
0.0212851
0.0210328
0.0208629
0.0212331
0.0219129
0.0226744
0.0232476
0.0236068
0.0236986
0.0234356
0.0224959
0.021408
0.0210398
0.0211787
0.021301
0.0208866
0.0199
0.0185297
0.0173802
0.0168062
0.0170672
0.0182503
0.0194393
0.020605
0.0221993
0.024254
0.0268421
0.0303784
0.0341982
0.0370439
0.0377177
0.0344087
0.0327287
0.0293492
0.0235607
0.0181636
0.0139324
0.0107201
0.0084586
0.00695885
0.00585211
0.00506739
0.00459558
0.00442541
0.00446024
0.004674
0.00498137
0.00566584
0.00693236
0.00918492
0.0122158
0.0165143
0.0196583
0.0259751
0.0341953
0.0374849
0.0379187
0.0361786
0.0333827
0.0286475
0.0244918
0.0220952
0.0215474
0.0216835
0.0214859
0.0210749
0.0206523
0.0198125
0.0186129
0.0171716
0.0162152
0.016206
0.016382
0.0164027
0.0166321
0.0174219
0.0186456
0.0195851
0.0199623
0.0198182
0.0191976
0.0181441
0.0172359
0.0172555
0.0184105
0.0197519
0.0203651
0.0201201
0.0203262
0.0204155
0.0207449
0.021463
0.021981
0.0219842
0.0217035
0.0211559
0.0208469
0.0209789
0.0216177
0.0223044
0.0229222
0.023047
0.0227962
0.0222211
0.0212757
0.0204487
0.0200939
0.0201729
0.0206289
0.0208823
0.0210953
0.0212913
0.0213722
0.0211468
0.0214305
0.0219018
0.021894
0.0214415
0.0207542
0.0199812
0.0199032
0.0201924
0.0209124
0.0213218
0.0214605
0.021925
0.0223758
0.0226588
0.022773
0.0225241
0.0218781
0.0210624
0.0206413
0.020601
0.0205675
0.0203309
0.0199829
0.0198483
0.0196589
0.0192603
0.0187311
0.0183414
0.0181983
0.0186694
0.0196284
0.0207828
0.021793
0.0220985
0.0222044
0.0224842
0.0232441
0.0240781
0.0242674
0.0240559
0.0233607
0.0222675
0.0210379
0.0198883
0.0196825
0.0219593
0.0301056
0.0438499
0.0557126
0.0295178
0.0462674
0.0461617
0.0388067
0.0310248
0.0256034
0.0224102
0.0207798
0.0195793
0.0184513
0.0175369
0.0170658
0.0169732
0.016617
0.0155158
0.0142323
0.0139382
0.0148032
0.0157742
0.0155807
0.0151061
0.0144586
0.0144621
0.0150772
0.0158576
0.0162436
0.0162621
0.0161542
0.015949
0.0162572
0.0166268
0.0165348
0.0160695
0.0155363
0.0155761
0.0160242
0.0165612
0.0167576
0.0171671
0.0181832
0.0185563
0.0180795
0.0175852
0.0173507
0.0174231
0.0176279
0.0177544
0.0176391
0.0174187
0.0173997
0.0174347
0.0173848
0.0172823
0.017253
0.0172171
0.0171593
0.0170499
0.0166863
0.0162655
0.015325
0.0142765
0.0133627
0.0129626
0.0129681
0.0128639
0.0127676
0.012706
0.0127581
0.0130256
0.0137528
0.014814
0.0152367
0.0157631
0.0162544
0.0167601
0.0170731
0.0169946
0.0165836
0.0164225
0.0162637
0.016033
0.0158178
0.0157362
0.0160638
0.0167454
0.0174339
0.0180117
0.0188739
0.0193401
0.0191275
0.0181648
0.0175618
0.0174895
0.0172799
0.0166242
0.0161079
0.0150473
0.0140169
0.0132738
0.0131034
0.0133614
0.0140249
0.0148273
0.0159359
0.0179526
0.020984
0.0247578
0.0284546
0.0305004
0.0300323
0.0272299
0.0245207
0.0219964
0.0184179
0.0147834
0.0115765
0.00902589
0.00712234
0.00574879
0.00476343
0.0040551
0.00361937
0.0035232
0.00356954
0.00393374
0.00441152
0.00516959
0.006569
0.00874015
0.0111464
0.0139306
0.0151796
0.0173145
0.0222251
0.02728
0.0290523
0.0291433
0.0283792
0.0255458
0.021524
0.0185024
0.017017
0.0165855
0.0163861
0.0159929
0.0156728
0.0153413
0.0150627
0.0141333
0.0132514
0.0132995
0.0140086
0.0145846
0.014791
0.0151985
0.0156174
0.0158385
0.015858
0.0157824
0.0155538
0.0148408
0.0138391
0.0133308
0.0138751
0.0152715
0.0162841
0.0159577
0.0156196
0.0153658
0.0153575
0.0157375
0.0163602
0.0165673
0.0165983
0.0163553
0.0160292
0.0159413
0.0163539
0.0171868
0.0177613
0.0180448
0.0179092
0.0174944
0.0167538
0.0160992
0.0155245
0.0155752
0.0158278
0.0164263
0.0172268
0.0176188
0.0176309
0.0172251
0.0167805
0.0168144
0.0168858
0.0166865
0.016238
0.015353
0.0149648
0.0151254
0.0156823
0.0162045
0.0163839
0.0167411
0.0174252
0.0180258
0.0183697
0.0182953
0.0179876
0.0173784
0.0166901
0.0162249
0.0159783
0.0159127
0.0155741
0.0154465
0.0153662
0.0151418
0.0148993
0.0144339
0.0140543
0.0138612
0.0143278
0.0152544
0.0161532
0.0168626
0.016945
0.017045
0.0172836
0.0176578
0.018189
0.0180206
0.0178414
0.0172539
0.016549
0.0159794
0.0160889
0.0176952
0.0229868
0.0325799
0.042082
0.00906169
0.0244908
0.0291
0.0271846
0.0230681
0.0191825
0.0164486
0.0148992
0.0135845
0.0125747
0.0119031
0.0116923
0.0119985
0.0118752
0.0115019
0.0108829
0.0110545
0.0128807
0.01417
0.0135764
0.0128461
0.012313
0.0119385
0.0122255
0.0131963
0.0133075
0.0129183
0.0126836
0.0125748
0.0127383
0.0129674
0.0127823
0.0121419
0.0114068
0.0108888
0.0108841
0.0112586
0.0116434
0.0118054
0.0126561
0.0131292
0.012899
0.0127426
0.0125202
0.0126841
0.0129828
0.013125
0.012931
0.0126303
0.0124101
0.0125088
0.0125861
0.0123867
0.0122897
0.0123507
0.0123662
0.0122982
0.0119898
0.0116772
0.0110945
0.0103083
0.00964137
0.00924289
0.00937234
0.00992592
0.0111762
0.011089
0.0107965
0.0107227
0.0107132
0.0109311
0.0112237
0.0113439
0.0115646
0.0121418
0.0125382
0.0127001
0.0125583
0.0122963
0.0122171
0.012007
0.0116324
0.0113261
0.0110976
0.0112505
0.0115353
0.0121339
0.0137816
0.0150667
0.0151809
0.0145775
0.0140988
0.01348
0.0131577
0.0126141
0.0119546
0.0111056
0.010282
0.00998312
0.0102517
0.0103872
0.0103366
0.0103886
0.0108944
0.0133528
0.0171102
0.0208567
0.0234071
0.0241037
0.0230728
0.0210073
0.0186658
0.0164025
0.0139692
0.0114221
0.00907297
0.00704921
0.005486
0.00437687
0.00359882
0.00306288
0.0027121
0.00263304
0.0026874
0.00297116
0.00345132
0.00419682
0.0053736
0.00731644
0.00942458
0.0113016
0.0125259
0.0131457
0.0139377
0.015817
0.0178654
0.0197852
0.0205731
0.0197372
0.0172553
0.014688
0.0128984
0.0121648
0.0122846
0.0121668
0.0115066
0.0111027
0.0107993
0.0108194
0.0116367
0.013249
0.0151317
0.0156412
0.0151467
0.0142971
0.013764
0.0133401
0.0125237
0.0118765
0.0113266
0.0107077
0.0100228
0.00960321
0.00978671
0.0108306
0.0122502
0.0122435
0.0119065
0.0114845
0.0110806
0.0108968
0.0110681
0.0113146
0.0113667
0.0112914
0.0111435
0.0110355
0.0117612
0.0132318
0.0137711
0.0138577
0.013682
0.0131121
0.0123871
0.0117339
0.0113016
0.0109521
0.0107286
0.0109552
0.0117224
0.0124828
0.0129511
0.0128995
0.012494
0.0121081
0.0118769
0.0115369
0.0112229
0.0108237
0.010572
0.0106066
0.0110203
0.0112319
0.0112941
0.0115428
0.0123984
0.0137878
0.0144993
0.0144511
0.0142369
0.0137171
0.0130645
0.0124699
0.0121441
0.0121265
0.0121348
0.0120413
0.0118249
0.0115016
0.0111397
0.0103418
0.0096101
0.00905666
0.00897513
0.00932743
0.0098039
0.0102472
0.0104042
0.0103687
0.0103892
0.0106245
0.0109746
0.0111231
0.0112038
0.0111033
0.0110043
0.0108146
0.0105923
0.011187
0.0138514
0.0192373
0.025418
0.00159869
0.0144661
0.0215029
0.0211315
0.0186225
0.0156127
0.012952
0.0112007
0.00978798
0.00926779
0.00964652
0.0100187
0.010197
0.00990604
0.00945658
0.00944953
0.0117341
0.0139218
0.0138496
0.0136139
0.0131906
0.012359
0.0114831
0.0109727
0.0109365
0.0105939
0.00996139
0.00938962
0.00924262
0.00959865
0.0101749
0.0105568
0.0102071
0.00949425
0.00870958
0.00805547
0.00778554
0.00784996
0.00808692
0.00861085
0.00948207
0.00982269
0.00983545
0.00985352
0.0101275
0.0104346
0.0105141
0.0101862
0.00965824
0.00895438
0.00867846
0.00892525
0.00921594
0.00971985
0.0105599
0.0111026
0.0110902
0.0102705
0.00935112
0.00864259
0.00836076
0.00806733
0.00845665
0.00948777
0.0104325
0.0118772
0.0115501
0.010747
0.00985643
0.00891016
0.00874819
0.00881168
0.00886868
0.00897337
0.00910522
0.00937383
0.0100328
0.0108153
0.0110776
0.0111573
0.0110689
0.0108572
0.0106148
0.0103375
0.0102945
0.0109622
0.0115982
0.0112313
0.0113178
0.0113311
0.0113863
0.011315
0.0115341
0.012096
0.0119434
0.0109854
0.00993769
0.00949393
0.0101755
0.0108036
0.0109464
0.0108318
0.0108414
0.0116357
0.0162792
0.017363
0.0178075
0.018099
0.0180719
0.0177099
0.0167467
0.0153384
0.0130382
0.0107382
0.00867841
0.00685264
0.00535346
0.00417449
0.00328602
0.00268345
0.00229288
0.00203118
0.0018618
0.00189891
0.00198212
0.00230909
0.00295147
0.00391066
0.00546499
0.00731918
0.00898664
0.0103116
0.0109557
0.0112738
0.0116798
0.0118588
0.0120218
0.0127067
0.0133759
0.0126972
0.0114191
0.0106072
0.0108977
0.0124093
0.0127473
0.0117349
0.0104534
0.0100468
0.0107061
0.0128822
0.0148404
0.0160331
0.0157698
0.0148912
0.0133969
0.0122817
0.0114991
0.0106363
0.00961678
0.0086389
0.00790428
0.0074195
0.00729871
0.00795878
0.00954542
0.0108504
0.0110285
0.0112502
0.0111236
0.0106677
0.00971633
0.00885112
0.00852775
0.00822228
0.00789238
0.00775478
0.00900361
0.0128307
0.0139802
0.0128666
0.0121769
0.0111585
0.0102433
0.00929274
0.00857667
0.00821044
0.00804282
0.00796786
0.00802233
0.00818879
0.00881212
0.00970583
0.00996069
0.00991496
0.00956135
0.00910032
0.00856059
0.0086059
0.00874305
0.00885417
0.00870311
0.00834836
0.00804033
0.0080411
0.00835799
0.00966983
0.0117466
0.0129908
0.013014
0.0124975
0.0118601
0.0113028
0.0108445
0.0105468
0.0108679
0.0110861
0.0110857
0.0109097
0.0102918
0.00906633
0.0077614
0.00672253
0.00605529
0.00569191
0.00554309
0.00565726
0.00586842
0.00612073
0.00602859
0.00592743
0.00585508
0.00588829
0.00620122
0.00657329
0.00667949
0.00668355
0.00644501
0.00635032
0.00641706
0.00729493
0.00945932
0.0126945
0.000466187
0.0134449
0.0214157
0.0211759
0.0185215
0.014944
0.0121581
0.0100504
0.0087909
0.00927838
0.0112962
0.0127316
0.0127427
0.0116016
0.0102581
0.0103437
0.0131762
0.014696
0.0143356
0.0139347
0.0133402
0.0127038