/*--------------------------------*- C++ -*----------------------------------*\
  =========                 |
  \\      /  F ield         | OpenFOAM: The Open Source CFD Toolbox
   \\    /   O peration     | Website:  https://openfoam.org
    \\  /    A nd           | Version:  7
     \\/     M anipulation  |
\*---------------------------------------------------------------------------*/
FoamFile
{
    version     2.0;
    format      ascii;
    class       volScalarField;
    location    "50";
    object      p;
}
// * * * * * * * * * * * * * * * * * * * * * * * * * * * * * * * * * * * * * //

dimensions      [0 2 -2 0 0 0 0];

internalField   nonuniform List<scalar> 
96800
(
64.4942
64.4943
64.4945
64.4948
64.495
64.4953
64.4953
64.4953
64.4953
64.4954
64.4955
64.4956
64.4956
64.4956
64.4955
64.4955
64.4957
64.4958
64.4959
64.4958
64.4958
64.4957
64.4942
64.4943
64.4944
64.4946
64.4949
64.4951
64.4951
64.4951
64.4952
64.4953
64.4954
64.4955
64.4955
64.4954
64.4954
64.4954
64.4956
64.4957
64.4957
64.4957
64.4957
64.4957
64.494
64.4941
64.4941
64.4941
64.4943
64.4945
64.4946
64.4947
64.4948
64.4949
64.495
64.495
64.4951
64.4951
64.4952
64.4952
64.4953
64.4954
64.4954
64.4954
64.4955
64.4955
64.4935
64.4935
64.4935
64.4935
64.4936
64.4938
64.494
64.4941
64.4941
64.4942
64.4943
64.4943
64.4944
64.4945
64.4946
64.4947
64.4948
64.4949
64.4949
64.4949
64.495
64.495
64.4929
64.4929
64.4929
64.4929
64.493
64.493
64.4932
64.4933
64.4934
64.4934
64.4935
64.4935
64.4935
64.4937
64.4938
64.494
64.4941
64.494
64.494
64.4942
64.4943
64.4943
64.4921
64.4922
64.4922
64.4922
64.4922
64.4923
64.4924
64.4925
64.4926
64.4925
64.4926
64.4926
64.4927
64.4928
64.4929
64.493
64.493
64.493
64.493
64.4931
64.4933
64.4933
64.4913
64.4913
64.4913
64.4913
64.4913
64.4914
64.4914
64.4915
64.4915
64.4916
64.4916
64.4917
64.4918
64.4918
64.4919
64.4919
64.4919
64.4919
64.4919
64.492
64.4921
64.4922
64.4902
64.4903
64.4902
64.4902
64.4902
64.4902
64.4902
64.4903
64.4904
64.4906
64.4906
64.4907
64.4907
64.4907
64.4908
64.4908
64.4907
64.4907
64.4908
64.4909
64.4909
64.4909
64.4889
64.489
64.489
64.4889
64.4889
64.4889
64.4889
64.489
64.4892
64.4893
64.4894
64.4895
64.4895
64.4896
64.4897
64.4897
64.4896
64.4896
64.4896
64.4897
64.4897
64.4896
64.4876
64.4876
64.4876
64.4875
64.4875
64.4875
64.4876
64.4877
64.4879
64.488
64.4881
64.4882
64.4883
64.4883
64.4884
64.4884
64.4884
64.4884
64.4885
64.4885
64.4885
64.4884
64.4863
64.4862
64.4862
64.4862
64.4861
64.4861
64.4862
64.4864
64.4866
64.4867
64.4867
64.4868
64.4868
64.4869
64.4869
64.4869
64.487
64.487
64.4872
64.4873
64.4873
64.4873
64.4849
64.4849
64.4849
64.4849
64.4848
64.4847
64.4848
64.485
64.4852
64.4852
64.4852
64.4851
64.4852
64.4853
64.4853
64.4854
64.4855
64.4856
64.4858
64.4859
64.486
64.4861
64.4835
64.4835
64.4835
64.4835
64.4834
64.4833
64.4834
64.4834
64.4835
64.4835
64.4835
64.4835
64.4835
64.4835
64.4836
64.4837
64.4838
64.4841
64.4842
64.4843
64.4846
64.4846
64.482
64.482
64.482
64.482
64.482
64.4819
64.4818
64.4817
64.4817
64.4817
64.4818
64.4818
64.4818
64.4818
64.4819
64.482
64.4822
64.4823
64.4825
64.4826
64.4828
64.4829
64.4802
64.4803
64.4803
64.4803
64.4803
64.4802
64.4801
64.48
64.4799
64.4799
64.4799
64.48
64.48
64.4801
64.4801
64.4803
64.4804
64.4805
64.4806
64.4807
64.4808
64.4809
64.4785
64.4785
64.4785
64.4785
64.4784
64.4784
64.4783
64.4782
64.478
64.478
64.478
64.4781
64.4782
64.4782
64.4782
64.4783
64.4785
64.4786
64.4787
64.4788
64.4788
64.4788
64.4766
64.4765
64.4764
64.4764
64.4765
64.4765
64.4764
64.4763
64.476
64.4759
64.4759
64.476
64.4761
64.4761
64.4762
64.4764
64.4766
64.4766
64.4767
64.4767
64.4768
64.4768
64.4746
64.4745
64.4744
64.4744
64.4744
64.4745
64.4744
64.4741
64.4738
64.4737
64.4737
64.4738
64.474
64.474
64.4741
64.4743
64.4744
64.4744
64.4744
64.4745
64.4747
64.4747
64.4725
64.4724
64.4723
64.4722
64.4723
64.4724
64.4723
64.472
64.4717
64.4716
64.4716
64.4717
64.4718
64.4719
64.4719
64.472
64.4721
64.4721
64.4722
64.4722
64.4723
64.4724
64.4704
64.4703
64.4702
64.4702
64.4701
64.4702
64.4701
64.47
64.4697
64.4696
64.4696
64.4697
64.4697
64.4698
64.4699
64.4698
64.4698
64.4699
64.4699
64.4699
64.47
64.4701
64.4683
64.4683
64.4682
64.4682
64.468
64.4679
64.4679
64.4678
64.4677
64.4676
64.4675
64.4676
64.4677
64.4678
64.4679
64.4678
64.4678
64.4678
64.4678
64.4678
64.4679
64.468
64.4662
64.4662
64.4662
64.466
64.4658
64.4656
64.4656
64.4656
64.4656
64.4656
64.4655
64.4656
64.4656
64.4657
64.4658
64.4658
64.4658
64.4658
64.4659
64.4659
64.4659
64.4659
64.464
64.4641
64.464
64.4638
64.4635
64.4634
64.4633
64.4634
64.4635
64.4636
64.4635
64.4635
64.4635
64.4636
64.4636
64.4637
64.4637
64.4638
64.4639
64.4639
64.4639
64.4639
64.4618
64.4618
64.4616
64.4614
64.4612
64.4611
64.4611
64.4612
64.4614
64.4615
64.4615
64.4614
64.4614
64.4614
64.4614
64.4615
64.4616
64.4617
64.4618
64.4619
64.4619
64.4619
64.4592
64.4591
64.4589
64.4588
64.4588
64.4588
64.4588
64.4589
64.4592
64.4595
64.4596
64.4595
64.4593
64.4592
64.4593
64.4593
64.4594
64.4595
64.4596
64.4597
64.4597
64.4597
64.4565
64.4564
64.4562
64.4563
64.4564
64.4565
64.4566
64.4568
64.457
64.4573
64.4575
64.4574
64.4572
64.4571
64.4571
64.4572
64.4572
64.4573
64.4574
64.4574
64.4575
64.4575
64.4537
64.4537
64.4537
64.4538
64.454
64.4542
64.4543
64.4544
64.4546
64.4549
64.4551
64.4551
64.4551
64.4549
64.4548
64.4549
64.455
64.4551
64.4552
64.4553
64.4554
64.4555
64.451
64.451
64.4512
64.4514
64.4516
64.4518
64.4519
64.452
64.4521
64.4523
64.4525
64.4526
64.4526
64.4526
64.4526
64.4527
64.4529
64.453
64.4531
64.4532
64.4533
64.4535
64.4485
64.4485
64.4488
64.449
64.4492
64.4493
64.4494
64.4496
64.4497
64.4499
64.45
64.4501
64.4502
64.4503
64.4504
64.4506
64.4507
64.4508
64.4509
64.4512
64.4514
64.4514
64.4462
64.4462
64.4464
64.4466
64.4468
64.4468
64.4469
64.4471
64.4473
64.4474
64.4475
64.4476
64.4478
64.4481
64.4482
64.4483
64.4484
64.4485
64.4488
64.449
64.4491
64.4491
64.4439
64.4438
64.4439
64.4442
64.4443
64.4444
64.4445
64.4447
64.4449
64.445
64.445
64.4452
64.4455
64.4457
64.4459
64.446
64.4461
64.4463
64.4465
64.4466
64.4467
64.4467
64.4415
64.4414
64.4414
64.4416
64.4418
64.4419
64.4421
64.4422
64.4423
64.4423
64.4425
64.4427
64.443
64.4433
64.4434
64.4435
64.4436
64.4439
64.4441
64.4441
64.4442
64.4442
64.4392
64.4391
64.439
64.439
64.4391
64.4393
64.4396
64.4397
64.4397
64.4397
64.4398
64.4402
64.4405
64.4406
64.4408
64.441
64.4412
64.4414
64.4415
64.4416
64.4416
64.4415
64.4367
64.4367
64.4365
64.4364
64.4363
64.4365
64.4368
64.437
64.4371
64.4371
64.4372
64.4375
64.4379
64.4381
64.4383
64.4384
64.4385
64.4387
64.4388
64.4388
64.4389
64.4389
64.4341
64.434
64.4338
64.4335
64.4335
64.4336
64.4338
64.4341
64.4344
64.4346
64.4347
64.4349
64.4352
64.4355
64.4357
64.4358
64.4358
64.4359
64.4359
64.436
64.4361
64.4361
64.431
64.4308
64.4307
64.4305
64.4305
64.4306
64.4307
64.431
64.4314
64.4317
64.4319
64.4321
64.4324
64.4326
64.4329
64.4331
64.4331
64.4332
64.4331
64.4332
64.4332
64.4333
64.4276
64.4274
64.4273
64.4273
64.4273
64.4273
64.4274
64.4277
64.4281
64.4285
64.4288
64.429
64.4292
64.4295
64.4298
64.4301
64.4303
64.4303
64.4302
64.4303
64.4304
64.4305
64.4239
64.4237
64.4237
64.4237
64.4236
64.4236
64.4237
64.424
64.4245
64.425
64.4254
64.4257
64.4259
64.4261
64.4264
64.4267
64.427
64.4271
64.4271
64.4272
64.4273
64.4273
64.4196
64.4194
64.4195
64.4196
64.4195
64.4196
64.4197
64.42
64.4204
64.421
64.4216
64.422
64.4223
64.4226
64.4229
64.4231
64.4233
64.4235
64.4237
64.4237
64.4237
64.4238
64.4145
64.4143
64.4145
64.4147
64.4148
64.415
64.4152
64.4155
64.4159
64.4165
64.4172
64.4178
64.4184
64.4187
64.419
64.4192
64.4194
64.4196
64.4197
64.4196
64.4197
64.4198
64.4084
64.4082
64.4084
64.4086
64.4089
64.4093
64.4097
64.4101
64.4106
64.4113
64.4121
64.413
64.4138
64.4142
64.4146
64.4149
64.4151
64.4153
64.4154
64.4154
64.4154
64.4154
64.4009
64.4005
64.4008
64.4011
64.4018
64.4024
64.4031
64.4037
64.4043
64.4051
64.4061
64.4071
64.4081
64.4089
64.4094
64.4098
64.41
64.4103
64.4106
64.4107
64.4107
64.4107
64.391
64.3906
64.391
64.3918
64.3928
64.3938
64.3947
64.3956
64.3967
64.3978
64.399
64.4002
64.4014
64.4025
64.4034
64.4038
64.4041
64.4046
64.405
64.4051
64.4051
64.405
64.3781
64.3778
64.3787
64.3799
64.3813
64.3827
64.3842
64.3856
64.3871
64.3887
64.3902
64.3918
64.3933
64.3947
64.3958
64.3966
64.3972
64.3977
64.3981
64.3982
64.3982
64.3981
64.3615
64.3612
64.3628
64.3645
64.3665
64.3686
64.3707
64.3729
64.375
64.3771
64.3791
64.3811
64.3829
64.3846
64.3863
64.3877
64.3887
64.3892
64.3895
64.3896
64.3897
64.3895
64.3401
64.3398
64.3422
64.3446
64.3473
64.35
64.3528
64.3559
64.359
64.3618
64.3645
64.3672
64.3696
64.3719
64.3741
64.3761
64.3775
64.3783
64.3786
64.3788
64.3789
64.3786
64.3127
64.3121
64.3152
64.3187
64.322
64.3255
64.3291
64.3332
64.3374
64.3413
64.345
64.3487
64.3521
64.3554
64.3583
64.3609
64.3629
64.3641
64.3647
64.3648
64.3647
64.3642
64.2762
64.2756
64.2801
64.2846
64.2884
64.2928
64.2975
64.3027
64.3082
64.3138
64.3191
64.3242
64.329
64.3336
64.3377
64.3412
64.3436
64.3454
64.3463
64.3462
64.3456
64.3447
64.2278
64.2269
64.2334
64.2392
64.2437
64.2488
64.2546
64.2611
64.2689
64.2764
64.2837
64.2912
64.2979
64.3043
64.3102
64.3148
64.318
64.3203
64.3215
64.3214
64.3202
64.3184
64.164
64.162
64.17
64.1774
64.1831
64.1891
64.1963
64.2052
64.2155
64.2256
64.2359
64.2464
64.2558
64.2647
64.2724
64.2785
64.2834
64.2869
64.2881
64.2879
64.2862
64.2832
64.0788
64.0744
64.0838
64.0943
64.1012
64.109
64.1194
64.1308
64.144
64.1575
64.1715
64.185
64.1976
64.2097
64.2204
64.2287
64.2354
64.2407
64.243
64.2431
64.2405
64.235
63.9635
63.9558
63.9665
63.9822
63.9905
64.0003
64.0146
64.0304
64.0481
64.0655
64.0834
64.1009
64.118
64.1342
64.1486
64.1607
64.1704
64.1773
64.1811
64.1821
64.1783
64.169
63.8061
63.7922
63.8056
63.826
63.8364
63.8493
63.8703
63.8939
63.9183
63.9426
63.9671
63.9906
64.0124
64.033
64.0519
64.068
64.081
64.0909
64.097
64.0978
64.0923
64.0765
63.5941
63.5683
63.5803
63.6043
63.6235
63.6475
63.6799
63.7152
63.7518
63.7876
63.82
63.8497
63.8767
63.9011
63.9232
63.9427
63.9596
63.9728
63.9816
63.9827
63.9722
63.9446
63.3007
63.2618
63.2704
63.3054
63.343
63.3855
63.4343
63.4837
63.5341
63.5819
63.6241
63.6629
63.6965
63.7253
63.7526
63.777
63.7962
63.8112
63.8214
63.822
63.8025
63.7571
62.8977
62.8437
62.8563
62.9129
62.974
63.0446
63.1177
63.1872
63.2549
63.3151
63.3679
63.4151
63.4535
63.4843
63.512
63.5391
63.5659
63.588
63.6009
63.6018
63.5693
63.4948
62.3641
62.2893
62.3087
62.3945
62.496
62.6087
62.7174
62.8161
62.9024
62.974
63.0363
63.0903
63.1352
63.1723
63.2005
63.2229
63.2464
63.2711
63.2904
63.2906
63.2387
63.1195
61.6592
61.5644
61.5919
61.7251
61.8865
62.0505
62.2128
62.3514
62.4648
62.5545
62.6276
62.6872
62.7329
62.7699
62.7968
62.8158
62.8291
62.8449
62.8606
62.8473
62.7508
62.5726
60.7211
60.5879
60.642
60.8517
61.0942
61.3333
61.5709
61.7695
61.9252
62.0402
62.1236
62.181
62.2163
62.2378
62.2547
62.2697
62.2718
62.2682
62.2674
62.2231
62.0584
61.7995
59.436
59.2387
59.3244
59.6679
60.0373
60.4084
60.7664
61.0444
61.2526
61.3978
61.4949
61.5517
61.5779
61.5855
61.5834
61.5759
61.5503
61.5145
61.4682
61.3698
61.105
60.7067
57.6025
57.2928
57.4771
58.0392
58.6421
59.2191
59.741
60.1171
60.3948
60.585
60.7039
60.7695
60.7948
60.7871
60.7533
60.7044
60.6225
60.5171
60.399
60.1981
59.7671
59.1521
54.8416
54.4251
54.9
55.8349
56.8016
57.6791
58.4091
58.9343
59.3057
59.548
59.6959
59.7737
59.7929
59.7633
59.6855
59.5709
59.4161
59.208
58.9554
58.5641
57.8558
56.8903
50.441
50.0806
51.2038
52.8063
54.3353
55.6916
56.7217
57.4539
57.9529
58.2691
58.4526
58.5306
58.5267
58.4654
58.3341
58.1202
57.8099
57.4018
56.933
56.2722
55.1125
53.6127
43.0685
43.0551
45.8118
48.772
51.0366
53.088
54.565
55.5889
56.2669
56.6754
56.9082
57.0059
56.9868
56.8623
56.6264
56.2687
55.7399
54.9865
54.0556
52.9843
50.5957
47.7533
29.8006
30.5332
38.2532
43.2651
46.629
49.7079
51.8764
53.2715
54.1529
54.6912
55.0174
55.1597
55.1338
54.9258
54.5401
53.9557
53.0774
51.7432
49.6645
45.791
40.0813
35.6619
10.0456
-4.23573
17.1698
32.672
40.7575
45.6661
48.6623
50.4933
51.6386
52.3541
52.7788
52.9596
52.9201
52.6195
52.0483
51.1562
49.8187
47.6222
43.875
36.5713
21.5871
2.81576
-206.095
136.824
87.7481
52.7619
37.9382
30.4139
29.6363
28.7138
29.7064
29.9052
28.8471
28.0859
28.2101
28.4737
27.1904
26.2229
25.8875
25.1965
26.3366
26.2902
26.3116
25.7982
26.1593
25.9265
25.6754
24.392
23.9204
23.5936
23.1379
24.061
24.6814
24.3541
25.6258
26.119
25.5028
24.9633
25.1861
24.9526
24.6312
24.4676
25.6586
25.7196
25.8729
25.4868
26.1801
26.0283
25.8707
26.8263
26.1136
26.8463
26.9736
26.9948
25.8881
25.1937
25.2646
25.5465
25.611
25.3251
24.7095
24.6307
23.9511
24.0085
23.3726
24.7075
24.8179
24.2117
23.9276
23.4197
23.548
23.0162
23.4508
24.231
24.039
23.5587
23.6342
23.8865
23.9912
23.8747
23.6693
23.2826
23.5749
23.7715
23.3014
22.8982
21.7292
22.8725
22.4281
22.1509
22.417
22.6583
20.8336
19.3186
18.9708
20.2241
20.6064
20.2366
20.235
20.0339
19.2831
18.1537
17.4379
17.8058
17.824
16.1504
14.487
12.9265
11.2965
10.8277
12.5915
10.8871
-162.245
5.89999
12.5103
27.0803
35.664
41.4921
45.0698
47.3189
48.7402
49.616
50.121
50.3351
50.3047
49.9248
49.1717
47.9421
46.0247
42.8103
36.9102
24.3428
-4.97397
-70.4532
-245.74
-142.793
-25.7108
-10.4569
-0.092944
5.98309
9.09887
10.2013
9.42315
9.55169
10.1953
11.552
12.2876
12.0705
12.833
12.6301
11.6433
11.1679
10.5228
10.7385
11.3183
11.2908
11.5918
11.6953
12.5487
13.0734
12.8609
13.5868
13.1008
12.1789
11.5267
10.0068
9.97416
9.3193
9.07492
9.2881
9.97346
9.98297
9.69022
8.65536
8.22154
7.79288
7.16974
6.3401
5.89019
6.41808
6.31994
7.22319
7.2204
7.82013
8.43703
8.18411
7.50923
6.97573
6.15067
5.89331
5.96499
5.70505
5.84362
5.1978
5.74968
5.08662
4.85969
4.36538
4.8132
3.8726
4.30539
3.40068
2.99302
2.98669
2.51354
2.08088
3.19687
2.81702
3.7273
4.24406
4.82471
4.14814
4.13218
3.86143
3.51548
3.417
4.14626
4.45813
3.78698
4.30365
3.98018
3.8736
3.92119
4.192
4.12038
3.73661
4.19495
4.39377
5.33423
6.29708
6.67207
7.00592
7.19557
7.76488
7.73944
9.04835
9.84231
10.2151
10.4771
10.9258
10.6136
8.30859
0.070502
-14.3478
31.3065
24.9212
42.5111
31.0402
24.8495
26.2463
27.4119
28.0143
29.0651
28.8912
28.0954
28.0417
27.798
27.4133
26.6112
25.725
25.132
25.4653
26.1921
26.4572
26.307
26.1424
26.3012
27.0145
26.752
24.7973
23.6268
23.4363
23.2061
24.3436
24.8925
24.7152
25.7701
26.1367
26.0634
24.9789
24.8303
25.4344
24.7481
24.5882
25.3754
25.7208
25.731
25.6568
25.9078
26.1101
26.556
26.7358
27.1444
27.5757
27.1588
26.502
25.9941
25.556
25.4181
25.5234
25.3236
24.5297
24.2375
23.7447
23.2346
23.1899
23.2621
24.0215
24.4988
23.6634
23.7123
24.2339
24.1171
24.3873
24.9172
24.6526
25.0847
24.1274
23.7558
23.6892
23.8951
24.0469
23.9543
23.3465
22.9678
23.4585
23.6029
23.0925
21.9179
21.6052
22.1729
22.4363
22.5641
22.8236
20.567
18.7509
18.3201
19.6293
20.5649
20.4412
20.0794
19.8769
19.2421
18.7698
19.0273
19.9892
19.0554
17.5543
15.8103
13.8916
13.9618
14.019
21.0115
28.8128
-79.2713
-21.8293
10.3484
22.2545
31.4796
37.5883
41.4218
43.9244
45.5231
46.4465
47.0018
47.2715
47.2849
46.8906
46.0016
44.5339
42.1757
38.2534
31.4752
18.7192
-6.1433
-47.7362
-97.4185
-75.3871
-31.6758
-9.62199
0.0154594
5.27525
7.77046
9.23397
8.85826
9.27468
10.3483
11.2954
11.5187
10.3299
10.9984
11.0611
10.9108
10.5525
10.4094
10.7465
11.5294
11.7092
12.1269
12.5004
12.9293
12.9907
12.9173
13.1611
12.8937
12.5326
12.0624
10.6174
9.8383
9.49467
9.03252
9.53169
10.6456
10.5376
10.331
9.19892
8.36954
7.5637
6.64729
5.9547
6.10089
6.36502
6.2281
6.96326
7.41135
7.73939
7.96592
8.41343
7.34478
6.99538
6.09138
6.09732
6.1758
5.58392
5.66279
5.55886
5.70898
5.51525
4.933
4.3152
3.97442
3.81907
3.73124
3.71274
3.15951
2.48279
2.53272
2.67557
2.76388
2.94327
3.60339
4.50688
4.72669
4.13521
3.86908
3.62876
3.41205
3.10432
3.62255
4.11548
3.97285
3.97139
3.72888
3.65521
3.62294
4.06139
4.83363
4.63532
4.60728
4.9396
5.53603
6.25819
7.06301
7.31581
7.17618
7.67328
8.12942
8.52591
9.06648
9.51472
9.93776
10.8728
12.261
12.118
5.52585
-5.32069
24.5
45.3111
28.9499
20.7689
19.3511
21.4659
23.7557
25.7068
27.3402
27.3612
27.1301
28.2879
27.011
26.4348
25.818
24.3415
25.2876
26.7848
26.8032
26.9261
26.3596
25.5055
25.6311
25.5313
24.7988
24.8696
24.4275
23.8289
23.6956
23.6479
24.6581
25.2845
25.8571
26.0859
26.4381
26.4897
25.877
25.3441
25.5383
25.5087
25.4638
25.8708
25.7124
25.8224
25.9647
26.1823
26.5099
25.8502
25.1887
25.8495
26.4946
25.5527
24.9439
24.9409
24.5913
24.3118
24.761
24.9799
24.4868
23.948
23.3308
22.4972
23.2616
23.9793
24.3007
24.2724
24.0408
24.207
24.2261
24.3907
24.9699
25.2136
24.5709
24.0434
23.6202
23.3126
23.502
23.9768
23.8107
24.4158
24.2498
23.4934
23.743
24.4783
24.7246
24.0247
23.7853
22.6633
21.9475
19.8776
18.2974
19.0929
20.7077
20.975
20.7834
20.3026
19.552
19.2532
18.9315
19.0245
19.1722
18.8737
18.268
18.0688
17.9914
18.5443
17.2649
16.5594
19.3046
1.69528
-19.5994
-1.43903
11.2957
21.1691
29.0665
34.3986
38.0063
40.4868
42.0879
43.0141
43.6173
43.9622
44.0358
43.6506
42.6736
41.0377
38.494
34.4452
28.1069
17.6859
1.03544
-21.3037
-39.7168
-31.546
-13.3103
-3.09328
3.93083
5.15102
5.23681
5.99289
7.6323
8.44398
9.59049
11.4049
12.1745
12.7676
11.1456
11.2207
10.0875
10.0342
10.2592
10.2311
11.3401
12.4399
12.6925
13.1128
13.8319
13.4195
12.6098
12.1988
11.4046
10.7373
10.1627
9.87118
9.38757
9.61338
9.51521
9.96273
9.72272
9.78706
9.76713
9.33273
8.74167
7.52777
6.16911
6.21562
6.72021
7.58865
8.11214
7.85256
7.67139
7.25069
7.28538
7.09702
7.68416
7.27619
6.71184
6.38745
6.28447
5.68877
5.70165
5.56975
5.42511
5.03614
4.80559
4.37348
3.77405
3.69495
2.76475
3.40645
3.5146
3.54972
3.26107
3.2726
3.31485
3.27892
3.80973
4.14684
4.5305
3.62012
3.22834
2.82476
2.73666
2.57284
3.57113
4.10915
3.87805
3.80619
3.61351
3.23611
3.30557
4.16842
5.55063
5.22119
5.24837
5.80102
6.07019
6.25484
7.01804
7.18702
7.2131
7.40137
8.52571
7.74679
8.08655
7.99671
8.29163
9.89875
12.193
13.6381
9.79563
12.3235
34.7909
37.4926
34.1918
26.1879
24.1807
22.0944
23.6948
24.5431
25.4966
26.3571
26.6799
27.577
26.675
25.8329
25.2748
25.0642
25.5919
25.9818
26.5832
26.5784
26.044
25.9457
25.8367
25.6363
25.3026
24.7971
24.2435
22.9819
23.2295
23.9577
24.403
24.9365
25.5795
26.3053
26.7167
26.7577
26.4045
25.8604
25.6464
26.1298
25.5831
25.9876
26.4477
26.2217
26.1839
26.1992
26.2606
25.693
24.6264
25.4924
26.8316
25.7267
24.6671
25.001
24.6376
24.4599
25.0168
24.5336
24.092
23.5243
22.7969
22.6701
23.1927
23.916
24.6217
24.1394
23.8599
24.3293
24.414
24.8863
25.2883
25.4267
24.9999
24.5385
24.0901
23.6896
23.7174
23.6646
23.8158
23.9285
23.5117
23.3734
24.7803
24.6674
24.4225
24.2841
24.1018
23.229
21.6366
19.6692
16.6692
17.3769
19.4787
21.0336
20.7188
20.5992
20.2113
19.6135
19.593
19.4507
19.4713
19.2452
18.9073
19.0444
18.7344
18.6256
18.0702
17.0236
15.9903
15.4646
5.54905
10.1452
17.5529
23.1779
28.2699
32.2306
35.193
37.3703
38.8617
39.7864
40.3803
40.7052
40.7746
40.3895
39.399
37.7093
35.2079
31.5425
26.3012
18.838
8.90474
-2.10436
-8.57092
-5.1685
-0.0343351
5.42102
7.87107
6.29063
6.30113
6.25764
7.72611
8.73922
9.88549
10.878
12.1579
12.0411
11.6805
11.518
10.9396
10.8649
10.5058
9.03281
11.2565
12.3504
12.812
13.7712
13.5603
13.2705
12.8046
12.1602
11.406
10.8556
10.0151
9.88297
9.89647
8.93024
9.19817
9.26251
9.64728
9.53563
9.67182
9.35531
8.82712
7.72488
6.86694
6.42856
6.78599
7.45467
7.73897
7.79387
8.33678
7.61142
7.7572
7.63935
7.66321
7.18259
6.50356
5.71886
6.36811
6.52351
6.1598
5.61987
5.19162
4.76328
4.49271
3.8199
3.82809
3.58829
3.6848
3.60591
3.5669
3.09678
3.5549
3.89259
4.06643
4.13418
2.55609
4.16892
3.83897
3.76449
3.42946
3.07931
2.66274
2.80439
3.68252
4.02061
3.97805
4.12935
4.1125
3.69828
3.35973
3.80312
4.55057
5.01874
5.19793
6.04276
5.94401
6.43932
6.83517
6.86338
6.95301
7.44437
7.66004
7.28443
6.83395
6.45381
6.94688
8.35064
9.99952
10.5681
10.3125
4.95362
32.793
32.6379
32.8955
30.4692
25.8034
25.3328
24.6164
24.3523
25.2514
26.2172
26.4212
26.4251
26.2949
25.8109
25.4155
25.7183
27.3365
26.1475
25.1032
25.6132
25.769
25.7354
25.8893
25.6676
24.9932
24.5012
23.9759
24.5346
24.4519
24.4792
24.4144
24.8387
25.3029
25.9728
26.634
26.612
26.4789
26.0799
25.9363
26.4748
26.5746
26.1305
25.7478
26.1064
26.2477
25.9217
25.5931
25.2828
24.9317
25.2003
25.7094
25.2134
24.3878
25.0415
25.1175
24.8045
24.5319
24.3062
23.9874
23.2908
23.0384
23.3077
23.1649
24.173
24.5445
24.3701
23.7796
24.0786
24.1922
24.5502
25.335
25.2934
25.1221
24.6948
24.3789
23.9607
24.04
23.788
23.7936
23.3838
24.2771
24.1139
24.1148
24.7188
24.2655
23.9904
22.981
22.468
21.2811
17.7689
17.4872
18.2428
19.4092
19.9809
20.5583
20.6071
20.4009
19.9644
20.1552
19.6811
19.7679
19.6618
19.0848
19.39
19.0807
17.7894
16.2099
15.7751
16.5424
17.1336
16.3778
18.4357
22.2832
25.4401
28.4039
31.0392
33.1898
34.8743
36.1319
36.9809
37.431
37.6234
37.5521
37.1254
36.186
34.6784
32.417
29.3056
25.3315
20.2954
14.4529
8.80817
5.36345
5.79471
7.77666
9.98041
10.3883
10.3206
8.48768
9.02158
9.47118
9.97759
10.4207
11.0797
11.0179
11.3556
11.2522
10.568
10.4901
10.0362
9.0691
11.1042
10.8564
11.1508
12.8104
12.6334
12.6255
12.7361
12.6705
12.1292
11.6457
11.0154
10.5344
10.1397
9.7877
9.60422
9.56516
9.59354
9.37534
9.58863
9.31289
9.03021
8.6982
8.00401
7.46479
7.16424
7.51405
7.87771
8.02767
7.35909
7.85223
8.28488
8.00918
7.61537
7.43849
7.16894
6.43449
6.69858
6.49606
6.36337
6.22803
5.62281
5.06663
4.89296
4.30769
3.83136
3.53296
3.48711
3.42996
3.51827
3.74261
3.84931
3.88652
3.98013
3.75607
4.5255
3.00881
3.45581
3.96018
3.94539
3.77487
3.18979
2.94853
2.69585
3.16442
3.55767
3.79895
4.12899
4.40736
4.02084
3.5409
3.97343
4.2428
4.17096
5.18573
5.83728
6.13766
6.29232
6.45537
6.55773
6.56894
6.72313
6.99677
6.5645
6.20883
6.0656
6.05958
6.60071
7.37741
7.12266
6.57449
1.16243
29.7773
30.2406
30.605
30.1872
27.0382
25.8671
25.4004
26.7925
26.4618
26.7154
26.4854
26.3364
26.0697
26.6578
25.8984
26.8972
26.4223
26.0289
24.7409
25.3615
25.7585
24.9738
24.4453
25.2029
25.1296
24.8985
24.0592
24.3388
24.3613
24.3937
24.7106
24.9336
25.2788
25.7384
26.0846
26.1919
26.0394
25.9003
26.035
26.0356
26.381
26.2832
26.2253
26.1845
26.1108
26.3172
25.7259
24.9009
24.9097
25.2869
25.3888
24.9248
25.3315
24.1844
25.3597
24.4873
24.2354
24.0549
23.6318
23.881
23.6188
23.7558
24.399
24.2446
24.2958
24.3498
24.6373
24.3784
25.0417
24.8752
24.6192
25.0022
24.9572
24.7118
24.4221
24.1947
24.1325
23.8836
23.8021
24.1794
24.3379
24.6036
24.8734
25.4452
25.9614
25.2393
24.6025
23.5317
21.2385
17.8103
17.1044
18.5556
19.9862
20.3131
20.2349
20.7936
19.0598
20.5066
20.076
20.3112
20.7256
20.4515
21.0557
20.8977
19.6742
18.0679
16.1159
14.6728
15.6983
17.3006
18.9286
21.5615
24.11
26.2617
28.3723
30.2362
31.8579
33.1905
34.2381
34.8941
35.1761
35.1659
34.8248
34.1931
33.1768
31.8189
30.0197
27.6406
24.7721
21.4936
17.9582
14.8325
12.7972
12.3039
12.729
13.0402
12.4848
10.8093
10.017
10.2838
10.3695
10.7223
11.1971
11.4089
11.372
11.434
11.1788
10.5787
10.5946
10.3502
9.88531
10.9106
10.9542
11.6025
11.25
11.9398
12.2727
12.5467
12.3789
11.9843
11.4763
10.9398
10.5007
10.3367
10.0706
9.78832
9.62669
9.73393
9.37895
9.07517
8.89769
9.17572
8.81253
8.14853
7.77621
7.58209
8.07012
7.93797
7.27093
7.15635
7.44947
7.75796
7.74789
7.54646
7.44201
7.10852
6.66523
6.40129
6.24353
6.23413
6.00482
5.48362
5.18311
4.80879
4.31922
3.8443
3.48287
3.56728
3.70083
3.72143
3.77564
3.4342
3.83126
4.06593
4.16098
4.0361
4.00346
3.69874
3.54699
3.80658
3.78754
3.36658
3.55497
3.05941
3.3689
3.6017
3.62956
3.03063
3.55282
3.7098
4.02866
4.02954
4.13311
3.93468
5.14444
5.55907
5.90968
5.91189
6.00462
6.3613
6.22002
6.2481
6.291
5.92007
5.56198
5.25516
5.57139
5.72965
5.91039
5.75125
5.03687
1.26475
29.0804
28.6573
29.5496
29.9553
28.464
27.2773
27.1262
26.6464
26.6728
27.0538
26.5169
26.1467
26.0844
26.5362
26.3844
26.4172
26.4313
26.2126
27.4914
26.5734
24.9614
25.2454
25.2526
24.834
24.782
24.8412
24.4294
24.3202
24.6135
24.8404
25.0505
25.2579
25.6968
25.6148
25.6289
25.7182
25.8413
25.9547
25.65
25.7622
26.2156
26.1431
25.9075
25.86
25.7914
25.6394
25.51
24.8157
24.9544
25.0136
24.8529
24.9277
23.9049
23.5829
24.0526
24.411
23.8627
23.6045
23.4418
23.8294
23.9009
24.0998
24.6111
24.3821
24.2297
23.9039
24.1934
24.2262
24.5032
24.9113
24.9566
24.953
24.6421
24.6469
24.1894
24.0774
24.004
23.9386
23.928
24.2353
24.5326
24.8827
25.1709
25.5177
25.9946
25.9316
25.7201
25.0678
23.3457
20.249
19.9033
20.7463
20.9619
20.4076
19.565
21.0016
21.0746
20.9881
21.0125
21.1926
21.3997
21.0555
20.8867
20.2511
19.1662
17.3594
15.2351
14.2295
15.4003
17.1799
19.6829
21.9667
24.1643
26.1275
27.8451
29.4022
30.7428
31.8171
32.6283
33.1247
33.261
33.0565
32.4452
31.576
30.4422
29.2423
27.9021
26.2634
24.4023
22.3819
20.2067
18.3218
17.1061
16.4701
16.0732
15.6873
15.1126
13.8515
12.4023
11.7807
10.7936
10.7556
11.3576
11.665
11.7246
11.6405
11.6077
11.1483
10.9658
10.8134
10.5956
10.9012
10.9835
11.2504
10.8288
11.4767
12.0251
12.2404
12.0819
11.7367
11.3057
11.0081
10.7661
10.5096
10.0863
9.99441
9.5933
9.49706
9.20313
8.72647
8.58037
8.5012
8.2497
8.01059
7.39314
7.3437
7.63685
7.76372
7.23105
7.244
7.49735
7.54882
7.423
7.31764
7.08672
6.99852
6.54002
6.48345
6.29485
6.13231
5.7686
5.4193
5.0202
4.89322
4.56853
4.57757
4.18485
4.29923
4.12132
3.63246
3.54126
3.8693
3.8869
3.95161
3.84795
3.84262
3.76072
3.6687
3.87242
4.15239
3.98448
3.47066
3.594
3.60011
3.63665
4.21311
4.04107
4.0665
3.9716
3.99659
4.11553
4.1808
4.30352
4.14797
4.83058
5.248
5.57789
5.52977
5.4613
5.71779
6.09506
6.05162
5.77079
5.45297
5.1728
4.81666
4.47286
4.73624
4.87631
4.52539
3.93646
1.50559
27.903
27.5033
28.4358
28.8102
29.0473
28.6258
27.2086
27.2259
27.0077
26.6886
26.2179
26.3681
26.9706
26.8881
26.5711
26.1331
25.9649
25.7673
25.9268
25.8209
25.9841
25.4798
25.3729
25.5509
24.7021
24.9628
25.1023
24.8926
24.9071
24.8692
25.1761
25.3847
25.5291
25.568
25.6421
25.8045
25.8485
25.7454
26.127
26.0956
25.9089
26.1079
26.0004
25.8588
25.331
25.685
25.4713
25.3957
24.9707
25.2082
25.2033
24.8197
24.2642
24.411
24.7186
24.5626
24.0677
24.418
23.6948
24.0665
24.3796
24.2792
24.0276
24.2753
24.2051
24.3156
24.5517
24.4786
24.6203
24.9325
25.0526
24.9475
24.7272
24.4974
24.4562
24.3823
24.1388
24.1015
24.3729
24.247
24.5254
24.6495
24.8822
25.3639
25.8239
25.9401
25.1434
24.6076
22.9288
21.7402
22.0823
22.3009
21.8621
21.4608
21.9372
21.5511
21.2459
21.1212
21.5406
21.5623
21.5486
20.9875
21.1292
20.7082
19.3032
17.3747
14.5866
13.6329
14.9664
17.4949
20.0351
22.2881
24.177
25.7717
27.2336
28.5432
29.6932
30.5949
31.2392
31.5603
31.5077
31.0884
30.2583
29.2002
28.0139
27.0333
26.1358
25.0517
23.916
22.7308
21.4322
20.242
19.4561
19.005
18.5229
17.9022
16.9862
15.4888
13.6896
12.4508
11.8815
11.7984
12.2472
12.1977
12.2658
12.1047
11.971
12.7486
12.4979
11.5211
11.5412
12.7658
11.8125
11.2585
11.2204
11.7461
11.9261
11.9127
11.684
11.295
10.9371
10.7278
10.6297
10.3975
10.1644
9.72346
9.304
8.97006
8.60257
8.49021
8.28315
8.25059
8.21265
8.03297
7.6785
7.52901
7.6617
7.56171
7.45351
7.26892
7.17309
7.14249
7.1273
7.0985
7.07438
6.87849
6.66108
6.49704
6.63639
6.4643
5.41265
5.40698
5.15214
5.06608
4.93429
4.91342
4.34185
4.57438
4.02595
3.84429
3.87507
3.99583
3.69047
3.61843
3.84317
3.62751
3.72459
3.49054
3.53451
3.02573
3.66092
3.68381
4.03952
3.76005
3.84997
3.29597
3.76135
4.03578
4.09642
4.02211
4.2893
4.09265
4.12955
4.30258
4.71815
4.85489
5.03394
5.11302
5.21709
5.33126
5.88078
5.69685
5.27609
4.9223
4.69363
4.49822
4.31024
4.06551
3.94726
3.81786
2.91377
1.33858
28.5791
28.4697
27.9282
28.983
29.6728
27.979
27.5541
27.2418
26.9094
26.588
26.6481
26.9328
27.2654
27.1468
26.756
26.5584
26.0927
25.7548
26.4507
26.3123
26.5073
26.0602
25.7562
25.5793
25.2156
25.3284
25.3142
24.973
24.778
25.0762
25.3207
25.4423
25.5771
25.5852
25.6808
25.6379
25.7202
25.6093
25.65
25.9608
26.0262
26.2008
26.2496
25.9904
25.6462
25.1621
25.6647
25.999
25.3618
25.4881
25.2045
25.1666
24.8934
24.8412
24.9185
24.6111
24.5821
24.5548
24.0068
24.0511
24.1428
24.3359
24.2578
24.5538
24.3005
24.5072
24.6725
24.8635
25.1454
25.1666
25.0404
24.8429
24.7508
24.5621
24.5635
24.7583
24.3218
24.4299
24.3216
24.2199
24.2664
24.395
24.8742
25.2655
25.5651
25.5343
25.2272
24.7207
23.8819
23.1472
23.2136
23.0359
22.3099
21.9838
22.4314
21.3219
21.5265
22.2442
22.2477
22.1566
22.1094
22.1697
20.5236
20.3878
19.7657
18.7641
17.138
16.9419
18.3578
20.2036
21.433
22.8892
24.1151
25.2911
26.4619
27.596
28.6435
29.4318
29.9843
30.1039
29.89
29.3249
28.3929
27.2809
26.1813
25.3589
24.6821
24.0303
23.4824
22.9558
22.2255
21.2819
20.6781
20.394
20.2336
19.8147
19.5178
16.9585
14.7532
13.9514
12.7952
12.6111
13.051
12.8785
12.5826
12.5361
12.3022
12.305
11.6305
11.3784
11.2993
11.941
11.3453
10.3226
10.252
11.1325
11.232
11.1923
11.1848
10.8296
10.4204
10.1128
10.0455
10.0918
9.81934
9.64893
9.35036
8.96565
8.46506
8.04078
7.992
8.10541
7.99932
7.94879
7.9302
7.95643
7.91011
7.70989
7.35478
7.28796
7.07731
7.25187
7.35094
7.51842
7.04845
7.06311
6.70408
5.84078
6.79794
5.75911
5.55981
5.15882
4.98496
5.03267
4.83873
4.50902
4.02967
4.97026
4.62715
4.64557
3.6103
4.19796
3.95501
3.54462
3.60485
3.50482
3.6953
3.88402
3.95561
3.66129
3.77837
2.89091
3.74261
4.70209
5.04697
4.82267
4.74023
4.48668
4.13087
4.24809
4.54903
4.51119
4.46499
4.57581
4.44453
4.52953
5.13259
5.1688
5.04983
4.85536
5.09725
5.01948
4.66042
4.4461
4.44098
4.09081
3.56596
3.58229
3.27231
2.98205
2.48918
1.80833
29.2735
29.0021
29.8874
29.5663
29.6632
28.7085
28.0398
27.6165
27.438
28.0554
28.0955
27.5597
27.4453
27.2788
27.1789
27.1025
26.3683
25.7596
26.5281
25.4421
26.0798
26.3176
25.9693
25.6065
25.6427
25.6887
25.5125
25.1644
25.3386
25.5052
25.5442
25.4818
25.4621
25.7648
25.7806
25.731
25.7662
25.6514
25.711
25.9878
25.8826
26.2685
26.2537
26.5045
25.8264
25.2422
25.7134
25.3991
25.4044
25.5161
25.2254
25.1162
25.143
24.8117
24.8339
24.4661
24.4176
24.301
24.2222
24.3108
24.3641
24.3495
24.3217
24.3448
24.4454
24.5241
24.6303
24.946
25.188
25.1639
24.8932
25.0456
24.6793
24.8285
24.4498
24.4813
24.5073
24.5713
24.5288