/*--------------------------------*- C++ -*----------------------------------*\
  =========                 |
  \\      /  F ield         | OpenFOAM: The Open Source CFD Toolbox
   \\    /   O peration     | Website:  https://openfoam.org
    \\  /    A nd           | Version:  7
     \\/     M anipulation  |
\*---------------------------------------------------------------------------*/
FoamFile
{
    version     2.0;
    format      ascii;
    class       surfaceScalarField;
    location    "50";
    object      phi;
}
// * * * * * * * * * * * * * * * * * * * * * * * * * * * * * * * * * * * * * //

dimensions      [0 3 -1 0 0 0 0];

internalField   nonuniform List<scalar> 
240592
(
6.29396e-12
8.74145e-13
-7.16806e-12
-6.41922e-11
1.4147e-10
6.0821e-11
-1.38099e-10
-1.95496e-10
2.274e-10
8.37917e-12
-4.02831e-11
2.06701e-10
-2.7096e-11
4.57292e-11
-2.25334e-10
-2.0314e-10
2.24566e-10
1.30433e-11
-3.44688e-11
-2.09341e-10
2.13565e-10
3.67816e-12
-7.90242e-12
-2.11935e-10
2.32197e-10
3.1624e-11
-5.18861e-11
-2.62135e-10
2.79173e-10
1.26415e-11
-2.96798e-11
-3.16475e-10
2.9079e-10
-3.12129e-11
5.68971e-11
-2.479e-10
2.1097e-10
-1.93965e-11
5.63266e-11
-2.06382e-10
2.09092e-10
7.55667e-13
-3.46573e-12
-2.24451e-10
2.51199e-10
3.01429e-11
-5.68907e-11
-2.84315e-10
2.91937e-10
1.39764e-11
-2.15989e-11
2.96744e-10
1.38273e-12
-5.54906e-12
-2.92578e-10
-3.17387e-10
3.26411e-10
-9.13043e-12
1.05652e-13
-3.16127e-10
3.18715e-10
-8.94932e-12
6.36018e-12
-3.03154e-10
2.89109e-10
-1.76787e-11
3.17244e-11
-2.83936e-10
2.8583e-10
-3.38075e-12
1.48596e-12
-2.21097e-10
1.64403e-10
-4.7716e-11
1.0441e-10
-1.33144e-10
1.27268e-10
4.85615e-12
1.01909e-12
-1.0957e-10
7.75485e-11
-3.72122e-11
6.92337e-11
-7.65085e-11
4.08041e-11
-1.66624e-11
5.23669e-11
4.37077e-11
7.16858e-11
-3.9649e-11
-7.57442e-11
1.97216e-10
-1.42395e-10
1.65083e-10
-6.64343e-12
-2.1326e-10
1.12309e-10
-2.05051e-10
2.63049e-10
-5.31414e-12
-1.64995e-10
-5.91707e-11
-3.2904e-10
3.98138e-10
-6.02298e-12
-3.90684e-12
6.36486e-11
-4.22684e-10
4.56215e-10
-5.34577e-12
-9.18361e-11
7.04089e-11
-5.1829e-10
5.88894e-10
-4.40686e-12
-1.36607e-10
6.36841e-11
-6.66525e-10
6.97898e-10
-7.1739e-12
-8.78853e-11
2.46758e-11
-6.96594e-10
6.99567e-10
-7.53671e-12
-2.01137e-11
-5.73454e-11
-6.94921e-10
7.37293e-10
-6.08374e-12
2.10556e-11
-8.18403e-11
-7.9967e-10
8.32806e-10
-5.87399e-12
5.45768e-11
-1.05055e-11
-8.57462e-10
8.51862e-10
-6.32069e-12
2.24257e-11
7.0495e-11
-8.38953e-10
8.0785e-10
-7.23061e-12
-3.21628e-11
4.53494e-12
-7.64939e-10
7.42457e-10
-7.47617e-12
2.54224e-11
4.50114e-13
-7.28435e-10
7.08593e-10
-7.82363e-12
2.72142e-11
-3.38304e-11
-6.80309e-10
6.4802e-10
-7.29265e-12
7.34118e-11
-5.52122e-11
-6.22586e-10
5.86768e-10
-7.11727e-12
9.81471e-11
-4.99933e-11
-5.60357e-10
5.36898e-10
-6.26986e-12
7.9721e-11
-6.38504e-11
-5.07711e-10
4.65214e-10
-8.11825e-12
1.14465e-10
-1.70102e-10
-4.57764e-10
4.65571e-10
-7.02561e-12
1.6932e-10
-1.04592e-10
-4.19375e-10
3.25702e-10
-9.23454e-12
2.075e-10
-6.37612e-11
-2.53502e-10
2.15682e-10
-5.75252e-12
1.07333e-10
-1.44522e-10
2.03307e-11
6.83344e-12
2.46341e-10
-1.28983e-10
1.08418e-10
8.45382e-11
-3.45858e-11
-1.5837e-10
-1.32394e-10
2.48157e-10
1.87475e-10
-6.26148e-12
-2.96977e-10
2.06642e-10
-2.37845e-10
2.77042e-10
-4.77026e-12
-2.41071e-10
9.57216e-11
-3.37423e-10
4.1232e-10
-4.66684e-12
-1.65953e-10
9.96864e-11
-4.86338e-10
5.18524e-10
-4.30373e-12
-1.2757e-10
1.67789e-10
-5.44228e-10
5.80364e-10
-4.76344e-12
-1.99162e-10
1.41673e-10
-6.53794e-10
7.09023e-10
-5.27189e-12
-1.91631e-10
3.77566e-11
-7.39135e-10
7.59971e-10
-5.45342e-12
-5.31393e-11
-9.35158e-12
-7.74765e-10
8.02394e-10
-4.89567e-12
-1.33824e-11
-3.8479e-11
-8.36236e-10
8.64819e-10
-5.17069e-12
1.50652e-11
-1.7272e-11
-8.65756e-10
8.58672e-10
-5.8939e-12
3.02489e-11
-3.69747e-12
-8.55674e-10
8.41595e-10
-5.80705e-12
2.35833e-11
-5.53675e-11
-8.16935e-10
7.99115e-10
-5.85062e-12
7.90369e-11
-6.07042e-11
-7.85394e-10
7.60247e-10
-6.08008e-12
9.19308e-11
-1.07304e-10
-7.28748e-10
6.99112e-10
-6.46222e-12
1.43402e-10
-1.30454e-10
-6.72886e-10
6.36249e-10
-6.19476e-12
1.73285e-10
-1.25378e-10
-5.96349e-10
5.55134e-10
-6.50066e-12
1.73093e-10
-1.52727e-10
-5.17023e-10
4.7924e-10
-6.89577e-12
1.97405e-10
-2.16058e-10
-4.78638e-10
4.56573e-10
-7.37005e-12
2.45492e-10
-3.06324e-10
-3.92744e-10
2.90613e-10
-7.74367e-12
4.16198e-10
-1.78115e-10
-2.37757e-10
1.53932e-10
-6.99914e-12
2.68938e-10
-3.10973e-10
-1.16172e-11
4.20563e-12
3.44495e-10
-2.61105e-11
1.8459e-10
4.17303e-11
-1.84356e-11
-2.07884e-10
-1.38702e-10
3.79485e-10
2.25311e-10
-6.14494e-12
-4.59949e-10
2.79073e-10
-2.82055e-10
3.41172e-10
-2.98511e-12
-3.35205e-10
2.25722e-10
-3.9488e-10
4.52874e-10
-2.89407e-12
-2.80822e-10
1.81951e-10
-5.20807e-10
5.81253e-10
-2.96236e-12
-2.39435e-10
2.28325e-10
-6.39814e-10
6.70497e-10
-3.02053e-12
-2.55989e-10
2.05298e-10
-6.69857e-10
6.87816e-10
-3.14571e-12
-2.20112e-10
8.42171e-11
-7.37318e-10
7.80619e-10
-3.29674e-12
-1.24223e-10
4.14435e-11
-8.19983e-10
8.56775e-10
-4.15191e-12
-7.40853e-11
1.96099e-12
-8.79677e-10
8.99637e-10
-4.79368e-12
-1.71287e-11
-3.90596e-11
-9.0171e-10
9.03759e-10
-4.3908e-12
4.14007e-11
-4.06052e-11
-8.99549e-10
8.89208e-10
-4.01882e-12
5.49648e-11
-1.01772e-10
-8.82321e-10
8.63371e-10
-4.62318e-12
1.25344e-10
-1.31563e-10
-8.31066e-10
8.00677e-10
-5.23247e-12
1.67183e-10
-1.78818e-10
-7.67276e-10
7.25369e-10
-6.28064e-12
2.27005e-10
-2.03524e-10
-7.01133e-10
6.84325e-10
-6.84247e-12
2.27175e-10
-2.19585e-10
-6.64292e-10
6.21512e-10
-7.07688e-12
2.69441e-10
-2.61526e-10
-5.65957e-10
5.02009e-10
-7.49831e-12
3.32972e-10
-2.8604e-10
-4.38749e-10
3.72499e-10
-8.21513e-12
3.60505e-10
-4.61584e-10
-3.30576e-10
3.17701e-10
-8.89059e-12
4.83349e-10
-3.77407e-10
-2.85219e-10
2.53267e-10
-8.55418e-12
4.17914e-10
-4.2007e-10
1.33668e-10
9.06278e-12
5.0599e-10
-2.28651e-10
2.46508e-10
6.72867e-11
-2.62e-11
-2.87595e-10
-1.2152e-10
5.10482e-10
1.78594e-10
-3.94231e-12
-5.63614e-10
4.04782e-10
-2.43352e-10
3.18837e-10
-1.75514e-12
-4.78512e-10
3.40551e-10
-3.98276e-10
4.61084e-10
-1.73216e-12
-4.01627e-10
2.98061e-10
-5.27228e-10
5.87039e-10
-2.16126e-12
-3.55711e-10
2.8719e-10
-6.44423e-10
6.85878e-10
-1.11441e-12
-3.27532e-10
2.46568e-10
-7.14535e-10
7.45692e-10
-6.15989e-13
-2.77111e-10
1.65933e-10
-7.87916e-10
8.3641e-10
-1.91366e-12
-2.12514e-10
1.04278e-10
-8.76319e-10
9.08126e-10
-2.73677e-12
-1.33349e-10
3.0559e-11
-9.34141e-10
9.5205e-10
-2.71598e-12
-4.57519e-11
-4.20342e-11
-9.58515e-10
9.59654e-10
-2.7311e-12
4.36263e-11
-5.65546e-11
-9.67026e-10
9.77585e-10
-2.82333e-12
4.8819e-11
-1.41755e-10
-9.78169e-10
9.68752e-10
-3.26072e-12
1.54432e-10
-2.07993e-10
-9.46952e-10
9.05643e-10
-4.22739e-12
2.53529e-10
-2.70468e-10
-8.43898e-10
8.22027e-10
-5.43386e-12
2.97772e-10
-2.74664e-10
-8.0814e-10
7.54372e-10
-6.57531e-12
3.35007e-10
-3.16814e-10
-7.13823e-10
6.7752e-10
-7.09889e-12
3.60217e-10
-3.91268e-10
-6.25954e-10
5.57983e-10
-7.45351e-12
4.66693e-10
-4.39472e-10
-4.79461e-10
4.0285e-10
-7.7162e-12
5.23798e-10
-5.44211e-10
-3.45744e-10
2.6807e-10
-8.30916e-12
6.30194e-10
-4.82344e-10
-2.04169e-10
1.72738e-10
-8.79762e-12
5.22573e-10
-5.65169e-10
8.11487e-11
5.62782e-12
6.26741e-10
-1.48348e-10
3.05852e-10
7.57658e-11
-3.48986e-11
-3.46719e-10
-1.30223e-10
6.57734e-10
1.86258e-10
-4.74523e-12
-7.09024e-10
5.55772e-10
-2.62317e-10
3.51209e-10
-3.13522e-12
-6.41529e-10
4.55692e-10
-4.43212e-10
5.21182e-10
-2.97685e-12
-5.30685e-10
4.00428e-10
-5.90161e-10
6.37392e-10
-2.75563e-12
-4.44903e-10
3.8011e-10
-6.83931e-10
7.46782e-10
-2.39171e-12
-4.40571e-10
3.10608e-10
-7.98523e-10
8.26556e-10
-2.40399e-12
-3.36237e-10
2.58474e-10
-8.61312e-10
9.11923e-10
-2.60116e-12
-3.06484e-10
1.62916e-10
-9.60164e-10
1.00282e-09
-3.00823e-12
-2.02561e-10
5.88082e-11
-1.03612e-09
1.05411e-09
-2.61012e-12
-7.41907e-11
-3.32841e-11
-1.08192e-09
1.10589e-09
-2.6675e-12
1.1984e-11
-4.99119e-11
-1.09557e-09
1.06855e-09
-2.70099e-12
7.96321e-11
-1.71273e-10
-1.06237e-09
1.06455e-09
-2.69983e-12
1.71791e-10
-2.98513e-10
-1.06427e-09
1.039e-09
-3.45624e-12
3.2724e-10
-3.24597e-10
-9.87122e-10
9.40958e-10
-4.37164e-12
3.75132e-10
-3.75018e-10
-9.1037e-10
8.66456e-10
-5.40927e-12
4.2434e-10
-4.34384e-10
-7.93849e-10
7.09839e-10
-5.90762e-12
5.24301e-10
-5.39073e-10
-6.33891e-10
5.86019e-10
-5.36647e-12
5.92311e-10
-5.93817e-10
-5.44649e-10
5.16949e-10
-5.44551e-12
6.26962e-10
-7.24491e-10
-4.88784e-10
4.23204e-10
-5.69474e-12
7.95766e-10
-5.99486e-10
-3.29106e-10
1.98896e-10
-5.6634e-12
7.35359e-10
-6.86284e-10
4.73629e-12
4.09777e-12
7.5218e-10
-7.47303e-11
3.74703e-10
3.17516e-11
-1.85847e-11
-3.8787e-10
-9.56829e-11
7.61173e-10
1.72705e-10
-7.17912e-12
-8.31016e-10
7.40028e-10
-2.7978e-10
3.91016e-10
-6.17391e-12
-8.45092e-10
6.03183e-10
-4.72214e-10
5.44169e-10
-6.83702e-12
-6.68302e-10
4.96417e-10
-6.10585e-10
6.82231e-10
-6.23303e-12
-5.61831e-10
5.17175e-10
-7.67326e-10
8.46993e-10
-6.61486e-12
-5.90228e-10
3.52611e-10
-9.30593e-10
9.85153e-10
-6.44813e-12
-4.00723e-10
3.38973e-10
-1.00833e-09
1.03672e-09
-5.84708e-12
-3.61522e-10
2.54827e-10
-1.08634e-09
1.14559e-09
-5.47354e-12
-3.08605e-10
9.16619e-11
-1.20282e-09
1.20437e-09
-5.33995e-12
-8.78687e-11
-4.54527e-12
-1.17356e-09
1.18063e-09
-5.34306e-12
2.81616e-12
-9.53779e-11
-1.20348e-09
1.21217e-09
-4.92408e-12
9.16082e-11
-1.64752e-10
-1.2137e-09
1.20445e-09
-3.63321e-12
1.77627e-10
-3.76404e-10
-1.19326e-09
1.15934e-09
-3.36664e-12
4.13695e-10
-4.18231e-10
-1.14799e-09
1.11943e-09
-3.28062e-12
4.50064e-10
-5.17241e-10
-1.03502e-09
9.5457e-10
-2.82181e-12
6.00508e-10
-5.84311e-10
-8.76044e-10
8.0076e-10
-2.04666e-12
6.61641e-10
-6.16973e-10
-7.40328e-10
7.04176e-10
-1.27406e-12
6.54399e-10
-6.94045e-10
-6.79202e-10
5.86343e-10
-8.57664e-13
7.8776e-10
-8.62741e-10
-4.81315e-10
4.55949e-10
-7.92571e-13
8.88899e-10
-8.49131e-10
-4.07409e-10
2.8823e-10
-6.33455e-13
9.68942e-10
-8.11126e-10
4.9248e-11
3.93654e-12
9.02644e-10
-1.44703e-10
4.48886e-10
4.89724e-11
-2.1286e-11
-4.76572e-10
-1.53752e-10
9.01691e-10
2.62474e-10
-1.13814e-11
-9.99031e-10
9.23242e-10
-3.5452e-10
4.2795e-10
-9.37454e-12
-9.87299e-10
6.91027e-10
-4.93273e-10
5.60082e-10
-1.0039e-11
-7.47798e-10
6.30356e-10
-6.34711e-10
7.15315e-10
-1.07445e-11
-7.00216e-10
6.59655e-10
-8.12393e-10
8.87282e-10
-1.10804e-11
-7.23465e-10
4.77964e-10
-9.51063e-10
1.03881e-09
-1.15391e-11
-5.54174e-10
3.93651e-10
-1.12722e-09
1.18872e-09
-1.10748e-11
-4.44081e-10
3.50634e-10
-1.23758e-09
1.27902e-09
-1.05517e-11
-3.81516e-10
5.64096e-11
-1.27984e-09
1.23477e-09
-1.01817e-11
-1.16466e-12
-7.351e-12
-1.21617e-09
1.24233e-09
-1.0332e-11
-8.48117e-12
-8.51876e-11
-1.2879e-09
1.30574e-09
-1.00384e-11
7.73933e-11
-2.05117e-10
-1.28814e-09
1.26703e-09
-8.84569e-12
2.35077e-10
-4.25524e-10
-1.25926e-09
1.24815e-09
-7.15793e-12
4.43798e-10
-4.94323e-10
-1.2213e-09
1.18179e-09
-5.43634e-12
5.39267e-10
-6.46267e-10
-1.14354e-09
1.10663e-09
-3.05505e-12
6.86233e-10
-7.48488e-10
-1.06168e-09
1.00697e-09
-6.27437e-13
8.03824e-10
-7.71185e-10
-9.16547e-10
7.6934e-10
1.65629e-12
9.16735e-10
-8.4347e-10
-6.20219e-10
5.2983e-10
3.78406e-12
9.30074e-10
-8.72184e-10
-4.89758e-10
4.89216e-10
4.27011e-12
8.68454e-10
-1.0792e-09
-4.55656e-10
3.50574e-10
4.25643e-12
1.18002e-09
-1.02319e-09
2.49087e-11
1.29368e-11
1.15293e-09
-1.67578e-10
5.07572e-10
5.9642e-11
-3.15234e-11
-5.3569e-10
-1.58691e-10
1.07883e-09
2.62296e-10
-1.18581e-11
-1.17058e-09
1.06509e-09
-3.57127e-10
4.50923e-10
-9.91656e-12
-1.14897e-09
8.43541e-10
-5.54622e-10
6.53557e-10
-1.04544e-11
-9.32023e-10
7.74547e-10
-7.46265e-10
8.40623e-10
-1.13666e-11
-8.57539e-10
7.97319e-10
-9.2622e-10
1.01435e-09
-1.18626e-11
-8.73586e-10
6.00429e-10
-1.09899e-09
1.16379e-09
-1.26979e-11
-6.52529e-10
4.80372e-10
-1.22472e-09
1.27002e-09
-1.31769e-11
-5.12488e-10
3.85601e-10
-1.30075e-09
1.30781e-09
-1.29317e-11
-3.79729e-10
1.16708e-11
-1.332e-09
1.41524e-09
-1.32414e-11
-8.1671e-11
1.87293e-11
-1.49426e-09
1.49933e-09
-1.40172e-11
-9.78448e-12
-1.14372e-10
-1.47341e-09
1.4573e-09
-1.39356e-11
1.44418e-10
-2.52754e-10
-1.45266e-09
1.43696e-09
-1.34878e-11
2.81945e-10
-4.60743e-10
-1.41046e-09
1.38591e-09
-1.158e-11
4.96881e-10
-6.01125e-10
-1.35858e-09
1.31019e-09
-9.7349e-12
6.59252e-10
-7.26223e-10
-1.26574e-09
1.22679e-09
-7.0488e-12
7.72217e-10
-8.6755e-10
-1.18642e-09
1.12309e-09
-3.74568e-12
9.3463e-10
-1.07338e-09
-1.03782e-09
9.2085e-10
-8.72362e-13
1.19122e-09
-1.05083e-09
-7.63908e-10
6.14659e-10
1.47837e-12
1.1986e-09
-9.48569e-10
-4.79932e-10
3.5009e-10
2.38796e-12
1.07602e-09
-1.22768e-09
-2.3615e-10
1.88589e-10
2.36209e-12
1.27288e-09
-1.2273e-09
1.29593e-10
1.38984e-11
1.28029e-09
-1.96484e-10
5.67442e-10
8.18921e-11
-4.07819e-11
-6.08552e-10
-1.86548e-10
1.26347e-09
2.90698e-10
-1.02575e-11
-1.35736e-09
1.22646e-09
-3.97111e-10
4.99707e-10
-7.13881e-12
-1.32192e-09
1.0492e-09
-6.18396e-10
7.4502e-10
-7.9882e-12
-1.16784e-09
9.56462e-10
-8.67906e-10
9.80333e-10
-8.26827e-12
-1.06062e-09
8.98749e-10
-1.0654e-09
1.13822e-09
-8.59147e-12
-9.62978e-10
7.25254e-10
-1.22149e-09
1.30358e-09
-8.98662e-12
-7.98364e-10
5.58788e-10
-1.37097e-09
1.42676e-09
-9.87874e-12
-6.04707e-10
3.87862e-10
-1.47317e-09
1.5043e-09
-1.02975e-11
-4.08692e-10
1.26724e-10
-1.54206e-09
1.59457e-09
-1.14515e-11
-1.67782e-10
2.47217e-12
-1.63722e-09
1.6483e-09
-1.19611e-11
-1.58441e-12
-1.60061e-10
-1.64861e-09
1.64008e-09
-1.17735e-11
1.8036e-10
-3.34906e-10
-1.62163e-09
1.59371e-09
-1.2188e-11
3.75007e-10
-5.44104e-10
-1.55715e-09
1.52173e-09
-1.24423e-11
5.91962e-10
-7.2067e-10
-1.4893e-09
1.4406e-09
-1.16044e-11
7.80974e-10
-8.38606e-10
-1.38137e-09
1.31282e-09
-1.10431e-11
9.18199e-10
-1.016e-09
-1.23752e-09
1.14874e-09
-9.88049e-12
1.11466e-09
-1.25066e-09
-1.06539e-09
1.00004e-09
-9.10542e-12
1.32512e-09
-1.32263e-09
-9.36577e-10
8.40676e-10
-8.78443e-12
1.42731e-09
-1.2153e-09
-7.05259e-10
5.3529e-10
-8.28429e-12
1.39355e-09
-1.39927e-09
-3.62746e-10
2.3358e-10
-8.69611e-12
1.53713e-09
-1.35724e-09
3.8979e-11
-1.33172e-12
1.45245e-09
-1.32859e-10
6.60121e-10
1.01178e-10
-4.64907e-11
-7.14808e-10
-2.15026e-10
1.46363e-09
3.47886e-10
-7.83988e-12
-1.58865e-09
1.42454e-09
-4.80641e-10
5.99639e-10
-4.47211e-12
-1.53907e-09
1.28184e-09
-7.24894e-10
8.47151e-10
-4.19033e-12
-1.39991e-09
1.15621e-09
-9.65189e-10
1.08032e-09
-4.30348e-12
-1.26704e-09
1.07261e-09
-1.19612e-09
1.31362e-09
-5.24708e-12
-1.18486e-09
8.72631e-10
-1.41366e-09
1.49391e-09
-6.07211e-12
-9.46809e-10
6.42597e-10
-1.56367e-09
1.61699e-09
-6.46948e-12
-6.89446e-10
4.37763e-10
-1.66622e-09
1.71716e-09
-6.72658e-12
-4.81981e-10
2.02907e-10
-1.76901e-09
1.81475e-09
-6.81366e-12
-2.41838e-10
2.39704e-12
-1.84362e-09
1.85159e-09
-6.17146e-12
-4.19449e-12
-1.9961e-10
-1.84487e-09
1.83974e-09
-5.93954e-12
2.10676e-10
-4.08019e-10
-1.83637e-09
1.81758e-09
-5.90335e-12
4.32704e-10
-6.45062e-10
-1.78661e-09
1.74495e-09
-6.1794e-12
6.92901e-10
-8.4435e-10
-1.69429e-09
1.63336e-09
-6.65015e-12
9.11929e-10
-1.01172e-09
-1.55938e-09
1.46965e-09
-8.72873e-12
1.11018e-09
-1.21978e-09
-1.37499e-09
1.27602e-09
-1.13608e-11
1.33011e-09
-1.41941e-09
-1.17172e-09
1.07149e-09
-1.45311e-11
1.53418e-09
-1.54852e-09
-9.84579e-10
8.78412e-10
-1.74679e-11
1.67215e-09
-1.56092e-09
-7.55279e-10
6.07906e-10
-1.91625e-11
1.72746e-09
-1.69463e-09
-4.60514e-10
3.20506e-10
-2.05954e-11
1.85524e-09
-1.58567e-09
9.82949e-11
6.6337e-13
1.69444e-09
-2.07727e-10
7.35639e-10
1.37596e-10
-5.77678e-11
-8.15467e-10
-2.76551e-10
1.74616e-09
4.10138e-10
-8.10923e-12
-1.87164e-09
1.66329e-09
-5.57693e-10
6.93622e-10
-4.82234e-12
-1.79439e-09
1.52334e-09
-8.31984e-10
9.70098e-10
-5.04168e-12
-1.65641e-09
1.38241e-09
-1.10876e-09
1.24656e-09
-5.55692e-12
-1.51466e-09
1.30433e-09
-1.37632e-09
1.48541e-09
-6.64558e-12
-1.40678e-09
1.02206e-09
-1.58256e-09
1.67545e-09
-7.25204e-12
-1.1077e-09
7.49759e-10
-1.76709e-09
1.84575e-09
-6.83487e-12
-8.21588e-10
5.30989e-10
-1.91233e-09
1.96854e-09
-6.76718e-12
-5.80432e-10
2.77482e-10
-2.02262e-09
2.06481e-09
-5.41012e-12
-3.14264e-10
6.67429e-12
-2.09211e-09
2.10163e-09
-3.12785e-12
-1.30678e-11
-2.21955e-10
-2.09656e-09
2.08539e-09
-1.87616e-12
2.35005e-10
-4.50902e-10
-2.07772e-09
2.07164e-09
-2.58007e-13
4.57242e-10
-7.38804e-10
-2.03806e-09
1.9862e-09
7.18195e-13
7.89946e-10
-9.87782e-10
-1.92244e-09
1.84074e-09
-3.1599e-13
1.06979e-09
-1.21307e-09
-1.74392e-09
1.64202e-09
-3.37316e-12
1.31835e-09
-1.4449e-09
-1.54352e-09
1.43397e-09
-7.68037e-12
1.56213e-09
-1.66587e-09
-1.32162e-09
1.2077e-09
-1.24903e-11
1.79228e-09
-1.79745e-09
-1.09539e-09
9.79141e-10
-1.75671e-11
1.93127e-09
-1.8956e-09
-8.57679e-10
7.17418e-10
-2.16913e-11
2.05755e-09
-2.02882e-09
-5.70589e-10
4.16757e-10
-2.33266e-11
2.20598e-09
-1.80598e-09
1.25147e-10
1.90082e-12
1.95049e-09
-2.71559e-10
9.04904e-10
7.01348e-11
-2.86477e-11
-9.4639e-10
-2.81157e-10
1.99765e-09
4.81578e-10
-1.51372e-11
-2.18294e-09
1.94015e-09
-6.44696e-10
8.16207e-10
-9.51816e-12
-2.10214e-09
1.80456e-09
-9.87218e-10
1.15264e-09
-9.97964e-12
-1.96001e-09
1.65817e-09
-1.31463e-09
1.45663e-09
-1.01158e-11
-1.79005e-09
1.48845e-09
-1.58756e-09
1.70806e-09
-9.60709e-12
-1.59934e-09
1.19576e-09
-1.81537e-09
1.91254e-09
-8.59922e-12
-1.28433e-09
9.04486e-10
-2.01611e-09
2.1171e-09
-7.12117e-12
-9.98361e-10
6.31612e-10
-2.20138e-09
2.26641e-09
-5.57787e-12
-6.91063e-10
3.48488e-10
-2.31617e-09
2.35374e-09
-3.64119e-12
-3.82416e-10
2.42283e-11
-2.38203e-09
2.3965e-09
-1.76752e-12
-3.69231e-11
-2.49913e-10
-2.39824e-09
2.39312e-09
-1.46778e-13
2.55175e-10
-4.57265e-10
-2.40214e-09
2.4099e-09
8.50212e-14
4.49422e-10
-8.46549e-10
-2.37667e-09
2.30904e-09
-7.9215e-13
9.14971e-10
-1.16305e-09
-2.22455e-09
2.11735e-09
-2.70158e-12
1.27296e-09
-1.43087e-09
-1.99112e-09
1.87765e-09
-4.74201e-12
1.54908e-09
-1.6826e-09
-1.77452e-09
1.663e-09
-7.19901e-12
1.80132e-09
-1.91653e-09
-1.54872e-09
1.42241e-09
-9.57259e-12
2.05242e-09
-2.07821e-09
-1.28541e-09
1.14016e-09
-1.21031e-11
2.23556e-09
-2.22815e-09
-9.90666e-10
8.33168e-10
-1.50624e-11
2.40071e-09
-2.39016e-09
-6.785e-10
5.17576e-10
-1.57963e-11
2.56688e-09
-2.13263e-09
1.74011e-10
1.60021e-11
2.29897e-09
-3.56352e-10
1.00195e-09
1.5864e-10
-6.31595e-11
-1.09744e-09
-3.6087e-10
2.3829e-09
5.59948e-10
-1.97316e-11
-2.56225e-09
2.26936e-09
-7.72661e-10
9.73949e-10
-1.5338e-11
-2.45531e-09
2.1125e-09
-1.16929e-09
1.3398e-09
-1.53382e-11
-2.26767e-09
1.92366e-09
-1.49512e-09
1.65051e-09
-1.30059e-11
-2.06604e-09
1.72611e-09
-1.80623e-09
1.95118e-09
-9.20765e-12
-1.86185e-09
1.38625e-09
-2.086e-09
2.21461e-09
-4.97399e-12
-1.50989e-09
1.09758e-09
-2.33278e-09
2.44272e-09
-1.04118e-12
-1.20648e-09
7.57521e-10
-2.53764e-09
2.61426e-09
1.77067e-12
-8.35913e-10
4.23833e-10
-2.67009e-09
2.71402e-09
3.3531e-12
-4.71112e-10
6.39661e-11
-2.75469e-09
2.79046e-09
2.78398e-12
-1.02519e-10
-2.41186e-10
-2.81779e-09
2.82528e-09
3.3109e-13
2.33371e-10
-4.88772e-10
-2.78167e-09
2.70635e-09
-3.48339e-12
5.6758e-10
-9.88369e-10
-2.64424e-09
2.57297e-09
-7.32651e-12
1.06696e-09
-1.39169e-09
-2.47668e-09
2.37548e-09
-1.06969e-11
1.50359e-09
-1.67081e-09
-2.28344e-09
2.18705e-09
-1.28826e-11
1.78009e-09
-1.92917e-09
-2.06406e-09
1.93491e-09
-1.37743e-11
2.0721e-09
-2.20333e-09
-1.80809e-09
1.65906e-09
-1.27901e-11
2.36515e-09
-2.41342e-09
-1.49812e-09
1.31312e-09
-1.14097e-11
2.60984e-09
-2.58734e-09
-1.11717e-09
9.21243e-10
-1.00204e-11
2.79329e-09
-2.74828e-09
-7.31494e-10
5.50042e-10
-8.05123e-12
2.93779e-09
-2.45565e-09
1.76044e-10
2.19773e-11
2.63022e-09
-3.72594e-10
1.20465e-09
1.37647e-10
-7.17224e-11
-1.27057e-09
-3.65284e-10
2.73889e-09
6.23431e-10
-2.3004e-11
-2.97403e-09
2.65421e-09
-8.81377e-10
1.11043e-09
-1.79796e-11
-2.86528e-09
2.42932e-09
-1.32069e-09
1.50643e-09
-1.63896e-11
-2.59867e-09
2.21644e-09
-1.68306e-09
1.87141e-09
-1.23129e-11
-2.39248e-09
2.00281e-09
-2.06253e-09
2.22992e-09
-8.04049e-12
-2.16215e-09
1.65022e-09
-2.3867e-09
2.54303e-09
-3.62594e-12
-1.80293e-09
1.32351e-09
-2.68935e-09
2.81286e-09
1.39564e-13
-1.44716e-09
9.24208e-10
-2.91853e-09
3.01198e-09
1.91429e-12
-1.01957e-09
5.23398e-10
-3.08893e-09
3.14413e-09
1.24017e-12
-5.79837e-10
1.32133e-10
-3.18095e-09
3.20045e-09
-1.65896e-12
-1.49976e-10
-2.46447e-10
-3.20297e-09
3.19087e-09
-5.51209e-12
2.64059e-10
-6.40244e-10
-3.15285e-09
3.08974e-09
-9.9274e-12
7.1328e-10
-1.15737e-09
-3.01552e-09
2.94059e-09
-1.43137e-11
1.24662e-09
-1.60668e-09
-2.8696e-09
2.78431e-09
-1.7067e-11
1.70903e-09
-1.88947e-09
-2.70093e-09
2.58116e-09
-1.86365e-11
2.02788e-09
-2.24488e-09
-2.42946e-09
2.25869e-09
-1.84435e-11
2.43409e-09
-2.55976e-09
-2.0728e-09
1.87934e-09
-1.66944e-11
2.76991e-09
-2.82861e-09
-1.68005e-09
1.4717e-09
-1.38786e-11
3.05083e-09
-3.00558e-09
-1.27426e-09
1.06963e-09
-1.06597e-11
3.22087e-09
-3.14667e-09
-8.49301e-10
6.25561e-10
-7.55359e-12
3.37796e-09
-2.82102e-09
1.8905e-10
2.54617e-11
3.01988e-09
-4.1337e-10
1.34675e-09
2.10426e-10
-8.96407e-11
-1.46754e-09
-4.46278e-10
3.2179e-09
7.05831e-10
-1.5506e-11
-3.46195e-09
3.07118e-09
-9.59468e-10
1.1929e-09
-9.81919e-12
-3.29479e-09
2.79387e-09
-1.43046e-09
1.68108e-09
-9.08903e-12
-3.0354e-09
2.59646e-09
-1.94305e-09
2.17439e-09
-8.33116e-12
-2.81947e-09
2.33939e-09
-2.3797e-09
2.5732e-09
-7.88882e-12
-2.525e-09
1.95202e-09
-2.7605e-09
2.92846e-09
-8.17933e-12
-2.1118e-09
1.57334e-09
-3.08073e-09
3.2251e-09
-9.27175e-12
-1.70845e-09
1.11678e-09
-3.36234e-09
3.47231e-09
-1.1441e-11
-1.21531e-09
6.32741e-10
-3.56e-09
3.62589e-09
-1.47377e-11
-6.83895e-10
1.66496e-10
-3.66941e-09
3.70006e-09
-1.74121e-11
-1.79731e-10
-2.88476e-10
-3.71262e-09
3.69597e-09
-1.87121e-11
3.2384e-10
-8.00823e-10
-3.65868e-09
3.58286e-09
-1.98244e-11
8.96467e-10
-1.35147e-09
-3.50147e-09
3.42468e-09
-2.05839e-11
1.44884e-09
-1.81467e-09
-3.34817e-09
3.25262e-09
-2.02012e-11
1.93043e-09
-2.20464e-09
-3.12794e-09
2.96157e-09
-1.83218e-11
2.38933e-09
-2.63282e-09
-2.7888e-09
2.59825e-09
-1.50376e-11
2.8384e-09
-2.99438e-09
-2.39349e-09
2.17561e-09
-1.22438e-11
3.2245e-09
-3.28081e-09
-1.95219e-09
1.72371e-09
-1.08463e-11
3.52013e-09
-3.46274e-09
-1.48388e-09
1.22235e-09
-9.02394e-12
3.73329e-09
-3.62726e-09
-9.65267e-10
7.097e-10
-6.96888e-12
3.88979e-09
-3.22847e-09
2.00969e-10
2.78966e-11
3.45578e-09
-4.5617e-10
1.5506e-09
1.94022e-10
-8.62178e-11
-1.6584e-09
-5.10424e-10
3.77467e-09
8.45657e-10
-6.58049e-12
-4.10332e-09
3.54898e-09
-1.14504e-09
1.42884e-09
2.8824e-12
-3.83566e-09
3.28651e-09
-1.69973e-09
1.97154e-09
2.62634e-12
-3.56095e-09
3.04345e-09
-2.2401e-09
2.49085e-09
-3.5252e-13
-3.29385e-09
2.72775e-09
-2.72974e-09
2.95063e-09
-3.72257e-12
-2.94491e-09
2.29128e-09
-3.16547e-09
3.36703e-09
-8.05049e-12
-2.48479e-09
1.84336e-09
-3.54175e-09
3.69291e-09
-1.29452e-11
-1.98159e-09
1.31921e-09
-3.84001e-09
3.97256e-09
-1.68544e-11
-1.43491e-09
7.28448e-10
-4.07935e-09
4.1577e-09
-2.00287e-11
-7.86767e-10
1.72258e-10
-4.216e-09
4.24091e-09
-2.15919e-11
-1.75576e-10
-3.74344e-10
-4.23507e-09
4.19538e-09
-2.14618e-11
4.35494e-10
-9.83471e-10
-4.14986e-09
4.09021e-09
-2.08692e-11
1.064e-09
-1.54629e-09
-4.02666e-09
3.96696e-09
-1.92867e-11
1.62527e-09
-2.0677e-09
-3.88819e-09
3.76041e-09
-1.6522e-11
2.212e-09
-2.57523e-09
-3.60678e-09
3.4381e-09
-1.21065e-11
2.75602e-09
-3.06372e-09
-3.23839e-09
3.00404e-09
-7.39757e-12
3.30547e-09
-3.46235e-09
-2.75842e-09
2.50005e-09
-4.73738e-12
3.72546e-09
-3.77647e-09
-2.24291e-09
1.97725e-09
-3.87489e-12
4.04601e-09
-4.02624e-09
-1.69906e-09
1.39875e-09
-4.3888e-12
4.33093e-09
-4.18109e-09
-1.07363e-09
7.5406e-10
-4.86185e-12
4.50552e-09
-3.69023e-09
2.33444e-10
2.69571e-11
3.90662e-09
-4.7679e-10
1.8153e-09
3.302e-10
-1.53726e-10
-1.99178e-09
-6.48695e-10
4.39731e-09
9.48661e-10
-5.01284e-12
-4.69226e-09
4.16144e-09
-1.28056e-09
1.62649e-09
4.90506e-12
-4.51228e-09
3.86696e-09
-1.97011e-09
2.29453e-09
6.2341e-12
-4.19762e-09
3.57724e-09
-2.60263e-09
2.89345e-09
5.76067e-12
-3.87381e-09
3.18265e-09
-3.17831e-09
3.44534e-09
3.67013e-12
-3.45335e-09
2.68674e-09
-3.68366e-09
3.90391e-09
-5.92807e-13
-2.90641e-09
2.13543e-09
-4.11247e-09
4.29578e-09
-5.02061e-12
-2.31372e-09
1.54499e-09
-4.44449e-09
4.56715e-09
-7.233e-12
-1.66041e-09
8.60442e-10
-4.67908e-09
4.76993e-09
-8.67871e-12
-9.42621e-10
1.82911e-10
-4.84949e-09
4.8856e-09
-9.60818e-12
-2.09416e-10
-4.78546e-10
-4.89191e-09
4.89322e-09
-9.68341e-12
4.8692e-10
-1.13874e-09
-4.87355e-09
4.82604e-09
-9.08142e-12
1.19534e-09
-1.69222e-09
-4.76116e-09
4.65473e-09
-7.32511e-12
1.80598e-09
-2.39393e-09
-4.50474e-09
4.32363e-09
-4.67558e-12
2.57972e-09
-2.96972e-09
-4.11646e-09
3.88816e-09
-2.21593e-12
3.20023e-09
-3.54427e-09
-3.66189e-09
3.4324e-09
-7.85275e-13
3.77456e-09
-4.00187e-09
-3.18543e-09
2.90927e-09
-1.54663e-12
4.27959e-09
-4.33091e-09
-2.60473e-09
2.29618e-09
-2.4789e-12
4.64194e-09
-4.65692e-09
-1.96862e-09
1.62842e-09
-4.03241e-12
5.00115e-09
-4.84488e-09
-1.28756e-09
9.34292e-10
-3.27801e-12
5.20143e-09
-4.20244e-09
2.07206e-10
4.02963e-11
4.51387e-09
-5.5894e-10
2.14633e-09
3.27056e-10
-1.52694e-10
-2.32069e-09
-7.14456e-10
5.0375e-09
1.10032e-09
-1.54164e-11
-5.40795e-09
4.88184e-09
-1.49419e-09
1.88443e-09
-3.77218e-12
-5.26831e-09
4.5541e-09
-2.27139e-09
2.64613e-09
1.03765e-13
-4.92894e-09
4.19418e-09
-3.01065e-09
3.35621e-09
3.34791e-12
-4.54309e-09
3.73729e-09
-3.67688e-09
3.97084e-09
4.33318e-12
-4.03559e-09
3.14347e-09
-4.24135e-09
4.48618e-09
2.5342e-12
-3.39083e-09
2.50857e-09
-4.71417e-09
4.9252e-09
-4.49175e-13
-2.71916e-09
1.78458e-09
-5.10419e-09
5.25661e-09
-3.8438e-12
-1.93316e-09
1.0309e-09
-5.39491e-09
5.50984e-09
-6.37979e-12
-1.13945e-09
2.63803e-10
-5.59133e-09
5.64392e-09
-7.95221e-12
-3.08445e-10
-4.92623e-10
-5.66975e-09
5.66251e-09
-7.99468e-12
5.07857e-10
-1.25436e-09
-5.62688e-09
5.56041e-09
-5.11657e-12
1.32594e-09
-1.96646e-09
-5.4548e-09
5.2966e-09
-6.85877e-13
2.12535e-09
-2.75389e-09
-5.12382e-09
4.94846e-09
3.2482e-12
2.926e-09
-3.42763e-09
-4.74541e-09
4.49739e-09
4.78612e-12
3.67086e-09
-4.02866e-09
-4.2262e-09
3.94721e-09
3.10565e-12
4.30454e-09
-4.57389e-09
-3.65551e-09
3.34545e-09
6.44282e-13
4.8833e-09
-4.9621e-09
-3.02708e-09
2.68201e-09
-5.36971e-14
5.30722e-09
-5.36129e-09
-2.30805e-09
1.93348e-09
1.4652e-12
5.7344e-09
-5.58834e-09
-1.55673e-09
1.16519e-09
5.74662e-12
5.97413e-09
-4.8259e-09
3.65436e-10
5.51676e-11
5.18e-09
-7.74707e-10
2.48451e-09
2.5599e-10
-1.18299e-10
-2.6222e-09
-7.4022e-10
5.83223e-09
1.25385e-09
-1.57249e-11
-6.33013e-09
5.68359e-09
-1.72461e-09
2.18299e-09
-2.85122e-12
-6.13911e-09
5.33145e-09
-2.63544e-09
3.0759e-09
-2.19769e-12
-5.76972e-09
4.90858e-09
-3.48994e-09
3.87579e-09
-2.55352e-12
-5.29188e-09
4.34629e-09
-4.23204e-09
4.56489e-09
-3.5051e-12
-4.67564e-09
3.6595e-09
-4.88718e-09
5.19289e-09
-4.15397e-12
-3.96106e-09
2.94368e-09
-5.46412e-09
5.69076e-09
-5.46981e-12
-3.16484e-09
2.10379e-09
-5.89886e-09
6.0926e-09
-8.78273e-12
-2.28876e-09
1.24929e-09
-6.25342e-09
6.37017e-09
-1.14342e-11
-1.35461e-09
3.43604e-10
-6.44952e-09
6.50298e-09
-1.24123e-11
-3.84654e-10
-5.31576e-10
-6.53978e-09
6.53098e-09
-1.03618e-11
5.50741e-10
-1.41013e-09
-6.4814e-09
6.4018e-09
-5.47782e-12
1.49522e-09
-2.28259e-09
-6.28082e-09
6.11934e-09
-1.25234e-13
2.4442e-09
-3.10674e-09
-5.933e-09
5.73002e-09
2.69045e-12
3.30702e-09
-3.92519e-09
-5.50275e-09
5.23932e-09
2.5566e-12
4.18606e-09
-4.6101e-09
-4.92947e-09
4.5897e-09
2.2802e-12
4.94759e-09
-5.202e-09
-4.2459e-09
3.89677e-09
5.04954e-12
5.54608e-09
-5.68053e-09
-3.5311e-09
3.13993e-09
9.05293e-12
6.06265e-09
-6.1209e-09
-2.73434e-09
2.31698e-09
1.26673e-11
6.52558e-09
-6.37204e-09
-1.8949e-09
1.44883e-09
1.55462e-11
6.80257e-09
-5.58904e-09
4.39031e-10
7.29446e-11
6.03913e-09
-9.62075e-10
2.79814e-09
3.49221e-10
-1.59699e-10
-2.98766e-09
-8.92719e-10
6.85122e-09
1.45571e-09
-8.81196e-12
-7.4054e-09
6.62894e-09
-1.98316e-09
2.50517e-09
1.83368e-13
-7.15113e-09
6.24107e-09
-3.02297e-09
3.52571e-09
-8.40113e-12
-6.73541e-09
5.69342e-09
-4.00875e-09
4.46223e-09
-1.71618e-11
-6.12974e-09
5.02535e-09
-4.88457e-09
5.2833e-09
-2.25374e-11
-5.40154e-09
4.28149e-09
-5.67033e-09
6.02242e-09
-2.23334e-11
-4.61124e-09
3.38967e-09
-6.33633e-09
6.61449e-09
-1.94416e-11
-3.6484e-09
2.48143e-09
-6.86629e-09
7.0681e-09
-1.5348e-11
-2.66789e-09
1.45832e-09
-7.22308e-09
7.34436e-09
-1.05461e-11
-1.56905e-09
4.29369e-10
-7.43738e-09
7.49704e-09
-5.42152e-12
-4.83612e-10
-5.68255e-10
-7.52286e-09
7.50294e-09
-9.45257e-13
5.8912e-10
-1.58121e-09
-7.44972e-09
7.35911e-09
1.88992e-12
1.66992e-09
-2.60809e-09
-7.23748e-09
7.08026e-09
3.02566e-13
2.76501e-09
-3.53347e-09
-6.87517e-09
6.62492e-09
-3.66228e-12
3.78737e-09
-4.46451e-09
-6.34139e-09
6.03633e-09
-5.40076e-12
4.77498e-09
-5.30001e-09
-5.70619e-09
5.34052e-09
-1.93041e-12
5.66761e-09
-5.93463e-09
-4.93638e-09
4.50974e-09
4.11558e-12
6.35715e-09
-6.47113e-09
-4.05119e-09
3.57661e-09
7.05628e-12
6.93865e-09
-6.94559e-09
-3.10961e-09
2.6442e-09
6.19423e-12
7.40481e-09
-7.27959e-09
-2.14351e-09
1.60624e-09
4.1746e-12
7.81269e-09
-6.52926e-09
4.12618e-10
7.06715e-11
7.0645e-09
-1.01854e-09
3.23258e-09
5.06834e-10
-2.34215e-10
-3.5052e-09
-1.12026e-09
7.96763e-09
1.74015e-09
-1.94858e-11
-8.56804e-09
7.70103e-09
-2.36014e-09
2.95915e-09
-1.07643e-11
-8.28928e-09
7.23836e-09
-3.53359e-09
4.07869e-09
-1.80447e-11
-7.76542e-09
6.60467e-09
-4.62307e-09
5.16007e-09
-2.46767e-11
-7.11699e-09
5.81397e-09
-5.67782e-09
6.15439e-09
-2.85077e-11
-6.26203e-09
4.93855e-09
-6.58867e-09
6.98191e-09
-2.95356e-11
-5.30225e-09
3.92853e-09
-7.35154e-09
7.67596e-09
-2.6899e-11
-4.22606e-09
2.84924e-09
-7.95549e-09
8.18322e-09
-2.04209e-11
-3.05655e-09
1.69391e-09
-8.37578e-09
8.53242e-09
-1.18539e-11
-1.83869e-09
5.39698e-10
-8.64636e-09
8.70722e-09
-4.11526e-12
-5.96441e-10
-6.27465e-10
-8.71793e-09
8.67548e-09
-1.79888e-12
6.7171e-10
-1.77291e-09
-8.5875e-09
8.4677e-09
-5.43686e-12
1.89814e-09
-2.93105e-09
-8.32302e-09
8.13943e-09
-1.13926e-11
3.12604e-09
-4.06166e-09
-7.91517e-09
7.63754e-09
-1.32406e-11
4.35253e-09
-5.12181e-09
-7.3173e-09
6.95305e-09
-9.10078e-12
5.49515e-09
-6.05425e-09
-6.56681e-09
6.15471e-09
-4.37421e-12
6.47072e-09
-6.79781e-09
-5.70936e-09
5.23356e-09