/*--------------------------------*- C++ -*----------------------------------*\
  =========                 |
  \\      /  F ield         | OpenFOAM: The Open Source CFD Toolbox
   \\    /   O peration     | Website:  https://openfoam.org
    \\  /    A nd           | Version:  7
     \\/     M anipulation  |
\*---------------------------------------------------------------------------*/
FoamFile
{
    version     2.0;
    format      ascii;
    class       volVectorField;
    location    "50";
    object      U;
}
// * * * * * * * * * * * * * * * * * * * * * * * * * * * * * * * * * * * * * //

dimensions      [0 1 -1 0 0 0 0];

internalField   nonuniform List<vector> 
96800
(
(5.03014e-06 3.04517e-07 1.12175e-07)
(0.000218344 -2.60311e-06 -8.94413e-05)
(0.000414064 2.73374e-07 -2.0961e-05)
(0.000415649 2.45087e-06 2.96992e-05)
(0.000406723 2.37643e-07 -2.48153e-05)
(0.000348498 1.93598e-06 7.48735e-06)
(0.00033525 9.66874e-07 -3.75125e-05)
(0.00044268 1.88261e-06 -2.4324e-05)
(0.000586899 2.91533e-06 3.80892e-05)
(0.000424005 1.30383e-06 3.45955e-05)
(0.000410185 1.58352e-06 -5.43327e-07)
(0.000472084 7.89144e-07 -3.40951e-05)
(0.000591716 1.60057e-06 -2.15472e-05)
(0.000599243 1.05441e-06 -1.42015e-06)
(0.000683247 4.1154e-07 -1.00088e-05)
(0.000644108 5.55677e-07 -5.86436e-07)
(0.000585394 -4.91395e-09 2.61737e-05)
(0.000568305 -6.78386e-07 -7.78324e-06)
(0.000322104 3.52434e-06 7.22321e-05)
(0.000193932 -2.1464e-07 -2.02175e-05)
(0.000128619 5.53148e-07 4.08569e-05)
(0.000128298 -8.26024e-07 2.99086e-05)
(4.51087e-05 -1.59201e-07 -0.000121934)
(0.000118571 -2.16985e-06 -0.000113678)
(0.000194237 1.90467e-06 -0.00010267)
(0.000336932 5.94866e-06 7.2149e-05)
(0.000390569 7.87191e-06 -6.38296e-05)
(0.000501737 9.50677e-06 -0.00010187)
(0.000607251 8.97718e-06 -6.3647e-05)
(0.000596157 4.88607e-06 5.44221e-06)
(0.000599515 5.31213e-06 2.45609e-05)
(0.000697141 6.24454e-06 3.95362e-05)
(0.000752147 6.42353e-06 3.78253e-05)
(0.00073322 6.62387e-06 -2.81273e-05)
(0.000653773 6.28493e-06 4.14742e-05)
(0.000629675 4.58729e-06 4.04966e-05)
(0.00060548 1.50799e-06 8.57703e-05)
(0.000550536 2.43105e-06 0.000103274)
(0.000506326 2.71917e-06 5.87195e-05)
(0.000458159 1.87948e-06 8.68093e-05)
(0.000443442 3.97702e-06 0.000130961)
(0.000330164 4.63094e-06 0.000128441)
(0.000217815 2.36671e-06 4.47782e-06)
(6.31868e-05 -3.9462e-07 0.000172835)
(6.22408e-05 1.1915e-06 -0.000236833)
(7.54491e-05 -3.04623e-06 -0.000129792)
(0.00019828 4.83729e-07 -0.00010319)
(0.00031137 2.44437e-06 -2.34586e-05)
(0.000446664 2.49862e-06 -1.92259e-05)
(0.000489148 1.10056e-06 -0.000112081)
(0.000619314 1.56459e-06 -0.000120759)
(0.000654675 3.51139e-06 -9.48665e-06)
(0.000666862 1.55613e-06 1.62144e-05)
(0.000746701 -9.47896e-07 3.72527e-05)
(0.000779716 1.20386e-06 5.21174e-05)
(0.000762201 2.27596e-06 5.47402e-05)
(0.000697168 1.75474e-06 9.54936e-05)
(0.000684554 1.83611e-07 9.47575e-05)
(0.000647151 4.97801e-07 0.000142766)
(0.000584092 8.75284e-07 0.000167051)
(0.000509817 1.0617e-06 0.000153089)
(0.000458124 1.22016e-06 0.00016041)
(0.000449905 -6.97392e-07 0.000225716)
(0.000327095 -1.50936e-06 0.000318077)
(0.000251474 1.08349e-06 0.000137952)
(1.32999e-05 -6.95681e-07 0.000296314)
(1.51784e-05 -1.59063e-07 -0.000327224)
(0.000145162 -1.4023e-06 -0.000223008)
(0.000251163 1.01122e-07 -0.00013644)
(0.000341136 -3.12977e-07 -0.000119993)
(0.000479902 -3.87896e-07 -8.86017e-05)
(0.0005724 -2.54482e-07 -0.000124453)
(0.000572111 5.58781e-07 -0.000114317)
(0.000659538 3.21076e-07 -3.25584e-05)
(0.000737744 -1.4682e-06 3.63367e-05)
(0.000791699 -5.71968e-07 0.000100123)
(0.000805019 -9.61529e-07 0.000119131)
(0.000790804 -5.16993e-07 0.000105907)
(0.000756459 2.13996e-07 0.000159327)
(0.000709361 -1.68428e-08 0.000177286)
(0.000672977 1.74847e-07 0.00020676)
(0.000631719 6.42224e-07 0.000234067)
(0.000567014 3.58037e-07 0.000267348)
(0.000485637 -9.28754e-07 0.000320863)
(0.000377131 1.6792e-07 0.000331805)
(0.0003076 -4.94249e-07 0.000435132)
(0.000247145 -7.76898e-07 0.000359257)
(0.00018898 -4.71862e-06 0.000450377)
(4.93787e-05 1.60428e-06 -0.00046985)
(9.63895e-05 1.46073e-06 -0.000311003)
(0.000199816 1.27181e-07 -0.000256974)
(0.000344685 -6.17523e-07 -0.000194785)
(0.000478267 -1.16874e-06 -0.000151952)
(0.000559695 1.38004e-07 -0.000139033)
(0.000615526 -5.14331e-07 -0.000102774)
(0.000716448 6.11353e-08 -3.91658e-05)
(0.000804506 7.67578e-07 2.9777e-05)
(0.000829553 2.00989e-06 0.000104313)
(0.000836033 2.10101e-07 0.000163153)
(0.000857175 2.0174e-07 0.000162254)
(0.00083491 -5.01389e-07 0.000228469)
(0.000805745 1.84257e-07 0.000299748)
(0.000715865 2.1824e-07 0.000323644)
(0.000704157 3.27578e-07 0.000319888)
(0.000621835 -8.3266e-07 0.000348121)
(0.000527828 -1.66307e-07 0.000445615)
(0.000382315 9.40104e-07 0.000492094)
(0.000305761 -7.71787e-07 0.000557557)
(0.000178888 -5.44245e-07 0.000475417)
(0.000114959 -4.26658e-06 0.00058462)
(5.24491e-05 9.63953e-07 -0.000536837)
(0.000109498 -4.14853e-07 -0.000462847)
(0.000225205 9.08746e-07 -0.000387196)
(0.000406275 -2.04018e-07 -0.000274823)
(0.000535407 9.07692e-07 -0.000209635)
(0.000597852 1.68008e-06 -0.000199605)
(0.00068916 4.19852e-07 -0.000118197)
(0.000768044 -1.37998e-06 -8.81696e-05)
(0.000872461 -5.56957e-07 -1.42437e-05)
(0.000926031 3.1439e-07 7.79169e-05)
(0.00095223 2.1466e-07 0.000149979)
(0.000930759 -1.39348e-07 0.000155271)
(0.000929557 -3.994e-07 0.00027867)
(0.000922274 8.87457e-08 0.000411934)
(0.00082476 -1.35751e-06 0.000409503)
(0.00080235 -2.11417e-06 0.000440041)
(0.000698031 -1.49844e-06 0.00052145)
(0.000534723 -8.94994e-07 0.000590473)
(0.000456519 -2.42667e-06 0.000647006)
(0.000421204 -1.41441e-06 0.00073595)
(0.000259875 3.34765e-07 0.00061138)
(4.00829e-05 -3.67101e-06 0.000716947)
(1.18214e-05 -3.21844e-07 -0.000632106)
(7.44411e-05 -1.56113e-06 -0.000531765)
(0.000269311 -5.37152e-07 -0.000554389)
(0.000442645 -6.03505e-07 -0.000400273)
(0.000548635 9.82027e-07 -0.00030669)
(0.000686534 1.01344e-06 -0.000341322)
(0.0008281 8.78652e-07 -0.000154569)
(0.000877102 -4.25597e-07 -0.000136758)
(0.000976471 -1.16529e-06 -8.38009e-05)
(0.00108822 -7.79351e-07 6.6469e-05)
(0.000996773 -5.21913e-07 0.000151978)
(0.00104656 -9.42888e-07 0.000224098)
(0.00106415 9.37908e-07 0.000283626)
(0.00103219 3.06935e-07 0.000499126)
(0.00100677 8.57643e-07 0.000518907)
(0.000874508 -1.1052e-06 0.000664456)
(0.00076861 -2.34578e-06 0.000692019)
(0.000650512 -1.07382e-06 0.000717475)
(0.000575833 -4.28991e-07 0.000851287)
(0.00038414 -1.78453e-06 0.000939812)
(0.000336904 -3.03462e-06 0.0008982)
(0.000114648 -4.85006e-06 0.000897338)
(2.39058e-05 -2.00084e-07 -0.000858604)
(0.000118097 -8.78483e-07 -0.000613287)
(0.000307232 -1.64038e-06 -0.000631526)
(0.000462075 -1.02362e-06 -0.000400261)
(0.000586196 -1.31728e-07 -0.000383566)
(0.000743179 5.37793e-08 -0.00041784)
(0.000855417 -7.6814e-07 -0.000242142)
(0.00100724 -5.04352e-07 -0.000143757)
(0.00108678 -3.63179e-07 -0.000112586)
(0.00108699 -7.13848e-07 0.00014783)
(0.00104995 -7.8795e-07 0.000179699)
(0.00112499 -3.68833e-07 0.000238968)
(0.00110191 -7.38611e-07 0.000362273)
(0.00110256 -9.77873e-07 0.000573906)
(0.00105635 -1.55686e-06 0.000646264)
(0.00100248 -1.5014e-06 0.000801191)
(0.00094221 -3.30925e-07 0.000908903)
(0.000764944 -1.15685e-06 0.000961983)
(0.00047634 -5.7816e-07 0.0009889)
(0.000396306 -9.96951e-07 0.000990322)
(0.000387281 -1.81797e-06 0.00120807)
(9.32546e-05 -2.27231e-06 0.00123113)
(2.41824e-05 7.05512e-07 -0.000974684)
(0.000132418 -2.24786e-06 -0.000723207)
(0.000311454 1.75373e-07 -0.000719055)
(0.000523109 4.46507e-07 -0.000532764)
(0.000696498 -6.55806e-08 -0.000503775)
(0.000847827 -3.38211e-07 -0.00053754)
(0.000980084 -7.56272e-07 -0.000312854)
(0.00108103 -9.10598e-07 -0.000208265)
(0.00111601 2.63406e-07 -0.000115627)
(0.00115508 -8.59971e-07 0.000157904)
(0.00131919 -3.04567e-07 0.000205486)
(0.00125609 -1.55944e-07 0.000353331)
(0.00126358 -1.96448e-06 0.000464375)
(0.0012277 7.82337e-07 0.000657544)
(0.00117115 -1.1221e-06 0.000792512)
(0.00111454 -9.79907e-07 0.000904171)
(0.00104155 -3.66721e-07 0.00104316)
(0.000891147 -1.51228e-06 0.00127065)
(0.000594495 -4.71782e-07 0.00124414)
(0.000361642 -1.06609e-06 0.00118766)
(0.000191234 -8.74865e-07 0.00134719)
(0.000203798 -6.83652e-06 0.00140973)
(4.23567e-05 2.54139e-06 -0.00107929)
(0.000158324 -4.10355e-07 -0.000840613)
(0.000349123 -8.45984e-07 -0.000827454)
(0.000565745 -1.00362e-06 -0.000697275)
(0.000795719 -2.39426e-06 -0.000636201)
(0.000973234 -1.92102e-06 -0.000566714)
(0.00110053 -9.29287e-07 -0.000430874)
(0.00121321 -8.29179e-07 -0.000274606)
(0.00127971 -3.79515e-07 -0.000110798)
(0.00133551 -1.89893e-06 0.00011335)
(0.00143419 -1.56729e-06 0.000240712)
(0.00143949 4.56685e-09 0.000377917)
(0.00141703 1.10828e-06 0.000560871)
(0.0013454 -1.94539e-07 0.000748294)
(0.00131356 -1.20747e-06 0.000949392)
(0.00121248 -1.40636e-06 0.00108001)
(0.00105175 -7.68183e-07 0.00123799)
(0.000911919 -8.8235e-07 0.00142565)
(0.000815762 -1.98309e-06 0.00151446)
(0.000583971 -8.93179e-08 0.00149947)
(0.00025824 -2.69563e-06 0.00161206)
(9.09131e-05 -6.13334e-06 0.00160515)
(6.28776e-05 3.39438e-06 -0.00126521)
(0.000187411 1.84589e-07 -0.00096543)
(0.000415013 -1.08941e-06 -0.000949634)
(0.000639402 -1.05934e-06 -0.000854695)
(0.000855798 -1.49811e-06 -0.000759564)
(0.0011009 -2.17151e-06 -0.000716582)
(0.00127702 -1.7128e-06 -0.000524131)
(0.00137387 -9.37955e-07 -0.000295118)
(0.00145224 -1.66383e-06 -0.000131021)
(0.00155475 3.31917e-07 7.9962e-05)
(0.00158975 -5.61036e-07 0.000274591)
(0.00160449 -2.95256e-06 0.000450594)
(0.00162752 -1.76736e-06 0.000645631)
(0.00159706 -2.39883e-06 0.000902478)
(0.00151223 8.7922e-07 0.00112124)
(0.00134007 3.16254e-07 0.00127007)
(0.00117251 -1.15173e-06 0.00145773)
(0.000992513 -1.44615e-06 0.00164539)
(0.000871321 -1.27035e-06 0.00177824)
(0.000641142 1.49586e-06 0.00179464)
(0.000355116 -1.28992e-06 0.00189848)
(0.000166444 -3.97843e-06 0.00188005)
(9.2491e-05 3.1743e-06 -0.0013439)
(0.000254614 4.2722e-07 -0.00124608)
(0.000485051 1.01128e-06 -0.00114926)
(0.00071392 -3.74711e-08 -0.00103958)
(0.000978519 -1.01334e-06 -0.000920132)
(0.00123128 -2.49834e-06 -0.000878484)
(0.0014328 -7.64344e-07 -0.000631256)
(0.00156934 6.06355e-07 -0.000383295)
(0.00167174 -7.91613e-07 -0.000164161)
(0.00177356 -1.16972e-06 6.36733e-05)
(0.0018263 -1.5315e-06 0.000336516)
(0.00184544 -1.21575e-06 0.000585272)
(0.00185378 -1.54451e-06 0.000793021)
(0.00182862 -1.13614e-06 0.0010487)
(0.00169889 -3.30501e-07 0.00126034)
(0.00150321 6.70766e-07 0.00148659)
(0.0013257 -5.57527e-07 0.00171617)
(0.00114493 -8.37187e-07 0.00192949)
(0.000957033 4.83724e-07 0.00205338)
(0.000718345 -8.56586e-08 0.00212557)
(0.000465241 2.5677e-07 0.00223296)
(0.000193046 -3.4515e-06 0.00209992)
(2.46909e-05 -2.69103e-06 -0.00168493)
(0.000323541 -1.30327e-06 -0.00146019)
(0.000594254 1.77606e-07 -0.00141111)
(0.000861465 -9.49467e-07 -0.00128251)
(0.00116179 -1.11711e-06 -0.00114491)
(0.00138891 -6.34843e-07 -0.000997769)
(0.00161662 -8.82109e-07 -0.000761882)
(0.00181817 -6.9163e-07 -0.000507935)
(0.00195997 -7.00344e-07 -0.000220449)
(0.00205056 -7.98867e-07 6.66715e-05)
(0.00211043 6.81103e-07 0.00039058)
(0.00211033 5.87302e-07 0.000629112)
(0.00215453 -4.23268e-07 0.000803324)
(0.00210458 -1.71181e-06 0.00117685)
(0.00195348 -2.04678e-06 0.00147726)
(0.00172918 -9.39308e-07 0.00172104)
(0.00154297 -8.60405e-07 0.00196194)
(0.00134255 1.02582e-06 0.00217159)
(0.00109243 8.4846e-07 0.00229923)
(0.000830981 -5.14914e-07 0.00243936)
(0.000551576 1.38711e-06 0.00256455)
(0.000252916 -5.3023e-06 0.00244693)
(0.00010256 2.7547e-06 -0.00190164)
(0.000376081 -9.10574e-07 -0.00180931)
(0.00072423 -3.6265e-07 -0.00169957)
(0.00104069 -1.38814e-06 -0.00156748)
(0.00131485 -9.92363e-07 -0.00138627)
(0.00159332 -7.62298e-07 -0.00119208)
(0.00186338 -1.11466e-06 -0.000875976)
(0.00210629 -4.22488e-07 -0.000626326)
(0.00228026 2.23756e-07 -0.000307997)
(0.00237975 1.3777e-06 9.8677e-07)
(0.00245215 1.05449e-06 0.000319882)
(0.00249781 -1.21803e-06 0.000622775)
(0.00245389 -1.91232e-06 0.000905734)
(0.00235341 -4.11344e-07 0.00132758)
(0.00218443 -1.30003e-07 0.00171822)
(0.00200899 -9.47812e-07 0.00197514)
(0.00177954 8.35294e-07 0.00218849)
(0.00154836 1.18813e-06 0.0024237)
(0.00126016 1.4288e-06 0.00261553)
(0.000923834 1.33207e-06 0.00276097)
(0.000562393 2.8923e-06 0.00285949)
(0.000262618 -1.65122e-06 0.00274724)
(8.12223e-05 -3.79557e-09 -0.00231306)
(0.00042413 -2.98375e-06 -0.00211397)
(0.000831124 5.45345e-07 -0.00205866)
(0.00119389 4.0344e-07 -0.0018517)
(0.00150516 2.94035e-07 -0.00164998)
(0.00185779 5.20899e-07 -0.00143301)
(0.0021503 7.9402e-07 -0.00108604)
(0.00241803 -8.64512e-07 -0.000770641)
(0.00262907 7.82655e-07 -0.00042363)
(0.0027543 6.75238e-07 -5.83934e-05)
(0.00283276 -1.00827e-06 0.000301056)
(0.00285909 -4.92986e-07 0.000684579)
(0.00278037 -2.67633e-07 0.00106414)
(0.00265461 7.31371e-07 0.00149975)
(0.00253189 1.33367e-06 0.00187406)
(0.00236508 8.01034e-07 0.00211199)
(0.00208405 4.23848e-07 0.00246689)
(0.0017365 -9.36929e-09 0.00274723)
(0.0014027 -7.91244e-07 0.00297343)
(0.00106058 -4.79013e-07 0.00312322)
(0.000673063 1.41018e-06 0.00325305)
(0.000301199 3.70997e-06 0.0031504)
(0.000142021 3.95258e-06 -0.00259848)
(0.000475359 -5.27201e-07 -0.00252179)
(0.000895855 2.41961e-07 -0.00242035)
(0.00131664 1.77153e-06 -0.00219337)
(0.00178564 1.90313e-07 -0.00200044)
(0.00218625 -1.16044e-07 -0.00171543)
(0.00251851 9.16423e-07 -0.00133979)
(0.00276854 1.45656e-06 -0.000980745)
(0.00301475 5.21348e-07 -0.000559886)
(0.00317664 -1.06821e-06 -0.000122459)
(0.00327835 -1.13257e-06 0.000312274)
(0.00331113 2.32279e-07 0.000733859)
(0.00320514 -9.57432e-07 0.00119466)
(0.00306388 -8.6474e-07 0.00167204)
(0.00291525 -5.67441e-07 0.00204632)
(0.00271153 -8.36748e-07 0.00241863)
(0.00240223 1.1515e-06 0.00280454)
(0.00200763 1.38612e-06 0.00314526)
(0.00163226 2.59929e-07 0.00340362)
(0.00121678 -1.35195e-06 0.00354955)
(0.00079356 -3.25154e-07 0.00367407)
(0.000318997 3.53531e-06 0.00350978)
(0.000111846 1.93755e-06 -0.00291583)
(0.000570091 1.74964e-06 -0.00305575)
(0.00108822 5.15763e-07 -0.00282904)
(0.00157859 -3.98407e-07 -0.00259243)
(0.00208488 -5.41068e-07 -0.00233937)
(0.00252698 1.8178e-06 -0.00204973)
(0.00289283 4.74589e-08 -0.0016657)
(0.00321022 9.19167e-07 -0.00123443)
(0.00344605 3.1946e-07 -0.000746766)
(0.00363787 -1.48381e-06 -0.000208003)
(0.00376486 -4.92572e-07 0.000302611)
(0.00374788 -1.00762e-07 0.000787062)
(0.00365664 -1.38744e-06 0.00136198)
(0.00351702 -4.49121e-07 0.00186162)
(0.00336958 -1.59881e-06 0.00231598)
(0.00312441 -8.46677e-07 0.00277836)
(0.00276105 4.81708e-07 0.00320887)
(0.00232696 6.6423e-07 0.00355631)
(0.00185995 7.57362e-08 0.00383282)
(0.00140854 -2.07114e-07 0.00406585)
(0.000856865 1.53082e-06 0.00416921)
(0.000333652 -1.53838e-06 0.00393453)
(0.000219062 6.48295e-06 -0.00350909)
(0.000646946 2.18898e-06 -0.00353277)
(0.00124914 1.43259e-06 -0.00335559)
(0.0018706 1.2725e-07 -0.003085)
(0.00243381 4.45488e-07 -0.00280615)
(0.00292325 6.6254e-07 -0.00246576)
(0.00334817 -1.15943e-07 -0.00201049)
(0.00374085 4.17989e-07 -0.00151187)
(0.0039695 -9.90829e-08 -0.000969369)
(0.00417603 -1.13132e-06 -0.000338012)
(0.00431844 -2.4471e-06 0.000296604)
(0.00435756 -1.65305e-06 0.000879589)
(0.00430256 1.35523e-06 0.0014698)
(0.00413765 1.60197e-06 0.00193595)
(0.00388549 1.24541e-06 0.00260718)
(0.00352842 2.39321e-06 0.00312941)
(0.00312702 6.12829e-07 0.00362818)
(0.00269719 5.98986e-09 0.00404798)
(0.00216273 -4.65666e-07 0.00435765)
(0.00160985 2.35772e-07 0.00465345)
(0.00101137 6.49505e-07 0.00475296)
(0.000349321 -1.21577e-07 0.00446867)
(0.0002059 4.69526e-06 -0.00409311)
(0.00076804 -4.96554e-08 -0.00407005)
(0.00147293 -8.80067e-07 -0.00393824)
(0.00216496 -1.93778e-07 -0.00365953)
(0.00280786 1.19641e-06 -0.00333972)
(0.0033641 -5.06477e-07 -0.00292781)
(0.00384893 3.97733e-07 -0.00238483)
(0.00425179 -5.26684e-07 -0.00182694)
(0.00458305 -7.69672e-07 -0.00116533)
(0.00483767 1.69846e-06 -0.000476151)
(0.00496297 1.95116e-07 0.000217936)
(0.0050059 1.21683e-07 0.000882411)
(0.00492801 1.18714e-06 0.00153285)
(0.00470888 -7.36059e-07 0.0021867)
(0.0044279 -7.11014e-07 0.00287587)
(0.00408918 1.59695e-06 0.0034951)
(0.00362391 2.07172e-06 0.00406293)
(0.00309681 6.76946e-07 0.00457064)
(0.00254232 3.91932e-07 0.00491337)
(0.00188373 1.20526e-06 0.00526857)
(0.00121768 3.07289e-06 0.00542647)
(0.000551897 1.14463e-06 0.00505782)
(0.000127935 2.6091e-06 -0.00471468)
(0.000900965 4.9069e-07 -0.00478856)
(0.00171414 -9.10308e-07 -0.00466564)
(0.00252482 2.16311e-07 -0.00435779)
(0.00323453 1.36652e-06 -0.00397)
(0.00385696 -5.84917e-07 -0.00346049)
(0.00443972 6.29326e-07 -0.00286423)
(0.00490105 1.15521e-07 -0.00223132)
(0.0053102 4.27204e-07 -0.00147603)
(0.0055848 2.28534e-07 -0.000701712)
(0.00570634 4.23647e-07 0.00010717)
(0.0057493 -7.51946e-07 0.000901363)
(0.00565329 -3.62007e-07 0.00169799)
(0.0054479 6.92363e-07 0.00250623)
(0.00511928 3.33148e-07 0.00325749)
(0.00474387 -1.30651e-06 0.00399215)
(0.00421988 -1.37371e-07 0.0046101)
(0.00360381 8.26392e-07 0.00512059)
(0.00295578 -5.26951e-08 0.00557268)
(0.00224137 1.90833e-06 0.00596282)
(0.00150195 3.00752e-06 0.00613789)
(0.000676247 2.90702e-06 0.00586433)
(0.000197876 3.18598e-06 -0.00538095)
(0.00104177 -2.19638e-07 -0.00567325)
(0.00199153 -8.50356e-07 -0.00547822)
(0.00290681 6.56378e-07 -0.0051319)
(0.00370719 -5.95504e-08 -0.00462469)
(0.00443871 -6.64335e-07 -0.00403576)
(0.00511328 -2.32718e-06 -0.00340564)
(0.0056661 -2.72885e-06 -0.00261144)
(0.00616314 -1.86751e-06 -0.00180975)
(0.00643546 -1.32546e-06 -0.000892664)
(0.00657989 -7.13246e-07 4.378e-05)
(0.00662437 3.24125e-07 0.000960343)
(0.00650556 1.65926e-06 0.00190007)
(0.00629479 7.27215e-07 0.00281823)
(0.00593881 6.78441e-07 0.0036644)
(0.00545694 -7.61488e-08 0.00453204)
(0.00487673 -1.81435e-06 0.00529371)
(0.00418488 -1.29009e-06 0.00585836)
(0.00336637 5.5092e-07 0.00632727)
(0.00253992 3.74974e-07 0.00672559)
(0.00168674 8.46533e-07 0.00700946)
(0.000670359 1.7042e-06 0.00681172)
(0.000322591 7.533e-06 -0.0063111)
(0.00123934 -1.88183e-06 -0.00658321)
(0.00236823 -4.36896e-07 -0.00640174)
(0.00336777 5.37502e-07 -0.00603558)
(0.00426287 -3.98397e-07 -0.00549282)
(0.00515191 -1.37917e-06 -0.00478909)
(0.00591174 -3.08644e-06 -0.00398818)
(0.00658657 -1.78576e-06 -0.00307804)
(0.0070869 -1.94722e-06 -0.00210132)
(0.00745533 -1.14045e-06 -0.00109749)
(0.00766357 5.3992e-07 -4.72357e-05)
(0.00766276 1.94355e-06 0.00102047)
(0.00750154 1.91316e-06 0.00205718)
(0.00723089 -1.49548e-06 0.00313086)
(0.00686583 -1.87508e-06 0.00419831)
(0.00629602 6.51843e-07 0.00515649)
(0.00560778 5.26843e-07 0.00599602)
(0.00483303 2.32874e-08 0.00667142)
(0.00391687 -2.8133e-07 0.00727362)
(0.00292436 -1.49671e-06 0.0077375)
(0.00183978 5.26974e-07 0.00804315)
(0.000764552 -1.4748e-06 0.00782541)
(0.000347291 6.14135e-06 -0.0073671)
(0.0014087 -1.67504e-06 -0.00773384)
(0.0027163 7.92063e-07 -0.0075393)
(0.00389631 6.69441e-07 -0.00706169)
(0.00494134 -4.1805e-07 -0.00645585)
(0.00592374 -1.31814e-06 -0.00564845)
(0.00680259 -1.59407e-06 -0.0046863)
(0.00756811 -2.25421e-06 -0.00364624)
(0.0081601 -1.41121e-06 -0.00252405)
(0.00859223 -1.76945e-06 -0.00135817)
(0.0088636 4.6789e-07 -0.00016653)
(0.00887652 1.1294e-06 0.00109637)
(0.00873597 -6.35454e-07 0.00230433)
(0.00841681 1.63141e-07 0.00354094)
(0.0078959 1.12739e-06 0.00474644)
(0.00722749 -1.42304e-06 0.00583633)
(0.00648183 2.32341e-07 0.0067898)
(0.0055418 -1.15769e-06 0.00761415)
(0.00452564 -1.71727e-06 0.00836319)
(0.00336822 -3.28782e-07 0.00891131)
(0.00213997 -5.79604e-07 0.00925144)
(0.000795118 8.83394e-08 0.00900174)
(0.000396899 6.83527e-06 -0.00860061)
(0.00165174 1.1066e-06 -0.00907708)
(0.00314251 1.3827e-06 -0.0088515)
(0.00446279 -1.88238e-06 -0.00823894)
(0.00573562 -1.67937e-06 -0.00751467)
(0.00685134 -9.53316e-07 -0.00663343)
(0.00787068 6.59796e-07 -0.00555882)
(0.00874292 -9.17861e-08 -0.00435291)
(0.00943263 -3.10455e-07 -0.00301505)
(0.00989905 -2.43629e-07 -0.00165544)
(0.0101967 2.37828e-07 -0.000260668)
(0.0102555 -3.60764e-07 0.00120035)
(0.0101077 -1.55945e-06 0.00264903)
(0.00974847 2.66315e-07 0.00401697)
(0.009126 5.82344e-07 0.00537528)
(0.0083474 -8.18586e-07 0.00666228)
(0.00745802 -2.97386e-06 0.00779071)
(0.00640888 -2.20055e-06 0.00875228)
(0.00519627 -2.61845e-07 0.00957355)
(0.00383131 2.54769e-08 0.0102553)
(0.00244655 -1.73407e-06 0.0106253)
(0.000987687 -4.97708e-06 0.0103431)
(0.000480681 1.05596e-05 -0.010185)
(0.00200507 3.48779e-06 -0.01057)
(0.00356168 2.43325e-08 -0.0102744)
(0.00513856 -8.21747e-07 -0.00964095)
(0.00660868 -2.109e-06 -0.00876745)
(0.00794248 -1.52194e-06 -0.00777768)
(0.00913641 -6.72219e-07 -0.00652621)
(0.0101314 -2.55949e-06 -0.00511542)
(0.0108842 -8.04558e-07 -0.00356292)
(0.0114349 1.54612e-06 -0.0020503)
(0.0117378 5.40403e-07 -0.000409264)
(0.0118055 -1.33194e-06 0.0013257)
(0.0116517 -1.06129e-06 0.00299982)
(0.011244 -6.6196e-07 0.00457545)
(0.0105722 -1.20582e-06 0.0061316)
(0.00972513 -6.942e-08 0.00757901)
(0.00863974 -9.09932e-07 0.0089262)
(0.00738727 2.64656e-07 0.0100387)
(0.00594482 1.05767e-06 0.010966)
(0.00439376 1.10479e-06 0.0117328)
(0.00274705 -6.79479e-07 0.0121619)
(0.00110993 -1.41405e-06 0.011946)
(0.000612812 1.54309e-05 -0.0118871)
(0.00230555 1.98114e-06 -0.0123229)
(0.00418168 -1.67255e-06 -0.0119749)
(0.00595173 -1.71078e-06 -0.0112783)
(0.00766367 -1.13178e-06 -0.0102586)
(0.00920109 3.19473e-07 -0.00908113)
(0.0105461 3.74669e-07 -0.00766001)
(0.0116953 1.006e-06 -0.00596189)
(0.0125504 -1.36898e-06 -0.00419896)
(0.0132212 -2.1447e-06 -0.00247331)
(0.0135778 2.63468e-07 -0.000576142)
(0.013663 -1.23495e-06 0.00142922)
(0.013469 -1.2518e-06 0.00331486)
(0.0130003 -6.83671e-07 0.00519137)
(0.0122409 -1.09884e-07 0.00697418)
(0.0112367 -3.93924e-08 0.00862053)
(0.00997765 2.03777e-07 0.0101927)
(0.00852352 3.41205e-08 0.0115154)
(0.00690771 -2.56614e-07 0.0125786)
(0.00516949 -2.97519e-07 0.0134481)
(0.00323865 1.018e-07 0.0140617)
(0.00134618 -2.15337e-06 0.0137005)
(0.000534877 9.84237e-06 -0.0137714)
(0.002553 -6.92471e-07 -0.0143772)
(0.00484535 1.4023e-06 -0.0140139)
(0.0069353 1.0816e-06 -0.0131551)
(0.00890997 5.36593e-07 -0.0119824)
(0.0106681 7.89352e-07 -0.0106108)
(0.0122189 -1.34789e-06 -0.00898727)
(0.013466 -6.9045e-07 -0.00695085)
(0.0144989 -5.46431e-07 -0.00498437)
(0.0152541 3.33444e-08 -0.00296188)
(0.0156503 -1.18979e-06 -0.000752607)
(0.0157569 -1.19205e-06 0.00149791)
(0.0155559 -2.59437e-06 0.0036658)
(0.0150286 -2.28588e-06 0.00589807)
(0.0141776 -7.66085e-07 0.00794086)
(0.012998 -3.72484e-07 0.00986314)
(0.0115816 1.09907e-06 0.0116738)
(0.0099272 9.61244e-07 0.013185)
(0.00802245 -2.18808e-07 0.0144281)
(0.00594933 -1.40471e-07 0.0154063)
(0.00375624 2.5401e-06 0.0161847)
(0.00141207 3.13405e-06 0.015772)
(0.000676508 1.27737e-05 -0.0158042)
(0.00305877 -4.5273e-06 -0.0168131)
(0.00563828 -1.50427e-06 -0.016342)
(0.00804686 -1.75386e-06 -0.0153091)
(0.0102952 -7.04731e-07 -0.0139454)
(0.0123232 3.28771e-07 -0.0123692)
(0.0140658 3.6452e-07 -0.010444)
(0.0155248 3.6154e-07 -0.0081922)
(0.0167472 -3.50422e-07 -0.00596714)
(0.0175899 6.33793e-07 -0.0035601)
(0.0180654 -1.37291e-06 -0.00099704)
(0.0182188 -2.51679e-07 0.00157576)
(0.0179824 -1.14509e-06 0.00415546)
(0.0173114 -9.69119e-07 0.00669854)
(0.0163656 -9.9669e-08 0.00906758)
(0.0150156 -1.85779e-07 0.0112987)
(0.0133723 -1.47615e-06 0.0133584)
(0.0114798 -1.65204e-07 0.0150992)
(0.00927815 -5.25021e-07 0.0165678)
(0.00687764 -6.82915e-07 0.0176849)
(0.00434303 2.27038e-06 0.0185584)
(0.00177156 5.93154e-07 0.0181586)
(0.000885009 1.69558e-05 -0.0184224)
(0.00367088 -7.58915e-06 -0.0195449)
(0.00660215 -2.15423e-06 -0.0189288)
(0.0093407 -1.86657e-06 -0.0177377)
(0.0118895 -9.879e-07 -0.0161884)
(0.0142124 -2.01937e-06 -0.0143753)
(0.0162457 -6.58833e-07 -0.0121836)
(0.0179941 5.90402e-07 -0.00971181)
(0.0193412 -7.7674e-07 -0.00701781)
(0.0202765 -1.96628e-06 -0.00420877)
(0.0208369 -2.52125e-06 -0.00126282)
(0.0209983 -1.4924e-06 0.0016865)
(0.0207413 -2.816e-08 0.00473235)
(0.0200477 -1.29589e-06 0.00762705)
(0.018926 -9.84837e-07 0.0103429)
(0.0173481 9.28982e-07 0.0129484)
(0.0154296 6.40357e-07 0.0152646)
(0.0132188 -1.34783e-06 0.0173249)
(0.0107604 2.3307e-07 0.019041)
(0.00805631 -8.03752e-07 0.0203689)
(0.00510105 1.71832e-06 0.0213466)
(0.00213191 -5.28145e-06 0.0208756)
(0.00111877 2.21438e-05 -0.0216004)
(0.00431424 -4.27011e-06 -0.0226992)
(0.00765924 -5.8495e-07 -0.0219219)
(0.010807 1.18422e-06 -0.0205757)
(0.0137262 9.33233e-07 -0.0188375)
(0.0163948 7.35916e-07 -0.0167073)
(0.0187704 -9.73154e-07 -0.0141725)
(0.0207791 -8.04004e-07 -0.0113577)
(0.0223174 1.53374e-06 -0.00823771)
(0.0234382 -8.51158e-08 -0.004998)
(0.0240935 -2.08019e-06 -0.00155833)
(0.0242288 -2.54289e-06 0.00183169)
(0.0239095 -7.22987e-07 0.00527193)
(0.0231421 5.83876e-07 0.00865594)
(0.0218091 -1.48011e-06 0.0118513)
(0.0200215 -1.70108e-06 0.0147937)
(0.0178108 -4.60096e-07 0.0174835)
(0.0152865 -1.84213e-06 0.0199028)
(0.0124598 -1.23446e-06 0.0218783)
(0.00931808 4.63248e-07 0.0234632)
(0.00592141 8.44752e-07 0.0246041)
(0.00238465 -3.38078e-06 0.0241081)
(0.00122288 2.40692e-05 -0.0254902)
(0.00487981 -4.80669e-07 -0.0262787)
(0.00881247 -5.36261e-07 -0.0253982)
(0.0124531 1.72949e-06 -0.0238756)
(0.0158362 1.94585e-06 -0.0219013)
(0.0189148 2.0831e-07 -0.0194167)
(0.0216509 -6.22718e-08 -0.016524)
(0.023964 -2.42762e-06 -0.013267)
(0.0258197 3.00861e-07 -0.00976856)
(0.0271116 4.14827e-07 -0.0059789)
(0.0277908 -8.92744e-07 -0.00195707)
(0.0280006 -1.37166e-06 0.00202271)
(0.0276437 1.17655e-08 0.00593675)
(0.0266709 1.16347e-06 0.00977691)
(0.0251694 2.75133e-07 0.0135374)
(0.0231271 -1.00798e-06 0.0169648)
(0.0206257 -1.06907e-06 0.0200666)
(0.0176873 1.03653e-06 0.0228155)
(0.0143833 3.92266e-07 0.0251471)
(0.0107666 -5.90925e-07 0.0270012)
(0.00691509 7.23022e-07 0.0283294)
(0.00283756 -3.14887e-06 0.0278106)
(0.00128753 2.51325e-05 -0.0296318)
(0.00557534 4.53748e-07 -0.0306086)
(0.0102159 5.02756e-07 -0.0294295)
(0.0144239 -1.82277e-07 -0.027631)
(0.0183129 -7.3884e-08 -0.0254015)
(0.0218795 -1.98996e-06 -0.0224921)
(0.0250053 -1.40249e-06 -0.0191526)
(0.0276841 -1.38282e-06 -0.0154261)
(0.0298384 -2.25727e-06 -0.0114174)
(0.0313173 -9.21015e-07 -0.00701713)
(0.0321912 1.59493e-06 -0.00243757)
(0.0324243 5.54299e-07 0.00207085)
(0.0319466 1.97241e-06 0.00665898)
(0.0308025 1.73409e-06 0.0110683)
(0.0290414 2.16662e-06 0.0153413)
(0.0267158 1.37259e-06 0.0193951)
(0.0238293 -7.06285e-07 0.0230038)
(0.0204518 -1.36907e-06 0.0262003)
(0.0166756 -5.85159e-08 0.0288924)
(0.0125114 1.32362e-06 0.0310041)
(0.00805636 1.17373e-06 0.0325505)
(0.00336242 -5.68474e-06 0.0320781)
(0.00152546 2.9864e-05 -0.0343217)
(0.00661068 -8.50612e-07 -0.0357652)
(0.0119873 1.36608e-06 -0.0341479)
(0.0168389 -2.19971e-06 -0.0318945)
(0.0212927 -1.88555e-06 -0.0293242)
(0.0253668 1.44448e-06 -0.0260997)
(0.0289661 1.59707e-08 -0.0222591)
(0.0320044 4.28549e-09 -0.0179512)
(0.0344213 -1.54091e-06 -0.0132942)
(0.0361722 -2.20839e-06 -0.00826447)
(0.0372505 -6.40652e-07 -0.00305136)
(0.037512 1.16963e-06 0.00221182)
(0.0369464 6.10381e-07 0.0074578)
(0.0356421 7.32423e-08 0.0126147)
(0.033585 8.77084e-07 0.0175469)
(0.0308892 5.2325e-07 0.0221741)
(0.0275739 5.53009e-07 0.0263584)
(0.0237088 -2.27118e-07 0.0300856)
(0.0193372 4.54243e-07 0.0331735)
(0.0145089 4.3017e-08 0.0356135)
(0.0093484 -1.8327e-06 0.0374787)
(0.00389596 -8.57618e-06 0.0371644)
(0.00187661 3.52615e-05 -0.039984)
(0.00782084 -5.3943e-06 -0.0417256)
(0.0140238 -8.73046e-07 -0.0395557)
(0.0196471 5.37441e-07 -0.0368749)
(0.024776 -4.19688e-07 -0.0338766)
(0.0294501 1.42316e-07 -0.0302186)
(0.0335503 1.40572e-07 -0.0258023)
(0.0370287 1.86655e-06 -0.0208666)
(0.0397672 2.5948e-06 -0.0154961)
(0.0417719 1.70274e-07 -0.00975548)
(0.0430116 2.79154e-07 -0.0037647)
(0.0433115 6.57511e-07 0.00235363)
(0.0427156 -1.39603e-06 0.00841425)
(0.0412114 1.80095e-07 0.0144049)
(0.0388467 2.59858e-07 0.0201304)
(0.0357693 -8.50241e-07 0.0254013)
(0.0319445 6.19164e-07 0.03021)
(0.0274311 9.50537e-07 0.0345045)
(0.0223509 -1.38478e-06 0.0380929)
(0.0168252 -1.44457e-06 0.0409877)
(0.0108682 7.80181e-07 0.0431857)
(0.00462622 -1.05947e-05 0.0431025)
(0.00229389 4.44366e-05 -0.0468573)
(0.00917491 -3.58811e-06 -0.0484742)
(0.0162416 -4.81669e-07 -0.0457838)
(0.0227153 -8.13722e-07 -0.0426484)
(0.0286482 -1.28301e-06 -0.0391261)
(0.0340512 -9.23784e-07 -0.0349008)
(0.0388393 -5.5548e-07 -0.0299062)
(0.0428658 6.66829e-07 -0.0242751)
(0.046029 -3.1467e-07 -0.0180832)
(0.0483398 5.214e-07 -0.0114749)
(0.049689 -3.61184e-07 -0.00456723)
(0.0500339 -2.81884e-07 0.00250699)
(0.0493457 8.63318e-07 0.00953774)
(0.0475879 1.60025e-06 0.0164595)
(0.044908 -7.0143e-07 0.0230807)
(0.0413718 -4.87086e-07 0.0291861)
(0.0369626 -8.91555e-07 0.0347114)
(0.031763 9.43869e-07 0.0395951)
(0.0259117 -1.16796e-07 0.0437817)
(0.0195325 2.91276e-08 0.0471436)
(0.01262 8.69118e-07 0.0497026)
(0.00540206 -7.29464e-06 0.0499819)
(0.00257227 5.04354e-05 -0.0548912)
(0.0105743 -3.61204e-06 -0.0563316)
(0.0187952 2.20504e-07 -0.0530434)
(0.0262894 1.98855e-08 -0.0493002)
(0.0331661 1.49213e-07 -0.0451341)
(0.0393807 -9.80753e-07 -0.0403124)
(0.0449301 -8.9468e-07 -0.0346451)
(0.0496129 -1.68049e-06 -0.0281644)
(0.0533606 -1.5355e-06 -0.0210334)
(0.0560385 -1.26216e-07 -0.0133977)
(0.0575319 1.34758e-06 -0.00546223)
(0.0578831 1.44434e-06 0.00266877)
(0.0570602 5.1066e-07 0.0108173)
(0.0550864 -6.37538e-07 0.0187803)
(0.0520565 -1.48928e-06 0.0263965)
(0.0479617 -1.00099e-06 0.0335082)
(0.0428497 -1.07934e-06 0.0399731)
(0.0367435 -5.12086e-07 0.0455876)
(0.0299674 -3.94379e-07 0.0503261)
(0.0226339 -1.58685e-07 0.0542408)
(0.0147421 3.08145e-06 0.05721)
(0.00629489 -6.52524e-06 0.0579578)
(0.00289345 5.50232e-05 -0.0638327)
(0.0121468 -7.34901e-06 -0.0655733)
(0.0217182 -2.16706e-06 -0.0615036)