/*--------------------------------*- C++ -*----------------------------------*\
  =========                 |
  \\      /  F ield         | OpenFOAM: The Open Source CFD Toolbox
   \\    /   O peration     | Website:  https://openfoam.org
    \\  /    A nd           | Version:  7
     \\/     M anipulation  |
\*---------------------------------------------------------------------------*/
FoamFile
{
    version     2.0;
    format      ascii;
    class       volScalarField;
    location    "700";
    object      epsilon;
}
// * * * * * * * * * * * * * * * * * * * * * * * * * * * * * * * * * * * * * //

dimensions      [0 2 -3 0 0 0 0];

internalField   nonuniform List<scalar> 
120313
(
66.9914
73.4923
80.7028
86.7303
89.853
91.2117
91.6577
91.03
89.4756
86.5891
82.473
78.5547
74.0685
69.1938
64.8153
61.6299
58.4261
55.4991
52.385
49.5773
46.669
43.9724
41.2902
38.6089
67.0168
71.8936
79.0023
85.7433
89.3021
91.1691
92.0848
91.2459
89.0172
86.6682
83.4228
79.5216
74.9822
70.8037
66.7117
63.1374
59.8024
56.6245
53.3783
50.397
47.4209
44.2997
41.0301
39.7339
64.7049
68.7418
75.343
81.7541
85.441
87.425
88.4971
88.2669
86.3995
84.0284
80.7131
76.7484
72.4077
68.3722
64.3327
60.874
57.653
54.5903
51.4915
48.64
45.7875
42.7644
39.4282
38.6999
63.7552
67.5279
73.9795
80.3817
84.107
86.2158
87.4745
87.5525
85.8254
83.4075
80.0023
75.9721
71.6765
67.6728
63.7099
60.2602
57.0379
53.9951
50.948
48.1557
45.3568
42.3906
39.0708
38.5693
63.5709
67.3487
73.7961
80.2148
83.9562
86.1062
87.4155
87.5095
85.828
83.4341
80.0343
76.0056
71.7202
67.7112
63.7789
60.3198
57.1038
54.0662
51.0267
48.2308
45.4341
42.4642
39.1157
38.6243
64.281
68.3538
74.981
81.4936
85.2447
87.3484
88.5696
88.4125
86.715
84.3948
81.0665
77.0394
72.7317
68.6842
64.744
61.2683
58.0348
54.9395
51.8261
48.9408
46.082
43.0443
39.6151
38.9074
66.7275
71.7902
79.0449
86.0295
89.7883
91.8053
92.8207
92.1021
90.2677
87.9572
84.6197
80.4638
76.0065
71.8171
67.7626
64.162
60.7983
57.524
54.2163
51.1641
48.1463
44.9971
41.6337
40.2939
68.3999
75.2563
82.9285
89.7743
93.1867
94.8731
95.4872
94.8611
93.3337
90.2483
86.1147
81.8939
77.0768
72.1796
67.7731
64.5418
61.1668
57.9926
54.7031
51.7203
48.7221
45.9296
42.9246
40.0381
1.86191
3.92204
6.49429
9.73103
13.8308
19.1306
26.2464
35.8625
45.366
54.0422
62.7429
69.9482
74.4916
77.3825
78.7267
79.0078
78.5081
77.4034
75.7264
73.4693
70.4643
67.0724
63.407
59.6355
56.1703
52.7576
49.5148
46.412
43.4666
40.713
38.1064
35.6709
33.3762
31.2328
29.2818
27.8776
1.84525
3.88464
6.4503
9.66509
13.7518
19.0915
26.3346
35.9094
46.3711
61.0627
72.8345
82.1374
88.2181
91.4692
92.7334
92.9023
92.1006
90.6288
88.2295
84.6239
80.7728
76.2631
71.7987
67.3057
63.0354
58.812
54.8552
51.0116
47.5649
44.1704
41.1573
38.2437
35.1737
32.3908
30.1015
28.1348
1.70545
3.72457
6.22587
9.34778
13.3033
18.4778
25.5153
34.8602
45.564
60.8076
74.7812
85.6877
91.5348
95.3983
97.0538
97.5352
96.6826
94.8561
92.0628
88.1614
84.0069
79.4718
74.6482
69.886
65.4692
61.0307
56.9069
52.8976
49.3354
45.8167
42.6414
39.6014
36.1595
32.9927
30.9563
28.6615
1.64978
3.64517
6.09413
9.13396
12.9664
17.9715
24.7679
33.7778
44.456
60.0696
74.7282
85.7365
92.9492
96.8868
98.6151
99.3228
99.0416
96.4807
93.7722
89.6357
85.2517
80.4382
75.6044
70.743
66.2918
61.7731
57.5898
53.5257
49.9032
46.3531
43.1214
40.061
36.3771
33.3316
31.0113
28.786
1.73028
3.68146
6.10617
9.10703
12.8782
17.7945
24.436
33.2087
43.8354
59.6345
74.3884
85.5202
93.0216
97.1555
99.0319
99.9185
99.3971
96.9548
94.2034
90.0045
85.532
80.6549
75.8007
70.9223
66.4606
61.9133
57.7269
53.6502
50.0316
46.4876
43.2659
40.2127
36.4878
33.4703
31.182
28.9353
1.76555
3.68402
6.09147
9.07356
12.8205
17.706
24.3015
33.0102
43.6431
59.4594
74.1741
85.3044
92.8011
96.935
98.8184
99.7293
99.2244
96.8389
94.0933
89.9229
85.4573
80.5907
75.7515
70.8904
66.4288
61.8809
57.7002
53.6309
50.0171
46.4799
43.2664
40.214
36.5187
33.4798
31.3002
29.038
1.70463
3.61503
6.02096
9.01171
12.7809
17.7002
24.3548
33.1414
43.8779
59.7357
74.2156
85.266
92.4796
96.4412
98.2297
99.0352
98.7488
96.3281
93.5974
89.5342
85.158
80.3572
75.5475
70.7358
66.2686
61.7582
57.5794
53.5191
49.8968
46.3595
43.1414
40.0772
36.4884
33.3037
31.4279
29.0792
1.58182
3.50494
5.91804
8.93945
12.7701
17.7869
24.6278
33.7336
44.7612
60.5039
74.3967
85.4415
91.2792
95.2188
97.0082
97.7417
97.1082
95.1485
92.2392
88.4682
84.3744
79.6347
74.8591
70.1279
65.6857
61.2344
57.0982
53.0837
49.5035
45.9837
42.8087
39.7351
36.3902
33.0743
31.6135
29.1424
1.55887
3.48267
5.93109
9.03208
13.0042
18.244
25.4504
35.1521
46.428
61.5411
73.6816
83.7263
88.9473
92.5189
94.1467
94.5305
93.9532
92.7961
89.6678
86.0835
82.0932
77.4997
72.8943
68.3379
63.9942
59.7247
55.7025
51.8052
48.2944
44.8797
41.806
38.8353
35.7929
32.738
31.4467
29.2044
1.55167
3.46236
5.92711
9.07639
13.1282
18.4906
25.8949
35.9665
47.1646
60.6174
70.7753
79.2861
84.808
87.8585
89.1365
89.3826
88.7528
87.4589
85.6348
82.7079
78.9919
74.7068
70.4539
66.092
62.0076
58.0357
54.2262
50.5633
47.1512
43.972
40.9871
38.3274
35.6496
32.5875
31.4627
29.224
1.52045
3.44144
5.93764
9.13282
13.2361
18.6377
26.0445
36.0375
45.7388
55.0841
64.0957
71.1236
76.0047
79.0729
80.6113
81.04
80.6496
79.6342
78.0298
75.7241
72.8008
69.1211
65.2083
61.2884
57.5882
54.0705
50.703
47.4632
44.3934
41.5239
38.8346
36.3328
33.9939
31.7816
29.8889
28.2152
1.33583
3.31115
5.8154
9.04318
13.1809
18.5467
25.7058
35.2577
45.0752
53.5922
62.3958
69.9007
74.6826
77.8969
79.5314
80.0595
79.7641
78.7961
77.1209
74.8413
71.9906
68.4399
64.5679
60.67
56.9721
53.3916
49.9753
46.7104
43.6151
40.7003
37.9807
35.4734
33.1456
31.0776
29.1671
27.7203
88.0778
103.455
119.597
129.687
134.698
135.802
134.348
130.833
125.701
119.854
113.684
107.797
100.94
94.2137
87.6421
81.3191
75.2836
69.5889
64.2609
59.3063
54.7927
50.6327
46.8877
43.7292
1.803
3.52204
6.0399
9.50715
14.244
20.649
29.1842
40.2454
56.9524
85.0308
101.046
117.011
126.657
131.525
132.705
131.5
128.322
123.517
117.689
111.275
105.672
98.8707
92.9315
86.3404
80.1343
74.2205
68.6757
63.484
58.6729
54.2376
50.1949
46.4372
43.1644
40.1434
36.7274
34.0956
1.73715
3.42487
5.93786
9.39397
14.1397
20.611
29.3037
40.5806
57.59
85.9504
102.238
118.447
127.908
132.625
133.466
132.041
128.577
123.569
117.361
111.125
104.945
98.4821
92.0037
85.5788
79.4608
73.6132
68.1584
63.0351
58.3481
53.9689
50.0234
46.2977
42.934
39.6947
37.2478
34.4303
1.62854
3.27929
5.73972
9.12562
13.7818
20.1811
28.8565
40.1878
57.054
86.0778
103.237
119.846
129.299
134.086
134.743
133.041
129.057
123.371
117.826
111.583
105.218
98.643
92.0763
85.6492
79.5553
73.706
68.2761
63.1614
58.5132
54.1248
50.2039
46.4563
43.0125
39.6323
37.1295
34.3374
1.56739
3.18799
5.59491
8.90437
13.4487
19.7163
28.2518
39.4337
56.0985
85.3748
103.014
119.81
129.421
134.271
134.798
132.831
128.192
122.796
117.874
111.557
105.103
98.4484
91.8374
85.4048
79.3276
73.4805
68.0713
62.9769
58.3725
54.0167
50.1432
46.4235
42.9664
39.5304
37.0432
34.1507
1.60305
3.18907
5.56762
8.83261
13.3126
19.4883
27.8938
38.8978
55.3605
84.7094
102.44
119.276
128.954
133.829
134.223
132.026
127.342
122.338
117.597
111.21
104.694
98.01
91.4235
84.9934
79.0109
73.086
67.7204
62.5379
58.0085
53.6404
49.8463
46.1605
42.7757
39.3866
36.9312
33.9939
1.6238
3.18398
5.54398
8.78411
13.2339
19.3668
27.7084
38.6214
55.006
84.3571
102.029
118.851
128.523
133.404
133.805
131.623
126.965
121.979
117.276
110.908
104.408
97.735
91.1911
84.7623
78.804
72.8324
67.4955
62.3517
57.8488
53.5071
49.7405
46.0606
42.7026
39.3269
36.8862
33.9375
1.57814
3.12684
5.47007
8.69877
13.1452
19.2892
27.6619
38.6221
55.1125
84.4304
101.972
118.803
128.425
133.291
133.818
131.857
127.249
121.93
117.109
110.849
104.411
97.7844
91.2155
84.8377
78.8154
73.0034
67.6395
62.5748
58.0093
53.6991
49.8771
46.1899
42.7925
39.3813
36.9097
33.997
1.50105
3.0547
5.39359
8.63285
13.1138
19.3294
27.824
38.9638
55.6991
84.7668
102.071
118.855
128.352
133.177
133.849
132.101
127.871
122.258
117.072
110.873
104.535
97.9726
91.4324
85.0605
79.0056
73.2025
67.8189
62.7579
58.1572
53.817
49.9398
46.2189
42.828
39.447
36.964
34.1337
1.48356
3.04257
5.39866
8.6845
13.2538
19.6114
28.3018
39.673
56.6688
85.1641
101.925
118.352
127.689
132.424
133.253
131.789
128.151
122.738
116.806
110.748
104.444
97.9566
91.467
85.0858
79.0134
73.2124
67.8146
62.7387
58.102
53.7582
49.8331
46.1412
42.7976
39.4986
37.0493
34.3542
1.4906
3.05376
5.43491
8.76983
13.424
19.8895
28.6863
40.1066
57.0079
84.7569
101.089
117.047
126.357
131.054
132.009
130.672
127.333
122.475
116.45
110.281
104.273
97.8848
91.4109
85.0533
79.0176
73.2339
67.8303
62.7688
58.1132
53.7995
49.8561
46.2167
42.9068
39.6828
37.2817
34.5599
1.46645
3.03924
5.42797
8.78061
13.4602
19.936
28.6935
39.9981
56.8749
85.1591
101.517
117.721
127.455
132.422
133.635
132.378
129.101
124.168
118.301
111.859
106.341
99.6786
93.0627
86.5231
80.2615
74.2697
68.6642
63.4253
58.6101
54.1528
50.1365
46.3794
43.0888
40.0531
36.6456
34.0374
1.37646
2.96618
5.32564
8.65153
13.2815
19.6843
28.3766
39.7031
56.9144
86.0837
103.527
120.443
130.748
135.971
137.227
135.888
132.387
127.021
120.961
114.518
109.016
101.936
95.0356
88.1956
81.642
75.398
69.5742
64.1514
59.1905
54.6233
50.5472
46.7106
43.434
40.289
36.6986
33.9471
145.758
151.921
162.561
167.422
166.537
161.674
154.213
145.353
135.936
126.508
117.423
108.811
100.749
93.1686
86.2658
79.881
73.951
68.5571
63.4662
58.9243
54.6343
50.8558
47.4005
44.4646
1.49363
3.06764
5.96073
11.0029
19.3013
31.0214
45.7317
63.7279
96.4862
145.749
150.732
161.771
167.272
166.562
162.068
154.876
146.187
136.88
127.453
118.274
109.591
101.447
93.9493
87.0184
80.6641
74.6292
69.1399
63.9958
59.3601
55.0631
51.1868
47.5589
44.4632
41.2476
40.6454
38.0176
1.43951
2.96465
5.88523
11.0991
19.7604
32.0444
47.4087
66.009
99.5034
147.662
151.807
161.473
166.497
165.406
160.374
152.861
144.042
134.651
125.086
115.9
107.339
99.3098
92.0074
85.177
78.9823
73.0859
67.7441
62.7462
58.2625
54.1053
50.3724
46.8699
43.6569
40.5918
37.9582
35.2683
1.34996
2.79815
5.60582
10.6319
19.1103
31.4297
47.0194
65.8132
98.9247
146.336
150.991
160.367
163.493
161.995
156.494
148.684
139.634
130.007
120.665
111.75
103.425
95.5143
88.4303
81.8819
75.9323
70.4062
65.3815
60.6833
56.4462
52.5206
49.0398
45.7663
42.778
39.7652
37.017
34.5296
1.2852
2.67717
5.38345
10.25
18.4263
30.4978
45.9248
64.5299
97.1703
144.404
149.388
158.276
160.551
158.484
152.625
144.542
135.097
125.545
116.425
107.617
99.4102
91.8301
84.9665
78.6819
72.9605
67.659
62.8745
58.4554
54.491
50.8282
47.5981
44.5594
41.7804
38.8696
36.159
33.6746
1.30297
2.67965
5.35081
10.1103
18.2179
30.1772
45.3304
63.6705
95.9522
143.041
148.12
156.773
158.836
156.444
150.354
142.072
132.453
122.932
113.802
105.034
96.8023
89.3476
82.8257
76.4452
71.6257
65.0883
61.2566
55.5952
52.7624
48.3758
45.9788
42.9355
40.6033
37.9694
35.4155
33.0227
1.32745
2.68462
5.32946
10.0602
18.1616
30.0416
45.0302
63.1775
95.2742
142.603
147.543
156.292
158.383
156.039
149.936
141.629
131.998
122.446
113.266
104.46
96.1887
88.7367
82.4556
75.7222
71.1111
64.0013
60.4822
55.0384
52.2911
48.0138
45.7023
42.5662
40.3225
37.7403
35.2083
32.8376
1.29974
2.63754
5.26173
9.98873
18.0401
29.872
44.8895
63.0469
95.2253
143.05
147.719
157.053
159.343
157.278
151.326
143.131
133.577
123.957
114.74
105.876
97.5872
90.0214
83.2252
77.0171
71.5078
66.1559
61.5895
57.1608
53.3696
49.8785
46.7879
43.8647
41.176
38.3205
35.643
33.1855
1.24004
2.57748
5.18978
9.91061
18.01
29.9357
45.0569
63.3695
95.7889
144.043
148.805
158.767
161.637
159.882
154.149
146.137
136.81
127.058
117.753
108.806
100.474
92.7752
85.8373
79.4919
73.7055
68.3933
63.5638
59.1241
55.0758
51.3446
48.0241
44.8878
42.0117
39.035
36.297
33.8022
1.23074
2.56657
5.20721
10.0548
18.2446
30.4091
45.85
64.399
97.1669
146.001
150.677
161.169
164.665
163.136
157.632
149.844
140.816
131.082
121.522
112.527
104.144
96.2128
89.0952
82.4741
76.5167
70.9425
65.9117
61.1777
56.9311
52.9649
49.4398
46.0963
43.0306
39.9709
37.2229
34.6968
1.2488
2.60782
5.30482
10.2679
18.6603
31.0264
46.6335
65.4439
98.6556
147.516
152.086
163.044
167.04
165.654
160.271
152.592
143.676
134.121
124.541
115.393
106.894
98.9603
91.7655
85.0725
79.0134
73.213
67.9488
62.9944
58.5492
54.3948
50.6559
47.1478
43.9248
40.9264
38.0549
35.5605
1.2342
2.63034
5.31147
10.1692
18.5696
30.7264
46.0996
64.9791
98.7082
147.518
152.163
163.506
168.428
167.246
162.058
154.488
145.628
136.204
126.628
117.427
108.866
100.857
93.5452
86.7375
80.4739
74.4934
69.0647
63.9853
59.3966
55.1385
51.2544
47.6967
44.4149
42.0174
40.6961
37.9727
1.16035
2.53403
5.06744
9.62128
17.4825
29.0451
43.9401
62.6283
96.8112
145.925
150.873
162.541
168.389
167.541
162.559
155.11
146.307
136.914
127.361
118.225
109.686
101.589
94.1769
87.1789
80.7747
74.7087
69.2163
64.0962
59.4636
55.1851
51.2915
47.6694
44.38
41.9916
40.7188
37.9399
114.855
95.543
81.8213
70.2246
60.3284
52.446
46.2852
41.331
37.225
33.7975
30.8702
28.5211
26.5293
24.8021
23.2554
22.049
20.9221
20.0702
19.1803
18.5125
17.7977
17.1849
16.694
15.4784
38.1603
134.015
186.746
211.512
214.738
212.155
208.852
206.617
208.797
116.352
96.5665
82.3575
70.6097
60.7187
52.5378
46.1975
41.1217
36.9568
33.4986
30.5777
28.2184
26.2473
24.5196
23.0264
21.7506
20.6798
19.7173
18.8963
18.1412
17.4967
16.8847
16.3512
15.8877
14.6851
18.3725
19.8279
41.2204
131.967
195.28
222.409
224.501
220.269
215.699
212.063
209.499
111.957
93.0577
78.9664
67.4021
57.4976
49.8065
43.7993
39.0167
34.9761
31.8837
29.3253
27.1187
25.2455
23.5905
22.1334
20.8051
19.6832
18.7089
17.9035
17.1919
16.5779
16.1023
15.5879
15.3086
14.6059
14.1741
12.8794
37.8178
130.575
191.423
217.151
221.292
218.709
214.516
210.574
206.473
108.459
89.9072
75.3611
63.5425
53.6233
46.3208
40.602
35.995
32.5636
29.8454
27.5344
25.5205
23.739
22.1558
20.7437
19.502
18.4082
17.4249
16.6183
15.9675
15.4279
15.0321
14.6646
14.4254
13.8279
13.2623
12.0914
35.9407
124.285
189.445
214.926
220.155
218.232
213.749
209.402
205.053
107.264
88.5443
73.3844
61.0044
51.0889
43.8718
38.1014
33.9125
30.7649
28.2625
26.0955
24.1716
22.4742
20.9606
19.6004
18.3963
17.3232
16.3928
15.5537
14.8983
14.4029
14.0642
13.7921
13.6252
13.0598
12.4897
11.3319
36.1299
132.865
188.999
215.005
220.214
217.277
212.467
208.179
204.8
107.4
88.4918
72.9684
60.3393
50.178
42.9185
36.9589
32.8931
29.8453
27.3874
25.271
23.3508
21.6706
20.1723
18.8804
17.6607
16.6339
15.6355
14.8427
14.1914
13.7342
13.4594
13.2579
13.1515
12.6414
12.0923
10.9685
38.4726
129.951
188.065
216.442
220.681
216.705
211.693
207.711
205.502
107.545
88.6932
73.1807
60.5743
50.3443
43.0105
37.0146
32.8552
29.7528
27.2758
25.1092
23.1938
21.4921
19.9918
18.7017
17.4635
16.4224
15.4381
14.6628
14.0161
13.5646
13.2957
13.1024
12.9943
12.4898
11.9437
10.824
39.3833
131.009
192.089
216.683
220.585
216.984
211.89
207.786
205.187
107.677
88.7511
73.6934
61.3269
51.2207
43.8228
37.9142
33.5632
30.3415
27.7829
25.5896
23.6407
21.9213
20.3999
19.0564
17.8596
16.8109
15.885
15.0716
14.3999
13.9139
13.5973
13.3507
13.1909
12.636
12.0766
10.9486
35.4773
126.813
188.424
217.028
221.438
217.264
212.105
207.934
204.689
107.406
88.9561
74.3836
62.3472
52.4201
45.0497
39.2659
34.7665
31.3854
28.751
26.4703
24.497
22.7439
21.217
19.8411
18.6346
17.5677
16.6408
15.8197
15.1775
14.6668
14.2996
13.9684
13.7197
13.0818
12.4981
11.3651
35.621
123.183
188.534
217.792
222.283
219.505
214.107
209.485
206.257
107.394
89.7255
75.5691
63.9399
54.096
46.7613
41.0759
36.3407
32.8264
30.0289
27.636
25.6047
23.8048
22.2353
20.8135
19.5854
18.4869
17.5399
16.7535
16.1351
15.589
15.1932
14.7659
14.4515
13.7761
13.2077
12.1124
36.3147
127.727
191.449
219.802
223.783
220.402
215.178
211.063
207.534
107.908
90.1743
76.4985
65.2746
55.5436
48.2249
42.4736
37.8242
34.0485
31.1461
28.6955
26.5707
24.756
23.1827
21.7879
20.5597
19.4817
18.6022
17.8426
17.2216
16.637
16.1922
15.6493
15.3058
14.5361
14.0718
13.0829
38.9235
132.244
187.306
218.252
223.366
219.063
215.068
212.282
209.397
109.399
91.4516
77.8642
66.6966
57.0348
49.6327
43.8187
39.1526
35.2154
32.1616
29.6234
27.4619
25.6292
24.0142
22.6122
21.3561
20.3553
19.4516
18.716
18.038
17.4427
16.919
16.3312
15.9759
14.721
17.9781
19.486
36.1389
108.144
169.407
204.743
213.095
211.585
208.768
207.686
208.402
111.347
92.728
78.8245
67.4637
57.6858
50.2278
44.3813
39.7116
35.7687
32.6679
30.1343
27.9582
26.1097
24.4686
23.0154
21.73
20.7202
19.7819
19.0387
18.3223
17.7219
17.1605
16.5628
16.1951
14.9284
18.2116
19.6849
1.43425
1.72998
1.93002
2.03826
2.0859
2.09496
2.07983
2.0488
2.00871
1.96565
1.92259
1.88575
1.852
1.82589
1.80662
1.79588
1.79148
1.79565
1.80494
1.82102
1.84078
1.86497
1.89098
1.75442
0.00994076
0.00935649
0.00888626
0.00850173
0.0081523
0.00782694
0.00966526
0.0207921
0.0446784
0.0776013
0.152506
0.395684
0.96838
1.50795
1.24633
1.57354
1.79547
1.92223
1.98373
2.00286
1.99488
1.96947
1.93373
1.89246
1.85368
1.81524
1.7836
1.75619
1.73708
1.72535
1.72082
1.72237
1.73027
1.74336
1.76162
1.78529
1.81154
1.8328
1.72593
2.3978
2.75382
0.00994793
0.00934427
0.00889519
0.00850574
0.00815904
0.00788559
0.00767581
0.0103196
0.019738
0.0326799
0.0829586
0.237435
0.62031
1.18655
1.10039
1.41879
1.62875
1.7471
1.80514
1.8242
1.81773
1.79537
1.76266
1.72652
1.68806
1.6549
1.6223
1.59585
1.57507
1.56087
1.55276
1.55059
1.555
1.56525
1.58243
1.60808
1.64251
1.68319
1.70591
1.71446
1.68923
0.00994636
0.00935123
0.00890115
0.00848839
0.00815697
0.0078818
0.00761585
0.00914632
0.0148126
0.0235905
0.0629763
0.185234
0.473551
1.03171
1.00265
1.3097
1.49776
1.59719
1.63936
1.64961
1.63462
1.60761
1.57087
1.53223
1.49404
1.46154
1.42959
1.40219
1.37926
1.36253
1.35125
1.34663
1.34827
1.35702
1.37369
1.39782
1.43047
1.46485
1.48827
1.49188
1.50471
0.00990191
0.00931137
0.00888504
0.0084922
0.00815505
0.00788713
0.0076344
0.00909105
0.0110095
0.0174885
0.0488758
0.154049
0.409738
0.974638
0.98143
1.27617
1.44504
1.52531
1.55296
1.54773
1.52211
1.4858
1.44484
1.40525
1.36747
1.33541
1.30386
1.27672
1.25243
1.23301
1.21782
1.20863
1.20475
1.20823
1.21923
1.23726
1.26204
1.28673
1.30397
1.30712
1.31999
0.00990034
0.00933458
0.00889735
0.00848107
0.00816051
0.00783222
0.00766992
0.00853575
0.0107975
0.018771
0.0529974
0.161697
0.431041
1.01711
0.996108
1.28891
1.45086
1.52122
1.54068
1.52606
1.49019
1.44628
1.40012
1.35636
1.31551
1.28002
1.24544
1.21511
1.1886
1.16508
1.14617
1.13201
1.12505
1.12552
1.13443
1.15074
1.1735
1.19729
1.21662
1.2257
1.23607
0.00990008
0.00933842
0.00889907
0.00845664
0.00816163
0.00784629
0.00758613
0.008301
0.0116211
0.019809
0.0542321
0.158453
0.423942
1.0045
1.00134
1.29773
1.46302
1.53464
1.5544
1.53921
1.5022
1.45633
1.40786
1.36123
1.31979
1.28016
1.24414
1.21125
1.18257
1.15716
1.13676
1.12126
1.11235
1.11139
1.11867
1.13311
1.15394
1.17612
1.19455
1.20064
1.21517
0.00990172
0.00931533
0.00887661
0.00846261
0.00816138
0.00788899
0.00759436
0.00854478
0.0108954
0.0180071
0.050834
0.153256
0.407351
0.991259
0.99597
1.29407
1.4669
1.54815
1.57404
1.56493
1.53403
1.49109
1.44361
1.398
1.35462
1.31708
1.2804
1.24834
1.22022
1.19656
1.17743
1.16387
1.1552
1.1538
1.16028
1.17339
1.19259
1.21302
1.22972
1.23658
1.24657
0.00994263
0.00935757
0.00887927
0.00843736
0.00817158
0.00786847
0.00757719
0.00831402
0.0117028
0.0199728
0.0532818
0.150047
0.381561
0.938975
0.967254
1.27038
1.45331
1.54613
1.58276
1.58612
1.56557
1.53105
1.48881
1.44601
1.40683
1.36956
1.33655
1.30699
1.28166
1.26198
1.24758
1.23959
1.23723
1.24179
1.25313
1.26986
1.29192
1.31352
1.33034
1.3362
1.34627
0.00989993
0.0093522
0.00889621
0.00848906
0.00815555
0.00786579
0.00755948
0.00814621
0.00930353
0.0155252
0.0440826
0.13648
0.359213
0.915638
0.964332
1.2751
1.46888
1.57462
1.62367
1.63757
1.62696
1.60254
1.56846
1.52958
1.492
1.45645
1.42562
1.39788
1.37541
1.35934
1.34961
1.3464
1.35013
1.36036
1.37715
1.3992
1.4254
1.45102
1.47431
1.48531
1.5083
0.00990196
0.00932889
0.00887443
0.008488
0.00816603
0.00787511
0.00758667
0.00828372
0.0096934
0.0165804
0.047613
0.145462
0.377517
0.927016
0.971744
1.28257
1.48555
1.60234
1.66237
1.68539
1.68314
1.66596
1.63826
1.60673
1.57281
1.54424
1.51641
1.49528
1.48002
1.47291
1.47199
1.47812
1.49088
1.50974
1.53422
1.56306
1.59458
1.62717
1.65221
1.6831
1.69325
0.00994737
0.00935328
0.00890153
0.00848489
0.0081491
0.00783717
0.00764728
0.00910628
0.0143221
0.02331
0.0592254
0.167961
0.429175
0.97548
1.02334
1.33741
1.54589
1.66803
1.73382
1.76118
1.76484
1.75125
1.72768
1.69922
1.67189
1.64488
1.6241
1.6069
1.5998
1.59563
1.6014
1.61284
1.6317
1.65533
1.68502
1.71796
1.7545
1.79259
1.66888
2.3301
2.66519
0.00989954
0.00933061
0.00889837
0.00849652
0.00815444
0.00789029
0.0079304
0.011869
0.0227371
0.0323644
0.0684843
0.201185
0.541123
1.10977
1.08075
1.38924
1.59514
1.7149
1.77914
1.80552
1.80921
1.79645
1.77421
1.74695
1.7216
1.6967
1.67868
1.66399
1.65931
1.65597
1.66323
1.67562
1.69567
1.72005
1.75086
1.78511
1.82319
1.86588
1.71144
2.41229
2.78531
0.00584997
0.00610581
0.00650362
0.00699985
0.00756504
0.0081792
0.00882479
0.00949079
0.010168
0.0108576
0.0115626
0.0122946
0.0130586
0.0138757
0.0147602
0.0157362
0.0168201
0.0180399
0.0194062
0.0209491
0.0226741
0.024586
0.0265938
0.0257634
0.00995196
0.00952324
0.00910607
0.00871193
0.00834323
0.00799921
0.00767706
0.00737509
0.0070921
0.00682585
0.0065747
0.00633781
0.00611271
0.00585411
0.0057655
0.00595686
0.0062914
0.00672498
0.00723489
0.00779735
0.00839657
0.00901703
0.00965253
0.0102961
0.0109576
0.0116351
0.0123448
0.013093
0.0139057
0.0147945
0.0157868
0.0168924
0.0181371
0.0195305
0.021106
0.0228828
0.0249509
0.0269444
0.0254145
0.0395717
0.0484467
0.00994875
0.00951344
0.00909928
0.00870617
0.00833715
0.00799179
0.0076677
0.00736464
0.00708076
0.00681351
0.00656127
0.00632324
0.0060987
0.00588492
0.00572561
0.00586531
0.00612763
0.00647462
0.00688627
0.00734546
0.00783525
0.00834555
0.00886599
0.00939628
0.00993092
0.0104806
0.0110427
0.0116354
0.0122663
0.0129581
0.0137194
0.0145754
0.0155385
0.0166356
0.0178981
0.0193941
0.021226
0.0234363
0.0254182
0.0272602
0.0285533
0.00994812
0.00951149
0.00909751
0.0087053
0.00833687
0.00799172
0.00766754
0.00736388
0.00707937
0.00681202
0.00656016
0.00632226
0.00609748
0.00588174
0.00570021
0.0058046
0.0060095
0.00628482
0.00660787
0.00696549
0.0073418
0.00773015
0.00811872
0.00850618
0.00889277
0.00928712
0.00968835
0.0101072
0.0105501
0.0110327
0.0115644
0.0121669
0.0128547
0.0136553
0.014596
0.0157214
0.0170773
0.018647
0.0201765
0.0216759
0.0231177
0.00994846
0.00951184
0.00909793
0.00870577
0.00833738
0.00799213
0.00766801
0.00736425
0.00707924
0.00681203
0.00656045
0.00632262
0.00609813
0.00588259
0.0056941
0.00578724
0.00596905
0.00620969
0.00648513
0.00678239
0.00708885
0.00739639
0.00769835
0.00799791
0.00829559
0.00860003
0.00890907
0.00923296
0.00957274
0.00994026
0.0103401
0.0107891
0.0112965
0.0118863
0.0125749
0.0133815
0.0143208
0.0153563
0.0164211
0.0175631
0.0186969
0.00994823
0.00951159
0.00909772
0.00870549
0.008337
0.00799185
0.00766764
0.00736362
0.00707907
0.0068116
0.00655968
0.00632193
0.00609732
0.00588299
0.00569844
0.00579715
0.00598241
0.00622166
0.0064891
0.00677078
0.00705294
0.00732927
0.00759592
0.00785623
0.00811236
0.00837122
0.00863149
0.00890139
0.00918369
0.00948443
0.00980837
0.0101682
0.0105766
0.0110537
0.0116142
0.0122688
0.0130253
0.0138681
0.0147999
0.0158222
0.0168639
0.00994822
0.00951157
0.00909769
0.0087055
0.00833714
0.00799215
0.00766779
0.00736386
0.00707951
0.0068117
0.00655933
0.0063213
0.00609663
0.00588229
0.00570003
0.00580359
0.00599672
0.00624458
0.00652081
0.00681111
0.00710055
0.0073822
0.00765171
0.00791214
0.00816741
0.00842116
0.00867482
0.00893539
0.00920525
0.00949164
0.0097996
0.0101416
0.0105288
0.0109802
0.0115077
0.0121202
0.0128272
0.0136238
0.0145144
0.0155021
0.0164982
0.00994832
0.00951169
0.00909776
0.00870554
0.00833709
0.00799184
0.00766756
0.00736397
0.00707961
0.00681201
0.00655975
0.00632144
0.00609683
0.00588109
0.00569782
0.00579952
0.00599504
0.00625075
0.00654097
0.00684954
0.00716212
0.00746877
0.00776338
0.00804906
0.0083274
0.00860636
0.00888482
0.00917209
0.00947137
0.009792
0.0101381
0.0105233
0.0109543
0.0114506
0.0120233
0.012682
0.0134381
0.0142861
0.0152321
0.0162666
0.0173208
0.00994846
0.00951185
0.009098
0.00870579
0.00833728
0.00799195
0.00766769
0.00736389
0.00707946
0.0068117
0.00655924
0.00632091
0.00609643
0.0058808
0.00568929
0.00578199
0.00597037
0.00622434
0.00651997
0.00684272
0.00717803
0.00751547
0.00784556
0.00816929
0.00848943
0.00881097
0.00913681
0.00947578
0.00983213
0.0102192
0.0106436
0.0111231
0.0116671
0.0122956
0.0130202
0.0138506
0.0147971
0.0158573
0.0170262
0.0182884
0.0195411
0.00994823
0.00951162
0.00909775
0.00870558
0.0083372
0.00799194
0.00766777
0.00736394
0.00707888
0.00681131
0.00655905
0.00632076
0.00609641
0.00588097
0.00568872
0.00578205
0.0059758
0.00624204
0.00655817
0.00691193
0.00728741
0.00767683
0.0080693
0.00845951
0.00884808
0.0092407
0.00964173
0.0100599
0.0105042
0.0109899
0.0115293
0.012142
0.0128428
0.0136512
0.0145824
0.0156519
0.0168751
0.018268
0.0198115
0.021551
0.0231674
0.00994842
0.00951209
0.00909819
0.00870569
0.00833698
0.00799152
0.00766731
0.00736352
0.00707866
0.00681118
0.00655901
0.00632096
0.0060964
0.00588042
0.00568961
0.00578441
0.00598486
0.00626469
0.00660276
0.00698619
0.00739918
0.00783383
0.00827968
0.00873557
0.0091972
0.00967521
0.0101686
0.010696
0.0112666
0.0119038
0.0126225
0.0134465
0.01439
0.015475
0.0167212
0.0181449
0.0197628
0.0215848
0.0235579
0.0258666
0.0279612
0.00994832
0.00951359
0.00909922
0.00870583
0.00833667
0.00799117
0.00766693
0.00736339
0.00707922
0.00681135
0.00655909
0.00632154
0.00609684
0.00588158
0.00570294
0.00581402
0.00603907
0.00634661
0.00672052
0.00714559
0.0076092
0.00809947
0.00861095
0.0091393
0.00968884
0.0102612
0.0108689
0.0115211
0.0122413
0.0130447
0.0139579
0.0149972
0.0161897
0.0175506
0.0191094
0.0208845
0.0229085
0.0251845
0.0240708
0.0365748
0.0459048
0.00994983
0.00952129
0.00910124
0.00870576
0.00833574
0.00799024
0.00766674
0.00736359
0.00707936
0.00681166
0.00655966
0.00632225
0.00609761
0.0058834
0.00570859
0.00583124
0.00607052
0.0063924
0.00678274
0.007226
0.00771152
0.00822701
0.00876907
0.00933167
0.00992279
0.0105423
0.0112071
0.0119224
0.0127182
0.0136023
0.0146077
0.0157456
0.0170499
0.0185296
0.02023
0.022149
0.0243476
0.026814
0.0250684
0.0385311
0.0485802
0.00558735
0.00541215
0.00521524
0.00499276
0.0048451
0.00470337
0.00456805
0.0044367
0.00431026
0.00418644
0.00406607
0.00394779
0.00383315
0.00372063
0.00361161
0.0035047
0.00340149
0.00330071
0.00320381
0.00310959
0.00301954
0.00293329
0.0028556
0.00278462
0.00995029
0.00952046
0.00910313
0.00870861
0.0083384
0.00799169
0.00766689
0.00736208
0.00707551
0.00680585
0.00655188
0.00631221
0.00608356
0.0058558
0.00561684
0.00537895
0.0052594
0.00498852
0.00484114
0.00470059
0.00456501
0.0044349
0.00430815
0.00418554
0.00406513
0.00394793
0.00383317
0.00372168
0.00361247
0.00350644
0.00340295
0.00330288
0.00320563
0.00311195
0.00302135
0.00293436
0.00285019
0.00276855
0.00270361
0.00266925
0.00259865
0.00994852
0.00951196
0.00909853
0.00870635
0.00833659
0.00798959
0.00766422
0.00735899
0.00707225
0.00680251
0.00654849
0.00630892
0.00608277
0.00585451
0.00561566
0.00537888
0.00525832
0.00501942
0.00483841
0.00469752
0.00456199
0.00443153
0.0043047
0.00418172
0.00406109
0.00394346
0.00382838
0.00371651
0.00360696
0.00350062
0.00339674
0.00329637
0.00319866
0.00310463
0.00301329
0.00292568
0.00284033
0.00275809
0.0026792
0.00260433
0.00253937
0.00994802
0.00951006
0.00909654
0.00870581
0.00833687
0.00799028
0.00766514
0.00736003
0.00707341
0.00680386
0.00655008
0.00631088
0.00608531
0.00584798
0.00560134
0.00539739
0.00524172
0.00504993
0.00483991
0.00469986
0.00456401
0.00443368
0.00430681
0.00418416
0.00406359
0.00394636
0.00383141
0.00371979
0.00361032
0.00350407
0.00340012
0.00329965
0.00320161
0.00310719
0.00301515
0.00292668
0.00284027
0.00275737
0.00267733
0.00260212
0.00253752
0.00994826
0.0095102
0.00909668
0.00870629
0.00833768
0.00799134
0.00766635
0.0073612
0.00707442
0.00680487
0.00655138
0.00631264
0.0060874
0.00584369
0.00559243
0.00540821
0.00522963
0.00506664
0.00483868
0.00469861
0.00456367
0.00443387
0.00430732
0.00418456
0.00406379
0.0039461
0.00383077
0.00371865
0.00360877
0.00350211
0.0033978
0.00329699
0.00319867
0.00310393
0.00301159
0.00292281
0.00283623
0.00275336
0.00267307
0.00259737
0.00253172
0.00994823
0.0095101
0.00909654
0.00870624
0.00833776
0.00799157
0.00766668
0.00736154
0.00707476
0.0068052
0.00655172
0.00631288
0.00608747
0.00584378
0.00559324
0.00540642
0.00523123
0.00506446
0.00484005
0.00469961
0.00456444
0.00443467
0.00430826
0.00418571
0.00406517
0.00394772
0.00383258
0.00372061
0.00361085
0.00350423
0.00339996
0.00329911
0.00320073
0.00310587
0.00301334
0.0029244
0.00283762
0.00275473
0.0026742
0.00259809
0.00253237
0.00994827
0.00951015
0.00909656
0.00870613
0.00833748
0.00799112
0.00766617
0.00736107
0.00707429
0.00680452
0.00655064
0.00631148
0.00608598
0.00584602
0.00559711
0.00540188
0.00523639
0.0050581
0.00483892
0.00469986
0.00456524
0.00443557
0.00430906
0.0041863
0.00406556
0.00394795
0.00383269
0.00372064
0.0036108
0.00350415
0.00339984
0.00329895
0.00320055
0.00310564
0.00301309
0.00292414
0.00283734
0.00275445
0.00267398
0.00259754
0.00253167
0.00994817
0.00951004
0.00909644
0.00870598
0.00833728
0.00799083
0.00766587
0.00736084
0.00707416
0.00680441
0.00655042
0.00631111
0.00608557
0.00584669
0.00559881
0.00539948
0.00523723
0.00505759
0.00483928
0.00469894
0.00456401
0.00443439
0.00430817
0.00418572
0.0040653
0.00394789
0.00383281
0.00372083
0.00361106
0.00350441
0.0034001
0.00329926
0.00320084
0.00310602
0.00301354
0.00292471
0.00283803
0.00275518
0.00267459
0.00259827
0.00253227
0.00994817
0.00951002
0.00909641
0.00870593
0.00833714
0.00799057
0.0076654
0.00736024
0.00707362
0.00680419
0.00655067
0.00631166
0.00608609
0.00584504
0.00559529
0.00540345
0.00523343
0.0050595
0.0048392
0.00469992
0.00456454
0.00443425
0.00430753
0.0041847