/*--------------------------------*- C++ -*----------------------------------*\
  =========                 |
  \\      /  F ield         | OpenFOAM: The Open Source CFD Toolbox
   \\    /   O peration     | Website:  https://openfoam.org
    \\  /    A nd           | Version:  7
     \\/     M anipulation  |
\*---------------------------------------------------------------------------*/
FoamFile
{
    version     2.0;
    format      ascii;
    class       volScalarField;
    location    "700";
    object      k;
}
// * * * * * * * * * * * * * * * * * * * * * * * * * * * * * * * * * * * * * //

dimensions      [0 2 -2 0 0 0 0];

internalField   nonuniform List<scalar> 
120313
(
1.09971
1.25968
1.3555
1.42765
1.46359
1.4789
1.4838
1.47718
1.46033
1.4288
1.3832
1.33856
1.28752
1.22981
1.17795
1.13827
1.09896
1.0614
1.02139
0.98393
0.944016
0.903359
0.856588
0.757978
1.18222
1.42021
1.53894
1.6357
1.68429
1.70887
1.7207
1.71047
1.68262
1.65291
1.6116
1.56011
1.50115
1.44389
1.38826
1.33763
1.2903
1.24366
1.19551
1.14945
1.10146
1.04541
0.975579
0.831044
1.16642
1.4004
1.5217
1.61964
1.67254
1.69996
1.71453
1.71197
1.68783
1.65647
1.61319
1.55939
1.50016
1.44378
1.38633
1.33604
1.28837
1.24203
1.19408
1.14837
1.09997
1.04228
0.965329
0.824666
1.1583
1.39091
1.51297
1.61283
1.66725
1.6968
1.71408
1.71554
1.69296
1.66078
1.6157
1.56075
1.50127
1.44481
1.38776
1.33716
1.28897
1.24235
1.1946
1.14918
1.10082
1.04288
0.96434
0.825213
1.15583
1.38808
1.51008
1.61016
1.66476
1.69483
1.71275
1.7144
1.6924
1.66054
1.61549
1.56071
1.50134
1.44487
1.38832
1.33762
1.28957
1.24306
1.19547
1.15005
1.10175
1.04376
0.964713
0.825712
1.16007
1.39347
1.51503
1.61431
1.66799
1.6969
1.71334
1.71175
1.68983
1.65906
1.61574
1.56145
1.50272
1.44645
1.39057
1.3403
1.29261
1.24595
1.19795
1.15189
1.10347
1.04561
0.967065
0.826559
1.17537
1.41432
1.53467
1.63435
1.68529
1.71169
1.7248
1.71616
1.69334
1.66424
1.62228
1.56803
1.51003
1.45386
1.39872
1.3486
1.301
1.25362
1.20473
1.15806
1.1096
1.05334
0.982049
0.836261
1.10594
1.27101
1.37156
1.45192
1.49046
1.50908
1.51588
1.50939
1.49323
1.46021
1.41528
1.36838
1.31478
1.25766
1.20682
1.16748
1.12684
1.087
1.04555
1.00645
0.965985
0.924557
0.873166
0.770587
0.164093
0.324047
0.493301
0.679276
0.886316
1.11868
1.37982
1.66517
2.0402
2.29351
2.62054
2.8874
3.06983
3.17693
3.23207
3.2509
3.24545
3.22176
3.181
3.13132
3.0584
2.97085
2.86749
2.75662
2.64703
2.5335
2.42148
2.31028
2.20427
2.10391
2.00433
1.91396
1.82366
1.74088
1.6723
1.62106
0.161998
0.319845
0.487797
0.671302
0.874634
1.10214
1.35528
1.61361
1.94125
2.80361
3.37177
3.74243
3.98038
4.10395
4.1548
4.16369
4.14012
4.09381
4.02034
3.93117
3.8296
3.70091
3.56107
3.41583
3.27109
3.12413
2.98096
2.839
2.70676
2.57567
2.45117
2.34571
2.13586
2.02769
1.71756
1.60479
0.152181
0.310492
0.476601
0.656734
0.854854
1.07485
1.31661
1.5516
1.82766
2.68362
3.39826
3.82491
4.0924
4.22513
4.2742
4.28174
4.25039
4.19481
4.13391
4.03404
3.91791
3.77949
3.63397
3.48329
3.33632
3.18567
3.04086
2.89711
2.76399
2.63133
2.5023
2.39292
2.11313
1.9823
1.70291
1.59526
0.147412
0.305874
0.47007
0.646882
0.839806
1.05198
1.28195
1.49877
1.75252
2.61229
3.37511
3.82465
4.09658
4.23459
4.28573
4.2939
4.2688
4.22207
4.15576
4.04882
3.92505
3.78256
3.63428
3.48138
3.33474
3.18351
3.03938
2.897
2.76554
2.63516
2.50804
2.39409
2.098
1.96078
1.68649
1.58436
0.15379
0.308393
0.470516
0.644735
0.834093
1.04121
1.26405
1.47239
1.72045
2.58328
3.35532
3.81184
4.08372
4.22322
4.276
4.28604
4.26586
4.2235
4.15084
4.04128
3.91393
3.76975
3.62053
3.46724
3.32022
3.16944
3.02701
2.88717
2.75841
2.63085
2.50708
2.39259
2.09736
1.95549
1.68397
1.58422
0.157141
0.309041
0.469857
0.642896
0.830978
1.03658
1.25758
1.46411
1.71255
2.57707
3.34749
3.80444
4.07631
4.21525
4.26795
4.2784
4.25848
4.21745
4.14465
4.03535
3.90759
3.76328
3.61411
3.46115
3.31425
3.16442
3.02268
2.88337
2.75488
2.6278
2.50467
2.39029
2.09655
1.95664
1.68587
1.58663
0.153139
0.304778
0.465881
0.640037
0.830051
1.03839
1.26267
1.47225
1.72674
2.59896
3.35591
3.80692
4.07975
4.21647
4.26774
4.27718
4.25258
4.21089
4.14209
4.03577
3.91011
3.76764
3.61976
3.46806
3.32146
3.17135
3.02816
2.88681
2.75617
2.62723
2.50182
2.38815
2.09574
1.96513
1.69084
1.58934
0.144399
0.297779
0.460116
0.636986
0.83151
1.04673
1.28103
1.50358
1.77988
2.67231
3.38222
3.81126
4.08297
4.21304
4.26219
4.27118
4.2389
4.19279
4.12853
4.02898
3.90664
3.76883
3.62344
3.47328
3.3265
3.17643
3.03227
2.88937
2.75695
2.62556
2.49803
2.38758
2.11205
1.99078
1.70603
1.59873
0.142618
0.2955
0.459135
0.639732
0.841021
1.06749
1.31982
1.57274
1.90398
2.82244
3.39785
3.77399
4.02389
4.14111
4.1884
4.19641
4.17062
4.12673
4.05206
3.96458
3.85127
3.71994
3.57808
3.43184
3.28627
3.13889
2.99538
2.85357
2.72124
2.59111
2.46654
2.35775
2.14918
2.04987
1.74683
1.62639
0.143135
0.294263
0.458638
0.641647
0.847351
1.08144
1.34764
1.62868
2.03009
2.92816
3.32007
3.65223
3.87562
3.9888
4.039
4.05046
4.03072
3.98855
3.92634
3.85419
3.75742
3.63544
3.50286
3.36219
3.22354
3.08278
2.94306
2.80658
2.67601
2.55205
2.43101
2.32623
2.18912
2.11295
1.79139
1.6541
0.141174
0.292721
0.45944
0.645782
0.855426
1.09365
1.36416
1.65252
2.03197
2.28007
2.58644
2.85238
3.03756
3.14581
3.20425
3.22645
3.22499
3.20253
3.16453
3.11553
3.05152
2.95984
2.85296
2.7426
2.62945
2.51646
2.403
2.29181
2.18498
2.08375
1.98666
1.89548
1.80537
1.72788
1.67504
1.62612
0.127201
0.285995
0.456388
0.647499
0.863542
1.10985
1.39054
1.70456
2.09693
2.34471
2.66341
2.93856
3.12785
3.24174
3.30284
3.32575
3.32491
3.30227
3.26816
3.22054
3.15667
3.06471
2.95414
2.839
2.72074
2.60136
2.48274
2.36693
2.25497
2.14805
2.04549
1.94886
1.85748
1.77816
1.70819
1.64849
3.88807
4.39164
4.87376
5.16282
5.30971
5.35379
5.33448
5.27256
5.18746
5.09282
4.96732
4.81783
4.65014
4.46773
4.27667
4.08798
3.90001
3.71119
3.53178
3.35423
3.19118
3.03225
2.88355
2.76757
0.215872
0.392466
0.60074
0.842793
1.12579
1.45896
1.85114
2.31024
2.92709
3.82362
4.31781
4.81018
5.07714
5.21656
5.25905
5.23557
5.17723
5.09557
4.99863
4.88933
4.76447
4.60052
4.41389
4.22853
4.03944
3.85496
3.66876
3.49261
3.31946
3.15903
3.00428
2.86025
2.72571
2.61751
2.45832
2.3367
0.208554
0.383048
0.591439
0.832266
1.11392
1.44711
1.84146
2.30193
2.92219
3.79838
4.28938
4.79227
5.04977
5.1824
5.2142
5.18475
5.1235
5.04182
4.94854
4.84373
4.70548
4.53963
4.35847
4.17504
3.98486
3.80136
3.61836
3.44575
3.27827
3.1219
2.97153
2.83591
2.69543
2.56803
2.46451
2.34079
0.197814
0.370894
0.577085
0.814609
1.09179
1.42041
1.81032
2.26425
2.86368
3.73607
4.25722
4.74766
5.0161
5.15613
5.18721
5.1617
5.10536
5.0364
4.9543
4.82189
4.66972
4.50011
4.31576
4.13126
3.94552
3.76296
3.58465
3.41417
3.25134
3.09786
2.95096
2.82099
2.67786
2.54228
2.43849
2.31801
0.191227
0.363503
0.566788
0.800385
1.07209
1.39395
1.77544
2.21663
2.79813
3.67786
4.21645
4.7022
4.96926
5.11699
5.15205
5.13021
5.08257
5.02602
4.92601
4.78918
4.63065
4.45505
4.27085
4.08512
3.90219
3.72021
3.5463
3.3784
3.2219
3.07246
2.93106
2.80498
2.66402
2.52617
2.42418
2.30321
0.195204
0.363738
0.564202
0.794651
1.0625
1.37941
1.75413
2.18568
2.75768
3.64334
4.18523
4.66904
4.93563
5.08567
5.12229
5.10322
5.06043
5.0073
4.89629
4.75766
4.59538
4.4176
4.23297
4.0471
3.86418
3.68394
3.51331
3.35034
3.19886
3.05463
2.91879
2.79671
2.65932
2.52252
2.42179
2.30095
0.198
0.363655
0.562316
0.791105
1.05737
1.37239
1.7446
2.17266
2.74307
3.63332
4.17291
4.65795
4.92491
5.07411
5.10999
5.09075
5.04853
4.99609
4.88491
4.74605
4.58332
4.40488
4.22016
4.03434
3.85191
3.67354
3.50422
3.34211
3.19115
3.04767
2.91286
2.79164
2.6554
2.51962
2.41989
2.29943
0.194019
0.359026
0.557282
0.786294
1.05351
1.37033
1.74548
2.17754
2.75497
3.65009
4.18478
4.67387
4.94143
5.08728
5.12127
5.09949
5.05333
5.00128
4.89571
4.75961
4.59925
4.42234
4.23877
4.05393
3.87249
3.69256
3.52075
3.35486
3.20042
3.05342
2.91507
2.7912
2.65308
2.51769
2.41837
2.29811
0.186647
0.352866
0.552064
0.783075
1.05379
1.37619
1.75972
2.20392
2.79939
3.69607
4.22096
4.7122
4.9802
5.11906
5.15107
5.12762
5.07512
5.01185
4.92282
4.79055
4.63301
4.46185
4.27979
4.09493
3.91196
3.7303
3.55564
3.38676
3.22733
3.07587
2.93146
2.80336
2.66294
2.52881
2.42799
2.30807
0.184969
0.35134
0.55197
0.786319
1.06274
1.39385
1.79004
2.25276
2.87637
3.76865
4.27185
4.76271
5.02279
5.15292
5.18501
5.15821
5.09958
5.02409
4.93808
4.82356
4.67384
4.50763
4.32317
4.13904
3.95102
3.76895
3.58914
3.41878
3.25446
3.10097
2.95287
2.82122
2.68235
2.55181
2.45098
2.33336
0.18667
0.352261
0.5546
0.792297
1.07408
1.41239
1.81801
2.29424
2.93509
3.81865
4.30262
4.78972
5.04272
5.17261
5.20863
5.18105
5.12063
5.03957
4.94686
4.84494
4.71493
4.54658
4.36587
4.18409
3.99511
3.81185
3.62843
3.456
3.28798
3.13241
2.98089
2.84455
2.70769
2.58208
2.48157
2.36062
0.185146
0.351434
0.555195
0.795414
1.08052
1.42183
1.82933
2.306
2.94217
3.841
4.33199
4.83054
5.09694
5.23691
5.28281
5.26235
5.20618
5.12691
5.03163
4.92693
4.79759
4.62268
4.43702
4.25017
4.05428
3.86508
3.67525
3.49708
3.32333
3.16219
3.0077
2.86498
2.72729
2.61734
2.4579
2.33925
0.176963
0.346634
0.550543
0.791894
1.078
1.41967
1.82691
2.30255
2.93982
3.84495
4.35304
4.87018
5.14576
5.28762
5.33102
5.31802
5.26808
5.1938
5.10321
4.99813
4.84784
4.67333
4.48042
4.28597
4.08306
3.88828
3.69366
3.51185
3.33478
3.17143
3.01576
2.87129
2.73253
2.62254
2.46178
2.33724
4.27993
4.66036
5.14642
5.32429
5.36261
5.29947
5.17216
5.00503
4.81808
4.62643
4.44368
4.27423
4.0716
3.91496
3.72173
3.57669
3.42543
3.2483
3.12849
2.96313
2.86076
2.70863
2.61319
2.5236
0.204586
0.351001
0.550886
0.830635
1.19522
1.63038
2.1197
2.67391
3.425
4.29858
4.62293
5.18243
5.36611
5.40697
5.34713
5.22469
5.05936
4.87266
4.67785
4.48639
4.30612
4.12975
3.94915
3.7952
3.60246
3.47026
3.27239
3.15646
2.98344
2.88379
2.72844
2.63624
2.49517
2.43307
2.42392
2.35672
0.197782
0.340908
0.541276
0.823495
1.19475
1.6385
2.13901
2.70669
3.47769
4.30297
4.61145
5.13397
5.30287
5.33631
5.27322
5.14676
4.98005
4.79352
4.60174
4.41239
4.23304
4.06547
3.87093
3.7282
3.51606
3.38936
3.20014
3.08931
2.92399
2.82924
2.68653
2.6017
2.46904
2.38437
2.27181
2.17954
0.188309
0.327732
0.523597
0.800122
1.16571
1.60794
2.1107
2.68289
3.45003
4.22542
4.60308
5.00836
5.15982
5.18616
5.11516
4.98063
4.81213
4.6311
4.44995
4.27973
4.07893
3.9212
3.72343
3.5794
3.40551
3.2714
3.11131
2.99334
2.84548
2.74935
2.61946
2.54601
2.42741
2.34768
2.21676
2.12077
0.181314
0.318792
0.509907
0.780376
1.13728
1.57242
2.06971
2.63632
3.39581
4.15073
4.55953
4.90456
5.03282
5.04549
4.96214
4.8198
4.64471
4.47431
4.29524
4.12693
3.93614
3.76031
3.59291
3.43865
3.28989
3.14778
3.01482
2.88996
2.77579
2.67386
2.5637
2.49282
2.38959
2.31439
2.17767
2.07666
0.183399
0.31761
0.505811
0.77152
1.12502
1.55587
2.04653
2.60641
3.35919
4.10922
4.52192
4.84932
4.97113
4.96751
4.87599
4.72666
4.55031
4.38434
4.20144
4.0264
3.83124
3.65474
3.49167
3.33844
3.193
3.05676
2.93611
2.82409
2.72433
2.63359
2.53882
2.47466
2.37928
2.30708
2.16885
2.0662
0.186097
0.317491
0.503433
0.767006
1.11931
1.5477
2.03483
2.5908
3.34052
4.10091
4.50592
4.83956
4.96333
4.95912
4.8658
4.71444
4.53676
4.3701
4.18384
4.00697
3.8093
3.63021
3.46618
3.31108
3.16746
3.03794
2.9197
2.80895
2.7096
2.6205
2.52866
2.46513
2.37147
2.29982
2.16199
2.05985
0.183293
0.313653
0.498771
0.762165
1.11387
1.54211
2.03058
2.58803
3.34182
4.12293
4.51618
4.87649
5.00726
5.01351
4.92434
4.77568
4.59453
4.42372
4.24164
4.06634
3.87099
3.68898
3.52419
3.37038
3.22656
3.08863
2.9609
2.84028
2.73257
2.63519
2.53446
2.4649
2.36666
2.29338
2.15768
2.0571
0.177409
0.309138
0.494792
0.759254
1.11361
1.54569
2.03875
2.60282
3.36626
4.17233
4.55679
4.96088
5.10043
5.11849
5.03675
4.89441
4.71917
4.53247
4.35007
4.18327
3.97619
3.81332
3.64175
3.48367
3.33228
3.18907
3.05329
2.92685
2.80047
2.69887
2.57786
2.50563
2.39438
2.31645
2.17968
2.08002
0.176395
0.308631
0.496101
0.765182
1.12434
1.56448
2.0672
2.64044
3.41596
4.24798
4.61916
5.07668
5.22713
5.24545
5.17356
5.03799
4.86641
4.68002
4.48924
4.31422
4.12288
3.9676
3.75316
3.61515
3.42555
3.30041
3.12929
3.02037
2.86707
2.77621
2.6438
2.56719
2.44111
2.35748
2.23575
2.14307
0.178702
0.311216
0.501377
0.775005
1.14125
1.58864
2.09788
2.67809
3.45956
4.30043
4.65821
5.16441
5.32059
5.34227
5.274
5.14493
4.97697
4.79041
4.59935
4.41159
4.23447
4.06915
3.87958
3.74191
3.5323
3.40742
3.21972
3.11109
2.94742
2.8537
2.70685
2.6167
2.49956
2.40052
2.30264
2.21043
0.177765
0.312241
0.502921
0.775917
1.14388
1.59006
2.0971
2.67581
3.4547
4.30453
4.63463
5.20067
5.36496
5.39373
5.33055
5.20551
5.03981
4.85407
4.6628
4.47544
4.29966
4.1337
3.94061
3.80176
3.587
3.46048
3.26828
3.15787
2.98875
2.8918
2.73823
2.64518
2.52516
2.45458
2.43085
2.35837
0.171616
0.308287
0.495307
0.761701
1.12026
1.55809
2.05808
2.63029
3.40645
4.2706
4.5742
5.17672
5.35719
5.39419
5.33615
5.21352
5.04976
4.86538
4.67513
4.4968
4.31345
4.15398
3.93564
3.7937
3.58051
3.45419
3.26241
3.15291
2.98364
2.88876
2.73272
2.64493
2.50232
2.43818
2.41852
2.35501
2.26768
2.08297
1.95828
1.8183
1.70579
1.61279
1.53072
1.45644
1.38889
1.32786
1.27284
1.22828
1.19013
1.16006
1.13185
1.11397
1.09572
1.08714
1.07259
1.06781
1.05486
1.05304
1.04546
1.01895
0.807436
1.71114
2.32208
2.72903
2.9685
3.1782
3.38872
3.57999
3.7279
2.29416
2.09482
1.96642
1.8227
1.70394
1.60625
1.52164
1.44537
1.377
1.3153
1.2607
1.21305
1.17541
1.14396
1.11878
1.09856
1.08225
1.068
1.05591
1.04672
1.03793
1.03371
1.03336
1.02826
0.999788
1.23047
1.3391
0.840558
1.70709
2.39927
2.81418
3.04835
3.2473
3.45485
3.62641
3.73181
2.21343
2.02187
1.88401
1.73963
1.62632
1.53275
1.45237
1.37854
1.31346
1.25516
1.20177
1.1546
1.11713
1.08585
1.06066
1.03862
1.02202
1.00703
0.998023
0.988553
0.985028
0.98564
0.988314
0.993355
0.985754
0.974495
0.937687
0.791321
1.67442
2.32835
2.73344
2.98903
3.20156
3.40508
3.57379
3.6625
2.13678
1.95462
1.78891
1.63953
1.52385
1.43444
1.35116
1.2834
1.21584
1.16189
1.11439
1.07523
1.03645
1.0042
0.976797
0.956311
0.939505
0.928773
0.920182
0.917935
0.917422
0.923085
0.930396
0.937089
0.932883
0.915428
0.876491
0.740151
1.59122
2.30711
2.68991
2.95359
3.16216
3.36929
3.53455
3.62457
2.10485
1.9192
1.73055
1.56942
1.45136
1.35517
1.27316
1.20236
1.14532
1.09953
1.05651
1.01836
0.982281
0.950035
0.919495
0.895845
0.876477
0.864067
0.854217
0.853153
0.85537
0.863386
0.876516
0.887018
0.883572
0.864995
0.824377
0.759318
1.67249
2.30195
2.70421
2.95584
3.15837
3.35706
3.52083
3.62227
2.10839
1.91749
1.71677
1.5489
1.42213
1.3231
1.23315
1.16504
1.11072
1.06556
1.0243
0.983428
0.947074
0.913575
0.884675
0.855896
0.834549
0.819569
0.813116
0.815388
0.821593
0.833409
0.852619
0.868023
0.867241
0.847638
0.807724
0.789354
1.65688
2.29958
2.72196
2.96304
3.14926
3.34316
3.51011
3.61692
2.11252
1.92168
1.72338
1.55425
1.42616
1.32538
1.23418
1.1634
1.10741
1.06138
1.01849
0.977288
0.939437
0.905635
0.875151
0.846665
0.826052
0.811486
0.804905
0.806765
0.813068
0.825152
0.844613
0.859278
0.858548
0.83956
0.79775
0.786243
1.6794
2.33224
2.71653
2.95608
3.1449
3.34001
3.50305
3.60641
2.11523
1.92312
1.73998
1.57582
1.45338
1.35193
1.26525
1.18892
1.12955
1.08151
1.03756
0.997233
0.959236
0.925444
0.895642
0.869324
0.848656
0.83516
0.824074
0.823389
0.826305
0.835505
0.85049
0.861843
0.859367
0.839851
0.801247
0.755001
1.62276
2.29711
2.72251
2.96343
3.14759
3.33496
3.49737
3.6037
2.11105
1.93049
1.76162
1.60627
1.49043
1.3931
1.31115
1.23456
1.16964
1.11917
1.07275
1.03286
0.995462
0.963444
0.933523
0.910787
0.893216
0.881765
0.873521
0.872268
0.873001
0.879883
0.888559
0.893668
0.885392
0.864545
0.827345
0.728714
1.58041
2.28929
2.70424
2.9635
3.15694
3.35134
3.51853
3.6143
2.11677
1.95201
1.7981
1.65404
1.5406
1.45092
1.36832
1.29781
1.23157
1.17162
1.12105
1.08018
1.04175
1.01045
0.982891
0.962773
0.946838
0.93688
0.930121
0.927763
0.927557
0.931621
0.936225
0.938672
0.930155
0.912781
0.87978
0.743491
1.62498
2.32154
2.73277
2.9839
3.17738
3.37544
3.54704
3.63431
2.12368
1.95818
1.82382
1.68974
1.58334
1.49509
1.41581
1.34608
1.28122
1.22461
1.17247
1.12758
1.09164
1.06411
1.04183
1.02522
1.0124
1.0031
0.996917
0.992859
0.991121
0.990297
0.991409
0.993186
0.982301
0.971169
0.948614
0.781037
1.66703
2.29279
2.74645
2.98741
3.17663
3.38862
3.56948
3.65778
2.14396
1.97569
1.85141
1.72181
1.61977
1.5326
1.45687
1.38644
1.32441
1.26836
1.21864
1.17413
1.14103
1.11276
1.09326
1.07552
1.06425
1.0528
1.04716
1.04054
1.03785
1.03399
1.03523
1.03435
1.00323
1.20729
1.32206
0.728191
1.42747
2.08999
2.59011
2.87081
3.09807
3.31329
3.51552
3.65073
2.17057
1.99011
1.8628
1.73255
1.63143
1.54606
1.47175
1.4029
1.34202
1.28599
1.2386
1.19476
1.16245
1.13394
1.11327
1.0934
1.08149
1.06852
1.06257
1.05462
1.0515
1.04711
1.04743
1.04606
1.01513
1.22111
1.33267
0.0389314
0.0507612
0.0610727
0.0691609
0.0757756
0.0813443
0.0860541
0.0900161
0.0933917
0.0963748
0.0991118
0.101889
0.104621
0.107633
0.110906
0.114609
0.118682
0.123286
0.128214
0.133656
0.139288
0.145216
0.151424
0.143513
0.000997274
0.000975135
0.000953005
0.000932037
0.000911898
0.000891947
0.000899022
0.00102332
0.00134709
0.00194271
0.00365252
0.00938297
0.0231977
0.0353192
0.0336417
0.0459958
0.0566765
0.0650991
0.0718937
0.0775808
0.0823638
0.086376
0.0897819
0.0927156
0.0955027
0.0980541
0.100728
0.103495
0.106633
0.110125
0.114042
0.118307
0.122982
0.12804
0.13348
0.139211
0.1452
0.151513
0.145381
0.206987
0.24685
0.000997612
0.000975204
0.000952858
0.000931878
0.000911995
0.000894559
0.0008753
0.000895426
0.00101665
0.00124778
0.00234273
0.00601851
0.0158613
0.0288455
0.030229
0.0419171
0.0517657
0.0594577
0.0657694
0.071044
0.0754676
0.0791649
0.0823066
0.0850117
0.0873093
0.0895539
0.091662
0.0939433
0.0964728
0.0993434
0.102584
0.106199
0.110273
0.114754
0.119826
0.125601
0.132284
0.139124
0.145426
0.149256
0.152526
0.0009975
0.0009755
0.000953514
0.000931999
0.000912175
0.000893973
0.000874255
0.000880628
0.000947652
0.00109762
0.00193657
0.00483586
0.0122383
0.0252796
0.0276546
0.0387984
0.0476189
0.0543546
0.0597964
0.0643167
0.0679446
0.0710377
0.0734053
0.0753713
0.0770956
0.0788521
0.0804597
0.08215
0.0839958
0.0861602
0.0886533
0.091633
0.095075
0.0990857
0.103754
0.109095
0.115285
0.121672
0.12725
0.130723
0.135912
0.000997452
0.00097524
0.000953346
0.000931988
0.000911673
0.000893589
0.000873312
0.000879167
0.000894547
0.00100159
0.00165939
0.00415374
0.0108371
0.0238346
0.0270136
0.0377478
0.0457963
0.0517323
0.0564374
0.0601491
0.0631186
0.065448
0.0673084
0.068948
0.0704262
0.0719446
0.0733202
0.0747616
0.0762243
0.0778843
0.0797663
0.0820425
0.0847227
0.0880053
0.0919201
0.0964525
0.101659
0.106869
0.111645
0.114971
0.119499
0.000997535
0.000975356
0.00095337
0.000932207
0.000911523
0.000891174
0.000875387
0.000873264
0.00089394
0.00102777
0.00174431
0.00432039
0.0113623
0.0248333
0.0274382
0.0381302
0.0459441
0.0515723
0.0558637
0.0591511
0.061614
0.0635196
0.0650474
0.06639
0.0676181
0.068842
0.069933
0.0710604
0.0722558
0.0734825
0.0749185
0.0766658
0.0789611
0.081894
0.0855413
0.0898287
0.0947847
0.0998754
0.104772
0.108568
0.112644
0.000997531
0.000975266
0.000953065
0.000932039
0.000911797
0.000890889
0.000874262
0.000870195
0.000905162
0.00104413
0.00176855
0.00423216
0.0109676
0.0247433
0.027566
0.038378
0.0463521
0.0520616
0.0563862
0.0596755
0.0621099
0.0639477
0.0653843
0.066609
0.067794
0.0688287
0.0698251
0.0708035
0.0718459
0.0729444
0.0742883
0.0759437
0.078127
0.0809358
0.0844312
0.0885503
0.0933297
0.0982494
0.103016
0.10649
0.110875
0.000997476
0.000975236
0.000953292
0.000932049
0.00091225
0.00089271
0.00087433
0.000873011
0.000893901
0.0010134
0.00170257
0.00412858
0.010589
0.024511
0.0274805
0.0383212
0.046558
0.0525602
0.0572347
0.0608182
0.0635802
0.0656191
0.0671742
0.0685108
0.0696881
0.0708884
0.0719402
0.0730462
0.0742282
0.0755431
0.0770665
0.078932
0.0811604
0.0839785
0.0874193
0.0914388
0.0960763
0.100828
0.105448
0.109026
0.113026
0.000997525
0.00097515
0.000953142
0.000932184
0.000911818
0.000893431
0.000873643
0.000869769
0.000905738
0.00104531
0.00174391
0.0040304
0.00997995
0.0229936
0.0266739
0.0376446
0.046191
0.052586
0.0577124
0.0617813
0.0650484
0.0675699
0.0694668
0.0710474
0.0725143
0.0738589
0.0752119
0.0765962
0.0780763
0.0798079
0.081839
0.0842918
0.0871958
0.0906475
0.0946586
0.0991508
0.104177
0.109171
0.113827
0.117607
0.121798
0.000997656
0.000975474
0.000953287
0.00093202
0.000912023
0.000892764
0.000872671
0.000867195
0.00087227
0.000975337
0.00156893
0.00375262
0.00947398
0.0224742
0.0266222
0.0378388
0.0468078
0.0537233
0.0593485
0.0640297
0.0678087
0.0709992
0.073511
0.0754651
0.0771856
0.0787897
0.0804302
0.0821046
0.0839779
0.0861835
0.0887845
0.0918718
0.0954716
0.0995791
0.104246
0.109379
0.11498
0.120604
0.126114
0.130102
0.137129
0.000997479
0.000975184
0.000953259
0.000931951
0.00091175
0.000893166
0.000873181
0.000869078
0.000877774
0.000993778
0.00164269
0.00396257
0.00999383
0.0229267
0.0267772
0.0380052
0.0473359
0.0546937
0.0608199
0.0659606
0.0702335
0.0738637
0.0768848
0.0794556
0.0816374
0.0838124
0.0858916
0.0882206
0.0908481
0.0939301
0.097491
0.10153
0.106078
0.111093
0.116621
0.12252
0.12884
0.135298
0.140926
0.146945
0.152983
0.00099762
0.000975321
0.000953299
0.000932297
0.00091172
0.00089228
0.000875123
0.000880081
0.000940975
0.00109333
0.0018517
0.004423
0.011217
0.0236115
0.0279358
0.0393466
0.0489764
0.0566612
0.0631603
0.0686654
0.0733724
0.0773689
0.0808528
0.0838906
0.0867179
0.0893406
0.0921326
0.0950351
0.0983945
0.102159
0.106452
0.111131
0.116376
0.122003
0.128176
0.134648
0.141621
0.148778
0.141614
0.196031
0.234639
0.000997414
0.000975379
0.000953075
0.000931812
0.000912656
0.000894409
0.00087924
0.000912184
0.00104416
0.00119816
0.00196714
0.00505559
0.0136137
0.0259655
0.0290777
0.040367
0.0500046
0.0577237
0.0643026
0.0699344
0.0748074
0.0789967
0.0826969
0.0859483
0.0890405
0.0919346
0.0950419
0.0982329
0.101888
0.10588
0.110401
0.11527
0.120718
0.126517
0.132894
0.13955
0.146518
0.154481
0.144403
0.208408
0.250577
0.000744412
0.000747877
0.000758481
0.000775941
0.00079947
0.000829331
0.000865337
0.00090738
0.000955281
0.00100929
0.00106977
0.00113763
0.00121345
0.00129912
0.0013962
0.00150726
0.00163451
0.00178138
0.00194997
0.00214443
0.00236631
0.00261679
0.0028848
0.00288864
0.000997101
0.000974368
0.00095184
0.000930118
0.00090938
0.000889659
0.00087082
0.000852814
0.00083564
0.000819202
0.000803426
0.000788289
0.000773721
0.000758791
0.00074273
0.000743741
0.00075146
0.000766103
0.000786661
0.000813228
0.000845839
0.000884188
0.000928271
0.000977911
0.00103384
0.0010961
0.00116594
0.00124414
0.0013331
0.00143434
0.00155087
0.00168442
0.00183834
0.00201473
0.00221797
0.00245107
0.00272502
0.00300841
0.00289622
0.00470949
0.00566028
0.000997253
0.000974276
0.000951968
0.000930359
0.000909658
0.000889908
0.000871014
0.000853017
0.000835842
0.000819369
0.000803546
0.000788366
0.000773833
0.000758235
0.000741548
0.000740734
0.0007458
0.000756483
0.000772528
0.000793672
0.000819904
0.000851114
0.000887041
0.000927797
0.000973069
0.00102353
0.00107916
0.0011414
0.00121118
0.00129069
0.0013813
0.00148581
0.00160628
0.00174618
0.0019099
0.00210586
0.00234727
0.0026411
0.00292421
0.00319902
0.00341381
0.000997512
0.000974516
0.000952222
0.000930651
0.000909969
0.000890222
0.000871321
0.000853277
0.000836054
0.000819564
0.000803749
0.000788564
0.000773986
0.000757745
0.000740601
0.000738436
0.000741457
0.000748844
0.000760759
0.000776674
0.000796228
0.000819587
0.000846184
0.000875958
0.000908882
0.000945518
0.00098585
0.00103071
0.00108077
0.00113753
0.00120222
0.00127726
0.00136473
0.00146807
0.00159116
0.00173987
0.00192109
0.00213487
0.00235407
0.00257798
0.00279801
0.000997598
0.000974619
0.000952335
0.000930771
0.000910096
0.000890336
0.000871418
0.000853341
0.000836061
0.000819593
0.00080384
0.000788694
0.000774111
0.000757653
0.000740379
0.000737739
0.000739787
0.00074567
0.000755197
0.000767696
0.000783204
0.000801514
0.00082223
0.000845512
0.000871334
0.000900247
0.000932141
0.000967789
0.00100737
0.00105197
0.00110225
0.00116003
0.00122672
0.00130521
0.00139803
0.00150818
0.00163848
0.00178596
0.00194399
0.00211723
0.00229142
0.000997562
0.000974578
0.000952304
0.000930747
0.000910076
0.000890333
0.000871411
0.000853323
0.000836098
0.000819623
0.000803824
0.000788657
0.00077407
0.000757722
0.00074051
0.000738076
0.000740226
0.000746027
0.000755265
0.000766896
0.000780935
0.000797287
0.000815664
0.000836192
0.00085891
0.000884209
0.000911995
0.000942852
0.00097704
0.00101509
0.00105758
0.0011059
0.0011617
0.00122747
0.00130549
0.00139775
0.00150614
0.00162983
0.00176991
0.00192649
0.00208651
0.000997568
0.000974578
0.000952291
0.000930722
0.000910051
0.00089032
0.000871391
0.000853308
0.000836087
0.000819568
0.000803727
0.000788541
0.000773984
0.000757722
0.000740516
0.000738258
0.000740752
0.000747002
0.00075648
0.0007686
0.000783228
0.000800016
0.000818659
0.000839267
0.00086199
0.000887014
0.000914394
0.000944618
0.000977881
0.00101479
0.00105597
0.00110274
0.00115663
0.00121995
0.00129468
0.00138254
0.0014855
0.00160381
0.00173883
0.00189074
0.00204506
0.000997575
0.000974587
0.000952298
0.000930728
0.00091005
0.000890302
0.000871384
0.000853319
0.000836074
0.000819556
0.000803728
0.00078853
0.000773943
0.000757647
0.000740424
0.000738119
0.000740711
0.00074725
0.000757676
0.000770744
0.000786578
0.000804877
0.000825222
0.000847713
0.000872335
0.000899539
0.000929226
0.000962048
0.000998306
0.00103882
0.00108414
0.00113571
0.00119463
0.00126327
0.00134348
0.00143708
0.00154624
0.00167114
0.00181336
0.00197187
0.00213374
0.000997603
0.000974618
0.000952329
0.000930752
0.00091006
0.000890295
0.000871373
0.000853312
0.000836108
0.000819618
0.000803787
0.00078858
0.000774006
0.000757484
0.000740124
0.000737466
0.000739817
0.000746259
0.000756756
0.000770862
0.000788105
0.000808273
0.000830879
0.000855964
0.000883635
0.0009142
0.000947851
0.00098527
0.00102687
0.00107388
0.00112718
0.00118872
0.00125999
0.00134354
0.00144141
0.00155553
0.00168814
0.00183985
0.00201096
0.0022002
0.00239002
0.000997563
0.000974578
0.00095229
0.000930715
0.000910031
0.000890272
0.000871367
0.000853319
0.00083608
0.000819609
0.000803789
0.000788591
0.000774034
0.000757472
0.000740101
0.000737458
0.000740059
0.000747101
0.00075865
0.000774286
0.000793893
0.000817426
0.000844379
0.000874416
0.000907519
0.000944066
0.00098438
0.0010292
0.00107939
0.00113647
0.00120192
0.00127805
0.00136699
0.00147139
0.00159384
0.00173702
0.00190392
0.00209747
0.00231736
0.0025686
0.00281168
0.00099757
0.000974603
0.000952315
0.000930722
0.000910016
0.000890238
0.000871319
0.000853258
0.000836025
0.000819565
0.000803764
0.000788601
0.000774047
0.000757455
0.000740078
0.000737488
0.000740323
0.000747958
0.000760618
0.000777797
0.000799533
0.000825856
0.000856424
0.000891274
0.000930167
0.000973825
0.00102236
0.0010773
0.00113978
0.00121205
0.00129623
0.0013951
0.00151102
0.00164712
0.00180663
0.00199253
0.00220827
0.0024564
0.00273137
0.00305745
0.00336379
0.00099751
0.000974617
0.000952306
0.000930663
0.000909931
0.000890152
0.000871224
0.000853181
0.000835998
0.000819498
0.000803687
0.000788562
0.000774002
0.00075763
0.000740377
0.000738302
0.00074191
0.000750706
0.000764962
0.000784256
0.00080886
0.000838635
0.000873654
0.00091389
0.000959746
0.0010115
0.00107025
0.00113705
0.00121411
0.00130359
0.00140841
0.00153097
0.00167495
0.00184307
0.0020398
0.00226843
0.00253444
0.00283995
0.00274517
0.00445416
0.00540653
0.000997533
0.000974976
0.000952359
0.000930603
0.000909826
0.000890051
0.000871174
0.000853155
0.000835964
0.000819481
0.00080369
0.000788564
0.000773991
0.000757833
0.000740551
0.000738852
0.000742799
0.000752021
0.000766824
0.000786887
0.000812601
0.000843848
0.000880854
0.000923548
0.000972609
0.00102827
0.00109197
0.00116454
0.00124876
0.00134634
0.00146071
0.00159389
0.00175025
0.00193203
0.00214522
0.00239125
0.00267802
0.00300783
0.00288251
0.00475044
0.00573122
0.000737948
0.000727119
0.000713211
0.000703674
0.000686826
0.000676652
0.000666855
0.000657179
0.000647771
0.000638366
0.0006291
0.000619799
0.000610659
0.000601495
0.000592479
0.000583458
0.000574617
0.000565819
0.000557239
0.000548749
0.000540525
0.000532528
0.000525245
0.000518009
0.000997461
0.000974821
0.00095235
0.00093065
0.000909872
0.000890029
0.000871072
0.000852934
0.000835568
0.000818936
0.000802994
0.000787713
0.000773007
0.000755635
0.000737859
0.000729003
0.000712635
0.000704977
0.00068881
0.000676759
0.000666869
0.000657307
0.000647831
0.000638558
0.000629261
0.000620073
0.000610892
0.000601831
0.000592776
0.000583836
0.000574944
0.000566209
0.00055757
0.000549125
0.000540823
0.000532749
0.000524832
0.000516986
0.000510748
0.000507517
0.000500771
0.000997641
0.000974663
0.000952404
0.000930835
0.000910061
0.000890157
0.000871121
0.000852925
0.000835518
0.000818846
0.000802867
0.000787539
0.000772817
0.000756108
0.000738891
0.000727828
0.00071379
0.000703762
0.000691201
0.00067668
0.000666787
0.000657172
0.000647669
0.000638336
0.000629
0.000619752
0.000610522
0.000601405
0.000592299
0.000583312
0.000574363
0.000565582
0.000556877
0.000548376
0.00053999
0.00053183
0.000523781
0.000515916
0.000508291
0.000500959
0.000494491
0.000997398
0.0009743
0.000952008
0.000930492
0.000909734
0.000889824
0.000870775
0.00085257
0.000835164
0.000818502
0.000802534
0.000787218
0.000772517
0.000756626
0.000739941
0.00072644
0.000715343
0.000701962
0.000691701
0.000679346
0.000666711
0.000656773
0.000647086
0.000637728
0.000628391
0.000619245
0.000610095
0.000601103
0.000592077
0.000583183
0.000574284
0.000565552
0.000556859
0.000548358
0.000539932
0.000531705
0.000523567
0.000515636
0.000507889
0.000500506
0.000494068
0.000997294
0.000974165
0.000951857
0.000930346
0.000909601
0.000889705
0.00087068
0.000852496
0.000835094
0.000818419
0.000802441
0.00078713
0.000772458
0.000756622
0.000739865
0.000726719
0.000714711
0.000702758
0.00069328
0.000676305
0.000665325
0.000656246
0.000647088
0.000637977
0.000628722
0.00061952
0.000610272
0.000601141
0.00059199
0.000582976