/*--------------------------------*- C++ -*----------------------------------*\
  =========                 |
  \\      /  F ield         | OpenFOAM: The Open Source CFD Toolbox
   \\    /   O peration     | Website:  https://openfoam.org
    \\  /    A nd           | Version:  7
     \\/     M anipulation  |
\*---------------------------------------------------------------------------*/
FoamFile
{
    version     2.0;
    format      ascii;
    class       volScalarField;
    location    "700";
    object      nut;
}
// * * * * * * * * * * * * * * * * * * * * * * * * * * * * * * * * * * * * * //

dimensions      [0 2 -1 0 0 0 0];

internalField   nonuniform List<scalar> 
120313
(
0.00162473
0.00194323
0.00204906
0.00211501
0.0021456
0.00215808
0.00216185
0.00215737
0.00214507
0.00212187
0.00208787
0.00205279
0.00201427
0.00196722
0.00192671
0.0018921
0.00186038
0.0018269
0.00179235
0.00175747
0.0017186
0.00167026
0.00159933
0.00133927
0.00187695
0.00252499
0.00269801
0.00280834
0.00285901
0.00288279
0.00289379
0.00288575
0.00286247
0.00283714
0.00280201
0.00275465
0.00270479
0.00265006
0.00260007
0.0025505
0.00250557
0.00245834
0.00240984
0.00235949
0.00230255
0.00222032
0.00208768
0.00156433
0.00189241
0.0025676
0.00276602
0.00288783
0.00294665
0.00297499
0.00298952
0.00298838
0.0029675
0.00293889
0.0029018
0.00285156
0.00279725
0.00274387
0.0026887
0.00263907
0.00259122
0.00254324
0.00249213
0.00244015
0.00237823
0.00228627
0.00212709
0.00158157
0.00189394
0.00257845
0.00278478
0.00291246
0.00297448
0.00300551
0.00302288
0.00302535
0.00300551
0.0029762
0.00293672
0.00288574
0.00282998
0.00277618
0.00272061
0.00267043
0.00262159
0.00257263
0.00252091
0.00246814
0.00240455
0.00230909
0.00214215
0.00158903
0.00189135
0.00257479
0.00278106
0.00290887
0.00297095
0.00300235
0.00302024
0.00302282
0.00300345
0.0029744
0.00293479
0.00288429
0.00282853
0.00277487
0.00271986
0.0026696
0.002621
0.00257216
0.00252072
0.00246804
0.0024045
0.00230896
0.00214135
0.00158869
0.00188419
0.00255668
0.00275506
0.00287803
0.00293741
0.00296687
0.00298293
0.00298268
0.00296371
0.00293529
0.0028983
0.0028483
0.00279432
0.00274153
0.00268798
0.00263881
0.00259114
0.00254309
0.00249213
0.00244003
0.0023781
0.00228596
0.00212467
0.00158036
0.00186332
0.00250767
0.00268162
0.00279438
0.00284689
0.00287228
0.00288454
0.00287799
0.00285891
0.00283402
0.00279913
0.0027501
0.0027
0.00264886
0.00259844
0.00255113
0.00250556
0.0024588
0.0024093
0.00235907
0.00230153
0.00221918
0.0020848
0.00156202
0.00160934
0.00193194
0.00204158
0.00211336
0.00214551
0.00216036
0.00216584
0.0021615
0.00215009
0.00212634
0.00209339
0.00205781
0.00201849
0.00197222
0.00193405
0.00190065
0.00186831
0.00183371
0.00179856
0.00176266
0.00172368
0.00167501
0.00159856
0.00133479
0.00130155
0.00240961
0.00337236
0.00426752
0.00511178
0.00588744
0.00652858
0.00695855
0.00825765
0.00876013
0.00985052
0.0107271
0.0113858
0.0117385
0.0119422
0.0120387
0.0120748
0.0120689
0.0120261
0.0120113
0.0119471
0.0118429
0.011671
0.0114681
0.0112268
0.0109496
0.0106578
0.01035
0.0100604
0.00978505
0.0094882
0.00924263
0.00896796
0.00873311
0.00859553
0.00848368
0.00127999
0.00237013
0.00332002
0.00419635
0.00500654
0.00572629
0.00627735
0.00652576
0.00731407
0.0115852
0.0140482
0.0153465
0.0161635
0.0165719
0.0167535
0.0167947
0.0167496
0.016643
0.0164874
0.0164359
0.0163412
0.0161638
0.0158959
0.0156021
0.0152772
0.014936
0.0145793
0.0142201
0.0138629
0.0135174
0.0131384
0.0129489
0.0116726
0.0114241
0.00882022
0.00823831
0.00122216
0.00232952
0.00328361
0.00415253
0.00494388
0.0056271
0.00611445
0.00621545
0.00659798
0.0106592
0.0138984
0.0153662
0.0164669
0.0168415
0.016941
0.016917
0.0168171
0.0166956
0.0167063
0.0166129
0.0164451
0.016177
0.0159216
0.0156254
0.0153018
0.0149657
0.0146241
0.0142803
0.0139366
0.0136009
0.0132157
0.0130134
0.0111141
0.0107192
0.00843099
0.00799113
0.00118545
0.00230999
0.0032633
0.00412319
0.00489534
0.00554209
0.0059717
0.00598523
0.00621782
0.0102242
0.0137194
0.0153554
0.0162495
0.0166572
0.0167628
0.016707
0.0165591
0.0166285
0.0165756
0.0164596
0.0162641
0.0160085
0.0157229
0.0154192
0.0150976
0.0147657
0.0144367
0.0141116
0.0137935
0.0134828
0.0131286
0.0128766
0.0108899
0.0103811
0.00825452
0.0078482
0.00123022
0.00232505
0.00326304
0.00410798
0.00486202
0.00548318
0.0058849
0.00587535
0.0060772
0.0100714
0.0136209
0.0152912
0.016135
0.016522
0.0166166
0.0165466
0.0164771
0.0165584
0.0164607
0.0163311
0.0161191
0.0158575
0.0155637
0.0152555
0.0149284
0.0146024
0.0142853
0.0139835
0.0136872
0.0133998
0.0130747
0.012812
0.0108503
0.0102823
0.00818482
0.0078063
0.00125875
0.0023332
0.00326175
0.00409964
0.0048475
0.0054617
0.00585708
0.00584443
0.006048
0.0100525
0.0135965
0.0152705
0.0161147
0.0164972
0.0165899
0.016519
0.0164487
0.0165308
0.0164308
0.016298
0.0160809
0.0158157
0.0155187
0.0152088
0.0148819
0.0145638
0.0142511
0.0139517
0.0136562
0.0133709
0.0130495
0.0127869
0.0108328
0.0102916
0.00817228
0.00780236
0.00123818
0.00231259
0.00324435
0.00409115
0.00485167
0.00548254
0.00589165
0.00588618
0.00611575
0.0101767
0.0136574
0.0152973
0.0161981
0.0165912
0.0166877
0.0166253
0.0164822
0.0165668
0.0164975
0.0163722
0.0161583
0.0158985
0.0156092
0.015303
0.0149828
0.0146567
0.0143328
0.0140143
0.0137019
0.0133999
0.0130575
0.0128076
0.0108333
0.010436
0.00818718
0.00781791
0.00118635
0.00227694
0.00321958
0.00408499
0.00487285
0.00554385
0.00599699
0.0060316
0.00636972
0.0106226
0.0138386
0.0153007
0.016437
0.0167769
0.0168538
0.016798
0.016653
0.0166282
0.016631
0.0165137
0.0162794
0.0160529
0.0157848
0.0154821
0.0151616
0.0148295
0.0144929
0.0141542
0.0138186
0.0134922
0.0131191
0.0129117
0.0110323
0.0107844
0.00828598
0.00789348
0.00117431
0.00225656
0.0031988
0.00407803
0.00489521
0.00562143
0.00616001
0.0063329
0.00702726
0.01165
0.0141023
0.0153103
0.0163834
0.0166819
0.01677
0.0167659
0.0166622
0.0165167
0.01648
0.016433
0.0162609
0.01607
0.015807
0.0155108
0.0151882
0.0148471
0.0144967
0.0141464
0.0138
0.0134637
0.0130972
0.0128828
0.0116143
0.0115517
0.00873307
0.00815163
0.00118833
0.00225082
0.00319403
0.00408246
0.00492225
0.00569245
0.0063121
0.00663764
0.00786423
0.0127302
0.014017
0.0151412
0.01594
0.0162983
0.0164715
0.0165196
0.016475
0.0163708
0.016202
0.0161645
0.0160857
0.015922
0.0156741
0.0153935
0.0150822
0.0147378
0.0143758
0.0140204
0.0136686
0.0133304
0.0129769
0.0127069
0.0120984
0.0123302
0.00917964
0.00842609
0.00117972
0.00224084
0.00319953
0.00410969
0.00497563
0.00577571
0.00643068
0.00681993
0.00812444
0.00849397
0.00939333
0.0102954
0.0109258
0.0112637
0.011463
0.011561
0.0116064
0.0115913
0.0115505
0.0115365
0.0115117
0.0114069
0.0112339
0.0110456
0.0108053
0.0105405
0.0102499
0.00995961
0.00967877
0.00941097
0.00914683
0.00889986
0.00862925
0.00845462
0.00844856
0.00843459
0.00109011
0.00222321
0.00322352
0.00417254
0.00509173
0.00597724
0.00676987
0.00741673
0.00877954
0.00923248
0.010232
0.0111181
0.01179
0.0121417
0.0123447
0.0124339
0.0124737
0.0124556
0.0124646
0.0124726
0.0124574
0.0123513
0.0121643
0.0119564
0.0116937
0.011407
0.0111007
0.0107944
0.0104927
0.0102031
0.00991455
0.0096361
0.00936841
0.00915668
0.00900369
0.00882306
0.015447
0.0167781
0.0178753
0.0184978
0.0188374
0.0189958
0.0190631
0.0191235
0.019267
0.0194762
0.0195338
0.0193793
0.0192802
0.0190679
0.0187819
0.0184955
0.0181833
0.0178126
0.0174696
0.0170737
0.0167272
0.0163434
0.0159602
0.0157641
0.00232617
0.00393599
0.00537757
0.00672409
0.00800803
0.00927748
0.0105675
0.0119355
0.0135395
0.0154744
0.0166055
0.0177967
0.0183169
0.018621
0.0187573
0.0187605
0.018799
0.0189192
0.0191077
0.019335
0.0193336
0.0192659
0.0188678
0.0186383
0.0183259
0.0180201
0.0176391
0.0172933
0.0169021
0.0165596
0.0161832
0.0158556
0.0154909
0.0153605
0.0148091
0.0144128
0.00225343
0.00385571
0.00530191
0.00663617
0.0078978
0.00914422
0.0104146
0.0117519
0.0133448
0.0151075
0.0161965
0.0174502
0.0179426
0.0182255
0.0183335
0.0183226
0.0183744
0.0185143
0.018779
0.0190015
0.0189885
0.0188333
0.0185825
0.0183314
0.0179852
0.0176671
0.017288
0.0169523
0.016577
0.0162532
0.0158866
0.0156339
0.01523
0.0149524
0.0146758
0.0143227
0.00216252
0.00377539
0.00522193
0.00654453
0.00778425
0.00899754
0.0102213
0.0114815
0.0129362
0.0145942
0.0158001
0.016927
0.0175139
0.0178446
0.0179723
0.0180237
0.0181767
0.0185042
0.0187485
0.0187533
0.0186523
0.0184766
0.0182058
0.0179343
0.0176109
0.0172901
0.0169382
0.0166097
0.0162598
0.0159577
0.015611
0.0154171
0.0150046
0.0146771
0.0144133
0.0140834
0.00209972
0.00373027
0.00516762
0.00647496
0.00769165
0.00886981
0.0100417
0.0112141
0.0125611
0.0142594
0.0155324
0.0166093
0.017172
0.0175505
0.0177223
0.0178326
0.0181362
0.0185143
0.0185275
0.0185041
0.0183616
0.0181442
0.0178753
0.0175862
0.0172756
0.0169514
0.0166276
0.0163111
0.0160051
0.0157285
0.0154198
0.0152533
0.0148658
0.014529
0.0142779
0.0139801
0.00213932
0.00373384
0.00514568
0.00643437
0.00763202
0.0087873
0.00992795
0.0110533
0.0123632
0.014103
0.0153891
0.0164492
0.0170017
0.0173936
0.0175932
0.017753
0.0180986
0.0184454
0.0183477
0.0183182
0.0181537
0.0179203
0.0176391
0.0173438
0.0170087
0.0167122
0.0164043
0.0161538
0.015876
0.0156555
0.015382
0.0152499
0.0148794
0.01454
0.014293
0.0140171
0.0021729
0.0037381
0.00513312
0.0064123
0.0076035
0.00875266
0.009886
0.0110002
0.0123114
0.0140841
0.0153602
0.0164296
0.0169847
0.0173697
0.0175635
0.0177204
0.0180671
0.018417
0.0183125
0.0182786
0.0181079
0.0178674
0.0175772
0.0172816
0.0169452
0.0166758
0.0163738
0.0161227
0.0158431
0.0156231
0.0153523
0.0152276
0.014861
0.0145285
0.0142879
0.0140217
0.00214677
0.00371013
0.00510976
0.00639668
0.00759898
0.00876156
0.00991271
0.0110494
0.0123944
0.0142021
0.0154564
0.0165489
0.0171119
0.0174748
0.0176394
0.0177498
0.0180611
0.0184627
0.0184198
0.018393
0.0182335
0.0180002
0.0177277
0.0174343
0.0171243
0.0168095
0.0164934
0.016188
0.0158913
0.015626
0.0153334
0.0151802
0.0148039
0.0144863
0.0142609
0.0139811
0.00208877
0.00366855
0.00508562
0.00639285
0.0076212
0.00881817
0.0100164
0.0112195
0.0126626
0.0145043
0.0157094
0.0168141
0.0173915
0.0177091
0.0178412
0.017913
0.0181286
0.0184911
0.0186302
0.0186288
0.0184803
0.0182881
0.0180296
0.0177422
0.0174331
0.0171082
0.0167775
0.0164492
0.0161185
0.0158219
0.0154869
0.0153031
0.0149017
0.0145902
0.0143534
0.0140461
0.00207556
0.00365138
0.00507911
0.0064076
0.0076693
0.00891592
0.0101895
0.0115127
0.0131397
0.0150092
0.0161136
0.0172495
0.017782
0.0180461
0.0181579
0.0181703
0.0182638
0.0185088
0.0187886
0.0189079
0.0188239
0.0186683
0.0183901
0.0181211
0.0177812
0.0174622
0.0170962
0.0167668
0.0164063
0.0160988
0.0157476
0.0155249
0.0151306
0.0148374
0.0145929
0.0142636
0.00210392
0.00365709
0.00509344
0.0064421
0.0077345
0.00902666
0.0103696
0.0118115
0.0136004
0.0154842
0.0164818
0.0176401
0.0181123
0.0183743
0.0184963
0.0184882
0.0185331
0.018663
0.0189131
0.0191566
0.0191877
0.0190063
0.0187666
0.0185248
0.0181792
0.0178567
0.0174686
0.0171256
0.0167428
0.0164143
0.0160404
0.0157569
0.0153785
0.0151209
0.0148662
0.0145119
0.0021038
0.00365734
0.00511087
0.00648492
0.00780643
0.00912643
0.0104965
0.0119652
0.013698
0.015592
0.0166371
0.0178394
0.0183444
0.0186394
0.0187954
0.0188272
0.0188953
0.0190522
0.0192607
0.0195309
0.0194799
0.0192943
0.0190392
0.0187898
0.0184316
0.0181029
0.0177045
0.0173536
0.0169596
0.0166187
0.016239
0.015928
0.015536
0.0153932
0.0148371
0.014469
0.00204758
0.00364575
0.00512216
0.00652354
0.00787469
0.009215
0.0105856
0.0120181
0.0136667
0.0154562
0.016473
0.0177237
0.0182266
0.0185062
0.0186391
0.0187311
0.018867
0.0191134
0.019377
0.0196328
0.0194021
0.0192826
0.0190105
0.0187453
0.0183781
0.0180467
0.0176485
0.0173025
0.0169093
0.0165721
0.0161934
0.0158848
0.0154719
0.0153638
0.0148625
0.0144826
0.0113105
0.0128666
0.0146635
0.0152389
0.0155412
0.0156339
0.0156122
0.0155107
0.0153694
0.0152271
0.0151348
0.0151107
0.0148092
0.0148057
0.0144508
0.0144133
0.01428
0.0138517
0.0138793
0.0134106
0.0134816
0.0129838
0.0129659
0.0128905
0.00252203
0.00361456
0.00458213
0.00564361
0.00666114
0.00771181
0.0088425
0.0100974
0.0109421
0.01141
0.0127606
0.014942
0.0154931
0.015797
0.0158776
0.0158628
0.0157589
0.0156112
0.0154521
0.015316
0.0152279
0.0151305
0.0149402
0.014897
0.0144797
0.014523
0.0139394
0.0140117
0.0134953
0.0135928
0.0130892
0.0131516
0.012602
0.0129167
0.0130097
0.0131485
0.00244569
0.00352812
0.0044804
0.00549892
0.00650129
0.00754023
0.00868584
0.00998884
0.0109392
0.0112852
0.0126074
0.0146909
0.0152005
0.0154943
0.0156049
0.015596
0.015496
0.0153582
0.0152362
0.0151184
0.0150241
0.0149786
0.0146572
0.0146865
0.0140872
0.0141463
0.0136053
0.0136892
0.013207
0.013315
0.0128954
0.0129976
0.0125674
0.0126052
0.0122372
0.0121223
0.00236408
0.0034547
0.00440147
0.00541931
0.00639966
0.00740362
0.00852746
0.00984318
0.0108289
0.0109808
0.0126295
0.0140773
0.0146559
0.0149428
0.0150475
0.0150158
0.0149254
0.0148472
0.0147697
0.0147512
0.0144781
0.0144881
0.01411
0.0140824
0.0137461
0.0136804
0.0133252
0.0132888
0.0129098
0.0129531
0.0125926
0.0127473
0.0123968
0.0124743
0.0119476
0.011723
0.00230216
0.00341649
0.00434674
0.00534721
0.00631742
0.0072964
0.00839491
0.00969345
0.0106806
0.0107377
0.0125246
0.0136781
0.0141989
0.0144565
0.0145196
0.0144646
0.0143719
0.0143514
0.0142616
0.0142435
0.0140266
0.0138582
0.0136737
0.0135252
0.0133511
0.0131803
0.0130104
0.0128588
0.012726
0.0126595
0.0124276
0.0125511
0.0123004
0.0124024
0.0118035
0.0115259
0.00232329
0.00338808
0.00430329
0.00529872
0.00625265
0.00721955
0.00831553
0.0096026
0.0105841
0.0106243
0.0124244
0.0134999
0.0140025
0.0141958
0.0142316
0.0141528
0.014069
0.0140729
0.0139601
0.0138914
0.013647
0.0134547
0.0132478
0.0131214
0.0128107
0.01292
0.0126659
0.0129111
0.0126601
0.0129036
0.0126168
0.0128368
0.012548
0.0126163
0.0119538
0.0116352
0.00234803
0.00337927
0.00427998
0.00526302
0.00620851
0.00717616
0.00827552
0.009562
0.0105413
0.0106139
0.0123848
0.0134871
0.0139984
0.0141846
0.0142116
0.0141237
0.0140335
0.0140371
0.0139089
0.0138333
0.0135772
0.013366
0.0131137
0.0130304
0.0126978
0.0129781
0.0126851
0.0129023
0.0126365
0.012872
0.0125918
0.0128486
0.0125525
0.0126132
0.0119482
0.011629
0.00232636
0.00335692
0.00425516
0.00523396
0.00618979
0.00716488
0.00826678
0.00956129
0.0105549
0.0106947
0.0124265
0.0136273
0.0141615
0.0143833
0.014422
0.014341
0.014223
0.0142085
0.0141122
0.0140556
0.0138196
0.0136053
0.013431
0.0132744
0.0131029
0.0129779
0.012811
0.0127018
0.0125919
0.0125301
0.0123561
0.0124659
0.0122425
0.0123528
0.0117555
0.0114763
0.00228433
0.00333697
0.0042456
0.005235
0.00619725
0.00718284
0.00830252
0.00962167
0.0106469
0.010877
0.0125587
0.0139508
0.0144849
0.0147478
0.0148117
0.0147531
0.0146505
0.0145516
0.0144631
0.014475
0.0141619
0.0141064
0.0139055
0.0137403
0.0135589
0.0133831
0.0131999
0.01304
0.0128158
0.0127677
0.0124538
0.0125877
0.0122817
0.0123718
0.0117804
0.0115195
0.00227536
0.00334016
0.0042538
0.00524079
0.006236
0.00724401
0.00838818
0.00974355
0.0108081
0.0111237
0.0127445
0.014392
0.0149338
0.0151796
0.0152819
0.0152447
0.0151359
0.0150381
0.0149257
0.0148864
0.0146896
0.0147253
0.0142293
0.0142619
0.0138022
0.0138189
0.0133713
0.0134205
0.0129948
0.0130966
0.0127239
0.0128674
0.0124635
0.0125139
0.0120859
0.0119132
0.00230149
0.00334263
0.00426482
0.00526466
0.00628178
0.0073209
0.00849385
0.00986336
0.0109185
0.011283
0.0128408
0.0147224
0.0152525
0.0155057
0.0156195
0.0156124
0.0155163
0.015399
0.0152871
0.0151793
0.0150969
0.0150587
0.0147616
0.0148129
0.014212
0.0142727
0.0137308
0.0138282
0.0133538
0.0134742
0.013018
0.0130704
0.0128015
0.0126722
0.0125396
0.0123659
0.00230436
0.00333587
0.00428575
0.00532829
0.00634168
0.00740554
0.00858589
0.00991696
0.010882
0.0113044
0.0127047
0.0148877
0.0153802
0.0156554
0.0157804
0.0157861
0.0156974
0.0155692
0.0154528
0.0153514
0.0152834
0.0152481
0.0149399
0.014997
0.0143896
0.0144676
0.0139196
0.0140265
0.013535
0.0136497
0.0131659
0.0132028
0.0129209
0.0129053
0.0130679
0.0131824
0.00228439
0.00337552
0.00435715
0.00542724
0.00646067
0.00752233
0.00867573
0.00994212
0.0107875
0.0112484
0.0124813
0.0148385
0.0153392
0.0156305
0.0157648
0.0157712
0.0156862
0.0155607
0.0154452
0.0153936
0.0152665
0.0152871
0.0148023
0.0148579
0.0142843
0.0143735
0.0138392
0.0139583
0.0134736
0.0136096
0.0131035
0.0132078
0.0126981
0.0127412
0.0129284
0.0131562
0.00402952
0.00408705
0.00421818
0.00423726
0.00434083
0.00446363
0.00455609
0.00461902
0.00466382
0.0046953
0.00472337
0.00476073
0.00480515
0.00488334
0.0049579
0.0050652
0.00516461
0.00529981
0.00539822
0.00554324
0.00562688
0.00580741
0.0058925
0.00603706
0.00153761
0.00196636
0.00259863
0.00316901
0.00369324
0.00428501
0.00494852
0.00558265
0.00599029
0.00407115
0.00408987
0.00422561
0.00423455
0.00430358
0.00441973
0.00451073
0.00457228
0.0046176
0.00464801
0.00467801
0.00469323
0.0047374
0.00480343
0.00489219
0.00499361
0.00509745
0.0052064
0.00531035
0.0054355
0.00554139
0.00569571
0.0058775
0.0059895
0.00612608
0.00741678
0.00813939
0.00154264
0.00198742
0.00265304
0.00320474
0.00372523
0.00430858
0.00498028
0.00558125
0.00598273
0.00393845
0.00395365
0.00404544
0.00404094
0.00414005
0.00424521
0.0043344
0.00438359
0.0044392
0.00444705
0.00443244
0.00442423
0.00444901
0.00449825
0.00457451
0.00466649
0.00477599
0.00487843
0.00500709
0.00511584
0.00526757
0.00542988
0.00563957
0.00580118
0.00598759
0.00602987
0.00614415
0.00149023
0.00193247
0.00254886
0.0030967
0.00363361
0.00421793
0.0048645
0.0054588
0.00584701
0.00378875
0.00382448
0.00382184
0.0038073
0.0038974
0.00399788
0.00404679
0.00411838
0.00408569
0.00407097
0.00405921
0.00407718
0.00407262
0.00409637
0.00413965
0.00422047
0.00431548
0.00445543
0.00458569
0.00474931
0.00490991
0.00510158
0.0053126
0.00547867
0.00566422
0.00568685
0.0057182
0.00137182
0.00183352
0.00252868
0.00302991
0.00356626
0.00412375
0.00477985
0.00536945
0.00576621
0.00371734
0.00374387
0.00367286
0.00363381
0.00371079
0.00376743
0.00382884
0.00383665
0.00383743
0.0038499
0.00384967
0.00386135
0.00386394
0.00387542
0.00388219
0.00392625
0.00399113
0.00409905
0.00422225
0.00439703
0.00457194
0.00477021
0.0050134
0.00519716
0.00538009
0.00539161
0.0053975
0.00143623
0.00189478
0.00252335
0.00306108
0.00357074
0.00413195
0.00477386
0.00535913
0.005766
0.00372514
0.00373945
0.00363522
0.0035784
0.0036275
0.00367098
0.003703
0.00371378
0.0037203
0.00373116
0.00373659
0.00372757
0.00372511
0.0037237
0.00373077
0.00373316
0.00376836
0.00386635
0.00400898
0.00421644
0.00442336
0.00464444
0.00493488
0.0051562
0.00535459
0.00534756
0.00535331
0.00145759
0.00190128
0.00253066
0.00308081
0.00358056
0.00411898
0.00475172
0.00533856
0.00572933
0.00373468
0.00374727
0.00365267
0.00358918
0.00363602
0.00367579
0.00370362
0.00370766
0.00370965
0.00371715
0.00371811
0.00370608
0.00369571
0.0036923
0.00368576
0.00369433
0.00373956
0.00383893
0.00397663
0.00417935
0.0043862
0.00460892
0.00490012
0.00511396
0.00531148
0.00531137
0.00529161
0.00141268
0.00193753
0.00254851
0.00306511
0.00356532
0.00410232
0.00473835
0.00531519
0.00570482
0.00373968
0.00375043
0.00369743
0.00364423
0.00371152
0.00375363
0.00380007
0.00379038
0.00378455
0.00378899
0.00378621
0.00378595
0.0037777
0.00377847
0.00378853
0.00380832
0.0038558
0.00395179
0.00405523
0.00423734
0.00441647
0.0046205
0.00487613
0.00506786
0.00526005
0.00525655
0.00527736
0.00144606
0.00186891
0.00252041
0.00307373
0.00356928
0.00410405
0.00471924
0.0052942
0.00571011
0.00373431
0.00377051
0.00375481
0.00372447
0.00381389
0.00387718
0.0039403
0.00394552
0.00392299
0.0039209
0.00391275
0.00391936
0.00392128
0.00393742
0.003953
0.00400641
0.00408734
0.00420509
0.00434102
0.00451172
0.00467668
0.00487268
0.00508709
0.00523901
0.0053932
0.00538235
0.00542055
0.00134169
0.00182487
0.00250181
0.00302197
0.00355587
0.00408632
0.00472115
0.00531877
0.00570012
0.00375502
0.00382199
0.00385058
0.00385091
0.00394875
0.00405176
0.00410235
0.00417131
0.00415849
0.00411412
0.00409281
0.00410127
0.00410307
0.00413265
0.00417742
0.00425948
0.00436445
0.00450384
0.00464745
0.00480115
0.00496712
0.00514131
0.00534249
0.00548729
0.00565232
0.00567741
0.00575124
0.00136997
0.00186061
0.00253362
0.00305785
0.00358083
0.00412256
0.00476546
0.00536492
0.00572793
0.00376154
0.00382706
0.00391339
0.00393676
0.00406215
0.00417162
0.00424752
0.00431138
0.00433899
0.00433346
0.00431157
0.00430661
0.00433237
0.00439591
0.00448356
0.00460109
0.00473499
0.00486816
0.00501306
0.00515162
0.005314
0.00545088
0.00565267
0.00580025
0.00597424
0.00603231
0.00619038
0.0014105
0.00189128
0.00252591
0.00311048
0.00359597
0.00414579
0.00480521
0.00540181
0.00575052
0.00378146
0.00384141
0.00396196
0.00400045
0.00414009
0.00425925
0.00435935
0.00441859
0.00448288
0.00450187
0.00451192
0.004518
0.00457192
0.00464065
0.0047572
0.00487477
0.00500782
0.0051284
0.00527295
0.00540224
0.00555775
0.00568721
0.0059061
0.00602717
0.00615323
0.00729658
0.00807278
0.00132056
0.0016958
0.00232061
0.00294895
0.0034808
0.00408264
0.00473258
0.0053557
0.00575572
0.00380812
0.00384401
0.00396199
0.00400444
0.00415253
0.00428302
0.00439249
0.00446043
0.00453166
0.00455612
0.00458185
0.00459511
0.00465791
0.00472948
0.00484648
0.00495153
0.00508036
0.00519447
0.00533723
0.00546328
0.00561504
0.00575039
0.00596156
0.00608101
0.00621265
0.00736894
0.00812001
9.51077e-05
0.00013405
0.000173931
0.000211205
0.000247747
0.000284263
0.000320448
0.000355945
0.00039079
0.000425268
0.000459841
0.000495462
0.000531916
0.000571026
0.00061275
0.000658271
0.000707619
0.000761809
0.000819691
0.000882892
0.000948572
0.00101765
0.00109131
0.00105655
9.00435e-06
9.14659e-06
9.19844e-06
9.19606e-06
9.18025e-06
9.14805e-06
7.52609e-06
4.53278e-06
3.65543e-06
4.37713e-06
7.87304e-06
2.00251e-05
5.00132e-05
7.44519e-05
8.17271e-05
0.000121004
0.000161017
0.00019842
0.000234499
0.000270459
0.000306054
0.00034094
0.000375167
0.00040881
0.000442833
0.000476694
0.000511973
0.000548921
0.000589119
0.00063261
0.000680205
0.000731364
0.000786711
0.000846342
0.000910259
0.000976972
0.00104744
0.00112726
0.00110214
0.00160811
0.00199147
9.00395e-06
9.15985e-06
9.18636e-06
9.18858e-06
9.17463e-06
9.13327e-06
8.98323e-06
6.99263e-06
4.71283e-06
4.28783e-06
5.95425e-06
1.37302e-05
3.65014e-05
6.31118e-05
7.47382e-05
0.000111457
0.000148072
0.000182113
0.000215665
0.000249015
0.000281991
0.000314163
0.000345895
0.000376729
0.000406421
0.000436155
0.000466111
0.000497718
0.000531805
0.000569054
0.000609957
0.000654619
0.000703803
0.000757174
0.000816617
0.000882923
0.000958848
0.00103493
0.00111576
0.00116944
0.0012395
9.00336e-06
9.15859e-06
9.19286e-06
9.20976e-06
9.18058e-06
9.12569e-06
9.03235e-06
7.63099e-06
5.45641e-06
4.59632e-06
5.35959e-06
1.13624e-05
2.84653e-05
5.57474e-05
6.8648e-05
0.000103443
0.000136257
0.000166478
0.000196299
0.000225688
0.000254176
0.000282513
0.000308714
0.000333681
0.000358045
0.000382876
0.000407558
0.000433163
0.000460376
0.000490354
0.000523473
0.000561174
0.00060339
0.000651147
0.000705276
0.0007663
0.000836202
0.000909558
0.00097921
0.00103088
0.00110485
9.04289e-06
9.19289e-06
9.20628e-06
9.20541e-06
9.17264e-06
9.1117e-06
8.99097e-06
7.65194e-06
6.54153e-06
5.16264e-06
5.07044e-06
1.00801e-05
2.57964e-05
5.24584e-05
6.6919e-05
0.000100489
0.000130624
0.00015791
0.000184594
0.000210381
0.000235566
0.000259463
0.000282202
0.000304462
0.000326433
0.000348839
0.000371073
0.000394007
0.000417517
0.000442769
0.000470217
0.000501219
0.000536223
0.000576914
0.000623705
0.000676718
0.00073699
0.000798834
0.000860313
0.000910132
0.000973643
9.04583e-06
9.17221e-06
9.19401e-06
9.22182e-06
9.16349e-06
9.12604e-06
8.9919e-06
8.04066e-06
6.66096e-06
5.06461e-06
5.16697e-06
1.03893e-05
2.69561e-05
5.45687e-05
6.80217e-05
0.000101522
0.000130941
0.000157356
0.000182301
0.000206346
0.000229276
0.000251076
0.000271981
0.000292464
0.000312806
0.00033322
0.000353413
0.000374009
0.000395321
0.000417115
0.000440729
0.0004673
0.000498766
0.000536282
0.000580516
0.000631098
0.000689029
0.000749824
0.000812039
0.00086549
0.000923882
9.04599e-06
9.16675e-06
9.18635e-06
9.24513e-06
9.16774e-06
9.10385e-06
9.06788e-06
8.21004e-06
6.34526e-06
4.95319e-06
5.19064e-06
1.01734e-05
2.55363e-05
5.48538e-05
6.82978e-05
0.000102146
0.00013217
0.000158954
0.000184088
0.000208226
0.00023112
0.000252716
0.000273294
0.000293345
0.000313415
0.000333057
0.000352693
0.000372492
0.000392844
0.000413843
0.000436931
0.000462934
0.000493859
0.000530464
0.000573518
0.000622804
0.000679361
0.000738669
0.000799553
0.000850047
0.000910484
9.0435e-06
9.18891e-06
9.21399e-06
9.2388e-06
9.17712e-06
9.09163e-06
9.05946e-06
8.02752e-06
6.60049e-06
5.13286e-06
5.13216e-06
1.00098e-05
2.47732e-05
5.45479e-05
6.8241e-05
0.000102132
0.000132994
0.000160599
0.000187303
0.000212724
0.000237166
0.000259895
0.000281319
0.000302171
0.000322658
0.000343384
0.000363782
0.000384686
0.000406388
0.000429236
0.000453982
0.000481775
0.000513185
0.000550109
0.000592782
0.0006413
0.000696598
0.000754293
0.000813787
0.00086513
0.000922311
9.00718e-06
9.14581e-06
9.20832e-06
9.26914e-06
9.15698e-06
9.13008e-06
9.06572e-06
8.18915e-06
6.30896e-06
4.92375e-06
5.13702e-06
9.74344e-06
2.34928e-05
5.06759e-05
6.62025e-05
0.000100395
0.00013213
0.000160967
0.000189393
0.000216581
0.000243245
0.000268385
0.000291714
0.000314173
0.000336394
0.000358482
0.000380917
0.000404002
0.000428064
0.000454238
0.000483164
0.000515866
0.000553075
0.000595532
0.000643529
0.000696754
0.000756048
0.00081662
0.000876532
0.000931619
0.000991723
9.0484e-06
9.15715e-06
9.19359e-06
9.20945e-06
9.17912e-06
9.11954e-06
9.06675e-06
8.30847e-06
7.36032e-06
5.51461e-06
5.02555e-06
9.28631e-06
2.24882e-05
4.96462e-05
6.61461e-05
0.000101058
0.000134244
0.000164965
0.000195238
0.000225323
0.000254353
0.000283102
0.00031008
0.00033509
0.000359373
0.000383605
0.000408392
0.000434016
0.000461465
0.000491771
0.000525662
0.000564202
0.000607598
0.000656031
0.000710206
0.000769541
0.000834742
0.000902185
0.000970913
0.00102564
0.00112206
9.04334e-06
9.17457e-06
9.21561e-06
9.20922e-06
9.16184e-06
9.11697e-06
9.04481e-06
8.20606e-06
7.15371e-06
5.36076e-06
5.10066e-06
9.71511e-06
2.38106e-05
5.10314e-05
6.64083e-05
0.000101355
0.000135749
0.000168021
0.000200265
0.000232333
0.000263761
0.000294741
0.000324744
0.00035363
0.000381369
0.000409398
0.000437851
0.000468446
0.000501887
0.000539108
0.00058112
0.000627655
0.000679281
0.00073572
0.000797832
0.000864324
0.000936904
0.00101249
0.00108183
0.00115464
0.00124396
9.00461e-06
9.15322e-06
9.18832e-06
9.21945e-06
9.18028e-06
9.14293e-06
9.01309e-06
7.65503e-06
5.56405e-06
4.61535e-06
5.21046e-06
1.04826e-05
2.63855e-05
5.14366e-05
6.86351e-05
0.000104182
0.000139649
0.000173225
0.000207074
0.000240944
0.000274538
0.000307629
0.00034054
0.000372752
0.00040481
0.000436723
0.000470387
0.000505849
0.000544651
0.000588656
0.000636872
0.000689169
0.000747013
0.00080928
0.000877513
0.000949797
0.00102883
0.00111132
0.00108151
0.00148428
0.00185915
9.04437e-06
9.17655e-06
9.18727e-06
9.19725e-06
9.19311e-06
9.12478e-06
8.77329e-06
6.30947e-06
4.31562e-06
3.99216e-06
5.08539e-06
1.14338e-05
3.08247e-05
5.46767e-05
7.04108e-05
0.000105564
0.000141079
0.000174869
0.000209166
0.000243793
0.000278383
0.00031264
0.000346909
0.000380571
0.000414462
0.000448327
0.00048429
0.000521921
0.000563065
0.000609282
0.000659539
0.000713673
0.000773474
0.00083753
0.000907822
0.000981826
0.00105973
0.00115109
0.00109656
0.00162048
0.00202886
8.52542e-06
8.24441e-06
7.96116e-06
7.74124e-06
7.60388e-06
7.56812e-06
7.63676e-06
7.80762e-06
8.07736e-06
8.44383e-06
8.90782e-06
9.47389e-06
1.01482e-05
1.09468e-05
1.18863e-05
1.29933e-05
1.42952e-05
1.58314e-05
1.76342e-05
1.97561e-05
2.22257e-05
2.50665e-05
2.81639e-05
2.91491e-05
8.99108e-06
8.97231e-06
8.95446e-06
8.93726e-06
8.9207e-06
8.90518e-06
8.89005e-06
8.87531e-06
8.86147e-06
8.84846e-06
8.83606e-06
8.82417e-06
8.81408e-06
8.8517e-06
8.61129e-06
8.35735e-06
8.07807e-06
7.85464e-06
7.69814e-06
7.63344e-06
7.6686e-06
7.80311e-06
8.03435e-06
8.35926e-06
8.77883e-06
9.29341e-06
9.91075e-06
1.06401e-05
1.1502e-05
1.25154e-05
1.37119e-05
1.51165e-05
1.67697e-05
1.87051e-05
2.09772e-05
2.3629e-05
2.67852e-05
3.02307e-05
2.97045e-05
5.04436e-05
5.95187e-05
8.99673e-06
8.97985e-06
8.96355e-06
8.94782e-06
8.93266e-06
8.91843e-06
8.90487e-06
8.89214e-06
8.87996e-06
8.8681e-06
8.85678e-06
8.84623e-06
8.83689e-06
8.79244e-06
8.6437e-06
8.4193e-06
8.16948e-06
7.95475e-06
7.79986e-06
7.71801e-06
7.72176e-06
7.812e-06
7.98735e-06
8.24503e-06
8.58105e-06
8.99623e-06
9.49167e-06
1.00772e-05
1.07634e-05
1.15703e-05
1.25165e-05
1.36316e-05
1.49444e-05
1.64962e-05
1.83424e-05
2.05793e-05
2.33615e-05
2.67869e-05
3.02771e-05
3.37867e-05
3.67337e-05
9.00197e-06
8.98612e-06
8.97008e-06
8.95431e-06
8.93908e-06
8.92481e-06
8.91132e-06
8.8985e-06
8.88621e-06
8.87426e-06
8.86277e-06
8.85207e-06
8.84217e-06
8.78584e-06
8.66005e-06
8.45464e-06
8.23333e-06
8.03033e-06
7.88271e-06
7.79415e-06
7.77167e-06
7.82068e-06
7.93752e-06
8.11847e-06
8.36027e-06
8.66365e-06
9.02847e-06
9.4599e-06
9.96447e-06
1.05557e-05
1.12482e-05
1.20676e-05
1.304e-05
1.42049e-05
1.56112e-05
1.73296e-05
1.945e-05
2.19977e-05
2.47193e-05
2.75947e-05
3.04787e-05
9.00323e-06
8.98768e-06
8.9718e-06
8.95614e-06
8.94102e-06
8.92664e-06
8.91278e-06
8.89937e-06
8.88653e-06
8.87488e-06
8.86438e-06
8.85448e-06
8.84407e-06
8.78244e-06
8.66415e-06
8.46402e-06
8.25184e-06
8.05872e-06
7.91489e-06
7.82057e-06
7.78784e-06
7.81708e-06
7.90372e-06
8.04462e-06
8.23692e-06
8.48136e-06
8.77755e-06
9.12985e-06
9.54079e-06
1.00195e-05
1.0575e-05
1.12253e-05
1.19892e-05
1.2899e-05
1.39886e-05
1.52984e-05
1.68715e-05
1.86939e-05
2.07124e-05
2.29709e-05
2.52745e-05
9.00277e-06
8.98717e-06
8.97142e-06
8.95596e-06
8.94104e-06
8.92688e-06
8.91307e-06
8.89975e-06
8.88753e-06
8.87608e-06
8.86508e-06
8.85461e-06
8.84431e-06
8.78343e-06
8.6606e-06
8.45727e-06
8.24318e-06
8.05091e-06
7.91147e-06
7.81766e-06
7.7822e-06
7.8057e-06
7.88288e-06
8.01014e-06
8.18446e-06
8.40551e-06