/*--------------------------------*- C++ -*----------------------------------*\
  =========                 |
  \\      /  F ield         | OpenFOAM: The Open Source CFD Toolbox
   \\    /   O peration     | Website:  https://openfoam.org
    \\  /    A nd           | Version:  7
     \\/     M anipulation  |
\*---------------------------------------------------------------------------*/
FoamFile
{
    version     2.0;
    format      ascii;
    class       volScalarField;
    location    "700";
    object      p;
}
// * * * * * * * * * * * * * * * * * * * * * * * * * * * * * * * * * * * * * //

dimensions      [0 2 -2 0 0 0 0];

internalField   nonuniform List<scalar> 
120313
(
-20.5484
-19.8384
-18.7854
-17.4808
-16.0218
-14.4949
-12.9554
-11.432
-9.9883
-8.63205
-7.35017
-6.1915
-5.17166
-4.28422
-3.51753
-2.85536
-2.29928
-1.82945
-1.43475
-1.10894
-0.830342
-0.60786
-0.401767
-0.225056
-20.5226
-19.8622
-18.8178
-17.5163
-16.0471
-14.5099
-13.0006
-11.5177
-10.0387
-8.64445
-7.36592
-6.20817
-5.19101
-4.30166
-3.52734
-2.86783
-2.31474
-1.84412
-1.44805
-1.12244
-0.843149
-0.619925
-0.406743
-0.238693
-20.5034
-19.8474
-18.8046
-17.5035
-16.0335
-14.4929
-12.9859
-11.5172
-10.0346
-8.62679
-7.34894
-6.194
-5.18065
-4.2924
-3.51658
-2.85768
-2.30818
-1.8376
-1.44182
-1.11648
-0.83808
-0.613003
-0.400388
-0.244552
-20.4973
-19.8465
-18.8057
-17.5045
-16.0335
-14.4928
-12.99
-11.5164
-10.0261
-8.61539
-7.33681
-6.18319
-5.17118
-4.28358
-3.50895
-2.85123
-2.30298
-1.83353
-1.43854
-1.1138
-0.836086
-0.61133
-0.400172
-0.242776
-20.4948
-19.8452
-18.8057
-17.5052
-16.0339
-14.4927
-12.9906
-11.5146
-10.0227
-8.61086
-7.33158
-6.17827
-5.16639
-4.2789
-3.50504
-2.84815
-2.29975
-1.83098
-1.43656
-1.1123
-0.83519
-0.610717
-0.399871
-0.243611
-20.4981
-19.8436
-18.8052
-17.5056
-16.0341
-14.4918
-12.9876
-11.5113
-10.0236
-8.61303
-7.33264
-6.1792
-5.16649
-4.27862
-3.50468
-2.84763
-2.29776
-1.82929
-1.43541
-1.11168
-0.835234
-0.611271
-0.399728
-0.246771
-20.5197
-19.8578
-18.8198
-17.5198
-16.0478
-14.5076
-13.0007
-11.5065
-10.0214
-8.62237
-7.33885
-6.18452
-5.16871
-4.28021
-3.50761
-2.8507
-2.29882
-1.83126
-1.43837
-1.11551
-0.839573
-0.61821
-0.407539
-0.243194
-20.5451
-19.8368
-18.7891
-17.4855
-16.0209
-14.4883
-12.942
-11.4107
-9.97177
-8.5987
-7.31144
-6.15809
-5.14185
-4.25869
-3.49116
-2.83214
-2.27706
-1.81058
-1.42015
-1.0987
-0.825324
-0.605513
-0.401961
-0.229968
-19.3514
-19.6095
-19.8957
-20.1886
-20.4782
-20.7411
-20.9492
-21.1324
-21.035
-20.776
-20.1924
-19.2344
-18.0043
-16.6017
-15.1103
-13.5881
-12.0718
-10.6005
-9.1981
-7.89401
-6.69451
-5.60857
-4.66586
-3.85856
-3.15199
-2.5713
-2.0763
-1.65862
-1.31022
-1.01841
-0.768345
-0.555788
-0.366
-0.213091
-0.0772145
-0.00651284
-19.3609
-19.6154
-19.8997
-20.1915
-20.4802
-20.7417
-20.947
-21.1456
-21.0551
-20.6897
-20.1207
-19.0463
-17.7653
-16.3363
-14.8398
-13.3233
-11.8193
-10.3586
-8.97379
-7.67237
-6.49274
-5.45058
-4.53657
-3.75028
-3.08146
-2.51662
-2.04087
-1.63524
-1.29758
-1.00674
-0.775328
-0.553219
-0.39145
-0.283832
-0.0150422
-0.0720463
-19.3712
-19.6196
-19.9034
-20.1943
-20.4827
-20.7434
-20.9457
-21.138
-21.0553
-20.7052
-20.1892
-19.0949
-17.8075
-16.3774
-14.8829
-13.3735
-11.8718
-10.3852
-8.97975
-7.68485
-6.51089
-5.47368
-4.56788
-3.7758
-3.10168
-2.54091
-2.06416
-1.65673
-1.31764
-1.02438
-0.790505
-0.561723
-0.420276
-0.305957
-0.0169622
-0.10076
-19.3761
-19.6259
-19.909
-20.1983
-20.4854
-20.7444
-20.9429
-21.1228
-21.0261
-20.6947
-20.2147
-19.1117
-17.8205
-16.3876
-14.8925
-13.3854
-11.8812
-10.3819
-8.9646
-7.67356
-6.50238
-5.46906
-4.56492
-3.7695
-3.09684
-2.53941
-2.06384
-1.65644
-1.31827
-1.02373
-0.791976
-0.561799
-0.438308
-0.321227
-0.0174289
-0.110095
-19.3874
-19.6378
-19.9168
-20.2028
-20.4872
-20.7432
-20.9381
-21.1152
-21.0141
-20.6912
-20.2265
-19.1208
-17.8284
-16.3947
-14.8999
-13.3926
-11.8844
-10.3764
-8.95611
-7.66522
-6.49467
-5.46335
-4.55967
-3.76491
-3.09393
-2.53828
-2.06383
-1.65709
-1.31951
-1.02514
-0.79448
-0.565649
-0.454843
-0.315023
-0.0146258
-0.113505
-19.3968
-19.6475
-19.9227
-20.2054
-20.4874
-20.7411
-20.9338
-21.1095
-21.0061
-20.6856
-20.2243
-19.121
-17.8295
-16.3961
-14.9011
-13.393
-11.8829
-10.3728
-8.95198
-7.65998
-6.48961
-5.45843
-4.55475
-3.76092
-3.09086
-2.53576
-2.06152
-1.65518
-1.31796
-1.02435
-0.794224
-0.56604
-0.456153
-0.31633
-0.0141687
-0.115729
-19.4084
-19.6525
-19.9244
-20.2052
-20.4858
-20.7387
-20.9313
-21.108
-21.0077
-20.6809
-20.209
-19.1125
-17.8242
-16.3922
-14.8966
-13.3872
-11.8782
-10.3735
-8.95404
-7.66075
-6.48975
-5.45707
-4.55327
-3.76003
-3.08963
-2.53368
-2.05898
-1.65306
-1.31602
-1.02353
-0.793307
-0.564707
-0.443534
-0.327517
-0.0215072
-0.115225
-19.418
-19.6531
-19.9228
-20.2023
-20.4821
-20.7354
-20.93
-21.1111
-21.0187
-20.6899
-20.183
-19.0969
-17.8149
-16.3861
-14.89
-13.3768
-11.8684
-10.3734
-8.96313
-7.66447
-6.49268
-5.45693
-4.55249
-3.76163
-3.09129
-2.53337
-2.05785
-1.65251
-1.31556
-1.02471
-0.793884
-0.568752
-0.431352
-0.318023
-0.0269152
-0.113935
-19.4252
-19.6553
-19.9209
-20.1981
-20.4763
-20.7297
-20.9267
-21.119
-21.0441
-20.6715
-20.1145
-19.0493
-17.7748
-16.3473
-14.8483
-13.3264
-11.816
-10.3469
-8.95195
-7.64425
-6.47155
-5.42966
-4.51895
-3.73542
-3.0688
-2.50733
-2.03274
-1.62941
-1.29431
-1.00789
-0.780358
-0.562634
-0.407079
-0.308176
-0.029341
-0.108228
-19.4357
-19.6586
-19.9184
-20.1924
-20.4688
-20.7212
-20.9195
-21.1176
-21.0629
-20.6544
-20.0311
-19.0077
-17.7439
-16.3224
-14.8231
-13.2979
-11.7873
-10.3251
-8.93644
-7.64636
-6.47192
-5.4249
-4.51685
-3.73056
-3.0517
-2.49215
-2.01605
-1.61338
-1.27624
-0.991173
-0.754713
-0.555628
-0.387325
-0.286042
-0.0247282
-0.0949199
-19.4496
-19.661
-19.915
-20.1877
-20.4641
-20.7173
-20.9175
-21.1073
-21.005
-20.7389
-20.1681
-19.2264
-18.0079
-16.6084
-15.1152
-13.5842
-12.0605
-10.58
-9.17292
-7.86399
-6.6729
-5.58443
-4.6421
-3.83394
-3.12953
-2.5508
-2.05735
-1.64399
-1.3007
-1.00939
-0.764287
-0.553131
-0.37825
-0.2366
-0.108011
-0.0736119
-19.4636
-19.655
-19.9093
-20.1842
-20.4634
-20.7206
-20.9263
-21.129
-21.0151
-20.7319
-20.1559
-19.2292
-18.0133
-16.6197
-15.1296
-13.6003
-12.0782
-10.6005
-9.19777
-7.891
-6.70239
-5.60695
-4.66491
-3.85384
-3.15174
-2.56875
-2.07453
-1.66382
-1.31717
-1.02345
-0.771995
-0.558051
-0.384185
-0.234102
-0.108604
-0.0779035
-20.7523
-20.0642
-19.1269
-17.854
-16.4479
-14.9671
-13.4569
-11.9529
-10.4975
-9.1174
-7.84123
-6.68113
-5.64613
-4.74283
-3.95681
-3.28084
-2.70464
-2.21639
-1.80201
-1.4521
-1.15118
-0.894799
-0.682895
-0.519973
-19.5007
-19.7031
-19.946
-20.2231
-20.5105
-20.7763
-20.9829
-21.131
-21.1125
-20.7612
-20.1043
-19.123
-17.8548
-16.4473
-14.9667
-13.4574
-11.9549
-10.4994
-9.11709
-7.83764
-6.67536
-5.64292
-4.7392
-3.95138
-3.27236
-2.69481
-2.20456
-1.78947
-1.43814
-1.13965
-0.884691
-0.671738
-0.475975
-0.364643
-0.0457516
-0.0401473
-19.506
-19.7042
-19.947
-20.2239
-20.5122
-20.7774
-20.9787
-21.1266
-21.0907
-20.7484
-20.1311
-19.1297
-17.8657
-16.4604
-14.9817
-13.4746
-11.9725
-10.5125
-9.12897
-7.84428
-6.68348
-5.65471
-4.75075
-3.96376
-3.28502
-2.70792
-2.21722
-1.79904
-1.44633
-1.14503
-0.892478
-0.677778
-0.492337
-0.331327
-0.210631
0.0409215
-19.5132
-19.7078
-19.9498
-20.2255
-20.5146
-20.7799
-20.9766
-21.1202
-21.0742
-20.7593
-20.1593
-19.142
-17.8788
-16.4756
-14.9998
-13.4975
-11.9933
-10.5163
-9.12692
-7.84997
-6.69276
-5.66655
-4.76519
-3.97581
-3.29591
-2.72099
-2.22931
-1.8095
-1.45559
-1.15217
-0.898927
-0.683612
-0.504305
-0.331784
-0.219095
0.0780108
-19.5191
-19.7141
-19.9547
-20.2285
-20.517
-20.7813
-20.9739
-21.1108
-21.0553
-20.7509
-20.1696
-19.1456
-17.8808
-16.4751
-15.0004
-13.5001
-11.9928
-10.5087
-9.11701
-7.84223
-6.68667
-5.66291
-4.76252
-3.97207
-3.2932
-2.72067
-2.22952
-1.80977
-1.45611
-1.15174
-0.899897
-0.682011
-0.511604
-0.337891
-0.227468
0.0869517
-19.5314
-19.7241
-19.9605
-20.2319
-20.5189
-20.7805
-20.9694
-21.1026
-21.0464
-20.7461
-20.1757
-19.1503
-17.8847
-16.4776
-15.003
-13.5027
-11.9926
-10.5052
-9.11181
-7.83605
-6.68098
-5.65918
-4.75919
-3.96911
-3.29205
-2.72209
-2.23205
-1.81234
-1.45866
-1.15422
-0.903135
-0.683447
-0.516087
-0.339406
-0.232837
0.0888832
-19.541
-19.7316
-19.9646
-20.2339
-20.5188
-20.7778
-20.9645
-21.0962
-21.0414
-20.7416
-20.1738
-19.151
-17.8869
-16.4801
-15.0053
-13.5039
-11.9918
-10.5031
-9.10886
-7.83212
-6.67695
-5.65527
-4.75543
-3.96629
-3.29045
-2.72041
-2.2301
-1.81055
-1.45723
-1.1533
-0.902751
-0.683677
-0.516784
-0.340098
-0.235295
0.0880328
-19.5481
-19.7349
-19.966
-20.2336
-20.5166
-20.7741
-20.9602
-21.0922
-21.0396
-20.7389
-20.1649
-19.1465
-17.8856
-16.4815
-15.0059
-13.5024
-11.9896
-10.5025
-9.10887
-7.832
-6.67646
-5.65336
-4.7537
-3.96443
-3.28719
-2.71556
-2.22542
-1.80689
-1.45432
-1.15125
-0.9005
-0.683918
-0.514971
-0.340673
-0.235679
0.0846833
-19.5523
-19.7351
-19.9649
-20.231
-20.5123
-20.769
-20.9557
-21.0899
-21.0426
-20.7456
-20.1566
-19.1418
-17.8844
-16.4843
-15.0064
-13.4993
-11.9867
-10.5038
-9.11219
-7.83376
-6.6782
-5.65281
-4.75257
-3.96417
-3.28651
-2.71327
-2.2228
-1.80455
-1.45195
-1.15035
-0.89918
-0.686194
-0.511071
-0.336561
-0.234655
0.0795514
-19.5565
-19.7352
-19.963
-20.2268
-20.5057
-20.7616
-20.9495
-21.0861
-21.0435
-20.74
-20.1354
-19.1305
-17.8753
-16.475
-14.9928
-13.479
-11.9694
-10.5002
-9.11032
-7.82611
-6.67
-5.64138
-4.73943
-3.9542
-3.27754
-2.70241
-2.21222
-1.79517
-1.4439
-1.14506
-0.89524
-0.682073
-0.500747
-0.338762
-0.241088
0.0651139
-19.5637
-19.7367
-19.96
-20.2215
-20.4985
-20.7535
-20.9438
-21.086
-21.0477
-20.728
-20.1093
-19.1186
-17.8641
-16.4624
-14.9788
-13.4621
-11.9529
-10.4877
-9.10004
-7.81966
-6.6634
-5.63286
-4.73043
-3.94383
-3.26334
-2.68887
-2.19951
-1.78408
-1.43285
-1.13578
-0.883436
-0.674805
-0.49177
-0.343859
-0.241115
0.0245473
-19.5719
-19.7381
-19.9557
-20.2168
-20.4937
-20.7492
-20.9445
-21.0931
-21.0655
-20.7277
-20.0968
-19.1192
-17.8588
-16.4557
-14.9702
-13.4515
-11.9421
-10.4785
-9.09337
-7.8172
-6.66188
-5.62931
-4.72485
-3.93866
-3.26107
-2.68683
-2.1985
-1.78555
-1.43488
-1.13903
-0.88294
-0.676538
-0.481407
-0.372407
-0.0556275
-0.0753953
-19.5758
-19.7368
-19.9521
-20.2141
-20.4921
-20.7499
-20.9505
-21.1004
-21.0666
-20.7349
-20.1156
-19.1358
-17.8634
-16.4584
-14.971
-13.4502
-11.9389
-10.4739
-9.0895
-7.81579
-6.66153
-5.62994
-4.72589
-3.9423
-3.2689
-2.69735
-2.21083
-1.79952
-1.44849
-1.152
-0.891537
-0.685536
-0.479074
-0.38917
-0.0208324
-0.0466081
-20.45
-19.7194
-18.8536
-17.6915
-16.3548
-14.9284
-13.4486
-11.964
-10.522
-9.16219
-7.90695
-6.76844
-5.75523
-4.86876
-4.09007
-3.42107
-2.84583
-2.35799
-1.93439
-1.57829
-1.26196
-1.00913
-0.762872
-0.620221
-19.5794
-19.7138
-19.9581
-20.2471
-20.5268
-20.7821
-20.9782
-21.0822
-20.9043
-20.4947
-19.7745
-18.8979
-17.7305
-16.3851
-14.9524
-13.4688
-11.9794
-10.532
-9.16469
-7.90669
-6.76793
-5.75788
-4.86897
-4.09056
-3.41642
-2.84121
-2.34838
-1.92739
-1.56697
-1.25851
-0.995774
-0.770849
-0.561278
-0.45145
-0.0999486
-0.0273303
-19.5849
-19.7145
-19.9545
-20.2423
-20.526
-20.7809
-20.9674
-21.0603
-20.8845
-20.5014
-19.777
-18.8932
-17.7325
-16.3856
-14.9477
-13.464
-11.9729
-10.5204
-9.15465
-7.89945
-6.76533
-5.75684
-4.8677
-4.09138
-3.41835
-2.84283
-2.34901
-1.92724
-1.566
-1.2569
-0.993926
-0.766318
-0.572183
-0.389135
-0.245936
-0.0413006
-19.5911
-19.7165
-19.9545
-20.2387
-20.5282
-20.7875
-20.9634
-21.0436
-20.8709
-20.5084
-19.7918
-18.9031
-17.7345
-16.383
-14.943
-13.4594
-11.9637
-10.5055
-9.14672
-7.9003
-6.76858
-5.76012
-4.86952
-4.09192
-3.41973
-2.8459
-2.35212
-1.92975
-1.56849
-1.25826
-0.995527
-0.765089
-0.572772
-0.380124
-0.246471
-0.0356036
-19.5954
-19.7201
-19.9613
-20.2403
-20.5307
-20.7922
-20.9623
-21.0339
-20.8594
-20.5053
-19.7998
-18.909
-17.7319
-16.3749
-14.9337
-13.4481
-11.9513
-10.4973
-9.14303
-7.89828
-6.76767
-5.75814
-4.86723
-4.08933
-3.41751
-2.84423
-2.35013
-1.92786
-1.56645
-1.25613
-0.994368
-0.763281
-0.573811
-0.378475
-0.247236
-0.0311875
-19.6077
-19.7355
-19.9637
-20.2439
-20.5346
-20.7895
-20.9561
-21.0269
-20.8519
-20.5052
-19.8061
-18.9146
-17.7346
-16.3751
-14.9326
-13.4456
-11.9483
-10.4966
-9.14207
-7.89697
-6.76685
-5.75682
-4.8663
-4.08857
-3.41552
-2.84143
-2.3473
-1.92587
-1.5649
-1.25523
-0.994442
-0.764147
-0.576647
-0.379604
-0.249996
-0.0306569
-19.6189
-19.7421
-19.9654
-20.2471
-20.5353
-20.7841
-20.9489
-21.0213
-20.848
-20.5043
-19.8062
-18.915
-17.7378
-16.3796
-14.9366
-13.4478
-11.9484
-10.496
-9.14038
-7.89481
-6.76424
-5.75389
-4.86335
-4.08529
-3.41197
-2.83827
-2.3447
-1.92366
-1.563
-1.25365
-0.9934
-0.763308
-0.576139
-0.3794
-0.251018
-0.0309442
-19.6244
-19.7439
-19.9678
-20.2472
-20.5321
-20.7801
-20.9435
-21.0153
-20.8448
-20.5022
-19.799
-18.9107
-17.7403
-16.386
-14.9428
-13.4523
-11.9498
-10.4946
-9.13829
-7.89189
-6.76082
-5.74994
-4.85911
-4.08212
-3.41066
-2.83784
-2.3445
-1.92307
-1.56259
-1.25355
-0.993366
-0.763454
-0.575129
-0.379017
-0.251617
-0.0330754
-19.6268
-19.7438
-19.9692
-20.2452
-20.5269
-20.7737
-20.9361
-21.009
-20.8444
-20.5017
-19.7942
-18.9091
-17.7456
-16.3947
-14.9498
-13.4577
-11.9535
-10.4935
-9.13398
-7.88712
-6.7557
-5.74474
-4.85472
-4.07825
-3.40788
-2.83526
-2.34263
-1.92189
-1.56208
-1.25376
-0.992825
-0.763685
-0.573672
-0.377853
-0.251552
-0.0358876
-19.6282
-19.7385
-19.9719
-20.2401
-20.5171
-20.765
-20.9284
-21.0044
-20.8452
-20.4879
-19.7828
-18.9053
-17.7507
-16.4017
-14.954
-13.4601
-11.9583
-10.4969
-9.13033
-7.87899
-6.74852
-5.73936
-4.85029
-4.07437
-3.40431
-2.83087
-2.33851
-1.918
-1.55905
-1.25234
-0.991602
-0.764609
-0.573591
-0.383103
-0.258145
-0.0424793
-19.6365
-19.7405
-19.967
-20.2344
-20.5081
-20.7543
-20.9236
-21.006
-20.843
-20.4701
-19.7671
-18.8983
-17.7504
-16.4029
-14.9544
-13.4595
-11.9599
-10.5001
-9.12861
-7.87384
-6.74406
-5.73509
-4.84611
-4.07113
-3.40069
-2.82728
-2.33499
-1.91535
-1.55629
-1.25145
-0.988889
-0.767609
-0.574455
-0.395445
-0.268166
-0.0528623
-19.6477
-19.7431
-19.9531
-20.2334
-20.5058
-20.7488
-20.9285
-21.0195
-20.8371
-20.4484
-19.7524
-18.8908
-17.7447
-16.4013
-14.9536
-13.4584
-11.9608
-10.5061
-9.13533
-7.88163
-6.7516
-5.74161
-4.85054
-4.07656
-3.40618
-2.83294
-2.3399
-1.92141
-1.56113
-1.25799
-0.990782
-0.777793
-0.568592
-0.455242
-0.109149
-0.0463147
-19.646
-19.7362
-19.9471
-20.2375
-20.511
-20.7549
-20.9409
-21.0381
-20.8332
-20.4434
-19.7376
-18.8788
-17.7326
-16.3938
-14.9479
-13.4528
-11.957
-10.5058
-9.13938
-7.88987
-6.76051
-5.75018
-4.85972
-4.08695
-3.41684
-2.84377
-2.35015
-1.93214
-1.57006
-1.26699
-0.996523
-0.78292
-0.566353
-0.485955
-0.0770068
-0.00569783
-19.7475
-18.6892
-18.0666
-17.1538
-15.9331
-14.5835
-13.1905
-11.7996
-10.442
-9.14719
-7.95921
-6.88765
-5.91434
-5.04679
-4.28047
-3.621
-3.04397
-2.54963
-2.11142
-1.7359
-1.40173
-1.11448
-0.858247
-0.617779
-19.4673
-19.6222
-19.8026
-20.0041
-20.2454
-20.4637
-20.6283
-20.5833
-20.1984
-19.8128
-18.691
-18.0673
-17.1673
-15.9471
-14.5967
-13.2023
-11.8092
-10.4515
-9.15379
-7.96326
-6.88855
-5.91939
-5.04806
-4.28489
-3.62096
-3.04585
-2.54374
-2.10951
-1.72913
-1.39984
-1.11008
-0.851763
-0.619474
-0.404697
-0.0496699
-0.0167796
-19.4726
-19.6203
-19.7861
-19.9855
-20.2343
-20.4481
-20.5962
-20.5273
-20.1306
-19.7989
-18.6591
-18.0403
-17.1356
-15.9138
-14.5736
-13.1896
-11.8004
-10.4417
-9.15076
-7.96075
-6.89289
-5.92476
-5.0539
-4.29129
-3.62922
-3.05004
-2.54625
-2.10969
-1.72985
-1.39805
-1.10987
-0.853471
-0.629374
-0.422495
-0.246517
-0.0727396
-19.4773
-19.6323
-19.7893
-19.9733
-20.2383
-20.4671
-20.5886
-20.4926
-20.1108
-19.7882
-18.6495
-18.0464
-17.1201
-15.8963
-14.562
-13.183
-11.7933
-10.4327
-9.1455
-7.9628
-6.90094
-5.93454
-5.06081
-4.29632
-3.63325
-3.05444
-2.54941
-2.11243
-1.73182
-1.40046
-1.11205
-0.856404
-0.635965
-0.425083
-0.250901
-0.0766281
-19.4902
-19.6192
-19.8175
-19.9796
-20.2364
-20.4795
-20.5918
-20.4836
-20.1118
-19.7761
-18.6515
-18.0508
-17.1115
-15.8825
-14.5493
-13.1715
-11.7822
-10.4221
-9.13978
-7.96291
-6.90402
-5.93774
-5.06494
-4.29985
-3.63625
-3.05656
-2.55082
-2.11289
-1.73139
-1.40039
-1.11283
-0.856883
-0.637157
-0.42641
-0.255637
-0.079447
-19.4809
-19.6591
-19.808
-19.9925
-20.2528
-20.4716
-20.5837
-20.4833
-20.1089
-19.7762
-18.6598
-18.059
-17.1141
-15.8829
-14.5482
-13.1697
-11.7789
-10.42
-9.13866
-7.96544
-6.90777
-5.94053
-5.06856
-4.30352
-3.637
-3.05429
-2.54809
-2.11057
-1.72972
-1.39888
-1.11252
-0.85856
-0.641262
-0.431945
-0.262289
-0.0817446
-19.5159
-19.6555
-19.8105
-20.0013
-20.2601
-20.4639
-20.5763
-20.4807
-20.0977
-19.7785
-18.6563
-18.0565
-17.1155
-15.8855
-14.5506
-13.1705
-11.7785
-10.4192
-9.13514
-7.96538
-6.90589
-5.93808
-5.06556
-4.29975
-3.63213
-3.05065
-2.54609
-2.10906
-1.72848
-1.39774
-1.11194
-0.857656
-0.640936
-0.431419
-0.261722
-0.0818061
-19.52
-19.6656
-19.812
-19.9983
-20.2537
-20.466
-20.5751
-20.4714
-20.086
-19.7866
-18.6425
-18.051
-17.1182
-15.8918
-14.5568
-13.1755
-11.7821
-10.4199
-9.13455
-7.96012
-6.90073
-5.93192
-5.05928
-4.29573
-3.63249
-3.05325
-2.54856
-2.11034
-1.72916
-1.39863
-1.11312
-0.857867
-0.639656
-0.429395
-0.260552
-0.0815438
-19.5268
-19.6622
-19.8187
-19.9986
-20.2478
-20.4547
-20.5641
-20.4584
-20.0687
-19.7885
-18.6361
-18.0431
-17.1204
-15.8975
-14.5611
-13.1776
-11.7839
-10.4208
-9.13063
-7.95305
-6.88904
-5.92256
-5.05089
-4.28761
-3.62583
-3.04767
-2.54348
-2.10682
-1.72742
-1.3975
-1.11115
-0.856249
-0.637732
-0.42585
-0.256189
-0.0802342
-19.5331
-19.6477
-19.8386
-19.9867
-20.2234
-20.4457
-20.5522
-20.4425
-20.0514
-19.7909
-18.6345
-18.0336
-17.1268
-15.9074
-14.5665
-13.1803
-11.7856
-10.4237
-9.1315
-7.94588
-6.87962
-5.91729
-5.04715
-4.28253
-3.62101
-3.043
-2.53866
-2.10232
-1.72385
-1.3943
-1.1085
-0.855648
-0.637193
-0.424126
-0.251722
-0.0789658
-19.5426
-19.6521
-19.8245
-19.9779
-20.2105
-20.4287
-20.5435
-20.4407
-20.0379
-19.7926
-18.634
-18.0204
-17.1259
-15.91
-14.5665
-13.1777
-11.7835
-10.4216
-9.12857
-7.93765
-6.87149
-5.90672
-5.03719
-4.27455
-3.61493
-3.03829
-2.5342
-2.09897
-1.72081
-1.39309
-1.10714
-0.855908
-0.63374
-0.420815
-0.250564
-0.0774922
-19.5782
-19.6377
-19.7871
-19.9882
-20.2163
-20.4138
-20.551
-20.4709
-20.0464
-19.7711
-18.6437
-18.0225
-17.1357
-15.9168
-14.5695
-13.1779
-11.7844
-10.4249
-9.12885
-7.93979
-6.87113
-5.90842
-5.03746
-4.27778
-3.61543
-3.04075
-2.53512
-2.10324
-1.72242
-1.39775
-1.1065
-0.857267
-0.63233
-0.39775
-0.0667773
-0.0353156
-19.5968
-19.6246
-19.8005
-20.0127
-20.2366
-20.4345
-20.5814
-20.5311
-20.0975
-19.7776
-18.645
-18.019
-17.1393
-15.917
-14.5666
-13.173
-11.7802
-10.4228
-9.12676
-7.93966
-6.87284
-5.91173
-5.04263
-4.28346
-3.61898
-3.04431
-2.53885
-2.10805
-1.72616
-1.40178
-1.10822
-0.860581
-0.630668
-0.411528
-0.027789
0.00952256
-18.4778
-17.9357
-17.2964
-16.3906
-15.2761
-14.0716
-12.8416
-11.6157
-10.3877
-9.1874
-8.10399
-7.13381
-6.22174
-5.36989
-4.6158
-3.96068
-3.37023
-2.85196
-2.38413
-1.97862
-1.6096
-1.28975
-1.01116
-0.741506
-17.9384
-17.8772
-17.8335
-17.7016
-17.5323
-18.2005
-18.8172
-19.1515
-19.454
-19.7112
-19.9058
-19.9732
-19.7755
-19.277
-18.4434
-17.9239
-17.2912
-16.3927
-15.2835
-14.08
-12.8497
-11.6186
-10.4043
-9.20047
-8.10151
-7.13116
-6.23023
-5.37938
-4.61771
-3.95686
-3.37368
-2.85063
-2.38912
-1.97637
-1.61519
-1.28654
-0.997966
-0.733032
-0.506544
-0.333654
-0.109118
-17.9045
-17.9013
-17.8634
-17.7559
-17.6382
-18.2289
-18.8106
-19.1833
-19.4733
-19.7198
-19.9008
-19.9487
-19.7225
-19.2512
-18.4331
-17.9147
-17.282
-16.3877
-15.2754
-14.0784
-12.8462
-11.6189
-10.3993
-9.20911
-8.09347
-7.12838
-6.23718
-5.38422
-4.61646
-3.95585
-3.37143
-2.85132
-2.38744
-1.97775
-1.61294
-1.28725
-0.995163
-0.736018
-0.499559
-0.29457
-0.115778
-17.9086
-17.9153
-17.8863
-17.7924
-17.676
-18.2501
-18.8442
-19.2056
-19.4731
-19.7283
-19.906
-19.896
-19.6866
-19.2211
-18.4022
-17.8937
-17.2872
-16.394
-15.2796
-14.0819
-12.8515
-11.6227
-10.4018
-9.20794
-8.09862
-7.13657
-6.24513
-5.38854
-4.62017
-3.95853
-3.37304
-2.85286
-2.38832
-1.97998
-1.61424
-1.29245
-0.995757
-0.736597
-0.487566
-0.278072
-0.1108
-17.9186
-17.9284
-17.9048
-17.8168
-17.7017
-18.2773
-18.854
-19.2211
-19.4839
-19.7362
-19.8924
-19.8772
-19.6878
-19.226
-18.3918
-17.8888
-17.2883
-16.4019
-15.2831
-14.0849
-12.8526
-11.6238
-10.3995
-9.20706
-8.09988
-7.13945
-6.24588
-5.39045
-4.6217
-3.95983
-3.37294
-2.85312
-2.38776
-1.97989
-1.61471
-1.29298
-0.994564
-0.731894
-0.48095
-0.271543
-0.108879
-17.9286
-17.9398
-17.9197
-17.8395
-17.7474
-18.2442
-18.8667
-19.2403
-19.5146
-19.7551
-19.9036
-19.8984
-19.6921
-19.2277
-18.3884
-17.8897
-17.2923
-16.4055
-15.2865
-14.0868
-12.8549
-11.6244
-10.401
-9.2074
-8.10466
-7.14375
-6.24794
-5.39242
-4.62514
-3.9628
-3.37479
-2.85452
-2.38843
-1.98109
-1.61557
-1.29448
-0.994936
-0.731577
-0.479931
-0.273337
-0.111796
-17.9366
-17.9487
-17.9302
-17.854
-17.758
-18.2754
-18.8747
-19.2477
-19.5129
-19.7549
-19.907
-19.9145
-19.6972
-19.2269
-18.3829
-17.8819
-17.2899
-16.4084
-15.289
-14.0892
-12.8562
-11.6251
-10.4033
-9.19791
-8.10684
-7.14892
-6.24233
-5.38908
-4.62177
-3.96071
-3.3723
-2.85222
-2.38606
-1.97923
-1.61358
-1.29297
-0.99294
-0.729484
-0.478781
-0.271342
-0.109361
-17.9421
-17.9545
-17.9365
-17.8593
-17.7582
-18.3061
-18.8639
-19.2545
-19.4987
-19.7434
-19.9063
-19.8807
-19.6955
-19.2165
-18.3827
-17.8782
-17.2882
-16.4032
-15.2868
-14.088
-12.8555
-11.625
-10.3994
-9.20171
-8.10298
-7.14177
-6.24151
-5.38575
-4.61957
-3.95979
-3.37244
-2.85302
-2.3867
-1.97989
-1.61396
-1.29342
-0.993352
-0.731203
-0.479934
-0.274202
-0.11304
-17.945
-17.9572
-17.9388
-17.8633
-17.7757
-18.307
-18.8712
-19.2422
-19.5079
-19.7482
-19.9028
-19.8888
-19.679
-19.217
-18.3998
-17.8807
-17.2763
-16.3911
-15.2797
-14.0833
-12.8505
-11.62
-10.4005
-9.19578
-8.09559
-7.13301
-6.23179
-5.38335
-4.61348
-3.95321
-3.3667
-2.84844
-2.38301
-1.97693
-1.61076
-1.2908
-0.991268
-0.732859
-0.481568
-0.276137
-0.113336
-17.9456
-17.9569
-17.9368
-17.8582
-17.7558
-18.332
-18.8813
-19.2286
-19.4856
-19.7323
-19.8895
-19.8799
-19.6723
-19.2102
-18.448
-17.887
-17.2552
-16.373
-15.2706
-14.0759
-12.8448
-11.6131
-10.3993
-9.19896
-8.08822
-7.11901
-6.22766
-5.38385
-4.61213
-3.94907
-3.36353
-2.84662
-2.38203
-1.97643
-1.60919
-1.29022
-0.991138
-0.739883
-0.489953
-0.282972
-0.114318
-17.9458
-17.954
-17.9308
-17.8485
-17.7471
-18.3174
-18.8738
-19.2191
-19.4781
-19.7202
-19.8666
-19.8623
-19.66
-19.1987
-18.4754
-17.8832
-17.2357
-16.3568
-15.258
-14.065
-12.834
-11.6044
-10.3896
-9.20025
-8.07725
-7.10774
-6.22399
-5.37782
-4.60761
-3.94469
-3.36117
-2.84398
-2.38081
-1.97379
-1.60805
-1.28795
-0.994139
-0.745275
-0.497389
-0.300133
-0.122069
-17.9534
-17.9476
-17.9184
-17.8279
-17.7345
-18.3039
-18.8749
-19.2161
-19.4842
-19.7108
-19.8707
-19.8775
-19.6688
-19.2059
-18.485
-17.8995
-17.2434
-16.3579
-15.2582
-14.0613
-12.8324
-11.6015
-10.3917
-9.19068
-8.08097
-7.11072
-6.22114
-5.3785
-4.60891
-3.94646
-3.36603
-2.84584
-2.38452
-1.97419
-1.61108
-1.28494
-0.998537
-0.763194
-0.500613
-0.342808
-0.126318
-18.0186
-17.9316
-17.9008
-17.7887
-17.6537
-18.3531
-18.8768
-19.173
-19.439
-19.7
-19.8628
-19.8804
-19.6881
-19.2334
-18.4482
-17.8998
-17.2468
-16.3557
-15.2541
-14.0548
-12.8277
-11.5955
-10.3897
-9.18716
-8.08059
-7.11004
-6.22092
-5.37881
-4.61092
-3.94803
-3.36886
-2.84717
-2.38711
-1.97469
-1.61375
-1.28635
-1.00362
-0.769951
-0.508471
-0.345463
-0.0949682
-18.0112
-17.413
-16.6882
-15.8066
-14.8023
-13.7294
-12.6167
-11.496
-10.3784
-9.30041
-8.28191
-7.34179
-6.45987
-5.64538
-4.90149
-4.23699
-3.6356
-3.09872
-2.61511
-2.18597
-1.79629
-1.44393
-1.13568
-0.844569
-17.9683
-17.9557
-17.9405
-17.931
-18.0091
-18.322
-18.6708
-18.9209
-19.106
-19.2391
-19.3057
-19.2648
-19.087
-18.6556
-17.9792
-17.4237
-16.6928
-15.8093
-14.8084
-13.733
-12.6225
-11.498
-10.3847
-9.30245
-8.28315
-7.33909
-6.46189
-5.64645
-4.90313
-4.23687
-3.63768
-3.09908
-2.61609
-2.18491
-1.79609
-1.44351
-1.11852
-0.823762
-0.583773
-0.375236
-0.146159
-17.9691
-17.9641
-17.9534
-17.951
-18.0347
-18.3373
-18.6808
-18.9319
-19.1117
-19.2375
-19.3008
-19.253
-19.0757
-18.6366
-17.9722
-17.424
-16.6909
-15.807
-14.8028
-13.7299
-12.6174
-11.4958
-10.3802
-9.30152
-8.27926
-7.33685
-6.46077
-5.64752
-4.90052
-4.23733
-3.63606
-3.10069
-2.61411
-2.18566
-1.79366
-1.4425
-1.11042
-0.8233
-0.562009
-0.33482
-0.145903
-17.9761
-17.9744
-17.9686
-17.9724
-18.059
-18.3563
-18.6972
-18.9456
-19.1207
-19.2443
-19.2964
-19.24
-19.0637
-18.6313
-17.9576
-17.4262
-16.7021
-15.8121
-14.8057
-13.7296
-12.619
-11.495
-10.3806
-9.3
-8.28024
-7.33807
-6.46348
-5.64862
-4.90135
-4.23704
-3.63647
-3.10044
-2.61451
-2.18563
-1.79413
-1.44497
-1.11888
-0.827352
-0.555
-0.320832
-0.136611
-17.9852
-17.9854
-17.9828
-17.9902
-18.0775
-18.3718
-18.7092
-18.9557
-19.1285
-19.2529
-19.2958
-19.2348
-19.056
-18.6169
-17.9494
-17.4297
-16.7116
-15.8206
-14.8079
-13.7316
-12.6177
-11.4942
-10.3769
-9.29805
-8.27728
-7.33701
-6.46064
-5.64731
-4.89871
-4.23516
-3.63355
-3.09883
-2.61254
-2.18491
-1.79283
-1.44506
-1.11896
-0.82698
-0.547033
-0.313114
-0.134775
-17.9939
-17.9951
-17.9946
-18.0051
-18.0934
-18.3814
-18.7171
-18.9641
-19.1321
-19.2519
-19.2994
-19.2367
-19.0544
-18.6153
-17.9475
-17.4295
-16.7152
-15.822
-14.809
-13.7311
-12.6182
-11.4935
-10.3773
-9.29794
-8.27884
-7.33905
-6.46258
-5.64868
-4.90056
-4.23614
-3.63416
-3.09897
-2.61292
-2.18532
-1.7934
-1.4458
-1.11993
-0.827716
-0.549088
-0.311853
-0.131078
-18.0012
-18.0028
-18.0039
-18.0158
-18.1042
-18.3908
-18.7234
-18.9697
-19.1377
-19.2528
-19.3007
-19.2364
-19.0524
-18.6134
-17.9432
-17.4303
-16.718
-15.8258
-14.8107
-13.7331
-12.6182
-11.4935
-10.3756
-9.29546
-8.27458
-7.33876
-6.45876
-5.64554
-4.89684
-4.23293
-3.63057
-3.096
-2.60992
-2.18305
-1.79097
-1.4438
-1.118
-0.82574
-0.544218
-0.311366
-0.134106
-18.0063
-18.0082
-18.0098
-18.0221
-18.1114
-18.3986
-18.7281
-18.9717
-19.1401
-19.2572
-19.2977
-19.2315
-19.0489
-18.6116
-17.9417
-17.4264
-16.7115
-15.8195
-14.8077
-13.7306
-12.6173
-11.4923
-10.375
-9.29426
-8.27496
-7.33641
-6.45834
-5.64474
-4.89683
-4.23383
-3.63239
-3.09805
-2.61188
-2.1848
-1.79238
-1.44504
-1.11871
-0.826604
-0.548985
-0.312533
-0.131523
-18.0093
-18.0111
-18.0121
-18.0248
-18.1162
-18.4038
-18.7303
-18.9703
-19.1342
-19.2538
-19.2952
-19.2284
-19.0442
-18.6066
-17.9417
-17.4154
-16.6951
-15.8096
-14.8024
-13.7281
-12.6147
-11.4911
-10.3738
-9.29331
-8.27019
-7.33321
-6.45381
-5.64257
-4.89409
-4.23138
-3.63034
-3.09634
-2.60996
-2.18312
-1.7902
-1.44289
-1.11457
-0.823702
-0.550242
-0.314212
-0.131293
-18.0101
-18.0113
-18.0112
-18.0232
-18.1145
-18.4055
-18.7313
-18.9659
-19.1267
-19.2518
-19.2892
-19.2239
-19.0398
-18.6085
-17.9448
-17.3962
-16.6734
-15.7964
-14.7981
-13.7252
-12.6144
-11.4906
-10.3758
-9.29468
-8.27034
-7.3302
-6.45343
-5.64318
-4.89567
-4.23231
-3.6321
-3.09823
-2.61173
-2.184
-1.79156
-1.44126
-1.10813
-0.821898
-0.55846
-0.326867
-0.1376
-18.0098
-18.0095
-18.0074
-18.0171
-18.1088
-18.4015
-18.727
-18.9599
-19.1191
-19.2448
-19.2831
-19.22
-19.0385
-18.616
-17.9469
-17.3842
-16.6552
-15.7829
-14.7877
-13.7169
-12.6069
-11.4851
-10.3715
-9.29197
-8.26804
-7.32547
-6.45211
-5.64172
-4.89466
-4.23137
-3.6318
-3.09756
-2.61127
-2.18274
-1.78971
-1.4379
-1.1075
-0.824898
-0.565718
-0.337916
-0.14048
-18.0104
-18.0064
-18.0011
-18.0077
-18.0986
-18.3953
-18.7203
-18.9527
-19.1155
-19.2322
-19.2813
-19.2212
-19.0433
-18.6175
-17.9522
-17.387
-16.6564
-15.7812
-14.7883
-13.7158
-12.6086
-11.4849
-10.3749
-9.29163
-8.2708
-7.3272
-6.45504
-5.6431
-4.89783
-4.23316
-3.63514
-3.09913
-2.61364
-2.18419
-1.78961
-1.43535
-1.11174
-0.842531
-0.578645
-0.383647
-0.161765
-18.0156
-18.0028
-17.9961
-17.9985
-18.0865
-18.3926
-18.7154
-18.943
-19.1088
-19.2274
-19.281
-19.2234
-19.0466
-18.6112
-17.93
-17.3701
-16.6444
-15.7711
-14.7808
-13.7098
-12.6044
-11.4814
-10.3732
-9.29006
-8.2709
-7.32719
-6.45539
-5.64382
-4.89922
-4.23435
-3.6364
-3.0994
-2.61508
-2.18372
-1.79196
-1.44057
-1.12498
-0.853835
-0.588504
-0.381974
-0.131553
-17.4079
-16.7921
-16.1104
-15.3113
-14.4103
-13.4358
-12.4201
-11.3882
-10.3611
-9.35545
-8.39097
-7.48749
-6.6397
-5.85037
-5.11979
-4.45748
-3.85301
-3.30731
-2.8101
-2.36183
-1.95102
-1.58063
-1.24641
-0.936246
-18.0224
-18.0237
-18.0332
-18.0673
-18.1605
-18.3343
-18.5365
-18.706
-18.8228
-18.8795
-18.8632
-18.7537
-18.5371
-18.1147
-17.3926
-16.8019
-16.1118
-15.3093
-14.41
-13.4359
-12.4222
-11.3895
-10.3639
-9.35841
-8.39477
-7.48829
-6.64356
-5.85295
-5.12444
-4.45866
-3.85718
-3.30798
-2.8143
-2.36168
-1.95548
-1.57663
-1.23572
-0.904094
-0.646848
-0.429086
-0.162794
-18.0264
-18.0291
-18.0412
-18.078
-18.1718
-18.3432
-18.5438
-18.7123
-18.8271
-18.881
-18.8619
-18.7504
-18.535
-18.1022
-17.3958
-16.8053
-16.1075
-15.3076
-14.4066
-13.4347
-12.4189
-11.388
-10.36
-9.35668
-8.39019
-7.48554
-6.63936
-5.85227
-5.1201
-4.45788
-3.85211
-3.30823
-2.80881
-2.36323
-1.94962
-1.5796
-1.22954
-0.920354
-0.626267
-0.371163
-0.144039
-18.0331
-18.037
-18.0513
-18.0905
-18.1851
-18.3549
-18.5531
-18.7201
-18.8324
-18.8834
-18.86
-18.745
-18.5274
-18.0978
-17.3915
-16.8044
-16.111
-15.3101
-14.411
-13.4371
-12.4237
-11.3902
-10.3643
-9.35794
-8.394
-7.48731
-6.6441
-5.85405
-5.12401
-4.45866
-3.85552
-3.30869
-2.81204
-2.36355
-1.95338
-1.58124
-1.23656
-0.922427
-0.627569
-0.359304
-0.135449
-18.0407
-18.0456
-18.0613
-18.1023
-18.1971
-18.3653
-18.5617
-18.7269
-18.8372
-18.886
-18.8596
-18.7418
-18.5231
-18.0917
-17.3885
-16.8067
-16.1128
-15.3126
-14.41
-13.4369
-12.4205
-11.388
-10.3594
-9.35446
-8.38866
-7.48425
-6.63878
-5.85083
-5.11866
-4.45572
-3.85049
-3.30633
-2.80773
-2.36198
-1.94991
-1.58093
-1.23368
-0.921016
-0.621742
-0.351632
-0.133776
-18.0479
-18.0533
-18.0703
-18.1123
-18.2073
-18.3738
-18.5687
-18.7326
-18.8409
-18.8876
-18.8599
-18.7403
-18.5198
-18.0884
-17.3874
-16.8061
-16.115
-15.3135
-14.4125
-13.4382
-12.4234
-11.3895
-10.3622
-9.35578
-8.39163
-7.48643
-6.64162
-5.8524
-5.12104
-4.45747
-3.85264
-3.30813