/*--------------------------------*- C++ -*----------------------------------*\
  =========                 |
  \\      /  F ield         | OpenFOAM: The Open Source CFD Toolbox
   \\    /   O peration     | Website:  https://openfoam.org
    \\  /    A nd           | Version:  7
     \\/     M anipulation  |
\*---------------------------------------------------------------------------*/
FoamFile
{
    version     2.0;
    format      ascii;
    class       volVectorField;
    location    "700";
    object      U;
}
// * * * * * * * * * * * * * * * * * * * * * * * * * * * * * * * * * * * * * //

dimensions      [0 1 -1 0 0 0 0];

internalField   nonuniform List<vector> 
120313
(
(-2.93611 -0.0337117 0.000560978)
(-2.92862 -0.0234886 -0.0477898)
(-2.89069 -0.0333138 -0.067831)
(-2.77574 -0.0375604 -0.0963152)
(-2.61605 -0.0431893 -0.116248)
(-2.41944 -0.0463811 -0.133027)
(-2.19652 -0.0457567 -0.148557)
(-1.95174 -0.0493246 -0.164329)
(-1.6994 -0.0601062 -0.183669)
(-1.37138 -0.0676994 -0.197554)
(-1.04032 -0.0688378 -0.178845)
(-0.763687 -0.0637812 -0.175387)
(-0.463429 -0.0557112 -0.180296)
(-0.192511 -0.0525596 -0.182887)
(0.0731188 -0.0507002 -0.183299)
(0.32572 -0.0495991 -0.159619)
(0.56959 -0.0472011 -0.137895)
(0.792578 -0.0443727 -0.127573)
(1.00884 -0.0453804 -0.113961)
(1.19294 -0.040897 -0.104716)
(1.39151 -0.043894 -0.0925786)
(1.52783 -0.0368549 -0.0955095)
(1.73183 -0.0411435 -0.0868907)
(1.80774 -0.0342404 -0.0577233)
(-2.80883 -0.0101129 -0.00768617)
(-2.76621 -0.0044798 -0.0426467)
(-2.72651 -0.0082208 -0.0773079)
(-2.60058 -0.0114896 -0.110914)
(-2.43702 -0.0153876 -0.136128)
(-2.23787 -0.0173013 -0.159183)
(-2.02377 -0.0152494 -0.184923)
(-1.73635 -0.0190987 -0.207083)
(-1.42064 -0.0499226 -0.198254)
(-1.15405 -0.055813 -0.199539)
(-0.852368 -0.0499474 -0.202291)
(-0.571867 -0.0477898 -0.202535)
(-0.288251 -0.0431696 -0.207644)
(-0.0183044 -0.0422025 -0.216977)
(0.249668 -0.0409299 -0.192761)
(0.484079 -0.0417128 -0.161168)
(0.724246 -0.0383023 -0.151298)
(0.938076 -0.036066 -0.141893)
(1.14961 -0.0353464 -0.12942)
(1.32535 -0.0332073 -0.119731)
(1.52348 -0.0323622 -0.108868)
(1.65009 -0.0303157 -0.104282)
(1.83906 -0.0308547 -0.0955501)
(1.8676 -0.0252798 -0.061934)
(-2.81117 -0.0126223 -0.00768969)
(-2.76943 -0.0113217 -0.0460165)
(-2.72428 -0.0135844 -0.0879261)
(-2.59433 -0.0158498 -0.122424)
(-2.42615 -0.0184622 -0.146234)
(-2.22145 -0.0213791 -0.169946)
(-2.00073 -0.023954 -0.19878)
(-1.72281 -0.0302632 -0.226578)
(-1.39124 -0.0451825 -0.215346)
(-1.13798 -0.0476602 -0.209019)
(-0.826832 -0.0466488 -0.21597)
(-0.548383 -0.0446125 -0.217027)
(-0.265056 -0.0418463 -0.225271)
(0.00323729 -0.0411459 -0.233785)
(0.2752 -0.0407471 -0.204187)
(0.504085 -0.0403411 -0.169555)
(0.746366 -0.0374551 -0.159958)
(0.96041 -0.0351742 -0.151136)
(1.17223 -0.0332651 -0.137688)
(1.35091 -0.0316272 -0.128535)
(1.54688 -0.029345 -0.115614)
(1.68041 -0.0284356 -0.113288)
(1.86239 -0.0262916 -0.102187)
(1.88119 -0.0229422 -0.0659915)
(-2.80978 -0.00316641 -0.00670769)
(-2.77002 -0.00227587 -0.0468244)
(-2.72351 -0.00308584 -0.0900976)
(-2.59139 -0.0046202 -0.125549)
(-2.42087 -0.00666488 -0.150156)
(-2.21395 -0.00904299 -0.175034)
(-1.99242 -0.0118838 -0.205326)
(-1.7047 -0.0185227 -0.233831)
(-1.38146 -0.0249799 -0.221766)
(-1.12202 -0.026166 -0.216593)
(-0.810967 -0.0271162 -0.224023)
(-0.532382 -0.0264815 -0.22498)
(-0.249884 -0.0261085 -0.23407)
(0.0185249 -0.0256102 -0.240767)
(0.290194 -0.0252968 -0.209737)
(0.521124 -0.0242822 -0.174815)
(0.762863 -0.0233027 -0.164571)
(0.976927 -0.0219163 -0.155253)
(1.18885 -0.0204666 -0.141716)
(1.36904 -0.0190514 -0.132471)
(1.56468 -0.0173194 -0.119416)
(1.70118 -0.0157628 -0.117275)
(1.88121 -0.0137706 -0.105549)
(1.90231 -0.0139466 -0.0742738)
(-2.80781 -0.00139077 -0.00635114)
(-2.76865 -0.000987575 -0.0460364)
(-2.72248 -0.000135361 -0.0894862)
(-2.59042 -0.000238373 -0.125061)
(-2.41963 -0.00103851 -0.149837)
(-2.21216 -0.00213129 -0.175006)
(-1.99033 -0.0032116 -0.205718)
(-1.69974 -0.0042466 -0.233862)
(-1.37848 -0.00334241 -0.220933)
(-1.11626 -0.00476605 -0.2169)
(-0.805585 -0.00598068 -0.223676)
(-0.52577 -0.00626279 -0.225226)
(-0.243295 -0.00740695 -0.23461)
(0.0254898 -0.00770591 -0.240359)
(0.296448 -0.00785442 -0.208626)
(0.528962 -0.00737192 -0.174311)
(0.770397 -0.00819123 -0.164425)
(0.984787 -0.00832314 -0.155049)
(1.19695 -0.00787321 -0.141773)
(1.37731 -0.00703141 -0.132421)
(1.57268 -0.00592289 -0.119781)
(1.70976 -0.00409359 -0.117644)
(1.8894 -0.00302874 -0.105865)
(1.91035 -9.79133e-05 -0.0743851)
(-2.79842 0.00843389 -0.0051759)
(-2.76107 0.00700077 -0.0448171)
(-2.71706 0.00896768 -0.0866796)
(-2.58727 0.00944004 -0.121687)
(-2.4183 0.00908319 -0.146168)
(-2.21206 0.00857064 -0.170959)
(-1.99058 0.00747063 -0.201223)
(-1.70297 0.00741004 -0.228579)
(-1.37817 0.017249 -0.217187)
(-1.11666 0.0170373 -0.213439)
(-0.806705 0.0144971 -0.220211)
(-0.525171 0.0138397 -0.222372)
(-0.242777 0.0108672 -0.230961)
(0.0265459 0.0101608 -0.236571)
(0.296533 0.00994243 -0.205383)
(0.530593 0.0102569 -0.172532)
(0.771358 0.00829015 -0.163388)
(0.985673 0.00742165 -0.153636)
(1.19753 0.00766227 -0.140495)
(1.37644 0.00824225 -0.130725)
(1.57134 0.00893095 -0.11869)
(1.70673 0.0108649 -0.116372)
(1.88735 0.0120212 -0.104793)
(1.90636 0.0112156 -0.0682266)
(-2.78104 0.00630754 -0.00716336)
(-2.74309 -0.000261109 -0.0424289)
(-2.70396 0.00227585 -0.0781212)
(-2.57844 0.00367934 -0.112639)
(-2.41442 0.00457677 -0.138839)
(-2.21379 0.00307908 -0.162743)
(-1.99947 -0.0026437 -0.189846)
(-1.69496 -0.00159962 -0.21117)
(-1.39311 0.0276696 -0.203845)
(-1.11307 0.0279504 -0.207648)
(-0.817102 0.0236066 -0.209504)
(-0.531268 0.0231007 -0.211817)
(-0.249009 0.0193673 -0.218166)
(0.0215579 0.0188918 -0.224877)
(0.289366 0.0178087 -0.196446)
(0.525687 0.0183725 -0.166658)
(0.765166 0.0160431 -0.158215)
(0.979054 0.0147247 -0.147427)
(1.19026 0.0157572 -0.134752)
(1.366 0.0153557 -0.125108)
(1.56305 0.0172241 -0.113714)
(1.69041 0.017503 -0.110411)
(1.87925 0.020959 -0.101958)
(1.90996 0.018239 -0.0678548)
(-2.8862 0.0278719 -0.00311378)
(-2.87979 0.017406 -0.051391)
(-2.8433 0.0282424 -0.0707208)
(-2.72821 0.033018 -0.0985895)
(-2.57015 0.0379445 -0.118448)
(-2.37323 0.0390424 -0.136218)
(-2.14896 0.0357956 -0.153477)
(-1.90273 0.0389109 -0.171541)
(-1.6533 0.0489003 -0.194745)
(-1.2946 0.0576154 -0.201815)
(-0.9976 0.0582313 -0.181486)
(-0.702869 0.0546368 -0.18677)
(-0.413845 0.0491359 -0.188946)
(-0.140734 0.0466918 -0.194205)
(0.122484 0.0441487 -0.18674)
(0.375402 0.0447579 -0.164005)
(0.616859 0.0422655 -0.144825)
(0.838661 0.0395962 -0.132648)
(1.05294 0.041542 -0.118839)
(1.23744 0.037633 -0.109707)
(1.43322 0.0426528 -0.0984958)
(1.57542 0.0367837 -0.103653)
(1.77879 0.0448669 -0.0921472)
(1.85656 0.0449509 -0.0616837)
(-0.376171 0.00805059 0.383884)
(-0.709749 0.000195774 0.302916)
(-0.965811 -0.00392121 0.255122)
(-1.19256 -0.00625062 0.234136)
(-1.40235 -0.00793105 0.220426)
(-1.59341 -0.00912631 0.205508)
(-1.75903 -0.00881667 0.187311)
(-1.91048 -0.00643567 0.16499)
(-2.04502 -0.00186041 0.134934)
(-2.17552 0.011415 0.079321)
(-2.19907 0.011667 0.0117404)
(-2.14561 0.00154785 -0.0436623)
(-2.02997 -0.00206688 -0.0908242)
(-1.86843 -0.00494638 -0.12267)
(-1.67266 -0.00614709 -0.146583)
(-1.45153 -0.00774878 -0.165399)
(-1.20971 -0.00997983 -0.180188)
(-0.951349 -0.0128924 -0.192202)
(-0.680644 -0.0157825 -0.20039)
(-0.399708 -0.0181176 -0.208976)
(-0.118715 -0.0218021 -0.213448)
(0.159899 -0.0189155 -0.208276)
(0.429893 -0.0162595 -0.202052)
(0.683994 -0.0158218 -0.194257)
(0.92885 -0.0157563 -0.180236)
(1.15702 -0.0144759 -0.166821)
(1.36885 -0.0142765 -0.153528)
(1.56651 -0.0138022 -0.140621)
(1.75237 -0.0131339 -0.129654)
(1.92515 -0.0120569 -0.121434)
(2.08394 -0.0101811 -0.113491)
(2.23271 -0.00728819 -0.10733)
(2.37024 -0.00665657 -0.098037)
(2.50268 -0.00193718 -0.0888468)
(2.61092 0.00796818 -0.0855561)
(2.74298 0.0281893 -0.082721)
(-0.392472 0.0158592 0.379322)
(-0.712587 -0.00208744 0.299186)
(-0.966733 -0.0085666 0.251884)
(-1.19416 -0.0124006 0.230893)
(-1.40593 -0.0152887 0.21698)
(-1.60002 -0.0175089 0.201813)
(-1.77177 -0.0181892 0.183792)
(-1.94568 -0.0142577 0.164012)
(-2.07332 -0.00398421 0.134941)
(-1.82995 0.0153699 0.105139)
(-1.65523 0.0281872 -0.00282634)
(-1.56654 0.0079053 -0.0907715)
(-1.41398 0.00386658 -0.158085)
(-1.23672 -0.000565813 -0.204346)
(-1.03009 -0.00320968 -0.239844)
(-0.803112 -0.00535613 -0.270731)
(-0.558749 -0.0109561 -0.296305)
(-0.301316 -0.0215192 -0.31963)
(-0.0307453 -0.0299531 -0.335769)
(0.238187 -0.0363122 -0.334351)
(0.501912 -0.0381857 -0.329663)
(0.761666 -0.0363706 -0.322566)
(1.00949 -0.0353235 -0.31142)
(1.24748 -0.0343647 -0.298454)
(1.47343 -0.0325519 -0.280174)
(1.68472 -0.0301513 -0.260515)
(1.88092 -0.0274711 -0.242017)
(2.06323 -0.0261722 -0.222676)
(2.23041 -0.0240045 -0.206631)
(2.38911 -0.0244873 -0.189972)
(2.52458 -0.0197381 -0.174769)
(2.65634 -0.0195578 -0.168875)
(2.73678 -0.0146323 -0.139739)
(2.77006 -0.00109572 -0.11832)
(2.66178 0.0013 -0.117487)
(2.73168 0.0147952 -0.0988966)
(-0.352493 0.00315784 0.378178)
(-0.681576 -0.00554551 0.298741)
(-0.940815 -0.0107868 0.249235)
(-1.17023 -0.0149689 0.227217)
(-1.38308 -0.0179995 0.212144)
(-1.57763 -0.019873 0.194939)
(-1.74953 -0.0199108 0.173694)
(-1.92442 -0.018467 0.147895)
(-2.05382 -0.00479676 0.122538)
(-1.78486 0.0229825 0.108237)
(-1.48691 0.0314194 0.000618835)
(-1.36415 0.0186592 -0.108108)
(-1.18994 0.0142688 -0.182418)
(-1.00188 0.0105416 -0.23492)
(-0.787126 0.00848554 -0.274718)
(-0.55348 0.00743623 -0.317164)
(-0.303268 0.00199773 -0.354015)
(-0.0462554 -0.0121044 -0.367401)
(0.215432 -0.0228422 -0.374041)
(0.478491 -0.0260938 -0.375965)
(0.735783 -0.0269591 -0.370296)
(0.986811 -0.0256487 -0.361202)
(1.22807 -0.0238659 -0.349713)
(1.45755 -0.0238135 -0.333149)
(1.67374 -0.0240197 -0.311549)
(1.87848 -0.0224804 -0.2909)
(2.06727 -0.0208494 -0.271177)
(2.24361 -0.0200159 -0.250928)
(2.40299 -0.0184178 -0.233949)
(2.55723 -0.0185818 -0.217173)
(2.67766 -0.0159084 -0.198271)
(2.8031 -0.0177248 -0.193314)
(2.82394 -0.0138095 -0.154159)
(2.81414 -0.00660723 -0.125522)
(2.70143 -0.00756441 -0.132257)
(2.76468 -0.000631919 -0.10687)
(-0.328615 0.0162251 0.382351)
(-0.66832 0.00096663 0.297593)
(-0.928979 -0.00873314 0.246339)
(-1.15872 -0.0143657 0.223555)
(-1.37233 -0.0175467 0.207551)
(-1.56808 -0.0187654 0.188903)
(-1.74233 -0.0174063 0.166016)
(-1.92381 -0.0128066 0.141)
(-2.06156 -0.00313616 0.118072)
(-1.77797 0.00963666 0.1163)
(-1.42653 0.0185578 0.00715886)
(-1.28369 0.012946 -0.113575)
(-1.09615 0.0104913 -0.191892)
(-0.899288 0.00804757 -0.245647)
(-0.677161 0.00625462 -0.288262)
(-0.43734 0.00439048 -0.334784)
(-0.182938 -0.000841074 -0.377064)
(0.074733 -0.010855 -0.391601)
(0.331928 -0.0183433 -0.395734)
(0.594647 -0.021216 -0.397135)
(0.848751 -0.0224328 -0.390192)
(1.0969 -0.0221355 -0.380736)
(1.3349 -0.0216604 -0.37001)
(1.56116 -0.0220472 -0.352029)
(1.7743 -0.0219723 -0.328782)
(1.97657 -0.0207311 -0.307207)
(2.16257 -0.0192893 -0.286574)
(2.33667 -0.0182722 -0.265442)
(2.49325 -0.0168148 -0.247808)
(2.64565 -0.0163688 -0.230245)
(2.75993 -0.0143192 -0.211695)
(2.88219 -0.0147412 -0.200782)
(2.87287 -0.0104328 -0.158321)
(2.85586 -0.0084596 -0.134764)
(2.73895 -0.00931117 -0.139348)
(2.802 -0.00559866 -0.110625)
(-0.365115 0.022647 0.379124)
(-0.687458 0.00402315 0.293182)
(-0.940564 -0.00669295 0.243329)
(-1.16745 -0.0120477 0.221234)
(-1.38028 -0.014428 0.205411)
(-1.57581 -0.0145595 0.186843)
(-1.74903 -0.0124204 0.164152)
(-1.92763 -0.00889963 0.139039)
(-2.06173 -0.00299579 0.11853)
(-1.77448 0.00235513 0.118805)
(-1.40632 0.00707095 0.00832371)
(-1.25599 0.00652808 -0.115161)
(-1.06177 0.00630144 -0.195912)
(-0.859912 0.0055398 -0.250585)
(-0.633188 0.00450322 -0.294792)
(-0.389456 0.00277408 -0.343574)
(-0.132035 -0.000858442 -0.387246)
(0.125123 -0.00597138 -0.402538)
(0.382544 -0.00964953 -0.40655)
(0.645804 -0.0119573 -0.407442)
(0.899246 -0.0132695 -0.400053)
(1.1468 -0.0138544 -0.390337)
(1.38409 -0.0142445 -0.379805)
(1.60947 -0.0145108 -0.36168)
(1.82198 -0.0143836 -0.337883)
(2.02336 -0.0138615 -0.31526)
(2.20885 -0.0131815 -0.293821)
(2.38257 -0.0125273 -0.272133)
(2.53879 -0.011642 -0.254262)
(2.69084 -0.0108998 -0.236207)
(2.8036 -0.00952255 -0.21802)
(2.92408 -0.00877173 -0.204977)
(2.90537 -0.00647826 -0.161975)
(2.88377 -0.00621922 -0.139886)
(2.76857 -0.00654378 -0.145553)
(2.83211 -0.00422657 -0.114601)
(-0.380742 0.0189576 0.375532)
(-0.696103 0.00116641 0.289614)
(-0.944305 -0.00636869 0.241266)
(-1.16897 -0.00957037 0.219909)
(-1.38081 -0.0104659 0.204366)
(-1.5757 -0.00985903 0.186052)
(-1.74825 -0.00807427 0.16373)
(-1.92623 -0.00614332 0.139454)
(-2.0592 -0.00373057 0.11926)
(-1.77235 -0.00745362 0.119227)
(-1.40508 -0.00665427 0.00955308)
(-1.25449 -0.00276407 -0.114324)
(-1.06032 -0.000775814 -0.19515)
(-0.858038 0.000188596 -0.250021)
(-0.630542 -2.03671e-05 -0.294703)
(-0.385746 -0.000990539 -0.344357)
(-0.127092 -0.00171308 -0.388162)
(0.13094 -0.00131125 -0.403674)
(0.389828 -0.001472 -0.408134)
(0.654002 -0.00257888 -0.409222)
(0.908473 -0.00343984 -0.402157)
(1.1566 -0.00453399 -0.392545)
(1.39441 -0.0054256 -0.381957)
(1.61999 -0.00577554 -0.363697)
(1.83281 -0.00592308 -0.339686)
(2.03442 -0.00627671 -0.316919)
(2.21997 -0.00657896 -0.29558)
(2.39371 -0.00646179 -0.274009)
(2.54973 -0.00620005 -0.256072)
(2.70166 -0.0053326 -0.237979)
(2.81411 -0.00455129 -0.219606)
(2.93455 -0.00322134 -0.20645)
(2.91548 -0.00295978 -0.163055)
(2.89372 -0.000814508 -0.140596)
(2.78165 -0.000659762 -0.146952)
(2.84595 0.000631432 -0.115721)
(-0.3682 0.0151032 0.370958)
(-0.68171 -0.00270666 0.288595)
(-0.93033 -0.00628746 0.240809)
(-1.15517 -0.00677377 0.219404)
(-1.36713 -0.00575554 0.203699)
(-1.56246 -0.00409664 0.185248)
(-1.73617 -0.00258627 0.163122)
(-1.91575 -0.00254796 0.139698)
(-2.04939 -0.00297679 0.119057)
(-1.76661 -0.0123291 0.118016)
(-1.41872 -0.0180229 0.00985244)
(-1.27474 -0.0100963 -0.111081)
(-1.08674 -0.00616457 -0.190398)
(-0.88835 -0.00378457 -0.245124)
(-0.663761 -0.00348878 -0.289269)
(-0.42071 -0.00429717 -0.3385)
(-0.162754 -0.00284073 -0.380827)
(0.0972026 0.00280395 -0.39617)
(0.357736 0.00658477 -0.401456)
(0.622739 0.00656648 -0.403176)
(0.879046 0.00640336 -0.396826)
(1.12846 0.00501226 -0.387425)
(1.36759 0.00374774 -0.376575)
(1.59433 0.00352616 -0.35836)
(1.80793 0.00336096 -0.334944)
(2.01001 0.00244821 -0.312836)
(2.19551 0.00153586 -0.291948)
(2.36917 0.00141681 -0.270717)
(2.525 0.00112045 -0.25271)
(2.67687 0.00214953 -0.234976)
(2.79022 0.00201686 -0.216031)
(2.9121 0.00453711 -0.204954)
(2.90222 0.00282748 -0.161805)
(2.88487 0.0034167 -0.137249)
(2.77638 0.00518077 -0.143744)
(2.84083 0.00609624 -0.114098)
(-0.333872 0.00924066 0.36849)
(-0.655133 -0.00326469 0.28995)
(-0.907647 -0.0051026 0.241943)
(-1.13346 -0.00390089 0.220363)
(-1.34507 -0.00113563 0.204601)
(-1.53953 0.00222568 0.186024)
(-1.7129 0.00500463 0.163757)
(-1.89402 0.00486329 0.139607)
(-2.0319 0.00047459 0.114665)
(-1.75817 -0.0241885 0.111955)
(-1.46416 -0.0307695 0.00318004)
(-1.3391 -0.0170456 -0.106431)
(-1.16335 -0.0114056 -0.182587)
(-0.972855 -0.00794596 -0.237485)
(-0.754419 -0.00759509 -0.279796)
(-0.516185 -0.009223 -0.326237)
(-0.260441 -0.00645242 -0.362465)
(-0.000151495 0.00449668 -0.377104)
(0.265094 0.0118794 -0.385289)
(0.529698 0.0130865 -0.387228)
(0.78923 0.0135979 -0.381794)
(1.04106 0.0117575 -0.372213)
(1.28284 0.00966245 -0.361161)
(1.51218 0.00945481 -0.343855)
(1.72805 0.0094793 -0.321767)
(1.93182 0.00835345 -0.300497)
(2.11902 0.00720414 -0.280226)
(2.29405 0.00717833 -0.259658)
(2.45172 0.00640127 -0.242256)
(2.60465 0.00788816 -0.225246)
(2.72329 0.00667968 -0.206017)
(2.8475 0.0103597 -0.200657)
(2.86687 0.0089749 -0.161659)
(2.85737 0.00579639 -0.130208)
(2.75548 0.00950419 -0.136546)
(2.81998 0.00992589 -0.109354)
(-0.3346 0.0182217 0.366513)
(-0.653218 -0.000903194 0.290156)
(-0.904011 -0.00438228 0.244125)
(-1.12905 -0.00276601 0.223589)
(-1.33993 0.000955837 0.208942)
(-1.53354 0.00559374 0.191743)
(-1.70646 0.00993707 0.171399)
(-1.88601 0.0131816 0.151033)
(-2.03005 0.00674053 0.126846)
(-1.79389 -0.018297 0.110696)
(-1.61153 -0.0245006 0.00102579)
(-1.52017 -0.00543748 -0.0902691)
(-1.36466 0.000202853 -0.159693)
(-1.18504 0.00430074 -0.210849)
(-0.974241 0.00520865 -0.248968)
(-0.742155 0.00482895 -0.282806)
(-0.492945 0.00862405 -0.310158)
(-0.230657 0.0171147 -0.336449)
(0.0434542 0.0246932 -0.34917)
(0.310367 0.0298259 -0.346977)
(0.576555 0.0308583 -0.343696)
(0.833884 0.028579 -0.335543)
(1.08126 0.0266744 -0.325277)
(1.31774 0.0253335 -0.311019)
(1.54122 0.0234079 -0.291985)
(1.75023 0.0217603 -0.271115)
(1.94356 0.0198905 -0.251519)
(2.12346 0.0196028 -0.2317)
(2.28792 0.0176826 -0.215161)
(2.4445 0.0190375 -0.198468)
(2.57707 0.014936 -0.182983)
(2.70604 0.0170708 -0.176755)
(2.78033 0.0153396 -0.145331)
(2.8099 0.0073377 -0.121359)
(2.71995 0.0114324 -0.131765)
(2.78695 0.00959359 -0.105275)
(-0.347263 0.0131104 0.360257)
(-0.655974 -0.00459773 0.289941)
(-0.90356 -0.00650258 0.246844)
(-1.12808 -0.00411358 0.228206)
(-1.33849 -0.000317672 0.215707)
(-1.53044 0.00416396 0.201583)
(-1.69852 0.00828188 0.185041)
(-1.86453 0.00862073 0.169543)
(-1.9903 0.00190515 0.144237)
(-1.83445 -0.0227357 0.10158)
(-1.78067 -0.025033 -0.00210025)
(-1.70906 -0.00485773 -0.0710045)
(-1.571 -4.45066e-05 -0.132927)
(-1.39763 0.00421187 -0.177562)
(-1.19105 0.00572252 -0.211916)
(-0.961412 0.00679277 -0.240805)
(-0.712821 0.0100626 -0.264303)
(-0.449994 0.0159045 -0.283608)
(-0.177742 0.0225283 -0.292902)
(0.0961944 0.0293526 -0.295927)
(0.368086 0.0324252 -0.296721)
(0.630281 0.0311496 -0.290492)
(0.88348 0.0303537 -0.281469)
(1.12442 0.0294841 -0.268831)
(1.34978 0.0272388 -0.250578)
(1.56317 0.0250841 -0.232425)
(1.76046 0.0225014 -0.214407)
(1.9433 0.0215943 -0.196457)
(2.11252 0.0198445 -0.180748)
(2.26983 0.0201625 -0.166415)
(2.41425 0.0159569 -0.152687)
(2.54556 0.0161588 -0.144643)
(2.67179 0.0141222 -0.127479)
(2.75773 0.00327715 -0.117404)
(2.6899 0.00862818 -0.129335)
(2.76139 0.00421878 -0.101572)
(-0.355531 0.00859567 0.354213)
(-0.648344 -0.0111152 0.290157)
(-0.894691 -0.00880514 0.248415)
(-1.12204 -0.00536659 0.230046)
(-1.33609 -0.00239887 0.218093)
(-1.53201 -0.000195891 0.205374)
(-1.70349 0.00020336 0.19111)
(-1.87375 -0.00485446 0.175989)
(-2.04409 -0.0209877 0.131397)
(-2.20242 -0.0144072 0.0759819)
(-2.22662 -0.00774593 0.0154754)
(-2.18327 0.00715014 -0.0376135)
(-2.06787 0.0135298 -0.0863147)
(-1.90693 0.017069 -0.119487)
(-1.70989 0.0182082 -0.145161)
(-1.48574 0.018902 -0.166055)
(-1.24005 0.0204757 -0.182845)
(-0.977401 0.0233155 -0.196268)
(-0.702405 0.0266493 -0.204392)
(-0.419546 0.0297563 -0.208458)
(-0.13502 0.0320175 -0.219301)
(0.143535 0.0280274 -0.213925)
(0.414054 0.0249562 -0.206961)
(0.670648 0.022935 -0.199456)
(0.913234 0.0214445 -0.18474)
(1.14175 0.0194161 -0.170197)
(1.35352 0.016911 -0.155572)
(1.55106 0.0154225 -0.141364)
(1.73435 0.0144224 -0.129703)
(1.90435 0.013509 -0.120366)
(2.06278 0.0114077 -0.111678)
(2.21104 0.00810069 -0.102761)
(2.35002 0.00501392 -0.0930996)
(2.48118 -0.00170185 -0.0836657)
(2.60748 0.00311915 -0.0796071)
(2.73995 -0.00389939 -0.0906003)
(-0.287465 -0.0370169 0.348399)
(-0.592087 -0.0146967 0.296857)
(-0.851501 -0.00605992 0.24993)
(-1.08512 -0.00250585 0.22868)
(-1.3028 -0.000482685 0.213956)
(-1.50221 0.00080902 0.197251)
(-1.67835 0.000878851 0.176843)
(-1.83424 -0.00304595 0.156983)
(-1.97167 -0.0171613 0.14589)
(-2.1046 -0.00852778 0.0763345)
(-2.13009 -0.00179477 0.00910716)
(-2.08136 0.00263437 -0.0480774)
(-1.96975 0.00501515 -0.0974234)
(-1.81001 0.00679854 -0.130692)
(-1.61533 0.00807852 -0.15619)
(-1.3936 0.00931748 -0.175986)
(-1.15036 0.0108874 -0.191034)
(-0.889788 0.0131387 -0.201654)
(-0.615952 0.0156438 -0.208701)
(-0.334279 0.0178035 -0.21294)
(-0.0521387 0.0206756 -0.222657)
(0.224001 0.0203567 -0.215928)
(0.495564 0.0206902 -0.206338)
(0.752262 0.0196693 -0.197396)
(0.996407 0.018295 -0.184151)
(1.22609 0.0158371 -0.171596)
(1.44033 0.0134638 -0.159351)
(1.64011 0.0117962 -0.148195)
(1.82476 0.010436 -0.138491)
(1.99605 0.00885669 -0.130838)
(2.15421 0.00688737 -0.121406)
(2.30163 0.0044519 -0.112784)
(2.43621 0.00365183 -0.101552)
(2.56717 0.00049859 -0.098292)
(2.67596 -0.000374793 -0.0910319)
(2.8042 -0.00224036 -0.10473)
(0.0629963 -0.00812632 0.0411126)
(0.082544 -0.00649787 -0.135315)
(0.233474 -0.00447521 -0.251189)
(0.392324 -0.00206046 -0.34182)
(0.577836 -0.00149809 -0.408141)
(0.77986 -0.00118754 -0.457227)
(0.995281 -0.000930816 -0.496184)
(1.2171 -0.000820998 -0.524757)
(1.44143 -0.001031 -0.542926)
(1.66393 -0.00162534 -0.552525)
(1.88354 -0.00240682 -0.553735)
(2.09512 -0.00319195 -0.545109)
(2.29712 -0.00308267 -0.526648)
(2.48707 -0.00292571 -0.502294)
(2.66753 -0.00289256 -0.475926)
(2.83457 -0.00302755 -0.445997)
(2.99087 -0.00293188 -0.416696)
(3.13552 -0.00302128 -0.387511)
(3.2684 -0.00305314 -0.36054)
(3.39152 -0.00340121 -0.334133)
(3.50549 -0.00313096 -0.311889)
(3.60883 -0.00338593 -0.289318)
(3.70563 -2.72878e-05 -0.272325)
(3.79598 0.000517662 -0.253787)
(-0.2113 0.0118029 0.631943)
(-0.339655 0.00391835 0.487811)
(-0.431715 0.000284533 0.420378)
(-0.520596 -0.00166403 0.390656)
(-0.597219 -0.00387746 0.361549)
(-0.651142 -0.00700717 0.323214)
(-0.677761 -0.0108855 0.274456)
(-0.669317 -0.0133713 0.222203)
(-0.475393 -0.0161467 0.160239)
(-0.0730649 0.00738946 0.0597112)
(0.00440752 0.0220865 -0.127538)
(0.153959 0.0114615 -0.238131)
(0.314512 0.0103964 -0.328313)
(0.500007 0.0097309 -0.394428)
(0.70281 0.00914833 -0.444731)
(0.91829 0.00893102 -0.484645)
(1.14203 0.00824885 -0.514372)
(1.36879 0.00553746 -0.533703)
(1.59614 0.00245256 -0.543688)
(1.81883 -0.00154304 -0.542997)
(2.03392 -0.00440917 -0.534446)
(2.23922 -0.00462708 -0.517827)
(2.43302 -0.00464399 -0.494182)
(2.6146 -0.00460346 -0.46754)
(2.78569 -0.00481364 -0.438976)
(2.94328 -0.00465354 -0.410276)
(3.09076 -0.00477178 -0.382278)
(3.22443 -0.00503176 -0.354787)
(3.35012 -0.00571093 -0.32948)
(3.46367 -0.00574089 -0.306062)
(3.57044 -0.00604521 -0.285146)
(3.66136 -0.00365338 -0.265527)
(3.76619 -0.00789376 -0.250124)
(3.82686 -0.005978 -0.227792)
(3.73032 0.000296316 -0.222716)
(3.79039 0.00256396 -0.208606)
(-0.209711 0.0227168 0.631481)
(-0.33129 0.00590943 0.485494)
(-0.422039 -0.000103659 0.416192)
(-0.510152 -0.0033469 0.386055)
(-0.587097 -0.00649118 0.355936)
(-0.643727 -0.0109719 0.316223)
(-0.680904 -0.0163202 0.267486)
(-0.701901 -0.0200592 0.221087)
(-0.552221 -0.018463 0.17231)
(-0.0589336 0.0114359 0.0544675)
(0.111927 0.0267667 -0.144655)
(0.28808 0.0186583 -0.253392)
(0.467557 0.0171075 -0.342402)
(0.662592 0.0158552 -0.408571)
(0.871414 0.0147694 -0.460591)
(1.08968 0.0143929 -0.501869)
(1.31304 0.0125257 -0.532406)
(1.53752 0.00612539 -0.551167)
(1.76101 4.74572e-05 -0.559701)
(1.97739 -0.00445224 -0.55608)
(2.18688 -0.00729051 -0.544747)
(2.38639 -0.00794321 -0.526306)
(2.57504 -0.00799689 -0.50249)
(2.75069 -0.00822643 -0.476167)
(2.91676 -0.0084498 -0.448503)
(3.06923 -0.00790803 -0.419719)
(3.21217 -0.0071642 -0.39256)
(3.34176 -0.00715562 -0.365029)
(3.46221 -0.00667374 -0.340499)
(3.57055 -0.00744196 -0.315979)
(3.6679 -0.00565545 -0.295767)
(3.74922 -0.00622743 -0.274801)
(3.81247 -0.000667845 -0.258033)
(3.87209 -0.00722905 -0.234841)
(3.92142 0.00134899 -0.241693)
(4.12999 -0.00254801 -0.254994)
(-0.187007 0.0183159 0.62966)
(-0.310398 0.00605965 0.484477)
(-0.402653 -0.000317182 0.411981)
(-0.490857 -0.00463314 0.380959)
(-0.568718 -0.00771218 0.34975)
(-0.627514 -0.0112835 0.307434)
(-0.67064 -0.0145866 0.256382)
(-0.706303 -0.014533 0.212438)
(-0.566699 -0.00606811 0.171766)
(-0.00107456 0.0167391 0.051436)
(0.250531 0.0293896 -0.158263)
(0.460538 0.0249911 -0.273076)
(0.663491 0.0227219 -0.362632)
(0.872861 0.020531 -0.431874)
(1.09185 0.0191225 -0.486824)
(1.31631 0.018683 -0.531302)
(1.54167 0.0164325 -0.565021)
(1.76328 0.00886856 -0.582586)
(1.98031 0.00159638 -0.58868)
(2.19158 -0.00203293 -0.585189)
(2.39524 -0.0044023 -0.571723)
(2.58745 -0.00532586 -0.551928)
(2.76973 -0.0053874 -0.528633)
(2.93839 -0.00625111 -0.500984)
(3.09722 -0.00710385 -0.470961)
(3.2443 -0.00687612 -0.441222)
(3.3808 -0.00636072 -0.413505)
(3.50503 -0.0063848 -0.385278)
(3.61837 -0.00569628 -0.360334)
(3.72051 -0.00642018 -0.335035)
(3.8038 -0.00488594 -0.313828)
(3.8739 -0.00644873 -0.290687)
(3.89707 -0.00363183 -0.273186)
(3.94085 -0.00427358 -0.247843)
(3.97589 0.000345637 -0.259997)
(4.22141 0.00127722 -0.270701)
(-0.168701 0.024725 0.630679)
(-0.297998 0.0102325 0.482613)
(-0.390328 0.000253799 0.407725)
(-0.478018 -0.00561672 0.376266)
(-0.556655 -0.00918241 0.344713)
(-0.616863 -0.0116884 0.30103)
(-0.661806 -0.0126718 0.24893)
(-0.699253 -0.0105112 0.206785)
(-0.559144 -0.00314363 0.172094)
(0.0286025 0.00796921 0.0559303)
(0.326103 0.0186635 -0.161307)
(0.55873 0.0185932 -0.282169)
(0.781086 0.0178276 -0.374479)
(1.00216 0.0162073 -0.445553)
(1.22955 0.0151491 -0.502453)
(1.45992 0.0143998 -0.548238)
(1.68866 0.012153 -0.584849)
(1.90894 0.00713108 -0.604475)
(2.12421 0.00212618 -0.609655)
(2.33328 -0.00131034 -0.604889)
(2.53318 -0.00375637 -0.58995)
(2.72304 -0.00499014 -0.569695)
(2.90159 -0.00568279 -0.546576)
(3.06694 -0.00669233 -0.518061)
(3.22205 -0.0073152 -0.487138)
(3.3662 -0.00716103 -0.456736)
(3.49918 -0.00672636 -0.428542)
(3.62048 -0.00667184 -0.399506)
(3.72947 -0.00606144 -0.374185)
(3.82809 -0.00645377 -0.347763)
(3.90234 -0.00511387 -0.326695)
(3.96442 -0.00634587 -0.301572)
(3.96771 -0.00423256 -0.283952)
(4.00155 -0.00393686 -0.258544)
(4.03338 -0.00033179 -0.273723)
(4.28775 0.000482389 -0.281614)
(-0.187091 0.0280616 0.628263)
(-0.304717 0.0108766 0.476168)
(-0.391262 -0.000638119 0.402577)
(-0.476905 -0.00696632 0.37253)
(-0.555281 -0.0105819 0.341279)
(-0.61553 -0.0120925 0.297729)
(-0.660227 -0.0114071 0.246318)
(-0.696105 -0.00853971 0.205051)
(-0.552586 -0.00360663 0.172035)
(0.040276 -0.000346066 0.058653)
(0.355037 0.0056318 -0.160855)
(0.597999 0.00781782 -0.28467)
(0.83013 0.00910126 -0.378975)
(1.05761 0.0094907 -0.451381)
(1.29035 0.00955093 -0.509647)
(1.5248 0.00913168 -0.556759)
(1.75595 0.00753283 -0.594956)
(1.97683 0.00488589 -0.615602)
(2.193 0.00225725 -0.620663)
(2.40266 -0.000185052 -0.615215)
(2.6015 -0.00209539 -0.599825)
(2.79116 -0.00341151 -0.579513)
(2.969 -0.00446489 -0.556556)
(3.13293 -0.00533911 -0.527956)
(3.28737 -0.0057682 -0.497037)
(3.43016 -0.00589774 -0.465964)
(3.56358 -0.00587663 -0.437168)
(3.68395 -0.0059235 -0.407487)
(3.79248 -0.00564566 -0.381985)
(3.88947 -0.00560281 -0.354893)
(3.96078 -0.00477394 -0.333837)
(4.01906 -0.00489363 -0.307621)
(4.01451 -0.00354288 -0.291267)
(4.04346 -0.00341799 -0.264024)
(4.0739 -0.00106935 -0.280433)
(4.32991 -0.000448988 -0.287769)
(-0.196888 0.0242393 0.623759)
(-0.309553 0.00592869 0.470466)
(-0.392201 -0.00354758 0.399025)
(-0.476353 -0.00884156 0.370097)
(-0.554094 -0.0114555 0.339042)
(-0.613825 -0.0120385 0.295883)
(-0.658024 -0.0109466 0.245224)
(-0.693082 -0.00870605 0.204478)
(-0.549463 -0.006362 0.171466)
(0.0401468 -0.00909239 0.0593351)
(0.353334 -0.00869923 -0.159513)
(0.596344 -0.00548503 -0.283353)
(0.828539 -0.00246958 -0.377785)
(1.05669 -1.99039e-05 -0.450607)
(1.2904 0.00112102 -0.509418)
(1.52631 0.00115261 -0.557253)
(1.7591 0.000529597 -0.595985)
(1.98151 0.000283395 -0.616956)
(2.19961 5.95987e-05 -0.622436)
(2.41073 -0.000725395 -0.617286)
(2.61107 -0.00152836 -0.602216)
(2.80162 -0.00261058 -0.582088)
(2.98032 -0.0036022 -0.559275)
(3.14461 -0.00432634 -0.530653)
(3.29981 -0.00486102 -0.499468)
(3.44325 -0.00547983 -0.468298)
(3.57666 -0.00591518 -0.439551)
(3.69694 -0.00595419 -0.409945)
(3.80501 -0.00585447 -0.384384)
(3.9017 -0.00533362 -0.357203)
(3.97247 -0.00496707 -0.335966)
(4.0305 -0.00389909 -0.309547)
(4.02555 -0.00314025 -0.293131)
(4.05473 -0.00235471 -0.265744)
(4.08526 -0.00124973 -0.282036)
(4.34142 -0.000998128 -0.289565)
(-0.189917 0.0198344 0.61802)
(-0.302589 -0.0004104 0.469161)
(-0.385992 -0.00734268 0.398591)
(-0.470325 -0.0108536 0.369479)
(-0.547941 -0.0120626 0.33819)
(-0.607596 -0.0116858 0.294847)
(-0.652013 -0.0101535 0.244122)
(-0.688071 -0.0083486 0.203648)
(-0.547812 -0.00790251 0.170256)
(0.0311931 -0.0146933 0.0578212)
(0.326179 -0.0199885 -0.158152)
(0.560402 -0.0165833 -0.279606)
(0.784436 -0.0125144 -0.372678)
(1.00813 -0.00862972 -0.445056)
(1.23876 -0.0069723 -0.503649)
(1.47334 -0.00698565 -0.55146)
(1.70622 -0.00693128 -0.589333)
(1.93053 -0.00490133 -0.609977)
(2.15002 -0.00273212 -0.616235)
(2.36295 -0.00206562 -0.611918)
(2.56568 -0.00164192 -0.597487)
(2.75788 -0.00222295 -0.57766)
(2.93817 -0.00298172 -0.554635)
(3.10443 -0.00331447 -0.525979)
(3.25994 -0.00359845 -0.494858)
(3.40394 -0.00420001 -0.464199)
(3.53639 -0.00473154 -0.435635)
(3.65707 -0.00464942 -0.406396)
(3.76482 -0.00482538 -0.380739)
(3.86256 -0.00390552 -0.35397)
(3.93501 -0.00404327 -0.332531)
(3.99621 -0.00201578 -0.306915)
(3.99792 -0.001724 -0.289266)
(4.03287 -0.0013468 -0.263597)
(4.06468 -0.00111506 -0.278692)
(4.3211 -0.00103357 -0.286731)
(-0.173935 0.0138024 0.613072)
(-0.292189 -0.00422854 0.470847)
(-0.378932 -0.0103982 0.400607)
(-0.464248 -0.0129117 0.37114)
(-0.541912 -0.0129845 0.3397)
(-0.601294 -0.0115163 0.296064)
(-0.645424 -0.00890492 0.244903)
(-0.682393 -0.00660699 0.204022)
(-0.549103 -0.00775908 0.169117)
(0.00679519 -0.0214204 0.0536066)
(0.261529 -0.0300193 -0.155251)
(0.476797 -0.0245363 -0.272392)
(0.685034 -0.019652 -0.363221)
(0.900498 -0.0155533 -0.434781)
(1.12517 -0.0141974 -0.492359)
(1.35596 -0.015132 -0.539271)
(1.58745 -0.0145534 -0.574805)
(1.81335 -0.00964674 -0.594266)
(2.03495 -0.00547889 -0.601856)
(2.2491 -0.00407683 -0.598451)
(2.45546 -0.00273031 -0.585055)
(2.64982 -0.00285147 -0.565222)
(2.83254 -0.0034978 -0.541995)
(3.00139 -0.00314834 -0.513952)
(3.1589 -0.0027312 -0.483351)
(3.30477 -0.00300927 -0.453142)
(3.43881 -0.0035185 -0.42471)