/*--------------------------------*- C++ -*----------------------------------*\
  =========                 |
  \\      /  F ield         | OpenFOAM: The Open Source CFD Toolbox
   \\    /   O peration     | Website:  https://openfoam.org
    \\  /    A nd           | Version:  7
     \\/     M anipulation  |
\*---------------------------------------------------------------------------*/
FoamFile
{
    version     2.0;
    format      ascii;
    class       volVectorField;
    location    "49";
    object      ddt0(hU);
}
// * * * * * * * * * * * * * * * * * * * * * * * * * * * * * * * * * * * * * //

dimensions      [0 2 -2 0 0 0 0];

internalField   nonuniform List<vector> 
400
(
(1.38526e-10 1.45138e-10 0)
(-3.03874e-10 4.72133e-11 0)
(-8.71642e-10 -5.17807e-10 0)
(-1.07108e-09 -7.42273e-10 0)
(-7.21211e-10 -6.67026e-10 0)
(-6.97783e-10 -7.49971e-10 0)
(-2.69894e-09 -9.55649e-10 0)
(-1.05459e-09 2.03985e-09 0)
(2.28677e-09 -1.21732e-10 0)
(4.30673e-10 -1.90256e-10 0)
(-8.60786e-11 3.30442e-10 0)
(-2.79312e-10 6.19541e-10 0)
(-6.74439e-10 6.55799e-10 0)
(-9.74326e-10 3.62651e-10 0)
(-9.78792e-10 -4.795e-11 0)
(-9.35371e-10 -5.72661e-10 0)
(-3.18265e-10 -8.9471e-10 0)
(2.09787e-10 -8.81651e-10 0)
(1.05516e-09 -8.34003e-10 0)
(1.45482e-09 -5.97684e-11 0)
(1.19619e-10 -1.42394e-11 0)
(-3.89289e-10 2.56131e-10 0)
(-1.07075e-09 -1.11555e-10 0)
(-1.00825e-09 1.04413e-10 0)
(-9.99344e-10 1.15194e-10 0)
(-1.76733e-10 3.17989e-10 0)
(1.96928e-09 -6.57614e-10 0)
(4.40134e-10 1.30126e-09 0)
(-1.51661e-09 -1.20747e-10 0)
(1.13151e-10 -5.78051e-10 0)
(3.52172e-10 -3.21219e-10 0)
(6.99049e-11 -9.82888e-11 0)
(-4.08942e-10 1.14062e-10 0)
(-8.40416e-10 2.44315e-10 0)
(-9.87238e-10 1.79625e-10 0)
(-1.00178e-09 -1.82249e-11 0)
(-4.26523e-10 -2.95189e-10 0)
(1.25232e-10 -3.63856e-10 0)
(8.90703e-10 -5.39703e-10 0)
(1.33595e-09 -2.95412e-10 0)
(2.5182e-10 1.25342e-10 0)
(-2.89573e-10 1.64127e-10 0)
(-8.05143e-10 -3.68494e-10 0)
(-7.60305e-10 -6.56379e-10 0)
(-7.53235e-10 -1.21902e-09 0)
(-7.47557e-10 -1.11866e-09 0)
(-1.05512e-09 -1.72458e-09 0)
(-1.16841e-10 -2.48072e-09 0)
(-2.42432e-10 -9.81722e-10 0)
(3.18282e-11 -2.41617e-10 0)
(1.40987e-10 5.98522e-10 0)
(-2.50162e-10 1.05605e-09 0)
(-5.75445e-10 1.22945e-09 0)
(-8.33222e-10 8.4989e-10 0)
(-9.72453e-10 1.5693e-10 0)
(-1.0132e-09 -7.83378e-10 0)
(-3.07235e-10 -1.54362e-09 0)
(2.25925e-10 -1.63409e-09 0)
(1.19479e-09 -1.80535e-09 0)
(1.59544e-09 -4.5175e-10 0)
(5.64854e-11 3.59466e-10 0)
(-4.03939e-10 2.85443e-10 0)
(-9.49355e-10 -2.24488e-10 0)
(-1.02916e-09 -9.33594e-10 0)
(-7.24262e-10 -1.37034e-09 0)
(-8.09101e-10 -1.82694e-09 0)
(-3.46648e-10 -1.55536e-09 0)
(3.3743e-10 -1.62699e-09 0)
(4.16988e-11 -1.31123e-09 0)
(5.27403e-10 -2.77493e-10 0)
(5.47245e-10 6.59956e-10 0)
(4.08919e-11 1.24821e-09 0)
(-2.63561e-10 1.63263e-09 0)
(-6.01209e-10 1.23547e-09 0)
(-8.64243e-10 3.61587e-10 0)
(-9.12159e-10 -8.69481e-10 0)
(-3.68877e-10 -1.95771e-09 0)
(1.07099e-10 -2.16636e-09 0)
(7.73914e-10 -2.44791e-09 0)
(1.20692e-09 -7.04211e-10 0)
(1.48941e-10 1.39966e-10 0)
(-3.0615e-10 1.25982e-10 0)
(-6.01394e-10 -1.16886e-10 0)
(-7.60978e-10 -7.178e-10 0)
(-5.88529e-10 -1.01157e-09 0)
(-6.80118e-10 -1.59957e-09 0)
(-2.60722e-10 -1.35894e-09 0)
(-5.17491e-10 -1.49657e-09 0)
(-2.92272e-10 -1.05075e-09 0)
(2.82862e-10 -1.36728e-10 0)
(-1.64084e-11 6.16974e-10 0)
(-2.11899e-10 1.31098e-09 0)
(-2.05703e-10 1.83577e-09 0)
(-4.2692e-10 1.42368e-09 0)
(-5.77201e-10 4.8106e-10 0)
(-5.51284e-10 -7.98877e-10 0)
(-8.5438e-11 -2.03729e-09 0)
(1.96937e-10 -2.33249e-09 0)
(6.93367e-10 -2.71944e-09 0)
(1.03266e-09 -8.68783e-10 0)
(9.51401e-11 6.62084e-11 0)
(-4.29088e-10 -3.64785e-10 0)
(-7.45268e-10 -9.76788e-10 0)
(-8.91812e-10 -1.78933e-09 0)
(-7.218e-10 -2.30174e-09 0)
(-4.70421e-10 -2.65494e-09 0)
(-9.10221e-11 -2.6201e-09 0)
(1.75817e-11 -2.38321e-09 0)
(6.40804e-10 -1.35393e-09 0)
(6.93424e-10 -2.28693e-10 0)
(2.50104e-10 1.05467e-09 0)
(4.28363e-11 2.18324e-09 0)
(-3.11525e-10 2.72684e-09 0)
(-8.90724e-10 1.90012e-09 0)
(-1.08988e-09 4.92689e-10 0)
(-9.511e-10 -1.33745e-09 0)
(-2.81245e-10 -2.94444e-09 0)
(1.98941e-10 -3.25542e-09 0)
(9.87873e-10 -3.6446e-09 0)
(1.39977e-09 -9.76062e-10 0)
(3.09211e-11 -1.7737e-11 0)
(-2.77952e-10 -3.54295e-10 0)
(-4.24536e-10 -8.15959e-10 0)
(-4.97436e-10 -1.29956e-09 0)
(-4.12743e-10 -1.84375e-09 0)
(-2.55929e-10 -2.08387e-09 0)
(-3.00756e-10 -2.30483e-09 0)
(-2.98394e-10 -2.05302e-09 0)
(-9.80398e-11 -1.42434e-09 0)
(-1.50619e-10 -5.80431e-10 0)
(-1.04048e-10 7.51502e-10 0)
(1.24772e-10 1.92873e-09 0)
(5.30127e-11 2.54291e-09 0)
(-2.18486e-10 1.96828e-09 0)
(-2.53706e-10 7.91079e-10 0)
(-2.45358e-10 -9.38493e-10 0)
(-1.58041e-10 -2.64498e-09 0)
(-2.44756e-11 -3.04711e-09 0)
(3.33082e-10 -3.62534e-09 0)
(7.1411e-10 -1.16228e-09 0)
(1.21628e-12 -5.32145e-11 0)
(-1.92897e-10 -4.24619e-10 0)
(-3.08935e-10 -1.07912e-09 0)
(-3.89443e-10 -1.70672e-09 0)
(-3.52419e-10 -2.41025e-09 0)
(-2.22297e-10 -2.80149e-09 0)
(-2.54862e-10 -2.95325e-09 0)
(-1.07739e-10 -2.49462e-09 0)
(3.66654e-11 -1.61698e-09 0)
(1.34718e-10 -2.85004e-10 0)
(2.20276e-10 1.42192e-09 0)
(6.29836e-11 2.62121e-09 0)
(-3.06091e-10 3.1098e-09 0)
(-5.43248e-10 2.29876e-09 0)
(-4.89517e-10 8.1601e-10 0)
(-4.46902e-10 -1.31167e-09 0)
(-2.18075e-10 -3.22738e-09 0)
(-1.69134e-11 -3.55788e-09 0)
(5.93333e-10 -4.00547e-09 0)
(9.8952e-10 -1.07745e-09 0)
(2.14957e-11 -4.76249e-11 0)
(-1.04921e-10 -5.29821e-10 0)
(-2.02474e-10 -1.15291e-09 0)
(-2.37364e-10 -1.85249e-09 0)
(-1.69322e-10 -2.47407e-09 0)
(-1.03015e-10 -2.93788e-09 0)
(-1.24884e-10 -3.02005e-09 0)
(-8.82736e-11 -2.61982e-09 0)
(-9.83875e-11 -1.77935e-09 0)
(-1.9434e-11 -4.15673e-10 0)
(9.67017e-12 1.19072e-09 0)
(-1.24488e-10 2.41055e-09 0)
(-1.74711e-10 3.13315e-09 0)
(-9.44955e-11 2.52786e-09 0)
(-3.11205e-11 1.08652e-09 0)
(-1.99586e-11 -1.07462e-09 0)
(3.83706e-11 -3.08188e-09 0)
(9.50755e-11 -3.45297e-09 0)
(2.11824e-10 -4.00374e-09 0)
(3.14734e-10 -1.17258e-09 0)
(1.91103e-11 -4.27936e-11 0)
(-4.05669e-11 -6.25409e-10 0)
(-9.01819e-11 -1.20484e-09 0)
(-7.54706e-11 -1.88968e-09 0)
(-6.0551e-11 -2.54799e-09 0)
(-8.88138e-11 -3.07985e-09 0)
(-6.5705e-11 -3.1786e-09 0)
(-8.39411e-11 -2.73943e-09 0)
(-4.22937e-12 -1.7424e-09 0)
(2.72122e-11 -2.36819e-10 0)
(3.69619e-11 1.44885e-09 0)
(6.57185e-11 2.71514e-09 0)
(5.80884e-11 3.41855e-09 0)
(-3.00156e-12 2.66234e-09 0)
(-1.13106e-10 1.04524e-09 0)
(-1.70952e-10 -1.25024e-09 0)
(-2.34057e-11 -3.31464e-09 0)
(4.01532e-11 -3.68126e-09 0)
(1.09463e-10 -4.14989e-09 0)
(1.33219e-10 -1.13156e-09 0)
(3.83177e-12 -9.60546e-11 0)
(2.56061e-11 -6.65594e-10 0)
(2.69866e-11 -1.27483e-09 0)
(6.43262e-11 -1.86314e-09 0)
(1.47001e-11 -2.55424e-09 0)
(-3.44773e-11 -2.96853e-09 0)
(7.24562e-11 -3.1025e-09 0)
(1.21658e-10 -2.64717e-09 0)
(1.26592e-10 -1.6753e-09 0)
(-7.38734e-12 -2.45857e-10 0)
(-1.06845e-10 1.52764e-09 0)
(-7.77919e-11 2.81489e-09 0)
(4.38531e-11 3.43799e-09 0)
(1.30162e-10 2.64965e-09 0)
(8.04339e-11 1.07621e-09 0)
(1.25936e-10 -1.17697e-09 0)
(2.19001e-10 -3.27754e-09 0)
(2.5159e-10 -3.74509e-09 0)
(-7.54134e-11 -4.28467e-09 0)
(-4.08868e-10 -1.20548e-09 0)
(-1.99617e-11 -1.27839e-10 0)
(1.22386e-10 -6.93051e-10 0)
(1.76198e-10 -1.2329e-09 0)
(2.4356e-10 -1.80417e-09 0)
(1.75645e-10 -2.43889e-09 0)
(7.74357e-11 -2.75065e-09 0)
(5.13989e-11 -2.82185e-09 0)
(1.37265e-10 -2.46297e-09 0)
(3.7488e-11 -1.62562e-09 0)
(5.67541e-11 -3.91572e-10 0)
(8.82067e-11 1.27434e-09 0)
(3.84159e-12 2.60444e-09 0)
(1.00394e-10 3.27639e-09 0)
(2.40883e-10 2.53635e-09 0)
(1.29308e-10 1.09196e-09 0)
(-2.55942e-11 -9.69482e-10 0)
(-6.36625e-11 -3.01107e-09 0)
(-4.53214e-11 -3.58331e-09 0)
(-1.87187e-10 -4.28579e-09 0)
(-3.80342e-10 -1.32683e-09 0)
(-6.82253e-11 -9.83108e-11 0)
(2.18093e-10 -5.87026e-10 0)
(3.41089e-10 -1.00946e-09 0)
(4.36945e-10 -1.71302e-09 0)
(3.69703e-10 -2.31315e-09 0)
(3.30866e-10 -2.7632e-09 0)
(1.3557e-10 -2.76383e-09 0)
(1.10981e-10 -2.43581e-09 0)
(-1.4162e-10 -1.50665e-09 0)
(-2.46969e-10 -1.36988e-10 0)
(-2.98909e-11 1.40081e-09 0)
(1.57998e-11 2.66511e-09 0)
(1.1773e-10 3.29686e-09 0)
(4.3845e-10 2.36703e-09 0)
(5.93713e-10 7.6059e-10 0)
(4.8492e-10 -1.31308e-09 0)
(3.3541e-11 -3.20383e-09 0)
(-1.8368e-10 -3.6423e-09 0)
(-5.76879e-10 -4.19057e-09 0)
(-8.16508e-10 -1.18081e-09 0)
(-6.07223e-11 -3.5571e-11 0)
(2.98535e-10 -2.93403e-10 0)
(4.79389e-10 -6.89053e-10 0)
(5.23441e-10 -1.33611e-09 0)
(4.11339e-10 -1.75965e-09 0)
(4.18108e-10 -2.26385e-09 0)
(2.60618e-10 -2.27607e-09 0)
(2.18904e-10 -2.12689e-09 0)
(2.09659e-10 -1.53756e-09 0)
(-7.32509e-11 -4.01126e-10 0)
(-5.43635e-13 7.89464e-10 0)
(1.02627e-10 1.80913e-09 0)
(-7.89454e-11 2.55006e-09 0)
(-3.48586e-11 2.02118e-09 0)
(2.30266e-10 7.51702e-10 0)
(3.14455e-10 -1.01623e-09 0)
(4.04391e-12 -2.67214e-09 0)
(-1.95601e-10 -3.02176e-09 0)
(-3.14333e-10 -3.59946e-09 0)
(-4.81261e-10 -1.1576e-09 0)
(-2.09024e-11 8.93207e-11 0)
(4.36646e-10 -1.2995e-10 0)
(8.00401e-10 -9.58007e-10 0)
(8.47714e-10 -1.75388e-09 0)
(7.12939e-10 -2.39121e-09 0)
(5.42836e-10 -2.82418e-09 0)
(2.37455e-10 -2.77987e-09 0)
(-2.65152e-10 -2.33894e-09 0)
(-2.65432e-10 -1.68885e-09 0)
(-5.83575e-10 -3.01845e-10 0)
(-5.78994e-10 1.16964e-09 0)
(-8.56452e-13 2.11082e-09 0)
(4.18682e-10 2.60172e-09 0)
(7.28792e-10 1.89366e-09 0)
(9.98781e-10 4.95817e-10 0)
(1.01303e-09 -1.40333e-09 0)
(2.69951e-10 -2.9691e-09 0)
(-2.95895e-10 -3.16133e-09 0)
(-1.00796e-09 -3.5042e-09 0)
(-1.27655e-09 -9.12284e-10 0)
(-2.09826e-11 1.95462e-10 0)
(3.01241e-10 2.78487e-10 0)
(6.42296e-10 -3.14556e-10 0)
(6.23598e-10 -6.78525e-10 0)
(6.64287e-10 -1.29696e-09 0)
(4.79696e-10 -1.33575e-09 0)
(7.47425e-10 -1.85014e-09 0)
(2.91806e-11 -1.18875e-09 0)
(2.73391e-10 -1.11503e-09 0)
(2.58432e-10 -5.03088e-10 0)
(-1.00585e-10 5.91952e-10 0)
(6.28485e-11 1.32081e-09 0)
(3.10989e-10 1.72648e-09 0)
(4.16388e-10 1.38885e-09 0)
(4.84981e-10 5.04992e-10 0)
(5.8322e-10 -8.19592e-10 0)
(1.85149e-10 -2.04887e-09 0)
(-1.84546e-10 -2.26453e-09 0)
(-7.55503e-10 -2.60092e-09 0)
(-1.03658e-09 -8.08634e-10 0)
(-3.49166e-11 4.27862e-10 0)
(3.73323e-10 3.59917e-10 0)
(9.70007e-10 -5.33448e-10 0)
(9.48345e-10 -1.02142e-09 0)
(9.48107e-10 -1.51187e-09 0)
(2.9565e-10 -1.2633e-09 0)
(8.05905e-10 -2.24481e-09 0)
(1.85537e-10 -1.74777e-09 0)
(-8.56449e-10 -1.02297e-09 0)
(-2.7797e-10 -5.67024e-10 0)
(-2.78927e-10 4.68237e-10 0)
(-1.52156e-10 1.24486e-09 0)
(3.01039e-10 1.58521e-09 0)
(6.71097e-10 1.20048e-09 0)
(8.0728e-10 3.83048e-10 0)
(9.09363e-10 -8.5748e-10 0)
(4.79939e-10 -1.96879e-09 0)
(-5.00086e-11 -2.16449e-09 0)
(-8.29958e-10 -2.40045e-09 0)
(-1.26866e-09 -6.64813e-10 0)
(-2.57162e-10 1.83148e-10 0)
(2.51348e-10 3.11853e-11 0)
(7.19811e-10 -2.71096e-10 0)
(8.2133e-10 -8.18452e-10 0)
(9.66426e-10 -9.8001e-10 0)
(4.5037e-10 -1.09782e-09 0)
(1.00651e-10 -2.20446e-09 0)
(1.17399e-09 -2.71959e-09 0)
(-2.24531e-10 -7.67825e-10 0)
(-2.26042e-10 -8.26552e-11 0)
(1.96529e-10 5.13647e-10 0)
(2.91536e-10 1.0677e-09 0)
(6.04807e-10 1.25717e-09 0)
(9.23609e-10 8.41243e-10 0)
(9.58132e-10 1.89811e-10 0)
(9.86675e-10 -7.31183e-10 0)
(3.69124e-10 -1.53726e-09 0)
(-1.61587e-10 -1.66249e-09 0)
(-1.20804e-09 -1.8097e-09 0)
(-1.65869e-09 -4.41006e-10 0)
(-2.07431e-10 -9.90927e-11 0)
(3.54356e-10 -1.9155e-10 0)
(9.22358e-10 3.60834e-10 0)
(1.0949e-09 3.40823e-10 0)
(7.93676e-10 4.46829e-10 0)
(1.35411e-09 -8.08044e-10 0)
(-1.65443e-09 1.74477e-09 0)
(1.89092e-09 1.03655e-09 0)
(1.47851e-09 -8.98584e-11 0)
(-3.60747e-10 -5.28712e-11 0)
(-2.64638e-10 -2.14794e-10 0)
(7.76745e-13 -7.64769e-11 0)
(3.89308e-10 1.28782e-10 0)
(8.8418e-10 2.1914e-10 0)
(1.01573e-09 2.05341e-10 0)
(9.67821e-10 4.18944e-11 0)
(4.12136e-10 -2.83057e-10 0)
(-8.84156e-11 -3.94385e-10 0)
(-8.68757e-10 -5.64582e-10 0)
(-1.37462e-09 -3.01987e-10 0)
(-1.97444e-10 3.81883e-11 0)
(3.5795e-10 -2.10866e-10 0)
(9.95297e-10 -2.82272e-10 0)
(1.12245e-09 -4.26444e-10 0)
(4.51213e-10 -5.47804e-10 0)
(3.41642e-10 -1.62327e-09 0)
(2.47749e-09 1.60756e-09 0)
(-2.12546e-09 1.69762e-09 0)
(-1.38699e-09 -1.50975e-10 0)
(-6.06807e-10 1.13464e-10 0)
(-2.71139e-10 4.038e-10 0)
(2.15293e-10 6.11829e-10 0)
(6.05617e-10 6.35748e-10 0)
(1.02929e-09 3.36541e-10 0)
(1.06226e-09 -4.05037e-11 0)
(8.90757e-10 -5.48276e-10 0)
(2.40486e-10 -8.92148e-10 0)
(-2.01266e-10 -8.97251e-10 0)
(-1.02072e-09 -8.48604e-10 0)
(-1.47132e-09 -6.43196e-11 0)
)
;

boundaryField
{
    sides
    {
        type            calculated;
        value           nonuniform List<vector> 
40
(
(-1.97444e-10 0 0)
(3.5795e-10 0 0)
(9.95297e-10 0 0)
(1.12245e-09 0 0)
(4.51213e-10 0 0)
(3.41642e-10 0 0)
(2.47749e-09 0 0)
(-2.12546e-09 0 0)
(-1.38699e-09 0 0)
(-6.06807e-10 0 0)
(-2.71139e-10 0 0)
(2.15293e-10 0 0)
(6.05617e-10 0 0)
(1.02929e-09 0 0)
(1.06226e-09 0 0)
(8.90757e-10 0 0)
(2.40486e-10 0 0)
(-2.01266e-10 0 0)
(-1.02072e-09 0 0)
(-1.47132e-09 0 0)
(1.38526e-10 0 0)
(-3.03874e-10 0 0)
(-8.71642e-10 0 0)
(-1.07108e-09 0 0)
(-7.21211e-10 0 0)
(-6.97783e-10 0 0)
(-2.69894e-09 0 0)
(-1.05459e-09 0 0)
(2.28677e-09 0 0)
(4.30673e-10 0 0)
(-8.60786e-11 0 0)
(-2.79312e-10 0 0)
(-6.74439e-10 0 0)
(-9.74326e-10 0 0)
(-9.78792e-10 0 0)
(-9.35371e-10 0 0)
(-3.18265e-10 0 0)
(2.09787e-10 0 0)
(1.05516e-09 0 0)
(1.45482e-09 0 0)
)
;
    }
    inlet
    {
        type            calculated;
        value           uniform (0 0 0);
    }
    outlet
    {
        type            calculated;
        value           nonuniform List<vector> 
20
(
(1.45482e-09 -5.97684e-11 0)
(1.33595e-09 -2.95412e-10 0)
(1.59544e-09 -4.5175e-10 0)
(1.20692e-09 -7.04211e-10 0)
(1.03266e-09 -8.68783e-10 0)
(1.39977e-09 -9.76062e-10 0)
(7.1411e-10 -1.16228e-09 0)
(9.8952e-10 -1.07745e-09 0)
(3.14734e-10 -1.17258e-09 0)
(1.33219e-10 -1.13156e-09 0)
(-4.08868e-10 -1.20548e-09 0)
(-3.80342e-10 -1.32683e-09 0)
(-8.16508e-10 -1.18081e-09 0)
(-4.81261e-10 -1.1576e-09 0)
(-1.27655e-09 -9.12284e-10 0)
(-1.03658e-09 -8.08634e-10 0)
(-1.26866e-09 -6.64813e-10 0)
(-1.65869e-09 -4.41006e-10 0)
(-1.37462e-09 -3.01987e-10 0)
(-1.47132e-09 -6.43196e-11 0)
)
;
    }
    frontAndBack
    {
        type            empty;
    }
}


// ************************************************************************* //
