/*--------------------------------*- C++ -*----------------------------------*\
  =========                 |
  \\      /  F ield         | OpenFOAM: The Open Source CFD Toolbox
   \\    /   O peration     | Website:  https://openfoam.org
    \\  /    A nd           | Version:  7
     \\/     M anipulation  |
\*---------------------------------------------------------------------------*/
FoamFile
{
    version     2.0;
    format      ascii;
    class       volScalarField;
    location    "49";
    object      ddt0(h);
}
// * * * * * * * * * * * * * * * * * * * * * * * * * * * * * * * * * * * * * //

dimensions      [0 1 -1 0 0 0 0];

internalField   nonuniform List<scalar> 
400
(
1.48875e-09
6.98415e-10
1.76955e-09
4.25851e-09
6.20837e-09
2.25055e-10
-5.33236e-09
3.92626e-10
9.42062e-09
4.52461e-09
3.783e-09
3.41557e-09
2.5129e-09
2.14588e-09
2.119e-09
1.83805e-09
1.34888e-09
9.10869e-10
5.31148e-10
1.67344e-10
9.7587e-10
1.87489e-09
2.48596e-09
2.90611e-09
1.44028e-09
7.57556e-09
1.5047e-08
1.01807e-08
1.47559e-09
3.51302e-09
3.95046e-09
3.71053e-09
3.09717e-09
2.70715e-09
2.33402e-09
1.79388e-09
1.22385e-09
7.49623e-10
3.87568e-10
1.25162e-10
2.24397e-09
3.78526e-09
3.19311e-09
3.31544e-09
2.50883e-09
6.09198e-09
4.73785e-10
2.46918e-09
3.02517e-09
3.47994e-09
4.04481e-09
3.45417e-09
3.1752e-09
2.97318e-09
2.37442e-09
1.68987e-09
1.20659e-09
7.57216e-10
3.58606e-10
1.21625e-10
-8.09195e-11
2.22698e-09
2.94121e-09
3.39596e-09
3.76977e-09
3.06849e-09
5.77151e-09
6.50287e-09
3.11006e-09
4.36613e-09
4.52234e-09
3.63118e-09
3.4473e-09
3.08227e-09
2.1867e-09
1.42866e-09
1.05828e-09
6.35906e-10
1.1878e-10
-4.42727e-11
7.97296e-10
1.42615e-09
3.28622e-09
3.09446e-09
4.69152e-09
3.12083e-09
6.00103e-09
3.84917e-09
4.18224e-09
5.3855e-09
3.94933e-09
3.40824e-09
3.43072e-09
2.72669e-09
1.7544e-09
1.19055e-09
1.02404e-09
6.98533e-10
9.14013e-11
-1.06189e-10
8.66787e-10
1.11323e-09
3.14522e-09
3.06736e-09
4.27175e-09
4.32229e-09
5.20127e-09
4.0573e-09
5.30299e-09
4.45505e-09
3.21125e-09
3.4186e-09
3.15105e-09
2.04987e-09
1.2977e-09
9.68201e-10
7.48418e-10
5.034e-10
1.43915e-10
-2.52995e-11
8.96087e-10
1.1523e-09
2.27781e-09
2.79756e-09
2.97183e-09
3.88764e-09
3.68205e-09
3.59611e-09
3.82475e-09
2.9876e-09
2.70598e-09
3.00084e-09
2.22162e-09
1.14968e-09
9.27405e-10
8.29246e-10
3.61903e-10
1.7551e-10
3.21838e-10
2.08916e-10
7.17784e-10
1.43822e-09
1.60243e-09
2.26483e-09
2.4527e-09
3.00315e-09
2.50378e-09
2.59847e-09
2.36913e-09
2.27e-09
2.51975e-09
2.06769e-09
1.16553e-09
7.82064e-10
9.4702e-10
7.71309e-10
5.35999e-11
-1.64585e-10
2.47494e-10
2.55506e-10
4.7838e-10
1.19743e-09
1.27333e-09
1.47167e-09
1.73116e-09
1.74357e-09
1.47737e-09
1.52915e-09
1.31284e-09
1.62324e-09
1.59433e-09
8.84857e-10
6.35931e-10
8.53375e-10
8.5229e-10
5.69358e-10
1.26102e-10
-6.38465e-11
1.13066e-10
1.3187e-10
2.81555e-10
4.22155e-10
5.68931e-10
7.33917e-10
7.13884e-10
4.71272e-10
6.51726e-10
4.76985e-10
7.10994e-10
5.78748e-10
3.80127e-10
3.00388e-10
3.63449e-10
4.35878e-10
2.53706e-10
2.51763e-10
4.36312e-10
3.08487e-10
2.95242e-11
-4.35623e-11
-1.32934e-10
-3.0366e-10
-2.90379e-10
-2.45861e-10
-4.82167e-10
-7.82397e-10
-4.61132e-10
-4.52047e-10
-2.42485e-10
-4.31951e-10
-5.01484e-10
-3.41438e-10
-5.33375e-11
4.42007e-11
-3.28374e-10
-3.1855e-10
2.98267e-10
3.95086e-10
-2.88074e-11
-1.15485e-10
-6.60825e-10
-6.79923e-10
-1.20635e-09
-1.48303e-09
-1.79657e-09
-1.94195e-09
-1.87126e-09
-1.31581e-09
-1.66665e-09
-1.38847e-09
-1.15714e-09
-1.42084e-09
-9.38848e-10
-2.91482e-10
-4.93056e-10
-7.17731e-10
-2.27051e-10
9.7945e-11
-7.52774e-11
-1.13318e-10
-7.82802e-10
-1.01857e-09
-2.36739e-09
-2.37215e-09
-2.95536e-09
-2.66905e-09
-3.25323e-09
-2.46446e-09
-2.87585e-09
-2.70135e-09
-1.75269e-09
-1.82582e-09
-1.89424e-09
-1.21169e-09
-6.25941e-10
-6.91584e-10
-7.59548e-10
-4.4438e-10
-1.12443e-10
-6.31175e-12
-5.42478e-10
-1.78381e-09
-2.94191e-09
-2.82087e-09
-3.62225e-09
-3.08947e-09
-4.00381e-09
-3.81514e-09
-3.38584e-09
-4.08059e-09
-3.1726e-09
-2.14506e-09
-2.33721e-09
-2.13348e-09
-1.07231e-09
-6.50292e-10
-9.23207e-10
-6.87537e-10
-9.42293e-11
6.5401e-11
-4.91605e-10
-2.47947e-09
-2.7112e-09
-3.57849e-09
-3.70219e-09
-3.68436e-09
-4.44689e-09
-4.96024e-09
-3.52022e-09
-4.30309e-09
-4.58276e-09
-3.176e-09
-2.70899e-09
-2.61251e-09
-1.6052e-09
-7.44689e-10
-7.24985e-10
-5.75016e-10
-1.06923e-10
4.36692e-11
-8.9949e-10
-2.55369e-09
-2.05875e-09
-3.70478e-09
-2.51679e-09
-5.23079e-09
-3.17532e-09
-6.51203e-09
-3.71702e-09
-3.43255e-09
-4.58356e-09
-3.82204e-09
-2.89e-09
-2.62479e-09
-2.00284e-09
-1.05395e-09
-6.19074e-10
-5.39615e-10
-3.22257e-10
-9.06727e-11
-6.55047e-10
-1.55352e-09
-1.70555e-09
-3.54057e-09
-2.92923e-09
-6.50734e-09
-1.96977e-09
-4.36037e-09
-6.3314e-09
-3.12017e-09
-3.81607e-09
-4.04706e-09
-3.19126e-09
-2.6823e-09
-2.3079e-09
-1.4557e-09
-6.71673e-10
-4.74595e-10
-3.81576e-10
-1.3206e-10
-2.91792e-09
-1.02859e-09
-1.55085e-09
-3.71453e-09
-5.36833e-09
-4.07357e-09
-4.66758e-09
2.90269e-10
-5.50038e-09
-3.84072e-09
-3.05692e-09
-3.45064e-09
-3.05315e-09
-2.58016e-09
-2.36174e-09
-1.80312e-09
-1.02834e-09
-6.27746e-10
-4.56034e-10
-1.79916e-10
-1.27414e-09
-1.50289e-09
-2.69285e-09
-2.60685e-09
-6.87251e-09
1.31031e-08
-1.00201e-08
2.98361e-09
-1.00531e-09
-4.19323e-09
-3.48352e-09
-3.4509e-09
-3.17338e-09
-2.57838e-09
-2.21929e-09
-1.87375e-09
-1.28427e-09
-6.94968e-10
-3.40502e-10
-1.18163e-10
-2.89085e-10
-2.41612e-09
-5.00886e-09
-3.23281e-09
-5.10074e-10
-1.86309e-08
-1.60616e-09
-1.50445e-08
-6.48424e-09
-5.68287e-09
-4.54086e-09
-3.59189e-09
-2.93242e-09
-2.19995e-09
-1.98977e-09
-1.98009e-09
-1.61057e-09
-9.31161e-10
-4.07654e-10
-1.39109e-10
)
;

boundaryField
{
    sides
    {
        type            calculated;
        value           nonuniform List<scalar> 
40
(
-2.89085e-10
-2.41612e-09
-5.00886e-09
-3.23281e-09
-5.10074e-10
-1.86309e-08
-1.60616e-09
-1.50445e-08
-6.48424e-09
-5.68287e-09
-4.54086e-09
-3.59189e-09
-2.93242e-09
-2.19995e-09
-1.98977e-09
-1.98009e-09
-1.61057e-09
-9.31161e-10
-4.07654e-10
-1.39109e-10
1.48875e-09
6.98415e-10
1.76955e-09
4.25851e-09
6.20837e-09
2.25055e-10
-5.33236e-09
3.92626e-10
9.42062e-09
4.52461e-09
3.783e-09
3.41557e-09
2.5129e-09
2.14588e-09
2.119e-09
1.83805e-09
1.34888e-09
9.10869e-10
5.31148e-10
1.67344e-10
)
;
    }
    inlet
    {
        type            calculated;
        value           nonuniform List<scalar> 
20
(
1.48875e-09
9.7587e-10
2.24397e-09
-8.09195e-11
7.97296e-10
8.66787e-10
8.96087e-10
7.17784e-10
4.7838e-10
2.81555e-10
-1.32934e-10
-6.60825e-10
-7.82802e-10
-5.42478e-10
-4.91605e-10
-8.9949e-10
-6.55047e-10
-2.91792e-09
-1.27414e-09
-2.89085e-10
)
;
    }
    outlet
    {
        type            calculated;
        value           uniform 0;
    }
    frontAndBack
    {
        type            empty;
    }
}


// ************************************************************************* //
