/*--------------------------------*- C++ -*----------------------------------*\
  =========                 |
  \\      /  F ield         | OpenFOAM: The Open Source CFD Toolbox
   \\    /   O peration     | Website:  https://openfoam.org
    \\  /    A nd           | Version:  7
     \\/     M anipulation  |
\*---------------------------------------------------------------------------*/
FoamFile
{
    version     2.0;
    format      ascii;
    class       surfaceScalarField;
    location    "49";
    object      ddtCorrDdt0(phi);
}
// * * * * * * * * * * * * * * * * * * * * * * * * * * * * * * * * * * * * * //

dimensions      [0 4 -2 0 0 0 0];

internalField   nonuniform List<scalar> 
760
(
-2.65867e-12
6.05079e-13
-1.25364e-12
7.02696e-13
-5.25144e-12
-1.66467e-12
-4.92168e-12
-1.20294e-12
-4.64382e-12
7.41786e-13
-2.29846e-12
-3.25416e-10
-2.28953e-11
2.56747e-10
1.47615e-11
4.3359e-10
3.96457e-12
2.46456e-11
-1.52572e-13
-1.26136e-12
-5.95579e-13
-8.64705e-15
-2.29105e-12
9.55127e-13
-4.30624e-12
1.41253e-12
-4.88829e-12
1.12086e-12
-4.60176e-12
2.40622e-13
-3.19996e-12
-1.24086e-12
-1.78498e-13
-2.52565e-12
3.16384e-12
-2.71612e-12
6.39147e-12
-3.05377e-12
-8.06469e-13
-2.1732e-12
6.49578e-14
-3.60726e-12
1.45599e-12
-5.39881e-12
-1.72823e-12
-3.34872e-12
-2.49349e-12
-5.68021e-12
-4.79943e-12
3.14367e-12
2.80912e-12
1.49937e-11
-1.91498e-11
-1.18507e-11
-1.96204e-11
-1.23343e-12
-5.56027e-12
1.25532e-12
-2.13603e-12
1.35265e-12
1.08948e-12
-7.97287e-13
3.11548e-12
-3.2214e-12
4.03884e-12
-4.55521e-12
3.02953e-12
-4.84799e-12
8.15059e-13
-3.64005e-12
-2.33554e-12
-6.36474e-13
-5.1432e-12
2.50818e-12
-5.44853e-12
5.6387e-12
-6.27371e-12
-1.92783e-12
-6.79027e-13
-1.68538e-11
-4.28999e-12
1.45444e-12
-2.4332e-12
-1.0932e-12
-4.42819e-12
-3.23304e-12
-2.33853e-12
-5.78927e-12
-8.22891e-12
-6.18733e-12
2.97872e-13
-5.25675e-12
-1.60845e-12
-6.4794e-12
-1.27886e-12
-4.52556e-12
7.30998e-13
-1.84219e-12
-1.75114e-13
2.50354e-12
-2.19555e-12
5.10525e-12
-3.48548e-12
6.53827e-12
-4.52149e-12
4.93064e-12
-4.88761e-12
1.36851e-12
-3.29321e-12
-3.7272e-12
-5.04406e-14
-8.14073e-12
3.5223e-12
-8.94435e-12
7.12625e-12
-1.01768e-11
-2.82811e-12
-1.58629e-12
1.15961e-12
-4.53447e-12
1.00744e-12
-3.46305e-12
-1.33509e-12
-5.48574e-12
-4.64252e-12
-2.34827e-12
-6.65199e-12
-5.53741e-12
-1.03326e-11
1.98929e-12
-7.91002e-12
4.97511e-13
-7.64229e-12
7.08071e-13
-7.14857e-12
3.26656e-12
-8.7263e-13
1.35878e-12
3.80745e-12
-6.59821e-13
6.92344e-12
-2.05257e-12
9.21326e-12
-3.66854e-12
7.00396e-12
-4.39284e-12
2.11356e-12
-3.16244e-12
-4.5508e-12
-5.29555e-13
-1.05771e-11
2.10497e-12
-1.17753e-11
4.9671e-12
-1.33142e-11
-3.9713e-12
-7.59311e-13
5.15579e-13
-2.85204e-12
-7.79863e-13
-2.80647e-12
-2.65335e-12
-3.7296e-12
-6.24317e-12
-3.3906e-12
-7.704e-12
-2.85775e-12
-1.04602e-11
-8.2879e-13
-9.59772e-12
-3.26584e-12
-1.03512e-11
5.78766e-13
-5.57609e-12
7.70024e-13
-8.56602e-13
-9.26069e-13
3.54819e-12
-9.5149e-13
8.00331e-12
-1.45875e-12
1.08979e-11
-2.63723e-12
8.06333e-12
-2.79335e-12
2.42932e-12
-1.47957e-12
-5.06982e-12
3.99473e-13
-1.20741e-11
2.14564e-12
-1.36524e-11
4.42493e-12
-1.56972e-11
-4.61052e-12
-1.80124e-12
2.81899e-13
-2.98166e-12
-1.63438e-12
-4.14726e-12
-4.06342e-12
-3.50039e-12
-7.33739e-12
-4.0729e-12
-1.01654e-11
-7.53421e-13
-1.12071e-11
-4.62582e-13
-1.2101e-11
1.54006e-12
-1.04315e-11
3.78436e-12
-6.38871e-12
1.93452e-12
-1.72186e-12
5.65882e-13
4.89293e-12
-3.1587e-13
1.0851e-11
-2.98918e-12
1.37111e-11
-5.13616e-12
9.8679e-12
-4.99993e-12
3.09548e-12
-2.98881e-12
-6.0072e-12
-1.26361e-13
-1.43549e-11
2.74685e-12
-1.61376e-11
6.02632e-12
-1.84615e-11
-5.4232e-12
-1.72389e-12
-2.1312e-13
-1.26768e-12
-2.17453e-12
-2.54977e-12
-5.41122e-12
-1.99912e-12
-8.04076e-12
-2.26769e-12
-1.12833e-11
-1.1146e-12
-1.25743e-11
-1.72733e-12
-1.3356e-11
-7.63455e-13
-1.14248e-11
-6.18674e-13
-7.75397e-12
-1.07551e-12
-2.42105e-12
1.91744e-13
5.39704e-12
7.8829e-13
1.1447e-11
-5.76809e-13
1.40693e-11
-1.35795e-12
1.06175e-11
-1.08462e-12
4.14136e-12
-8.98051e-13
-5.35272e-12
-4.49687e-13
-1.44066e-11
5.50512e-13
-1.63099e-11
2.6935e-12
-1.90549e-11
-5.63208e-12
-1.40773e-12
-3.78244e-13
-1.01659e-12
-2.31109e-12
-1.65583e-12
-5.64129e-12
-2.0448e-12
-8.85171e-12
-1.43101e-12
-1.2045e-11
-1.21425e-12
-1.42705e-11
-9.36744e-13
-1.50406e-11
3.96439e-15
-1.29672e-11
1.05379e-13
-8.79634e-12
7.4408e-13
-1.9481e-12
9.74742e-13
6.44998e-12
-5.19402e-13
1.23726e-11
-2.31442e-12
1.53676e-11
-2.60194e-12
1.20306e-11
-2.17286e-12
4.88654e-12
-1.61242e-12
-5.85604e-12
-5.49341e-13
-1.56916e-11
1.13848e-12
-1.74582e-11
3.99238e-12
-1.99798e-11
-5.62631e-12
-6.02834e-13
-1.64381e-13
-8.73969e-13
-2.96698e-12
-9.00645e-13
-5.73756e-12
-1.16071e-12
-9.43045e-12
-5.81009e-13
-1.25953e-11
-7.46024e-13
-1.54076e-11
-4.46042e-13
-1.5723e-11
-4.32355e-13
-1.35841e-11
-5.15577e-13
-8.71855e-12
1.22938e-14
-1.26289e-12
-1.68146e-13
6.78962e-12
-8.15742e-13
1.29303e-11
-7.04929e-13
1.65261e-11
-2.22873e-13
1.29472e-11
-1.0589e-13
5.05147e-12
4.18109e-14
-6.13849e-12
4.20397e-13
-1.61623e-11
5.95282e-13
-1.77229e-11
1.27867e-12
-1.99995e-11
-5.52166e-12
-2.03751e-13
-3.26225e-13
-2.61073e-13
-3.24602e-12
-5.41402e-13
-6.27591e-12
-1.60895e-13
-9.52128e-12
-5.86179e-13
-1.28597e-11
-3.32732e-13
-1.51065e-11
-3.97811e-13
-1.55604e-11
-1.63469e-13
-1.3347e-11
1.28301e-13
-8.5557e-12
2.60861e-14
-1.35442e-12
2.69137e-13
7.23589e-12
3.14166e-13
1.37302e-11
1.72363e-13
1.72839e-11
-2.72639e-13
1.36259e-11
-7.96891e-13
5.71256e-12
-5.12696e-13
-5.74441e-12
1.87298e-13
-1.63215e-11
5.21874e-13
-1.85933e-11
5.77228e-13
-2.12521e-11
-5.93665e-12
3.02637e-13
-6.9068e-13
8.34203e-14
-3.35244e-12
7.10131e-14
-6.47566e-12
3.77463e-13
-9.15869e-12
-1.70535e-13
-1.26312e-11
1.9387e-13
-1.42809e-11
4.35517e-13
-1.49437e-11
6.44548e-13
-1.26536e-11
3.98614e-13
-8.03316e-12
-3.71954e-13
-1.30987e-12
-5.07619e-13
7.55096e-12
-8.75325e-14
1.39047e-11
5.65734e-13
1.6763e-11
5.55674e-13
1.2848e-11
3.57381e-13
5.33373e-12
7.75226e-13
-5.44571e-12
1.25386e-12
-1.57945e-11
7.19365e-13
-1.83282e-11
-1.27822e-12
-2.13143e-11
-6.24747e-12
9.21564e-13
-6.53868e-13
3.68175e-13
-3.57273e-12
1.26053e-12
-5.73829e-12
8.6906e-13
-8.59905e-12
9.17427e-13
-1.1609e-11
1.38822e-13
-1.34983e-11
5.55663e-13
-1.38225e-11
4.80223e-13
-1.23145e-11
1.68709e-13
-7.93449e-12
6.20252e-13
-1.58886e-12
1.30188e-13
6.52298e-12
9.0002e-15
1.32757e-11
1.00435e-12
1.6571e-11
1.04552e-12
1.22739e-11
1.427e-13
4.67663e-12
-3.46646e-13
-5.53084e-12
-3.20243e-13
-1.53538e-11
-2.50298e-13
-1.80949e-11
-1.39044e-12
-2.1435e-11
-6.43677e-12
8.36425e-13
-4.2066e-13
1.40214e-12
-2.56485e-12
2.10687e-12
-4.56564e-12
1.81916e-12
-8.32693e-12
2.12818e-12
-1.07177e-11
1.06762e-12
-1.29558e-11
4.19978e-13
-1.27048e-11
1.63545e-13
-1.14867e-11
-1.16792e-12
-7.54359e-12
-4.25688e-13
-1.27368e-12
8.49751e-14
5.20213e-12
6.26938e-14
1.09778e-11
1.31677e-12
1.46672e-11
2.71986e-12
1.10641e-11
2.75453e-12
3.85676e-12
1.22475e-12
-5.67117e-12
-6.066e-13
-1.45094e-11
-1.77348e-12
-1.64981e-11
-3.43137e-12
-1.94398e-11
-5.86052e-12
8.97523e-13
2.82678e-13
2.66218e-12
-5.85316e-13
1.87271e-12
-3.63063e-12
2.63607e-12
-7.46431e-12
2.11944e-12
-9.8988e-12
2.18496e-12
-1.27964e-11
5.50993e-13
-1.25467e-11
1.38711e-12
-1.11815e-11
4.30674e-13
-7.85972e-12
-3.55215e-13
-1.17748e-12
4.7155e-13
5.52981e-12
6.9524e-14
1.0203e-11
-5.3342e-13
1.31564e-11
5.23946e-13
9.89667e-12
1.52082e-12
2.98324e-12
7.76326e-13
-6.45324e-12
-7.12842e-13
-1.4543e-11
-1.34364e-12
-1.57396e-11
-1.96559e-12
-1.78421e-11
-5.14656e-12
1.94804e-12
7.40919e-13
3.93333e-12
6.3078e-13
3.00873e-12
-3.18594e-12
4.72852e-12
-5.91722e-12
2.45786e-12
-9.30379e-12
3.1159e-12
-1.05342e-11
-9.72172e-13
-1.08337e-11
-1.29144e-12
-8.90083e-12
-1.47802e-12
-7.55576e-12
-3.25312e-12
-2.42802e-12
-1.48667e-12
3.94684e-12
1.23498e-12
7.9632e-12
2.68298e-12
1.01857e-11
4.25255e-12
7.89309e-12
5.09449e-12
2.52248e-12
3.25193e-12
-5.29188e-12
-2.30755e-13
-1.21589e-11
-3.27381e-12
-1.31462e-11
-5.73847e-12
-1.49148e-11
-4.24541e-12
2.05601e-12
1.74236e-12
2.37218e-12
1.39512e-12
2.60653e-12
-2.52722e-12
3.63841e-12
-4.83343e-12
2.48085e-12
-8.31496e-12
4.21259e-12
-6.57471e-12
1.53157e-12
-1.2053e-11
-8.70402e-14
-5.96253e-12
2.41065e-12
-5.43173e-12
2.49192e-13
-2.98466e-12
-4.10615e-13
3.03187e-12
1.12343e-12
7.10174e-12
1.83244e-12
8.90394e-12
2.17466e-12
6.81093e-12
2.60953e-12
2.21725e-12
1.9422e-12
-4.55447e-12
-5.61116e-14
-1.06182e-11
-2.40437e-12
-1.16119e-11
-4.62978e-12
-1.29057e-11
-3.71774e-12
2.86044e-12
-5.70255e-11
2.53945e-12
6.32949e-13
5.12843e-12
-1.62549e-12
3.51312e-12
-3.60454e-12
5.41067e-12
-4.60335e-12
3.10329e-13
-4.37293e-12
5.6163e-12
-8.11904e-12
-4.29394e-12
-1.25913e-11
-2.02157e-12
-2.8312e-12
-8.31704e-13
-1.51078e-12
-1.49938e-12
1.59259e-12
3.47586e-13
4.94011e-12
2.57129e-12
6.46233e-12
3.59894e-12
4.81041e-12
4.11368e-12
1.47986e-12
3.52999e-12
-3.57485e-12
1.05033e-12
-8.16451e-12
-2.12596e-12
-9.07156e-12
-5.31231e-12
-1.0123e-11
-2.71095e-12
2.18539e-12
2.80855e-13
7.796e-13
-6.03176e-13
4.67478e-12
-2.9952e-13
3.01619e-12
-2.10268e-12
7.99869e-12
-7.97043e-13
-3.79529e-12
-1.20817e-11
6.13063e-12
-6.67218e-12
2.19916e-12
-1.42908e-11
-2.05051e-12
-4.9883e-12
8.01121e-13
-5.69689e-13
1.04799e-12
1.11493e-12
2.10643e-12
3.06305e-12
3.97594e-12
4.15907e-12
4.70008e-12
3.02222e-12
4.6495e-12
9.56818e-13
3.41402e-12
-2.06494e-12
4.33065e-13
-5.07767e-12
-3.33021e-12
-5.59627e-12
-7.34146e-12
-6.37919e-12
-1.93998e-12
1.56758e-12
-1.91781e-13
3.61144e-12
-8.35999e-13
3.81538e-12
6.35303e-13
4.84735e-12
8.27115e-14
9.9103e-12
-9.0454e-12
-7.32722e-12
1.44335e-10
3.91192e-13
4.57583e-10
1.40329e-11
3.69019e-10
4.58905e-13
1.96852e-11
-1.55268e-12
3.14074e-13
-6.80245e-13
6.5178e-13
7.37875e-13
1.13927e-12
3.30846e-12
1.50528e-12
4.83908e-12
1.05077e-12
4.76821e-12
3.00693e-13
3.45658e-12
-1.01415e-12
7.13211e-13
-2.43077e-12
-2.25903e-12
-2.80338e-12
-5.67921e-12
-3.17991e-12
-8.66751e-13
2.84886e-14
5.20175e-12
4.62361e-12
5.36008e-12
-5.88489e-12
1.98659e-11
-4.21948e-12
-1.19294e-11
-2.75101e-12
-2.37421e-12
1.70279e-14
1.85369e-12
4.22658e-12
5.46644e-12
4.688e-12
2.73551e-12
1.86864e-15
-2.94635e-12
-6.3421e-12
)
;

boundaryField
{
    sides
    {
        type            calculated;
        value           uniform 0;
    }
    inlet
    {
        type            calculated;
        value           uniform 0;
    }
    outlet
    {
        type            calculated;
        value           nonuniform List<scalar> 
20
(
7.15039e-12
6.54365e-12
7.73686e-12
5.96982e-12
5.05638e-12
7.12753e-12
3.84164e-12
5.34008e-12
1.83176e-12
3.66445e-13
-2.41658e-12
-2.36831e-12
-4.15724e-12
-2.20651e-12
-6.17341e-12
-4.92756e-12
-6.30375e-12
-8.19093e-12
-6.88274e-12
-7.3312e-12
)
;
    }
    frontAndBack
    {
        type            empty;
        value           nonuniform 0();
    }
}


// ************************************************************************* //
