/*--------------------------------*- C++ -*----------------------------------*\
  =========                 |
  \\      /  F ield         | OpenFOAM: The Open Source CFD Toolbox
   \\    /   O peration     | Website:  https://openfoam.org
    \\  /    A nd           | Version:  7
     \\/     M anipulation  |
\*---------------------------------------------------------------------------*/
FoamFile
{
    version     2.0;
    format      ascii;
    class       volVectorField;
    location    "49";
    object      hU;
}
// * * * * * * * * * * * * * * * * * * * * * * * * * * * * * * * * * * * * * //

dimensions      [0 2 -1 0 0 0 0];

internalField   nonuniform List<vector> 
400
(
(0.001 -8.82804e-09 0)
(0.000999999 -2.40977e-08 0)
(0.001 -3.65034e-08 0)
(0.001 -4.72114e-08 0)
(0.00100001 -5.72132e-08 0)
(0.00100001 -6.74747e-08 0)
(0.00100002 -7.7884e-08 0)
(0.00100003 -8.86076e-08 0)
(0.00100004 -9.92787e-08 0)
(0.00100006 -1.11277e-07 0)
(0.00100007 -1.22224e-07 0)
(0.0010001 -1.36098e-07 0)
(0.00100011 -1.46909e-07 0)
(0.00100015 -1.64087e-07 0)
(0.00100017 -1.73025e-07 0)
(0.00100024 -1.97106e-07 0)
(0.00100026 -2.01137e-07 0)
(0.00100038 -2.43046e-07 0)
(0.00100038 -2.38558e-07 0)
(0.00100061 -3.31047e-07 0)
(0.001 4.00193e-09 0)
(0.001 1.21256e-08 0)
(0.00100001 2.01424e-08 0)
(0.00100001 2.77318e-08 0)
(0.00100002 3.48578e-08 0)
(0.00100002 4.13128e-08 0)
(0.00100003 4.73174e-08 0)
(0.00100004 5.27891e-08 0)
(0.00100005 5.81378e-08 0)
(0.00100007 6.21218e-08 0)
(0.00100008 6.68934e-08 0)
(0.0010001 6.85362e-08 0)
(0.00100012 7.25715e-08 0)
(0.00100015 6.95751e-08 0)
(0.00100018 7.35961e-08 0)
(0.00100023 6.11185e-08 0)
(0.00100026 6.67044e-08 0)
(0.00100035 3.14572e-08 0)
(0.00100037 3.97965e-08 0)
(0.0010005 -5.42985e-08 0)
(0.001 -4.12263e-09 0)
(0.000999999 -1.35762e-08 0)
(0.001 -2.39057e-08 0)
(0.001 -3.45691e-08 0)
(0.00100001 -4.49803e-08 0)
(0.00100001 -5.54816e-08 0)
(0.00100002 -6.57275e-08 0)
(0.00100003 -7.70407e-08 0)
(0.00100004 -8.8208e-08 0)
(0.00100005 -1.01717e-07 0)
(0.00100006 -1.14652e-07 0)
(0.00100008 -1.32288e-07 0)
(0.0010001 -1.47082e-07 0)
(0.00100013 -1.71303e-07 0)
(0.00100016 -1.86718e-07 0)
(0.00100021 -2.22813e-07 0)
(0.00100023 -2.36624e-07 0)
(0.00100031 -2.97929e-07 0)
(0.00100033 -3.05428e-07 0)
(0.00100046 -4.20717e-07 0)
(0.001 -4.21274e-10 0)
(0.001 -9.91132e-10 0)
(0.00100001 -7.64258e-10 0)
(0.00100001 -1.48657e-10 0)
(0.00100001 6.90038e-10 0)
(0.00100002 9.5098e-10 0)
(0.00100003 1.10006e-09 0)
(0.00100004 -2.04883e-10 0)
(0.00100004 -1.77689e-09 0)
(0.00100006 -6.20253e-09 0)
(0.00100007 -1.05396e-08 0)
(0.00100009 -2.03384e-08 0)
(0.0010001 -2.78692e-08 0)
(0.00100013 -4.58778e-08 0)
(0.00100015 -5.5606e-08 0)
(0.00100019 -8.72362e-08 0)
(0.00100022 -9.68694e-08 0)
(0.00100028 -1.55295e-07 0)
(0.0010003 -1.60142e-07 0)
(0.00100039 -2.7407e-07 0)
(0.001 -3.11263e-09 0)
(0.001 -9.96425e-09 0)
(0.001 -1.74357e-08 0)
(0.001 -2.5704e-08 0)
(0.00100001 -3.43523e-08 0)
(0.00100001 -4.37979e-08 0)
(0.00100002 -5.34255e-08 0)
(0.00100002 -6.45726e-08 0)
(0.00100003 -7.604e-08 0)
(0.00100004 -9.05176e-08 0)
(0.00100005 -1.05027e-07 0)
(0.00100007 -1.25321e-07 0)
(0.00100008 -1.43496e-07 0)
(0.00100011 -1.72667e-07 0)
(0.00100013 -1.93454e-07 0)
(0.00100016 -2.36801e-07 0)
(0.00100018 -2.57364e-07 0)
(0.00100024 -3.27311e-07 0)
(0.00100025 -3.4076e-07 0)
(0.00100033 -4.62489e-07 0)
(0.001 -2.99165e-09 0)
(0.001 -8.83549e-09 0)
(0.001 -1.40925e-08 0)
(0.00100001 -1.89992e-08 0)
(0.00100001 -2.35146e-08 0)
(0.00100001 -2.84616e-08 0)
(0.00100002 -3.35846e-08 0)
(0.00100002 -4.03612e-08 0)
(0.00100003 -4.7778e-08 0)
(0.00100004 -5.8692e-08 0)
(0.00100005 -7.01869e-08 0)
(0.00100006 -8.80436e-08 0)
(0.00100008 -1.04334e-07 0)
(0.0010001 -1.31994e-07 0)
(0.00100011 -1.51501e-07 0)
(0.00100014 -1.93646e-07 0)
(0.00100016 -2.1297e-07 0)
(0.0010002 -2.81315e-07 0)
(0.00100021 -2.93161e-07 0)
(0.00100027 -4.12235e-07 0)
(0.001 -3.36255e-09 0)
(0.001 -1.01902e-08 0)
(0.001 -1.70763e-08 0)
(0.001 -2.44115e-08 0)
(0.00100001 -3.20825e-08 0)
(0.00100001 -4.06662e-08 0)
(0.00100001 -4.9765e-08 0)
(0.00100002 -6.07118e-08 0)
(0.00100002 -7.24524e-08 0)
(0.00100003 -8.77847e-08 0)
(0.00100004 -1.0374e-07 0)
(0.00100005 -1.26272e-07 0)
(0.00100006 -1.47361e-07 0)
(0.00100007 -1.80213e-07 0)
(0.00100009 -2.04876e-07 0)
(0.00100011 -2.52591e-07 0)
(0.00100012 -2.76865e-07 0)
(0.00100015 -3.5059e-07 0)
(0.00100016 -3.66188e-07 0)
(0.00100021 -4.8959e-07 0)
(0.001 -3.7321e-09 0)
(0.001 -1.12299e-08 0)
(0.001 -1.86877e-08 0)
(0.001 -2.63691e-08 0)
(0.001 -3.40481e-08 0)
(0.00100001 -4.23251e-08 0)
(0.00100001 -5.08946e-08 0)
(0.00100001 -6.12409e-08 0)
(0.00100002 -7.24522e-08 0)
(0.00100002 -8.74005e-08 0)
(0.00100003 -1.03254e-07 0)
(0.00100004 -1.25885e-07 0)
(0.00100004 -1.47278e-07 0)
(0.00100005 -1.80391e-07 0)
(0.00100006 -2.05379e-07 0)
(0.00100008 -2.53156e-07 0)
(0.00100009 -2.77543e-07 0)
(0.00100011 -3.50751e-07 0)
(0.00100012 -3.66062e-07 0)
(0.00100015 -4.87652e-07 0)
(0.001 -3.96735e-09 0)
(0.001 -1.18243e-08 0)
(0.001 -1.95693e-08 0)
(0.001 -2.75252e-08 0)
(0.001 -3.55149e-08 0)
(0.001 -4.42551e-08 0)
(0.00100001 -5.34559e-08 0)
(0.00100001 -6.46125e-08 0)
(0.00100001 -7.67462e-08 0)
(0.00100001 -9.27374e-08 0)
(0.00100002 -1.09735e-07 0)
(0.00100002 -1.3371e-07 0)
(0.00100003 -1.56573e-07 0)
(0.00100003 -1.91486e-07 0)
(0.00100004 -2.18282e-07 0)
(0.00100005 -2.68181e-07 0)
(0.00100005 -2.94257e-07 0)
(0.00100007 -3.69504e-07 0)
(0.00100007 -3.85858e-07 0)
(0.00100009 -5.09379e-07 0)
(0.001 -4.08167e-09 0)
(0.001 -1.21164e-08 0)
(0.001 -2.00281e-08 0)
(0.001 -2.8195e-08 0)
(0.001 -3.64379e-08 0)
(0.001 -4.54367e-08 0)
(0.001 -5.48862e-08 0)
(0.001 -6.63045e-08 0)
(0.001 -7.87655e-08 0)
(0.001 -9.51578e-08 0)
(0.00100001 -1.12639e-07 0)
(0.00100001 -1.371e-07 0)
(0.00100001 -1.60473e-07 0)
(0.00100001 -1.95802e-07 0)
(0.00100001 -2.23e-07 0)
(0.00100002 -2.73112e-07 0)
(0.00100002 -2.9945e-07 0)
(0.00100002 -3.74671e-07 0)
(0.00100002 -3.91196e-07 0)
(0.00100003 -5.14163e-07 0)
(0.001 -4.08924e-09 0)
(0.001 -1.2123e-08 0)
(0.001 -2.00394e-08 0)
(0.000999999 -2.82003e-08 0)
(0.000999999 -3.64424e-08 0)
(0.000999999 -4.54303e-08 0)
(0.000999998 -5.48819e-08 0)
(0.000999997 -6.62989e-08 0)
(0.000999996 -7.8763e-08 0)
(0.000999995 -9.51588e-08 0)
(0.000999994 -1.12633e-07 0)
(0.000999993 -1.37093e-07 0)
(0.000999991 -1.60473e-07 0)
(0.000999989 -1.95804e-07 0)
(0.000999987 -2.22998e-07 0)
(0.000999984 -2.73107e-07 0)
(0.000999982 -2.99452e-07 0)
(0.000999978 -3.74677e-07 0)
(0.000999976 -3.91205e-07 0)
(0.00099997 -5.14164e-07 0)
(0.001 -3.98169e-09 0)
(0.001 -1.18461e-08 0)
(0.000999999 -1.95903e-08 0)
(0.000999998 -2.75355e-08 0)
(0.000999997 -3.55195e-08 0)
(0.000999996 -4.42416e-08 0)
(0.000999994 -5.34419e-08 0)
(0.000999992 -6.46015e-08 0)
(0.000999989 -7.67383e-08 0)
(0.000999986 -9.27371e-08 0)
(0.000999983 -1.09728e-07 0)
(0.000999978 -1.33693e-07 0)
(0.000999974 -1.56564e-07 0)
(0.000999967 -1.91484e-07 0)
(0.000999961 -2.18278e-07 0)
(0.000999952 -2.68161e-07 0)
(0.000999946 -2.94246e-07 0)
(0.000999934 -3.69489e-07 0)
(0.00099993 -3.85851e-07 0)
(0.000999911 -5.09333e-07 0)
(0.001 -3.74396e-09 0)
(0.001 -1.12546e-08 0)
(0.000999999 -1.86941e-08 0)
(0.000999997 -2.63752e-08 0)
(0.000999996 -3.40416e-08 0)
(0.000999993 -4.2316e-08 0)
(0.00099999 -5.08763e-08 0)
(0.000999987 -6.12351e-08 0)
(0.000999983 -7.24445e-08 0)
(0.000999977 -8.73954e-08 0)
(0.000999972 -1.03261e-07 0)
(0.000999964 -1.25882e-07 0)
(0.000999957 -1.47272e-07 0)
(0.000999946 -1.80397e-07 0)
(0.000999936 -2.05396e-07 0)
(0.000999921 -2.53161e-07 0)
(0.00099991 -2.77553e-07 0)
(0.000999889 -3.50758e-07 0)
(0.000999882 -3.66079e-07 0)
(0.000999852 -4.87649e-07 0)
(0.001 -3.36975e-09 0)
(0.000999999 -1.01939e-08 0)
(0.000999998 -1.70625e-08 0)
(0.000999996 -2.44057e-08 0)
(0.000999994 -3.20649e-08 0)
(0.000999991 -4.06665e-08 0)
(0.000999987 -4.97481e-08 0)
(0.000999982 -6.07061e-08 0)
(0.000999977 -7.24463e-08 0)
(0.00099997 -8.77594e-08 0)
(0.000999962 -1.0373e-07 0)
(0.000999951 -1.26262e-07 0)
(0.000999941 -1.4734e-07 0)
(0.000999926 -1.8018e-07 0)
(0.000999913 -2.04854e-07 0)
(0.000999891 -2.52545e-07 0)
(0.000999878 -2.76818e-07 0)
(0.000999847 -3.50501e-07 0)
(0.000999838 -3.6611e-07 0)
(0.000999792 -4.89452e-07 0)
(0.001 -2.99254e-09 0)
(0.000999999 -8.81669e-09 0)
(0.000999997 -1.40762e-08 0)
(0.000999994 -1.89871e-08 0)
(0.000999991 -2.3514e-08 0)
(0.000999986 -2.84769e-08 0)
(0.000999981 -3.35937e-08 0)
(0.000999975 -4.03624e-08 0)
(0.000999968 -4.78042e-08 0)
(0.000999959 -5.86945e-08 0)
(0.00099995 -7.01844e-08 0)
(0.000999937 -8.80541e-08 0)
(0.000999923 -1.04347e-07 0)
(0.000999904 -1.31994e-07 0)
(0.000999887 -1.51509e-07 0)
(0.000999859 -1.93648e-07 0)
(0.00099984 -2.12973e-07 0)
(0.000999801 -2.81298e-07 0)
(0.000999787 -2.93153e-07 0)
(0.000999731 -4.12217e-07 0)
(0.001 -3.10554e-09 0)
(0.001 -9.93671e-09 0)
(0.000999999 -1.74334e-08 0)
(0.000999997 -2.56958e-08 0)
(0.000999994 -3.43741e-08 0)
(0.000999989 -4.37892e-08 0)
(0.000999984 -5.34617e-08 0)
(0.000999977 -6.45498e-08 0)
(0.000999969 -7.605e-08 0)
(0.000999958 -9.05314e-08 0)
(0.000999947 -1.05014e-07 0)
(0.000999931 -1.25301e-07 0)
(0.000999916 -1.43485e-07 0)
(0.000999892 -1.72631e-07 0)
(0.000999873 -1.93427e-07 0)
(0.000999837 -2.36748e-07 0)
(0.000999817 -2.57326e-07 0)
(0.000999764 -3.27213e-07 0)
(0.000999752 -3.40685e-07 0)
(0.00099967 -4.62329e-07 0)
(0.001 -3.92142e-10 0)
(0.000999998 -9.48199e-10 0)
(0.000999995 -7.73481e-10 0)
(0.00099999 -1.72007e-10 0)
(0.000999985 6.50996e-10 0)
(0.000999979 9.75902e-10 0)
(0.000999973 1.02549e-09 0)
(0.000999964 -2.23119e-10 0)
(0.000999955 -1.78547e-09 0)
(0.000999943 -6.23902e-09 0)
(0.000999931 -1.05577e-08 0)
(0.000999913 -2.03394e-08 0)
(0.000999895 -2.78774e-08 0)
(0.000999869 -4.58729e-08 0)
(0.000999846 -5.56032e-08 0)
(0.000999806 -8.72186e-08 0)
(0.000999779 -9.68615e-08 0)
(0.00099972 -1.55257e-07 0)
(0.000999698 -1.60109e-07 0)
(0.000999611 -2.74007e-07 0)
(0.001 -4.11774e-09 0)
(0.001 -1.35912e-08 0)
(0.001 -2.39105e-08 0)
(0.000999998 -3.4592e-08 0)
(0.000999994 -4.499e-08 0)
(0.000999989 -5.5434e-08 0)
(0.000999982 -6.57929e-08 0)
(0.000999973 -7.70675e-08 0)
(0.000999964 -8.81872e-08 0)
(0.00099995 -1.01708e-07 0)
(0.000999937 -1.14659e-07 0)
(0.000999916 -1.32284e-07 0)
(0.000999897 -1.47092e-07 0)
(0.000999865 -1.71302e-07 0)
(0.000999842 -1.86731e-07 0)
(0.000999791 -2.22798e-07 0)
(0.000999766 -2.36645e-07 0)
(0.000999687 -2.97899e-07 0)
(0.000999671 -3.05433e-07 0)
(0.000999539 -4.20642e-07 0)
(0.001 3.9769e-09 0)
(0.000999996 1.20393e-08 0)
(0.000999991 2.01254e-08 0)
(0.000999986 2.7766e-08 0)
(0.000999981 3.49274e-08 0)
(0.000999975 4.12063e-08 0)
(0.000999968 4.75256e-08 0)
(0.000999959 5.27898e-08 0)
(0.000999948 5.81657e-08 0)
(0.000999934 6.2162e-08 0)
(0.00099992 6.68907e-08 0)
(0.000999899 6.85358e-08 0)
(0.000999879 7.25659e-08 0)
(0.000999846 6.9585e-08 0)
(0.00099982 7.36044e-08 0)
(0.000999768 6.1159e-08 0)
(0.000999737 6.67254e-08 0)
(0.000999654 3.15271e-08 0)
(0.000999629 3.98486e-08 0)
(0.000999496 -5.41748e-08 0)
(0.001 -8.83314e-09 0)
(0.001 -2.41365e-08 0)
(0.001 -3.65173e-08 0)
(0.000999997 -4.71771e-08 0)
(0.000999992 -5.71606e-08 0)
(0.000999986 -6.76256e-08 0)
(0.000999979 -7.76693e-08 0)
(0.000999968 -8.86308e-08 0)
(0.000999958 -9.93071e-08 0)
(0.000999942 -1.11297e-07 0)
(0.000999929 -1.22274e-07 0)
(0.000999904 -1.36152e-07 0)
(0.000999887 -1.46966e-07 0)
(0.000999847 -1.64142e-07 0)
(0.000999827 -1.73085e-07 0)
(0.00099976 -1.97165e-07 0)
(0.000999742 -2.01205e-07 0)
(0.000999623 -2.4312e-07 0)
(0.000999617 -2.38635e-07 0)
(0.000999394 -3.31175e-07 0)
)
;

boundaryField
{
    sides
    {
        type            slip;
    }
    inlet
    {
        type            fixedValue;
        value           uniform (0.001 0 0);
    }
    outlet
    {
        type            zeroGradient;
    }
    frontAndBack
    {
        type            empty;
    }
}


// ************************************************************************* //
