/*--------------------------------*- C++ -*----------------------------------*\
  =========                 |
  \\      /  F ield         | OpenFOAM: The Open Source CFD Toolbox
   \\    /   O peration     | Website:  https://openfoam.org
    \\  /    A nd           | Version:  7
     \\/     M anipulation  |
\*---------------------------------------------------------------------------*/
FoamFile
{
    version     2.0;
    format      ascii;
    class       volVectorField;
    location    "49";
    object      hU_0;
}
// * * * * * * * * * * * * * * * * * * * * * * * * * * * * * * * * * * * * * //

dimensions      [0 2 -1 0 0 0 0];

internalField   nonuniform List<vector> 
400
(
(0.001 -8.84326e-09 0)
(0.000999999 -2.40987e-08 0)
(0.001 -3.64556e-08 0)
(0.001 -4.71458e-08 0)
(0.00100001 -5.71601e-08 0)
(0.00100001 -6.7373e-08 0)
(0.00100002 -7.78783e-08 0)
(0.00100003 -8.85648e-08 0)
(0.00100004 -9.92761e-08 0)
(0.00100006 -1.11265e-07 0)
(0.00100007 -1.22255e-07 0)
(0.0010001 -1.36158e-07 0)
(0.00100011 -1.46973e-07 0)
(0.00100015 -1.64124e-07 0)
(0.00100017 -1.73024e-07 0)
(0.00100024 -1.97054e-07 0)
(0.00100026 -2.0105e-07 0)
(0.00100038 -2.42958e-07 0)
(0.00100038 -2.38472e-07 0)
(0.00100061 -3.31037e-07 0)
(0.001 4.00263e-09 0)
(0.001 1.21169e-08 0)
(0.00100001 2.01535e-08 0)
(0.00100001 2.77195e-08 0)
(0.00100002 3.48327e-08 0)
(0.00100002 4.1312e-08 0)
(0.00100003 4.72991e-08 0)
(0.00100004 5.27823e-08 0)
(0.00100005 5.81302e-08 0)
(0.00100007 6.2166e-08 0)
(0.00100008 6.69266e-08 0)
(0.0010001 6.85478e-08 0)
(0.00100012 7.25633e-08 0)
(0.00100015 6.95544e-08 0)
(0.00100018 7.35785e-08 0)
(0.00100023 6.11174e-08 0)
(0.00100026 6.67314e-08 0)
(0.00100035 3.14922e-08 0)
(0.00100037 3.985e-08 0)
(0.0010005 -5.42675e-08 0)
(0.001 -4.13474e-09 0)
(0.000999999 -1.35909e-08 0)
(0.001 -2.38733e-08 0)
(0.001 -3.45023e-08 0)
(0.00100001 -4.48589e-08 0)
(0.00100001 -5.53787e-08 0)
(0.00100002 -6.55225e-08 0)
(0.00100003 -7.69021e-08 0)
(0.00100004 -8.81082e-08 0)
(0.00100005 -1.01684e-07 0)
(0.00100006 -1.14701e-07 0)
(0.00100008 -1.3239e-07 0)
(0.0010001 -1.47204e-07 0)
(0.00100013 -1.71392e-07 0)
(0.00100016 -1.86743e-07 0)
(0.00100021 -2.22746e-07 0)
(0.00100023 -2.36475e-07 0)
(0.00100031 -2.97767e-07 0)
(0.00100033 -3.05244e-07 0)
(0.00100046 -4.20665e-07 0)
(0.001 -4.55088e-10 0)
(0.001 -1.03156e-09 0)
(0.00100001 -7.46039e-10 0)
(0.00100001 -6.18359e-11 0)
(0.00100001 8.31153e-10 0)
(0.00100002 1.11404e-09 0)
(0.00100003 1.28706e-09 0)
(0.00100004 -3.73609e-11 0)
(0.00100004 -1.63847e-09 0)
(0.00100006 -6.15538e-09 0)
(0.00100007 -1.05945e-08 0)
(0.00100009 -2.04585e-08 0)
(0.0010001 -2.80308e-08 0)
(0.00100013 -4.6008e-08 0)
(0.00100015 -5.56557e-08 0)
(0.00100019 -8.71649e-08 0)
(0.00100022 -9.66829e-08 0)
(0.00100028 -1.55081e-07 0)
(0.0010003 -1.59892e-07 0)
(0.00100039 -2.73991e-07 0)
(0.001 -3.12468e-09 0)
(0.001 -9.98339e-09 0)
(0.001 -1.74255e-08 0)
(0.001 -2.56402e-08 0)
(0.00100001 -3.42499e-08 0)
(0.00100001 -4.36436e-08 0)
(0.00100002 -5.32837e-08 0)
(0.00100002 -6.44315e-08 0)
(0.00100003 -7.5924e-08 0)
(0.00100004 -9.04899e-08 0)
(0.00100005 -1.05085e-07 0)
(0.00100007 -1.25448e-07 0)
(0.00100008 -1.43679e-07 0)
(0.00100011 -1.7282e-07 0)
(0.00100013 -1.93518e-07 0)
(0.00100016 -2.36738e-07 0)
(0.00100018 -2.57172e-07 0)
(0.00100024 -3.27082e-07 0)
(0.00100025 -3.40483e-07 0)
(0.00100033 -4.62391e-07 0)
(0.001 -2.99835e-09 0)
(0.001 -8.80866e-09 0)
(0.001 -1.40061e-08 0)
(0.00100001 -1.88318e-08 0)
(0.00100001 -2.32958e-08 0)
(0.00100001 -2.81972e-08 0)
(0.00100002 -3.33286e-08 0)
(0.00100002 -4.01238e-08 0)
(0.00100003 -4.76299e-08 0)
(0.00100004 -5.86644e-08 0)
(0.00100005 -7.02882e-08 0)
(0.00100006 -8.82559e-08 0)
(0.00100008 -1.04611e-07 0)
(0.0010001 -1.32203e-07 0)
(0.00100011 -1.51572e-07 0)
(0.00100014 -1.93533e-07 0)
(0.00100016 -2.1269e-07 0)
(0.0010002 -2.80997e-07 0)
(0.00100021 -2.92789e-07 0)
(0.00100027 -4.12121e-07 0)
(0.001 -3.36316e-09 0)
(0.001 -1.01602e-08 0)
(0.001 -1.70078e-08 0)
(0.001 -2.42917e-08 0)
(0.00100001 -3.19133e-08 0)
(0.00100001 -4.04647e-08 0)
(0.00100001 -4.95473e-08 0)
(0.00100002 -6.05092e-08 0)
(0.00100002 -7.23131e-08 0)
(0.00100003 -8.77289e-08 0)
(0.00100004 -1.03808e-07 0)
(0.00100005 -1.2646e-07 0)
(0.00100006 -1.47622e-07 0)
(0.00100007 -1.80426e-07 0)
(0.00100009 -2.04973e-07 0)
(0.00100011 -2.52517e-07 0)
(0.00100012 -2.76616e-07 0)
(0.00100015 -3.50293e-07 0)
(0.00100016 -3.65819e-07 0)
(0.00100021 -4.89459e-07 0)
(0.001 -3.73186e-09 0)
(0.001 -1.11929e-08 0)
(0.001 -1.85933e-08 0)
(0.001 -2.62118e-08 0)
(0.001 -3.38213e-08 0)
(0.00100001 -4.20577e-08 0)
(0.00100001 -5.06107e-08 0)
(0.00100001 -6.09951e-08 0)
(0.00100002 -7.22922e-08 0)
(0.00100002 -8.73663e-08 0)
(0.00100003 -1.03386e-07 0)
(0.00100004 -1.26146e-07 0)
(0.00100004 -1.47599e-07 0)
(0.00100005 -1.80636e-07 0)
(0.00100006 -2.0548e-07 0)
(0.00100008 -2.53047e-07 0)
(0.00100009 -2.77235e-07 0)
(0.00100011 -3.504e-07 0)
(0.00100012 -3.65652e-07 0)
(0.00100015 -4.87527e-07 0)
(0.001 -3.96806e-09 0)
(0.001 -1.17815e-08 0)
(0.001 -1.94666e-08 0)
(0.001 -2.73559e-08 0)
(0.001 -3.52824e-08 0)
(0.001 -4.39785e-08 0)
(0.00100001 -5.31646e-08 0)
(0.00100001 -6.43563e-08 0)
(0.00100001 -7.65676e-08 0)
(0.00100001 -9.26886e-08 0)
(0.00100002 -1.09849e-07 0)
(0.00100002 -1.3395e-07 0)
(0.00100003 -1.5689e-07 0)
(0.00100003 -1.91751e-07 0)
(0.00100004 -2.18411e-07 0)
(0.00100005 -2.68099e-07 0)
(0.00100005 -2.93963e-07 0)
(0.00100007 -3.69161e-07 0)
(0.00100007 -3.85448e-07 0)
(0.00100009 -5.09245e-07 0)
(0.001 -4.08346e-09 0)
(0.001 -1.20674e-08 0)
(0.001 -1.99222e-08 0)
(0.001 -2.80234e-08 0)
(0.001 -3.62007e-08 0)
(0.001 -4.51471e-08 0)
(0.001 -5.45792e-08 0)
(0.001 -6.60353e-08 0)
(0.001 -7.85879e-08 0)
(0.001 -9.51263e-08 0)
(0.00100001 -1.12778e-07 0)
(0.00100001 -1.37368e-07 0)
(0.00100001 -1.60817e-07 0)
(0.00100001 -1.96082e-07 0)
(0.00100001 -2.23129e-07 0)
(0.00100002 -2.73015e-07 0)
(0.00100002 -2.99135e-07 0)
(0.00100002 -3.74306e-07 0)
(0.00100002 -3.9077e-07 0)
(0.00100003 -5.14031e-07 0)
(0.001 -4.088e-09 0)
(0.001 -1.20684e-08 0)
(0.001 -1.9929e-08 0)
(0.000999999 -2.8032e-08 0)
(0.000999999 -3.62071e-08 0)
(0.000999999 -4.5149e-08 0)
(0.000999998 -5.45844e-08 0)
(0.000999997 -6.60374e-08 0)
(0.000999996 -7.85945e-08 0)
(0.000999995 -9.51281e-08 0)
(0.000999994 -1.12776e-07 0)
(0.000999993 -1.3737e-07 0)
(0.000999991 -1.60822e-07 0)
(0.000999989 -1.96084e-07 0)
(0.000999987 -2.23128e-07 0)
(0.000999984 -2.73016e-07 0)
(0.000999982 -2.99142e-07 0)
(0.000999978 -3.7431e-07 0)
(0.000999976 -3.90768e-07 0)
(0.00099997 -5.14025e-07 0)
(0.001 -3.97617e-09 0)
(0.001 -1.17887e-08 0)
(0.000999999 -1.94845e-08 0)
(0.000999998 -2.7372e-08 0)
(0.000999997 -3.52943e-08 0)
(0.000999996 -4.39781e-08 0)
(0.000999994 -5.31715e-08 0)
(0.000999992 -6.43601e-08 0)
(0.000999989 -7.65769e-08 0)
(0.000999986 -9.26956e-08 0)
(0.000999983 -1.09846e-07 0)
(0.000999978 -1.33947e-07 0)
(0.000999974 -1.56898e-07 0)
(0.000999967 -1.91756e-07 0)
(0.000999961 -2.18408e-07 0)
(0.000999952 -2.68087e-07 0)
(0.000999946 -2.93963e-07 0)
(0.000999934 -3.69141e-07 0)
(0.00099993 -3.85417e-07 0)
(0.000999911 -5.09184e-07 0)
(0.001 -3.73753e-09 0)
(0.001 -1.12095e-08 0)
(0.000999999 -1.86065e-08 0)
(0.000999997 -2.62194e-08 0)
(0.000999995 -3.38243e-08 0)
(0.000999993 -4.20495e-08 0)
(0.00099999 -5.06065e-08 0)
(0.000999987 -6.0998e-08 0)
(0.000999983 -7.22909e-08 0)
(0.000999977 -8.73779e-08 0)
(0.000999972 -1.03398e-07 0)
(0.000999964 -1.26143e-07 0)
(0.000999957 -1.47606e-07 0)
(0.000999946 -1.80655e-07 0)
(0.000999936 -2.05496e-07 0)
(0.000999921 -2.53051e-07 0)
(0.00099991 -2.77248e-07 0)
(0.000999889 -3.50402e-07 0)
(0.000999882 -3.65653e-07 0)
(0.000999852 -4.87514e-07 0)
(0.001 -3.36786e-09 0)
(0.000999999 -1.01752e-08 0)
(0.000999998 -1.70001e-08 0)
(0.000999996 -2.4286e-08 0)
(0.000999994 -3.18962e-08 0)
(0.000999991 -4.04516e-08 0)
(0.000999987 -4.95243e-08 0)
(0.000999982 -6.05022e-08 0)
(0.000999977 -7.22904e-08 0)
(0.00099997 -8.77118e-08 0)
(0.000999962 -1.0381e-07 0)
(0.000999951 -1.26443e-07 0)
(0.000999941 -1.47597e-07 0)
(0.000999926 -1.80397e-07 0)
(0.000999913 -2.04951e-07 0)
(0.000999891 -2.52464e-07 0)
(0.000999878 -2.76563e-07 0)
(0.000999847 -3.50203e-07 0)
(0.000999838 -3.65744e-07 0)
(0.000999792 -4.89322e-07 0)
(0.001 -3.00403e-09 0)
(0.000999999 -8.80992e-09 0)
(0.000999997 -1.39867e-08 0)
(0.000999994 -1.88229e-08 0)
(0.000999991 -2.32779e-08 0)
(0.000999986 -2.82091e-08 0)
(0.000999981 -3.33118e-08 0)
(0.000999975 -4.01319e-08 0)
(0.000999968 -4.76331e-08 0)
(0.000999959 -5.86473e-08 0)
(0.00099995 -7.02916e-08 0)
(0.000999937 -8.82656e-08 0)
(0.000999923 -1.04611e-07 0)
(0.000999904 -1.32196e-07 0)
(0.000999887 -1.5158e-07 0)
(0.000999859 -1.9353e-07 0)
(0.00099984 -2.12687e-07 0)
(0.000999801 -2.80983e-07 0)
(0.000999787 -2.92793e-07 0)
(0.000999732 -4.12111e-07 0)
(0.001 -3.12545e-09 0)
(0.001 -9.95972e-09 0)
(0.000999999 -1.74055e-08 0)
(0.000999997 -2.56299e-08 0)
(0.000999994 -3.42516e-08 0)
(0.000999989 -4.36631e-08 0)
(0.000999984 -5.32786e-08 0)
(0.000999977 -6.44124e-08 0)
(0.000999969 -7.59462e-08 0)
(0.000999958 -9.04741e-08 0)
(0.000999947 -1.0506e-07 0)
(0.000999931 -1.25429e-07 0)
(0.000999916 -1.4366e-07 0)
(0.000999892 -1.72777e-07 0)
(0.000999872 -1.93491e-07 0)
(0.000999837 -2.36684e-07 0)
(0.000999817 -2.57132e-07 0)
(0.000999764 -3.2699e-07 0)
(0.000999752 -3.4042e-07 0)
(0.00099967 -4.62238e-07 0)
(0.001 -4.34636e-10 0)
(0.000999998 -9.79743e-10 0)
(0.000999995 -7.28232e-10 0)
(0.00099999 -7.45453e-11 0)
(0.000999985 7.82639e-10 0)
(0.000999979 1.11679e-09 0)
(0.000999973 1.22243e-09 0)
(0.000999964 -2.70145e-11 0)
(0.000999955 -1.67493e-09 0)
(0.000999943 -6.1807e-09 0)
(0.000999931 -1.05905e-08 0)
(0.000999913 -2.04546e-08 0)
(0.000999895 -2.80358e-08 0)
(0.000999869 -4.59987e-08 0)
(0.000999846 -5.56531e-08 0)
(0.000999806 -8.71491e-08 0)
(0.000999779 -9.66752e-08 0)
(0.00099972 -1.55044e-07 0)
(0.000999698 -1.59863e-07 0)
(0.000999611 -2.73931e-07 0)
(0.001 -4.13352e-09 0)
(0.001 -1.35987e-08 0)
(0.001 -2.38899e-08 0)
(0.000999998 -3.4514e-08 0)
(0.000999994 -4.49053e-08 0)
(0.000999989 -5.53197e-08 0)
(0.000999982 -6.56944e-08 0)
(0.000999973 -7.68995e-08 0)
(0.000999964 -8.80898e-08 0)
(0.00099995 -1.01693e-07 0)
(0.000999937 -1.14704e-07 0)
(0.000999916 -1.32384e-07 0)
(0.000999897 -1.47219e-07 0)
(0.000999865 -1.71391e-07 0)
(0.000999842 -1.86758e-07 0)
(0.000999791 -2.22735e-07 0)
(0.000999766 -2.36499e-07 0)
(0.000999687 -2.97736e-07 0)
(0.000999671 -3.05247e-07 0)
(0.00099954 -4.2059e-07 0)
(0.001 3.9943e-09 0)
(0.000999996 1.20484e-08 0)
(0.000999991 2.00822e-08 0)
(0.000999986 2.77335e-08 0)
(0.000999981 3.49104e-08 0)
(0.000999975 4.12737e-08 0)
(0.000999968 4.75e-08 0)
(0.000999959 5.27502e-08 0)
(0.000999948 5.81736e-08 0)
(0.000999934 6.21627e-08 0)
(0.00099992 6.69036e-08 0)
(0.000999899 6.85424e-08 0)
(0.000999879 7.25539e-08 0)
(0.000999846 6.95641e-08 0)
(0.00099982 7.35849e-08 0)
(0.000999768 6.11527e-08 0)
(0.000999737 6.6749e-08 0)
(0.000999654 3.15635e-08 0)
(0.000999629 3.9905e-08 0)
(0.000999496 -5.41429e-08 0)
(0.001 -8.8331e-09 0)
(0.001 -2.41242e-08 0)
(0.001 -3.6499e-08 0)
(0.000999997 -4.71366e-08 0)
(0.000999992 -5.70786e-08 0)
(0.000999986 -6.74673e-08 0)
(0.000999978 -7.75791e-08 0)
(0.000999968 -8.86275e-08 0)
(0.000999958 -9.92941e-08 0)
(0.000999942 -1.11311e-07 0)
(0.000999929 -1.22318e-07 0)
(0.000999904 -1.36213e-07 0)
(0.000999887 -1.47031e-07 0)
(0.000999847 -1.64178e-07 0)
(0.000999827 -1.73085e-07 0)
(0.00099976 -1.97114e-07 0)
(0.000999742 -2.01119e-07 0)
(0.000999623 -2.43031e-07 0)
(0.000999617 -2.38547e-07 0)
(0.000999394 -3.31164e-07 0)
)
;

boundaryField
{
    sides
    {
        type            slip;
    }
    inlet
    {
        type            fixedValue;
        value           uniform (0.001 0 0);
    }
    outlet
    {
        type            zeroGradient;
    }
    frontAndBack
    {
        type            empty;
    }
}


// ************************************************************************* //
