/*--------------------------------*- C++ -*----------------------------------*\
  =========                 |
  \\      /  F ield         | OpenFOAM: The Open Source CFD Toolbox
   \\    /   O peration     | Website:  https://openfoam.org
    \\  /    A nd           | Version:  7
     \\/     M anipulation  |
\*---------------------------------------------------------------------------*/
FoamFile
{
    version     2.0;
    format      ascii;
    class       surfaceScalarField;
    location    "49";
    object      phi_0;
}
// * * * * * * * * * * * * * * * * * * * * * * * * * * * * * * * * * * * * * //

dimensions      [0 4 -1 0 0 0 0];

internalField   nonuniform List<scalar> 
760
(
4.99999e-06
9.66282e-12
5e-06
-5.29019e-12
5.00001e-06
-1.43568e-11
5.00003e-06
-2.12669e-11
5.00006e-06
-2.80078e-11
5.00009e-06
-3.56152e-11
5.00013e-06
-3.82837e-11
5.00018e-06
-5.3822e-11
5.00024e-06
-6.18675e-11
5.00032e-06
-7.72217e-11
5.00041e-06
-8.9432e-11
5.00052e-06
-1.14051e-10
5.00065e-06
-1.28045e-10
5.00082e-06
-1.70108e-10
5.001e-06
-1.80805e-10
5.00126e-06
-2.59743e-10
5.00152e-06
-2.57731e-10
5.00195e-06
-4.32249e-10
5.00236e-06
-4.12632e-10
-8.88941e-10
5.00002e-06
-1.22156e-11
5.00004e-06
-2.1122e-11
5.00005e-06
-3.23886e-11
5.00008e-06
-4.52144e-11
5.00011e-06
-5.73595e-11
5.00014e-06
-7.12218e-11
5.00018e-06
-8.47381e-11
5.00023e-06
-1.04436e-10
5.00029e-06
-1.21832e-10
5.00036e-06
-1.50772e-10
5.00045e-06
-1.75277e-10
5.00056e-06
-2.21948e-10
5.00068e-06
-2.52601e-10
5.00084e-06
-3.28842e-10
5.00102e-06
-3.59664e-10
5.00125e-06
-4.92045e-10
5.0015e-06
-5.12532e-10
5.00184e-06
-7.69046e-10
5.00218e-06
-7.57227e-10
-1.25724e-09
4.99999e-06
-6.05593e-12
4.99999e-06
-2.35666e-11
5e-06
-4.22342e-11
5.00002e-06
-6.15817e-11
5.00004e-06
-8.07058e-11
5.00007e-06
-1.02188e-10
5.00011e-06
-1.23375e-10
5.00016e-06
-1.51026e-10
5.00021e-06
-1.79633e-10
5.00028e-06
-2.20222e-10
5.00037e-06
-2.59868e-10
5.00047e-06
-3.23307e-10
5.00059e-06
-3.75517e-10
5.00073e-06
-4.74715e-10
5.00091e-06
-5.34457e-10
5.00111e-06
-6.95835e-10
5.00135e-06
-7.52828e-10
5.00162e-06
-1.04282e-09
5.00195e-06
-1.07856e-09
-1.68146e-09
5.00001e-06
-1.38884e-11
5.00002e-06
-3.7755e-11
5.00004e-06
-6.06885e-11
5.00006e-06
-8.43862e-11
5.00009e-06
-1.07819e-10
5.00012e-06
-1.34448e-10
5.00016e-06
-1.61453e-10
5.0002e-06
-1.96233e-10
5.00025e-06
-2.32201e-10
5.00031e-06
-2.83895e-10
5.00039e-06
-3.35022e-10
5.00048e-06
-4.15207e-10
5.00059e-06
-4.83022e-10
5.00072e-06
-6.05882e-10
5.00086e-06
-6.84263e-10
5.00105e-06
-8.76966e-10
5.00125e-06
-9.53483e-10
5.00149e-06
-1.28222e-09
5.00173e-06
-1.3257e-09
-1.88811e-09
5e-06
-1.34497e-11
5e-06
-4.16726e-11
5.00001e-06
-6.94466e-11
5.00002e-06
-9.80784e-11
5.00004e-06
-1.27078e-10
5.00007e-06
-1.59366e-10
5.0001e-06
-1.93289e-10
5.00013e-06
-2.35034e-10
5.00018e-06
-2.79672e-10
5.00024e-06
-3.40569e-10
5.0003e-06
-4.03287e-10
5.00038e-06
-4.95742e-10
5.00048e-06
-5.79675e-10
5.00059e-06
-7.18236e-10
5.00072e-06
-8.16721e-10
5.00087e-06
-1.02634e-09
5.00104e-06
-1.12415e-09
5.00122e-06
-1.46434e-09
5.00142e-06
-1.52627e-09
-2.15096e-09
5e-06
-1.59856e-11
5.00001e-06
-4.92684e-11
5.00002e-06
-8.16996e-11
5.00004e-06
-1.14648e-10
5.00006e-06
-1.47682e-10
5.00008e-06
-1.84069e-10
5.00011e-06
-2.22185e-10
5.00014e-06
-2.69093e-10
5.00018e-06
-3.19748e-10
5.00023e-06
-3.8838e-10
5.00028e-06
-4.5993e-10
5.00035e-06
-5.64091e-10
5.00043e-06
-6.60002e-10
5.00052e-06
-8.1351e-10
5.00063e-06
-9.24789e-10
5.00076e-06
-1.15094e-09
5.00089e-06
-1.26008e-09
5.00105e-06
-1.61884e-09
5.00121e-06
-1.68898e-09
-2.27942e-09
5e-06
-1.82083e-11
5.00001e-06
-5.44155e-11
5.00001e-06
-8.97301e-11
5.00002e-06
-1.25532e-10
5.00004e-06
-1.61804e-10
5.00005e-06
-2.01897e-10
5.00008e-06
-2.44181e-10
5.0001e-06
-2.9585e-10
5.00013e-06
-3.52031e-10
5.00017e-06
-4.26673e-10
5.00022e-06
-5.0546e-10
5.00027e-06
-6.17517e-10
5.00033e-06
-7.22806e-10
5.0004e-06
-8.86081e-10
5.00049e-06
-1.00866e-09
5.00058e-06
-1.24527e-09
5.00069e-06
-1.3653e-09
5.0008e-06
-1.73003e-09
5.00091e-06
-1.80391e-09
-2.4272e-09
5e-06
-1.96e-11
5e-06
-5.79648e-11
5.00001e-06
-9.5433e-11
5.00002e-06
-1.33966e-10
5.00003e-06
-1.7292e-10
5.00004e-06
-2.15768e-10
5.00006e-06
-2.60867e-10
5.00008e-06
-3.15698e-10
5.0001e-06
-3.75448e-10
5.00013e-06
-4.54493e-10
5.00016e-06
-5.38535e-10
5.0002e-06
-6.56817e-10
5.00024e-06
-7.68855e-10
5.0003e-06
-9.39724e-10
5.00036e-06
-1.06942e-09
5.00043e-06
-1.31353e-09
5.0005e-06
-1.4391e-09
5.00058e-06
-1.81094e-09
5.00067e-06
-1.8912e-09
-2.49994e-09
5e-06
-2.0428e-11
5e-06
-6.02165e-11
5.00001e-06
-9.91425e-11
5.00001e-06
-1.39283e-10
5.00002e-06
-1.79788e-10
5.00003e-06
-2.24132e-10
5.00003e-06
-2.7086e-10
5.00005e-06
-3.27648e-10
5.00006e-06
-3.89721e-10
5.00008e-06
-4.71566e-10
5.0001e-06
-5.58758e-10
5.00012e-06
-6.8054e-10
5.00015e-06
-7.96437e-10
5.00018e-06
-9.71486e-10
5.00022e-06
-1.10533e-09
5.00026e-06
-1.35362e-09
5.0003e-06
-1.48297e-09
5.00035e-06
-1.85799e-09
5.00039e-06
-1.93842e-09
-2.55559e-09
5e-06
-2.07418e-11
5e-06
-6.10027e-11
5e-06
-1.00438e-10
5e-06
-1.41084e-10
5.00001e-06
-1.82077e-10
5.00001e-06
-2.26954e-10
5.00001e-06
-2.7434e-10
5.00002e-06
-3.31806e-10
5.00002e-06
-3.94612e-10
5.00003e-06
-4.77178e-10
5.00003e-06
-5.6526e-10
5.00004e-06
-6.88165e-10
5.00005e-06
-8.05504e-10
5.00006e-06
-9.82092e-10
5.00007e-06
-1.11761e-09
5.00009e-06
-1.36739e-09
5.0001e-06
-1.49799e-09
5.00012e-06
-1.87364e-09
5.00013e-06
-1.95535e-09
-2.57143e-09
5e-06
-2.04734e-11
5e-06
-6.02293e-11
5e-06
-9.92144e-11
5e-06
-1.39375e-10
4.99999e-06
-1.79855e-10
4.99999e-06
-2.2415e-10
4.99999e-06
-2.70908e-10
4.99998e-06
-3.27665e-10
4.99998e-06
-3.89782e-10
4.99997e-06
-4.71585e-10
4.99997e-06
-5.58741e-10
4.99996e-06
-6.80563e-10
4.99995e-06
-7.96494e-10
4.99994e-06
-9.71508e-10
4.99993e-06
-1.10533e-09
4.99991e-06
-1.35362e-09
4.9999e-06
-1.48303e-09
4.99988e-06
-1.858e-09
4.99987e-06
-1.93838e-09
-2.55544e-09
5e-06
-1.96332e-11
5e-06
-5.80331e-11
4.99999e-06
-9.55535e-11
4.99999e-06
-1.34045e-10
4.99998e-06
-1.72975e-10
4.99997e-06
-2.15742e-10
4.99997e-06
-2.60879e-10
4.99995e-06
-3.15712e-10
4.99994e-06
-3.75471e-10
4.99992e-06
-4.54545e-10
4.9999e-06
-5.38536e-10
4.99988e-06
-6.56771e-10
4.99985e-06
-7.68891e-10
4.99982e-06
-9.39789e-10
4.99978e-06
-1.06944e-09
4.99974e-06
-1.31349e-09
4.9997e-06
-1.43912e-09
4.99965e-06
-1.81087e-09
4.99961e-06
-1.89109e-09
-2.49972e-09
5e-06
-1.82291e-11
5e-06
-5.45242e-11
4.99999e-06
-8.97537e-11
4.99998e-06
-1.25533e-10
4.99997e-06
-1.61779e-10
4.99996e-06
-2.01831e-10
4.99994e-06
-2.44111e-10
4.99992e-06
-2.95842e-10
4.9999e-06
-3.51965e-10
4.99987e-06
-4.26694e-10
4.99984e-06
-5.05537e-10
4.9998e-06
-6.17471e-10
4.99976e-06
-7.22764e-10
4.9997e-06
-8.86084e-10
4.99964e-06
-1.00868e-09
4.99957e-06
-1.24518e-09
4.9995e-06
-1.36522e-09
4.99942e-06
-1.72984e-09
4.99933e-06
-1.80376e-09
-2.42686e-09
5e-06
-1.60143e-11
4.99999e-06
-4.93087e-11
4.99999e-06
-8.15899e-11
4.99998e-06
-1.14598e-10
4.99996e-06
-1.47551e-10
4.99995e-06
-1.84041e-10
4.99992e-06
-2.22071e-10
4.9999e-06
-2.6909e-10
4.99987e-06
-3.19652e-10
4.99983e-06
-3.88258e-10
4.99978e-06
-4.5995e-10
4.99973e-06
-5.6408e-10
4.99967e-06
-6.59925e-10
4.9996e-06
-8.13397e-10
4.99951e-06
-9.24737e-10
4.99942e-06
-1.15078e-09
4.99931e-06
-1.25991e-09
4.9992e-06
-1.61855e-09
4.99909e-06
-1.68879e-09
-2.27904e-09
5e-06
-1.34673e-11
4.99999e-06
-4.15937e-11
4.99998e-06
-6.93095e-11
4.99996e-06
-9.80085e-11
4.99994e-06
-1.27013e-10
4.99992e-06
-1.59534e-10
4.99989e-06
-1.93209e-10
4.99986e-06
-2.35093e-10
4.99982e-06
-2.79777e-10
4.99977e-06
-3.40458e-10
4.99972e-06
-4.03212e-10
4.99965e-06
-4.95729e-10
4.99957e-06
-5.79632e-10
4.99948e-06
-7.18099e-10
4.99937e-06
-8.16662e-10
4.99924e-06
-1.02619e-09
4.99911e-06
-1.12402e-09
4.99895e-06
-1.46406e-09
4.99879e-06
-1.52611e-09
-2.15054e-09
5e-06
-1.3845e-11
5e-06
-3.75801e-11
4.99999e-06
-6.06206e-11
4.99998e-06
-8.4361e-11
4.99996e-06
-1.07998e-10
4.99993e-06
-1.34518e-10
4.9999e-06
-1.61534e-10
4.99987e-06
-1.96023e-10
4.99982e-06
-2.32396e-10
4.99976e-06
-2.83952e-10
4.9997e-06
-3.34933e-10
4.99962e-06
-4.15146e-10
4.99952e-06
-4.83001e-10
4.99941e-06
-6.05757e-10
4.99928e-06
-6.84198e-10
4.99913e-06
-8.7681e-10
4.99896e-06
-9.53391e-10
4.99878e-06
-1.28193e-09
4.99858e-06
-1.3255e-09
-1.8876e-09
4.99999e-06
-6.00135e-12
4.99998e-06
-2.34742e-11
4.99996e-06
-4.23142e-11
4.99994e-06
-6.16575e-11
4.99991e-06
-8.09136e-11
4.99988e-06
-1.01919e-10
4.99984e-06
-1.24086e-10
4.9998e-06
-1.51123e-10
4.99975e-06
-1.79607e-10
4.99969e-06
-2.20372e-10
4.99961e-06
-2.59913e-10
4.99952e-06
-3.23295e-10
4.99942e-06
-3.75565e-10
4.99928e-06
-4.74688e-10
4.99914e-06
-5.34474e-10
4.99896e-06
-6.95754e-10
4.99875e-06
-7.52847e-10
4.99852e-06
-1.04262e-09
4.99827e-06
-1.07846e-09
-1.68108e-09
5.00001e-06
-1.22539e-11
5.00001e-06
-2.13529e-11
5e-06
-3.26929e-11
4.99998e-06
-4.5293e-11
4.99996e-06
-5.72474e-11
4.99993e-06
-7.08183e-11
4.99989e-06
-8.53552e-11
4.99984e-06
-1.04257e-10
4.99979e-06
-1.21697e-10
4.99972e-06
-1.50785e-10
4.99963e-06
-1.75331e-10
4.99953e-06
-2.21923e-10
4.99941e-06
-2.52644e-10
4.99927e-06
-3.28808e-10
4.99909e-06
-3.59687e-10
4.99889e-06
-4.91921e-10
4.99865e-06
-5.12559e-10
4.99838e-06
-7.688e-10
4.99805e-06
-7.57112e-10
-1.25677e-09
4.99998e-06
9.6426e-12
4.99996e-06
-5.58225e-12
4.99995e-06
-1.46131e-11
4.99992e-06
-2.10881e-11
4.99989e-06
-2.77995e-11
4.99986e-06
-3.78308e-11
4.99982e-06
-4.37754e-11
4.99977e-06
-5.49784e-11
4.99971e-06
-6.20429e-11
4.99964e-06
-7.72569e-11
4.99955e-06
-8.95799e-11
4.99945e-06
-1.14174e-10
4.99932e-06
-1.2819e-10
4.99916e-06
-1.70214e-10
4.99899e-06
-1.80923e-10
4.99875e-06
-2.59794e-10
4.9985e-06
-2.57847e-10
4.99816e-06
-4.32265e-10
4.99782e-06
-4.12692e-10
-8.88942e-10
5.00001e-06
5e-06
4.99999e-06
4.99997e-06
4.99994e-06
4.99991e-06
4.99987e-06
4.99982e-06
4.99976e-06
4.99968e-06
4.99959e-06
4.99948e-06
4.99935e-06
4.99918e-06
4.999e-06
4.99874e-06
4.99848e-06
4.99805e-06
4.99764e-06
)
;

boundaryField
{
    sides
    {
        type            calculated;
        value           uniform 0;
    }
    inlet
    {
        type            calculated;
        value           nonuniform List<scalar> 
20
(
-5e-06
-5e-06
-5e-06
-5e-06
-5e-06
-5e-06
-5e-06
-5e-06
-5e-06
-5e-06
-5e-06
-5e-06
-5e-06
-5e-06
-5e-06
-5e-06
-5e-06
-5e-06
-5e-06
-5e-06
)
;
    }
    outlet
    {
        type            calculated;
        value           nonuniform List<scalar> 
20
(
5.00325e-06
5.00255e-06
5.00237e-06
5.00194e-06
5.00169e-06
5.00134e-06
5.00106e-06
5.00074e-06
5.00045e-06
5.00015e-06
4.99985e-06
4.99955e-06
4.99926e-06
4.99894e-06
4.99866e-06
4.99831e-06
4.99806e-06
4.99763e-06
4.99745e-06
4.99675e-06
)
;
    }
    frontAndBack
    {
        type            empty;
        value           nonuniform 0();
    }
}


// ************************************************************************* //
