/*--------------------------------*- C++ -*----------------------------------*\
  =========                 |
  \\      /  F ield         | OpenFOAM: The Open Source CFD Toolbox
   \\    /   O peration     | Website:  https://openfoam.org
    \\  /    A nd           | Version:  7
     \\/     M anipulation  |
\*---------------------------------------------------------------------------*/
FoamFile
{
    version     2.0;
    format      ascii;
    class       volScalarField;
    location    "300";
    object      epsilon;
}
// * * * * * * * * * * * * * * * * * * * * * * * * * * * * * * * * * * * * * //

dimensions      [0 2 -3 0 0 0 0];

internalField   nonuniform List<scalar> 
96800
(
0.000170879
0.000170897
0.000170708
0.000170473
0.000170186
0.000169881
0.000169608
0.000169381
0.000169208
0.000169085
0.00016902
0.000169023
0.000169103
0.000169244
0.000169472
0.000169779
0.000170182
0.000170668
0.000171207
0.000171775
0.000172398
0.000173293
0.00017115
0.000171545
0.000171405
0.000171174
0.000170869
0.000170548
0.000170259
0.000170023
0.000169844
0.000169722
0.000169659
0.000169659
0.000169727
0.00016987
0.000170091
0.000170403
0.000170806
0.000171288
0.000171816
0.000172348
0.000172859
0.000173277
0.000171365
0.000171841
0.000171741
0.000171491
0.000171149
0.000170785
0.000170457
0.00017019
0.000169994
0.000169866
0.0001698
0.0001698
0.000169867
0.000170003
0.000170223
0.000170533
0.000170929
0.000171395
0.000171895
0.000172361
0.00017272
0.000172849
0.000171654
0.000172144
0.000172035
0.000171738
0.000171334
0.000170909
0.000170525
0.00017022
0.000170001
0.000169862
0.000169796
0.0001698
0.000169867
0.000170004
0.000170219
0.000170521
0.000170907
0.000171357
0.000171832
0.000172248
0.000172524
0.000172549
0.000171935
0.000172414
0.000172268
0.000171911
0.000171432
0.000170932
0.000170487
0.000170139
0.000169896
0.000169749
0.000169688
0.000169697
0.000169768
0.000169906
0.000170117
0.000170411
0.000170788
0.000171228
0.000171687
0.000172083
0.000172326
0.000172315
0.000172187
0.000172648
0.000172455
0.00017203
0.000171472
0.000170897
0.000170395
0.000170006
0.000169742
0.000169595
0.000169539
0.000169555
0.000169632
0.000169771
0.00016998
0.000170268
0.000170641
0.00017108
0.000171537
0.000171936
0.000172175
0.000172154
0.000172417
0.000172859
0.000172614
0.00017212
0.00017149
0.00017085
0.000170295
0.000169875
0.000169598
0.000169451
0.000169404
0.000169428
0.000169512
0.000169653
0.000169859
0.000170143
0.000170517
0.000170962
0.000171431
0.000171847
0.000172099
0.000172087
0.000172637
0.000173064
0.000172772
0.000172216
0.000171523
0.000170827
0.000170228
0.000169784
0.000169499
0.000169355
0.000169316
0.000169348
0.000169435
0.000169577
0.00016978
0.000170064
0.000170442
0.0001709
0.000171392
0.000171832
0.00017211
0.000172116
0.000172877
0.000173287
0.000172955
0.000172347
0.000171599
0.000170855
0.000170222
0.000169756
0.000169466
0.000169324
0.000169289
0.000169323
0.000169412
0.000169552
0.00016975
0.000170034
0.000170419
0.000170896
0.00017142
0.000171893
0.000172205
0.000172236
0.000173163
0.000173558
0.00017319
0.000172537
0.00017174
0.000170955
0.000170292
0.000169805
0.000169505
0.000169359
0.000169323
0.000169356
0.00016944
0.000169573
0.000169764
0.000170046
0.000170442
0.000170946
0.000171507
0.000172024
0.000172376
0.000172431
0.000173515
0.000173899
0.0001735
0.000172804
0.000171964
0.000171139
0.000170443
0.000169933
0.000169617
0.000169459
0.000169413
0.000169437
0.000169511
0.000169631
0.000169816
0.0001701
0.000170509
0.000171045
0.000171651
0.000172219
0.000172618
0.000172704
0.000173954
0.000174327
0.000173899
0.000173162
0.000172278
0.00017141
0.000170677
0.000170136
0.000169794
0.000169616
0.000169551
0.000169559
0.000169617
0.000169723
0.000169905
0.000170195
0.000170625
0.000171198
0.000171856
0.000172484
0.000172934
0.000173057
0.0001745
0.000174861
0.0001744
0.000173621
0.000172688
0.000171769
0.000170993
0.000170414
0.000170034
0.000169824
0.000169732
0.00016972
0.000169761
0.000169855
0.000170037
0.000170339
0.0001708
0.00017142
0.00017214
0.000172833
0.000173341
0.0001735
0.000175167
0.000175513
0.000175018
0.000174192
0.000173204
0.000172228
0.000171397
0.000170768
0.000170341
0.000170088
0.000169963
0.000169928
0.000169952
0.000170039
0.000170223
0.000170548
0.000171052
0.00017173
0.000172521
0.000173286
0.000173855
0.000174054
0.000175984
0.000176313
0.00017578
0.000174899
0.000173847
0.000172804
0.000171904
0.000171213
0.000170731
0.000170427
0.000170264
0.000170201
0.000170211
0.000170297
0.00017049
0.000170846
0.000171401
0.000172147
0.000173015
0.000173858
0.000174493
0.000174734
0.000176999
0.00017731
0.000176729
0.000175785
0.000174655
0.000173531
0.000172552
0.000171787
0.00017124
0.00017088
0.000170674
0.000170582
0.000170579
0.000170662
0.00017087
0.000171261
0.000171868
0.000172684
0.000173633
0.000174559
0.000175264
0.000175548
0.000178298
0.000178583
0.000177943
0.000176923
0.000175699
0.000174475
0.0001734
0.000172548
0.000171926
0.000171507
0.00017125
0.000171124
0.000171103
0.000171181
0.0001714
0.000171818
0.000172472
0.000173352
0.000174381
0.000175392
0.000176173
0.000176506
0.000180008
0.000180263
0.00017955
0.00017843
0.000177092
0.000175745
0.000174548
0.000173587
0.000172875
0.000172384
0.000172066
0.000171893
0.00017184
0.000171905
0.000172122
0.000172552
0.000173236
0.00017417
0.000175271
0.000176364
0.000177224
0.000177614
0.000182327
0.000182543
0.000181736
0.000180486
0.000178996
0.000177487
0.000176135
0.000175032
0.0001742
0.000173609
0.000173212
0.00017297
0.000172864
0.000172892
0.000173088
0.000173509
0.000174203
0.000175172
0.00017633
0.000177495
0.000178433
0.000178886
0.000185533
0.000185696
0.000184759
0.000183334
0.000181637
0.000179907
0.000178342
0.000177045
0.000176045
0.000175313
0.000174797
0.000174454
0.000174263
0.000174225
0.000174368
0.00017475
0.000175428
0.000176406
0.0001776
0.000178826
0.000179836
0.000180351
0.000190013
0.0001901
0.000188975
0.000187302
0.000185313
0.000183272
0.000181403
0.000179831
0.00017859
0.000177652
0.000176963
0.000176471
0.000176151
0.000176006
0.00017606
0.000176364
0.00017699
0.00017795
0.000179159
0.000180428
0.000181499
0.000182068
0.000196314
0.000196287
0.00019489
0.000192854
0.00019044
0.000187951
0.00018564
0.000183662
0.000182066
0.00018083
0.000179889
0.000179186
0.000178679
0.00017837
0.000178287
0.000178475
0.000179009
0.000179917
0.000181115
0.000182407
0.000183521
0.000184138
0.000205317
0.000205114
0.000203304
0.00020072
0.000197666
0.000194496
0.00019152
0.000188933
0.000186807
0.000185126
0.000183819
0.000182809
0.000182042
0.000181502
0.000181219
0.000181247
0.000181644
0.000182456
0.000183608
0.000184899
0.00018604
0.000186704
0.000218607
0.000218111
0.000215641
0.000212188
0.000208113
0.00020386
0.000199828
0.000196279
0.000193324
0.000190957
0.000189097
0.000187636
0.000186494
0.000185635
0.000185077
0.000184877
0.000185091
0.000185758
0.00018682
0.00018808
0.000189238
0.000189951
0.000239218
0.000238212
0.000234624
0.000229706
0.000223911
0.000217833
0.000212023
0.000206856
0.000202518
0.000199024
0.000196271
0.000194106
0.000192402
0.000191085
0.000190145
0.000189626
0.000189592
0.000190055
0.000190978
0.000192172
0.000193341
0.000194112
0.000272967
0.000271018
0.000265448
0.000257955
0.000249141
0.000239858
0.000230916
0.000222897
0.000216115
0.000210623
0.000206301
0.000202935
0.000200318
0.000198294
0.000196791
0.000195821
0.00019543
0.000195621
0.000196351
0.000197446
0.000198614
0.000199458
0.000330568
0.000326858
0.000317698
0.000305621
0.00029146
0.000276484
0.000261943
0.000248767
0.000237501
0.0002283
0.000221041
0.000215445
0.000211178
0.000207947
0.000205551
0.000203907
0.000202994
0.000202811
0.000203277
0.000204228
0.000205387
0.000206327
0.000430128
0.000423213
0.000407679
0.000387622
0.000364209
0.000339348
0.000314983
0.000292603
0.000273153
0.000257015
0.000244142
0.000234215
0.000226754
0.000221253
0.000217272
0.000214515
0.000212811
0.000212069
0.000212176
0.000212929
0.000214073
0.000215143
0.000599632
0.000587195
0.000560777
0.000527387
0.000488677
0.000447456
0.000406668
0.000368597
0.000334805
0.000306104
0.000282709
0.0002644
0.000250614
0.000240584
0.000233505
0.000228693
0.000225643
0.000224025
0.000223599
0.000224088
0.000225222
0.000226474
0.000880173
0.000858636
0.000814326
0.000759439
0.000696431
0.000629397
0.000562598
0.000499329
0.000441922
0.000391827
0.000349767
0.000315902
0.000289841
0.000270704
0.000257298
0.000248352
0.000242735
0.000239584
0.000238299
0.000238419
0.000239551
0.000241076
0.00133481
0.00129851
0.00122528
0.00113612
0.00103498
0.000927972
0.000821183
0.000719135
0.000624902
0.000540552
0.000467471
0.000406529
0.000357911
0.000321093
0.000294828
0.000277284
0.000266381
0.000260226
0.000257387
0.000256892
0.000258039
0.000259977
0.00206668
0.00200635
0.00188635
0.00174223
0.00158081
0.00141145
0.00124303
0.00108167
0.000931174
0.000793919
0.000671705
0.00056626
0.000478782
0.000409684
0.000358401
0.000323199
0.000301102
0.000288601
0.000282597
0.000280891
0.000282026
0.000284575
0.00324988
0.00315005
0.00295418
0.00272162
0.00246413
0.00219615
0.00193084
0.00167676
0.00143888
0.00121977
0.00102106
0.000844722
0.00069315
0.000568412
0.000471387
0.000401566
0.000356121
0.000329881
0.00031695
0.000312536
0.0003134
0.000316793
0.00518003
0.00501546
0.00469737
0.00432308
0.00391226
0.00348692
0.00306658
0.00266363
0.00228519
0.00193491
0.00161453
0.00132547
0.00107017
0.000852444
0.000675797
0.00054204
0.000450063
0.000394512
0.00036611
0.000355286
0.000354914
0.00035931
0.00835965
0.00809068
0.00757909
0.00698067
0.00632667
0.00565002
0.00497918
0.00433229
0.0037206
0.0031511
0.00262791
0.00215322
0.00172869
0.00135758
0.00104553
0.000798692
0.000619097
0.000503608
0.000441216
0.000415272
0.000410835
0.000415979
0.0136419
0.0132086
0.012399
0.0114544
0.0104207
0.00934498
0.00826788
0.00721631
0.00620943
0.00526221
0.00438645
0.00359025
0.00287765
0.00225017
0.00171085
0.00126796
0.000930237
0.000698748
0.000564532
0.000503933
0.000488107
0.000492577
0.0224511
0.0217689
0.0205201
0.0190611
0.0174502
0.0157496
0.0140157
0.0122893
0.0106056
0.00899718
0.00749435
0.00612191
0.00489593
0.0038216
0.0028961
0.0021199
0.00150382
0.00105812
0.000779976
0.000643185
0.000598746
0.000597973
0.0371447
0.0361052
0.0342516
0.0320711
0.0296157
0.0269566
0.0241687
0.0213168
0.0184689
0.015696
0.0130686
0.0106495
0.00848569
0.00660153
0.00499479
0.00364876
0.0025537
0.0017249
0.00117229
0.000875737
0.000764386
0.000746507
0.0615295
0.0600173
0.0574171
0.0543137
0.0506903
0.0466017
0.0421434
0.0374247
0.0325802
0.0277614
0.0231229
0.0188069
0.0149278
0.0115572
0.00871206
0.00636131
0.00445009
0.00295459
0.00189843
0.00128353
0.00102433
0.000961722
0.101673
0.0996123
0.0962703
0.0921649
0.0870536
0.0809061
0.0738366
0.0660424
0.0577963
0.0494111
0.0412095
0.0334934
0.0265113
0.0204317
0.0153233
0.0111575
0.00782091
0.00518986
0.00324202
0.00202085
0.00145124
0.0012839
0.167006
0.16447
0.160797
0.155984
0.149213
0.140213
0.129112
0.116291
0.102306
0.0877839
0.073368
0.0596631
0.0471727
0.0362493
0.0270657
0.0196234
0.0137525
0.00917523
0.00569904
0.00336949
0.00217907
0.00178241
0.271914
0.269335
0.266628
0.262233
0.254045
0.241237
0.223962
0.202993
0.179443
0.154532
0.129485
0.105457
0.0834145
0.0640459
0.0477092
0.0344707
0.0241093
0.0161573
0.0101046
0.00583016
0.00345266
0.00257825
0.437848
0.436385
0.43764
0.436355
0.427867
0.410147
0.383471
0.349405
0.310129
0.267937
0.225087
0.18369
0.145524
0.111852
0.0833382
0.0601497
0.042006
0.0282187
0.0178321
0.0102637
0.00571114
0.00388324
0.696131
0.698266
0.709649
0.716949
0.710756
0.686893
0.645897
0.590904
0.526078
0.455658
0.383674
0.313837
0.249252
0.192094
0.14349
0.103746
0.0724985
0.0487922
0.0311249
0.0181023
0.00972549
0.00606799
1.09163
1.1022
1.13509
1.16154
1.1622
1.13094
1.06792
0.979622
0.87386
0.758287
0.639867
0.524817
0.418257
0.323687
0.242872
0.176328
0.123602
0.08341
0.0536101
0.0316588
0.0168073
0.00977603
1.68826
1.71603
1.79033
1.85393
1.86963
1.8287
1.73148
1.59081
1.42081
1.23481
1.04435
0.859374
0.687853
0.535121
0.403829
0.29485
0.207703
0.140727
0.0910182
0.0545715
0.0290995
0.0161043
2.57794
2.6377
2.78629
2.91584
2.9597
2.90477
2.75512
2.53406
2.26589
1.97276
1.67308
1.38202
1.11153
0.869554
0.660156
0.48495
0.343587
0.233967
0.152211
0.0924824
0.0499933
0.0268812
3.89266
4.00804
4.2826
4.52281
4.61505
4.54111
4.31373
3.97305
3.55882
3.10611
2.64308
2.19238
1.77178
1.39329
1.06359
0.785821
0.560011
0.383442
0.25089
0.154162
0.0847968
0.0450929
5.82625
6.03411
6.51507
6.93681
7.11238
7.01624
6.67802
6.16445
5.53754
4.84985
4.1431
3.45119
2.80133
2.21277
1.69709
1.26036
0.903247
0.621963
0.409256
0.253831
0.142081
0.0756641
8.66511
9.0226
9.83529
10.5518
10.8718
10.756
10.2664
9.51012
8.57975
7.54948
6.4795
5.42129
4.41838
3.50331
2.69713
2.01146
1.4484
1.0025
0.663202
0.414587
0.235787
0.126715
12.8444
13.4396
14.7757
15.9604
16.5273
16.4062
15.7243
14.6407
13.2872
11.7626
10.1524
8.53667
6.98699
5.55958
4.29292
3.21007
2.31773
1.60926
1.06891
0.672614
0.388066
0.211587
19.0195
19.9848
22.1265
24.0337
25.0134
24.9453
24.0576
22.5595
20.6286
18.3929
15.9773
13.5103
11.1108
8.87427
6.86912
5.14126
3.71127
2.57578
1.71232
1.08206
0.632316
0.351332
28.162
29.692
33.0517
36.0683
37.7586
37.9088
36.8766
34.8858
32.1675
28.8973
25.2698
21.4955
17.7707
14.2538
11.0621
8.28211
5.9654
4.12406
2.73156
1.7261
1.01869
0.578201
41.6936
44.0718
49.2641
54.0136
56.9543
57.6925
56.6561
54.0855
50.2654
45.4655
40.0015
34.2157
28.4299
22.9071
17.8431
13.3856
9.63393
6.63261
4.36408
2.74317
1.6261
0.942399
61.6968
65.3351
73.2774
80.7363
85.7871
87.7304
86.8927
83.5879
78.1662
71.08
62.8431
53.9982
45.0627
36.4699
28.5433
21.5173
15.5455
10.7093
7.01583
4.37587
2.58744
1.52533
91.1828
96.6839
108.718
120.315
128.702
132.662
132.195
127.822
119.979
109.464
97.1039
83.7395
70.1596
57.0342
44.8767
34.0564
24.797
17.2059
11.3066
7.02624
4.13306
2.45446
134.38
142.624
160.667
178.358
191.632
198.427
198.342
192.144
180.546
164.914
146.568
126.771
106.651
87.1469
68.9983
52.7631
38.7833
27.209
18.0661
11.2831
6.6285
3.94008
197.067
209.324
236.001
262.249
282.098
292.312
292.116
282.614
265.155
241.978
215.154
186.514
157.581
129.557
103.376
79.7838
59.2844
42.125
28.3688
17.9448
10.6055
6.31528
286.812
304.823
343.467
380.972
408.775
422.281
420.583
405.171
378.657
344.559
306.032
265.647
225.347
186.534
150.224
117.252
88.2598
63.6417
43.5685
28.0398
16.8058
10.0747
413.142
439.167
493.583
544.596
580.601
595.763
589.611
564.039
523.921
474.528
420.442
365.11
310.875
259.201
210.985
166.921
127.628
93.6273
65.3039
42.869
26.1731
15.8713
587.361
623.949
697.395
762.094
803.827
816.448
800.228
758.441
698.988
629.407
555.85
482.651
412.455
346.605
285.617
229.72
179.143
134.274
95.7357
64.2161
39.9475
24.5126
823.224
871.826
964.116
1037.31
1076.98
1079.17
1044.2
978.743
894.008
799.934
704.063
611.371
524.582
444.698
371.616
304.823
243.735
188.002
137.972
94.967
60.1786
37.2365
1137.44
1197.38
1298.04
1362.68
1384.14
1362.97
1298.48
1202.25
1088.04
967.582
849.254
738.151
636.691
545.289
463.058
388.61
320.376
256.607
195.848
139.628
90.6161
56.3861
1554.81
1620.32
1699.2
1715.55
1690.08
1625.33
1522.34
1392.25
1249.18
1105.27
968.776
844.259
733.429
635.988
550.282
474.188
405.546
341.307
274.722
205.588
138.449
87.0038
2108.47
2162.19
2142.43
2036.43
1923.4
1800.33
1659.1
1501.73
1338.86
1181.54
1036.99
908.528
796.827
701.17
619.696
550.147
490.825
438.63
384.917
320.913
237.899
154.202
2811.34
2797.74
2478.12
2178.35
1977.19
1819.81
1662.62
1497.14
1331.31
1175.21
1035.04
913.227
810.053
724.369
654.891
599.92
559.352
534.211
523.48
520.988
467.477
427.125
0.660284
5.71266
10.9256
11.4438
11.7825
80.3968
388.413
704.596
925.88
1041.74
1079.42
1072.68
1042.12
1004.75
966.639
928.128
886.618
841.968
798.2
758.747
724.29
694.238
667.288
643.153
622.908
607.534
597.012
589.665
582.947
575.229
566.457
557.439
548.495
539.297
530.015
521.829
516.111
514.091
515.779
521.582
531.949
546.376
564.236
584.335
605.125
625.46
644.761
662.296
676.671
686.208
690.377
689.826
684.366
674.555
660.839
644.213
625.771
606.57
587.808
570.501
554.183
537.329
518.523
498.73
480.53
465.018
452.252
442.062
433.928
427.625
423.15
420.832
420.903
422.655
426.501
432.184
439.274
447.618
457.223
467.79
478.471
488.173
496.081
502.257
507.529
512.773
519.396
529.055
542.875
561.214
580.688
594.665
598.383
593.479
586.356
582.633
582.131
582.792
583.426
582.467
578.294
571.876
563.959
553.889
541.406
527.539
515.633
519.819
588.747
1033.26
2775.14
2718.77
2276.57
1966.24
1781.98
1647.34
1510.32
1363.04
1214.86
1076.53
954.1
849.593
763.253
694.783
643.292
607.216
590.774
602.522
664.471
796.477
961.409
1275.61
3204.66
2386.49
1877.07
1578.92
1414.06
1303.4
1218.84
1146.82
1080.23
1015.37
954.238
900.22
852.466
809.003
768.409
731.042
699.003
671.584
646.347
621.69
597.653
574.7
553.645
536.237
524.15
517.145
513.805
513.538
516.017
521.827
529.61
537.614
544.176
548.155
549.356
547.911
543.316
537.207
530.311
523.581
518.386
515.114
512.984
510.105
505.559
499.946
494.576
490.204
486.837
484.427
483.188
483.218
484.391
487.575
493.535
501.401
510.137
518.983
527.373
534.872
541.084
545.605
547.97
548.066
545.433
539.764
531.661
521.647
510.595
499.54
489.331
480.618
474.025
469.837
467.946
468.086
469.68
473.574
479.871
486.916
493.064
497.812
501.133
503.01
503.644
503.284
502.409
501.676
501.406
501.57
502.41
504.183
506.872
510.264
514.4
519.742
526.814
536.233
548.469
563.553
580.946
600.356
622.02
645.548
671.86
708.477
784.996
982.907
1478.58
2556.58
0.0116267
0.0331976
0.054491
0.0823771
0.621289
48.7858
322.11
643.149
882.53
1017.49
1070.15
1072.4
1049.38
1016.25
980.371
941.688
899.059
853.727
810.411
772.649
740.259
711.587
685.51
662.403
643.902
630.853
622.318
615.769
608.848
600.301
590.251
579.738
569.474
559.138
549.042
540.7
535.482
534.08
535.898
541.731
552.027
566.721
585.16
605.719
626.458
646.222
664.775
681.652
695.385
703.777
706.612
704.813
698.551
687.479
672.737
655.466
636.751
617.51
598.724
580.979
563.897
546.058
526.306
505.882
487.565
472.793
461.11
451.626
444.269
438.819
435.001
433.364
433.88
436.225
440.217
445.524
451.852
459.288
468.25
478.597
489.31
498.918
506.248
511.487
516.123
521.008
527.608
537.511
551.895
569.796
587.415
598.057
597.216
589.723
582.853
582.995
586.87
591.351
594.025
593.303
588.778
580.148
570.003
558.067
543.687
527.85
514.691
515.429
560.381
795.5
1208.31
1392.34
1420.72
1399.07
1369.02
1318.62
1234.74
1126.9
1011.73
902.562
806.408
725.682
660.961
612.521
580.776
566.267
571.771
607.736
705.887
884.299
1043.65
1213.33
2041.89
2101.56
1804.96
1560.12
1415.45
1320.69
1243.73
1170.63
1097.62
1026.95
962.736
907.623
860.733
819.374
781.668
747.302
716.779
690.013
665.02
640.17
615.439
591.348
569.15
551.348
539.911
534.583
533.631
534.669
537.645
542.363
548.327
554.48
559.451
562.397
563.472
562.031
557.159
550.751
543.916
537.479
531.736
527.109
523.25
518.991
513.292
506.709
500.854
496.952
494.951
493.932
493.182
493.137
494.379
497.756
504.451
513.211
522.917
532.867
542.517
551.284
558.557
563.728
566.324
566.224
562.732
555.927
546.628
535.614
523.917
512.715
502.696
494.227
487.807
483.611
481.375
481.119
482.476
486.426
492.136
498.585
504.724
509.864
513.651
516.057
517.459
518.007
518.096
518.39
518.953
519.475
520.109
521.484
524.042
527.227
530.921
535.741
542.314
551.336
563.09
577.289
593.574
612.073
633.235
657.312
684.697
722.089
797.174
989.848
1472.65
2309.95
0.0100098
0.0107599
0.0116827
0.01309
0.0206276
5.79635
115.044
388.194
641.539
813.851
904.542
937.172
937.466
921.965
899.9
871.867
837.048
797.379
758.092
723.276
692.059
664.409
639.762
618.957
603.659
594.659
590.22
586.748
581.574
573.588
563.258
552.353
541.689
530.5
518.844
508.548
501.398
497.908
498.09
501.604
509.083
520.661
535.906
553.157
570.266
586.131
601.016
615.162
627.967
636.746
640.303
640.017
636.111
628.165
616.264
601.859
586.231
570.031
553.968
538.545
523.361
507.084
488.664
469.335
452.008
438.164
426.93
417.364
409.521
403.504
398.836
395.899
395.352
396.553
399.319
403.224
408.06
413.946
421.382
430.431
440.228
449.223
455.845
459.703
462.097
464.427
467.918
474.747
487.305
505.417
524.268
535.04
532.867
521.877
513.494
513.856
519.982
528.019
533.967
535.542
532.121
523.766
513.175
500.91
486.141
468.917
451.89
441.969
453.17
531.497
689.556
801.942
891.848
957.194
990.878
984.478
936.009
861.712
778.599
698.659
628.546
571.024
526.749
496.891
481.899
482.905
502.957
553.661
660.637
842.319
1018.38
1082.06
1270.49
1464.85
1446.36
1331.86
1241.53
1181.74
1133.72
1079.22
1017.44
954.724
897.407
848.017
805.6
768.256
734.594
704.144
677.557
654.666
633.031
610.354
586.266
561.519
538.256
519.365
506.592
499.507
496.469
495.826
496.806
499.676
504.111
509.309
513.91
516.874
518.34
517.78
513.734
507.139
499.465
492.34
486.138
481.171
477.23
473.455
468.581
462.677
456.922
452.479
449.357
446.867
444.559
443.258
443.925
447.537
454.345
463.277
473.264
483.657
493.862
503.246
511.263
517.316
520.901
521.772
519.636
514.04
505.87
495.91
485.164
474.89
465.739
457.763
451.211
446.252
442.66
440.611
440.761
443.397
448.261
454.175
460.502
466.494
471.412
474.837
477.192
479.089
480.826
482.673
484.54
485.657
485.771
485.648
485.828
486.194
486.779
488.465
491.935
497.754
506.121
516.711
529.318
544.804
564.68
589.874
620.123
658.974
725.17
875.271
1222.16
1746.97
0.00998915
0.00994762
0.0100425
0.0102865
0.0111101
0.0577607
7.47356
98.8188
293.18
472.31
596.33
666.268
698.453
709.161
708.172
698.251
680.286
655.666
628.236
600.937
573.93
547.94
524.526
504.739
489.69
480.286
475.454
472.349
468.504
462.51
454.246
445.294
436.638
427.581
417.469
407.155
398.221
391.615
387.691
386.528
387.994
392.721
400.518
410.554
421.295
431.688
441.793
452.097
463.027
473.028
480.148
484.158
485.75
484.76
480.405
473.471
465.096
455.889
446.079
435.916
425.336
413.626
400.08
385.324
371.265
359.107
348.163
337.783
328.254
319.999
312.903
307.152
303.297
301.408
301.085
302.031
304.214
307.548
312.184
318.277
325.487
332.895
339.193
343.488
345.898
347.211
348.261
351.351
359.639
375.02
394.693
410.302
414.344
408.662
399.299
395.116
396.75
401.514
405.959
408.103
407.121
402.424
395.26
386.612
376.213
363.532
349.461
337.596
340.501
385.401
498.841
596.966
673.698
717.507
732.758
721.659
683.406
629.407
569.79
512.47
462.601
422.935
394.506
377.698
373.621
382.163
408.529
458.154
548.609
699.996
874.489
968.862
1004.29
1062.96
1074.37
1036.65
980.486
934.565
902.577
869.939
833.704
794.624
755.191
717.828
683.297
651.386
621.9
594.84
571.068
551.082
533.38
515.555
496.079
474.414
452.527
432.74
416.414
403.788
394.635
388.407
384.923
384.114
385.816
389.718
394.393
398.419
401.394
402.824
401.835
397.831
391.912
385.583
379.772
375.084
371.677
369.29
366.823
363.713
359.999
356.209
352.471
348.491
344.145
340.283
338.127
338.471
341.517
346.753
353.333
360.683
368.287
375.625
382.429
388.469
393.423
396.951
398.566
397.919
394.758
389.422
382.538
375.17
368.093
361.411
355.19
349.692
345.06
341.577
339.869
340.309
343.08
347.512
353.184
359.513
365.754
370.86
374.713
377.934
380.752
383.111
384.928
385.507
384.936
383.424
381.602
379.565
377.375
375.684
375.209
376.431
379.908
385.473
393.015
403.202
417.632
437.92
464.454
498.086
546.03
635.384
820.253
1096.41
0.00998468
0.00990957
0.00986952
0.00988821
0.0100148
0.0105857
0.0402282
2.90938
40.3773
159.531
281.188
373.671
433.72
469.199
488.361
495.89
494.668
486.066
473.232
458.287
440.882
421.124
401.29
383.356
367.959
355.936
347.321
341.063
335.794
330.459
324.205
317.368
310.748
304.371
297.631
290.299
282.821
275.895
270.05
265.558
262.567
261.312
262.111
265.391
270.273
276.046
282.433
289.627
297.991
307.148
315.789
322.762
327.833
331.119
332.316
331.686
329.826
327.601
324.97
321.459
316.652
310.25
302.029
292.384
282.535
273.47
264.786
255.736
246.528
237.792
229.754
222.543
216.485
211.845
208.574
206.438
205.26
204.963
205.534
207.385
210.415
214.502
218.991
223.191
226.587
229.154
231.087
233.566
239.255
250.513
266.556
282.334
292.217
292.695
286.788
280.146
277.477
277.975
279.345
280.492
280.662
279.495
276.39
271.925
266.518
260.564
255.711
254.737
262.927
300.525
379.865
447.826
492.36
512.016
515.601
506.154
481.616
446.41
406.162
366.511
331.983
305.455
288.024
279.757
280.643
292.011
316.369
357.071
423.173
528.665
664.979
779.044
834.058
857.33
859.228
843.86
808.486
765.119
724.56
690.748
664.213
640.186
613.353
584.432
555.929
528.928
503.525
479.759
458.324
440.012
424.356
409.683
394.606
377.52
359.054
340.563
323.397
308.049
295.248
285.106
277.673
272.999
270.774
270.654
272.228
274.359
276.579
278.641
279.875
279.685
278.009
274.845
270.874
266.978
263.786
261.546
259.693
257.712
255.59
253.671
251.969
249.715
246.167
241.764
237.632
234.666
233.239
233.369
234.914
237.541
241.033
245.062
249.51
254.304
259.153
263.691
267.587
270.453
271.757
271.161
268.575
264.559
259.925
255.127
250.345
245.817
241.738
238.331
235.96
234.912
235.298
237.316
240.613
245.15
250.669
256.204
261.123
265.497
269.212
271.835
273.288
273.348
272.659
271.164
269.304
267.265
265.054
262.866
261.147
260.287
260.649
262.742
266.307
271.559
279.428
291.324
308.078
329.898
358.482
402.267
481.864
607.574
0.00998588
0.00991555
0.00984968
0.00980604
0.00979191
0.00983208
0.0100314
0.0133369
0.335972
9.61777
55.0786
132.894
200.829
251.647
286.587
308.785
320.841
324.81
323.699
319.189
311.661
300.698
287.226
273.287
260.279
249.196
240.231
233.087
227.318
222.372
217.476
212.148
206.695
201.5
196.511
191.476
186.266
180.951
175.754
170.91
166.635
163.193
160.977
160.324
161.031
163.211
166.435
170.756
176.296
182.984
190.292
197.336
203.357
208.041
211.314
213.266
214.36
215.457
216.84
218.041
218.044
216.46
212.771
207.386
201.325
195.558
190.112
184.353
177.996
171.291
164.561
158.07
152.115
146.911
142.483
138.73
135.539
132.851
130.742
129.413
129.047
129.588
131.102
133.126
135.352
137.68
140.181
143.275
148.224
156.48
167.872
179.674
189.29
192.988
191.173
186.091
181.884
180.356
180.168
180.572
181.257
181.224
180.348
178.546
176.457
175.619
178.244
187.21
200.892
221.737
252.118
277.827
299.369
317.972
332.637
338.578
332.48
314.514
289.728
263.755
241.334
225.29
216.309
213.879
217.168
227.456
245.589
273.871
316.578
380.979
469.717
566.099
640.208
683.138
701.204
699.002
680.284
647.565
607.282
567.991
539.204
518.526
496.783
472.322
447.368
423.774
401.959
381.653
362.985
346.641
332.769
320.212
307.638
293.979
279.304
264.41
250.155
236.744
224.358
213.484
204.553
197.71
192.723
189.214
186.814
185.192
184.345
184.257
184.776
185.483
185.55
184.705
182.348
179.348
176.58
174.387
172.546
170.727
168.971
167.684
167.188
166.959
165.874
163.324
159.69
155.902
152.686
150.367
148.993
148.537
148.818
149.993
151.94
154.722
157.999
161.359
164.579
167.542
170.036
171.508
171.466
170.064
167.581
164.643
161.596
158.666
155.95
153.49
151.411
149.869
148.981
148.835
149.513
151.313
154.162
157.635
161.199
164.804
168.35
171.296
173.427
174.713
175.262
175.175
174.743
174.102
173.442
172.858
172.463
172.341
172.648
173.589
175.191
177.567
181.194
186.951
195.539
207.138
222.039
242.028
272.556
321.888
0.00998666
0.00991645
0.00984288
0.00977935
0.00972979
0.00969827
0.00968584
0.00967997
0.00977672
0.0195824
0.623151
8.85567
37.3122
82.278
121.182
151.26
172.706
186.439
193.778
196.353
195.624
191.81
185.324
177.502
169.763
163.192
157.689
152.979
148.862
145.121
141.417
137.359
133.032
128.745
124.675
120.778
116.937
113.08
109.218
105.414
101.775
98.4841
95.7833
93.9229
93.0677
93.131
94.0504
95.9951
98.8345
102.499
106.905
111.751
116.59
120.987
124.583
127.266
129.251
131.085
133.198
135.502
137.483
138.26
137.456
135.12
131.998
128.831
125.873
122.907
119.691
116.155
112.318
108.256
104.141
100.119
96.2349
92.5093
89.0039
85.8108
83.0575
80.8429
79.1831
78.0904
77.56
77.5609
77.8992
78.6856
80.0119
82.214
85.8549
91.3889
98.6801
106.421
113.277
117.103
117.272
115.292
112.719
111.318
110.796
110.612
110.665
110.687
110.283
109.526
109.136
110.416
116.411
127.004
139.811
151.723
159.192
165.304
180.73
204.963
228.709
243.257
244.822
235.278
218.709
201.595
188.249
180.542
177.933
179.059
183.261
190.036
200.206
215.487
238.485
273.137
323.041
385.942
449.539
501.724
536.144
549.515
544.671
525.608
497.394
465.478
437.375
414.771
393.517
372.485
352.301
333.477
316.091
299.95
284.93
271.354
259.647
249.372
239.351
228.791
217.94
207.484
197.699
187.95
177.746
167.716
158.921
151.839
146.123
141.207
136.725
132.65
129.202
126.585
124.856
123.859
123.014
121.322
118.369
115.116
112.506
110.603
109.104
107.715
106.394
105.303
104.717
104.557
104.38
103.633
102.019
99.5864
96.7933
94.1441
91.9184
90.1805
89.0177
88.6041
88.8361
89.9029
91.4577
93.1367
94.7738
96.3652
97.8703
99.0386
99.6107
99.3109
98.2742
96.8233
95.232
93.6758
92.1871
90.7257
89.2913
87.9494
86.7819
85.8808
85.4333
85.5243
86.2481
87.4999
88.8918
90.308
91.9122
93.954
96.4174
98.861
100.999
102.746
104.119
105.211
106.185
107.194
108.346
109.638
110.962
112.237
113.5
114.896
116.726
119.473
123.555
129.115
136.203
145.142
156.844
173.892
0.00998862
0.00991869
0.00984032
0.00976613
0.00969842
0.00963905
0.00958848
0.00954058
0.00948737
0.00942523
0.00953178
0.0197887
0.340451
3.86088
14.2315
37.26
58.3404
75.5823
87.1776
95.2135
100.624
103.3
103.501
102.549
101.437
100.375
98.8999
97.0099
94.875
92.6466
90.2446
87.5388
84.5832
81.5517
78.6053
75.7963
73.0801
70.41
67.7804
65.1972
62.6936
60.351
58.2758
56.5879
55.3961
54.7837
54.7753
55.199
56.1298
57.4289
59.1359
61.2466
63.6251
66.1728
68.7315
71.0947
73.0837
74.7543
76.3606
78.0329
79.5266
80.4854
80.3453
79.4437
78.083
76.6134
75.2333
73.9231
72.5405
71.0346
69.4186
67.685
65.8171
63.7936
61.5962
59.2567
56.8923
54.6643
52.69
51.0256
49.6021
48.3792
47.3569
46.5501
45.9905
45.8087
45.9682
46.7763
48.4935
51.2082
54.8092
59.0241
63.0958
65.6531
66.3822
66.0906
65.943
66.1848
66.3396
65.8249
65.2136
64.7507