/*--------------------------------*- C++ -*----------------------------------*\
  =========                 |
  \\      /  F ield         | OpenFOAM: The Open Source CFD Toolbox
   \\    /   O peration     | Website:  https://openfoam.org
    \\  /    A nd           | Version:  7
     \\/     M anipulation  |
\*---------------------------------------------------------------------------*/
FoamFile
{
    version     2.0;
    format      ascii;
    class       volScalarField;
    location    "300";
    object      k;
}
// * * * * * * * * * * * * * * * * * * * * * * * * * * * * * * * * * * * * * //

dimensions      [0 2 -2 0 0 0 0];

internalField   nonuniform List<scalar> 
96800
(
0.000494859
0.000494822
0.000494458
0.000493982
0.00049343
0.000492865
0.000492365
0.000491957
0.000491647
0.000491425
0.000491306
0.000491307
0.000491445
0.000491699
0.000492107
0.000492667
0.000493384
0.000494236
0.000495163
0.000496102
0.000497047
0.000498209
0.000495205
0.000495598
0.000495279
0.0004948
0.000494215
0.00049362
0.00049309
0.00049266
0.000492334
0.000492112
0.000491997
0.000491996
0.000492118
0.000492375
0.00049278
0.000493342
0.000494059
0.000494906
0.00049582
0.00049672
0.000497539
0.000498154
0.000495512
0.000495994
0.000495699
0.000495167
0.000494504
0.000493827
0.000493227
0.000492743
0.000492387
0.000492154
0.000492034
0.000492033
0.000492156
0.000492406
0.000492805
0.000493363
0.00049407
0.000494898
0.000495785
0.000496613
0.000497264
0.000497551
0.000495921
0.000496409
0.000496074
0.000495445
0.000494664
0.000493873
0.000493174
0.000492622
0.000492228
0.000491976
0.000491856
0.000491863
0.000491987
0.000492238
0.000492628
0.000493174
0.000493866
0.000494677
0.000495539
0.00049632
0.000496885
0.000497061
0.000496324
0.000496787
0.000496375
0.00049563
0.00049471
0.000493786
0.00049298
0.000492354
0.000491919
0.000491654
0.000491542
0.00049156
0.000491691
0.000491943
0.000492326
0.000492857
0.000493538
0.00049434
0.00049519
0.000495961
0.0004965
0.000496643
0.00049669
0.000497118
0.000496616
0.000495747
0.000494686
0.000493631
0.000492724
0.00049203
0.00049156
0.000491295
0.000491195
0.000491226
0.000491368
0.000491622
0.000492
0.00049252
0.000493195
0.000494
0.000494859
0.000495647
0.000496196
0.00049634
0.000497024
0.000497418
0.000496824
0.000495833
0.000494647
0.000493476
0.00049248
0.000491733
0.000491243
0.000490982
0.000490897
0.000490944
0.000491098
0.000491354
0.000491724
0.000492237
0.000492915
0.000493734
0.00049462
0.000495447
0.000496029
0.000496189
0.00049735
0.000497713
0.000497038
0.000495939
0.000494645
0.000493378
0.000492309
0.000491522
0.000491023
0.000490769
0.000490701
0.000490761
0.00049092
0.000491174
0.000491538
0.000492048
0.000492734
0.000493579
0.000494509
0.000495385
0.000496018
0.000496217
0.00049771
0.000498043
0.000497299
0.000496112
0.000494724
0.00049338
0.000492253
0.000491433
0.000490925
0.000490678
0.000490619
0.000490685
0.000490845
0.000491092
0.000491446
0.000491955
0.000492655
0.000493536
0.000494527
0.000495467
0.000496162
0.000496404
0.000498149
0.000498455
0.000497651
0.000496389
0.00049492
0.000493509
0.000492334
0.000491482
0.00049096
0.000490707
0.000490646
0.000490708
0.000490859
0.000491094
0.000491435
0.000491944
0.000492666
0.000493598
0.000494659
0.000495678
0.000496447
0.000496733
0.000498699
0.000498984
0.000498128
0.000496795
0.000495256
0.000493781
0.000492554
0.000491665
0.000491118
0.000490845
0.000490765
0.000490811
0.000490943
0.000491158
0.000491492
0.000492009
0.00049276
0.000493752
0.000494895
0.000496007
0.000496859
0.000497199
0.00049939
0.000499657
0.000498752
0.000497352
0.000495743
0.000494197
0.000492912
0.000491974
0.000491384
0.000491076
0.000490961
0.000490976
0.000491082
0.000491277
0.000491612
0.000492147
0.000492942
0.000494005
0.000495245
0.000496464
0.000497407
0.000497812
0.00050025
0.000500495
0.000499538
0.000498071
0.000496383
0.000494757
0.000493404
0.000492404
0.000491751
0.000491388
0.000491226
0.000491202
0.000491279
0.00049146
0.000491804
0.00049237
0.000493229
0.000494384
0.000495735
0.000497071
0.000498117
0.000498586
0.000501295
0.000501514
0.000500501
0.000498959
0.000497185
0.000495471
0.00049403
0.000492951
0.000492222
0.000491787
0.000491568
0.000491503
0.000491553
0.000491729
0.000492088
0.000492708
0.000493652
0.000494917
0.000496398
0.000497862
0.000499017
0.000499556
0.000502549
0.000502741
0.000501668
0.000500042
0.000498169
0.000496354
0.000494809
0.000493635
0.000492821
0.000492306
0.000492026
0.000491916
0.000491944
0.000492125
0.000492512
0.0004932
0.000494245
0.000495636
0.000497258
0.000498861
0.000500131
0.000500743
0.000504063
0.000504224
0.000503081
0.000501361
0.000499375
0.000497443
0.000495786
0.000494507
0.0004936
0.000493004
0.000492661
0.000492508
0.000492518
0.000492704
0.00049313
0.000493891
0.00049504
0.000496562
0.000498331
0.000500079
0.000501471
0.00050216
0.000505918
0.000506041
0.000504815
0.00050299
0.00050088
0.000498815
0.000497034
0.000495643
0.000494641
0.00049397
0.000493561
0.000493365
0.000493355
0.000493543
0.000494002
0.000494826
0.000496069
0.000497712
0.000499623
0.000501521
0.000503043
0.000503815
0.000508232
0.000508312
0.000506993
0.000505045
0.000502796
0.000500589
0.000498669
0.000497157
0.000496058
0.000495311
0.000494837
0.00049459
0.000494547
0.000494726
0.000495199
0.000496059
0.00049737
0.000499117
0.000501158
0.000503197
0.000504852
0.00050572
0.000511171
0.000511203
0.000509776
0.000507683
0.000505275
0.000502905
0.000500837
0.000499193
0.000497988
0.000497156
0.000496612
0.000496302
0.000496207
0.000496347
0.000496804
0.000497668
0.000499012
0.000500832
0.000502977
0.000505143
0.000506929
0.000507901
0.00051493
0.000514904
0.000513343
0.000511079
0.000508481
0.00050592
0.000503683
0.000501899
0.000500576
0.000499646
0.000499017
0.000498626
0.000498456
0.000498529
0.000498925
0.000499751
0.000501089
0.000502942
0.000505161
0.000507433
0.000509343
0.000510416
0.000519698
0.000519598
0.000517859
0.000515381
0.00051255
0.000509765
0.000507331
0.00050539
0.000503941
0.000502908
0.000502185
0.000501702
0.000501432
0.000501411
0.000501709
0.000502445
0.000503732
0.00050558
0.000507842
0.000510197
0.000512211
0.000513374
0.000525636
0.000525435
0.000523459
0.000520692
0.00051756
0.0005145
0.000511837
0.000509722
0.000508151
0.00050703
0.000506231
0.000505665
0.000505294
0.000505157
0.000505329
0.000505941
0.00050713
0.000508934
0.000511206
0.000513618
0.000515712
0.000516959
0.000532985
0.000532637
0.000530321
0.00052714
0.000523583
0.000520142
0.000517183
0.000514876
0.000513201
0.000512036
0.000511218
0.000510621
0.000510188
0.000509947
0.000509992
0.000510463
0.000511525
0.000513243
0.00051549
0.00051793
0.000520087
0.000521418
0.000542449
0.000541853
0.000538999
0.000535155
0.000530904
0.000526838
0.000523406
0.000520808
0.000519019
0.000517868
0.000517134
0.000516619
0.000516221
0.000515952
0.000515918
0.000516266
0.000517193
0.000518798
0.000520982
0.000523425
0.00052564
0.000527064
0.00055606
0.000555015
0.000551225
0.000546199
0.000540664
0.000535393
0.000530991
0.000527748
0.000525656
0.000524489
0.000523924
0.000523645
0.000523456
0.000523311
0.000523307
0.000523606
0.00052443
0.000525919
0.000528024
0.000530453
0.000532735
0.000534272
0.000578729
0.000576828
0.000571328
0.000564093
0.000556066
0.000548326
0.000541772
0.000536905
0.000533808
0.000532212
0.000531672
0.000531698
0.000531895
0.000532092
0.000532307
0.000532706
0.000533521
0.000534943
0.000536991
0.000539416
0.000541783
0.000543471
0.000620261
0.000616777
0.000608192
0.000596933
0.000584228
0.000571617
0.000560501
0.000551805
0.000545877
0.000542512
0.000541154
0.000541094
0.000541629
0.000542333
0.000543022
0.000543765
0.000544761
0.000546241
0.000548302
0.00055077
0.000553269
0.00055517
0.000696447
0.000690286
0.00067653
0.000658524
0.000637795
0.000616473
0.000596705
0.000580125
0.000567655
0.000559418
0.000554912
0.000553239
0.000553345
0.000554322
0.000555603
0.000556952
0.000558413
0.000560182
0.000562413
0.000565039
0.00056777
0.000569978
0.000827399
0.0008172
0.000795599
0.000767458
0.000734552
0.000699616
0.000665656
0.000635231
0.000610196
0.000591465
0.000579018
0.000572062
0.000569288
0.000569219
0.000570583
0.00057256
0.000574761
0.000577152
0.000579839
0.000582846
0.000586002
0.000588675
0.00103396
0.00101819
0.000985678
0.000943674
0.000894217
0.000840598
0.00078657
0.000735534
0.000690361
0.000653149
0.000625009
0.000605963
0.00059496
0.000590195
0.000589619
0.000591387
0.000594266
0.000597588
0.000601146
0.000604915
0.000608825
0.000612226
0.00133816
0.00131497
0.00126786
0.00120761
0.00113677
0.00105931
0.000979622
0.000901677
0.000828937
0.000764458
0.000710785
0.000669607
0.00064122
0.000624412
0.000616827
0.000615592
0.000617999
0.000622175
0.000627021
0.000632108
0.000637303
0.000641854
0.00176911
0.00173594
0.00166926
0.00158487
0.00148629
0.00137853
0.00126687
0.00115565
0.0010485
0.000948674
0.000859488
0.000784365
0.000725969
0.000685257
0.000661005
0.000650138
0.000648553
0.000652254
0.00065843
0.000665473
0.000672739
0.000679072
0.00237077
0.00232388
0.00223068
0.00211387
0.00197861
0.00183142
0.0016788
0.00152571
0.00137589
0.00123237
0.00109824
0.000977404
0.000874592
0.000794122
0.000738069
0.000705307
0.000691565
0.000690753
0.000697039
0.000706431
0.000716752
0.000725752
0.00321015
0.0031443
0.00301515
0.00285468
0.00267039
0.00247077
0.00226394
0.00205579
0.00185052
0.00165118
0.00146048
0.00128169
0.0011197
0.000981265
0.000873208
0.000799407
0.000758417
0.00074373
0.000746022
0.000757097
0.000771419
0.000784222
0.00438769
0.00429593
0.00411875
0.0039001
0.00365038
0.00338049
0.00310048
0.00281742
0.00253638
0.00226117
0.00199492
0.00174065
0.00150232
0.00128638
0.00110251
0.000961574
0.000869339
0.000822976
0.000811644
0.000820994
0.000839606
0.000857457
0.00605201
0.00592561
0.00568596
0.00539147
0.00505563
0.00469189
0.0043123
0.00392529
0.00353735
0.00315399
0.00278018
0.00242041
0.00207889
0.00176071
0.00147438
0.00123436
0.00105699
0.000949672
0.000905291
0.000904393
0.000925603
0.000949463
0.00841567
0.0082446
0.00792725
0.00753762
0.0070914
0.00660394
0.00608901
0.00555665
0.00501561
0.00447448
0.00394196
0.0034265
0.0029355
0.00247497
0.00205095
0.00167527
0.00136991
0.00115844
0.00104754
0.00101828
0.00103601
0.00106569
0.0117802
0.0115545
0.0111469
0.0106447
0.0100621
0.00941464
0.00871689
0.00798096
0.00721939
0.00644615
0.00567651
0.00492612
0.0042095
0.00353811
0.00291902
0.00235927
0.00187541
0.00150266
0.00127279
0.00118108
0.00118151
0.00121403
0.0165591
0.0162714
0.0157704
0.0151464
0.0144043
0.0135548
0.0126125
0.0115924
0.0105137
0.00939954
0.0082762
0.00717136
0.00611172
0.00511976
0.00420972
0.00338827
0.00266183
0.00205841
0.00163509
0.00142388
0.00137925
0.00140589
0.0233164
0.0229668
0.0223888
0.0216527
0.0207372
0.01964
0.0183734
0.016958
0.0154248
0.0138126
0.0121658
0.0105313
0.00895508
0.00747708
0.00612575
0.00491543
0.00384653
0.00292703
0.00221504
0.00179608
0.00165502
0.00165841
0.0328019
0.0324048
0.0318018
0.0309978
0.0299142
0.0285211
0.026826
0.0248615
0.0226804
0.0203473
0.0179351
0.0155209
0.0131796
0.0109773
0.00896376
0.00716963
0.00559927
0.00424107
0.00312433
0.00237353
0.00205048
0.00199707
0.0459988
0.0455936
0.0450751
0.0443011
0.043084
0.041343
0.0390804
0.0363537
0.0332541
0.0298882
0.0263726
0.0228294
0.019377
0.0161188
0.0131342
0.0104772
0.00816647
0.00618199
0.00450958
0.00326753
0.00262919
0.00245924
0.0641705
0.0638344
0.0635936
0.0630242
0.0617483
0.0595994
0.0565802
0.0527954
0.0484015
0.043572
0.038489
0.0333409
0.0283085
0.0235481
0.0191774
0.0152789
0.0118928
0.00900509
0.00656378
0.00463239
0.00348694
0.00310068
0.0889076
0.088775
0.0891309
0.0890342
0.0878298
0.0851961
0.0811557
0.0758984
0.0696898
0.0628089
0.0555364
0.0481541
0.0409287
0.0340854
0.027788
0.0221519
0.0172432
0.0130657
0.0095483
0.00667331
0.00476416
0.00400393
0.122177
0.122462
0.12391
0.124706
0.123742
0.120504
0.115058
0.107746
0.0990125
0.0893004
0.0790325
0.0686154
0.0584248
0.0487662
0.039855
0.0318435
0.0248291
0.0188433
0.0138185
0.00965806
0.00665761
0.00529001
0.166398
0.167427
0.170679
0.172975
0.172425
0.168385
0.160982
0.150826
0.138637
0.1251
0.11083
0.0963878
0.0822771
0.0688917
0.0565013
0.045302
0.035432
0.0269607
0.0198448
0.0139323
0.00942863
0.00713213
0.224608
0.226845
0.232871
0.237411
0.237468
0.232312
0.22221
0.208207
0.191408
0.172824
0.153313
0.133624
0.114398
0.0961278
0.0791506
0.0637224
0.0500358
0.0382089
0.028238
0.0199459
0.0134158
0.00977215
0.300601
0.304656
0.314707
0.322423
0.323314
0.316635
0.302941
0.283896
0.261109
0.235998
0.209717
0.183227
0.157338
0.132669
0.109659
0.0886544
0.069916
0.0536161
0.0398008
0.0282971
0.0190617
0.0135407
0.399306
0.405976
0.42169
0.433852
0.435985
0.427413
0.40913
0.383677
0.353286
0.319834
0.284809
0.249446
0.214792
0.181668
0.150677
0.1223
0.0968824
0.0746422
0.0556746
0.0398389
0.0269854
0.0189024
0.527207
0.53755
0.561161
0.579624
0.58381
0.573099
0.549198
0.515849
0.475999
0.431977
0.385647
0.338608
0.292279
0.247818
0.206108
0.167844
0.133488
0.103308
0.0774335
0.0557572
0.0380475
0.0265055
0.693365
0.708821
0.743376
0.770718
0.778315
0.765486
0.735134
0.692435
0.641069
0.58376
0.522788
0.460282
0.398228
0.338318
0.281887
0.229997
0.183352
0.14234
0.107129
0.0775944
0.0533932
0.0372477
0.910351
0.932833
0.982318
1.02192
1.0351
1.02113
0.984304
0.931163
0.866026
0.791978
0.711884
0.628692
0.545245
0.464
0.386948
0.315769
0.251694
0.195467
0.147388
0.10724
0.0744364
0.0522975
1.19535
1.22736
1.29707
1.35386
1.37678
1.36451
1.32268
1.25845
1.17671
1.08112
0.975595
0.864353
0.7515
0.640551
0.534403
0.435648
0.346442
0.268313
0.201992
0.147218
0.102976
0.0731429
1.57152
1.61639
1.7137
1.79553
1.8357
1.83014
1.78616
1.70997
1.60733
1.48321
1.34323
1.19354
1.04006
0.887939
0.741333
0.603978
0.479174
0.369612
0.276988
0.201427
0.141553
0.101797
2.07008
2.13218
2.26732
2.38562
2.45343
2.46168
2.41854
2.32793
2.19746
2.03464
1.84773
1.64551
1.43652
1.2283
1.02693
0.837541
0.66449
0.511514
0.38161
0.276134
0.194091
0.141125
2.73172
2.81693
3.00339
3.17285
3.2809
3.31103
3.2688
3.15776
2.98843
2.77252
2.52221
2.24984
1.96723
1.68486
1.41138
1.1539
0.91792
0.707854
0.527619
0.380277
0.266615
0.19493
3.60681
3.72292
3.9778
4.2156
4.3764
4.43342
4.38807
4.24497
4.02
3.73128
3.39681
3.03361
2.65719
2.28089
1.91589
1.57171
1.25554
0.97266
0.727549
0.52452
0.367092
0.268813
4.75494
4.91225
5.25609
5.58017
5.8034
5.88619
5.82659
5.63195
5.32702
4.93936
4.49515
4.01747
3.5257
3.0356
2.55993
2.11
1.69488
1.32126
0.994666
0.720603
0.505065
0.370275
6.24167
6.45277
6.90801
7.3336
7.622
7.72025
7.62523
7.34941
6.93095
6.4107
5.82601
5.20747
4.57849
3.95626
3.35359
2.78176
2.25076
1.76875
1.34291
0.980835
0.691465
0.508353
8.13398
8.41349
9.00138
9.53539
9.87929
9.96914
9.80355
9.40413
8.82842
8.13506
7.37544
6.58893
5.80279
5.0344
4.2944
3.59128
2.93325
2.32872
1.78688
1.31865
0.937504
0.692187
10.4895
10.8514
11.5837
12.2141
12.5825
12.622
12.3318
11.7537
10.9702
10.0614
9.0941
8.11671
7.15988
6.23981
5.36276
4.53123
3.74731
3.01545
2.34516
1.75192
1.25665
0.93088
13.3537
13.7996
14.6582
15.335
15.6628
15.5874
15.1021
14.2841
13.2438
12.0845
10.8874
9.70824
8.57979
7.51568
6.5163
5.57602
4.68688
3.84233
3.04421
2.31036
1.67278
1.23982
16.7474
17.2615
18.1556
18.7561
18.9332
18.6498
17.8959
16.7846
15.4548
14.0302
12.6031
11.2337
9.95373
8.77282
7.6846
6.67506
5.72559
4.81255
3.91313
3.03808
2.22945
1.64963
20.6819
21.2157
21.9406
22.2173
22.0728
21.4549
20.3729
18.9469
17.3313
15.6631
14.0405
12.523
11.1384
9.8914
8.76937
7.75204
6.81559
5.92222
4.99433
4.01117
3.01161
2.22473
25.1143
25.5611
25.675
25.2155
24.5216
23.5006
22.1006
20.4043
18.5643
16.7239
14.981
13.3894
11.9714
10.7275
9.64208
8.69416
7.86556
7.1193
6.36911
5.51993
4.45618
3.4054
29.6936
29.7961
28.2601
26.7019
25.4737
24.1949
22.6214
20.7921
18.86
16.9717
15.2214
13.656
12.2924
11.1272
10.15
9.34606
8.71299
8.25795
7.97422
7.79862
7.21195
6.93226
0.00596715
0.0202223
0.03402
0.0392838
0.110828
2.74908
9.47655
14.4932
17.48
18.8606
19.1809
18.9108
18.3079
17.591
16.8446
16.0895
15.3145
14.5336
13.7987
13.1479
12.5859
12.1027
11.6832
11.3265
11.0463
10.8518
10.7354
10.6675
10.6106
10.5405
10.4552
10.3669
10.283
10.2039
10.1386
10.1096
10.1277
10.207
10.353
10.5536
10.7932
11.0574
11.3329
11.6045
11.8585
12.089
12.2963
12.4747
12.6065
12.6688
12.663
12.5897
12.4644
12.2868
12.0642
11.8152
11.5584
11.3111
11.0902
10.906
10.7453
10.5785
10.3784
10.1518
9.92858
9.72273
9.5371
9.37257
9.22733
9.1034
9.0056
8.94312
8.92427
8.94145
8.99789
9.09092
9.21685
9.37069
9.5487
9.74162
9.93299
10.1048
10.2453
10.3565
10.4568
10.5642
10.6971
10.8741
11.104
11.373
11.6172
11.7454
11.7242
11.5731
11.4173
11.3197
11.2755
11.2619
11.25
11.2053
11.1176
10.9891
10.8253
10.624
10.3924
10.165
10.0397
10.2219
11.5074
16.3398
28.7346
29.0679
27.0335
25.5071
24.4072
23.245
21.7441
19.9733
18.1097
16.3101
14.6674
13.2226
11.9909
10.9746
10.1619
9.54883
9.16786
9.10075
9.47526
10.394
11.4852
13.5871
22.596
19.7094
17.8302
16.949
16.821
16.972
17.215
17.3544
17.298
16.9827
16.488
15.9105
15.2965
14.6708
14.0528
13.4724
12.9653
12.5259
12.1228
11.732
11.3486
10.9756
10.626
10.3279
10.1081
9.96985
9.90346
9.90571
9.98107
10.1228
10.2918
10.4468
10.5516
10.5875
10.562
10.4773
10.3555
10.2198
10.0961
10.01
9.98427
10.0085
10.0632
10.1084
10.1186
10.0903
10.0329
9.97213
9.92164
9.89542
9.90083
9.94109
10.0275
10.1596
10.3239
10.4913
10.6389
10.7559
10.8395
10.8919
10.9164
10.9154
10.8855
10.8295
10.7492
10.6444
10.5197
10.3826
10.2439
10.1156
10.0068
9.92521
9.87955
9.87105
9.88809
9.93393
10.0047
10.1004
10.2174
10.3297
10.4126
10.463
10.4864
10.4889
10.476
10.4578
10.4451
10.4425
10.4471
10.4565
10.4707
10.4919
10.5183
10.5475
10.5864
10.6442
10.7309
10.8577
11.0257
11.229
11.4568
11.7041
11.9735
12.2643
12.6075
13.1481
14.2908
16.7708
21.536
29.3195
0.00119951
0.0020136
0.00302643
0.00466655
0.0257373
1.71803
8.15192
13.3904
16.6798
18.326
18.8468
18.7076
18.1987
17.5504
16.8444
16.1015
15.3265
14.5476
13.8235
13.1929
12.652
12.1813
11.769
11.4209
11.156
10.982
10.8811
10.8163
10.7537
10.672
10.5716
10.4688
10.3721
10.281
10.2063
10.1755
10.1976
10.274
10.4192
10.6181
10.8582
11.1258
11.4072
11.6819
11.9315
12.1512
12.3459
12.5151
12.6434
12.6906
12.6689
12.5898
12.4653
12.277
12.0481
11.7971
11.5412
11.2958
11.0758
10.8875
10.72
10.5452
10.3392
10.1115
9.89412
9.70425
9.5373
9.38575
9.25325
9.14114
9.05129
8.99393
8.98163
9.00247
9.05084
9.12983
9.24102
9.37825
9.54379
9.73013
9.91871
10.0879
10.223
10.319
10.4086
10.511
10.64
10.8145
11.05
11.316
11.5449
11.6408
11.5751
11.3996
11.2545
11.1993
11.2081
11.2337
11.2392
11.1981
11.1029
10.958
10.7707
10.5535
10.3043
10.0537
9.89844
10.0247
10.9959
14.1062
18.0897
20.1114
20.9971
21.3327
21.2667
20.6663
19.5083
17.995
16.3584
14.774
13.3398
12.097
11.0612
10.2388
9.63214
9.24276
9.09442
9.26876
10.0357
11.3426
12.3747
13.5276
18.122
18.5831
17.4568
16.6849
16.5757
16.7838
17.078
17.2388
17.1694
16.8516
16.3692
15.8154
15.2367
14.6516
14.0767
13.5352
13.0486
12.6193
12.2215
11.8313
11.4433
11.0613
10.7028
10.403
10.1902
10.0659
10.0154
10.0228
10.0864
10.2046
10.3481
10.4843
10.5807
10.6102
10.5873
10.5152
10.3948
10.258
10.1348
10.0484
10.0119
10.0186
10.0475
10.0745
10.0756
10.0409
9.98317
9.9309
9.8949
9.8801
9.88782
9.92338
10.0012
10.1294
10.3025
10.4821
10.6444
10.7791
10.8825
10.9492
10.9857
10.9901
10.9611
10.9027
10.8143
10.6942
10.5572
10.4105
10.2663
10.138
10.0328
9.95423
9.91221
9.9028
9.91602
9.954
10.0202
10.1129
10.2254
10.3369
10.4232
10.48
10.5112
10.5205
10.5177
10.512
10.5115
10.5204
10.5355
10.5501
10.5634
10.582
10.6068
10.6335
10.6657
10.7135
10.7846
10.9021
11.0584
11.2455
11.4556
11.6889
11.9503
12.2443
12.5919
13.1222
14.2192
16.6242
21.2681
27.504
0.0010018
0.00105479
0.00111548
0.00123731
0.00163063
0.242494
3.80175
9.17064
13.1028
15.445
16.5452
16.8322
16.6655
16.2633
15.7517
15.1569
14.4898
13.7883
13.1181
12.524
11.9964
11.5335
11.1302
10.7971
10.5539
10.4073
10.3319
10.2816
10.2221
10.1345
10.0226
9.90876
9.80077
9.69128
9.58626
9.51376
9.49818
9.53689
9.64084
9.80079
10.0041
10.2393
10.4928
10.7407
10.9594
11.1435
11.3044
11.45
11.5728
11.6391
11.6397
11.588
11.4958
11.354
11.1652
10.9509
10.7299
10.5144
10.3165
10.1432
9.98631
9.82181
9.62843
9.41566
9.21629
9.04637
8.89449
8.75088
8.62033
8.50729
8.40989
8.3376
8.30354
8.30397
8.33065
8.38396
8.46279
8.56791
8.70324
8.86487
9.03622
9.19308
9.31333
9.39253
9.45249
9.51603
9.60125
9.73788
9.9549
10.2364
10.5004
10.621
10.5561
10.3663
10.2116
10.1716
10.2089
10.2732
10.3125
10.2981
10.2135
10.0717
9.89295
9.68395
9.43826
9.16843
8.93647
8.89043
9.29635
10.8575
13.1663
14.9122
16.3469
17.3283
17.7181
17.4684
16.5919
15.3633
14.0081
12.6902
11.5041
10.4935
9.67301
9.05677
8.64578
8.44854
8.48167
8.84359
9.73742
11.1332
12.3142
12.7598
14.0906
15.3193
15.3523
14.9609
14.8774
15.0861
15.4577
15.725
15.772
15.5966
15.2525
14.8199
14.3405
13.8393
13.3372
12.8565
12.4223
12.0395
11.6802
11.3153
10.9368
10.5513
10.185
9.87542
9.6463
9.49545
9.4075
9.37076
9.383
9.44943
9.55456
9.67234
9.76841
9.81896
9.82439
9.78225
9.68836
9.5622
9.433
9.33017
9.26643
9.24604
9.25428
9.27449
9.27821
9.25234
9.20406
9.15353
9.10864
9.07145
9.0475
9.05093
9.10114
9.21421
9.37612
9.55692
9.73061
9.88322
10.007
10.0984
10.1575
10.1829
10.1747
10.132
10.0576
9.95329
9.82764
9.68968
9.55184
9.42888
9.32724
9.24674
9.19096
9.16066
9.15067
9.16099
9.20502
9.2855
9.38925
9.4977
9.59749
9.67848
9.73453
9.76528
9.78163
9.79625
9.81604
9.84422
9.87692
9.90137
9.91027
9.91324
9.9153
9.91293
9.91
9.91947
9.95531
10.0273
10.1369
10.2765
10.4414
10.6412
10.8923
11.2037
11.579
12.0945
13.0313
14.9765
18.568
22.8393
0.000999341
0.000998298
0.0010091
0.00102316
0.00108404
0.00324113
0.323093
3.35955
7.38224
10.4013
12.2515
13.1864
13.5266
13.5276
13.3297
12.9986
12.5607
12.0515
11.5269
11.0239
10.5449
10.0992
9.70509
9.37539
9.1236
8.95876
8.86386
8.80092
8.73787
8.65535
8.55056
8.44198
8.34021
8.23651
8.12564
8.02304
7.95243
7.92651
7.94662
8.01979
8.13499
8.28342
8.45652
8.63654
8.802
8.94364
9.06902
9.19009
9.31306
9.41648
9.47689
9.49322
9.47758
9.42432
9.32939
9.20339
9.0638
8.92162
8.78311
8.6534
8.53065
8.40115
8.24968
8.0797
7.9134
7.76386
7.61942
7.4716
7.32655
7.19229
7.06979
6.96542
6.8903
6.84738
6.83122
6.83893
6.87359
6.93298
7.01921
7.13204
7.26322
7.39593
7.50924
7.59071
7.64497
7.68598
7.7289
7.81061
7.97711
8.24524
8.55393
8.77134
8.80399
8.68724
8.52428
8.43255
8.4274
8.46209
8.4925
8.49094
8.4475
8.3539
8.22525
8.07112
7.88778
7.6743
7.46023
7.34826
7.54189
8.65965
10.7
12.4465
13.7716
14.5105
14.7101
14.4311
13.6919
12.6926
11.5954
10.5269
9.57082
8.77336
8.15243
7.71236
7.45741
7.39739
7.52789
7.94319
8.76321
10.0457
11.3288
11.9427
12.228
12.699
12.8565
12.704
12.5333
12.5488
12.7899
13.0851
13.2927
13.332
13.2032
12.9391
12.591
12.1932
11.774
11.3584
10.9748
10.6379
10.3318
10.0266
9.702
9.35114
8.99928
8.67687
8.40296
8.18258
8.01511
7.89769
7.83286
7.8226
7.86611
7.94933
8.04111
8.11307
8.15515
8.16064
8.12462
8.04708
7.94908
7.85588
7.7836
7.74133
7.72847
7.73665
7.74676
7.74158
7.71556
7.67462
7.62361
7.56407
7.50168
7.45502
7.44494
7.48512
7.57824
7.70264
7.83742
7.96729
8.08205
8.17568
8.24784
8.29907
8.32866
8.33491
8.31908
8.27587
8.20755
8.11744
8.01458
7.9131
7.8222
7.74211
7.67352
7.61946
7.58098
7.56141
7.56905
7.61472
7.69177
7.78656
7.89034
7.993
8.08401
8.15159
8.19882
8.2384
8.2762
8.31282
8.34701
8.37005
8.37251
8.36431
8.34871
8.32468
8.29341
8.26564
8.25377
8.26675
8.31398
8.39118
8.49591
8.63711
8.835
9.10692
9.45537
9.9041
10.5852
11.8478
14.0741
16.7271
0.000999293
0.000995721
0.000994474
0.000996695
0.00100629
0.00104594
0.00250477
0.135603
1.61866
4.66409
7.09009
8.69749
9.63209
10.1045
10.2803
10.258
10.0894
9.81838
9.49773
9.15997
8.80389
8.43445
8.08184
7.77006
7.50723
7.30282
7.15414
7.0441
6.95274
6.86475
6.76821
6.66762
6.57296
6.48352
6.39163
6.2969
6.20914
6.14082
6.10022
6.09012
6.11232
6.16544
6.24498
6.34391
6.44953
6.5515
6.64963
6.75155
6.86509
6.98399
7.08881
7.16454
7.20922
7.22391
7.21013
7.16906
7.11379
7.0572
7.00084
6.94045
6.87209
6.7895
6.6859
6.56368
6.43839
6.32203
6.20565
6.07678
5.93894
5.80234
5.67138
5.54998
5.44565
5.36422
5.30559
5.2668
5.24633
5.24302
5.26114
5.30248
5.36726
5.4496
5.53661
5.61585
5.68023
5.73135
5.77537
5.83647
5.96148
6.18378
6.47347
6.73358
6.87223
6.85415
6.73123
6.60464
6.54296
6.53282
6.53331
6.53189
6.52022
6.48311
6.41753
6.33012
6.22622
6.11515
6.03308
6.0459
6.28629
7.19206
8.79263
10.2016
11.1862
11.6918
11.8152
11.6144
11.0815
10.3303
9.47869
8.63509
7.88264
7.27198
6.82045
6.52486
6.37984
6.38289
6.54892
6.91661
7.55513
8.53564
9.66394
10.4912
10.8698
11.0596
11.1125
11.0434
10.8515
10.6632
10.5999
10.6856
10.8711
11.0087
11.0031
10.8594
10.6182
10.3213
9.99229
9.65165
9.32447
9.03123
8.76952
8.51795
8.25641
7.96488
7.65398
7.34408
7.0549
6.79461
6.5737
6.39532
6.26329
6.18086
6.1446
6.14915
6.18658
6.22988
6.26918
6.29772
6.30924
6.30214
6.27473
6.23421
6.18902
6.14795
6.11796
6.102
6.09249
6.07919
6.06004
6.03745
6.01072
5.96931
5.90589
5.83223
5.76963
5.73441
5.7331
5.7658
5.82193
5.89057
5.96412
6.03561
6.10368
6.16825
6.22585
6.27252
6.3055
6.32155
6.31692
6.28811
6.23339
6.16328
6.08996
6.01935
5.95361
5.89586
5.84847
5.81456
5.79831
5.80525
5.84332
5.9034
5.98018
6.07176
6.17185
6.26463
6.34273
6.41066
6.46901
6.51358
6.54558
6.56627
6.5723
6.57034
6.56336
6.54926
6.52729
6.49953
6.4746
6.46105
6.46443
6.49324
6.54472
6.62234
6.74073
6.9189
7.16421
7.47926
7.90392
8.58423
9.7376
11.2344
0.000999288
0.000995709
0.000992535
0.000990825
0.000991555
0.000995152
0.00100742
0.00118548
0.0177493
0.411507
2.11971
4.03786
5.48305
6.43952
7.01935
7.32767
7.439
7.41354
7.29935
7.14057
6.94522
6.71085
6.45271
6.19913
5.96804
5.77224
5.6123
5.48218
5.37469
5.28136
5.19016
5.09423
4.99857
4.90864
4.82339
4.73972
4.65774
4.58154
4.51745
4.47064
4.44318
4.43503
4.4472
4.4819
4.52994
4.58598
4.64901
4.72268
4.81143
4.91454
5.02253
5.12084
5.19827
5.2508
5.27709
5.27958
5.27552
5.27184
5.2715
5.2726
5.26516
5.23534
5.17813
5.0988
5.01245
4.93314
4.85861
4.77616
4.68024
4.57491
4.46536
4.35633
4.25381
4.16243
4.08318
4.01502
3.95685
3.90863
3.87309
3.85386
3.85392
3.87538
3.91261
3.95733
4.00305
4.04884
4.09787
4.16162
4.26775
4.44249
4.67326
4.90046
5.0679
5.11067
5.05759
4.94939
4.86308
4.82799
4.81834
4.81605
4.82015
4.81617
4.79673
4.76224
4.7233
4.7079
4.76614
4.94652
5.24823
5.79153
6.62632
7.46674
8.22322
8.81704
9.17701
9.23562
8.98624
8.47989
7.8438
7.19684
6.63082
6.19568
5.89848
5.72207
5.64846
5.66422
5.78886
6.04231
6.45952
7.09441
7.91215
8.70983
9.27335
9.59004
9.72843
9.70793
9.56395
9.32677
9.07905
8.92525
8.92866
9.00616
9.00882
8.91496
8.74049
8.52403
8.28304
8.02718
7.77139
7.53512
7.32469
7.12437
6.91486
6.6813
6.42744
6.1679
5.91662
5.6768
5.45192
5.25117
5.08363
4.95366
4.85851
4.79264
4.74867
4.72225
4.70955
4.70574
4.71554
4.73475
4.75495
4.76921
4.76728
4.75235
4.72738
4.69836
4.66693
4.63213
4.59708
4.56885
4.55154
4.53429
4.49879
4.43772
4.36111
4.28707
4.22943
4.19385
4.1803
4.18478
4.20851
4.24196
4.28657
4.34153
4.3995
4.45304
4.49921
4.5374
4.56458
4.56955
4.55702
4.52076
4.47053
4.41716
4.36612
4.32065
4.28151
4.24887
4.22471
4.21113
4.20965
4.22703
4.26103
4.31401
4.38437
4.46165
4.53624
4.60869
4.67828
4.73775
4.78694
4.82912
4.86457
4.89366
4.91694
4.9344
4.94641
4.94994
4.94983
4.95084
4.95377
4.96359
4.98325
5.01635
5.07255
5.16643
5.30634
5.49153
5.72871
6.05977
6.57455
7.30575
0.00099939
0.000995885
0.000992247
0.000989246
0.00098718
0.000986389
0.0009869
0.000988098
0.000994743
0.00154701
0.0345478
0.398708
1.55701
2.78944
3.71319
4.34608
4.74733
4.96917
5.06797
5.08759
5.06392
4.98704
4.86693
4.72382
4.58154
4.45609
4.34404
4.24159
4.14791
4.06132
3.97638
3.88643
3.79322
3.70221
3.6164
3.53533
3.45809
3.38574
3.32153
3.2691
3.23028
3.20414
3.18882
3.18322
3.18625
3.20009
3.22309
3.25824
3.30648
3.36742
3.43973
3.51725
3.59147
3.6546
3.7006
3.72811
3.74354
3.75798
3.77857
3.80365
3.82486
3.82544
3.80541
3.76326
3.7123
3.6652
3.62476
3.58493
3.53952
3.4863
3.42494
3.35645
3.28399
3.21031
3.13646
3.06349
2.99359
2.92967
2.87544
2.83331
2.80354
2.78577
2.77992
2.78211
2.79237
2.80866
2.83546
2.88213
2.96277
3.08706
3.24839
3.41554
3.5555
3.62084
3.61073
3.55829
3.50161
3.47552
3.4696
3.46874
3.47777
3.48722
3.48677
3.48367
3.48662
3.53315
3.68211
3.9155
4.19935
4.52156
4.89361
5.41508
6.1723
6.97031
7.55194
7.78078
7.67696
7.29825
6.79523
6.30123
5.90255
5.63092
5.467
5.37367
5.32506
5.30859
5.33368
5.43022
5.62127
5.95
6.43518
7.01708
7.56622
7.99186
8.25765
8.33038
8.2553
8.05844
7.80256
7.55945
7.40812
7.33293
7.25908
7.15925
7.03381
6.89002
6.73244
6.5642
6.39145
6.22623
6.07756
5.93722
5.7859
5.61243
5.42368
5.23373
5.04808
4.85687
4.65404
4.45315
4.27469
4.12801
4.00719
3.90228
3.80699
3.72152
3.65003
3.59549
3.56057
3.54787
3.55663
3.58647
3.61647
3.62656
3.61883
3.59461
3.55708
3.51146
3.46354
3.41971
3.38626
3.36082
3.333
3.29371
3.23789
3.16835
3.09544
3.02993
2.9776
2.93939
2.91648
2.9104
2.92183
2.95146
2.98904
3.02641
3.05987
3.08984
3.11614
3.13302
3.13362
3.12214
3.09657
3.06592
3.03609
3.00989
2.98637
2.96398
2.94276
2.92411
2.90985
2.90262
2.90486
2.92319
2.95866
3.00388
3.051
3.09757
3.14712
3.20595
3.27559
3.3493
3.42299
3.49424
3.55965
3.61643
3.66363
3.70175
3.73333
3.75949
3.7796
3.79384
3.80493
3.81859
3.84314
3.88797
3.95859
4.05444
4.17484
4.32831
4.53806
4.83527
0.000999404
0.000995858
0.000991901
0.000988218
0.000984991
0.000982331
0.000980226
0.000978237
0.000975846
0.000972549
0.000979741
0.00158653
0.0199144
0.194266
0.698211
1.50888
2.10717
2.54345
2.87057
3.14191
3.34518
3.46035
3.5
3.4983
3.48242
3.45204
3.40336
3.33891
3.26812
3.19707
3.12442
3.04702
2.96576
2.88416
2.80557
2.73136
2.6617
2.59781
2.54253
2.49829
2.46511
2.43999
2.4185
2.398
2.37893
2.3635
2.35418
2.3521
2.35661
2.36914
2.39036
2.41994
2.4554
2.49378
2.53113
2.56302
2.58624
2.60306
2.61964
2.63876
2.65589
2.66267
2.65576
2.63843
2.61683
2.59739