/*--------------------------------*- C++ -*----------------------------------*\
  =========                 |
  \\      /  F ield         | OpenFOAM: The Open Source CFD Toolbox
   \\    /   O peration     | Website:  https://openfoam.org
    \\  /    A nd           | Version:  7
     \\/     M anipulation  |
\*---------------------------------------------------------------------------*/
FoamFile
{
    version     2.0;
    format      ascii;
    class       volScalarField;
    location    "300";
    object      nut;
}
// * * * * * * * * * * * * * * * * * * * * * * * * * * * * * * * * * * * * * //

dimensions      [0 2 -1 0 0 0 0];

internalField   nonuniform List<scalar> 
96800
(
0.000128978
0.000128945
0.000128898
0.000128828
0.000128757
0.000128693
0.000128639
0.000128597
0.000128567
0.000128544
0.000128531
0.000128529
0.00012854
0.000128567
0.000128607
0.000128666
0.000128736
0.000128813
0.000128889
0.000128951
0.000128975
0.000128909
0.000128954
0.000128862
0.000128801
0.000128725
0.00012865
0.000128582
0.000128524
0.000128478
0.000128444
0.00012842
0.000128407
0.000128407
0.000128419
0.000128446
0.000128489
0.000128547
0.000128616
0.000128695
0.000128774
0.000128842
0.000128886
0.000128893
0.000128952
0.000128845
0.000128767
0.000128678
0.00012859
0.000128511
0.000128446
0.000128395
0.000128358
0.000128333
0.00012832
0.00012832
0.000128333
0.000128361
0.000128403
0.00012846
0.00012853
0.00012861
0.000128696
0.000128778
0.000128847
0.000128899
0.000128948
0.000128834
0.000128741
0.000128637
0.000128534
0.000128442
0.000128367
0.00012831
0.000128269
0.000128243
0.000128231
0.000128231
0.000128245
0.000128273
0.000128314
0.00012837
0.00012844
0.000128524
0.000128616
0.00012871
0.000128797
0.000128869
0.000128947
0.000128828
0.000128723
0.000128603
0.000128485
0.00012838
0.000128295
0.000128231
0.000128187
0.00012816
0.000128149
0.000128151
0.000128166
0.000128193
0.000128234
0.000128288
0.000128359
0.000128445
0.000128544
0.000128647
0.000128745
0.000128828
0.000128947
0.000128825
0.000128709
0.000128576
0.000128443
0.000128325
0.000128231
0.000128162
0.000128117
0.00012809
0.00012808
0.000128084
0.0001281
0.000128127
0.000128166
0.00012822
0.000128291
0.00012838
0.000128483
0.000128594
0.0001287
0.00012879
0.000128949
0.000128823
0.000128698
0.000128553
0.000128408
0.000128281
0.000128179
0.000128107
0.00012806
0.000128035
0.000128027
0.000128033
0.00012805
0.000128076
0.000128114
0.000128167
0.000128238
0.00012833
0.000128439
0.000128557
0.00012867
0.000128763
0.000128953
0.000128823
0.000128691
0.000128536
0.000128383
0.000128247
0.000128141
0.000128066
0.00012802
0.000127997
0.000127991
0.000127998
0.000128015
0.00012804
0.000128076
0.000128128
0.000128201
0.000128296
0.000128411
0.000128536
0.000128656
0.000128755
0.000128961
0.000128828
0.00012869
0.000128528
0.000128367
0.000128226
0.000128116
0.00012804
0.000127995
0.000127973
0.000127969
0.000127977
0.000127993
0.000128017
0.000128051
0.000128103
0.000128177
0.000128277
0.000128399
0.000128533
0.00012866
0.000128763
0.000128975
0.00012884
0.000128697
0.00012853
0.000128363
0.000128218
0.000128106
0.000128028
0.000127983
0.000127961
0.000127957
0.000127964
0.000127979
0.000128002
0.000128035
0.000128088
0.000128166
0.000128272
0.000128402
0.000128544
0.00012868
0.000128787
0.000128997
0.00012886
0.000128714
0.000128541
0.00012837
0.000128222
0.000128107
0.000128028
0.000127981
0.000127958
0.000127951
0.000127956
0.00012797
0.000127991
0.000128026
0.000128081
0.000128164
0.000128278
0.000128417
0.000128569
0.000128713
0.000128826
0.000129029
0.00012889
0.00012874
0.000128564
0.000128388
0.000128235
0.000128117
0.000128035
0.000127986
0.00012796
0.000127949
0.000127951
0.000127962
0.000127984
0.000128021
0.000128081
0.000128171
0.000128294
0.000128445
0.000128608
0.000128761
0.00012888
0.000129069
0.000128929
0.000128776
0.000128594
0.000128414
0.000128257
0.000128135
0.00012805
0.000127996
0.000127965
0.00012795
0.000127947
0.000127956
0.000127979
0.000128021
0.000128089
0.000128189
0.000128324
0.000128487
0.000128663
0.000128826
0.000128951
0.000129115
0.000128973
0.000128816
0.000128631
0.000128446
0.000128284
0.000128158
0.000128069
0.00012801
0.000127975
0.000127955
0.000127947
0.000127955
0.000127981
0.00012803
0.000128107
0.00012822
0.000128369
0.000128547
0.000128735
0.00012891
0.000129041
0.00012916
0.000129017
0.000128857
0.000128667
0.000128478
0.000128313
0.000128183
0.000128091
0.000128029
0.00012799
0.000127966
0.000127956
0.000127963
0.000127993
0.00012805
0.000128139
0.000128267
0.000128431
0.000128624
0.000128827
0.000129012
0.000129151
0.000129194
0.00012905
0.000128887
0.000128695
0.000128504
0.000128337
0.000128207
0.000128114
0.000128052
0.000128012
0.000127988
0.000127978
0.000127986
0.00012802
0.000128086
0.000128188
0.00012833
0.000128511
0.00012872
0.000128937
0.000129134
0.000129279
0.000129198
0.000129055
0.000128892
0.0001287
0.000128511
0.000128348
0.000128223
0.000128136
0.00012808
0.000128045
0.000128024
0.000128017
0.000128028
0.000128067
0.000128142
0.000128256
0.000128413
0.000128609
0.000128834
0.000129066
0.000129275
0.000129427
0.000129144
0.000129002
0.000128843
0.000128657
0.000128478
0.000128328
0.000128219
0.000128148
0.000128108
0.000128086
0.000128077
0.000128078
0.000128095
0.00012814
0.000128223
0.000128348
0.000128518
0.000128728
0.000128968
0.000129214
0.000129434
0.000129594
0.000128981
0.000128844
0.000128695
0.000128524
0.000128368
0.000128247
0.00012817
0.000128134
0.000128125
0.000128131
0.000128144
0.000128163
0.000128193
0.000128244
0.000128335
0.000128469
0.00012865
0.000128873
0.000129126
0.000129385
0.000129617
0.000129785
0.000128623
0.000128497
0.000128366
0.000128226
0.000128112
0.000128044
0.000128028
0.000128053
0.000128103
0.00012816
0.000128215
0.000128266
0.000128319
0.000128384
0.000128483
0.000128627
0.000128817
0.000129052
0.000129318
0.00012959
0.000129833
0.000130008
0.000127927
0.000127819
0.000127721
0.000127631
0.000127588
0.00012761
0.000127697
0.000127829
0.000127981
0.000128129
0.000128259
0.000128369
0.000128464
0.000128559
0.000128673
0.000128828
0.000129031
0.000129278
0.000129557
0.000129842
0.000130096
0.00013028
0.000126666
0.000126587
0.000126537
0.000126525
0.000126592
0.000126756
0.000127009
0.000127318
0.000127644
0.00012795
0.000128214
0.00012843
0.000128605
0.000128758
0.000128905
0.000129081
0.000129302
0.000129567
0.000129862
0.000130161
0.000130428
0.00013062
0.000124522
0.000124483
0.000124501
0.000124596
0.000124819
0.000125192
0.000125695
0.000126281
0.000126889
0.00012746
0.000127957
0.000128364
0.000128686
0.000128947
0.000129172
0.00012939
0.000129645
0.000129937
0.000130254
0.000130572
0.000130855
0.000131057
0.000121142
0.000121151
0.000121251
0.000121474
0.000121892
0.000122536
0.000123385
0.000124373
0.000125408
0.0001264
0.000127281
0.000128017
0.000128603
0.000129063
0.000129435
0.00012975
0.000130066
0.000130404
0.000130757
0.000131102
0.000131405
0.000131621
0.00011633
0.000116383
0.000116554
0.000116889
0.000117495
0.000118431
0.000119683
0.000121179
0.000122795
0.000124397
0.00012587
0.000127138
0.000128172
0.000128984
0.00012962
0.000130123
0.000130556
0.000130979
0.000131391
0.000131779
0.000132112
0.000132348
0.000110429
0.000110493
0.000110671
0.00011102
0.000111699
0.000112815
0.000114399
0.000116394
0.000118666
0.000121034
0.000123319
0.000125376
0.000127108
0.000128501
0.000129587
0.000130424
0.000131086
0.000131657
0.000132173
0.00013263
0.000133009
0.000133273
0.000104744
0.000104747
0.000104787
0.000104933
0.000105397
0.000106361
0.000107941
0.00011016
0.000112919
0.000116026
0.000119237
0.000122307
0.000125025
0.000127298
0.000129109
0.000130507
0.000131574
0.00013241
0.000133105
0.000133681
0.000134135
0.000134443
0.000101489
0.000101331
0.000101041
0.000100688
0.00010052
0.000100792
0.000101736
0.000103516
0.000106171
0.000109587
0.000113514
0.000117613
0.000121529
0.000124991
0.00012787
0.000130143
0.000131874
0.000133175
0.000134171
0.000134947
0.000135527
0.000135904
0.000102751
0.000102357
0.000101588
0.000100513
9.93723e-05
9.84492e-05
9.80624e-05
9.85268e-05
0.00010009
0.000102856
0.00010673
0.000111395
0.000116386
0.000121209
0.000125483
0.000129013
0.000131764
0.000133822
0.000135328
0.000136437
0.000137224
0.000137713
0.000109315
0.000108666
0.000107378
0.000105534
0.000103336
0.00010104
9.89735e-05
9.75128e-05
9.70621e-05
9.79879e-05
0.000100516
0.000104612
0.000109915
0.000115808
0.000121604
0.000126741
0.000130939
0.000134149
0.000136483
0.000138131
0.000139261
0.00013993
0.000120737
0.000119847
0.000118072
0.000115525
0.000112372
0.00010883
0.000105177
0.00010175
9.89631e-05
9.73e-05
9.72667e-05
9.92638e-05
0.000103391
0.000109284
0.000116145
0.000123
0.000129037
0.00013388
0.000137474
0.000139983
0.000141661
0.00014262
0.000136294
0.000135177
0.000132944
0.000129755
0.000125768
0.000121175
0.000116205
0.000111123
0.000106255
0.000102024
9.89791e-05
9.77829e-05
9.90697e-05
0.000103157
0.000109719
0.000117702
0.000125725
0.000132672
0.000138068
0.000141895
0.000144426
0.00014584
0.000155651
0.000154296
0.000151594
0.000147765
0.000142988
0.000137454
0.00013137
0.000124944
0.000118409
0.000112059
0.000106312
0.000101783
9.93176e-05
9.98512e-05
0.000104006
0.000111492
0.000120868
0.000130176
0.000137964
0.000143708
0.00014753
0.000149639
0.000179044
0.000177411
0.000174182
0.000169654
0.000164046
0.000157566
0.000150424
0.000142799
0.000134867
0.000126815
0.000118902
0.000111542
0.000105437
0.00010166
0.000101546
0.000106108
0.000115023
0.000126186
0.000136815
0.0001452
0.000150904
0.000154046
0.000207265
0.000205292
0.000201445
0.000196109
0.000189558
0.000182034
0.000173757
0.000164903
0.000155617
0.000146031
0.000136296
0.000126642
0.000117504
0.000109703
0.000104634
0.000104191
0.000109866
0.000121039
0.000134376
0.000146079
0.000154428
0.000159073
0.000241639
0.000239249
0.000234673
0.000228393
0.000220747
0.000212012
0.000202426
0.000192163
0.000181362
0.000170135
0.00015859
0.000146858
0.000135166
0.000123995
0.000114353
0.000108148
0.000108091
0.000116163
0.000130656
0.000146078
0.000157971
0.000164712
0.000283911
0.000281025
0.000275619
0.000268265
0.000259362
0.000249218
0.00023808
0.000226121
0.00021348
0.000200272
0.000186609
0.000172606
0.000158406
0.000144257
0.000130719
0.000119151
0.000112313
0.000114144
0.00012662
0.000145092
0.000161334
0.000170931
0.000336242
0.000332792
0.000326492
0.000317976
0.000307681
0.000295927
0.000282952
0.000268924
0.000253982
0.000238261
0.000221909
0.000205081
0.000187939
0.000170663
0.000153533
0.000137294
0.000123955
0.000117815
0.000124372
0.000143361
0.000164362
0.000177691
0.00040108
0.000397024
0.000389841
0.00038015
0.000368385
0.000354837
0.000339717
0.000323172
0.000305352
0.000286427
0.000266601
0.000246109
0.000225202
0.000204121
0.000183074
0.000162425
0.000143296
0.000129066
0.000126745
0.000142161
0.000167143
0.000184967
0.000481239
0.000476576
0.000468609
0.000457829
0.000444588
0.000429088
0.00041148
0.000391892
0.000370493
0.000347512
0.00032324
0.000298022
0.000272239
0.000246264
0.000220398
0.000194894
0.000170264
0.000148573
0.000136205
0.000143667
0.000169868
0.000192796
0.000579842
0.000574614
0.000566068
0.0005544
0.000539747
0.000522139
0.000501636
0.000478357
0.000452526
0.000424465
0.000394589
0.000363388
0.000331403
0.000299179
0.00026718
0.000235756
0.000205175
0.000176432
0.000154154
0.000150476
0.000173653
0.000201382
0.000700333
0.000694634
0.00068582
0.000673571
0.000657603
0.000637679
0.000613745
0.000585949
0.000554633
0.000520264
0.000483425
0.000444794
0.000405109
0.000365104
0.000325425
0.000286606
0.000248959
0.000212877
0.000181132
0.000164817
0.000180191
0.000211115
0.000846426
0.000840392
0.000831671
0.000819251
0.000802017
0.000779448
0.000751346
0.000717967
0.000679858
0.00063771
0.000592333
0.000544643
0.000495611
0.000446182
0.000397172
0.000349297
0.000303041
0.000258632
0.000217445
0.000188169
0.000191606
0.000222824
0.00102195
0.00101579
0.00100752
0.000995101
0.000976801
0.000951029
0.000917735
0.000877387
0.000830865
0.000779194
0.000723495
0.000664973
0.000604868
0.000544333
0.000484323
0.000425691
0.000369104
0.000314887
0.000263625
0.000221407
0.000210041
0.000237777
0.00123069
0.00122458
0.00121738
0.00120499
0.00118575
0.00115559
0.00111568
0.00106657
0.00100967
0.00094649
0.000878545
0.00080738
0.000734502
0.000661235
0.000588612
0.000517561
0.00044889
0.000383123
0.000320567
0.000265172
0.000237345
0.000257628
0.00147604
0.00147017
0.00146443
0.00145249
0.00143115
0.00139543
0.00134703
0.001287
0.00121749
0.00114067
0.00105854
0.000972981
0.000885737
0.000798224
0.000711478
0.000626435
0.000543989
0.000464865
0.00038941
0.000320129
0.00027495
0.000284276
0.00176125
0.0017558
0.00175165
0.00173973
0.00171477
0.00167214
0.00161298
0.00153963
0.0014552
0.00136261
0.00126441
0.00116278
0.00105963
0.000956409
0.000854092
0.000753582
0.000655793
0.000561586
0.000471479
0.000387162
0.000324012
0.000319723
0.00208918
0.00208416
0.00208136
0.00206865
0.00203852
0.00198701
0.00191472
0.00182573
0.00172416
0.00161377
0.00149761
0.00137817
0.00125747
0.00113695
0.00101756
0.00090016
0.000785596
0.000674737
0.000568255
0.000467463
0.000385645
0.000365946
0.002463
0.00245828
0.00245646
0.00244211
0.00240531
0.00234334
0.00225589
0.00214922
0.00202852
0.00189829
0.00176207
0.00162265
0.00148222
0.00134234
0.00120401
0.00106808
0.000935245
0.000806208
0.000681651
0.000562745
0.000461278
0.000424999
0.00288689
0.00288237
0.00288158
0.00286556
0.00282153
0.00274822
0.00264413
0.00251827
0.00237673
0.00222458
0.00206576
0.00190342
0.0017401
0.00157771
0.00141752
0.0012605
0.00110723
0.000958133
0.000813682
0.000674884
0.000552554
0.000498987
0.00336864
0.00336457
0.00336599
0.00334957
0.00329876
0.00321446
0.00309317
0.0029474
0.00278367
0.0026074
0.00242284
0.00223358
0.00204275
0.00185289
0.00166586
0.00148311
0.00130542
0.0011331
0.00096631
0.000805633
0.000661163
0.000590137
0.00392159
0.00391878
0.00392495
0.00391067
0.0038551
0.00376196
0.0036245
0.00345911
0.00327217
0.00306915
0.00285467
0.00263301
0.00240813
0.00218346
0.00196176
0.00174547
0.00153627
0.001335
0.00114177
0.000956542
0.00078864
0.000700626
0.00456632
0.00456615
0.00458114
0.00457365
0.0045181
0.00442037
0.00426972
0.0040857
0.00387402
0.00364029
0.00338984
0.00312808
0.00286019
0.00259071
0.00232351
0.0020624
0.00181078
0.00157109
0.00134431
0.00113005
0.000936864
0.000832737
0.00533109
0.0053355
0.00536514
0.00537189
0.00532499
0.00522509
0.00506798
0.00486564
0.00462574
0.00435475
0.00405946
0.00374704
0.00342442
0.00309769
0.00277203
0.00245271
0.00214499
0.00185375
0.00158224
0.00133114
0.00110901
0.000989635
0.00625105
0.00626245
0.00631392
0.00634421
0.00631492
0.00621662
0.00605849
0.00583495
0.00555987
0.00524166
0.0048895
0.00451298
0.00412145
0.00372321
0.00332521
0.00293405
0.00255632
0.00219886
0.00186811
0.00156826
0.00131033
0.00117513
0.00736548
0.00738653
0.00746728
0.00753048
0.00752735
0.00743741
0.00727453
0.00702093
0.00669923
0.00632006
0.00589615
0.00544021
0.00496438
0.00447957
0.00399493
0.00351865
0.00305811
0.00262091
0.0022159
0.00185234
0.00154789
0.0013933
0.00871269
0.0087462
0.00886343
0.00896745
0.00899512
0.00891497
0.00873726
0.00844045
0.00805574
0.00759805
0.00708508
0.00653347
0.00595831
0.00537277
0.00478792
0.00421362
0.00365814
0.00312934
0.00263695
0.00219451
0.00182969
0.00165058
0.0103257
0.0103749
0.0105355
0.0106862
0.010745
0.0106676
0.0104596
0.0101011
0.00963188
0.0090742
0.00845245
0.00778819
0.00709956
0.0064013
0.00570529
0.00502217
0.00436093
0.00372973
0.00313875
0.00260433
0.00216474
0.00195388
0.0122249
0.0122938
0.0125044
0.0127053
0.0127908
0.0127029
0.0124422
0.011998
0.0114178
0.0107347
0.00998201
0.00918737
0.00837212
0.00755189
0.00673786
0.00593968
0.00516581
0.0044242
0.00372531
0.00308788
0.00256049
0.00230855
0.0144129
0.0145066
0.0147741
0.0150261
0.0151292
0.0150136
0.0146705
0.0141114
0.0133888
0.0125517
0.0116443
0.0107016
0.00974833
0.00880038
0.00786676
0.00695389
0.00606726
0.00521285
0.00440044
0.00365056
0.00302228
0.00271692
0.0168596
0.016985
0.0173165
0.0176181
0.017726
0.0175618
0.0171033
0.0163935
0.0154953
0.0144753
0.0133907
0.0122849
0.0111861
0.01011
0.00906224
0.00804407
0.00705475
0.00609473
0.00517028
0.00430158
0.0035578
0.00318156
0.0194953
0.0196582
0.0200574
0.0204035
0.020501
0.0202628
0.0196577
0.018762
0.0176575
0.0164304
0.0151522
0.0138746
0.0126294
0.0114318
0.0102837
0.00918002
0.00811134
0.00706755
0.00604505
0.00505859
0.00418483
0.00371525
0.0221925
0.0223958
0.0228547
0.0232345
0.0233082
0.0229669
0.0221979
0.0210897
0.0197573
0.0183097
0.016833
0.0153866
0.0140051
0.0127026
0.0114776
0.010319
0.00920923
0.00812316
0.00703673
0.00594932
0.00493667
0.00434354
0.0247599
0.0250009
0.0254975
0.0258954
0.0259447
0.0254891
0.024538
0.0232061
0.0216412
0.0199771
0.0183142
0.0167179
0.0152241
0.0138455
0.0125775
0.0114058
0.0103088
0.00924838
0.00817154
0.00704349
0.00589589
0.00511989
0.0269226
0.027196
0.0276922
0.0281
0.0281365
0.0276089
0.0264958
0.0249513
0.0231668
0.0213043
0.0194782
0.0177595
0.0161869
0.0147711
0.0135022
0.0123657
0.0113442
0.0103996
0.00948489
0.00854521
0.00751231
0.00676845
0.0282265
0.0285597
0.0290047
0.0294578
0.0295379
0.028951
0.0277006
0.0259883
0.0240461
0.0220585
0.0201464
0.0183784
0.0167881
0.0153835
0.0141583
0.0131041
0.0122149
0.0114888
0.0109325
0.0105063
0.0100135
0.010126
4.85339e-06
6.44263e-06
9.53379e-06
1.21367e-05
9.38222e-05
0.00846013
0.0208089
0.0268307
0.0297011
0.0307322
0.0306754
0.0300046
0.0289471
0.0277183
0.0264179
0.0251028
0.0238074
0.0225784
0.0214689
0.020505
0.0196834
0.0189887
0.0184099
0.0179523
0.0176301
0.0174453
0.0173739
0.0173684
0.0173816
0.0173829
0.0173676
0.0173518
0.0173504
0.0173758
0.0174548
0.0176273
0.0178862
0.018239
0.018703
0.0192185
0.0197094
0.02014
0.0204862
0.0207412
0.0209148
0.0210293
0.0211053
0.0211472
0.0211374
0.0210504
0.020904
0.0206791
0.0204314
0.0201419
0.0198217
0.0195028
0.0192143
0.0189832
0.0188316
0.0187637
0.0187512
0.0187435
0.0186953
0.018598
0.0184627
0.0182957
0.0181007
0.0178845
0.0176595
0.0174416
0.0172493
0.0171046
0.0170296
0.0170244
0.0170846
0.0172103
0.0174049
0.0176554
0.0179475
0.0182581
0.0185587
0.0188246
0.019043
0.0192195
0.01939
0.0195882
0.0198279
0.0201156
0.0204409
0.0207427
0.020917
0.0208788
0.0206743
0.0203114
0.0200084
0.0197934
0.0196558
0.0195861
0.0195235
0.0194007
0.0192362
0.0190049
0.0187013
0.0183398
0.0179537
0.0176279
0.017593
0.0180907
0.0202428
0.0232553
0.0267775
0.0279704
0.0288913
0.0297804
0.0300868
0.0295203
0.0281744
0.026341
0.0242961
0.0222399
0.0202933
0.0185211
0.0169543
0.0156017
0.0144473
0.0135145
0.0128043
0.0123715
0.0121604
0.0122076
0.0123485
0.013025
0.0143392
0.0146497
0.0152431
0.0163746
0.0180086
0.0198898
0.0218831
0.0236356
0.02493
0.0255642
0.0256402
0.0253081
0.0247031
0.0239441
0.02313
0.0223455
0.0216435
0.0210261
0.0204636
0.0199258
0.0193946
0.0188652
0.018355
0.0179024
0.017544
0.0172984
0.0171798
0.0171965
0.0173753
0.0176732
0.0179999
0.01827
0.0184137
0.0184047
0.0182759
0.0180316
0.0177635
0.0174978
0.017299
0.0172236
0.017307
0.0175017
0.017767
0.0180279
0.0182268
0.0183286
0.0183174
0.0182575
0.0181981
0.0181921
0.0182587
0.0184063
0.0186825
0.0190527
0.0194363
0.0197569
0.0199686
0.0200624
0.0200513
0.0199618
0.0198216
0.0196536
0.0194619
0.0192587
0.0190658
0.0188922
0.0187334
0.0185986
0.0184968
0.0184354
0.0184174
0.0184468
0.0185317
0.0186647
0.0188049
0.018974
0.0191802
0.019388
0.0195793
0.0197226
0.0197905
0.0197918
0.019749
0.0196844
0.0196114
0.0195573
0.019544
0.0195628
0.0195907
0.0196195
0.0196399
0.0196502
0.0196441
0.0196222
0.019608
0.019619
0.0196725
0.0197864
0.0199482
0.0201367
0.0203344
0.0205359
0.0207435
0.0209701
0.0212923
0.0219605
0.0234147
0.0257537
0.028231
0.0302618
1.11378e-05
1.09921e-05
1.5128e-05
2.37918e-05
9.59563e-05
0.00544513
0.0185677
0.0250911
0.0283722
0.0297061
0.0298727
0.0293709
0.0284047
0.0272783
0.0260472
0.0247782
0.0235148
0.0223102
0.0212213
0.0202742
0.0194614
0.0187672
0.0181848
0.0177223
0.0173955
0.0172058
0.0171229
0.0170995
0.0170944
0.0170752
0.0170408
0.017014
0.0170022
0.0170137
0.0170755
0.0172346
0.017478
0.0177875
0.0182319
0.0187306
0.0192218
0.0196578
0.0200135
0.0202767
0.0204523
0.0205636
0.0206354
0.0206798
0.0206891
0.0205954
0.0204428
0.0202399
0.0200192
0.0197318
0.0194192
0.0191093
0.0188267
0.0185967
0.0184403
0.0183629
0.0183412
0.0183278
0.0182799
0.0181897
0.0180703
0.0179265
0.0177537
0.017555
0.0173454
0.0171379
0.0169501
0.0167992
0.0167334
0.0167207
0.0167476
0.0168383
0.0170093
0.0172346
0.0175068
0.0178037
0.0180954
0.0183577
0.0185796
0.0187362
0.0188918
0.0190846
0.0193115
0.0195824
0.0199119
0.0202261
0.0204212
0.0203922
0.0201912
0.0198323
0.0195586
0.0193622
0.0192647
0.0192062
0.0191386
0.0190221
0.0188438
0.0186279
0.0183168
0.0179616
0.0175766
0.017234
0.0171328
0.0175474
0.0194186
0.0225124
0.0243739
0.0261444
0.0279287
0.0292747
0.0297326
0.0291506
0.0277399
0.0258622
0.0238043
0.0217651
0.0198602
0.0181491
0.0166599
0.0154036
0.0143774
0.0135776
0.0130188
0.0127225
0.012841
0.013094
0.0132055
0.013574
0.0144751
0.0147889
0.0151952
0.0160596
0.0174699
0.0191964
0.0211053
0.0228473
0.0241715
0.0248872
0.0250491
0.0248027
0.0242747
0.0235793
0.022815
0.0220635
0.0213788
0.0207711
0.0202142
0.0196794
0.0191497
0.0186213
0.0181138
0.0176657
0.0173096
0.0170583
0.0169174
0.0169099
0.0170302
0.0172801
0.0175762
0.0178418
0.0180099
0.0180154
0.0179035
0.0177059
0.017454
0.0171955
0.0169959
0.0169072
0.0169661
0.0171379
0.0173639
0.0176007
0.0177999
0.0179071
0.0179089
0.017861
0.0178034
0.0177868
0.0178417
0.0179719
0.0182089
0.018552
0.018937
0.0192683
0.0195008
0.019624
0.0196466
0.0195718
0.019446
0.0192829
0.0190935
0.018894
0.0187041
0.0185148
0.0183505
0.018211
0.0181053
0.0180413
0.0180211
0.018044
0.0181274
0.01825
0.0183837
0.0185347
0.0187291
0.0189225
0.0191212
0.0192878
0.0193728
0.0193871
0.0193588
0.0193027
0.01924
0.019199
0.0191939
0.0192153
0.0192496
0.0192836
0.0193087
0.0193259
0.0193218
0.0193018
0.0192836
0.0192818
0.0193019
0.0194018
0.0195455
0.0197154
0.0198978
0.0200905
0.020297
0.0205276
0.0208413
0.0214617
0.0228265
0.0251278
0.027644
0.0294736
9.02366e-06
9.30612e-06
9.58567e-06
1.05259e-05
1.16012e-05
0.00091304
0.011307
0.0194981
0.0240852
0.0263798
0.027237
0.0272084
0.0266639
0.0258195
0.0248144
0.0237145
0.0225746
0.0214584
0.0204298
0.0195176
0.0187155
0.0180188
0.0174272
0.0169512
0.0166064
0.0163928
0.0162777
0.0162147
0.0161703
0.0161155
0.0160508
0.015998
0.0159593
0.0159338
0.0159406
0.0160182
0.0161935
0.0164402
0.0167944
0.0172347
0.0176934
0.018123
0.0184902
0.0187699
0.0189556
0.0190675
0.0191361
0.0191807
0.0191946
0.0191477
0.0190431
0.0188827
0.0186977
0.0184699
0.0182058
0.0179328
0.0176753
0.0174547
0.0172911
0.0171938
0.0171495
0.0171217
0.0170743
0.0170005
0.0169126
0.0168095
0.0166774
0.0165132
0.0163311
0.0161427
0.0159598
0.015803
0.0156959
0.01565
0.0156416
0.015689
0.0157959
0.0159606
0.0161782
0.0164318
0.0166931
0.0169318
0.0171252
0.0172715
0.0174021
0.0175484
0.0177308
0.0179767
0.0183027
0.018659
0.0189279
0.0189752
0.0188204
0.018532
0.0182766
0.0181208
0.0180389
0.0179888
0.0179247
0.0178222
0.0176434
0.0174304
0.0171644
0.0168495
0.0164917
0.0161338
0.0159053
0.0160952
0.0171635
0.0199617
0.0226257
0.0249566
0.0269662
0.0282329
0.0285141
0.0278961
0.02647
0.024652
0.0226823
0.020745
0.0189499
0.0173551
0.0159868
0.0148569
0.0139603
0.0133028
0.0128728
0.0127132
0.0129172
0.0132436
0.0134012
0.0135417
0.0140647
0.0144187
0.014666
0.015125
0.0160451
0.0173331
0.0189682
0.0206213
0.0220042
0.0229312
0.023331
0.0233092
0.0229747
0.0224369
0.0217934
0.0211265
0.0204976
0.019927
0.0193961
0.0188796
0.0183625
0.0178438
0.017345
0.0168998
0.0165312
0.0162455
0.0160435
0.015939
0.0159492
0.0160829
0.0162981
0.016532
0.016711
0.0167876
0.0167586
0.0166332
0.0164439
0.0162267
0.0160338
0.0159132
0.0158968
0.0159902
0.016151
0.016351
0.0165343
0.016652
0.0166863
0.0166656
0.0166172
0.0165736
0.0165718
0.0166331
0.0167929
0.0170738
0.0174142
0.0177434
0.0180061
0.0181761
0.0182492
0.0182377
0.0181624
0.0180396
0.0178867
0.0177073
0.0175198
0.0173452
0.0171831
0.0170396
0.016925
0.0168488
0.0168115
0.0168104
0.0168494
0.0169245
0.0170246
0.0171424
0.0173017
0.0175009
0.0177
0.0178754
0.0180022
0.0180722
0.0180914
0.0180745
0.0180456
0.0180279
0.0180355
0.0180698
0.0181199
0.0181679
0.0181962
0.0182118
0.0182126
0.0181902
0.0181576
0.0181295
0.0181319
0.0181802
0.0182725
0.0183944
0.0185373
0.0187061
0.0189095
0.0191517
0.0194582
0.019978
0.0210754
0.0230631
0.025389
0.0268735
8.99791e-06
9.01662e-06
9.12571e-06
9.15926e-06
9.5196e-06
1.63683e-05
0.0012571
0.0102793
0.0167296
0.0206155
0.0226534
0.0234879
0.0235768
0.0232241
0.0225811
0.0217782
0.0208728
0.0199361
0.0190345
0.0182005
0.0174368
0.0167526
0.0161613
0.0156731
0.0152987
0.0150397
0.0148724
0.0147583
0.014667
0.0145778
0.0144858
0.014404
0.0143376
0.0142794
0.0142342
0.0142285
0.0142928
0.0144394
0.0146596
0.0149757
0.0153508
0.0157246
0.0160695
0.0163513
0.0165508
0.0166764
0.016755
0.0168132
0.0168586
0.0168707
0.0168344
0.0167526
0.0166427
0.0164898
0.0163058
0.0161007
0.0158972
0.0157134
0.0155642
0.0154601
0.0153984
0.0153572
0.0153098
0.0152478
0.0151805
0.0151068
0.0150074
0.0148741
0.0147174
0.0145488
0.0143763
0.0142162
0.014088
0.0140003
0.0139492
0.0139369
0.0139775
0.0140659
0.0142039
0.0143835
0.014587
0.0147884
0.0149619
0.0150972
0.0152071
0.0153126
0.0154374
0.0156268
0.0159245
0.0163153
0.0166846
0.016876
0.0168361
0.0166204
0.0163779
0.016197
0.0161106
0.0160508
0.0159894
0.0158995
0.0157752
0.0156076
0.0154049
0.0151647
0.0148839
0.0145806
0.0143334
0.0143951
0.0150343
0.0175118
0.020656
0.0233556
0.0253364
0.0264109
0.0265775
0.0259724
0.0246883
0.0230363
0.0212372
0.0194613
0.0178211
0.0163795
0.0151622
0.0141734
0.0133964
0.012887
0.0124844
0.0123943
0.0125981
0.0129749
0.0132086
0.0132491
0.0133996
0.0136542
0.0138463
0.0140116
0.0144189
0.0151648
0.0163114
0.0177136
0.0190746
0.0201314
0.0207751
0.0209908
0.0208812
0.0205417
0.0200617
0.01952
0.0189822
0.0184816
0.0180117
0.0175501
0.0170771
0.0165888
0.0161069
0.0156582
0.015261
0.0149235
0.014651
0.0144529
0.0143453
0.0143379
0.0144339
0.0145933
0.0147552
0.0148687
0.014912
0.0148791
0.0147843
0.0146494
0.0145107
0.014405
0.0143576
0.0143795
0.0144632
0.0145875
0.014724
0.0148301
0.0148825
0.0148816
0.0148402
0.0147762
0.0147169
0.0146994
0.0147532
0.0148977
0.0151344
0.0153993
0.015646
0.0158393
0.0159624
0.0160153
0.0160093
0.0159568
0.0158684
0.015751
0.0156276
0.0154908
0.0153581
0.0152286
0.0151123
0.0150213
0.0149604
0.0149266
0.0149201
0.0149419
0.0149899
0.0150647
0.015171
0.0153348
0.0155203
0.0157023
0.0158647
0.0159936
0.0160808
0.0161256
0.0161453
0.0161626
0.0161906
0.0162336
0.0162901
0.0163556
0.0163895
0.0164219
0.0164388
0.016432
0.0164035
0.0163671
0.0163409
0.016339
0.016375
0.0164398
0.0165292
0.0166516
0.0168214
0.0170448
0.0173244
0.0177242
0.0184681
0.0198831
0.0217337
0.0229673
9.00108e-06
9.00457e-06
9.01847e-06
9.04167e-06
9.10005e-06
9.30111e-06
1.40362e-05
0.00056883
0.00584008
0.0122725
0.0160898
0.0182197
0.0192519
0.0195846
0.0194764
0.0190977
0.0185207
0.0178495
0.0171557
0.0164776
0.0158223
0.0152036
0.0146489
0.0141739
0.0137849
0.013485
0.0132625
0.0130936
0.0129563
0.0128344
0.0127166
0.0126073
0.0125128
0.0124297
0.0123534
0.0122928
0.0122686
0.0123013
0.0124019
0.01257
0.012806
0.0130922
0.0133912
0.013648
0.0138515
0.013994
0.0140904
0.0141648
0.0142342
0.0142923
0.0143216
0.0143132
0.0142681
0.0141842
0.0140792
0.0139457
0.0138089
0.0136824
0.0135737
0.0134863
0.0134226
0.0133723
0.0133203
0.0132612
0.0132046
0.0131536
0.0130894
0.0129956
0.0128764
0.0127424
0.0125996
0.0124569
0.0123286
0.0122247
0.0121465
0.0120933
0.0120683
0.0120706
0.0121205
0.0122018
0.0123217
0.0124606
0.0125981
0.0127174
0.0128156
0.0129012
0.0129905
0.013126
0.0133687
0.0137379
0.0141491
0.0144534
0.0145456
0.0144456
0.0142191
0.0140138
0.0138856
0.0138178
0.0137521
0.0136899
0.0136327
0.0135343
0.0134108
0.0132623
0.0130908
0.0129164
0.0128107
0.0129144
0.0135268
0.0154906
0.0183169
0.0209154
0.0228732
0.0240283
0.0243674
0.0239857
0.0229476
0.0215147
0.0199086
0.01831
0.016845
0.0155812
0.0145359
0.0136963
0.013053
0.0125567
0.0122008
0.012058
0.0121397
0.0124032
0.0126399
0.0127155
0.0127494
0.0128403
0.0129346
0.013007
0.0131085
0.0133748
0.0139562
0.0148772
0.0160134
0.0170375
0.0177649
0.0181602
0.0182525
0.0181265
0.0178464
0.0174752
0.0170733
0.0166829
0.0163104
0.0159391
0.0155475
0.0151238
0.0146844
0.0142535
0.0138512
0.0134881
0.0131727
0.012911
0.0127149
0.0125945
0.0125494
0.0125736
0.0126535
0.0127316
0.0127892
0.0128105
0.0128007
0.0127806
0.012746
0.0127268
0.0127268
0.0127417
0.0127704
0.0128126
0.0128639
0.0129062
0.0129315
0.0129324
0.0129047
0.0128424
0.0127521
0.0126625
0.0126076
0.0126116
0.012683
0.0128209
0.0129858
0.0131468
0.0132819
0.0133785
0.0134381
0.0134652
0.0134612
0.0134286
0.0133726
0.0132983
0.0132152
0.0131237
0.0130204
0.0129224
0.0128417
0.0127816
0.0127428
0.012727
0.0127345
0.0127672
0.0128235
0.0129116
0.01306
0.0132166
0.0133768
0.0135344
0.0136764
0.0137863
0.013866
0.0139312
0.0139902
0.0140468
0.0141097
0.0141959
0.0142579
0.014328
0.0143963
0.0144439
0.0144669
0.0144634
0.0144472
0.0144343
0.0144293
0.0144423
0.0144758
0.0145345
0.0146348
0.0147891
0.014994
0.0152609
0.0156841
0.0164866
0.0177101
0.0186959
8.9999e-06
8.99892e-06
9.00144e-06
9.01037e-06
9.03668e-06
9.06516e-06
9.10536e-06
9.48359e-06
8.43922e-05
0.00158461
0.00734198
0.0110418
0.0134729
0.0148306
0.0154732
0.0156502
0.0155232
0.0152288
0.0148139
0.0143767
0.0139294
0.0134793
0.0130468
0.0126557
0.0123159
0.0120334
0.0118004
0.0116046
0.0114371
0.011289
0.0111479
0.0110093
0.0108794
0.0107619
0.0106552
0.0105593
0.0104824
0.0104401
0.0104502
0.0105248
0.0106626
0.0108476
0.0110574
0.0112764
0.0114688
0.0115973
0.0116875
0.0117555
0.0118181
0.0118794
0.0119307
0.0119597
0.0119592
0.0119274
0.0118605
0.011763