/*--------------------------------*- C++ -*----------------------------------*\
  =========                 |
  \\      /  F ield         | OpenFOAM: The Open Source CFD Toolbox
   \\    /   O peration     | Website:  https://openfoam.org
    \\  /    A nd           | Version:  7
     \\/     M anipulation  |
\*---------------------------------------------------------------------------*/
FoamFile
{
    version     2.0;
    format      ascii;
    class       volScalarField;
    location    "300";
    object      p;
}
// * * * * * * * * * * * * * * * * * * * * * * * * * * * * * * * * * * * * * //

dimensions      [0 2 -2 0 0 0 0];

internalField   nonuniform List<scalar> 
96800
(
52.6801
52.6801
52.6801
52.6801
52.6801
52.6802
52.6802
52.6802
52.6802
52.6802
52.6802
52.6802
52.6802
52.6802
52.6802
52.6802
52.6802
52.6802
52.6802
52.6802
52.6802
52.6802
52.6801
52.6801
52.6801
52.6801
52.6801
52.6802
52.6802
52.6802
52.6802
52.6802
52.6802
52.6802
52.6802
52.6802
52.6802
52.6802
52.6802
52.6802
52.6802
52.6802
52.6802
52.6802
52.6801
52.6801
52.6801
52.6801
52.6801
52.6801
52.6802
52.6802
52.6802
52.6802
52.6802
52.6802
52.6802
52.6802
52.6802
52.6802
52.6802
52.6802
52.6802
52.6802
52.6802
52.6802
52.68
52.6801
52.6801
52.6801
52.6801
52.6801
52.6801
52.6801
52.6802
52.6802
52.6802
52.6802
52.6802
52.6802
52.6802
52.6802
52.6802
52.6802
52.6803
52.6803
52.6803
52.6803
52.68
52.68
52.68
52.68
52.6801
52.6801
52.6801
52.6801
52.6801
52.6802
52.6802
52.6802
52.6802
52.6802
52.6802
52.6802
52.6802
52.6803
52.6803
52.6803
52.6803
52.6803
52.6799
52.6799
52.68
52.68
52.68
52.68
52.6801
52.6801
52.6801
52.6801
52.6802
52.6802
52.6802
52.6802
52.6802
52.6802
52.6803
52.6803
52.6803
52.6803
52.6803
52.6803
52.6799
52.6799
52.6799
52.6799
52.68
52.68
52.68
52.68
52.6801
52.6801
52.6801
52.6802
52.6802
52.6802
52.6802
52.6802
52.6803
52.6803
52.6803
52.6803
52.6803
52.6803
52.6798
52.6798
52.6798
52.6799
52.6799
52.6799
52.68
52.68
52.68
52.68
52.6801
52.6801
52.6802
52.6802
52.6802
52.6803
52.6803
52.6803
52.6803
52.6803
52.6803
52.6803
52.6797
52.6797
52.6798
52.6798
52.6798
52.6798
52.6799
52.6799
52.6799
52.68
52.68
52.6801
52.6801
52.6802
52.6802
52.6803
52.6803
52.6803
52.6803
52.6803
52.6803
52.6803
52.6797
52.6797
52.6797
52.6797
52.6797
52.6798
52.6798
52.6798
52.6799
52.6799
52.68
52.68
52.6801
52.6802
52.6802
52.6802
52.6803
52.6803
52.6803
52.6803
52.6803
52.6803
52.6795
52.6796
52.6796
52.6796
52.6796
52.6797
52.6797
52.6798
52.6798
52.6799
52.6799
52.68
52.6801
52.6801
52.6802
52.6802
52.6802
52.6803
52.6803
52.6803
52.6803
52.6803
52.6794
52.6794
52.6795
52.6795
52.6795
52.6796
52.6796
52.6797
52.6798
52.6798
52.6799
52.68
52.68
52.6801
52.6801
52.6802
52.6802
52.6802
52.6802
52.6803
52.6803
52.6803
52.6793
52.6793
52.6793
52.6794
52.6794
52.6794
52.6795
52.6796
52.6797
52.6798
52.6798
52.6799
52.68
52.68
52.6801
52.6801
52.6802
52.6802
52.6802
52.6803
52.6803
52.6803
52.6792
52.6792
52.6792
52.6792
52.6793
52.6793
52.6794
52.6795
52.6796
52.6797
52.6798
52.6798
52.6799
52.68
52.6801
52.6801
52.6802
52.6802
52.6802
52.6803
52.6803
52.6803
52.679
52.679
52.6791
52.6791
52.6791
52.6792
52.6793
52.6794
52.6795
52.6796
52.6797
52.6797
52.6798
52.6799
52.68
52.6801
52.6801
52.6802
52.6802
52.6803
52.6803
52.6803
52.6789
52.6789
52.6789
52.6789
52.679
52.679
52.6791
52.6792
52.6793
52.6794
52.6795
52.6796
52.6798
52.6799
52.68
52.68
52.6801
52.6802
52.6802
52.6803
52.6803
52.6803
52.6787
52.6787
52.6787
52.6788
52.6788
52.6789
52.679
52.6791
52.6792
52.6793
52.6794
52.6795
52.6797
52.6798
52.6799
52.68
52.6801
52.6802
52.6802
52.6803
52.6803
52.6803
52.6784
52.6784
52.6785
52.6785
52.6786
52.6787
52.6788
52.6789
52.679
52.6792
52.6793
52.6794
52.6796
52.6797
52.6799
52.68
52.6801
52.6802
52.6803
52.6803
52.6803
52.6804
52.6781
52.6781
52.6782
52.6782
52.6783
52.6784
52.6786
52.6787
52.6788
52.679
52.6792
52.6793
52.6795
52.6796
52.6798
52.6799
52.6801
52.6802
52.6803
52.6804
52.6804
52.6804
52.6778
52.6778
52.6779
52.6779
52.678
52.6782
52.6783
52.6785
52.6786
52.6788
52.679
52.6792
52.6794
52.6796
52.6797
52.6799
52.6801
52.6802
52.6803
52.6804
52.6805
52.6805
52.6774
52.6775
52.6775
52.6776
52.6777
52.6779
52.678
52.6782
52.6784
52.6786
52.6788
52.679
52.6793
52.6795
52.6797
52.6799
52.6801
52.6803
52.6804
52.6805
52.6806
52.6806
52.677
52.677
52.6771
52.6772
52.6774
52.6775
52.6777
52.6779
52.6782
52.6784
52.6786
52.6789
52.6791
52.6794
52.6797
52.6799
52.6801
52.6803
52.6805
52.6806
52.6807
52.6807
52.6766
52.6766
52.6767
52.6768
52.6769
52.6771
52.6774
52.6776
52.6779
52.6781
52.6784
52.6787
52.6791
52.6794
52.6796
52.6799
52.6802
52.6804
52.6806
52.6808
52.6809
52.6809
52.6761
52.6761
52.6762
52.6763
52.6765
52.6767
52.677
52.6773
52.6776
52.6779
52.6782
52.6786
52.6789
52.6793
52.6796
52.68
52.6803
52.6806
52.6808
52.681
52.6811
52.6811
52.6755
52.6755
52.6756
52.6758
52.676
52.6763
52.6766
52.6769
52.6772
52.6776
52.678
52.6784
52.6788
52.6792
52.6796
52.68
52.6804
52.6807
52.681
52.6812
52.6813
52.6814
52.6749
52.675
52.6751
52.6752
52.6755
52.6758
52.6761
52.6765
52.6769
52.6773
52.6778
52.6783
52.6787
52.6792
52.6797
52.6801
52.6805
52.6809
52.6812
52.6814
52.6816
52.6817
52.6743
52.6743
52.6745
52.6747
52.6749
52.6753
52.6756
52.6761
52.6765
52.677
52.6776
52.6781
52.6787
52.6792
52.6797
52.6802
52.6807
52.6811
52.6815
52.6818
52.682
52.6821
52.6736
52.6736
52.6738
52.674
52.6743
52.6747
52.6751
52.6756
52.6761
52.6767
52.6773
52.678
52.6786
52.6792
52.6798
52.6804
52.681
52.6814
52.6819
52.6822
52.6824
52.6825
52.6728
52.6729
52.673
52.6733
52.6737
52.6741
52.6746
52.6752
52.6758
52.6764
52.6771
52.6778
52.6786
52.6793
52.68
52.6807
52.6813
52.6818
52.6823
52.6827
52.6829
52.683
52.6719
52.672
52.6722
52.6725
52.6729
52.6734
52.674
52.6747
52.6754
52.6761
52.6769
52.6777
52.6786
52.6794
52.6802
52.681
52.6817
52.6823
52.6828
52.6833
52.6836
52.6837
52.6708
52.6708
52.6711
52.6715
52.672
52.6726
52.6733
52.6741
52.6749
52.6758
52.6767
52.6777
52.6786
52.6796
52.6805
52.6814
52.6822
52.6829
52.6835
52.684
52.6843
52.6845
52.6693
52.6694
52.6697
52.6702
52.6708
52.6716
52.6724
52.6733
52.6744
52.6754
52.6765
52.6776
52.6787
52.6798
52.6809
52.6819
52.6828
52.6836
52.6843
52.6849
52.6852
52.6855
52.6675
52.6676
52.668
52.6685
52.6693
52.6702
52.6713
52.6724
52.6736
52.6749
52.6762
52.6775
52.6788
52.6801
52.6813
52.6825
52.6835
52.6845
52.6853
52.6859
52.6864
52.6866
52.6651
52.6652
52.6657
52.6664
52.6673
52.6685
52.6698
52.6712
52.6727
52.6742
52.6758
52.6774
52.6789
52.6804
52.6818
52.6832
52.6844
52.6855
52.6864
52.6872
52.6877
52.688
52.6621
52.6622
52.6628
52.6636
52.6648
52.6662
52.6678
52.6696
52.6714
52.6733
52.6752
52.6772
52.679
52.6808
52.6825
52.684
52.6855
52.6867
52.6878
52.6887
52.6893
52.6896
52.6581
52.6583
52.659
52.6601
52.6615
52.6633
52.6652
52.6674
52.6697
52.6721
52.6744
52.6767
52.679
52.6812
52.6832
52.685
52.6867
52.6882
52.6895
52.6905
52.6912
52.6916
52.653
52.6532
52.6541
52.6555
52.6573
52.6595
52.6619
52.6646
52.6675
52.6704
52.6733
52.6761
52.6789
52.6815
52.6839
52.6862
52.6882
52.69
52.6915
52.6927
52.6935
52.694
52.6463
52.6466
52.6477
52.6495
52.6518
52.6545
52.6576
52.661
52.6645
52.6681
52.6717
52.6753
52.6786
52.6818
52.6848
52.6875
52.69
52.6921
52.6939
52.6953
52.6963
52.6969
52.6375
52.6378
52.6393
52.6416
52.6445
52.648
52.6519
52.6562
52.6606
52.6652
52.6697
52.674
52.6782
52.6822
52.6858
52.6891
52.692
52.6946
52.6967
52.6985
52.6997
52.7004
52.6259
52.6264
52.6283
52.6312
52.635
52.6394
52.6444
52.6498
52.6555
52.6612
52.6668
52.6723
52.6775
52.6824
52.6869
52.691
52.6945
52.6976
52.7002
52.7023
52.7038
52.7046
52.6107
52.6112
52.6137
52.6175
52.6224
52.6281
52.6345
52.6414
52.6486
52.6559
52.663
52.67
52.6765
52.6826
52.6882
52.6932
52.6976
52.7013
52.7045
52.707
52.7089
52.7098
52.5905
52.5911
52.5944
52.5993
52.6057
52.6131
52.6214
52.6303
52.6395
52.6487
52.6579
52.6667
52.675
52.6826
52.6896
52.6958
52.7013
52.7059
52.7097
52.7128
52.715
52.7162
52.5637
52.5645
52.5687
52.5752
52.5835
52.5932
52.604
52.6155
52.6273
52.6392
52.6509
52.6621
52.6727
52.6824
52.6912
52.699
52.7057
52.7115
52.7162
52.7199
52.7226
52.724
52.5283
52.5292
52.5347
52.5432
52.554
52.5667
52.5808
52.5957
52.6111
52.6264
52.6415
52.6559
52.6694
52.6818
52.693
52.7028
52.7112
52.7183
52.7241
52.7287
52.732
52.7336
52.4817
52.4827
52.4899
52.501
52.5152
52.5318
52.5501
52.5695
52.5894
52.6094
52.6288
52.6474
52.6648
52.6806
52.6948
52.7072
52.7178
52.7267
52.7338
52.7394
52.7434
52.7454
52.4206
52.4217
52.4311
52.4456
52.4642
52.4859
52.5098
52.535
52.5609
52.5867
52.6119
52.6358
52.6581
52.6784
52.6964
52.7122
52.7256
52.7367
52.7456
52.7525
52.7574
52.7599
52.3407
52.342
52.354
52.373
52.3975
52.426
52.4573
52.4902
52.5237
52.557
52.5894
52.6202
52.6486
52.6745
52.6975
52.7176
52.7346
52.7487
52.7599
52.7684
52.7745
52.7775
52.2366
52.2379
52.2534
52.2783
52.3105
52.348
52.389
52.4319
52.4755
52.5185
52.5601
52.5993
52.6355
52.6683
52.6976
52.7231
52.7447
52.7625
52.7767
52.7875
52.795
52.7987
52.1017
52.1027
52.1226
52.1552
52.1977
52.2471
52.3006
52.3565
52.413
52.4685
52.5217
52.5715
52.6174
52.659
52.6959
52.7282
52.7556
52.7782
52.7962
52.8099
52.8194
52.824
51.9273
51.9275
51.9531
51.9958
52.0519
52.1169
52.187
52.2597
52.3326
52.4037
52.4714
52.5347
52.5926
52.6449
52.6914
52.7319
52.7665
52.7953
52.8183
52.8357
52.8479
52.8537
51.7022
51.7011
51.7338
51.7895
51.8633
51.9488
52.0405
52.135
52.2291
52.3201
52.4061
52.4858
52.5585
52.6239
52.682
52.7327
52.7762
52.8127
52.842
52.8645
52.8801
52.8876
51.4119
51.4087
51.4503
51.5227
51.6196
51.7319
51.852
51.9749
52.0961
52.2124
52.3212
52.4211
52.5117
52.5929
52.6649
52.7281
52.7825
52.8285
52.8659
52.8948
52.9152
52.9248
51.0365
51.0304
51.0832
51.177
51.3045
51.4528
51.6107
51.7704
51.9263
52.0741
52.2112
52.3358
52.4477
52.5477
52.6363
52.7143
52.782
52.8395
52.8869
52.9241
52.9507
52.9634
50.5483
50.5396
50.607
50.7294
50.8982
51.095
51.3031
51.5106
51.7105
51.8975
52.0687
52.2228
52.3602
52.4822
52.5904
52.686
52.7694
52.8408
52.9004
52.9479
52.9825
52.9993
49.9101
49.9006
49.9881
50.15
50.3755
50.6376
50.9117
51.1811
51.4367
51.6722
51.8845
52.073
52.24
52.3877
52.5185
52.6342
52.736
52.8243
52.8988
52.9591
53.0037
53.0266
49.0722
49.066
49.1824
49.4
49.7034
50.0532
50.4145
50.7642
51.0903
51.3855
51.6469
51.8758
52.076
52.252
52.4076
52.5457
52.6686
52.777
52.8702
52.9463
52.9989
53.0336
47.9664
47.972
48.1314
48.428
48.8387
49.3068
49.784
50.2385
50.6542
51.0228
51.3428
51.618
51.8549
52.0605
52.2415
52.4028
52.5483
52.6796
52.7957
52.8935
52.9674
53.0017
46.4988
46.5333
46.7566
47.1668
47.7266
48.356
48.9885
49.5801
50.1096
50.5681
50.9573
51.2843
51.5598
51.7946
51.9993
52.1823
52.3498
52.5051
52.6472
52.7713
52.8674
52.9093
44.5497
44.6273
44.9555
45.5322
46.3017
47.1537
47.9954
48.7658
49.438
50.0048
50.4727
50.8556
51.1693
51.4303
51.6542
51.854
52.0396
52.2168
52.3856
52.5393
52.6622
52.7142
41.9383
42.1086
42.6012
43.4246
44.4906
45.6507
46.7724
47.7737
48.6218
49.315
49.8692
50.3082
50.6567
50.9379
51.173
51.3806
51.5755
51.7675
51.9589
52.1415
52.2926
52.3552
38.4375
38.787
39.5454
40.7377
42.2176
43.8008
45.2945
46.5888
47.6477
48.4825
49.1259
49.6168
49.9918
50.2827
50.5166
50.7174
50.9058
51.0987
51.3027
51.5053
51.6758
51.7419
33.7217
34.4538
35.6464
37.3863
39.4122
41.5664
43.5489
45.2049
46.5064
47.4914
48.2199
48.7522
49.1398
49.4234
49.6355
49.8045
49.9587
50.1277
50.3309
50.5359
50.6942
50.7343
27.4141
28.9241
30.8467
33.4513
36.035
38.9368
41.5484
43.632
45.1939
46.3238
47.1237
47.6811
48.0625
48.3155
48.4742
48.5675
48.6309
48.7232
48.9285
49.1185
49.1757
49.0719
20.0978
22.2999
25.1724
28.4383
32.0164
35.9544
39.3534
41.9031
43.7122
44.9606
45.8067
46.3678
46.7221
46.9174
46.9805
46.9269
46.7807
46.6399
46.9596
47.1807
46.8876
46.0793
-6.79178
-7.11553
6.65461
18.9729
26.7988
32.7891
37.113
40.0799
42.0671
43.3808
44.2382
44.7795
45.0868
45.1993
45.1231
44.831
44.2463
43.1525
40.7525
37.2978
33.6288
32.5019
-28.6665
-32.7592
3.12833
14.7818
23.5033
30.405
35.1432
38.2528
40.2658
41.5646
42.392
42.8921
43.1397
43.158
42.9229
42.357
41.2911
39.3764
35.8931
29.7219
18.7133
4.04758
0.148003
45.9164
40.6099
39.6184
39.4583
36.563
33.3051
30.6535
29.299
29.2782
29.4927
29.737
29.9224
29.9383
29.8059
29.6741
29.3541
29.0082
28.6151
28.5408
28.3986
28.3089
28.2085
28.1071
27.9966
27.9054
27.8051
27.6292
27.3735
27.1227
26.8116
26.7321
26.6908
26.7143
26.7723
26.839
26.8715
26.8049
26.7727
26.742
26.7187
26.7201
26.7363
26.7661
26.7325
26.7673
26.8259
26.8902
26.8745
26.8559
26.7681
26.612
26.3595
26.1312
25.8686
25.613
25.379
25.149
24.9126
24.6972
24.3891
24.0056
23.6628
23.3128
23.1644
23.2639
23.2297
23.2917
23.2918
23.2787
23.2736
23.3027
23.3784
23.4034
23.4193
23.3928
23.3858
23.4122
23.4955
23.6117
23.7359
23.8533
23.964
24.098
24.254
24.4285
24.5571
24.5775
24.4438
24.1874
23.8405
23.1993
22.5432
22.0065
21.899
22.1434
22.4327
22.6277
22.7279
22.789
22.7219
22.8314
22.9057
23.1008
23.2962
23.4437
23.5549
22.445
20.5338
12.1471
-150.408
2.95297
2.57845
15.2492
22.7881
29.1478
33.5417
36.4145
38.2746
39.481
40.2497
40.7038
40.8983
40.8334
40.4576
39.6423
38.1299
35.4207
30.3054
20.1346
-3.2588
-63.6626
-280.297
-111.519
-30.5121
-21.8006
-14.8474
-9.15226
-4.68218
-1.37086
0.991793
2.9424
4.39522
6.00425
7.44354
8.70799
9.77982
10.4162
10.8636
11.1966
11.3124
11.2857
11.1881
11.2211
11.3244
11.6388
11.9706
12.3908
12.7501
13.0063
13.116
13.0674
12.9819
12.8506
12.7151
12.5887
12.4816
12.3472
12.3317
12.295
12.2468
12.0617
11.8071
11.5412
11.1816
10.7828
10.4303
10.0951
10.0684
10.1057
10.1723
10.1918
10.1177
10.0354
9.98263
9.90799
9.91208
9.92421
9.92381
9.97217
10.0406
10.0583
10.0182
9.95796
9.8682
9.73138
9.46699
9.23959
8.99409
8.77039
8.58626
8.47513
8.41407
8.35949
8.40697
8.48597
8.56649
8.63749
8.71047
8.59527
8.51293
8.37576
8.1414
7.94621
7.70641
7.63703
7.59862
7.53588
7.50101
7.49894
7.48561
7.53966
7.69992
7.94112
8.22219
8.53604
8.83588
9.16184
9.52961
9.94441
10.3714
10.9123
11.5125
12.2361
13.1232
14.152
15.3388
16.7809
18.3899
19.0705
14.1662
-2.5566
28.9311
36.5232
38.2159
39.4191
41.5073
41.0599
33.5568
30.4021
29.2645
29.1406
29.364
29.6007
29.7829
29.8047
29.6751
29.3907
29.0308
28.7115
28.4691
28.3643
28.2916
28.2042
28.0984
28.0218
27.9759
27.935
27.8313
27.6253
27.3495
27.066
26.8369
26.7465
26.7366
26.7657
26.8091
26.8599
26.8989
26.9023
26.8578
26.8086
26.7844
26.7763
26.7848
26.7934
26.7921
26.8153
26.876
26.9402
26.9524
26.8971
26.7705
26.588
26.3514
26.0821
25.8141
25.5735
25.3601
25.151
24.9142
24.6233
24.2557
23.8512
23.4952
23.2342
23.1503
23.1808
23.2112
23.223
23.2189
23.2182
23.2333
23.2854
23.3575
23.4115
23.4358
23.426
23.4269
23.4609
23.5493
23.6738
23.802
23.9151
24.0218
24.1516
24.3148
24.4831
24.6214
24.6851
24.6051
24.2961
23.7121
22.9269
22.2098
21.7949
21.7922
22.0755
22.4105
22.6489
22.7626
22.7729
22.7785
22.8561
22.9923
23.2331
23.4805
23.8187
24.2447
25.5772
26.0169
33.748
-48.2467
-2.98684
7.31618
17.6894
23.4874
28.6063
32.1256
34.4917
36.0867
37.1634
37.8666
38.286
38.4541
38.3357
37.8611
36.8825
35.1354
32.0614
26.5918
16.2798
-4.67977
-43.54
-106.345
-75.3271
-39.7356
-19.3993
-12.7329
-7.27771
-3.28903
-0.52767
1.46709
3.11276
4.6297
6.19748
7.64968
8.86649
9.79463
10.4326
10.8395
11.0555
11.109
11.0907
11.0661
11.0998
11.2562
11.5833
12.0173
12.4759
12.8434
13.0805
13.1859
13.1662
13.0583
12.8963
12.7176
12.5581
12.4353
12.3597
12.3215
12.2992
12.241
12.1004
11.8617
11.5318
11.1272
10.7078
10.345
10.1027
10.0462
10.1035
10.1685
10.182
10.1298
10.0646
10.0127
9.97915
9.95831
9.94209
9.94369
9.9812
10.0289
10.0514
10.0323
9.97341
9.87305
9.71032
9.48135
9.22128
8.95983
8.7271
8.54769
8.436
8.38157
8.37428
8.4316
8.52474
8.62437
8.70911
8.75208
8.6954
8.54128
8.32765
8.09331
7.88671
7.71499
7.61585
7.56208
7.51487
7.48478
7.4725
7.48006
7.54476
7.70017
7.93986
8.21859
8.50824
8.80577
9.13371
9.50343
9.91869
10.3738
10.8755
11.4421
12.1129
12.9039
13.8068
14.7712
16.3674
18.5059
22.4548
23.5538
41.7581
33.7572
35.3636
36.805
37.6552
38.6468
37.947
32.3455
29.6075
28.9774
29.0437
29.3186
29.5657
29.7286
29.7369
29.541
29.1675
28.7229
28.3648
28.1707
28.1038
28.0737
28.0088
27.9089
27.8926
27.9202
27.951
27.8777
27.6604
27.3402
27.0135
26.7887
26.7076
26.7094
26.7453
26.8013
26.8811
26.9531
26.9887
26.9706
26.9296
26.897
26.8884
26.8943
26.8893
26.8773
26.8926
26.9644
27.0306
27.0404
26.9415
26.7653
26.5516
26.2921
25.9919
25.7084
25.4809
25.297
25.119
24.9027
24.6051
24.2059
23.7462
23.3337
23.087
23.0426
23.1081
23.15
23.1658
23.1666
23.1609
23.1829
23.252
23.3501
23.4249
23.4582
23.458
23.467
23.5154
23.6242
23.7677
23.902
24.0026
24.0844
24.1935
24.365
24.5644
24.759
24.9153
24.8953
24.545
23.7864
22.7526
21.8061
21.3503
21.4737
21.9388
22.4249
22.7391
22.8609
22.8195
22.7867
22.8217
22.9347
23.156
23.3359
23.4667
23.899
24.1006
23.4853
24.1659
-5.21829
14.4794
17.6807
22.0032
25.0714
28.3295
30.7451
32.5265
33.8349
34.7845
35.4432
35.8238
35.9967
35.8452
35.3217
34.2759
32.4565
29.4292
24.498
16.4519
-0.360591
-21.6586
-44.2879
-42.03
-28.6547
-16.9577
-9.78267
-4.4586
-1.07219
1.06158
2.47926
3.68705
5.01404
6.43997
7.81107
8.98699
9.88815
10.5135
10.9007
11.076
11.0726
10.9723
10.8783
10.8798
11.0472
11.4148
11.9227
12.4546
12.8875
13.1672
13.2958
13.2784
13.1542
12.953
12.7242
12.533
12.4092
12.3449
12.3127
12.2963
12.2715
12.1393
11.9064
11.5543
11.1157
10.6452
10.2521
10.0242
9.98343
10.0699
10.1671
10.1994
10.1418
10.0764
10.0388
10.0278
10.0195
10.0046
10.0047
10.0335
10.0764
10.105
10.0935
10.0265
9.89941
9.70375
9.44593
9.15432
8.86671
8.61846
8.4415
8.34887
8.32705
8.3654
8.45999
8.58071
8.69766
8.79554
8.84238
8.78733
8.61392
8.35658
8.08654
7.86295
7.68875
7.57494
7.5136
7.46887
7.44925
7.44302
7.46157
7.52547
7.66654
7.89205
8.16254
8.4394
8.72918
9.05299
9.41996
9.82733
10.2634
10.7263
11.2435
11.8585
12.5829
13.3864
14.191
15.5636
17.6421
21.1282
26.3502
35.0794
34.4953
34.9131
35.6605
35.9779
35.8607
34.6461
31.2911
28.6626
28.9965
29.3001
29.6047
29.8212
29.9225
29.8437
29.5412
29.081
28.5707
28.1943
27.9932
27.9046
27.8452
27.8097
27.7332
27.7786
27.8811
27.9787
27.899
27.6877
27.3555
27.0093
26.7757
26.6858
26.6858
26.7118
26.76
26.8459
26.9435
27.0093
27.0327
27.0205
27.0053
27.0058
27.0128
27.0015
26.9753
26.9791
27.0462
27.1106
27.1077
26.9716
26.7417
26.4861
26.2094
25.9008
25.612
25.3944
25.2324
25.0682
24.8472
24.5289
24.1018
23.617
23.1973
22.9771
22.9616
23.0409
23.1146
23.1265
23.1327
23.1374
23.1631
23.2342
23.3366
23.422
23.4637
23.4761
23.501
23.5717
23.7004
23.8554
23.9901
24.0793
24.143
24.2248
24.3948
24.6063
24.8407
25.0882
25.0899
24.6836
23.7682
22.5207
21.3671
20.8606
21.0976
21.7636
22.4368
22.8578
22.9824
22.927
22.8684
22.8717
22.964
23.1556
23.3306
23.4225
23.548
23.2991
22.5973
21.8542
11.7761
19.5533
22.9952
24.518
26.0564
27.8695
29.4477
30.7543
31.8067
32.6249
33.226
33.613
33.7218
33.5724
33.0258
31.9699
30.1864
27.4027
23.1615
16.8176
5.78767
-6.81021
-20.062
-22.9375
-17.7724
-11.0087
-5.64803
-1.82614
0.984392
2.58835
3.61996
4.5194
5.69955
6.97769
8.21096
9.28453
10.1051
10.6811
11.0384
11.186
11.1421
10.9546
10.7692
10.7289
10.9047
11.3048
11.8403
12.3997
12.8449
13.1421
13.289
13.3008
13.1888
12.9869
12.751
12.5765
12.4685
12.4113
12.3679
12.3225
12.2462
12.1065
11.8495
11.4832
11.0492
10.5708
10.2112
10.0045
9.96838
10.055
10.1585
10.1593
10.0952
10.0281
10.0088
10.0324
10.0636
10.083
10.1009
10.1333
10.1819
10.2193
10.2009
10.1103
9.93776
9.69
9.39056
9.07061
8.76316
8.50155
8.32633
8.25821
8.28138
8.36731
8.49342
8.63055
8.75114
8.8402
8.87472
8.81474
8.65176
8.41662
8.15623
7.92003
7.70904
7.5519
7.46013
7.42233
7.41651
7.43311
7.46893
7.53328
7.64498
7.83163
8.06948
8.31436
8.587
8.89712
9.24307
9.6153
9.99997
10.3968
10.834
11.351
11.9515
12.5945
13.2406
13.9827
14.9087
16.2914
17.7175
22.0196
34.2965
34.4156
34.645
34.6358
34.2286
33.1643
31.2719
29.5678
29.4505
29.7675
30.0662
30.2237
30.2421
30.0627
29.67
29.1655
28.6154
28.2557
28.0004
27.8175
27.6568
27.554
27.5674
27.6794
27.831
27.9378
27.8927
27.6964
27.3969
27.0607
26.838
26.7368
26.719
26.7209
26.7408
26.7947
26.8783
26.9599
27.0185
27.0501
27.0634
27.0763
27.0877
27.0689
27.0437
27.0396
27.09
27.1293
27.1015
26.9438
26.6807
26.3918
26.104
25.8054
25.5279
25.3229
25.1741
25.0088
24.765
24.4177
23.9736
23.4929
23.1016
22.9129
22.9521
23.0366
23.0887
23.1044
23.1073
23.1197
23.1571
23.2298
23.3276
23.411
23.4605
23.4938
23.5466
23.6414
23.7759
23.9193
24.0403
24.121
24.1743
24.2648
24.407
24.6092
24.8767
25.0759
25.1076
24.6624
23.6628
22.3144
20.9292
20.3796
20.6938
21.5277
22.4037
22.968
23.1446
23.0949
22.9984
22.9623
23.0583
23.2464
23.4684
23.7283
24.0238
24.0121
23.4912
22.3065
18.5662
23.447
24.4565
25.2771
26.2438
27.3597
28.4358
29.4063
30.2421
30.9306
31.4574
31.7929
31.886
31.6839
31.0983
30.0272
28.3217
25.8141
22.2474
17.3002
10.6308
3.60278
-0.77925
-3.97815
-4.97102
-3.92557
-1.32353
1.09142
2.82479
3.79381
4.66037
5.53255
6.59149
7.72485
8.79396
9.70235
10.4075
10.909
11.2276
11.3546
11.2755
11.0802
10.7761
10.7268
10.8964
11.2853
11.7681
12.3068
12.6993
12.9989
13.1728
13.23
13.1739
13.0294
12.862
12.6932
12.5968
12.5417
12.4721
12.3734
12.235
12.0298
11.7316
11.3578
10.9711
10.5733
10.261
10.0833
10.0445
10.0877
10.1362
10.0939
9.99687
9.93275
9.93197
9.98717
10.0667
10.1297
10.1811
10.2369
10.2979
10.3525
10.2946
10.1716
9.95572
9.66208
9.33412
9.00178
8.69077
8.42379
8.25395
8.20256
8.26564
8.38819
8.5306
8.66393
8.76677
8.83086
8.84514
8.78953
8.65577
8.46573
8.25237
8.03592
7.79976
7.58404
7.44129
7.38537
7.39472
7.43606
7.48929
7.55333
7.61918
7.76067
7.93976
8.15308
8.39524
8.67515
8.98209
9.30026
9.6136
9.9254
10.2613
10.6513
11.0899
11.5217
11.8813
12.1531
12.3233
12.2022
11.7362
13.1332
33.8132
33.8257
33.8324
33.6749
33.2468
32.4625
31.3883
30.3955
29.9437
30.1172
30.4228
30.5416
30.5087
30.2692
29.8539
29.3466
28.897
28.5182
28.1753
27.8676
27.5783
27.4027
27.4007
27.5525
27.7019
27.8492
27.8147
27.6614
27.4391
27.1645
26.9794
26.8603
26.8172
26.7961
26.7829
26.79
26.8285
26.8902
26.9553
27.0051
27.037
27.0554
27.0656
27.0553
27.036
27.0316
27.0415
27.0495
27.0011
26.8427
26.5794
26.2789
25.9866
25.7026
25.4469
25.2557
25.1123
24.9426
24.6802
24.3122
23.869
23.4125
23.0773
22.9525
23.0066
23.092
23.1146
23.092
23.0711
23.0927
23.1389
23.2171
23.3139
23.3968
23.4557
23.5105
23.5894
23.7017
23.8323
23.9514
24.0465
24.1174
24.1773
24.2621
24.4058
24.555
24.7955
24.9664
24.9541
24.508
23.516
22.1382
20.7074
20.0503
20.4157
21.2834
22.2694
23.0076
23.2327
23.1789
23.0986
23.0242
23.1226
23.3087
23.59
23.9194
24.228
24.4318
23.979
22.8749
21.6641
23.9562
24.7583
25.4239
26.1995
26.9826
27.7425
28.461
29.1082
29.6727
30.1165
30.3855
30.4214
30.1533
29.5091
28.4052
26.7656
24.5058
21.5271
17.7602
13.2816
8.71945
5.07939
2.47104
1.32687
1.43177
2.46051
3.64803
4.56382
5.13719
5.78697
6.53303
7.51752
8.54621
9.46654
10.2076
10.7633
11.1595
11.4207
11.5332
11.4757
11.2991
11.0858
10.9306
11.0415
11.3431
11.7288
12.1395
12.5036
12.7994
13.0101
13.1359
13.1559
13.0808
12.9569
12.8255
12.723
12.6615
12.5605
12.4116
12.2067
11.937
11.604
11.2412
10.8958
10.5868
10.3501
10.2081
10.1575
10.1345
10.144
10.0383
9.90344
9.81103
9.82163
9.8944
10.0136
10.1189
10.1984
10.2819
10.3588
10.3893
10.39
10.2243
9.94834
9.62445
9.2865
8.96861
8.69316
8.43374
8.25767
8.20249
8.28225
8.42127
8.56047
8.67837
8.75398
8.7916
8.79307
8.74733
8.65254
8.51262
8.34981
8.16786
7.94133
7.69304
7.50059
7.41124
7.38846
7.42312
7.48126
7.52065
7.57077
7.66
7.79479
7.97117
8.17805
8.41143
8.66247
8.91519
9.15295
9.37888
9.6133
9.87611
10.1553
10.387
10.483
10.3833
10.0446
9.36857
8.43083
6.50718
33.2795
33.2588
33.1787
32.977
32.602
32.0405
31.3619
30.7433
30.3774
30.2934
30.3745
30.5594
30.5937
30.3391
30.0029
29.4831
29.2136
28.8743
28.504
28.0948
27.7129
27.4494
27.3434
27.4529
27.5665
27.6673
27.6753
27.6123
27.5038
27.3284
27.1731
27.0559
26.9751
26.92
26.875
26.8417
26.8315
26.85
26.8882
26.9223
26.947
26.9585
26.968
26.9552
26.9366
26.9147
26.9084
26.8833
26.8195
26.6789
26.4502
26.1749
25.8907
25.6143
25.3692
25.1793
25.0329
24.8685
24.62
24.2642
23.8486
23.4287
23.1477
23.0641
23.1168
23.1833
23.1846
23.1438
23.0971
23.0989
23.1402
23.2129
23.3017
23.3815
23.4469
23.5161
23.609
23.7266
23.85
23.9433
24.0143
24.0758
24.1429
24.232
24.3558
24.4973
24.6429
24.7345
24.6568
24.2188
23.311
22.1137
21.0025
20.2983
20.4897
21.341
22.351
22.9644
23.1905
23.2064
23.1529
23.1423
23.1768
23.2765
23.5638
23.8634
24.1707
24.3188
23.7367
23.4425
23.4759
24.5804
25.3154
25.8248
26.2999
26.765
27.2252
27.7044
28.1704
28.623
28.9947
29.1936
29.1641
28.8269
28.1155
26.9794
25.3928
23.3392
20.8206
17.8904
14.6931
11.5504
8.87539
6.88062
5.70901
5.28575
5.42777
5.79307
6.14024
6.41375
6.80569
7.4643
8.37178
9.3108
10.1142
10.7172
11.132
11.4083
11.588
11.6699
11.6332
11.4954
11.3258
11.2028
11.2867
11.4611
11.7218
12.0086
12.3091
12.6156
12.8386
13.0475
13.1454
13.1288
13.045
12.9284
12.818
12.708
12.5775
12.3989
12.1573
11.8524
11.5084
11.1753
10.8776
10.6276
10.4356
10.3075
10.2343
10.2019
10.1337
10.0198
9.87053
9.74621
9.72339
9.78961
9.90854
10.063
10.1541
10.265
10.3672
10.4339
10.3841
10.2088
9.90882
9.58144
9.23872
8.98205
8.76619
8.54965
8.36533
8.28433
8.33304
8.45735
8.56912
8.6741
8.72818
8.75126
8.75702
8.72603
8.65727
8.54879
8.4182
8.26421
8.06238
7.81764
7.59348
7.4315
7.38425
7.33735
7.40868
7.42022
7.46596
7.53946
7.64663
7.78503
7.94646
8.12334
8.30813
8.49165
8.65517
8.80269
8.94644
9.09594
9.23397
9.29753
9.19333
8.84729
8.21086
7.18812
5.70569
3.65469
32.7805
32.7479
32.6445
32.4471
32.1383
31.7254
31.2588
30.8286
30.5215
30.3664
30.326
30.3283
30.3246
30.2619
30.166
29.5835
29.5676
29.288
28.8969
28.4426
27.999
27.6348
27.4168
27.366
27.405
27.4891
27.5678
27.6047
27.5621
27.5094
27.3869
27.2601
27.1462
27.0496
26.9676
26.9001
26.852
26.8296
26.8349
26.8344
26.846
26.8445
26.8218
26.8009
26.7688
26.7367
26.7151
26.6824
26.622
26.51
26.3353
26.1091
25.8535
25.581
25.3273
25.1187
24.9465
24.78
24.5716
24.2735
23.9119
23.5606
23.3264
23.2434
23.2579
23.2852
23.2749
23.2227
23.1897
23.1856
23.214
23.2668
23.3322
23.3969
23.4586
23.5288
23.6177
23.7172
23.8308
23.9027
23.9571
24.0091
24.0705
24.1522
24.2512
24.3508
24.4248
24.4299
24.2855
23.8766
23.1533
22.2235
21.338
20.7959
20.9068
21.5374
22.3033
22.8285
23.07
23.1583
23.1727
23.1677
23.1482
23.2026
23.3193
23.5593
23.9426
24.3119
23.9857
24.2321
24.7974
25.6594
26.1885
26.3917
26.4262
26.5026
26.6476
26.9001
27.2206
27.6055
27.9029
28.0638
27.9862
27.5905
26.8283
25.6762
24.1451
22.2733
20.1235
17.7909
15.4144
13.1728
11.2439
9.72585
8.65545
7.99693
7.68175
7.57039
7.56464
7.61461
7.82204
8.3311
9.10242
9.92034
10.6152
11.1192
11.4374
11.6204
11.722
11.7615
11.731
11.6372
11.5241
11.4595
11.4206
11.5432
11.7048
11.8906
12.1337
12.3888
12.6904
12.9407
13.0863
13.116
13.0572
12.9455
12.8142
12.6747
12.5189
12.327
12.0804
11.7843
11.4667
11.1813
10.925
10.6993
10.5129
10.3726
10.2708
10.1873
10.1092
10.0003
9.87404
9.76951
9.70558
9.7348
9.82681
9.95083
10.0653
10.1773
10.2737
10.3285
10.2939
10.1238
9.83463
9.50732
9.20853
9.0077
8.86978
8.71945
8.55265
8.4418
8.43969
8.49945
8.57123
8.65361
8.70115
8.73602
8.75467
8.7458
8.69655
8.60438
8.47561
8.30554
8.08906
7.84167
7.5991
7.40835
7.24238
7.14388
7.18037
7.25644
7.32786
7.40757
7.49635
7.59561
7.70328
7.81886
7.93472
8.06091
8.15437
8.23285
8.29719
8.34677
8.36202
8.28973
8.04079
7.55326
6.80956
5.7385
4.32794
2.65954
32.3383
32.3054
32.2032
32.0275
31.7759
31.4603
31.1139
30.7846
30.5178
30.332
30.2153
30.144
30.1032
30.0919
30.1555
30.3521
30.1601
29.6662
29.1767
28.6364
28.108
27.6945
27.3022
27.273
27.3007
27.4271
27.583
27.6865
27.7158
27.6606
27.5453
27.4074
27.2683
27.1371
27.0193
26.9201
26.8452
26.7925
26.7631
26.7465
26.7357
26.723
26.6982
26.6607
26.6141
26.5751
26.5538
26.5312
26.4882
26.4007
26.2608
26.0716
25.8405
25.5897
25.3519
25.1083
24.8969
24.715
24.5237
24.2803
24.0089
23.7405
23.5571
23.4639
23.4288
23.4112
23.3841
23.3597
23.332
23.3245
23.3393
23.3721
23.4155
23.4626
23.5118
23.5681
23.6368
23.7153
23.7909
23.844
23.8868
23.9303
23.9725
24.0364
24.0922
24.1414
24.1567
24.0982
23.9196
23.5619
23.0185
22.3668
21.7589
21.4015
21.4543
21.8494
22.3425
22.7296
23.0099
23.1959
23.25
23.2306
23.1207
23.0296
23.0476
23.2493
23.7739
24.4102
24.8591
25.3561
26.1089
26.7431
26.8602
26.5943
26.2074
25.9313
25.8113
25.8922
26.1182
26.4871
26.7784
26.9442
26.8501
26.4283
25.6513
24.5204
23.0758
21.3837
19.5372
17.6455
15.8189
14.1655
12.7496
11.5806
10.6443
9.92471
9.39855
9.06533
8.87322
8.75163
8.79327
9.10864
9.68502
10.344
10.9227
11.3486
11.6144
11.7525
11.8107
11.8196
11.783
11.7089
11.6363
11.5808
11.5473
11.5822
11.6713
11.7501
11.9165
12.2073
12.5066
12.7814
12.9565
13.0135
12.9731
12.8686
12.7295
12.5731
12.4016
12.2062
11.9749
11.7139
11.45
11.2206
10.9912
10.7704
10.5731
10.4099
10.2778
10.1623
10.0776
9.98391
9.89616
9.79682
9.73748
9.74756
9.79801
9.87912
9.96212
10.0493
10.1048
10.1269
10.0975
9.96828
9.74992
9.46462
9.21608
9.05582
8.96091
8.86086
8.73432
8.62898
8.57779
8.53883
8.56102
8.61064
8.68272
8.75284
8.79986
8.81223
8.7783
8.69143
8.54098
8.31818
8.05387
7.76559
7.47002
7.19457
6.99865
6.93617
6.98584
7.07473
7.1668
7.24256
7.3259
7.39655
7.45818
7.51728
7.58271
7.63002
7.68003
7.70352
7.69725
7.65832
7.5654
7.37209
7.04335
6.52235
5.75531
4.73904
3.48108
2.09802
31.9577
31.928
31.836
31.6847
31.4776
31.2257
30.9492
30.6763
30.4309
30.2256
30.06
29.9299
29.8493
29.8805
30.173
30.7616
30.1757
29.5684
29.0355
28.4892
27.9316
27.542
27.2824
27.2553
27.3505
27.5159
27.6921
27.819
27.8225
27.7451
27.6138
27.4636
27.3112
27.1618
27.0208
26.8969
26.808
26.7337
26.6901
26.6624
26.6437
26.6264
26.6012
26.5631
26.515
26.477
26.463
26.4338
26.4001
26.3212
26.1915
26.017
25.807
25.5743
25.3438
25.1049
24.9117
24.7051
24.5039
24.2964
24.0928
23.9028
23.7688
23.6774
23.6122
23.5612
23.52
23.489
23.4662
23.4569
23.4626
23.4833
23.5144
23.549
23.5843
23.6211
23.6601
23.7016
23.7256
23.7749
23.8068
23.8364
23.8699
23.9005