/*--------------------------------*- C++ -*----------------------------------*\
  =========                 |
  \\      /  F ield         | OpenFOAM: The Open Source CFD Toolbox
   \\    /   O peration     | Website:  https://openfoam.org
    \\  /    A nd           | Version:  7
     \\/     M anipulation  |
\*---------------------------------------------------------------------------*/
FoamFile
{
    version     2.0;
    format      ascii;
    class       surfaceScalarField;
    location    "300";
    object      phi;
}
// * * * * * * * * * * * * * * * * * * * * * * * * * * * * * * * * * * * * * //

dimensions      [0 3 -1 0 0 0 0];

internalField   nonuniform List<scalar> 
240592
(
1.44871e-11
-2.09487e-13
-1.42781e-11
-2.60158e-11
3.50632e-11
6.82018e-12
-1.58682e-11
-4.12323e-11
4.53218e-11
3.02708e-12
-7.11725e-12
4.80478e-11
-1.09633e-12
5.26207e-13
-4.74781e-11
-4.71476e-11
4.5989e-11
-1.19529e-12
2.3536e-12
-4.56265e-11
4.60035e-11
4.81882e-14
-4.25175e-13
-4.69741e-11
4.8195e-11
-2.88692e-13
-9.3229e-13
-4.86118e-11
4.71163e-11
-6.65469e-13
2.16073e-12
-4.40824e-11
4.03317e-11
-2.48648e-12
6.23693e-12
-3.67131e-11
3.39249e-11
-3.86926e-12
6.65733e-12
-3.26352e-11
3.23731e-11
-1.98117e-12
2.24332e-12
-3.25958e-11
3.3868e-11
1.2779e-12
-2.54962e-12
-3.60114e-11
3.85755e-11
2.06785e-12
-4.63198e-12
4.42111e-11
1.81013e-12
-4.55335e-12
-4.14682e-11
-4.68232e-11
4.87223e-11
1.23426e-12
-3.13328e-12
-4.98453e-11
5.04533e-11
7.19578e-13
-1.32767e-12
-5.07991e-11
5.08663e-11
-6.18271e-13
5.50719e-13
-4.96731e-11
4.71205e-11
-1.7019e-12
4.25432e-12
-4.34866e-11
3.9022e-11
-3.95166e-12
8.41632e-12
-3.41534e-11
2.93757e-11
-4.71819e-12
9.49602e-12
-2.46188e-11
2.03144e-11
-4.59405e-12
8.89852e-12
-1.52628e-11
8.59795e-12
-4.2007e-12
1.08653e-11
2.62831e-11
1.61135e-11
-6.86996e-12
-3.55269e-11
3.31643e-11
-3.72809e-11
5.47141e-11
-1.15623e-12
-4.94438e-11
1.32868e-11
-6.71663e-11
7.47891e-11
-1.00551e-12
-1.99063e-11
-3.12655e-12
-7.88058e-11
7.97372e-11
-1.25142e-12
3.44441e-12
-6.50134e-12
-7.93084e-11
7.85012e-11
-1.18023e-12
8.487e-12
-8.87833e-13
-7.86808e-11
7.95577e-11
-1.13095e-12
1.14012e-12
1.04252e-13
-8.13076e-11
8.26733e-11
-1.11241e-12
-3.58902e-13
-6.47903e-12
-8.28181e-11
8.10554e-11
-1.19159e-12
9.43161e-12
-1.45026e-11
-7.77817e-11
7.33761e-11
-1.23361e-12
2.014e-11
-1.4759e-11
-6.86598e-11
6.41121e-11
-1.20792e-12
2.05145e-11
-6.03354e-12
-6.06165e-11
5.80603e-11
-1.15015e-12
9.73981e-12
3.50817e-12
-5.72907e-11
5.74707e-11
-1.02257e-12
-2.66648e-12
7.9446e-12
-5.85408e-11
6.00837e-11
-9.8242e-13
-8.50572e-12
7.6292e-12
-6.19636e-11
6.3567e-11
-1.06769e-12
-8.16575e-12
5.1907e-12
-6.52748e-11
6.68759e-11
-1.03395e-12
-5.75918e-12
2.65161e-12
-6.91597e-11
7.11846e-11
-9.7375e-13
-3.70385e-12
-6.18771e-13
-7.31537e-11
7.44859e-11
-1.05631e-12
3.41834e-13
-8.41502e-12
-7.5146e-11
7.39802e-11
-1.09758e-12
1.06776e-11
-1.73695e-11
-7.13302e-11
6.58487e-11
-1.18015e-12
2.40311e-11
-2.01547e-11
-5.9234e-11
5.14363e-11
-1.22547e-12
2.91782e-11
-1.96956e-11
-4.30256e-11
3.37223e-11
-1.19783e-12
3.01973e-11
-2.4976e-11
9.73693e-12
1.53746e-13
3.77952e-11
-2.27098e-11
4.39955e-11
1.43167e-11
-6.53532e-12
-5.17771e-11
-3.05062e-11
6.27176e-11
4.40725e-11
-1.30313e-12
-7.49821e-11
2.69264e-11
-5.54524e-11
6.4263e-11
-1.02485e-12
-3.47139e-11
-1.27829e-12
-7.16582e-11
7.74319e-11
-1.02941e-12
-3.46749e-12
-7.99714e-12
-8.24843e-11
8.64567e-11
-1.02212e-12
5.04505e-12
-4.93478e-14
-9.00047e-11
9.308e-11
-1.01868e-12
-2.00935e-12
1.03373e-12
-9.64183e-11
9.9001e-11
-1.01573e-12
-2.60257e-12
-1.07333e-11
-1.01563e-10
1.0307e-10
-1.01947e-12
1.02444e-11
-2.32815e-11
-1.04552e-10
1.05225e-10
-1.02848e-12
2.36366e-11
-2.40957e-11
-1.05742e-10
1.0519e-10
-1.03267e-12
2.56797e-11
-1.32901e-11
-1.04163e-10
1.02079e-10
-1.01387e-12
1.63864e-11
-6.51283e-13
-9.92639e-11
9.55439e-11
-1.01768e-12
5.38737e-12
5.31671e-12
-9.16896e-11
8.72986e-11
-1.01287e-12
8.60893e-14
5.57602e-12
-8.31971e-11
7.90477e-11
-1.03192e-12
-3.95161e-13
4.16732e-12
-7.54752e-11
7.27172e-11
-1.04913e-12
-3.6137e-13
2.72485e-12
-7.08774e-11
6.99291e-11
-1.0277e-12
-7.50154e-13
-7.90133e-13
-6.95829e-11
6.92325e-11
-1.02672e-12
2.16652e-12
-1.26476e-11
-6.8944e-11
6.80654e-11
-1.04395e-12
1.45693e-11
-2.89997e-11
-6.60564e-11
6.28633e-11
-1.01738e-12
3.32095e-11
-3.79248e-11
-5.76996e-11
5.10234e-11
-1.01155e-12
4.56115e-11
-4.13308e-11
-4.29444e-11
3.3247e-11
-9.67155e-13
5.19946e-11
-4.95343e-11
1.05881e-11
4.89407e-13
6.12425e-11
-2.27855e-11
5.91817e-11
1.34094e-11
-6.23635e-12
-6.63549e-11
-2.79852e-11
8.63382e-11
4.06063e-11
-1.25837e-12
-9.77021e-11
4.31376e-11
-5.20926e-11
6.26935e-11
-1.02947e-12
-5.27102e-11
9.79284e-12
-7.27184e-11
8.19118e-11
-1.01532e-12
-1.79718e-11
-8.02189e-13
-9.01693e-11
9.68974e-11
-1.01831e-12
-4.90926e-12
4.47442e-12
-1.02218e-10
1.06273e-10
-1.00362e-12
-7.52839e-12
4.20768e-12
-1.0977e-10
1.13144e-10
-9.96557e-13
-6.58633e-12
-8.50179e-12
-1.16955e-10
1.21291e-10
-1.01318e-12
5.17841e-12
-2.20212e-11
-1.25896e-10
1.30251e-10
-1.01501e-12
1.86804e-11
-2.57798e-11
-1.34028e-10
1.36386e-10
-1.00407e-12
2.44241e-11
-1.92929e-11
-1.37239e-10
1.36419e-10
-1.00358e-12
2.11152e-11
-1.06633e-11
-1.34301e-10
1.30689e-10
-1.00127e-12
1.52754e-11
-7.09515e-12
-1.26054e-10
1.20249e-10
-1.00214e-12
1.39006e-11
-6.81209e-12
-1.13864e-10
1.06847e-10
-1.01096e-12
1.48387e-11
-5.45748e-12
-1.00512e-10
9.43615e-11
-1.00193e-12
1.26086e-11
-3.15938e-12
-8.95276e-11
8.51047e-11
-1.015e-12
8.59628e-12
-5.32786e-12
-8.13796e-11
7.77405e-11
-1.03157e-12
9.99789e-12
-1.79787e-11
-7.39653e-11
7.00501e-11
-1.0225e-12
2.29153e-11
-3.7873e-11
-6.64072e-11
6.19168e-11
-9.93763e-13
4.33554e-11
-5.31682e-11
-5.71262e-11
5.08376e-11
-9.77017e-13
6.04324e-11
-6.23442e-11
-4.36248e-11
3.48231e-11
-9.51857e-13
7.20967e-11
-7.2991e-11
1.20579e-11
8.57076e-13
8.49108e-11
-2.48357e-11
7.33867e-11
1.21693e-11
-5.4248e-12
-8.01318e-11
-2.5507e-11
1.086e-10
3.75061e-11
-1.22715e-12
-1.19374e-10
6.28918e-11
-4.95435e-11
6.1358e-11
-9.99302e-13
-7.37078e-11
2.70046e-11
-7.32408e-11
8.40367e-11
-9.89673e-13
-3.68117e-11
1.11415e-11
-9.40118e-11
1.0217e-10
-9.83033e-13
-1.83177e-11
1.0882e-11
-1.09158e-10
1.14568e-10
-9.6617e-13
-1.53279e-11
9.06132e-12
-1.19445e-10
1.24143e-10
-9.62933e-13
-1.27982e-11
-1.31641e-12
-1.29438e-10
1.35538e-10
-9.76697e-13
-3.80829e-12
-1.43452e-11
-1.42131e-10
1.48447e-10
-9.88612e-13
9.01716e-12
-2.25562e-11
-1.53978e-10
1.57851e-10
-9.86577e-13
1.96681e-11
-2.24207e-11
-1.60278e-10
1.61116e-10
-1.00605e-12
2.25871e-11
-1.91494e-11
-1.60974e-10
1.59536e-10
-9.85737e-13
2.15722e-11
-2.04472e-11
-1.569e-10
1.52782e-10
-9.80855e-13
2.55443e-11
-2.33296e-11
-1.47263e-10
1.40508e-10
-9.8041e-13
3.10632e-11
-2.10956e-11
-1.33049e-10
1.25345e-10
-9.94385e-13
2.97931e-11
-1.58954e-11
-1.17387e-10
1.09411e-10
-1.00098e-12
2.48719e-11
-1.70663e-11
-1.01503e-10
9.32787e-11
-9.96061e-13
2.62858e-11
-2.98581e-11
-8.57775e-11
7.84682e-11
-9.87725e-13
3.81538e-11
-4.99418e-11
-7.21067e-11
6.59166e-11
-9.88074e-13
5.7118e-11
-6.79056e-11
-6.00552e-11
5.33992e-11
-9.69577e-13
7.55299e-11
-8.1843e-11
-4.5919e-11
3.70554e-11
-9.38285e-13
9.16437e-11
-9.70762e-11
1.29904e-11
1.14316e-12
1.09406e-10
-2.64644e-11
8.64104e-11
1.11621e-11
-5.21361e-12
-9.23596e-11
-2.30843e-11
1.29589e-10
3.42821e-11
-1.17695e-12
-1.39611e-10
8.45099e-11
-4.61859e-11
5.85788e-11
-9.77473e-13
-9.59258e-11
4.71392e-11
-7.10699e-11
8.30256e-11
-9.61827e-13
-5.81342e-11
2.63844e-11
-9.42973e-11
1.04639e-10
-9.31986e-13
-3.57957e-11
2.10857e-11
-1.14175e-10
1.22774e-10
-9.26595e-13
-2.87603e-11
1.77506e-11
-1.30842e-10
1.38342e-10
-9.23943e-13
-2.43281e-11
9.68849e-12
-1.46112e-10
1.53622e-10
-9.34044e-13
-1.62655e-11
-3.27306e-12
-1.61508e-10
1.68268e-10
-9.57508e-13
-2.53082e-12
-1.66864e-11
-1.73993e-10
1.77973e-10
-9.80424e-13
1.36856e-11
-2.23261e-11
-1.8086e-10
1.82559e-10
-9.73941e-13
2.15999e-11
-2.30332e-11
-1.83817e-10
1.84347e-10
-9.62782e-13
2.34646e-11
-2.93208e-11
-1.84408e-10
1.82982e-10
-9.50489e-13
3.16967e-11
-3.80078e-11
-1.8018e-10
1.75054e-10
-9.36251e-13
4.40692e-11
-3.92632e-11
-1.68361e-10
1.59612e-10
-9.43513e-13
4.89545e-11
-3.589e-11
-1.49782e-10
1.38291e-10
-9.50804e-13
4.83304e-11
-3.76298e-11
-1.26557e-10
1.14338e-10
-9.71013e-13
5.08189e-11
-4.81268e-11
-1.03455e-10
9.35425e-11
-9.63858e-13
5.9002e-11
-6.50255e-11
-8.50971e-11
7.77053e-11
-9.63481e-13
7.33794e-11
-8.37603e-11
-7.07748e-11
6.32284e-11
-9.46333e-13
9.2251e-11
-1.0268e-10
-5.46991e-11
4.38948e-11
-8.95319e-13
1.14378e-10
-1.22829e-10
1.51386e-11
1.35576e-12
1.37574e-10
-3.12393e-11
9.81396e-11
1.05716e-11
-4.78545e-12
-1.03926e-10
-2.19042e-11
1.49268e-10
3.25571e-11
-1.11723e-12
-1.58805e-10
1.07008e-10
-4.40267e-11
5.59048e-11
-9.38412e-13
-1.17949e-10
6.9308e-11
-6.84177e-11
8.08014e-11
-9.12199e-13
-8.07812e-11
4.61628e-11
-9.35743e-11
1.06152e-10
-8.9752e-13
-5.78443e-11
3.82303e-11
-1.19265e-10
1.31592e-10
-9.00115e-13
-4.96579e-11
3.25898e-11
-1.43747e-10
1.54546e-10
-9.07314e-13
-4.24829e-11
2.33504e-11
-1.64876e-10
1.73607e-10
-9.10456e-13
-3.11723e-11
7.83566e-12
-1.81478e-10
1.87397e-10
-9.34658e-13
-1.28218e-11
-1.12743e-11
-1.91891e-10
1.94646e-10
-9.44078e-13
9.46274e-12
-2.10824e-11
-1.96759e-10
1.98277e-10
-9.54248e-13
2.05183e-11
-2.3258e-11
-2.00137e-10
2.01821e-10
-9.45955e-13
2.25184e-11
-3.31318e-11
-2.03605e-10
2.04316e-10
-9.28535e-13
3.33475e-11
-4.91823e-11
-2.0397e-10
2.01402e-10
-9.1321e-13
5.2662e-11
-5.85009e-11
-1.96825e-10
1.89531e-10
-9.10516e-13
6.67045e-11
-6.1515e-11
-1.79988e-10
1.68085e-10
-9.29502e-13
7.4347e-11
-6.52795e-11
-1.543e-10
1.39793e-10
-9.38516e-13
8.07235e-11
-7.17958e-11
-1.2495e-10
1.11019e-10
-9.23053e-13
8.66481e-11
-8.30266e-11
-9.88264e-11
8.8265e-11
-9.21968e-13
9.45086e-11
-1.01226e-10
-7.94495e-11
7.06529e-11
-8.91292e-13
1.10912e-10
-1.26955e-10
-6.10662e-11
4.93681e-11
-8.45766e-13
1.39497e-10
-1.53707e-10
1.6941e-11
1.61856e-12
1.70239e-10
-3.5091e-11
1.09677e-10
1.08398e-11
-5.01433e-12
-1.15503e-10
-2.1789e-11
1.68026e-10
3.21235e-11
-1.05563e-12
-1.77306e-10
1.28626e-10
-4.30186e-11
5.47415e-11
-8.94557e-13
-1.39455e-10
9.25703e-11
-6.76288e-11
8.127e-11
-8.82225e-13
-1.05331e-10
7.04943e-11
-9.57642e-11
1.10837e-10
-8.9686e-13
-8.46715e-11
6.23796e-11
-1.26186e-10
1.41318e-10
-8.99873e-13
-7.66126e-11
5.34308e-11
-1.55502e-10
1.6838e-10
-8.94478e-13
-6.54161e-11
3.88734e-11
-1.79321e-10
1.88352e-10
-9.02319e-13
-4.70035e-11
1.69317e-11
-1.95266e-10
2.00408e-10
-9.23157e-13
-2.11509e-11
-8.21167e-12
-2.04018e-10
2.06603e-10
-9.29895e-13
6.55636e-12
-2.013e-11
-2.08727e-10
2.10547e-10
-9.28259e-13
1.92374e-11
-2.19104e-11
-2.12526e-10
2.14283e-10
-9.17696e-13
2.10695e-11
-3.31679e-11
-2.15908e-10
2.17032e-10
-9.10932e-13
3.29535e-11
-5.51231e-11
-2.17495e-10
2.16825e-10
-8.85296e-13
5.66765e-11
-7.37218e-11
-2.14365e-10
2.09687e-10
-8.96485e-13
7.92946e-11
-8.66107e-11
-2.02737e-10
1.9286e-10
-9.12731e-13
9.73991e-11
-9.74613e-11
-1.80423e-10
1.64889e-10
-8.87143e-13
1.13882e-10
-1.04297e-10
-1.47363e-10
1.2832e-10
-8.83606e-13
1.24223e-10
-1.09057e-10
-1.10106e-10
9.3654e-11
-8.96028e-13
1.26403e-10
-1.22111e-10
-7.96137e-11
6.73936e-11
-8.75883e-13
1.35206e-10
-1.52232e-10
-5.62131e-11
4.4634e-11
-8.28273e-13
1.64638e-10
-1.86316e-10
1.56329e-11
1.54296e-12
2.01039e-10
-3.1898e-11
1.21594e-10
1.1218e-11
-4.79937e-12
-1.28013e-10
-2.25866e-11
1.86289e-10
3.29418e-11
-1.014e-12
-1.95631e-10
1.50626e-10
-4.44337e-11
5.71095e-11
-8.60949e-13
-1.62442e-10
1.18833e-10
-7.18331e-11
8.76618e-11
-8.52517e-13
-1.33811e-10
9.96691e-11
-1.04615e-10
1.21386e-10
-8.63719e-13
-1.15577e-10
9.11309e-11
-1.38036e-10
1.5364e-10
-8.51524e-13
-1.05885e-10
7.71672e-11
-1.68103e-10
1.80515e-10
-8.70378e-13
-8.87102e-11
5.47334e-11
-1.90914e-10
1.99098e-10
-8.95733e-13
-6.20228e-11
2.51189e-11
-2.05626e-10
2.10788e-10
-8.8818e-13
-2.93931e-11
-4.48814e-12
-2.15513e-10
2.19632e-10
-9.06468e-13
1.27495e-12
-1.80081e-11
-2.2349e-10
2.26476e-10
-8.93506e-13
1.59144e-11
-2.07847e-11
-2.28699e-10
2.29703e-10
-8.9061e-13
2.06712e-11
-3.34926e-11
-2.30037e-10
2.297e-10
-8.87136e-13
3.47156e-11
-5.87088e-11
-2.29106e-10
2.27688e-10
-8.6461e-13
6.09904e-11
-8.42432e-11
-2.25436e-10
2.21555e-10
-8.77176e-13
8.90002e-11
-1.07027e-10
-2.15908e-10
2.0778e-10
-8.72422e-13
1.16026e-10
-1.30119e-10
-1.97043e-10
1.83008e-10
-8.63591e-13
1.45016e-10
-1.45465e-10
-1.65701e-10
1.45646e-10
-8.63005e-13
1.66382e-10
-1.47055e-10
-1.24403e-10
1.02834e-10
-8.48183e-13
1.6947e-10
-1.51268e-10
-8.29614e-11
6.49757e-11
-8.54823e-13
1.70107e-10
-1.77525e-10
-4.97433e-11
3.68825e-11
-8.23054e-13
1.91208e-10
-2.14244e-10
1.27215e-11
1.07396e-12
2.25928e-10
-2.54799e-11
1.34854e-10
1.30117e-11
-5.53192e-12
-1.42334e-10
-2.61087e-11
2.05352e-10
3.80938e-11
-1.0136e-12
-2.16325e-10
1.75008e-10
-5.10195e-11
6.55992e-11
-8.27364e-13
-1.88762e-10
1.49702e-10
-8.21296e-11
1.00053e-10
-8.25052e-13
-1.66801e-10
1.32255e-10
-1.18671e-10
1.37052e-10
-8.24076e-13
-1.49814e-10
1.20566e-10
-1.54598e-10
1.70595e-10
-8.29984e-13
-1.35734e-10
9.97078e-11
-1.8484e-10
1.96747e-10
-8.43037e-13
-1.10772e-10
6.89037e-11
-2.06772e-10
2.1463e-10
-8.64175e-13
-7.5899e-11
3.38885e-11
-2.21564e-10
2.27477e-10
-8.66048e-13
-3.89361e-11
2.74152e-12
-2.33595e-10
2.39166e-10
-8.63198e-13
-7.45023e-12
-1.33804e-11
-2.44319e-10
2.48008e-10
-8.49537e-13
1.05404e-11
-2.09618e-11
-2.50361e-10
2.50883e-10
-8.59521e-13
2.1299e-11
-3.68813e-11
-2.50463e-10
2.48779e-10
-8.46151e-13
3.94101e-11
-6.44746e-11
-2.46477e-10
2.42869e-10
-8.38158e-13
6.89192e-11
-9.47964e-11
-2.38412e-10
2.32345e-10
-8.36719e-13
1.01698e-10
-1.25423e-10
-2.24849e-10
2.1556e-10
-8.38415e-13
1.35549e-10
-1.59316e-10
-2.04767e-10
1.91616e-10
-8.37331e-13
1.73303e-10
-1.86311e-10
-1.76502e-10
1.59103e-10
-8.31194e-13
2.04539e-10
-1.92579e-10
-1.3944e-10
1.1794e-10
-8.33351e-13
2.14911e-10
-1.9166e-10
-9.55482e-11
7.38595e-11
-8.4145e-13
2.14189e-10
-2.06639e-10
-5.46349e-11
3.84444e-11
-7.96393e-13
2.23626e-10
-2.37393e-10
1.24747e-11
7.50555e-13
2.49609e-10
-2.54415e-11
1.50563e-10
1.65632e-11
-7.38002e-12
-1.59747e-10
-3.32011e-11
2.28445e-10
4.81381e-11
-1.03655e-12
-2.42346e-10
2.03244e-10
-6.36677e-11
8.05879e-11
-7.89619e-13
-2.19375e-10
1.8451e-10
-9.90054e-11
1.18259e-10
-7.98527e-13
-2.02967e-10
1.67764e-10
-1.381e-10
1.57482e-10
-7.87515e-13
-1.86361e-10
1.50941e-10
-1.75941e-10
1.92458e-10
-7.96213e-13
-1.66663e-10
1.2183e-10
-2.07111e-10
2.19535e-10
-8.10969e-13
-1.33443e-10
8.29589e-11
-2.30113e-10
2.39001e-10
-8.38167e-13
-9.101e-11
4.44713e-11
-2.46841e-10
2.54124e-10
-8.44612e-13
-5.09103e-11
1.23333e-11
-2.60975e-10
2.67235e-10
-8.28424e-13
-1.77646e-11
-7.90778e-12
-2.72515e-10
2.76302e-10
-8.26214e-13
4.94598e-12
-2.17687e-11
-2.78651e-10
2.79571e-10
-8.15616e-13
2.16627e-11
-4.23627e-11
-2.79199e-10
2.77393e-10
-8.18051e-13
4.49854e-11
-7.43721e-11
-2.7401e-10
2.68462e-10
-8.06478e-13
8.07248e-11
-1.10588e-10
-2.60855e-10
2.50889e-10
-7.91853e-13
1.21345e-10
-1.4749e-10
-2.39431e-10
2.26581e-10
-8.01035e-13
1.6114e-10
-1.87522e-10
-2.13109e-10
1.98917e-10
-8.10631e-13
2.02524e-10
-2.21864e-10
-1.84695e-10
1.69096e-10
-8.0035e-13
2.38262e-10
-2.3621e-10
-1.52214e-10
1.32685e-10
-8.02399e-13
2.56541e-10
-2.37295e-10
-1.11749e-10
8.97288e-11
-8.00391e-13
2.60115e-10
-2.42265e-10
-6.89288e-11
4.99296e-11
-7.66389e-13
2.6203e-10
-2.63455e-10
1.62937e-11
1.09531e-12
2.79323e-10
-3.32585e-11
1.69971e-10
2.13918e-11
-9.96114e-12
-1.81402e-10
-4.30478e-11
2.58215e-10
6.23661e-11
-1.09105e-12
-2.76442e-10
2.36658e-10
-8.16478e-11
1.01433e-10
-7.62515e-13
-2.55682e-10
2.2222e-10
-1.2223e-10
1.43118e-10
-7.61152e-13
-2.42348e-10
2.04961e-10
-1.641e-10
1.83971e-10
-7.45901e-13
-2.24088e-10
1.82406e-10
-2.02774e-10
2.19538e-10
-7.59682e-13
-1.98411e-10
1.45445e-10
-2.34894e-10
2.48444e-10
-7.8365e-13
-1.58212e-10
9.99206e-11
-2.6086e-10
2.71717e-10
-7.96547e-13
-1.09982e-10
5.78693e-11
-2.8168e-10
2.90459e-10
-7.97781e-13
-6.58519e-11
2.31779e-11
-2.98424e-10
3.05129e-10
-7.77257e-13
-2.91069e-11
-2.05852e-12
-3.10705e-10
3.14752e-10
-7.84575e-13
-1.20405e-12
-2.14795e-11
-3.17525e-10
3.18967e-10
-7.68934e-13
2.08058e-11
-4.7769e-11
-3.19136e-10
3.17032e-10
-7.68355e-13
5.06389e-11
-8.8281e-11
-3.12429e-10
3.0459e-10
-7.7606e-13
9.68944e-11
-1.34246e-10
-2.93728e-10
2.80061e-10
-7.67128e-13
1.48679e-10
-1.76929e-10
-2.64752e-10
2.48334e-10
-7.56744e-13
1.94103e-10
-2.18528e-10
-2.31932e-10
2.15927e-10
-7.6777e-13
2.353e-10
-2.54761e-10
-2.00414e-10
1.84561e-10
-7.73953e-13
2.71387e-10
-2.76212e-10
-1.67832e-10
1.49493e-10
-7.88749e-13
2.95339e-10
-2.82488e-10
-1.29626e-10
1.08499e-10
-7.901e-13
3.04404e-10
-2.82937e-10
-8.72343e-11
6.62164e-11
-7.03346e-13
3.04658e-10
-2.9788e-10
2.25767e-11
1.97245e-12
3.19047e-10
-4.57174e-11
1.94201e-10
2.63408e-11
-1.20399e-11
-2.08502e-10
-5.36045e-11
2.96941e-10
7.79367e-11
-1.16099e-12
-3.20113e-10
2.76537e-10
-1.01589e-10
1.25085e-10
-7.12878e-13
-2.99321e-10
2.63382e-10
-1.48578e-10
1.71683e-10
-7.15082e-13
-2.85773e-10
2.43566e-10
-1.93843e-10
2.14742e-10
-7.22262e-13
-2.63743e-10
2.14851e-10
-2.34132e-10
2.52251e-10
-7.45118e-13
-2.32226e-10
1.71755e-10
-2.69186e-10
2.85158e-10
-7.60773e-13
-1.86967e-10
1.2135e-10
-3.00248e-10
3.14224e-10
-7.52664e-13
-1.34574e-10
7.48035e-11
-3.26987e-10
3.38035e-10
-7.40269e-13
-8.51133e-11
3.5402e-11
-3.47711e-10
3.55488e-10
-7.27054e-13
-4.24534e-11
4.65974e-12
-3.62043e-10
3.66495e-10
-7.24485e-13
-8.38864e-12
-2.01702e-11
-3.69523e-10
3.70433e-10
-7.37019e-13
1.99962e-11
-5.43219e-11
-3.69364e-10
3.65233e-10
-7.13729e-13
5.91657e-11
-1.07117e-10
-3.58136e-10
3.47358e-10
-7.27225e-13
1.18621e-10
-1.64668e-10
-3.33947e-10
3.18041e-10
-7.31229e-13
1.81303e-10
-2.12498e-10
-3.00946e-10
2.82959e-10
-7.09152e-13
2.31192e-10
-2.53257e-10
-2.65201e-10
2.47384e-10
-7.26049e-13
2.71799e-10
-2.89106e-10
-2.29526e-10
2.10917e-10
-7.29282e-13
3.08443e-10
-3.15365e-10
-1.91465e-10
1.70895e-10
-7.30334e-13
3.36665e-10
-3.26618e-10
-1.49269e-10
1.26842e-10
-7.36861e-13
3.49781e-10
-3.27472e-10
-1.04022e-10
8.10737e-11
-6.71211e-13
3.5109e-10
-3.42784e-10
2.78283e-11
2.7487e-12
3.68755e-10
-5.65487e-11
2.24242e-10
3.05907e-11
-1.35874e-11
-2.41246e-10
-6.25969e-11
3.45312e-10
9.11488e-11
-1.21611e-12
-3.72649e-10
3.23951e-10
-1.18905e-10
1.45953e-10
-6.64916e-13
-3.50335e-10
3.08948e-10
-1.72715e-10
1.98154e-10
-6.66913e-13
-3.3372e-10
2.84626e-10
-2.22888e-10
2.45997e-10
-6.90686e-13
-3.07045e-10
2.50758e-10
-2.68375e-10
2.89624e-10
-7.13968e-13
-2.71294e-10
2.03841e-10
-3.10472e-10
3.30312e-10
-7.15888e-13
-2.22967e-10
1.49405e-10
-3.4959e-10
3.67333e-10
-7.008e-13
-1.66448e-10
9.65872e-11
-3.83671e-10
3.97615e-10
-7.04233e-13
-1.09828e-10
5.00462e-11
-4.09344e-10
4.18565e-10
-6.9395e-13
-5.85742e-11
1.19396e-11
-4.25358e-10
4.29582e-10
-6.78968e-13
-1.54862e-11
-2.10031e-11
-4.313e-10
4.29742e-10
-6.85328e-13
2.3245e-11
-6.59466e-11
-4.25189e-10
4.17524e-10
-6.80621e-13
7.4291e-11
-1.31341e-10
-4.07193e-10
3.94698e-10
-6.9167e-13
1.44527e-10
-1.98124e-10
-3.80517e-10
3.64914e-10
-6.77424e-13
2.14402e-10
-2.50051e-10
-3.48143e-10
3.30124e-10
-6.72803e-13
2.68741e-10
-2.91582e-10
-3.11009e-10
2.90598e-10
-6.83283e-13
3.12675e-10
-3.29897e-10
-2.68537e-10
2.45043e-10
-6.76362e-13
3.54066e-10
-3.60448e-10
-2.20268e-10
1.94376e-10
-6.73721e-13
3.87013e-10
-3.74776e-10
-1.68244e-10
1.41897e-10
-6.72272e-13
4.01795e-10
-3.76297e-10
-1.16328e-10
9.05443e-11
-6.11187e-13
4.0269e-10
-3.96612e-10
3.11865e-11
3.21313e-12
4.2557e-10
-6.33578e-11
2.59304e-10
3.43511e-11
-1.5401e-11
-2.78254e-10
-6.97892e-11
4.01664e-10
1.01491e-10
-1.21511e-12
-4.32152e-10
3.78255e-10
-1.32322e-10
1.62993e-10
-6.2683e-13
-4.08299e-10
3.6033e-10
-1.93313e-10
2.23029e-10
-6.25654e-13
-3.89422e-10
3.31588e-10
-2.51913e-10
2.80096e-10
-6.44167e-13
-3.59128e-10
2.94178e-10
-3.07483e-10
3.33993e-10
-6.59341e-13
-3.2003e-10
2.44425e-10
-3.59677e-10
3.84358e-10
-6.50016e-13
-2.68458e-10
1.85518e-10
-4.07761e-10
4.29521e-10
-6.49057e-13
-2.0663e-10
1.24508e-10
-4.49089e-10
4.65877e-10
-6.45623e-13
-1.40651e-10
6.74463e-11
-4.79534e-10
4.89587e-10
-6.32317e-13
-7.68681e-11
1.83792e-11
-4.96219e-10
4.99177e-10
-6.40842e-13
-2.06981e-11
-2.71231e-11
-4.98574e-10
4.94181e-10
-6.37851e-13
3.21529e-11
-8.44202e-11
-4.86499e-10
4.76163e-10
-6.33063e-13
9.53887e-11
-1.58271e-10
-4.64471e-10
4.51603e-10
-6.34633e-13
1.71773e-10
-2.30327e-10
-4.38281e-10
4.23625e-10
-6.41561e-13
2.45625e-10
-2.87815e-10
-4.07235e-10
3.88168e-10
-6.37284e-13
3.07519e-10
-3.36213e-10
-3.6633e-10
3.41045e-10
-6.15692e-13
3.62113e-10
-3.81782e-10
-3.13435e-10
2.83404e-10
-6.28031e-13
4.1244e-10
-4.16926e-10
-2.52151e-10
2.19915e-10
-6.37111e-13
4.49798e-10
-4.31415e-10
-1.8773e-10
1.56383e-10
-6.28984e-13
4.63391e-10
-4.30624e-10
-1.26382e-10
9.72159e-11
-5.49557e-13
4.60339e-10
-4.55447e-10
3.36151e-11
3.41252e-12
4.86039e-10
-6.76208e-11
2.98147e-10
3.85361e-11
-1.72042e-11
-3.19479e-10
-7.81587e-11
4.64156e-10
1.13446e-10
-1.23538e-12
-4.98209e-10
4.39979e-10
-1.48062e-10
1.82982e-10
-5.71966e-13
-4.74329e-10
4.21135e-10
-2.18573e-10
2.53983e-10
-5.54115e-13
-4.55993e-10
3.8952e-10
-2.89254e-10
3.23628e-10
-5.81731e-13
-4.23313e-10
3.48562e-10
-3.5715e-10
3.89109e-10
-6.00674e-13
-3.79922e-10
2.94485e-10
-4.1954e-10
4.48058e-10
-5.89494e-13
-3.22414e-10
2.29068e-10
-4.7476e-10
4.99015e-10
-5.7365e-13
-2.5275e-10
1.57623e-10
-5.20753e-10
5.39103e-10
-5.64696e-13
-1.75409e-10
8.64397e-11
-5.53961e-10
5.64617e-10
-5.86925e-13
-9.65093e-11
2.23129e-11
-5.71161e-10
5.73332e-10
-5.87737e-13
-2.38973e-11
-3.82374e-11
-5.71575e-10
5.65902e-10
-5.71911e-13
4.44815e-11
-1.06703e-10
-5.57684e-10
5.47399e-10
-5.97367e-13
1.17585e-10
-1.84981e-10
-5.36259e-10
5.24314e-10
-5.85631e-13
1.9751e-10
-2.61188e-10
-5.11182e-10
4.95728e-10
-5.97235e-13
2.77238e-10
-3.28744e-10
-4.77351e-10
4.54874e-10
-5.84836e-13
3.51805e-10
-3.9053e-10
-4.28265e-10
3.97803e-10
-5.60028e-13
4.2155e-10
-4.4616e-10
-3.6429e-10
3.2837e-10
-5.70238e-13
4.8265e-10
-4.85767e-10
-2.90971e-10
2.52377e-10
-5.75209e-13
5.24936e-10
-4.98574e-10
-2.13908e-10
1.76157e-10
-5.68906e-13
5.36893e-10
-4.92338e-10
-1.40329e-10
1.06271e-10
-4.79012e-13
5.26874e-10
-5.1791e-10
3.61316e-11
3.60387e-12
5.51249e-10
-7.30748e-11
3.42547e-10
4.44189e-11
-1.93286e-11
-3.67637e-10
-9.03454e-11
5.3476e-10
1.31422e-10
-1.31285e-12
-5.74526e-10
5.11379e-10
-1.71528e-10
2.12577e-10
-5.2922e-13
-5.519e-10
4.94293e-10
-2.55027e-10
2.979e-10
-4.96504e-13
-5.36671e-10
4.60359e-10
-3.40346e-10
3.81395e-10
-5.21529e-13
-5.00888e-10
4.13576e-10
-4.20585e-10
4.57261e-10
-5.39198e-13
-4.49714e-10
3.51676e-10
-4.91344e-10
5.22424e-10
-5.44867e-13
-3.82211e-10
2.77019e-10
-5.50913e-10
5.76368e-10
-5.25286e-13
-3.0195e-10
1.9343e-10
-5.98851e-10
6.17827e-10
-5.02704e-13
-2.11905e-10
1.06841e-10
-6.33434e-10
6.44816e-10
-5.19028e-13
-1.17705e-10
2.56222e-11
-6.52305e-10
6.55482e-10
-5.27495e-13
-2.82725e-11
-5.0331e-11
-6.54725e-10
6.50723e-10
-5.28483e-13
5.48608e-11
-1.27774e-10
-6.44062e-10
6.3532e-10
-5.34836e-13
1.37051e-10
-2.10119e-10
-6.25004e-10
6.12587e-10
-5.25448e-13
2.23061e-10
-2.94595e-10
-5.97587e-10
5.7899e-10
-5.44186e-13
3.13735e-10
-3.77354e-10
-5.56244e-10
5.28963e-10
-5.29858e-13
4.05164e-10
-4.55293e-10
-4.97481e-10
4.622e-10
-5.14942e-13
4.91087e-10
-5.21969e-10
-4.24241e-10
3.83689e-10
-5.2743e-13
5.63047e-10
-5.67019e-10
-3.41321e-10
2.97492e-10
-5.24039e-13
6.11371e-10
-5.78636e-10
-2.53014e-10
2.08596e-10
-5.02497e-13
6.23556e-10
-5.64592e-10
-1.658e-10
1.25154e-10
-3.96074e-13
6.05634e-10
-5.86925e-10
4.20922e-11
4.36759e-12
6.26043e-10
-8.55775e-11
3.9476e-10
5.16594e-11
-2.24666e-11
-4.23953e-10
-1.05436e-10
6.17336e-10
1.53735e-10
-1.43038e-12
-6.64207e-10
5.96282e-10
-2.0139e-10
2.50461e-10
-4.96829e-13
-6.44858e-10
5.82836e-10
-3.01375e-10
3.52573e-10
-4.49621e-13
-6.33586e-10
5.44736e-10
-4.029e-10
4.50594e-10
-4.71439e-13
-5.9196e-10
4.87949e-10
-4.95319e-10
5.36326e-10
-4.85222e-13
-5.28471e-10
4.13944e-10
-5.7371e-10
6.07267e-10
-4.90901e-13
-4.47011e-10
3.27259e-10
-6.37364e-10
6.63829e-10
-4.7645e-13
-3.53248e-10
2.30579e-10
-6.87129e-10
7.07072e-10
-4.59274e-13
-2.50064e-10
1.2939e-10
-7.23757e-10
7.37e-10
-4.54281e-13
-1.4218e-10
3.20175e-11
-7.46695e-10
7.52504e-10
-4.56244e-13
-3.73711e-11
-5.81586e-11
-7.54717e-10
7.53323e-10
-4.6184e-13
6.00131e-11
-1.45804e-10
-7.48852e-10
7.41046e-10
-4.72667e-13
1.54083e-10
-2.37089e-10
-7.29891e-10
7.14888e-10
-4.79899e-13
2.52571e-10
-3.35314e-10
-6.95921e-10
6.72351e-10
-4.80017e-13
3.59364e-10
-4.35647e-10
-6.44596e-10
6.12484e-10
-4.71353e-13
4.68229e-10
-5.28783e-10
-5.76982e-10
5.38445e-10
-4.81683e-13
5.67801e-10
-6.05685e-10
-4.9728e-10
4.5376e-10
-4.7053e-13
6.49675e-10
-6.57906e-10
-4.0819e-10
3.60636e-10
-4.47132e-13
7.05906e-10
-6.71441e-10
-3.11577e-10
2.61493e-10
-4.26082e-13
7.21952e-10
-6.50927e-10
-2.11625e-10
1.6222e-10
-2.91702e-13
7.00624e-10
-6.70224e-10
5.4538e-11
5.90034e-12
7.21346e-10
-1.1156e-10
4.55231e-10
5.99686e-11
-2.64828e-11
-4.88717e-10
-1.22348e-10
7.14863e-10
1.79053e-10
-1.53491e-12
-7.70035e-10
6.98065e-10
-2.35835e-10
2.94372e-10
-4.6495e-13
-7.56138e-10
6.88441e-10
-3.54659e-10
4.14732e-10
-4.41079e-13
-7.48074e-10
6.42579e-10
-4.7308e-10
5.27969e-10
-4.53626e-13
-6.97015e-10
5.71184e-10
-5.78624e-10
6.24572e-10
-4.48266e-13
-6.16685e-10
4.81468e-10
-6.6619e-10
7.03467e-10
-4.39164e-13
-5.18307e-10
3.80138e-10
-7.36687e-10
7.65925e-10
-4.25282e-13
-4.08952e-10
2.7035e-10
-7.91616e-10
8.13796e-10
-4.15846e-13
-2.92115e-10
1.5594e-10
-8.32712e-10
8.48146e-10
-4.02518e-13
-1.70972e-10
4.4e-11
-8.60331e-10
8.68683e-10
-4.04386e-13
-5.19488e-11
-6.0866e-11
-8.73324e-10
8.73807e-10
-3.95914e-13
6.07777e-11
-1.6272e-10
-8.70105e-10
8.61688e-10
-4.05261e-13
1.71542e-10
-2.69789e-10
-8.48667e-10
8.30632e-10
-4.11251e-13
2.88236e-10
-3.85721e-10
-8.07924e-10
7.80535e-10
-4.07026e-13
4.13516e-10
-5.02774e-10
-7.48813e-10
7.13273e-10
-3.93149e-13
5.38707e-10
-6.08461e-10
-6.74507e-10
6.32853e-10
-4.01192e-13
6.50516e-10
-6.94843e-10
-5.88823e-10
5.4246e-10
-3.99748e-13
7.41606e-10
-7.55639e-10
-4.94051e-10
4.43195e-10
-3.60499e-13
8.06855e-10
-7.75103e-10
-3.90179e-10
3.34869e-10
-3.42539e-13
8.30755e-10
-7.55724e-10
-2.77499e-10
2.16903e-10
-1.7787e-13
8.16497e-10
-7.80958e-10
7.33086e-11
8.54412e-12
8.49798e-10
-1.50691e-10
5.24626e-10
7.04145e-11
-3.14199e-11
-5.63621e-10
-1.43912e-10
8.29714e-10
2.10856e-10
-1.72592e-12
-8.94934e-10
8.19136e-10
-2.77937e-10
3.46695e-10
-4.44449e-13
-8.87451e-10
8.12203e-10
-4.16571e-10
4.85622e-10
-4.33101e-13
-8.80822e-10
7.55077e-10
-5.52359e-10
6.15078e-10
-4.2093e-13
-8.17375e-10
6.65299e-10
-6.73112e-10
7.25919e-10
-4.19392e-13
-7.17688e-10
5.57714e-10
-7.73925e-10
8.17148e-10
-3.93869e-13
-6.00545e-10
4.39848e-10
-8.55788e-10
8.89742e-10
-3.65411e-13
-4.73437e-10
3.15461e-10
-9.19413e-10
9.448e-10
-3.68945e-13
-3.4048e-10
1.86953e-10
-9.66166e-10
9.83616e-10
-3.58787e-13
-2.04045e-10
6.06743e-11
-9.97099e-10
1.00649e-09
-3.46361e-13
-6.97203e-11
-6.05021e-11
-1.01183e-09
1.01239e-09
-3.41528e-13
6.02788e-11
-1.80799e-10
-1.00809e-09
9.98685e-10
-3.44077e-13
1.9055e-10
-3.07774e-10
-9.84122e-10
9.64408e-10
-3.40692e-13
3.27829e-10
-4.42524e-10
-9.39755e-10
9.1023e-10
-3.1455e-13
4.72362e-10
-5.7611e-10
-8.76254e-10
8.37772e-10
-3.07933e-13
6.14899e-10
-6.94517e-10
-7.95582e-10
7.4981e-10
-3.23163e-13
7.40612e-10
-7.90495e-10
-7.01149e-10
6.49735e-10
-2.91994e-13
8.422e-10
-8.60529e-10
-5.95669e-10
5.38685e-10
-2.59256e-13
9.17772e-10
-8.89861e-10
-4.78886e-10
4.15641e-10
-2.60922e-13
9.53367e-10
-8.83303e-10
-3.48262e-10
2.74747e-10
-3.94153e-14
9.56859e-10
-9.28168e-10
9.32231e-11
1.10836e-11
1.01568e-09
-1.91813e-10
6.06305e-10
8.48548e-11
-3.78419e-11
-6.53319e-10
-1.7363e-10
9.66355e-10
2.53743e-10
-2.00398e-12
-1.04447e-09
9.6079e-10
-3.32268e-10
4.1144e-10
-4.07916e-13
-1.03956e-09
9.53992e-10
-4.90795e-10
5.68607e-10
-4.1727e-13
-1.03139e-09
8.83561e-10
-6.438e-10
7.15015e-10
-3.79314e-13
-9.54397e-10
7.74323e-10
-7.81748e-10
8.435e-10
-3.85335e-13
-8.3569e-10
6.47051e-10
-9.00233e-10
9.51619e-10
-3.60657e-13
-6.98078e-10
5.09826e-10
-9.97691e-10
1.03811e-09
-3.30022e-13
-5.49918e-10
3.67213e-10
-1.07316e-09
1.10274e-09
-3.23119e-13
-3.96469e-10
2.21842e-10
-1.12753e-09
1.14711e-09
-3.10474e-13
-2.41117e-10
7.87928e-11
-1.16205e-09
1.17195e-09
-3.0312e-13
-8.83967e-11
-6.06266e-11
-1.17689e-09
1.17647e-09
-3.07675e-13
6.13573e-11
-2.0096e-10
-1.17082e-09
1.15974e-09
-2.78821e-13
2.12312e-10
-3.4871e-10
-1.14358e-09
1.1219e-09
-2.79505e-13
3.70671e-10
-5.03262e-10
-1.09521e-09
1.06327e-09
-2.56073e-13
5.35461e-10
-6.55292e-10
-1.02628e-09
9.84327e-10
-2.50593e-13
6.975e-10
-7.89122e-10
-9.37624e-10
8.86326e-10
-2.3086e-13
8.4065e-10
-8.97958e-10
-8.30857e-10
7.71008e-10
-1.88478e-13
9.57994e-10
-9.79965e-10
-7.07184e-10
6.39191e-10
-1.78221e-13
1.04814e-09
-1.02291e-09
-5.67151e-10
4.90846e-10
-1.75665e-13
1.0994e-09
-1.03737e-09
-4.09736e-10
3.22045e-10
9.22303e-14
1.12497e-09
-1.11119e-09
1.08461e-10
1.29196e-11
1.21333e-09
-2.23527e-10
7.05051e-10
1.02746e-10
-4.60627e-11
-7.61734e-10
-2.10192e-10
1.12967e-09
3.05847e-10
-2.32639e-12
-1.223e-09
1.12325e-09
-3.97089e-10
4.87212e-10
-3.86223e-13
-1.21298e-09
1.11329e-09
-5.7634e-10
6.63218e-10
-3.63257e-13
-1.19981e-09
1.02956e-09
-7.47064e-10
8.26983e-10
-3.26476e-13
-1.10915e-09
9.01806e-10
-9.03005e-10
9.74458e-10
-3.10679e-13
-9.7295e-10
7.53697e-10
-1.041e-09
1.10195e-09
-2.88506e-13
-8.14367e-10
5.94111e-10
-1.15712e-09
1.20603e-09
-2.66499e-13
-6.42755e-10
4.28756e-10
-1.24865e-09
1.28502e-09
-2.5097e-13
-4.64874e-10
2.625e-10
-1.31539e-09
1.33996e-09
-2.4315e-13
-2.86823e-10
9.89248e-11
-1.35854e-09
1.37081e-09
-2.38989e-13
-1.10956e-10
-6.24201e-11
-1.37654e-09
1.37555e-09
-2.37795e-13
6.36542e-11
-2.25048e-10
-1.36795e-09
1.35406e-09
-2.30559e-13
2.39163e-10
-3.94163e-10
-1.33422e-09
1.30872e-09
-2.31852e-13
4.19896e-10
-5.69674e-10
-1.27759e-09
1.24092e-09
-1.8901e-13
6.06536e-10
-7.42261e-10
-1.19887e-09
1.15133e-09
-1.78939e-13
7.8998e-10
-8.95617e-10
-1.09828e-09
1.03962e-09