/*--------------------------------*- C++ -*----------------------------------*\
  =========                 |
  \\      /  F ield         | OpenFOAM: The Open Source CFD Toolbox
   \\    /   O peration     | Website:  https://openfoam.org
    \\  /    A nd           | Version:  7
     \\/     M anipulation  |
\*---------------------------------------------------------------------------*/
FoamFile
{
    version     2.0;
    format      ascii;
    class       volVectorField;
    location    "300";
    object      U;
}
// * * * * * * * * * * * * * * * * * * * * * * * * * * * * * * * * * * * * * //

dimensions      [0 1 -1 0 0 0 0];

internalField   nonuniform List<vector> 
96800
(
(2.63754e-05 1.4424e-07 -2.51473e-05)
(5.87516e-05 -1.97802e-07 -1.08815e-05)
(8.15412e-05 -6.37893e-08 -5.00926e-06)
(8.96836e-05 -4.76005e-08 3.00377e-07)
(8.64055e-05 -3.38315e-08 1.0765e-06)
(8.51152e-05 -9.24841e-08 -5.0888e-07)
(8.88191e-05 -7.66157e-08 -7.36093e-07)
(9.04456e-05 -1.51559e-08 1.30083e-06)
(7.88616e-05 5.71315e-08 4.10438e-06)
(6.54305e-05 -1.68062e-08 4.01734e-06)
(6.08235e-05 -7.0513e-08 1.12044e-06)
(6.1561e-05 -1.81225e-07 -1.28649e-06)
(6.94463e-05 -1.03111e-07 -2.96072e-06)
(8.02936e-05 -8.68538e-08 -2.87414e-06)
(8.99978e-05 -6.49614e-08 -1.60208e-06)
(9.39451e-05 -1.94069e-08 -5.38633e-07)
(9.5269e-05 -8.11558e-10 5.75819e-07)
(9.09759e-05 5.62327e-08 2.95827e-06)
(7.73604e-05 8.76518e-08 5.61502e-06)
(5.90736e-05 6.3869e-08 6.31167e-06)
(4.0848e-05 4.70471e-08 5.93074e-06)
(2.31132e-05 1.26878e-07 8.30306e-06)
(1.0507e-05 3.55955e-07 -5.99236e-05)
(4.08539e-05 2.07175e-07 -3.58053e-05)
(6.1594e-05 1.94478e-07 -1.33619e-05)
(6.89245e-05 9.9684e-08 4.78854e-06)
(6.82879e-05 8.49357e-08 7.95727e-06)
(6.88957e-05 5.26054e-08 1.65874e-06)
(7.23644e-05 -8.39378e-09 8.30431e-07)
(7.25921e-05 1.09552e-07 8.43681e-06)
(6.65552e-05 1.03268e-07 1.70383e-05)
(5.80311e-05 -2.04558e-07 1.77684e-05)
(5.2017e-05 -3.0783e-07 8.41477e-06)
(5.05937e-05 -2.32063e-07 -2.67159e-06)
(5.19777e-05 -1.1356e-07 -6.86682e-06)
(5.54239e-05 -5.76115e-08 -6.24288e-06)
(5.85246e-05 4.26445e-08 -4.40967e-06)
(6.17727e-05 -5.96246e-08 -2.23633e-06)
(6.49867e-05 2.55201e-08 1.49892e-06)
(6.63893e-05 -9.96532e-08 9.52899e-06)
(6.05671e-05 -2.07917e-07 1.94829e-05)
(4.86215e-05 -2.92187e-07 2.26533e-05)
(3.35889e-05 -2.98294e-07 2.26788e-05)
(1.52888e-05 -1.43186e-07 3.22157e-05)
(9.48168e-06 2.86488e-07 -9.17931e-05)
(3.26461e-05 -5.28383e-08 -5.75284e-05)
(5.20886e-05 1.53479e-08 -2.40769e-05)
(6.46435e-05 6.47253e-08 2.10214e-06)
(7.34449e-05 9.57439e-08 8.4037e-06)
(8.06366e-05 5.31517e-08 1.23718e-06)
(8.70357e-05 2.00407e-08 4.64894e-07)
(9.1039e-05 -5.32723e-08 1.20178e-05)
(9.26101e-05 -4.53986e-08 2.37539e-05)
(9.25129e-05 4.59324e-08 2.46041e-05)
(9.09977e-05 -6.95731e-08 1.50737e-05)
(8.66213e-05 -6.21221e-08 4.25512e-06)
(7.93215e-05 -2.53129e-08 -9.22005e-07)
(7.14748e-05 -8.52109e-08 -1.1582e-06)
(6.56663e-05 4.77552e-08 -2.4233e-07)
(6.29875e-05 4.89731e-08 2.03792e-07)
(6.1076e-05 -9.06798e-08 3.13113e-06)
(6.06346e-05 -3.4604e-08 1.31884e-05)
(5.74256e-05 5.09384e-08 2.87968e-05)
(4.86175e-05 -9.20912e-08 3.8096e-05)
(3.40012e-05 -1.85993e-07 4.22055e-05)
(1.64072e-05 -1.93184e-07 5.40678e-05)
(9.06442e-06 2.59594e-07 -0.00011996)
(2.98194e-05 -6.99036e-08 -7.62441e-05)
(4.99926e-05 3.66459e-08 -3.77613e-05)
(6.71221e-05 -6.32045e-08 -7.89254e-06)
(8.19857e-05 -1.06185e-08 2.58531e-06)
(9.20396e-05 8.35099e-08 -8.64333e-07)
(9.90812e-05 2.12735e-08 -8.17712e-07)
(0.000106238 2.47594e-09 9.7902e-06)
(0.000113328 5.30744e-08 2.15105e-05)
(0.000119092 -2.42257e-09 2.56227e-05)
(0.000121101 -2.34312e-08 2.10539e-05)
(0.000117725 4.46995e-08 1.48442e-05)
(0.000109505 1.5678e-08 1.23164e-05)
(9.81961e-05 3.03127e-08 1.26422e-05)
(8.66063e-05 -8.01301e-08 1.12061e-05)
(7.75166e-05 -1.0299e-09 7.92625e-06)
(7.00764e-05 -2.34673e-08 9.4324e-06)
(6.37788e-05 -6.66748e-08 2.0674e-05)
(5.74045e-05 5.49887e-08 3.81962e-05)
(4.79219e-05 -7.07099e-08 5.22029e-05)
(3.55892e-05 -6.10565e-08 6.11429e-05)
(1.85703e-05 -1.53091e-08 7.66631e-05)
(8.10926e-06 3.25879e-07 -0.000146787)
(2.70035e-05 2.54651e-08 -9.47418e-05)
(4.87628e-05 -3.64411e-08 -5.48059e-05)
(6.86329e-05 -4.23401e-08 -2.26666e-05)
(8.60183e-05 -3.92259e-08 -7.29411e-06)
(9.86669e-05 2.02001e-08 -5.57948e-06)
(0.000107834 1.25675e-08 -3.70972e-06)
(0.000117259 8.39575e-08 3.87171e-06)
(0.000128455 8.11692e-08 1.47023e-05)
(0.000137748 -7.93964e-08 2.30537e-05)
(0.000142218 1.51241e-08 2.48822e-05)
(0.000141924 6.95903e-08 2.29095e-05)
(0.000137575 2.91515e-08 2.51132e-05)
(0.000127961 2.91383e-08 2.85793e-05)
(0.000114775 -5.59551e-08 2.68912e-05)
(0.000100547 -2.64339e-08 2.20118e-05)
(8.62104e-05 -1.10374e-08 2.25838e-05)
(7.20703e-05 -8.95582e-08 3.40419e-05)
(6.06328e-05 -2.63774e-08 5.08723e-05)
(5.05702e-05 -1.82067e-08 6.67632e-05)
(3.76245e-05 2.1595e-08 7.93399e-05)
(1.95886e-05 -3.045e-08 0.000100767)
(7.43044e-06 3.22686e-07 -0.000170523)
(2.44425e-05 3.34976e-08 -0.000110676)
(4.58771e-05 -7.25523e-08 -7.26376e-05)
(6.73795e-05 8.5601e-08 -4.02317e-05)
(8.72181e-05 2.47972e-08 -2.09301e-05)
(0.00010473 -3.62711e-08 -1.51793e-05)
(0.000118992 3.63797e-08 -1.20846e-05)
(0.000131904 2.87579e-08 -5.46194e-06)
(0.000145647 -2.8962e-08 5.90702e-06)
(0.000155657 6.91289e-09 1.8985e-05)
(0.000160897 -1.11608e-08 2.52157e-05)
(0.00016279 2.08106e-08 2.66832e-05)
(0.00016274 -1.81433e-09 3.313e-05)
(0.000157746 -2.27908e-08 4.1806e-05)
(0.000145696 -2.68171e-08 4.4011e-05)
(0.000127518 -9.33203e-08 4.21783e-05)
(0.00010649 -4.30643e-09 4.42635e-05)
(8.61354e-05 4.68511e-09 5.22438e-05)
(7.14221e-05 -4.8733e-08 6.65335e-05)
(6.01107e-05 1.03976e-07 8.32952e-05)
(4.4414e-05 -1.79687e-08 9.99046e-05)
(2.30348e-05 -2.63992e-07 0.000127149)
(7.14223e-06 3.01291e-07 -0.000192527)
(2.35887e-05 -5.22735e-08 -0.00012626)
(4.29913e-05 -1.08515e-07 -9.13073e-05)
(6.50562e-05 3.76009e-08 -5.90289e-05)
(8.75485e-05 3.42019e-08 -3.86274e-05)
(0.000110589 -3.45708e-08 -3.16669e-05)
(0.000131766 5.14196e-08 -2.62014e-05)
(0.000149249 1.7685e-08 -1.709e-05)
(0.000163106 -1.78952e-08 -2.21762e-06)
(0.000170934 3.90916e-08 1.60785e-05)
(0.000174704 -1.38898e-08 2.54281e-05)
(0.000177484 -1.02424e-08 2.73267e-05)
(0.000180196 7.96486e-09 3.62901e-05)
(0.000179522 7.56642e-08 5.19721e-05)
(0.000171164 5.42616e-08 6.1674e-05)
(0.000154404 -6.64147e-08 6.61315e-05)
(0.000130296 5.0182e-08 7.08906e-05)
(0.000103505 9.69966e-08 7.59507e-05)
(8.24464e-05 -3.80665e-08 8.45861e-05)
(6.66464e-05 1.58652e-07 0.000100039)
(4.94816e-05 -9.24551e-09 0.000123406)
(2.56305e-05 -5.03569e-07 0.000159042)
(7.49619e-06 2.72967e-07 -0.000214487)
(2.33263e-05 -5.44315e-08 -0.000142381)
(4.17106e-05 -6.66718e-08 -0.000109589)
(6.4749e-05 -3.55673e-08 -7.88109e-05)
(9.05554e-05 2.97863e-08 -5.97829e-05)
(0.000117492 8.29997e-08 -5.28237e-05)
(0.000143 5.20728e-08 -4.44575e-05)
(0.000163105 4.5541e-08 -3.00966e-05)
(0.000175068 3.56427e-09 -8.43617e-06)
(0.000181606 -1.34296e-08 1.50926e-05)
(0.000185211 6.6797e-08 2.56571e-05)
(0.000188001 2.11583e-08 2.67054e-05)
(0.000191118 -9.45589e-09 3.65092e-05)
(0.000191925 3.7781e-08 5.68336e-05)
(0.000187684 5.61828e-08 7.51069e-05)
(0.000175997 3.13826e-08 8.90039e-05)
(0.00015359 -1.85047e-08 0.000100927)
(0.000121364 6.88895e-08 0.00010819)
(8.95513e-05 4.16869e-08 0.000111263)
(6.53225e-05 4.7476e-08 0.000121059)
(4.52501e-05 2.57377e-08 0.000146763)
(2.3368e-05 -3.98547e-07 0.000190627)
(8.09823e-06 3.13585e-07 -0.000237823)
(2.32866e-05 1.99712e-08 -0.000157759)
(4.37567e-05 -2.49826e-08 -0.000128485)
(6.94219e-05 -3.83332e-08 -0.000102075)
(9.95686e-05 -1.99681e-08 -8.58214e-05)
(0.000128179 5.75496e-08 -7.75233e-05)
(0.000153681 -4.30381e-09 -6.37234e-05)
(0.000172841 -2.95415e-09 -4.25332e-05)
(0.000184361 -6.46957e-08 -1.53309e-05)
(0.00019251 -2.9094e-08 1.17406e-05)
(0.000198316 3.93061e-08 2.40263e-05)
(0.0002019 -3.37019e-08 2.66265e-05)
(0.000202909 9.35578e-09 3.83424e-05)
(0.000201581 1.32512e-08 6.07689e-05)
(0.000197803 -9.35469e-09 8.48275e-05)
(0.000188277 1.07203e-07 0.000106732)
(0.000169028 5.75418e-08 0.000129937)
(0.00013857 -1.17677e-08 0.000146815)
(0.000100479 6.22052e-08 0.000148758)
(6.54861e-05 -2.62614e-08 0.000150655)
(3.85272e-05 6.65112e-08 0.000170441)
(1.87727e-05 -7.11859e-08 0.000216281)
(9.19361e-06 3.58332e-07 -0.00026405)
(2.7085e-05 3.87477e-08 -0.000173738)
(5.04982e-05 -7.66109e-09 -0.000149302)
(7.94712e-05 3.17052e-08 -0.000129728)
(0.000112861 -1.72038e-08 -0.00011445)
(0.000143825 4.22185e-09 -0.000102857)
(0.0001681 1.96031e-08 -8.24811e-05)
(0.000186101 -2.79916e-08 -5.38413e-05)
(0.00019854 -4.6045e-09 -2.24966e-05)
(0.000209195 -2.45851e-08 4.75585e-06)
(0.000216942 -2.17293e-10 1.97248e-05)
(0.000220716 -2.81943e-08 2.78216e-05)
(0.000220261 1.38379e-08 4.24767e-05)
(0.000216243 1.02026e-07 6.75832e-05)
(0.000208471 -2.13918e-09 9.54552e-05)
(0.000195569 1.49547e-09 0.000124376)
(0.000176258 7.29301e-08 0.000156059)
(0.000149748 4.23256e-08 0.000182467)
(0.000114525 4.68928e-08 0.00018996)
(7.54478e-05 -4.0419e-08 0.000188743)
(4.10443e-05 7.10015e-08 0.000197687)
(1.80648e-05 6.99905e-08 0.000238202)
(1.14073e-05 3.83048e-07 -0.000295681)
(3.54935e-05 -3.41186e-08 -0.000194324)
(6.25306e-05 -3.09418e-08 -0.000174279)
(9.50026e-05 -3.35619e-10 -0.00015988)
(0.00013052 3.5513e-08 -0.000145093)
(0.000163059 4.29625e-08 -0.000129165)
(0.00018799 -1.25821e-08 -0.000101718)
(0.000206516 -5.82647e-08 -6.60161e-05)
(0.000221336 5.22086e-08 -3.15993e-05)
(0.000233351 1.74646e-08 -3.15347e-06)
(0.000242001 -2.72167e-08 1.54493e-05)
(0.000245719 4.76804e-08 2.91525e-05)
(0.000245606 6.49403e-08 4.85473e-05)
(0.000240215 6.2527e-08 7.82203e-05)
(0.000227107 3.21247e-08 0.000111835)
(0.000206765 -9.00449e-09 0.0001458)
(0.000182957 -1.60568e-08 0.000182109)
(0.000157733 6.47031e-08 0.000212762)
(0.000127167 -2.50448e-08 0.000227295)
(8.98699e-05 -8.06823e-08 0.000229197)
(5.23345e-05 5.23727e-08 0.000229964)
(2.34121e-05 2.13436e-07 0.000264675)
(1.44824e-05 4.38996e-07 -0.000335023)
(4.70997e-05 -1.5205e-07 -0.000221404)
(7.98035e-05 -4.49547e-08 -0.000204449)
(0.000116615 -5.72756e-08 -0.000192824)
(0.000153561 4.37703e-08 -0.000177615)
(0.000186382 2.74754e-08 -0.000156816)
(0.000212968 -4.81559e-08 -0.000122851)
(0.000234414 -6.54575e-08 -8.13646e-05)
(0.00025278 -7.22802e-09 -4.36174e-05)
(0.000266459 1.05654e-07 -1.22589e-05)
(0.000275457 1.77909e-08 1.09913e-05)
(0.000280809 2.20627e-09 2.92276e-05)
(0.000280969 5.11552e-08 5.44311e-05)
(0.000273262 -2.53987e-08 9.25714e-05)
(0.000254696 8.34783e-08 0.000135582)
(0.000227219 6.87239e-08 0.000173936)
(0.000198634 -1.85111e-08 0.000210616)
(0.000170901 2.46564e-08 0.000242239)
(0.000141609 9.32043e-09 0.000262381)
(0.000106182 7.55775e-09 0.000268513)
(6.81763e-05 9.97939e-09 0.000266292)
(3.30431e-05 1.94158e-07 0.000299233)
(1.8126e-05 5.20223e-07 -0.000384191)
(5.86396e-05 -1.21435e-07 -0.000257209)
(9.94335e-05 -4.10027e-09 -0.000240861)
(0.000141409 -1.2341e-08 -0.000230006)
(0.000179933 1.84284e-08 -0.000211462)
(0.000214194 -7.36789e-08 -0.000185145)
(0.000244332 3.69484e-08 -0.000146323)
(0.00027068 6.7891e-08 -0.000100567)
(0.000293685 1.09852e-08 -5.84055e-05)
(0.000310456 1.03806e-07 -2.28546e-05)
(0.000320908 3.01427e-08 5.57304e-06)
(0.000327014 4.41303e-08 2.92676e-05)
(0.000324709 3.94511e-08 6.14288e-05)
(0.000312461 -4.68169e-08 0.000110865)
(0.000288686 1.28063e-07 0.000163978)
(0.000258121 2.94097e-08 0.000206851)
(0.000227446 -1.07263e-08 0.00024257)
(0.000195473 9.9094e-09 0.00027433)
(0.000161005 -1.20223e-08 0.000298258)
(0.000122386 1.90381e-08 0.000308148)
(8.22515e-05 1.19507e-07 0.000306334)
(4.059e-05 7.4972e-09 0.000343876)
(2.12637e-05 6.05622e-07 -0.000444826)
(6.82707e-05 -6.59187e-08 -0.000300885)
(0.00011702 -3.33933e-08 -0.000283393)
(0.000163963 -2.74002e-08 -0.000270802)
(0.000206448 -2.76179e-08 -0.000248126)
(0.000245334 -6.35025e-08 -0.000217288)
(0.000282671 1.37157e-08 -0.000175318)
(0.000316452 4.58985e-08 -0.00012612)
(0.000344656 3.85482e-08 -7.7729e-05)
(0.000365067 5.71798e-08 -3.53311e-05)
(0.000377203 6.52267e-08 9.77997e-08)
(0.000380677 8.88573e-08 3.14313e-05)
(0.000372286 7.94057e-08 7.37398e-05)
(0.000354733 4.25857e-08 0.000133768)
(0.000329672 5.2899e-08 0.00019389)
(0.000300164 4.71955e-08 0.000240753)
(0.000266835 6.9804e-08 0.000278233)
(0.000228259 -4.08109e-08 0.000313071)
(0.000183902 -2.78443e-08 0.000340844)
(0.000136739 -1.02088e-08 0.000353225)
(9.14754e-05 1.87425e-07 0.000350965)
(4.49515e-05 -9.06639e-08 0.000397673)
(2.38063e-05 6.58799e-07 -0.000514507)
(7.6119e-05 -1.41303e-07 -0.00035092)
(0.000130602 1.24936e-08 -0.000332246)
(0.00018388 7.02021e-08 -0.00031741)
(0.00023462 1.28296e-08 -0.000291216)
(0.000282557 6.36006e-08 -0.000257074)
(0.000328271 2.81044e-08 -0.000212149)
(0.000370126 3.56503e-08 -0.000159054)
(0.000403574 6.50223e-08 -0.000103452)
(0.000427318 -4.50281e-08 -5.06687e-05)
(0.000439673 5.84817e-08 -4.09681e-06)
(0.000438283 6.50173e-08 3.91128e-05)
(0.000425407 1.57834e-08 9.18074e-05)
(0.000404558 1.25158e-07 0.000158137)
(0.000380795 -1.75175e-08 0.000222235)
(0.000352872 4.13164e-08 0.000274782)
(0.000313759 4.44018e-08 0.00031988)
(0.000264982 -5.85984e-08 0.000361966)
(0.000209043 -4.30437e-09 0.000393805)
(0.000151229 2.4624e-08 0.00040563)
(9.81757e-05 1.45496e-07 0.000400417)
(4.80473e-05 9.47938e-08 0.000453889)
(2.67841e-05 7.29037e-07 -0.000591061)
(8.48747e-05 -1.61575e-07 -0.000406034)
(0.000146605 4.90302e-08 -0.000387776)
(0.000208683 1.0974e-07 -0.000372611)
(0.000270447 2.32875e-08 -0.000344378)
(0.000329624 2.81024e-08 -0.000306927)
(0.000383092 -3.47532e-09 -0.000257658)
(0.00043018 8.80949e-08 -0.000198486)
(0.000467165 9.75829e-08 -0.000133485)
(0.000493525 -7.72243e-09 -6.73681e-05)
(0.00050611 2.11011e-08 -6.88236e-06)
(0.000501877 -1.25096e-08 5.02304e-05)
(0.000487537 2.86169e-08 0.00011267)
(0.000468079 1.02189e-07 0.000181967)
(0.000445376 5.98601e-09 0.000250254)
(0.000413141 6.17382e-08 0.000312385)
(0.000365828 6.46828e-08 0.000369822)
(0.000307412 2.34891e-08 0.000420617)
(0.000240739 1.83162e-08 0.000456496)
(0.000171649 5.24668e-08 0.000467131)
(0.000107587 8.2759e-08 0.000456773)
(5.10642e-05 -3.45878e-08 0.000514209)
(3.07312e-05 8.97687e-07 -0.000679883)
(9.80193e-05 -4.02007e-08 -0.000468928)
(0.000170043 6.22362e-08 -0.000452035)
(0.000244268 1.58661e-07 -0.000439561)
(0.000318811 7.01868e-08 -0.000408968)
(0.000388135 6.26544e-09 -0.000365989)
(0.000447729 -2.79937e-08 -0.000309456)
(0.000497554 8.60262e-08 -0.000241637)
(0.000536477 9.00956e-08 -0.00016503)
(0.000564318 7.74354e-08 -8.50436e-05)
(0.000577849 3.14178e-09 -9.75236e-06)
(0.000576363 -1.41186e-08 6.06403e-05)
(0.000564691 7.00051e-08 0.000131216)
(0.000545978 7.99013e-08 0.000204802)
(0.000520063 2.03233e-08 0.000281109)
(0.000480254 8.21913e-08 0.000357012)
(0.000424424 8.91092e-08 0.000429144)
(0.000357534 4.90241e-08 0.000489487)
(0.000283188 4.8868e-08 0.000530175)
(0.000203923 5.39682e-08 0.000539754)
(0.000126971 5.90072e-08 0.000521697)
(5.94249e-05 -1.05437e-07 0.000581429)
(3.58354e-05 1.04467e-06 -0.000784376)
(0.000114657 -4.41544e-09 -0.000542931)
(0.000199471 6.18855e-08 -0.000528571)
(0.000288877 1.0031e-07 -0.000520733)
(0.000377345 7.01542e-08 -0.000485939)
(0.000455555 6.65925e-08 -0.000433478)
(0.000521544 4.74275e-08 -0.000365344)
(0.000574045 3.95561e-08 -0.000286456)
(0.000615277 7.80607e-08 -0.00019819)
(0.000644807 1.23137e-07 -0.000105574)
(0.000662532 5.7056e-08 -1.61077e-05)
(0.000665961 4.22668e-08 6.65559e-05)
(0.000657849 1.84798e-08 0.000146537)
(0.000637493 5.82918e-08 0.000229617)
(0.000604042 3.52518e-08 0.000319239)
(0.000554945 4.58968e-08 0.000410525)
(0.000492799 3.50001e-08 0.000495383)
(0.000420432 1.23194e-09 0.000564753)
(0.000340287 4.83924e-08 0.000612051)
(0.000253362 6.8123e-08 0.000623691)
(0.000164359 6.52035e-08 0.000599839)
(7.75184e-05 -1.47194e-07 0.000664094)
(4.15017e-05 1.18363e-06 -0.000905124)
(0.000133841 -8.14487e-08 -0.000631324)
(0.000233551 5.38574e-08 -0.000621386)
(0.000339624 4.77495e-08 -0.000616785)
(0.00044243 6.81266e-08 -0.000574596)
(0.000531271 7.65221e-08 -0.000508413)
(0.000604584 1.54978e-07 -0.000425729)
(0.00066274 5.23844e-08 -0.000333146)
(0.000709009 8.23204e-08 -0.000233529)
(0.000742315 4.98549e-08 -0.000129611)
(0.000763913 9.80105e-08 -2.76741e-05)
(0.000771758 1.11758e-07 6.81482e-05)
(0.00076456 3.93274e-08 0.000161288)
(0.000740788 -6.02923e-08 0.00025933)
(0.000700729 8.17803e-08 0.000365187)
(0.000644785 1.18153e-07 0.000471588)
(0.0005771 -4.8316e-08 0.000566828)
(0.000499773 1.40245e-08 0.000644548)
(0.000413983 4.54708e-08 0.000699319)
(0.000320601 6.17262e-08 0.000717098)
(0.000218682 1.3677e-07 0.000695713)
(0.000105069 -3.03869e-07 0.00077645)
(4.86429e-05 1.29874e-06 -0.00104353)
(0.000157758 -1.86151e-07 -0.000734813)
(0.000275046 1.04022e-09 -0.000731729)
(0.000398383 2.96663e-08 -0.000729531)
(0.00051539 8.29283e-08 -0.00067671)
(0.000617579 6.65504e-08 -0.000593591)
(0.000702241 1.52121e-07 -0.000494917)
(0.000770003 1.1415e-07 -0.000387077)
(0.000823003 1.1117e-07 -0.000274107)
(0.000861173 6.1463e-08 -0.00015791)
(0.000885081 7.19957e-08 -4.32655e-05)
(0.000894239 8.71648e-08 6.74019e-05)
(0.000885467 9.06996e-08 0.000177952)
(0.000859343 -3.57138e-08 0.000294016)
(0.000815681 3.48675e-08 0.000416413)
(0.000755572 4.81425e-08 0.000537183)
(0.000681326 4.93509e-08 0.000644203)
(0.000596179 6.43392e-08 0.00072992)
(0.000500877 6.58718e-08 0.000793508)
(0.000395461 4.26837e-08 0.000820762)
(0.000275891 1.96498e-07 0.000812191)
(0.000133748 -2.06061e-07 0.000922874)
(5.84402e-05 1.52751e-06 -0.00120815)
(0.000190097 -1.7281e-07 -0.000859124)
(0.000327796 -6.15685e-08 -0.000860567)
(0.000467923 3.4579e-08 -0.000858081)
(0.000599431 1.02756e-07 -0.000793591)
(0.000717401 7.94821e-08 -0.000692947)
(0.000817279 6.31724e-08 -0.000576545)
(0.000898482 1.34923e-07 -0.000451031)
(0.000960486 6.3425e-08 -0.000320821)
(0.00100463 7.7321e-08 -0.000188845)
(0.00103084 6.29748e-08 -5.8687e-05)
(0.0010398 6.15701e-08 6.83843e-05)
(0.00102793 -3.39071e-08 0.000196095)
(0.00099917 -1.1247e-09 0.000330587)
(0.000950743 8.10656e-08 0.000470896)
(0.000885697 -4.21272e-08 0.000608116)
(0.000803995 7.84648e-08 0.000729151)
(0.000706755 1.12816e-07 0.000827844)
(0.00059458 9.02432e-08 0.000902961)
(0.000467683 5.84325e-08 0.000942525)
(0.00032367 1.9043e-07 0.000952135)
(0.000155385 -2.19563e-07 0.00110192)
(7.06051e-05 1.82578e-06 -0.00140806)
(0.000230217 -2.75398e-07 -0.00100744)
(0.000389885 -7.66384e-08 -0.00100725)
(0.000547068 4.31725e-08 -0.00100227)
(0.00069441 5.90011e-08 -0.000926092)
(0.000828475 1.00842e-07 -0.000809624)
(0.000945526 7.871e-08 -0.000674838)
(0.00104315 7.84709e-08 -0.000529035)
(0.00111849 2.87474e-08 -0.000377797)
(0.00117289 1.22346e-07 -0.000225885)
(0.00120545 3.39976e-08 -7.67616e-05)
(0.00121516 2.55789e-08 7.02274e-05)
(0.0012003 -2.02717e-08 0.000218185)
(0.00116509 4.5127e-08 0.000371651)
(0.00110937 5.76554e-08 0.000530497)
(0.00103455 2.26232e-08 0.000686954)
(0.000942091 4.13717e-08 0.000826532)
(0.000829324 1.63084e-07 0.000942828)
(0.000694413 1.10514e-07 0.00103488)
(0.000539234 1.09515e-07 0.00109048)
(0.000365827 2.38991e-07 0.0011166)
(0.000173844 -2.73445e-07 0.00130584)
(8.3021e-05 2.1693e-06 -0.00164602)
(0.000271596 -3.48431e-07 -0.00118336)
(0.000454023 -6.74564e-08 -0.00117504)
(0.000629341 4.02833e-08 -0.00116304)
(0.00079481 1.16338e-07 -0.00107429)
(0.000945873 1.0914e-07 -0.000943883)
(0.00108236 6.00367e-08 -0.000790795)
(0.00119904 9.71348e-08 -0.000622666)
(0.00129158 5.13413e-08 -0.000447914)
(0.00135992 2.98211e-08 -0.000274881)
(0.00140384 -3.43898e-09 -0.000102274)
(0.00141906 3.6208e-08 7.07865e-05)
(0.00140491 9.78453e-08 0.000245019)
(0.00136199 9.7807e-08 0.000421463)
(0.00129612 3.57443e-08 0.000601584)
(0.0012084 5.58897e-08 0.000777691)
(0.00109999 3.44847e-08 0.000938814)
(0.000966068 9.55958e-08 0.00107859)
(0.000805624 9.97372e-08 0.00119426)
(0.000619959 1.96255e-07 0.0012693)
(0.000416112 2.18866e-07 0.0013097)
(0.000196707 -2.4549e-07 0.00153419)
(9.5406e-05 2.53557e-06 -0.00192428)
(0.00030941 -4.07229e-07 -0.00138457)
(0.000512238 -8.12226e-08 -0.00136171)
(0.000705823 3.03511e-08 -0.00134261)
(0.000891043 8.59749e-08 -0.00124173)
(0.00106301 8.12641e-08 -0.00109742)
(0.00122123 8.50555e-08 -0.000926575)
(0.00135926 9.20057e-08 -0.000736436)
(0.00147158 1.02e-07 -0.000537794)
(0.001558 1.80069e-08 -0.000340494)
(0.00161769 1.02712e-07 -0.00014043)
(0.00164492 1.29297e-07 6.57707e-05)
(0.00163721 1.04708e-07 0.000273298)
(0.00159322 4.67485e-08 0.000478586)
(0.00151872 6.8657e-08 0.000683299)
(0.00141706 4.20577e-08 0.000883792)
(0.00128834 7.39953e-08 0.00107125)
(0.00112728 7.30006e-08 0.00123957)
(0.000936966 7.7278e-08 0.00138293)
(0.000718994 2.37884e-07 0.00147954)
(0.000482183 2.59659e-07 0.00153479)
(0.000226994 -3.45416e-07 0.00179562)
(0.000105599 2.82884e-06 -0.00223813)
(0.000336944 -4.74005e-07 -0.00160619)
(0.000553082 -1.16985e-07 -0.00156662)
(0.000761869 -6.09569e-09 -0.00154073)
(0.000964701 9.40431e-08 -0.00142942)
(0.00115721 9.8387e-08 -0.00127277)
(0.00133762 8.74388e-08 -0.00108622)
(0.00150029 3.49953e-08 -0.000873512)
(0.00163963 4.99949e-08 -0.000650102)
(0.001754 5.56467e-08 -0.000426971)
(0.00183878 1.67633e-07 -0.000195669)
(0.00188782 1.10472e-07 4.85682e-05)
(0.00189535 4.31925e-08 0.000295166)
(0.00185976 -2.95816e-08 0.000536801)
(0.00178312 1.22421e-08 0.000773651)
(0.00166985 7.16593e-08 0.00100595)
(0.00151843 1.7402e-07 0.00122776)
(0.00132763 1.15412e-07 0.00143079)
(0.00110193 7.26617e-08 0.0016058)
(0.000846538 1.51892e-07 0.00172586)
(0.000568476 4.16967e-07 0.00179776)
(0.000266908 -4.54776e-07 0.00210226)
(0.000111778 2.98705e-06 -0.00257404)
(0.000344891 -5.95258e-07 -0.00183554)
(0.000560325 -1.2463e-07 -0.00177997)
(0.000770345 4.12451e-08 -0.00175095)
(0.000976269 4.75308e-08 -0.00163278)
(0.00117833 1.10021e-07 -0.00146785)
(0.0013769 8.80013e-08 -0.00127142)
(0.00157121 4.18921e-08 -0.00104272)
(0.00175281 6.86485e-08 -0.000798366)
(0.00191513 6.59926e-08 -0.000548182)
(0.00204569 1.13348e-07 -0.000282319)
(0.0021349 4.71153e-08 4.45177e-06)
(0.0021737 5.85531e-08 0.000296904)
(0.0021589 6.24599e-08 0.000585389)
(0.00209024 -2.55725e-08 0.000867554)
(0.00197088 3.99784e-08 0.00114398)
(0.00179919 1.02117e-07 0.00140978)
(0.00157913 3.85083e-08 0.00165589)
(0.00131426 1.1923e-07 0.00186791)
(0.00101179 1.67464e-07 0.00201686)
(0.000679879 5.69815e-07 0.00210916)
(0.000318437 -3.99702e-07 0.00246687)
(0.000114311 3.18523e-06 -0.00291845)
(0.000333323 -6.59035e-07 -0.0020543)
(0.000518939 -1.46689e-07 -0.00198104)
(0.000696634 4.33972e-08 -0.00194963)
(0.00087311 8.09694e-08 -0.00182953)
(0.00105852 1.32808e-07 -0.00166921)
(0.00126249 9.28223e-08 -0.00148027)
(0.00149063 5.91273e-08 -0.0012558)
(0.00173494 8.05854e-08 -0.00100528)
(0.00197422 6.09895e-08 -0.000732148)
(0.00218519 3.14924e-08 -0.000427326)
(0.00234769 4.67814e-08 -9.124e-05)
(0.00244812 4.81174e-08 0.000259587)
(0.00247745 1.10382e-07 0.000610883)
(0.00243412 2.84032e-10 0.000955573)
(0.00231946 2.6715e-08 0.00129141)
(0.00213506 1.5166e-08 0.00161542)
(0.00188729 2.10233e-08 0.00191597)
(0.00157952 1.48641e-07 0.00217563)
(0.00121994 1.87945e-07 0.00236361)
(0.000820666 6.42861e-07 0.00248435)
(0.000383627 -2.1504e-07 0.00290473)
(0.000117114 3.52131e-06 -0.00326428)
(0.000313469 -6.88757e-07 -0.00223822)
(0.000437623 -2.28089e-07 -0.00212932)
(0.000536507 6.18368e-08 -0.00209223)
(0.000633162 1.26053e-07 -0.00197933)
(0.000753543 1.31082e-07 -0.00184534)
(0.000925886 1.18204e-07 -0.00169886)
(0.00116877 7.48112e-08 -0.00151885)
(0.00147913 9.33237e-08 -0.00129447)
(0.00182307 1.32201e-07 -0.00101663)
(0.00215968 1.17941e-07 -0.000674973)
(0.00244974 9.19972e-08 -0.000279423)
(0.00266404 2.90252e-08 0.000148173)
(0.00278221 6.01055e-08 0.000585193)
(0.00279774 5.57248e-08 0.00101669)
(0.00271077 2.44676e-08 0.0014352)
(0.00252688 4.55647e-08 0.00183759)
(0.00225538 9.15346e-08 0.00221152)
(0.00190168 1.32891e-07 0.0025371)
(0.00147652 1.8339e-07 0.0027783)
(0.000995915 7.21166e-07 0.00293876)
(0.000464263 -2.90104e-07 0.00343499)
(0.000125206 4.04094e-06 -0.00361779)
(0.000311556 -8.69799e-07 -0.00237649)
(0.000370673 -2.79419e-07 -0.00219499)
(0.000368786 6.46491e-08 -0.00213336)
(0.000343061 1.73595e-07 -0.00202571)
(0.000335667 7.62644e-08 -0.00193626)
(0.000398616 1.2137e-07 -0.00187401)
(0.000580311 1.09041e-07 -0.00179922)
(0.000902678 1.33136e-07 -0.00166545)
(0.00134072 1.36664e-07 -0.00143191)
(0.00183679 1.22236e-07 -0.00107993)
(0.0023204 2.24486e-08 -0.000624779)
(0.00272741 2.01357e-08 -0.0001007)
(0.00301105 2.59793e-08 0.000454808)
(0.00314727 5.73836e-08 0.00101067)
(0.00313167 3.36909e-08 0.00155029)
(0.00297379 5.29264e-08 0.00206407)
(0.00268919 1.53136e-07 0.00253943)
(0.00229016 1.60494e-07 0.00295584)
(0.00179238 1.77e-07 0.00327103)
(0.00121448 8.09711e-07 0.00348832)
(0.000565178 -4.51087e-07 0.00408213)
(0.000148008 4.69623e-06 -0.00400949)
(0.000370385 -9.14057e-07 -0.00249555)
(0.000419784 -2.58866e-07 -0.00219263)
(0.000357539 2.63152e-08 -0.00206547)
(0.000217401 1.36744e-07 -0.00193088)
(4.65162e-05 1.18926e-07 -0.00186923)
(-8.57802e-05 1.8438e-07 -0.0019067)
(-9.32667e-05 1.75719e-07 -0.00198836)
(9.6479e-05 4.84398e-08 -0.00203558)
(0.000511552 7.57791e-08 -0.00195122)
(0.00111624 5.69513e-08 -0.00167402)
(0.00181976 7.28483e-08 -0.00120223)
(0.00250265 1.03397e-07 -0.000580363)
(0.00305846 8.14533e-08 0.000130191)
(0.00341591 2.86135e-08 0.000868991)
(0.00354938 8.17467e-08 0.00159067)
(0.00346739 6.87914e-08 0.00226947)
(0.00319483 4.24207e-08 0.00289092)
(0.00275638 1.01368e-07 0.00343478)
(0.00217865 2.56192e-07 0.00385497)
(0.00148513 8.70309e-07 0.00415487)
(0.000690535 -5.63183e-07 0.00487362)
(0.000197652 5.89412e-06 -0.0045087)
(0.000545514 -9.77302e-07 -0.00267666)
(0.000689979 -3.27641e-07 -0.00220083)
(0.000661102 -9.14259e-09 -0.00194615)
(0.000477892 1.09576e-07 -0.00171624)
(0.000180224 2.3221e-07 -0.00161891)
(-0.000159525 1.60005e-07 -0.00170466)
(-0.000442221 1.27339e-07 -0.0019332)
(-0.000553873 5.47364e-08 -0.00221973)
(-0.000390858 1.12906e-07 -0.00241086)
(0.000108648 2.83198e-08 -0.00237381)
(0.000905581 1.21262e-07 -0.00202858)
(0.00186137 1.68323e-07 -0.00137964)
(0.002781 7.66712e-08 -0.000505325)
(0.0034918 7.04374e-08 0.00048058)
(0.00389674 5.62796e-08 0.00147228)
(0.0039803 3.90215e-08 0.00240278)
(0.00377051 1.95288e-08 0.00324252)
(0.00331239 7.98208e-08 0.00397128)
(0.00265003 3.67734e-07 0.00454247)
(0.00182109 1.01237e-06 0.00496467)
(0.000847073 -7.03387e-07 0.00584369)
(0.000284709 7.84414e-06 -0.00522524)
(0.000872177 -1.31982e-06 -0.00303463)
(0.00122974 -3.809e-07 -0.00233225)
(0.00134541 3.50262e-08 -0.00187803)
(0.0012286 8.97412e-08 -0.00146668)
(0.000908477 1.71606e-07 -0.00124072)
(0.000445804 1.81054e-07 -0.00127587)
(-7.6092e-05 1.54435e-07 -0.00156551)
(-0.000543499 1.15721e-07 -0.00203905)
(-0.000804734 1.81759e-07 -0.00254602)
(-0.000705504 1.06373e-07 -0.00290807)
(-0.000150372 1.36503e-07 -0.00292629)
(0.000844871 1.86652e-07 -0.00247089)
(0.00207113 7.98177e-08 -0.00154596)
(0.00322974 9.06679e-08 -0.000298307)
(0.00406249 7.68048e-08 0.00106242)
(0.00445292 5.74211e-08 0.00237083)
(0.00440014 4.65008e-08 0.00354647)
(0.00396692 5.63804e-08 0.00455382)
(0.0032255 2.91821e-07 0.0053467)
(0.00223843 1.0589e-06 0.00594812)
(0.0010418 -1.0651e-06 0.00703837)
(0.000409548 1.04694e-05 -0.00628391)
(0.00134333 -1.71934e-06 -0.0036894)
(0.00202309 -4.16818e-07 -0.00269695)
(0.00239086 -2.69426e-08 -0.00197235)
(0.00245783 7.8323e-08 -0.00130124)
(0.00224538 1.44456e-07 -0.00085647)
(0.00180011 1.83903e-07 -0.000734675)
(0.00117896 1.22691e-07 -0.000951904)
(0.00046735 1.16387e-07 -0.00147147)
(-0.000208228 1.90693e-07 -0.00219452)
(-0.000668322 1.92558e-07 -0.00295981)
(-0.000686403 1.14795e-07 -0.00349587)
(-0.000110603 1.76484e-07 -0.00355731)
(0.00105915 1.29588e-07 -0.00290536)
(0.00254735 1.36711e-07 -0.00156565)
(0.00390864 1.06217e-07 0.000191915)
(0.0047859 8.06437e-08 0.002027)
(0.00504088 8.49345e-08 0.00371119)
(0.00471617 1.28391e-07 0.00514536)
(0.003918 3.14828e-07 0.00627352)
(0.00275009 1.19044e-06 0.00713961)
(0.0012814 -1.58853e-06 0.00851278)
(0.000564581 1.37272e-05 -0.00779666)
(0.00193348 -2.08252e-06 -0.0047443)
(0.00303616 -4.44199e-07 -0.00339673)
(0.00376196 -6.21998e-08 -0.00233895)
(0.00412957 1.02977e-07 -0.00134567)
(0.00415862 1.06098e-07 -0.000609124)
(0.0038831 1.50626e-07 -0.000238034)
(0.00333686 1.44949e-07 -0.00025819)
(0.00256545 1.42707e-07 -0.000661507)
(0.00164642 7.10938e-08 -0.00140275)
(0.00071955 1.77944e-07 -0.00237969)
(4.3016e-06 1.48797e-07 -0.00339325)
(-0.000210405 1.80301e-07 -0.00412437)
(0.000333221 1.69557e-07 -0.00415436)
(0.00165708 1.41765e-07 -0.00317324)
(0.00337792 1.0867e-07 -0.00124365)
(0.00485627 5.50103e-08 0.00118186)
(0.00561339 7.57038e-08 0.00359093)
(0.00553179 1.17717e-07 0.00567599)
(0.00472855 3.5319e-07 0.00731782)
(0.00336612 1.38735e-06 0.00857812)
(0.00157209 -2.18038e-06 0.010328)
(0.000747273 1.74524e-05 -0.00985541)
(0.00263672 -2.63354e-06 -0.0062946)
(0.00426614 -5.08424e-07 -0.00453666)
(0.0054664 -6.04219e-08 -0.00309204)
(0.00625894 4.09045e-08 -0.0017252)
(0.00666609 7.38577e-08 -0.000639976)
(0.00671044 1.16085e-07 5.28423e-05)
(0.00640779 1.7404e-07 0.000330642)
(0.00576757 1.53588e-07 0.000190266)
(0.00481728 9.37509e-08 -0.000363165)
(0.00362936 8.62227e-08 -0.00129961)
(0.00236335 1.56872e-07 -0.00251824)
(0.00129138 1.12471e-07 -0.0037834)
(0.000800188 1.57144e-07 -0.00466274)
(0.00126627 1.68628e-07 -0.00456683)
(0.0027355 1.7904e-07 -0.00305842)
(0.00462021 9.89918e-08 -0.000289658)
(0.00601652 -1.72749e-08 0.00299111)
(0.00636389 1.11104e-07 0.00602798)
(0.00564896 4.08722e-07 0.00845034)
(0.00409507 1.62993e-06 0.0102962)
(0.00192094 -2.71984e-06 0.0125506)
(0.0009626 2.1832e-05 -0.012555)
(0.00347248 -3.26584e-06 -0.00844482)