/*--------------------------------*- C++ -*----------------------------------*\
  =========                 |
  \\      /  F ield         | OpenFOAM: The Open Source CFD Toolbox
   \\    /   O peration     | Website:  https://openfoam.org
    \\  /    A nd           | Version:  7
     \\/     M anipulation  |
\*---------------------------------------------------------------------------*/
FoamFile
{
    version     2.0;
    format      ascii;
    class       volScalarField;
    location    "9";
    object      ddt0(h);
}
// * * * * * * * * * * * * * * * * * * * * * * * * * * * * * * * * * * * * * //

dimensions      [0 1 -1 0 0 0 0];

internalField   nonuniform List<scalar> 
400
(
1.84061e-07
1.24086e-07
2.36202e-08
-2.61518e-08
-6.74426e-08
-9.59494e-08
-1.02876e-07
-6.67579e-08
-9.76974e-09
5.09476e-08
8.94393e-08
1.18922e-07
1.52692e-07
1.64569e-07
1.54002e-07
1.21838e-07
8.08608e-08
4.40722e-08
1.84668e-08
4.56709e-09
2.02437e-07
1.36036e-07
7.26415e-08
-2.74228e-08
-6.1967e-08
-7.10821e-08
-5.9814e-08
-2.38305e-08
5.34994e-09
4.4066e-08
3.85636e-08
1.00131e-07
1.11381e-07
1.16864e-07
1.13088e-07
9.56133e-08
6.74954e-08
4.03727e-08
1.95959e-08
5.57855e-09
1.77069e-07
3.62893e-08
6.42835e-08
8.7791e-08
2.88118e-08
2.79773e-09
-2.8933e-08
-3.19784e-08
-2.84238e-08
-2.41625e-08
2.82701e-08
3.97496e-08
6.36701e-08
7.36968e-08
7.60237e-08
6.76027e-08
5.20053e-08
3.56622e-08
2.06938e-08
6.87561e-09
1.33958e-07
1.53259e-07
2.25919e-08
3.04297e-08
3.87216e-08
1.75284e-08
1.603e-08
-1.40066e-09
-9.65201e-09
-2.40948e-08
-7.51665e-09
-6.10361e-09
9.18229e-09
3.08551e-08
4.16807e-08
4.03715e-08
3.35277e-08
2.50789e-08
1.50956e-08
4.86866e-09
1.24541e-07
1.06114e-07
1.2161e-07
9.37254e-08
9.6088e-08
7.84841e-08
5.18946e-08
4.08326e-08
-1.15006e-08
-4.84006e-08
-6.17061e-08
-6.61231e-08
-5.39908e-08
-3.1554e-08
-1.24719e-08
9.81396e-10
8.35009e-09
8.85026e-09
5.29572e-09
1.72041e-09
1.05225e-07
1.01449e-07
1.05718e-07
1.16034e-07
1.21715e-07
9.01754e-08
8.66192e-08
2.69961e-08
7.40737e-09
-2.93392e-08
-6.86044e-08
-8.04872e-08
-7.41128e-08
-6.19258e-08
-4.83036e-08
-3.2271e-08
-1.8673e-08
-1.15488e-08
-7.56301e-09
-2.84655e-09
8.47695e-08
1.03043e-07
1.05103e-07
1.22196e-07
1.06931e-07
1.16328e-07
6.99102e-08
5.49581e-08
5.24455e-09
-3.48321e-08
-5.81238e-08
-7.01304e-08
-7.39141e-08
-7.44858e-08
-6.69899e-08
-5.2025e-08
-3.74699e-08
-2.55798e-08
-1.46296e-08
-4.53396e-09
7.31396e-08
8.03759e-08
9.89582e-08
9.96177e-08
1.07333e-07
6.69893e-08
6.65645e-08
2.83364e-08
9.6633e-09
-1.09407e-08
-4.02645e-08
-5.93135e-08
-6.99529e-08
-7.14795e-08
-6.49155e-08
-5.59254e-08
-4.59492e-08
-3.19007e-08
-1.67435e-08
-4.98273e-09
4.73924e-08
5.48515e-08
6.31206e-08
6.8275e-08
6.44182e-08
5.86398e-08
3.62505e-08
2.10746e-08
9.8905e-09
-1.02541e-08
-2.69056e-08
-3.79642e-08
-4.49545e-08
-4.58562e-08
-4.37388e-08
-4.2848e-08
-3.89329e-08
-2.69606e-08
-1.29268e-08
-3.36999e-09
1.35815e-08
2.09305e-08
2.28553e-08
2.62443e-08
1.64776e-08
2.38841e-08
1.41408e-08
1.56838e-08
5.09496e-09
-1.54082e-09
-3.82443e-09
-7.58978e-09
-1.23663e-08
-1.46941e-08
-1.55612e-08
-1.69187e-08
-1.6145e-08
-1.0954e-08
-4.72865e-09
-1.05991e-09
-1.37716e-08
-2.10461e-08
-2.29583e-08
-2.63595e-08
-1.64692e-08
-2.39205e-08
-1.40816e-08
-1.56717e-08
-5.02676e-09
1.65343e-09
3.92474e-09
7.71106e-09
1.25456e-08
1.49048e-08
1.57708e-08
1.71069e-08
1.6299e-08
1.10705e-08
4.80278e-09
1.0856e-09
-4.75215e-08
-5.49935e-08
-6.3231e-08
-6.83411e-08
-6.4488e-08
-5.86036e-08
-3.62395e-08
-2.09909e-08
-9.83104e-09
1.0342e-08
2.70582e-08
3.81226e-08
4.50998e-08
4.60179e-08
4.39168e-08
4.30107e-08
3.90666e-08
2.70665e-08
1.29937e-08
3.39182e-09
-7.31993e-08
-8.04296e-08
-9.90192e-08
-9.96444e-08
-1.07364e-07
-6.70125e-08
-6.65729e-08
-2.83327e-08
-9.61507e-09
1.09628e-08
4.03366e-08
5.94221e-08
7.00675e-08
7.16218e-08
6.50657e-08
5.60519e-08
4.60579e-08
3.19994e-08
1.68102e-08
5.0037e-09
-8.48412e-08
-1.03243e-07
-1.05119e-07
-1.22203e-07
-1.06945e-07
-1.16301e-07
-6.98983e-08
-5.49024e-08
-5.22751e-09
3.4881e-08
5.81958e-08
7.02376e-08
7.40515e-08
7.4627e-08
6.71191e-08
5.21441e-08
3.75777e-08
2.56653e-08
1.46805e-08
4.54962e-09
-1.05314e-07
-1.01307e-07
-1.05735e-07
-1.1608e-07
-1.21688e-07
-9.01575e-08
-8.65888e-08
-2.69926e-08
-7.34041e-09
2.93926e-08
6.86473e-08
8.0591e-08
7.42719e-08
6.20853e-08
4.84413e-08
3.239e-08
1.87652e-08
1.16111e-08
7.60646e-09
2.8654e-09
-1.24585e-07
-1.06033e-07
-1.21618e-07
-9.37306e-08
-9.60686e-08
-7.84639e-08
-5.18636e-08
-4.07759e-08
1.15296e-08
4.84631e-08
6.17872e-08
6.62331e-08
5.41437e-08
3.17143e-08
1.2614e-08
-8.62982e-10
-8.2562e-09
-8.78255e-09
-5.24481e-09
-1.697e-09
-1.33972e-07
-1.53346e-07
-2.27367e-08
-3.04357e-08
-3.87034e-08
-1.75146e-08
-1.59942e-08
1.45501e-09
9.72538e-09
2.41793e-08
7.64895e-09
6.21945e-09
-9.04876e-09
-3.07032e-08
-4.15372e-08
-4.02467e-08
-3.3418e-08
-2.49967e-08
-1.50503e-08
-4.85398e-09
-1.77102e-07
-3.66314e-08
-6.41591e-08
-8.77919e-08
-2.88335e-08
-2.7704e-09
2.89888e-08
3.20272e-08
2.85422e-08
2.43617e-08
-2.80012e-08
-3.95539e-08
-6.35122e-08
-7.35409e-08
-7.58777e-08
-6.74767e-08
-5.18967e-08
-3.55845e-08
-2.06626e-08
-6.87247e-09
-2.02519e-07
-1.35926e-07
-7.27879e-08
2.73324e-08
6.19094e-08
7.11325e-08
5.99259e-08
2.39566e-08
-5.16743e-09
-4.43557e-08
-3.84338e-08
-9.99837e-08
-1.1119e-07
-1.16719e-07
-1.12971e-07
-9.55121e-08
-6.74129e-08
-4.03105e-08
-1.95627e-08
-5.56924e-09
-1.84096e-07
-1.24229e-07
-2.38279e-08
2.59969e-08
6.73552e-08
9.59599e-08
1.02979e-07
6.70213e-08
1.00534e-08
-5.01822e-08
-8.91728e-08
-1.1862e-07
-1.52485e-07
-1.6441e-07
-1.53874e-07
-1.21732e-07
-8.07836e-08
-4.40194e-08
-1.84292e-08
-4.55089e-09
)
;

boundaryField
{
    sides
    {
        type            calculated;
        value           nonuniform List<scalar> 
40
(
-1.84096e-07
-1.24229e-07
-2.38279e-08
2.59969e-08
6.73552e-08
9.59599e-08
1.02979e-07
6.70213e-08
1.00534e-08
-5.01822e-08
-8.91728e-08
-1.1862e-07
-1.52485e-07
-1.6441e-07
-1.53874e-07
-1.21732e-07
-8.07836e-08
-4.40194e-08
-1.84292e-08
-4.55089e-09
1.84061e-07
1.24086e-07
2.36202e-08
-2.61518e-08
-6.74426e-08
-9.59494e-08
-1.02876e-07
-6.67579e-08
-9.76974e-09
5.09476e-08
8.94393e-08
1.18922e-07
1.52692e-07
1.64569e-07
1.54002e-07
1.21838e-07
8.08608e-08
4.40722e-08
1.84668e-08
4.56709e-09
)
;
    }
    inlet
    {
        type            calculated;
        value           nonuniform List<scalar> 
20
(
1.84061e-07
2.02437e-07
1.77069e-07
1.33958e-07
1.24541e-07
1.05225e-07
8.47695e-08
7.31396e-08
4.73924e-08
1.35815e-08
-1.37716e-08
-4.75215e-08
-7.31993e-08
-8.48412e-08
-1.05314e-07
-1.24585e-07
-1.33972e-07
-1.77102e-07
-2.02519e-07
-1.84096e-07
)
;
    }
    outlet
    {
        type            calculated;
        value           uniform 0;
    }
    frontAndBack
    {
        type            empty;
    }
}


// ************************************************************************* //
