/*--------------------------------*- C++ -*----------------------------------*\
  =========                 |
  \\      /  F ield         | OpenFOAM: The Open Source CFD Toolbox
   \\    /   O peration     | Website:  https://openfoam.org
    \\  /    A nd           | Version:  7
     \\/     M anipulation  |
\*---------------------------------------------------------------------------*/
FoamFile
{
    version     2.0;
    format      ascii;
    class       surfaceScalarField;
    location    "9";
    object      ddtCorrDdt0(phi);
}
// * * * * * * * * * * * * * * * * * * * * * * * * * * * * * * * * * * * * * //

dimensions      [0 4 -2 0 0 0 0];

internalField   nonuniform List<scalar> 
760
(
9.3193e-11
7.54556e-11
1.51268e-10
6.55102e-11
1.21056e-10
7.5987e-11
1.34389e-10
1.89916e-10
1.19475e-10
1.23324e-10
1.03003e-10
7.13273e-11
1.02515e-10
-1.61739e-12
1.20626e-10
-6.69146e-11
1.5334e-10
-1.23455e-10
2.19235e-10
-3.42491e-11
2.45339e-10
-7.1622e-11
2.69229e-10
-7.32927e-11
2.77827e-10
-2.69214e-11
2.49662e-10
4.5154e-11
1.92351e-10
9.3117e-11
1.34102e-10
1.06324e-10
9.09122e-11
8.61849e-11
6.76706e-11
4.89903e-11
6.64887e-11
1.06408e-11
-2.07336e-11
1.3305e-10
8.15966e-11
2.27114e-10
1.0601e-10
2.0101e-10
1.18169e-10
9.39001e-11
3.57971e-10
3.93301e-11
2.57706e-10
1.40275e-12
1.43052e-10
4.17308e-12
9.27367e-12
5.18439e-11
-1.18398e-10
1.20113e-10
-1.89684e-10
1.72861e-10
-2.08465e-10
2.72477e-10
-2.21651e-10
3.5116e-10
-1.26593e-10
3.31206e-10
-2.36665e-11
2.72708e-10
9.53545e-11
2.12109e-10
1.778e-10
1.64494e-10
1.95709e-10
1.28428e-10
1.58814e-10
1.08025e-10
8.92055e-11
1.01628e-10
2.45261e-11
-2.85804e-11
5.86093e-11
1.15348e-10
-1.96702e-12
3.47897e-10
1.50314e-10
3.90291e-10
1.60218e-10
3.95666e-10
1.10942e-10
3.8108e-10
6.75119e-11
2.41112e-10
6.32864e-11
5.66494e-11
1.14475e-10
-9.96858e-11
1.6425e-10
-2.3485e-10
2.1116e-10
-2.98093e-10
2.57972e-10
-2.56561e-10
2.54641e-10
-1.83545e-10
2.29237e-10
-5.07854e-11
1.88003e-10
8.86401e-11
1.46397e-10
2.0001e-10
1.089e-10
2.36051e-10
8.05037e-11
1.96809e-10
6.75399e-11
1.10625e-10
7.11358e-11
2.8514e-11
-4.7647e-11
9.84723e-11
1.17677e-10
1.90344e-10
3.42295e-10
5.0582e-11
6.3094e-10
2.59508e-11
5.48589e-10
-2.10343e-11
4.90836e-10
-3.78641e-11
3.46113e-10
-1.58508e-11
1.14764e-10
2.79067e-11
-8.35485e-11
1.05245e-10
-2.19652e-10
2.02291e-10
-3.24513e-10
2.97262e-10
-3.36626e-10
3.37896e-10
-2.37768e-10
3.21245e-10
-4.92992e-11
2.54678e-10
1.46967e-10
1.76658e-10
2.67841e-10
1.15793e-10
2.84941e-10
7.97407e-11
2.25632e-10
7.1758e-11
1.21802e-10
7.91581e-11
3.14004e-11
-5.34593e-11
6.1286e-11
1.21581e-10
7.18806e-11
3.50793e-10
9.21936e-11
5.49474e-10
2.57434e-11
6.22878e-10
1.2069e-12
6.04778e-10
-3.60292e-11
4.08623e-10
6.00782e-12
2.17354e-10
4.22761e-11
-3.09019e-13
9.10674e-11
-1.79105e-10
1.8206e-10
-2.73744e-10
2.21305e-10
-2.99288e-10
2.18961e-10
-2.11745e-10
2.08786e-10
-2.88662e-11
1.86443e-10
1.7414e-10
1.45733e-10
3.05133e-10
9.91788e-11
3.19748e-10
6.66434e-11
2.50509e-10
5.76313e-11
1.36895e-10
6.31591e-11
3.88399e-11
-6.49606e-11
2.74988e-11
9.06456e-11
5.667e-11
3.43091e-10
3.69377e-11
5.51254e-10
1.30847e-11
7.14383e-10
-6.34195e-11
6.88521e-10
-4.35939e-11
5.4732e-10
-5.27247e-11
2.94542e-10
-1.15711e-11
7.5448e-11
8.17261e-11
-1.01635e-10
1.59084e-10
-2.52191e-10
2.25473e-10
-2.91296e-10
2.59801e-10
-1.77313e-10
2.41441e-10
4.13216e-11
1.88891e-10
2.54074e-10
1.27415e-10
3.72003e-10
7.90168e-11
3.64735e-10
5.26313e-11
2.78366e-10
4.87479e-11
1.50845e-10
5.47471e-11
4.42354e-11
-6.66695e-11
1.43562e-11
5.96508e-11
2.22177e-11
3.14805e-10
1.94829e-11
5.965e-10
-2.10607e-11
7.78968e-10
-4.39191e-11
7.75262e-10
-5.83254e-11
6.09096e-10
-2.90936e-11
3.90725e-10
1.7064e-11
1.75264e-10
5.56965e-11
-3.92912e-11
1.15925e-10
-1.79492e-10
1.61429e-10
-2.10902e-10
1.83796e-10
-9.84393e-11
1.79287e-10
1.14264e-10
1.45513e-10
3.25037e-10
1.02152e-10
4.37983e-10
6.73955e-11
4.18304e-10
4.76676e-11
3.1399e-10
4.11135e-11
1.6936e-10
4.09684e-11
5.30935e-11
-7.33295e-11
7.61638e-12
4.44444e-11
1.01981e-11
2.80656e-10
1.86643e-12
6.03969e-10
-2.80468e-11
8.33594e-10
-4.20206e-11
8.60033e-10
-4.46022e-11
6.8758e-10
-2.7166e-11
4.57107e-10
-1.73492e-11
2.20339e-10
3.92036e-11
2.0802e-11
8.51309e-11
-1.41418e-10
1.22176e-10
-1.7881e-10
1.43392e-10
-4.56576e-11
1.39214e-10
1.90146e-10
1.13646e-10
4.08489e-10
7.77892e-11
5.1312e-10
5.0082e-11
4.74747e-10
3.48048e-11
3.49525e-10
2.95844e-11
1.86587e-10
3.04068e-11
6.07856e-11
-7.22237e-11
-3.65635e-12
2.98113e-11
3.30075e-12
2.67392e-10
3.92102e-13
6.1084e-10
-1.84926e-11
8.64585e-10
-3.50553e-11
8.93897e-10
-2.70799e-11
7.40509e-10
-2.61965e-11
4.96381e-10
-1.57692e-12
2.67623e-10
2.34608e-11
5.00237e-11
4.71315e-11
-1.17336e-10
6.9959e-11
-1.44223e-10
8.36846e-11
3.08099e-12
8.57553e-11
2.49617e-10
7.26155e-11
4.6779e-10
4.83616e-11
5.62066e-10
2.89957e-11
5.10437e-10
2.00935e-11
3.72915e-10
1.76535e-11
2.00034e-10
1.84881e-11
6.93698e-11
-7.21823e-11
-2.9718e-12
2.14998e-11
-1.37825e-12
2.59498e-10
3.79188e-12
6.20655e-10
-9.15245e-12
8.71968e-10
-5.77065e-12
9.08023e-10
-1.53012e-11
7.31865e-10
-5.91658e-12
5.09176e-10
1.6061e-12
2.81099e-10
4.70852e-12
6.31391e-11
1.62634e-11
-9.57897e-11
2.75137e-11
-1.22415e-10
3.16695e-11
2.12868e-11
3.09818e-11
2.66736e-10
2.56401e-11
4.83962e-10
1.61519e-11
5.75604e-10
8.83888e-12
5.21626e-10
6.23961e-12
3.82163e-10
5.97191e-12
2.0637e-10
6.8125e-12
7.33927e-11
-7.1085e-11
3.02533e-12
2.9789e-11
1.43576e-12
2.67248e-10
-3.64638e-12
6.10767e-10
9.25729e-12
8.64516e-10
5.84378e-12
8.93873e-10
1.53657e-11
7.40482e-10
5.99771e-12
4.96299e-10
-1.56454e-12
2.67523e-10
-4.59325e-12
4.99953e-11
-1.62089e-11
-1.17397e-10
-2.75515e-11
-1.44268e-10
-3.16886e-11
3.09539e-12
-3.09367e-11
2.49623e-10
-2.55436e-11
4.67751e-10
-1.59597e-11
5.62012e-10
-8.53134e-12
5.10394e-10
-5.85953e-12
3.72881e-10
-5.54643e-12
2.00015e-10
-6.32513e-12
6.93669e-11
-7.21616e-11
3.63961e-12
4.43765e-11
-3.21009e-12
2.80426e-10
-2.97252e-13
6.03743e-10
1.85962e-11
8.33476e-10
3.51458e-11
8.59946e-10
2.71317e-11
6.87426e-10
2.62819e-11
4.56944e-10
1.69339e-12
2.20169e-10
-2.3399e-11
2.07127e-11
-4.70553e-11
-1.41444e-10
-6.99031e-11
-1.78862e-10
-8.36901e-11
-4.57337e-11
-8.57586e-11
1.90046e-10
-7.25432e-11
4.08381e-10
-4.81748e-11
5.13023e-10
-2.8701e-11
4.74666e-10
-1.97266e-11
3.49456e-10
-1.72385e-11
1.86552e-10
-1.8024e-11
6.07802e-11
-7.2198e-11
-7.65425e-12
5.94868e-11
-1.01113e-11
3.14481e-10
-1.77458e-12
5.96233e-10
2.81328e-11
7.78857e-10
4.20769e-11
7.75221e-10
4.46928e-11
6.09022e-10
2.72276e-11
3.90485e-10
1.74762e-11
1.75049e-10
-3.91214e-11
-3.94737e-11
-8.50945e-11
-1.79615e-10
-1.2213e-10
-2.10982e-10
-1.43394e-10
-9.85517e-11
-1.39212e-10
1.14134e-10
-1.13562e-10
3.24908e-10
-7.76051e-11
4.37849e-10
-4.9794e-11
4.18192e-10
-3.44263e-11
3.13908e-10
-2.91525e-11
1.69321e-10
-2.99432e-11
5.30784e-11
-7.32846e-11
-1.4431e-11
9.05945e-11
-2.21939e-11
3.43038e-10
-1.93943e-11
5.50914e-10
2.1143e-11
7.14316e-10
4.40205e-11
6.88551e-10
5.83865e-11
5.4724e-10
2.92454e-11
2.94426e-10
-1.69362e-11
7.52498e-11
-5.56022e-11
-1.01768e-10
-1.15854e-10
-2.52222e-10
-1.61391e-10
-2.91334e-10
-1.83766e-10
-1.77412e-10
-1.79241e-10
4.11809e-11
-1.45416e-10
2.53928e-10
-1.01972e-10
3.71871e-10
-6.71223e-11
3.64638e-10
-4.73255e-11
2.78281e-10
-4.07398e-11
1.50776e-10
-4.05825e-11
4.41854e-11
-6.66376e-11
-2.73681e-11
1.21344e-10
-5.66824e-11
3.50243e-10
-3.69674e-11
5.4911e-10
-1.30417e-11
6.22802e-10
6.34614e-11
6.04823e-10
4.3726e-11
4.0864e-10
5.28081e-11
2.17222e-10
1.17108e-11
-4.46194e-13
-8.15607e-11
-1.79191e-10
-1.58993e-10
-2.73804e-10
-2.25407e-10
-2.99301e-10
-2.59706e-10
-2.11781e-10
-2.41328e-10
-2.89692e-11
-1.88733e-10
1.73997e-10
-1.2718e-10
3.04984e-10
-7.87158e-11
3.19623e-10
-5.22685e-11
2.50387e-10
-4.83363e-11
1.36803e-10
-5.43041e-11
3.87792e-11
-6.49267e-11
-6.12117e-11
1.17413e-10
-7.1846e-11
3.41615e-10
-9.21413e-11
6.30459e-10
-2.56565e-11
5.48517e-10
-1.10352e-12
4.90895e-10
3.61677e-11
3.46169e-10
-5.85351e-12
1.14721e-10
-4.21256e-11
-8.36306e-11
-9.09346e-11
-2.19676e-10
-1.81922e-10
-3.24479e-10
-2.21233e-10
-3.3658e-10
-2.189e-10
-2.37768e-10
-2.08696e-10
-4.9387e-11
-1.86287e-10
1.46835e-10
-1.45518e-10
2.67699e-10
-9.89439e-11
2.8482e-10
-6.63723e-11
2.25519e-10
-5.73107e-11
1.21729e-10
-6.28259e-11
3.13565e-11
-5.34076e-11
-9.84057e-11
1.15208e-10
-1.90361e-10
3.47306e-10
-5.05317e-11
3.90952e-10
-2.57978e-11
3.95571e-10
2.12054e-11
3.81211e-10
3.80131e-11
2.41193e-10
1.5992e-11
5.66727e-11
-2.77519e-11
-9.9697e-11
-1.05125e-10
-2.34849e-10
-2.02122e-10
-2.98098e-10
-2.97096e-10
-2.56644e-10
-3.37755e-10
-1.83613e-10
-3.21066e-10
-5.08681e-11
-2.54439e-10
8.85558e-11
-1.76381e-10
1.99914e-10
-1.15498e-10
2.3595e-10
-7.9405e-11
1.96702e-10
-7.13543e-11
1.10543e-10
-7.87121e-11
2.84356e-11
-4.76443e-11
-5.88374e-11
8.16683e-11
2.08436e-12
1.06333e-10
-1.49987e-10
1.18863e-10
-1.60066e-10
3.58112e-10
-1.10773e-10
2.5782e-10
-6.73108e-11
1.4317e-10
-6.30839e-11
9.29764e-12
-1.14239e-10
-1.18388e-10
-1.641e-10
-1.89691e-10
-2.10943e-10
-2.08531e-10
-2.57762e-10
-2.21665e-10
-2.54527e-10
-1.26686e-10
-2.29122e-10
-2.3756e-11
-1.87829e-10
9.52854e-11
-1.46166e-10
1.77713e-10
-1.08636e-10
1.95618e-10
-8.02201e-11
1.58722e-10
-6.72503e-11
8.91564e-11
-7.08658e-11
2.44903e-11
-2.85386e-11
-1.32784e-10
7.46873e-11
-2.26874e-10
6.54365e-11
-2.00993e-10
7.60444e-11
-9.37522e-11
1.89765e-10
-3.91107e-11
1.23403e-10
-1.21878e-12
7.14002e-11
-3.99783e-12
-1.57407e-12
-5.16511e-11
-6.69649e-11
-1.20205e-10
-1.23694e-10
-1.72782e-10
-3.39623e-11
-2.72273e-10
-7.21394e-11
-3.50858e-10
-7.33003e-11
-3.30899e-10
-2.69653e-11
-2.72457e-10
4.5133e-11
-2.11905e-10
9.30987e-11
-1.64285e-10
1.06281e-10
-1.28189e-10
8.61082e-11
-1.07709e-10
4.88993e-11
-1.01206e-10
1.0543e-11
-2.07854e-11
-9.30471e-11
-1.51163e-10
-1.20918e-10
-1.34181e-10
-1.19207e-10
-1.02702e-10
-1.02286e-10
-1.20587e-10
-1.52929e-10
-2.19055e-10
-2.45158e-10
-2.68941e-10
-2.77521e-10
-2.49361e-10
-1.92044e-10
-1.33776e-10
-9.06037e-11
-6.74242e-11
-6.63111e-11
)
;

boundaryField
{
    sides
    {
        type            calculated;
        value           uniform 0;
    }
    inlet
    {
        type            calculated;
        value           uniform 0;
    }
    outlet
    {
        type            calculated;
        value           nonuniform List<scalar> 
20
(
8.85409e-11
1.11404e-10
9.41045e-11
9.08558e-11
8.11488e-11
6.12322e-11
5.13265e-11
3.34227e-11
2.32871e-11
8.03575e-12
-7.53013e-12
-2.28013e-11
-3.29727e-11
-5.09377e-11
-6.0782e-11
-8.0835e-11
-9.03781e-11
-9.38719e-11
-1.10864e-10
-8.8392e-11
)
;
    }
    frontAndBack
    {
        type            empty;
        value           nonuniform 0();
    }
}


// ************************************************************************* //
