/*--------------------------------*- C++ -*----------------------------------*\
  =========                 |
  \\      /  F ield         | OpenFOAM: The Open Source CFD Toolbox
   \\    /   O peration     | Website:  https://openfoam.org
    \\  /    A nd           | Version:  7
     \\/     M anipulation  |
\*---------------------------------------------------------------------------*/
FoamFile
{
    version     2.0;
    format      ascii;
    class       volVectorField;
    location    "9";
    object      ddtCorrDdt0(hU);
}
// * * * * * * * * * * * * * * * * * * * * * * * * * * * * * * * * * * * * * //

dimensions      [0 2 -2 0 0 0 0];

internalField   nonuniform List<vector> 
400
(
(-5.1136e-09 2.84037e-09 0)
(3.33265e-08 1.74135e-08 0)
(3.6828e-08 3.08925e-08 0)
(1.99268e-08 3.92028e-08 0)
(1.69813e-08 3.12329e-08 0)
(2.15728e-08 1.77163e-08 0)
(2.09777e-08 3.49563e-09 0)
(1.976e-08 -9.30483e-09 0)
(2.47163e-08 -2.01029e-08 0)
(3.77103e-08 -2.97176e-08 0)
(4.78943e-08 -3.82392e-08 0)
(5.32362e-08 -3.10337e-08 0)
(5.75633e-08 -1.01063e-08 0)
(5.63594e-08 9.41239e-09 0)
(4.59834e-08 1.92396e-08 0)
(3.33996e-08 1.87192e-08 0)
(1.97336e-08 1.06282e-08 0)
(1.49514e-08 -5.69753e-10 0)
(9.61845e-09 -1.02005e-08 0)
(1.73879e-08 -1.75039e-08 0)
(-2.16208e-09 1.21989e-08 0)
(4.25736e-08 3.19914e-08 0)
(5.65143e-08 2.9408e-08 0)
(2.43336e-08 3.55217e-08 0)
(4.54559e-09 3.4774e-08 0)
(2.74036e-09 2.10726e-08 0)
(5.6924e-10 -1.43921e-09 0)
(3.35541e-09 -2.11856e-08 0)
(1.43334e-08 -2.96742e-08 0)
(2.97513e-08 -2.92804e-08 0)
(4.40122e-08 -2.64485e-08 0)
(6.6918e-08 -1.80279e-08 0)
(7.14859e-08 -6.28052e-09 0)
(6.26041e-08 7.88801e-09 0)
(4.91456e-08 1.98892e-08 0)
(3.81959e-08 2.63955e-08 0)
(2.73286e-08 2.65014e-08 0)
(2.28366e-08 2.11494e-08 0)
(1.84494e-08 1.44838e-08 0)
(2.21997e-08 8.65858e-09 0)
(-3.65976e-09 1.92717e-08 0)
(6.77476e-09 4.93066e-08 0)
(2.4456e-08 6.69092e-08 0)
(2.90261e-08 6.36837e-08 0)
(1.91415e-08 5.55794e-08 0)
(1.8285e-08 3.29492e-08 0)
(1.44804e-08 1.94398e-09 0)
(1.55531e-08 -2.56223e-08 0)
(2.45405e-08 -4.39813e-08 0)
(3.66605e-08 -5.15493e-08 0)
(5.00866e-08 -4.50294e-08 0)
(5.19864e-08 -2.63062e-08 0)
(4.95123e-08 -8.87707e-10 0)
(4.43401e-08 2.61038e-08 0)
(3.47684e-08 4.3514e-08 0)
(2.63536e-08 4.47122e-08 0)
(1.69683e-08 3.27918e-08 0)
(1.47545e-08 1.34748e-08 0)
(1.12078e-08 -3.8139e-09 0)
(1.75821e-08 -1.91611e-08 0)
(-7.29453e-09 2.25493e-08 0)
(3.76861e-08 6.93644e-08 0)
(3.29163e-08 1.05914e-07 0)
(4.11394e-09 1.15237e-07 0)
(-6.10132e-09 9.9207e-08 0)
(-6.31872e-09 6.55059e-08 0)
(-3.59003e-09 2.15772e-08 0)
(-1.05982e-09 -1.6289e-08 0)
(1.01156e-08 -4.71575e-08 0)
(2.79027e-08 -6.75068e-08 0)
(5.13998e-08 -6.88812e-08 0)
(6.70892e-08 -5.18233e-08 0)
(6.9048e-08 -1.90715e-08 0)
(5.96362e-08 1.82129e-08 0)
(4.32986e-08 4.6078e-08 0)
(2.91305e-08 5.50656e-08 0)
(1.79221e-08 4.75136e-08 0)
(1.47735e-08 3.01488e-08 0)
(1.3356e-08 1.38042e-08 0)
(1.76475e-08 -1.17539e-09 0)
(-6.225e-09 2.47236e-08 0)
(1.5759e-08 6.95416e-08 0)
(2.76076e-08 9.34184e-08 0)
(8.46729e-09 1.12157e-07 0)
(-3.26279e-09 1.08415e-07 0)
(-3.45367e-09 7.63457e-08 0)
(-1.75201e-09 3.49399e-08 0)
(4.39777e-09 -6.9721e-09 0)
(1.03319e-08 -3.92679e-08 0)
(2.70475e-08 -5.75803e-08 0)
(4.17762e-08 -5.93097e-08 0)
(4.4151e-08 -4.12193e-08 0)
(4.28384e-08 -7.26818e-09 0)
(4.13465e-08 2.856e-08 0)
(3.41515e-08 5.19047e-08 0)
(2.51475e-08 5.46384e-08 0)
(1.54304e-08 4.17119e-08 0)
(1.27577e-08 1.96637e-08 0)
(1.03477e-08 5.40207e-10 0)
(1.50963e-08 -1.88904e-08 0)
(-7.73885e-09 2.1068e-08 0)
(9.90503e-09 6.95863e-08 0)
(1.89183e-08 1.12306e-07 0)
(3.34693e-09 1.35373e-07 0)
(-9.6521e-09 1.30172e-07 0)
(-1.11368e-08 9.53409e-08 0)
(-6.60987e-09 4.9137e-08 0)
(-9.1333e-09 3.51136e-09 0)
(4.50631e-09 -3.25621e-08 0)
(2.24751e-08 -5.73387e-08 0)
(3.85234e-08 -6.40142e-08 0)
(5.0874e-08 -4.21341e-08 0)
(5.22469e-08 1.78574e-09 0)
(4.40921e-08 4.62662e-08 0)
(3.1382e-08 7.21385e-08 0)
(2.05397e-08 7.28179e-08 0)
(1.22757e-08 5.70168e-08 0)
(1.01675e-08 3.27835e-08 0)
(9.10784e-09 1.23326e-08 0)
(1.2259e-08 -8.72111e-09 0)
(-7.1515e-09 1.48887e-08 0)
(5.01233e-09 6.60247e-08 0)
(1.20802e-08 1.1628e-07 0)
(-4.91764e-10 1.49506e-07 0)
(-1.19949e-08 1.46398e-07 0)
(-8.92684e-09 1.15782e-07 0)
(-8.28731e-09 6.93822e-08 0)
(-1.58851e-09 2.73347e-08 0)
(4.97666e-09 -1.10308e-08 0)
(1.65088e-08 -3.94065e-08 0)
(2.85202e-08 -4.60876e-08 0)
(3.53201e-08 -2.53072e-08 0)
(3.69274e-08 1.47059e-08 0)
(3.31963e-08 5.53664e-08 0)
(2.46992e-08 7.8131e-08 0)
(1.71155e-08 7.5631e-08 0)
(1.07195e-08 5.66073e-08 0)
(9.16947e-09 2.9368e-08 0)
(7.28892e-09 6.97398e-09 0)
(9.91318e-09 -1.69205e-08 0)
(-4.56044e-09 1.03527e-08 0)
(1.77493e-09 5.9402e-08 0)
(7.9872e-09 1.19819e-07 0)
(-3.47107e-09 1.61759e-07 0)
(-9.46679e-09 1.6424e-07 0)
(-9.62193e-09 1.30466e-07 0)
(-5.10468e-09 8.52454e-08 0)
(-5.85561e-09 3.87795e-08 0)
(4.31859e-10 -3.75265e-09 0)
(1.20345e-08 -3.46931e-08 0)
(2.10058e-08 -4.15271e-08 0)
(2.75662e-08 -1.52904e-08 0)
(2.90102e-08 3.17222e-08 0)
(2.5683e-08 7.56593e-08 0)
(1.90393e-08 9.76272e-08 0)
(1.2702e-08 9.15353e-08 0)
(7.78693e-09 6.82013e-08 0)
(6.49195e-09 3.70608e-08 0)
(5.46783e-09 1.27027e-08 0)
(6.96529e-09 -1.32768e-08 0)
(-3.35986e-09 7.3942e-09 0)
(-7.60497e-11 5.44463e-08 0)
(4.43402e-09 1.21018e-07 0)
(-1.91211e-09 1.70282e-07 0)
(-7.53261e-09 1.75792e-07 0)
(-5.75614e-09 1.42774e-07 0)
(-4.91141e-09 9.50585e-08 0)
(-3.61877e-09 4.83255e-08 0)
(1.38144e-09 6.82103e-09 0)
(6.75314e-09 -2.58215e-08 0)
(1.20449e-08 -3.17966e-08 0)
(1.59427e-08 -3.74805e-09 0)
(1.72301e-08 4.42084e-08 0)
(1.60973e-08 8.77821e-08 0)
(1.21099e-08 1.07658e-07 0)
(7.61813e-09 9.85866e-08 0)
(4.27949e-09 7.22003e-08 0)
(3.85185e-09 3.85221e-08 0)
(3.41357e-09 1.2833e-08 0)
(4.5807e-09 -1.4872e-08 0)
(-1.52595e-09 5.12978e-09 0)
(-3.34839e-10 5.2172e-08 0)
(1.59211e-09 1.22544e-07 0)
(-2.86316e-10 1.74033e-07 0)
(-2.73286e-09 1.80583e-07 0)
(-1.65015e-09 1.47331e-07 0)
(-2.24932e-09 1.0069e-07 0)
(-3.19303e-10 5.48929e-08 0)
(2.46702e-10 1.08549e-08 0)
(1.87036e-09 -2.21595e-08 0)
(4.54763e-09 -2.75616e-08 0)
(6.15972e-09 1.9827e-09 0)
(6.34337e-09 5.18507e-08 0)
(5.74118e-09 9.58784e-08 0)
(4.20454e-09 1.14647e-07 0)
(2.43479e-09 1.04036e-07 0)
(1.25579e-09 7.62226e-08 0)
(1.23034e-09 4.12029e-08 0)
(1.24506e-09 1.46915e-08 0)
(1.62055e-09 -1.41483e-08 0)
(1.51457e-09 5.12774e-09 0)
(3.32062e-10 5.21578e-08 0)
(-1.56101e-09 1.22535e-07 0)
(3.19352e-10 1.74027e-07 0)
(2.75198e-09 1.80581e-07 0)
(1.65493e-09 1.47328e-07 0)
(2.26731e-09 1.00681e-07 0)
(3.28932e-10 5.4883e-08 0)
(-2.32869e-10 1.08536e-08 0)
(-1.85309e-09 -2.21643e-08 0)
(-4.54676e-09 -2.7566e-08 0)
(-6.1655e-09 1.98335e-09 0)
(-6.33784e-09 5.18505e-08 0)
(-5.72369e-09 9.58741e-08 0)
(-4.17266e-09 1.14641e-07 0)
(-2.38528e-09 1.04032e-07 0)
(-1.18543e-09 7.62186e-08 0)
(-1.15344e-09 4.11998e-08 0)
(-1.15091e-09 1.46897e-08 0)
(-1.52465e-09 -1.41488e-08 0)
(3.34832e-09 7.38519e-09 0)
(6.65057e-11 5.44091e-08 0)
(-4.40591e-09 1.20987e-07 0)
(1.94428e-09 1.70264e-07 0)
(7.54625e-09 1.75782e-07 0)
(5.76861e-09 1.42756e-07 0)
(4.92205e-09 9.50336e-08 0)
(3.64152e-09 4.82968e-08 0)
(-1.36597e-09 6.80734e-09 0)
(-6.74209e-09 -2.58309e-08 0)
(-1.20305e-08 -3.18057e-08 0)
(-1.5936e-08 -3.75342e-09 0)
(-1.72295e-08 4.4199e-08 0)
(-1.6088e-08 8.77661e-08 0)
(-1.20807e-08 1.07641e-07 0)
(-7.57031e-09 9.85725e-08 0)
(-4.21225e-09 7.21894e-08 0)
(-3.77662e-09 3.8518e-08 0)
(-3.32313e-09 1.28351e-08 0)
(-4.48875e-09 -1.4862e-08 0)
(4.55058e-09 1.03297e-08 0)
(-1.78456e-09 5.93464e-08 0)
(-7.96183e-09 1.19767e-07 0)
(3.50029e-09 1.61735e-07 0)
(9.47817e-09 1.64228e-07 0)
(9.63196e-09 1.30444e-07 0)
(5.11972e-09 8.52072e-08 0)
(5.87262e-09 3.87436e-08 0)
(-4.10791e-10 -3.77897e-09 0)
(-1.20256e-08 -3.47096e-08 0)
(-2.09968e-08 -4.15433e-08 0)
(-2.75597e-08 -1.53123e-08 0)
(-2.90089e-08 3.16977e-08 0)
(-2.56719e-08 7.56363e-08 0)
(-1.90093e-08 9.76061e-08 0)
(-1.2656e-08 9.15168e-08 0)
(-7.71896e-09 6.81847e-08 0)
(-6.41382e-09 3.70485e-08 0)
(-5.37533e-09 1.26936e-08 0)
(-6.87715e-09 -1.32798e-08 0)
(7.14141e-09 1.48648e-08 0)
(-5.03917e-09 6.59792e-08 0)
(-1.20584e-08 1.16239e-07 0)
(5.1843e-10 1.4949e-07 0)
(1.20106e-08 1.46396e-07 0)
(8.94039e-09 1.15764e-07 0)
(8.30669e-09 6.93441e-08 0)
(1.61962e-09 2.72932e-08 0)
(-4.95795e-09 -1.10605e-08 0)
(-1.64944e-08 -3.94189e-08 0)
(-2.85092e-08 -4.60963e-08 0)
(-3.53116e-08 -2.53263e-08 0)
(-3.69173e-08 1.46777e-08 0)
(-3.31793e-08 5.53334e-08 0)
(-2.46694e-08 7.80961e-08 0)
(-1.70706e-08 7.56037e-08 0)
(-1.0657e-08 5.6588e-08 0)
(-9.10016e-09 2.93611e-08 0)
(-7.2116e-09 6.97497e-09 0)
(-9.83775e-09 -1.68994e-08 0)
(7.73542e-09 2.10371e-08 0)
(-9.88824e-09 6.95197e-08 0)
(-1.89207e-08 1.12255e-07 0)
(-3.34442e-09 1.35361e-07 0)
(9.66241e-09 1.30184e-07 0)
(1.11511e-08 9.53367e-08 0)
(6.63167e-09 4.91119e-08 0)
(9.15315e-09 3.47323e-09 0)
(-4.4749e-09 -3.25897e-08 0)
(-2.24511e-08 -5.73523e-08 0)
(-3.85094e-08 -6.40227e-08 0)
(-5.08558e-08 -4.21499e-08 0)
(-5.22224e-08 1.76281e-09 0)
(-4.40631e-08 4.62437e-08 0)
(-3.13416e-08 7.21208e-08 0)
(-2.04864e-08 7.28044e-08 0)
(-1.22082e-08 5.70009e-08 0)
(-1.00926e-08 3.27643e-08 0)
(-9.02075e-09 1.23146e-08 0)
(-1.21712e-08 -8.72805e-09 0)
(6.22214e-09 2.46756e-08 0)
(-1.57478e-08 6.94383e-08 0)
(-2.76005e-08 9.33382e-08 0)
(-8.45005e-09 1.12131e-07 0)
(3.28405e-09 1.08421e-07 0)
(3.47626e-09 7.63512e-08 0)
(1.78053e-09 3.49247e-08 0)
(-4.36661e-09 -6.98854e-09 0)
(-1.03062e-08 -3.92749e-08 0)
(-2.70204e-08 -5.75807e-08 0)
(-4.17552e-08 -5.93048e-08 0)
(-4.41375e-08 -4.12226e-08 0)
(-4.28211e-08 -7.29156e-09 0)
(-4.13196e-08 2.85241e-08 0)
(-3.41126e-08 5.1863e-08 0)
(-2.51025e-08 5.46024e-08 0)
(-1.53789e-08 4.16807e-08 0)
(-1.2701e-08 1.96472e-08 0)
(-1.02806e-08 5.33473e-10 0)
(-1.50341e-08 -1.88713e-08 0)
(7.29864e-09 2.25106e-08 0)
(-3.76858e-08 6.92522e-08 0)
(-3.29207e-08 1.05839e-07 0)
(-4.08823e-09 1.15235e-07 0)
(6.13767e-09 9.92316e-08 0)
(6.34942e-09 6.55219e-08 0)
(3.61909e-09 2.15706e-08 0)
(1.09016e-09 -1.6304e-08 0)
(-1.00899e-08 -4.71586e-08 0)
(-2.7878e-08 -6.75033e-08 0)
(-5.13642e-08 -6.888e-08 0)
(-6.70566e-08 -5.18262e-08 0)
(-6.90143e-08 -1.90831e-08 0)
(-5.95923e-08 1.81986e-08 0)
(-4.32459e-08 4.60641e-08 0)
(-2.90733e-08 5.50531e-08 0)
(-1.7859e-08 4.75001e-08 0)
(-1.46995e-08 3.01374e-08 0)
(-1.32731e-08 1.37943e-08 0)
(-1.75541e-08 -1.17212e-09 0)
(3.6386e-09 1.92425e-08 0)
(-6.81085e-09 4.92506e-08 0)
(-2.43989e-08 6.68909e-08 0)
(-2.89789e-08 6.36947e-08 0)
(-1.91102e-08 5.56083e-08 0)
(-1.82472e-08 3.2975e-08 0)
(-1.44384e-08 1.95318e-09 0)
(-1.55118e-08 -2.56224e-08 0)
(-2.45024e-08 -4.39812e-08 0)
(-3.66228e-08 -5.15577e-08 0)
(-5.00388e-08 -4.50381e-08 0)
(-5.19545e-08 -2.63243e-08 0)
(-4.94907e-08 -9.08439e-10 0)
(-4.43109e-08 2.60843e-08 0)
(-3.47272e-08 4.34914e-08 0)
(-2.63034e-08 4.46877e-08 0)
(-1.6911e-08 3.27641e-08 0)
(-1.46978e-08 1.34529e-08 0)
(-1.11501e-08 -3.83635e-09 0)
(-1.75358e-08 -1.91657e-08 0)
(2.17041e-09 1.21707e-08 0)
(-4.25083e-08 3.19704e-08 0)
(-5.65047e-08 2.94031e-08 0)
(-2.43197e-08 3.55232e-08 0)
(-4.50437e-09 3.47893e-08 0)
(-2.6961e-09 2.10899e-08 0)
(-5.31554e-10 -1.42579e-09 0)
(-3.31924e-09 -2.1178e-08 0)
(-1.43117e-08 -2.96875e-08 0)
(-2.97779e-08 -2.92766e-08 0)
(-4.39736e-08 -2.64579e-08 0)
(-6.68656e-08 -1.80439e-08 0)
(-7.14215e-08 -6.29182e-09 0)
(-6.25467e-08 7.87674e-09 0)
(-4.91e-08 1.98722e-08 0)
(-3.8154e-08 2.63791e-08 0)
(-2.72859e-08 2.64893e-08 0)
(-2.278e-08 2.11504e-08 0)
(-1.83807e-08 1.44937e-08 0)
(-2.20978e-08 8.68302e-09 0)
(5.12427e-09 2.82702e-09 0)
(-3.33028e-08 1.73831e-08 0)
(-3.68175e-08 3.08677e-08 0)
(-1.98939e-08 3.9207e-08 0)
(-1.6928e-08 3.12477e-08 0)
(-2.15141e-08 1.77314e-08 0)
(-2.09261e-08 3.51344e-09 0)
(-1.97281e-08 -9.29238e-09 0)
(-2.46824e-08 -2.01141e-08 0)
(-3.76261e-08 -2.97075e-08 0)
(-4.7874e-08 -3.82504e-08 0)
(-5.31861e-08 -3.10535e-08 0)
(-5.75043e-08 -1.012e-08 0)
(-5.62992e-08 9.41131e-09 0)
(-4.59228e-08 1.92463e-08 0)
(-3.33328e-08 1.8718e-08 0)
(-1.96675e-08 1.06057e-08 0)
(-1.48946e-08 -6.11436e-10 0)
(-9.57505e-09 -1.02536e-08 0)
(-1.73606e-08 -1.75516e-08 0)
)
;

boundaryField
{
    sides
    {
        type            calculated;
        value           nonuniform List<vector> 
40
(
(5.12427e-09 0 0)
(-3.33028e-08 0 0)
(-3.68175e-08 0 0)
(-1.98939e-08 0 0)
(-1.6928e-08 0 0)
(-2.15141e-08 0 0)
(-2.09261e-08 0 0)
(-1.97281e-08 0 0)
(-2.46824e-08 0 0)
(-3.76261e-08 0 0)
(-4.7874e-08 0 0)
(-5.31861e-08 0 0)
(-5.75043e-08 0 0)
(-5.62992e-08 0 0)
(-4.59228e-08 0 0)
(-3.33328e-08 0 0)
(-1.96675e-08 0 0)
(-1.48946e-08 0 0)
(-9.57505e-09 0 0)
(-1.73606e-08 0 0)
(-5.1136e-09 0 0)
(3.33265e-08 0 0)
(3.6828e-08 0 0)
(1.99268e-08 0 0)
(1.69813e-08 0 0)
(2.15728e-08 0 0)
(2.09777e-08 0 0)
(1.976e-08 0 0)
(2.47163e-08 0 0)
(3.77103e-08 0 0)
(4.78943e-08 0 0)
(5.32362e-08 0 0)
(5.75633e-08 0 0)
(5.63594e-08 0 0)
(4.59834e-08 0 0)
(3.33996e-08 0 0)
(1.97336e-08 0 0)
(1.49514e-08 0 0)
(9.61845e-09 0 0)
(1.73879e-08 0 0)
)
;
    }
    inlet
    {
        type            calculated;
        value           uniform (0 0 0);
    }
    outlet
    {
        type            calculated;
        value           nonuniform List<vector> 
20
(
(1.73879e-08 -1.75039e-08 0)
(2.21997e-08 8.65858e-09 0)
(1.75821e-08 -1.91611e-08 0)
(1.76475e-08 -1.17539e-09 0)
(1.50963e-08 -1.88904e-08 0)
(1.2259e-08 -8.72111e-09 0)
(9.91318e-09 -1.69205e-08 0)
(6.96529e-09 -1.32768e-08 0)
(4.5807e-09 -1.4872e-08 0)
(1.62055e-09 -1.41483e-08 0)
(-1.52465e-09 -1.41488e-08 0)
(-4.48875e-09 -1.4862e-08 0)
(-6.87715e-09 -1.32798e-08 0)
(-9.83775e-09 -1.68994e-08 0)
(-1.21712e-08 -8.72805e-09 0)
(-1.50341e-08 -1.88713e-08 0)
(-1.75541e-08 -1.17212e-09 0)
(-1.75358e-08 -1.91657e-08 0)
(-2.20978e-08 8.68302e-09 0)
(-1.73606e-08 -1.75516e-08 0)
)
;
    }
    frontAndBack
    {
        type            empty;
    }
}


// ************************************************************************* //
