/*--------------------------------*- C++ -*----------------------------------*\
  =========                 |
  \\      /  F ield         | OpenFOAM: The Open Source CFD Toolbox
   \\    /   O peration     | Website:  https://openfoam.org
    \\  /    A nd           | Version:  7
     \\/     M anipulation  |
\*---------------------------------------------------------------------------*/
FoamFile
{
    version     2.0;
    format      ascii;
    class       volVectorField;
    location    "9";
    object      hU;
}
// * * * * * * * * * * * * * * * * * * * * * * * * * * * * * * * * * * * * * //

dimensions      [0 2 -1 0 0 0 0];

internalField   nonuniform List<vector> 
400
(
(0.00100001 -6.36664e-09 0)
(0.000999996 -2.00508e-08 0)
(0.000999966 -3.51279e-08 0)
(0.00099996 -5.22395e-08 0)
(0.000999978 -7.05287e-08 0)
(0.000999999 -8.67872e-08 0)
(0.00100002 -9.95521e-08 0)
(0.00100004 -1.09653e-07 0)
(0.00100007 -1.16942e-07 0)
(0.0010001 -1.22014e-07 0)
(0.00100011 -1.22704e-07 0)
(0.00100013 -1.25261e-07 0)
(0.00100013 -1.30731e-07 0)
(0.00100015 -1.49511e-07 0)
(0.00100015 -1.67838e-07 0)
(0.00100021 -2.00125e-07 0)
(0.00100023 -2.14125e-07 0)
(0.00100035 -2.54412e-07 0)
(0.00100037 -2.52661e-07 0)
(0.00100061 -3.29752e-07 0)
(0.00100001 1.29522e-08 0)
(0.00100001 2.81434e-08 0)
(0.000999979 3.54919e-08 0)
(0.00099997 3.95399e-08 0)
(0.000999986 3.92264e-08 0)
(0.00100001 3.6073e-08 0)
(0.00100003 3.54238e-08 0)
(0.00100006 3.88133e-08 0)
(0.00100009 4.61671e-08 0)
(0.00100012 5.41099e-08 0)
(0.00100013 6.35818e-08 0)
(0.00100014 7.07358e-08 0)
(0.00100014 8.09566e-08 0)
(0.00100016 8.13977e-08 0)
(0.00100016 8.42519e-08 0)
(0.00100021 6.57375e-08 0)
(0.00100023 6.39965e-08 0)
(0.00100032 1.98218e-08 0)
(0.00100035 2.33448e-08 0)
(0.00100049 -7.85742e-08 0)
(0.00100001 9.07746e-09 0)
(0.000999996 9.4302e-09 0)
(0.000999971 -2.79677e-09 0)
(0.000999966 -2.50646e-08 0)
(0.00099998 -5.30412e-08 0)
(0.000999995 -8.19302e-08 0)
(0.00100001 -1.04311e-07 0)
(0.00100003 -1.17259e-07 0)
(0.00100005 -1.21228e-07 0)
(0.00100007 -1.20305e-07 0)
(0.00100009 -1.14342e-07 0)
(0.0010001 -1.13107e-07 0)
(0.00100011 -1.17694e-07 0)
(0.00100013 -1.41435e-07 0)
(0.00100015 -1.69566e-07 0)
(0.00100019 -2.19189e-07 0)
(0.00100021 -2.50732e-07 0)
(0.0010003 -3.15187e-07 0)
(0.00100032 -3.30692e-07 0)
(0.00100046 -4.30348e-07 0)
(0.00100001 1.65085e-08 0)
(0.001 2.90634e-08 0)
(0.000999979 2.54048e-08 0)
(0.00099997 8.22477e-09 0)
(0.000999985 -1.76905e-08 0)
(0.001 -4.21019e-08 0)
(0.00100002 -5.53802e-08 0)
(0.00100005 -5.58016e-08 0)
(0.00100008 -4.5117e-08 0)
(0.0010001 -2.881e-08 0)
(0.00100012 -7.11751e-09 0)
(0.00100012 8.19633e-09 0)
(0.00100012 1.56355e-08 0)
(0.00100013 -1.60297e-09 0)
(0.00100014 -2.6171e-08 0)
(0.00100017 -7.86809e-08 0)
(0.00100019 -1.12068e-07 0)
(0.00100026 -1.85292e-07 0)
(0.00100028 -2.02006e-07 0)
(0.00100038 -3.16205e-07 0)
(0.00100001 1.71796e-08 0)
(0.001 2.77776e-08 0)
(0.000999982 1.78372e-08 0)
(0.000999975 -7.654e-09 0)
(0.000999986 -4.49541e-08 0)
(0.000999999 -8.28315e-08 0)
(0.00100001 -1.0887e-07 0)
(0.00100003 -1.20644e-07 0)
(0.00100005 -1.19511e-07 0)
(0.00100006 -1.10773e-07 0)
(0.00100008 -9.66649e-08 0)
(0.00100009 -8.93598e-08 0)
(0.0010001 -9.23053e-08 0)
(0.00100011 -1.21172e-07 0)
(0.00100012 -1.60543e-07 0)
(0.00100015 -2.24978e-07 0)
(0.00100017 -2.7176e-07 0)
(0.00100023 -3.50104e-07 0)
(0.00100024 -3.75827e-07 0)
(0.00100033 -4.83202e-07 0)
(0.001 1.71495e-08 0)
(0.001 2.97192e-08 0)
(0.000999985 1.98525e-08 0)
(0.000999978 -1.15551e-08 0)
(0.000999987 -5.53236e-08 0)
(0.000999999 -9.55983e-08 0)
(0.00100001 -1.1901e-07 0)
(0.00100003 -1.23284e-07 0)
(0.00100005 -1.10291e-07 0)
(0.00100007 -8.62773e-08 0)
(0.00100008 -5.49805e-08 0)
(0.00100009 -3.34422e-08 0)
(0.00100009 -2.94489e-08 0)
(0.0010001 -5.9695e-08 0)
(0.0010001 -1.04988e-07 0)
(0.00100013 -1.78148e-07 0)
(0.00100014 -2.31863e-07 0)
(0.00100018 -3.1775e-07 0)
(0.0010002 -3.46233e-07 0)
(0.00100026 -4.60241e-07 0)
(0.001 1.62185e-08 0)
(0.001 3.00441e-08 0)
(0.000999989 1.94227e-08 0)
(0.000999982 -1.52123e-08 0)
(0.00099999 -6.39987e-08 0)
(0.001 -1.08363e-07 0)
(0.00100001 -1.34858e-07 0)
(0.00100002 -1.42154e-07 0)
(0.00100004 -1.32306e-07 0)
(0.00100005 -1.1091e-07 0)
(0.00100006 -8.30474e-08 0)
(0.00100006 -6.57864e-08 0)
(0.00100007 -6.66076e-08 0)
(0.00100008 -1.0163e-07 0)
(0.00100008 -1.53009e-07 0)
(0.0010001 -2.31279e-07 0)
(0.00100012 -2.90739e-07 0)
(0.00100015 -3.78726e-07 0)
(0.00100016 -4.11123e-07 0)
(0.00100021 -5.22837e-07 0)
(0.001 1.4632e-08 0)
(0.001 2.9239e-08 0)
(0.000999992 1.86202e-08 0)
(0.000999987 -1.93097e-08 0)
(0.000999992 -7.28604e-08 0)
(0.000999999 -1.21225e-07 0)
(0.00100001 -1.4936e-07 0)
(0.00100001 -1.55619e-07 0)
(0.00100003 -1.41768e-07 0)
(0.00100004 -1.13353e-07 0)
(0.00100004 -7.62029e-08 0)
(0.00100005 -5.10152e-08 0)
(0.00100005 -4.89078e-08 0)
(0.00100006 -8.61116e-08 0)
(0.00100006 -1.42714e-07 0)
(0.00100007 -2.26851e-07 0)
(0.00100008 -2.91643e-07 0)
(0.00100011 -3.83832e-07 0)
(0.00100011 -4.19123e-07 0)
(0.00100015 -5.33099e-07 0)
(0.001 1.30399e-08 0)
(0.001 2.81086e-08 0)
(0.000999995 1.74126e-08 0)
(0.000999992 -2.26647e-08 0)
(0.000999995 -7.91463e-08 0)
(0.000999999 -1.2918e-07 0)
(0.001 -1.57358e-07 0)
(0.00100001 -1.62861e-07 0)
(0.00100002 -1.4791e-07 0)
(0.00100002 -1.18137e-07 0)
(0.00100003 -7.99927e-08 0)
(0.00100003 -5.48073e-08 0)
(0.00100003 -5.37896e-08 0)
(0.00100003 -9.2875e-08 0)
(0.00100004 -1.52264e-07 0)
(0.00100004 -2.39073e-07 0)
(0.00100005 -3.06549e-07 0)
(0.00100006 -4.00374e-07 0)
(0.00100007 -4.37443e-07 0)
(0.00100009 -5.5181e-07 0)
(0.001 1.20425e-08 0)
(0.001 2.73851e-08 0)
(0.000999998 1.6817e-08 0)
(0.000999997 -2.43439e-08 0)
(0.000999998 -8.2251e-08 0)
(0.001 -1.33205e-07 0)
(0.001 -1.61761e-07 0)
(0.001 -1.67536e-07 0)
(0.00100001 -1.52465e-07 0)
(0.00100001 -1.21375e-07 0)
(0.00100001 -8.09887e-08 0)
(0.00100001 -5.36767e-08 0)
(0.00100001 -5.18119e-08 0)
(0.00100001 -9.15005e-08 0)
(0.00100001 -1.52463e-07 0)
(0.00100002 -2.40946e-07 0)
(0.00100002 -3.10061e-07 0)
(0.00100002 -4.05055e-07 0)
(0.00100002 -4.43224e-07 0)
(0.00100003 -5.58032e-07 0)
(0.001 1.20418e-08 0)
(0.001 2.73855e-08 0)
(0.001 1.68205e-08 0)
(0.001 -2.43399e-08 0)
(0.001 -8.22492e-08 0)
(0.001 -1.33206e-07 0)
(0.000999999 -1.61761e-07 0)
(0.000999997 -1.67535e-07 0)
(0.000999995 -1.52463e-07 0)
(0.000999993 -1.21375e-07 0)
(0.000999991 -8.0991e-08 0)
(0.00099999 -5.36789e-08 0)
(0.00099999 -5.18138e-08 0)
(0.000999988 -9.15014e-08 0)
(0.000999987 -1.52464e-07 0)
(0.000999985 -2.40945e-07 0)
(0.000999983 -3.1006e-07 0)
(0.000999978 -4.0505e-07 0)
(0.000999977 -4.43219e-07 0)
(0.00099997 -5.58021e-07 0)
(0.000999999 1.3037e-08 0)
(0.000999999 2.81094e-08 0)
(0.001 1.74223e-08 0)
(0.00100001 -2.26531e-08 0)
(0.001 -7.91409e-08 0)
(0.001 -1.29182e-07 0)
(0.000999997 -1.57361e-07 0)
(0.000999991 -1.62862e-07 0)
(0.000999983 -1.47908e-07 0)
(0.000999977 -1.18135e-07 0)
(0.000999974 -7.99952e-08 0)
(0.000999971 -5.48111e-08 0)
(0.00099997 -5.37941e-08 0)
(0.000999966 -9.28755e-08 0)
(0.000999963 -1.52261e-07 0)
(0.000999955 -2.39061e-07 0)
(0.000999949 -3.06533e-07 0)
(0.000999936 -4.00342e-07 0)
(0.000999931 -4.37408e-07 0)
(0.000999911 -5.51753e-07 0)
(0.000999998 1.46258e-08 0)
(0.000999998 2.92392e-08 0)
(0.00100001 1.86339e-08 0)
(0.00100001 -1.92918e-08 0)
(0.00100001 -7.28503e-08 0)
(0.001 -1.21225e-07 0)
(0.000999994 -1.49363e-07 0)
(0.000999985 -1.5562e-07 0)
(0.000999973 -1.41769e-07 0)
(0.000999962 -1.13357e-07 0)
(0.000999955 -7.62125e-08 0)
(0.000999951 -5.10263e-08 0)
(0.000999949 -4.89193e-08 0)
(0.000999944 -8.61183e-08 0)
(0.000999939 -1.42721e-07 0)
(0.000999926 -2.2685e-07 0)
(0.000999917 -2.91644e-07 0)
(0.000999894 -3.83814e-07 0)
(0.000999886 -4.19107e-07 0)
(0.000999852 -5.33051e-07 0)
(0.000999997 1.621e-08 0)
(0.000999997 3.00499e-08 0)
(0.00100001 1.94435e-08 0)
(0.00100002 -1.51903e-08 0)
(0.00100001 -6.39877e-08 0)
(0.001 -1.08364e-07 0)
(0.000999991 -1.34858e-07 0)
(0.000999979 -1.42147e-07 0)
(0.000999964 -1.32295e-07 0)
(0.000999951 -1.10902e-07 0)
(0.000999943 -8.30481e-08 0)
(0.000999937 -6.57911e-08 0)
(0.000999932 -6.6614e-08 0)
(0.000999923 -1.01625e-07 0)
(0.000999916 -1.52997e-07 0)
(0.000999898 -2.3124e-07 0)
(0.000999885 -2.9069e-07 0)
(0.000999852 -3.78638e-07 0)
(0.000999842 -4.1103e-07 0)
(0.000999791 -5.22686e-07 0)
(0.000999995 1.71374e-08 0)
(0.000999997 2.97211e-08 0)
(0.00100001 1.98737e-08 0)
(0.00100002 -1.15304e-08 0)
(0.00100001 -5.53122e-08 0)
(0.001 -9.56036e-08 0)
(0.000999989 -1.19022e-07 0)
(0.000999971 -1.2329e-07 0)
(0.000999949 -1.10294e-07 0)
(0.00099993 -8.62806e-08 0)
(0.000999918 -5.49905e-08 0)
(0.000999912 -3.34537e-08 0)
(0.000999911 -2.94622e-08 0)
(0.000999905 -5.97025e-08 0)
(0.000999897 -1.05001e-07 0)
(0.000999875 -1.78152e-07 0)
(0.000999857 -2.31877e-07 0)
(0.000999816 -3.1774e-07 0)
(0.000999799 -3.46229e-07 0)
(0.000999737 -4.60196e-07 0)
(0.000999994 1.71625e-08 0)
(0.000999998 2.7767e-08 0)
(0.00100002 1.78487e-08 0)
(0.00100003 -7.63256e-09 0)
(0.00100001 -4.49376e-08 0)
(0.001 -8.28222e-08 0)
(0.00099999 -1.08861e-07 0)
(0.000999973 -1.20629e-07 0)
(0.000999953 -1.19494e-07 0)
(0.000999935 -1.10759e-07 0)
(0.000999924 -9.66634e-08 0)
(0.000999912 -8.93642e-08 0)
(0.000999903 -9.23164e-08 0)
(0.000999888 -1.21168e-07 0)
(0.000999876 -1.60534e-07 0)
(0.000999847 -2.24931e-07 0)
(0.000999828 -2.7171e-07 0)
(0.000999773 -3.49989e-07 0)
(0.000999757 -3.75718e-07 0)
(0.000999668 -4.82993e-07 0)
(0.000999992 1.6491e-08 0)
(0.000999996 2.90535e-08 0)
(0.00100002 2.54147e-08 0)
(0.00100003 8.23933e-09 0)
(0.00100001 -1.76889e-08 0)
(0.000999995 -4.21139e-08 0)
(0.000999975 -5.53954e-08 0)
(0.00099995 -5.58076e-08 0)
(0.000999921 -4.5115e-08 0)
(0.000999896 -2.88054e-08 0)
(0.000999881 -7.11787e-09 0)
(0.000999875 8.19517e-09 0)
(0.000999877 1.56294e-08 0)
(0.00099987 -1.60325e-09 0)
(0.000999862 -2.61773e-08 0)
(0.000999831 -7.8674e-08 0)
(0.000999807 -1.12071e-07 0)
(0.000999744 -1.85265e-07 0)
(0.000999719 -2.01985e-07 0)
(0.000999623 -3.16143e-07 0)
(0.000999992 9.06266e-09 0)
(0.001 9.42693e-09 0)
(0.00100003 -2.78303e-09 0)
(0.00100003 -2.50456e-08 0)
(0.00100002 -5.30273e-08 0)
(0.00100001 -8.19229e-08 0)
(0.000999992 -1.04308e-07 0)
(0.000999972 -1.17255e-07 0)
(0.000999948 -1.21225e-07 0)
(0.000999925 -1.20303e-07 0)
(0.000999911 -1.14354e-07 0)
(0.000999896 -1.1312e-07 0)
(0.000999885 -1.17716e-07 0)
(0.000999866 -1.4144e-07 0)
(0.000999854 -1.69583e-07 0)
(0.000999812 -2.19172e-07 0)
(0.000999787 -2.50737e-07 0)
(0.000999703 -3.15122e-07 0)
(0.000999681 -3.30655e-07 0)
(0.000999536 -4.30196e-07 0)
(0.00099999 1.29394e-08 0)
(0.000999995 2.81354e-08 0)
(0.00100002 3.54887e-08 0)
(0.00100003 3.95347e-08 0)
(0.00100001 3.92196e-08 0)
(0.000999992 3.60671e-08 0)
(0.000999968 3.54238e-08 0)
(0.000999937 3.88242e-08 0)
(0.000999906 4.61826e-08 0)
(0.00099988 5.41288e-08 0)
(0.000999867 6.35952e-08 0)
(0.000999857 7.07478e-08 0)
(0.000999857 8.09585e-08 0)
(0.000999845 8.14056e-08 0)
(0.000999836 8.42535e-08 0)
(0.000999795 6.57646e-08 0)
(0.000999768 6.40149e-08 0)
(0.000999681 1.98825e-08 0)
(0.000999652 2.33907e-08 0)
(0.000999508 -7.8479e-08 0)
(0.000999991 -6.36971e-09 0)
(0.001 -2.00498e-08 0)
(0.00100003 -3.51249e-08 0)
(0.00100004 -5.22405e-08 0)
(0.00100002 -7.05391e-08 0)
(0.001 -8.68064e-08 0)
(0.000999983 -9.95781e-08 0)
(0.000999957 -1.09681e-07 0)
(0.00099993 -1.16975e-07 0)
(0.000999904 -1.22049e-07 0)
(0.00099989 -1.22745e-07 0)
(0.000999874 -1.25298e-07 0)
(0.00099987 -1.3077e-07 0)
(0.00099985 -1.49547e-07 0)
(0.000999846 -1.67891e-07 0)
(0.000999789 -2.0018e-07 0)
(0.000999772 -2.14201e-07 0)
(0.000999645 -2.54468e-07 0)
(0.000999631 -2.52719e-07 0)
(0.000999389 -3.29796e-07 0)
)
;

boundaryField
{
    sides
    {
        type            slip;
    }
    inlet
    {
        type            fixedValue;
        value           uniform (0.001 0 0);
    }
    outlet
    {
        type            zeroGradient;
    }
    frontAndBack
    {
        type            empty;
    }
}


// ************************************************************************* //
