/*--------------------------------*- C++ -*----------------------------------*\
  =========                 |
  \\      /  F ield         | OpenFOAM: The Open Source CFD Toolbox
   \\    /   O peration     | Website:  https://openfoam.org
    \\  /    A nd           | Version:  7
     \\/     M anipulation  |
\*---------------------------------------------------------------------------*/
FoamFile
{
    version     2.0;
    format      ascii;
    class       volVectorField;
    location    "9";
    object      hU_0;
}
// * * * * * * * * * * * * * * * * * * * * * * * * * * * * * * * * * * * * * //

dimensions      [0 2 -1 0 0 0 0];

internalField   nonuniform List<vector> 
400
(
(0.00100001 -6.48547e-09 0)
(0.000999993 -2.14794e-08 0)
(0.000999962 -3.78184e-08 0)
(0.000999958 -5.59627e-08 0)
(0.000999976 -7.3694e-08 0)
(0.000999997 -8.85606e-08 0)
(0.00100002 -9.98495e-08 0)
(0.00100004 -1.08685e-07 0)
(0.00100007 -1.15014e-07 0)
(0.00100009 -1.19115e-07 0)
(0.00100011 -1.19123e-07 0)
(0.00100012 -1.22284e-07 0)
(0.00100012 -1.29729e-07 0)
(0.00100014 -1.50503e-07 0)
(0.00100015 -1.69893e-07 0)
(0.00100021 -2.02163e-07 0)
(0.00100023 -2.15354e-07 0)
(0.00100035 -2.54486e-07 0)
(0.00100037 -2.5173e-07 0)
(0.00100061 -3.28039e-07 0)
(0.00100001 1.19282e-08 0)
(0.001 2.48517e-08 0)
(0.000999973 3.24439e-08 0)
(0.000999967 3.66019e-08 0)
(0.000999985 3.62265e-08 0)
(0.00100001 3.42758e-08 0)
(0.00100003 3.56819e-08 0)
(0.00100006 4.0858e-08 0)
(0.00100009 4.8919e-08 0)
(0.00100012 5.6727e-08 0)
(0.00100013 6.59047e-08 0)
(0.00100014 7.21981e-08 0)
(0.00100014 8.12891e-08 0)
(0.00100015 8.03465e-08 0)
(0.00100016 8.20234e-08 0)
(0.0010002 6.29034e-08 0)
(0.00100023 6.12019e-08 0)
(0.00100032 1.76086e-08 0)
(0.00100035 2.18341e-08 0)
(0.00100049 -7.94652e-08 0)
(0.00100001 7.2368e-09 0)
(0.000999994 4.76985e-09 0)
(0.000999969 -9.42592e-09 0)
(0.000999964 -3.13386e-08 0)
(0.000999978 -5.82741e-08 0)
(0.000999993 -8.50876e-08 0)
(0.00100001 -1.04513e-07 0)
(0.00100003 -1.14877e-07 0)
(0.00100005 -1.17135e-07 0)
(0.00100007 -1.15619e-07 0)
(0.00100008 -1.10064e-07 0)
(0.0010001 -1.10695e-07 0)
(0.00100011 -1.17828e-07 0)
(0.00100013 -1.44236e-07 0)
(0.00100014 -1.74143e-07 0)
(0.00100019 -2.23946e-07 0)
(0.00100021 -2.54313e-07 0)
(0.0010003 -3.16802e-07 0)
(0.00100032 -3.30519e-07 0)
(0.00100046 -4.28527e-07 0)
(0.00100001 1.45021e-08 0)
(0.001 2.28899e-08 0)
(0.000999974 1.56694e-08 0)
(0.000999969 -3.11755e-09 0)
(0.000999986 -2.75435e-08 0)
(0.00100001 -4.866e-08 0)
(0.00100003 -5.76478e-08 0)
(0.00100005 -5.4254e-08 0)
(0.00100008 -4.06504e-08 0)
(0.0010001 -2.24573e-08 0)
(0.00100011 -6.53441e-10 0)
(0.00100012 1.30286e-08 0)
(0.00100012 1.72669e-08 0)
(0.00100012 -3.65147e-09 0)
(0.00100013 -3.10361e-08 0)
(0.00100017 -8.45024e-08 0)
(0.00100019 -1.17163e-07 0)
(0.00100025 -1.8863e-07 0)
(0.00100028 -2.03644e-07 0)
(0.00100037 -3.16201e-07 0)
(0.00100001 1.50869e-08 0)
(0.001 2.11227e-08 0)
(0.00099998 8.98008e-09 0)
(0.000999974 -1.82685e-08 0)
(0.000999986 -5.54768e-08 0)
(0.000999999 -9.05141e-08 0)
(0.00100001 -1.12462e-07 0)
(0.00100003 -1.20218e-07 0)
(0.00100005 -1.15856e-07 0)
(0.00100006 -1.05224e-07 0)
(0.00100007 -9.10019e-08 0)
(0.00100008 -8.542e-08 0)
(0.00100009 -9.16953e-08 0)
(0.00100011 -1.24206e-07 0)
(0.00100012 -1.66046e-07 0)
(0.00100015 -2.30865e-07 0)
(0.00100017 -2.76393e-07 0)
(0.00100023 -3.52492e-07 0)
(0.00100024 -3.7621e-07 0)
(0.00100033 -4.81463e-07 0)
(0.00100001 1.53524e-08 0)
(0.001 2.32482e-08 0)
(0.000999983 8.99187e-09 0)
(0.000999977 -2.48625e-08 0)
(0.000999987 -6.84293e-08 0)
(0.001 -1.05402e-07 0)
(0.00100001 -1.24301e-07 0)
(0.00100003 -1.24022e-07 0)
(0.00100005 -1.07305e-07 0)
(0.00100007 -8.06651e-08 0)
(0.00100008 -4.85571e-08 0)
(0.00100008 -2.90022e-08 0)
(0.00100008 -2.93205e-08 0)
(0.00100009 -6.41721e-08 0)
(0.0010001 -1.1233e-07 0)
(0.00100012 -1.85792e-07 0)
(0.00100014 -2.38029e-07 0)
(0.00100018 -3.21458e-07 0)
(0.0010002 -3.47793e-07 0)
(0.00100026 -4.5952e-07 0)
(0.001 1.49465e-08 0)
(0.001 2.39083e-08 0)
(0.000999988 8.20847e-09 0)
(0.000999982 -3.00032e-08 0)
(0.000999991 -7.8902e-08 0)
(0.001 -1.20389e-07 0)
(0.00100001 -1.42358e-07 0)
(0.00100002 -1.45279e-07 0)
(0.00100004 -1.315e-07 0)
(0.00100005 -1.07069e-07 0)
(0.00100005 -7.82558e-08 0)
(0.00100006 -6.28544e-08 0)
(0.00100006 -6.7637e-08 0)
(0.00100007 -1.06874e-07 0)
(0.00100008 -1.60799e-07 0)
(0.0010001 -2.39088e-07 0)
(0.00100011 -2.96793e-07 0)
(0.00100015 -3.82042e-07 0)
(0.00100016 -4.12118e-07 0)
(0.00100021 -5.21291e-07 0)
(0.001 1.37193e-08 0)
(0.001 2.36257e-08 0)
(0.000999991 7.01182e-09 0)
(0.000999987 -3.54461e-08 0)
(0.000999993 -8.9609e-08 0)
(0.001 -1.34946e-07 0)
(0.00100001 -1.58488e-07 0)
(0.00100002 -1.60049e-07 0)
(0.00100003 -1.41736e-07 0)
(0.00100004 -1.0993e-07 0)
(0.00100004 -7.1764e-08 0)
(0.00100005 -4.89061e-08 0)
(0.00100005 -5.14186e-08 0)
(0.00100005 -9.31577e-08 0)
(0.00100006 -1.52249e-07 0)
(0.00100007 -2.36092e-07 0)
(0.00100008 -2.98745e-07 0)
(0.00100011 -3.87844e-07 0)
(0.00100011 -4.20654e-07 0)
(0.00100015 -5.31912e-07 0)
(0.001 1.2293e-08 0)
(0.001 2.29186e-08 0)
(0.000999995 5.57156e-09 0)
(0.000999992 -3.97057e-08 0)
(0.000999996 -9.72143e-08 0)
(0.001 -1.44062e-07 0)
(0.001 -1.67554e-07 0)
(0.00100001 -1.6822e-07 0)
(0.00100002 -1.48936e-07 0)
(0.00100002 -1.15679e-07 0)
(0.00100003 -7.6516e-08 0)
(0.00100003 -5.37436e-08 0)
(0.00100003 -5.73741e-08 0)
(0.00100003 -1.00954e-07 0)
(0.00100004 -1.62653e-07 0)
(0.00100004 -2.48876e-07 0)
(0.00100005 -3.13912e-07 0)
(0.00100006 -4.04433e-07 0)
(0.00100007 -4.38939e-07 0)
(0.00100009 -5.50453e-07 0)
(0.001 1.14576e-08 0)
(0.001 2.23731e-08 0)
(0.000999998 4.82272e-09 0)
(0.000999997 -4.18433e-08 0)
(0.000999999 -1.00805e-07 0)
(0.001 -1.48715e-07 0)
(0.001 -1.72535e-07 0)
(0.001 -1.73601e-07 0)
(0.00100001 -1.53975e-07 0)
(0.00100001 -1.19268e-07 0)
(0.00100001 -7.79033e-08 0)
(0.00100001 -5.31524e-08 0)
(0.00100001 -5.61121e-08 0)
(0.00100001 -1.00348e-07 0)
(0.00100001 -1.6351e-07 0)
(0.00100001 -2.51214e-07 0)
(0.00100002 -3.17718e-07 0)
(0.00100002 -4.09299e-07 0)
(0.00100002 -4.44872e-07 0)
(0.00100003 -5.56743e-07 0)
(0.000999999 1.14574e-08 0)
(0.000999999 2.23747e-08 0)
(0.001 4.82717e-09 0)
(0.001 -4.18386e-08 0)
(0.001 -1.00803e-07 0)
(0.001 -1.48715e-07 0)
(0.000999999 -1.72535e-07 0)
(0.000999997 -1.73599e-07 0)
(0.000999995 -1.53973e-07 0)
(0.000999993 -1.19268e-07 0)
(0.000999992 -7.7905e-08 0)
(0.000999991 -5.31544e-08 0)
(0.00099999 -5.6114e-08 0)
(0.000999989 -1.00348e-07 0)
(0.000999988 -1.63511e-07 0)
(0.000999985 -2.51213e-07 0)
(0.000999983 -3.17716e-07 0)
(0.000999979 -4.09294e-07 0)
(0.000999977 -4.44867e-07 0)
(0.00099997 -5.56732e-07 0)
(0.000999998 1.22914e-08 0)
(0.000999999 2.29231e-08 0)
(0.00100001 5.58465e-09 0)
(0.00100001 -3.96918e-08 0)
(0.001 -9.7208e-08 0)
(0.001 -1.44062e-07 0)
(0.000999996 -1.67555e-07 0)
(0.00099999 -1.68218e-07 0)
(0.000999984 -1.48933e-07 0)
(0.000999978 -1.15677e-07 0)
(0.000999975 -7.65179e-08 0)
(0.000999973 -5.37469e-08 0)
(0.000999971 -5.73779e-08 0)
(0.000999968 -1.00954e-07 0)
(0.000999964 -1.6265e-07 0)
(0.000999956 -2.48862e-07 0)
(0.00099995 -3.13895e-07 0)
(0.000999936 -4.04401e-07 0)
(0.000999931 -4.38905e-07 0)
(0.000999911 -5.50397e-07 0)
(0.000999997 1.37152e-08 0)
(0.000999998 2.3631e-08 0)
(0.00100001 7.03121e-09 0)
(0.00100001 -3.54253e-08 0)
(0.00100001 -8.95975e-08 0)
(0.001 -1.34944e-07 0)
(0.000999994 -1.58487e-07 0)
(0.000999985 -1.60046e-07 0)
(0.000999973 -1.41735e-07 0)
(0.000999963 -1.09933e-07 0)
(0.000999957 -7.17723e-08 0)
(0.000999954 -4.89154e-08 0)
(0.000999952 -5.14279e-08 0)
(0.000999947 -9.31623e-08 0)
(0.000999941 -1.52254e-07 0)
(0.000999928 -2.36089e-07 0)
(0.000999917 -2.98744e-07 0)
(0.000999894 -3.87826e-07 0)
(0.000999886 -4.20637e-07 0)
(0.000999852 -5.31864e-07 0)
(0.000999996 1.49401e-08 0)
(0.000999998 2.39198e-08 0)
(0.00100001 8.234e-09 0)
(0.00100002 -2.99794e-08 0)
(0.00100001 -7.88906e-08 0)
(0.000999999 -1.20387e-07 0)
(0.00099999 -1.42355e-07 0)
(0.000999978 -1.45268e-07 0)
(0.000999965 -1.31486e-07 0)
(0.000999953 -1.07059e-07 0)
(0.000999946 -7.82558e-08 0)
(0.00099994 -6.28575e-08 0)
(0.000999935 -6.76407e-08 0)
(0.000999927 -1.06865e-07 0)
(0.000999918 -1.60783e-07 0)
(0.000999899 -2.39046e-07 0)
(0.000999885 -2.96743e-07 0)
(0.000999853 -3.81953e-07 0)
(0.000999842 -4.12025e-07 0)
(0.000999792 -5.21143e-07 0)
(0.000999995 1.53431e-08 0)
(0.000999998 2.32581e-08 0)
(0.00100002 9.01877e-09 0)
(0.00100002 -2.48362e-08 0)
(0.00100001 -6.84188e-08 0)
(0.001 -1.05407e-07 0)
(0.000999988 -1.2431e-07 0)
(0.00099997 -1.24025e-07 0)
(0.00099995 -1.07304e-07 0)
(0.000999932 -8.06669e-08 0)
(0.000999921 -4.85662e-08 0)
(0.000999917 -2.90124e-08 0)
(0.000999916 -2.93317e-08 0)
(0.000999909 -6.41774e-08 0)
(0.0009999 -1.12341e-07 0)
(0.000999877 -1.85794e-07 0)
(0.000999858 -2.38041e-07 0)
(0.000999817 -3.21446e-07 0)
(0.0009998 -3.47787e-07 0)
(0.000999738 -4.59473e-07 0)
(0.000999993 1.50741e-08 0)
(0.000999999 2.11209e-08 0)
(0.00100002 8.99883e-09 0)
(0.00100003 -1.8244e-08 0)
(0.00100001 -5.54607e-08 0)
(0.001 -9.05054e-08 0)
(0.000999989 -1.12452e-07 0)
(0.000999973 -1.20201e-07 0)
(0.000999954 -1.15837e-07 0)
(0.000999938 -1.05209e-07 0)
(0.000999928 -9.10005e-08 0)
(0.000999917 -8.5424e-08 0)
(0.000999907 -9.17043e-08 0)
(0.000999892 -1.24198e-07 0)
(0.00099988 -1.66033e-07 0)
(0.00099985 -2.30814e-07 0)
(0.000999829 -2.76339e-07 0)
(0.000999774 -3.52376e-07 0)
(0.000999758 -3.761e-07 0)
(0.00099967 -4.81255e-07 0)
(0.000999991 1.44881e-08 0)
(0.000999999 2.28888e-08 0)
(0.00100003 1.56874e-08 0)
(0.00100003 -3.10202e-09 0)
(0.00100001 -2.75444e-08 0)
(0.000999994 -4.86737e-08 0)
(0.000999975 -5.76624e-08 0)
(0.000999949 -5.42585e-08 0)
(0.000999922 -4.06476e-08 0)
(0.000999898 -2.24524e-08 0)
(0.000999886 -6.53233e-10 0)
(0.000999882 1.30281e-08 0)
(0.000999884 1.7262e-08 0)
(0.000999876 -3.6504e-09 0)
(0.000999866 -3.1041e-08 0)
(0.000999834 -8.44941e-08 0)
(0.000999809 -1.17164e-07 0)
(0.000999746 -1.88602e-07 0)
(0.000999721 -2.03622e-07 0)
(0.000999625 -3.1614e-07 0)
(0.000999992 7.22438e-09 0)
(0.00100001 4.7727e-09 0)
(0.00100003 -9.40956e-09 0)
(0.00100004 -3.13209e-08 0)
(0.00100002 -5.82634e-08 0)
(0.00100001 -8.50828e-08 0)
(0.000999994 -1.0451e-07 0)
(0.000999974 -1.14872e-07 0)
(0.00099995 -1.17131e-07 0)
(0.000999929 -1.15617e-07 0)
(0.000999915 -1.10075e-07 0)
(0.000999901 -1.10706e-07 0)
(0.00099989 -1.17847e-07 0)
(0.000999871 -1.44239e-07 0)
(0.000999858 -1.74158e-07 0)
(0.000999815 -2.23926e-07 0)
(0.000999789 -2.54314e-07 0)
(0.000999704 -3.16735e-07 0)
(0.000999683 -3.3048e-07 0)
(0.000999538 -4.28374e-07 0)
(0.000999989 1.19174e-08 0)
(0.000999999 2.48467e-08 0)
(0.00100003 3.24398e-08 0)
(0.00100003 3.65955e-08 0)
(0.00100002 3.62177e-08 0)
(0.000999992 3.42681e-08 0)
(0.000999968 3.56808e-08 0)
(0.000999937 4.08691e-08 0)
(0.000999907 4.89361e-08 0)
(0.000999883 5.67472e-08 0)
(0.000999871 6.59187e-08 0)
(0.000999863 7.22116e-08 0)
(0.000999864 8.12922e-08 0)
(0.000999851 8.03556e-08 0)
(0.000999841 8.20266e-08 0)
(0.000999799 6.2932e-08 0)
(0.000999771 6.12215e-08 0)
(0.000999684 1.76693e-08 0)
(0.000999654 2.18791e-08 0)
(0.00099951 -7.93723e-08 0)
(0.00099999 -6.48755e-09 0)
(0.00100001 -2.14763e-08 0)
(0.00100004 -3.78133e-08 0)
(0.00100004 -5.59641e-08 0)
(0.00100002 -7.3706e-08 0)
(0.001 -8.85816e-08 0)
(0.000999984 -9.98773e-08 0)
(0.000999959 -1.08714e-07 0)
(0.000999932 -1.15046e-07 0)
(0.000999907 -1.19149e-07 0)
(0.000999894 -1.19163e-07 0)
(0.000999879 -1.22319e-07 0)
(0.000999876 -1.29767e-07 0)
(0.000999855 -1.50538e-07 0)
(0.00099985 -1.69947e-07 0)
(0.000999793 -2.02218e-07 0)
(0.000999774 -2.15427e-07 0)
(0.000999647 -2.54538e-07 0)
(0.000999633 -2.51783e-07 0)
(0.000999391 -3.28078e-07 0)
)
;

boundaryField
{
    sides
    {
        type            slip;
    }
    inlet
    {
        type            fixedValue;
        value           uniform (0.001 0 0);
    }
    outlet
    {
        type            zeroGradient;
    }
    frontAndBack
    {
        type            empty;
    }
}


// ************************************************************************* //
