/*--------------------------------*- C++ -*----------------------------------*\
  =========                 |
  \\      /  F ield         | OpenFOAM: The Open Source CFD Toolbox
   \\    /   O peration     | Website:  https://openfoam.org
    \\  /    A nd           | Version:  7
     \\/     M anipulation  |
\*---------------------------------------------------------------------------*/
FoamFile
{
    version     2.0;
    format      ascii;
    class       surfaceScalarField;
    location    "9";
    object      phi_0;
}
// * * * * * * * * * * * * * * * * * * * * * * * * * * * * * * * * * * * * * //

dimensions      [0 4 -1 0 0 0 0];

internalField   nonuniform List<scalar> 
760
(
4.99991e-06
4.05205e-11
4.99985e-06
3.37983e-11
4.99983e-06
1.73534e-11
4.99985e-06
-1.48912e-11
4.99991e-06
-5.01381e-11
5.00002e-06
-8.32646e-11
5.00015e-06
-1.04753e-10
5.00028e-06
-1.1436e-10
5.0004e-06
-1.12439e-10
5.00049e-06
-1.09418e-10
5.00056e-06
-9.23025e-11
5.00062e-06
-8.1638e-11
5.00066e-06
-7.95652e-11
5.00074e-06
-1.2138e-10
5.00086e-06
-1.56818e-10
5.00109e-06
-2.66657e-10
5.00137e-06
-3.00323e-10
5.00185e-06
-4.88835e-10
5.00233e-06
-4.83402e-10
-9.42105e-10
4.99996e-06
3.21187e-11
4.99991e-06
5.06047e-11
4.99987e-06
3.38152e-11
4.99989e-06
-2.17778e-11
4.99996e-06
-1.1213e-10
5.00009e-06
-1.95662e-10
5.00025e-06
-2.46261e-10
5.0004e-06
-2.58135e-10
5.00052e-06
-2.36417e-10
5.00061e-06
-2.04439e-10
5.00066e-06
-1.53602e-10
5.00069e-06
-1.34713e-10
5.00071e-06
-1.30262e-10
5.00077e-06
-2.13077e-10
5.00088e-06
-2.96983e-10
5.00108e-06
-4.89054e-10
5.00134e-06
-5.75814e-10
5.0017e-06
-8.5682e-10
5.00208e-06
-8.72064e-10
-1.34206e-09
4.99992e-06
6.64001e-11
4.99987e-06
8.95538e-11
4.99986e-06
3.16819e-11
4.99987e-06
-4.97166e-11
4.99991e-06
-1.63271e-10
4.99999e-06
-2.75003e-10
5.00009e-06
-3.4011e-10
5.0002e-06
-3.56855e-10
5.0003e-06
-3.32646e-10
5.00039e-06
-2.90297e-10
5.00046e-06
-2.32715e-10
5.00052e-06
-2.05605e-10
5.00059e-06
-2.12558e-10
5.00068e-06
-3.17866e-10
5.00081e-06
-4.47458e-10
5.00099e-06
-6.90774e-10
5.00125e-06
-8.42835e-10
5.00155e-06
-1.16892e-09
5.00192e-06
-1.24553e-09
-1.80561e-09
4.99996e-06
7.30309e-11
4.99991e-06
1.01722e-10
4.99988e-06
5.51483e-11
4.9999e-06
-7.57452e-11
4.99996e-06
-2.37732e-10
5.00007e-06
-3.85877e-10
5.0002e-06
-4.71383e-10
5.00033e-06
-4.87553e-10
5.00045e-06
-4.47e-10
5.00053e-06
-3.72759e-10
5.00058e-06
-2.73301e-10
5.00059e-06
-2.18209e-10
5.0006e-06
-2.24068e-10
5.00064e-06
-3.70461e-10
5.00074e-06
-5.53916e-10
5.0009e-06
-8.59128e-10
5.0011e-06
-1.05747e-09
5.00136e-06
-1.43243e-09
5.00164e-06
-1.52696e-09
-2.04047e-09
4.99996e-06
7.75446e-11
4.99993e-06
1.12697e-10
4.9999e-06
4.69309e-11
4.99991e-06
-1.03102e-10
4.99995e-06
-2.9916e-10
5.00001e-06
-4.73313e-10
5.0001e-06
-5.68643e-10
5.00018e-06
-5.84343e-10
5.00027e-06
-5.24727e-10
5.00033e-06
-4.2734e-10
5.00039e-06
-3.14944e-10
5.00044e-06
-2.55644e-10
5.0005e-06
-2.70488e-10
5.00057e-06
-4.31845e-10
5.00067e-06
-6.51711e-10
5.00081e-06
-9.93466e-10
5.00098e-06
-1.2367e-09
5.00118e-06
-1.63228e-09
5.00141e-06
-1.75615e-09
-2.32066e-09
4.99997e-06
7.69471e-11
4.99994e-06
1.19608e-10
4.99992e-06
4.48726e-11
4.99992e-06
-1.33593e-10
4.99996e-06
-3.66882e-10
5.00003e-06
-5.65948e-10
5.00011e-06
-6.74987e-10
5.0002e-06
-6.83952e-10
5.00029e-06
-6.13763e-10
5.00036e-06
-4.91554e-10
5.0004e-06
-3.39845e-10
5.00042e-06
-2.52394e-10
5.00044e-06
-2.67713e-10
5.00048e-06
-4.57867e-10
5.00056e-06
-7.16106e-10
5.00067e-06
-1.09743e-09
5.00081e-06
-1.37261e-09
5.00097e-06
-1.79535e-09
5.00116e-06
-1.93706e-09
-2.47283e-09
4.99998e-06
7.2655e-11
4.99996e-06
1.18518e-10
4.99994e-06
3.76333e-11
4.99994e-06
-1.65834e-10
4.99997e-06
-4.24833e-10
5.00002e-06
-6.43269e-10
5.00008e-06
-7.51943e-10
5.00014e-06
-7.61056e-10
5.0002e-06
-6.75642e-10
5.00025e-06
-5.2966e-10
5.00029e-06
-3.59825e-10
5.00031e-06
-2.63402e-10
5.00035e-06
-2.80772e-10
5.00039e-06
-4.82516e-10
5.00045e-06
-7.6537e-10
5.00054e-06
-1.1715e-09
5.00065e-06
-1.47323e-09
5.00077e-06
-1.90939e-09
5.0009e-06
-2.0652e-09
-2.6228e-09
4.99999e-06
6.46188e-11
4.99997e-06
1.1489e-10
4.99996e-06
2.88715e-11
4.99996e-06
-1.90713e-10
4.99997e-06
-4.69124e-10
5.00001e-06
-6.96262e-10
5.00006e-06
-8.12833e-10
5.00011e-06
-8.19272e-10
5.00016e-06
-7.27358e-10
5.0002e-06
-5.67517e-10
5.00022e-06
-3.76069e-10
5.00024e-06
-2.63556e-10
5.00025e-06
-2.79643e-10
5.00028e-06
-4.93002e-10
5.00033e-06
-7.95007e-10
5.00039e-06
-1.22034e-09
5.00047e-06
-1.53957e-09
5.00056e-06
-1.98832e-09
5.00065e-06
-2.15648e-09
-2.71026e-09
4.99999e-06
5.80259e-11
4.99998e-06
1.11225e-10
4.99997e-06
2.35908e-11
4.99997e-06
-2.06358e-10
4.99998e-06
-4.97107e-10
5.00001e-06
-7.33553e-10
5.00004e-06
-8.50144e-10
5.00007e-06
-8.54773e-10
5.00009e-06
-7.58434e-10
5.00012e-06
-5.8726e-10
5.00013e-06
-3.83936e-10
5.00014e-06
-2.63784e-10
5.00015e-06
-2.79968e-10
5.00017e-06
-4.99925e-10
5.0002e-06
-8.12684e-10
5.00024e-06
-1.24808e-09
5.00029e-06
-1.57733e-09
5.00034e-06
-2.03289e-09
5.00039e-06
-2.20803e-09
-2.7666e-09
5e-06
5.60255e-11
5e-06
1.09544e-10
4.99999e-06
2.15481e-11
4.99999e-06
-2.12009e-10
5e-06
-5.06198e-10
5e-06
-7.46584e-10
5.00001e-06
-8.6317e-10
5.00002e-06
-8.6812e-10
5.00003e-06
-7.69063e-10
5.00004e-06
-5.94895e-10
5.00004e-06
-3.88343e-10
5.00005e-06
-2.65445e-10
5.00005e-06
-2.80908e-10
5.00006e-06
-5.02355e-10
5.00007e-06
-8.18112e-10
5.00008e-06
-1.25649e-09
5.0001e-06
-1.58899e-09
5.00011e-06
-2.04711e-09
5.00013e-06
-2.22517e-09
-2.78421e-09
5e-06
5.80243e-11
5.00001e-06
1.11239e-10
5.00001e-06
2.36341e-11
5.00001e-06
-2.0631e-10
5e-06
-4.97089e-10
5e-06
-7.33547e-10
4.99999e-06
-8.50147e-10
4.99998e-06
-8.54763e-10
4.99997e-06
-7.58426e-10
4.99996e-06
-5.87261e-10
4.99996e-06
-3.83945e-10
4.99995e-06
-2.63799e-10
4.99995e-06
-2.79988e-10
4.99994e-06
-4.99933e-10
4.99993e-06
-8.12686e-10
4.99992e-06
-1.24805e-09
4.9999e-06
-1.5773e-09
4.99989e-06
-2.03281e-09
4.99987e-06
-2.20795e-09
-2.76645e-09
5.00001e-06
6.4607e-11
5.00002e-06
1.14919e-10
5.00003e-06
2.89557e-11
5.00003e-06
-1.90626e-10
5.00002e-06
-4.69081e-10
4.99999e-06
-6.96264e-10
4.99996e-06
-8.12836e-10
4.99993e-06
-8.19258e-10
4.99991e-06
-7.27343e-10
4.99988e-06
-5.6752e-10
4.99987e-06
-3.76097e-10
4.99986e-06
-2.63589e-10
4.99985e-06
-2.79674e-10
4.99983e-06
-4.93006e-10
4.9998e-06
-7.95002e-10
4.99976e-06
-1.22028e-09
4.99971e-06
-1.5395e-09
4.99966e-06
-1.98817e-09
4.99961e-06
-2.15631e-09
-2.70997e-09
5.00001e-06
7.26199e-11
5.00003e-06
1.18538e-10
5.00004e-06
3.77443e-11
5.00004e-06
-1.65719e-10
5.00003e-06
-4.24775e-10
4.99999e-06
-6.43266e-10
4.99994e-06
-7.51946e-10
4.99989e-06
-7.61032e-10
4.99984e-06
-6.75617e-10
4.9998e-06
-5.29649e-10
4.99978e-06
-3.59849e-10
4.99976e-06
-2.63437e-10
4.99975e-06
-2.8081e-10
4.99972e-06
-4.82517e-10
4.99967e-06
-7.6536e-10
4.99961e-06
-1.17142e-09
4.99953e-06
-1.47314e-09
4.99944e-06
-1.90916e-09
4.99935e-06
-2.06497e-09
-2.62234e-09
5.00002e-06
7.6914e-11
5.00004e-06
1.19626e-10
5.00006e-06
4.50012e-11
5.00006e-06
-1.33466e-10
5.00003e-06
-3.66816e-10
4.99998e-06
-5.65942e-10
4.99992e-06
-6.74988e-10
4.99986e-06
-6.83922e-10
4.9998e-06
-6.1372e-10
4.99975e-06
-4.91531e-10
4.99971e-06
-3.39867e-10
4.99969e-06
-2.52425e-10
4.99965e-06
-2.67747e-10
4.99961e-06
-4.57852e-10
4.99955e-06
-7.16084e-10
4.99946e-06
-1.09732e-09
4.99935e-06
-1.3725e-09
4.99923e-06
-1.79507e-09
4.9991e-06
-1.93678e-09
-2.47232e-09
5.00003e-06
7.74853e-11
5.00006e-06
1.12722e-10
5.00008e-06
4.70406e-11
5.00008e-06
-1.02985e-10
5.00004e-06
-2.99111e-10
4.99997e-06
-4.73322e-10
4.99989e-06
-5.68657e-10
4.9998e-06
-5.84317e-10
4.99971e-06
-5.2469e-10
4.99964e-06
-4.27315e-10
4.9996e-06
-3.14964e-10
4.99958e-06
-2.55679e-10
4.99956e-06
-2.70538e-10
4.99952e-06
-4.31841e-10
4.99944e-06
-6.51707e-10
4.99933e-06
-9.93345e-10
4.99919e-06
-1.23659e-09
4.99903e-06
-1.63196e-09
4.99884e-06
-1.75586e-09
-2.32002e-09
5.00004e-06
7.29581e-11
5.00007e-06
1.01731e-10
5.0001e-06
5.52402e-11
5.00009e-06
-7.56411e-11
5.00005e-06
-2.37686e-10
4.99999e-06
-3.85881e-10
4.9999e-06
-4.71387e-10
4.99982e-06
-4.87517e-10
4.99973e-06
-4.46943e-10
4.99967e-06
-3.72707e-10
4.99961e-06
-2.73297e-10
4.99956e-06
-2.1822e-10
4.9995e-06
-2.24105e-10
4.99943e-06
-3.70438e-10
4.99933e-06
-5.539e-10
4.99919e-06
-8.5899e-10
4.99902e-06
-1.05736e-09
4.99882e-06
-1.4321e-09
4.99859e-06
-1.52666e-09
-2.03982e-09
5.00004e-06
6.63335e-11
5.00009e-06
8.95489e-11
5.00012e-06
3.17605e-11
5.0001e-06
-4.96493e-11
5.00004e-06
-1.63251e-10
4.99993e-06
-2.75026e-10
4.9998e-06
-3.40138e-10
4.99967e-06
-3.56851e-10
4.99956e-06
-3.32625e-10
4.99947e-06
-2.90277e-10
4.99942e-06
-2.32735e-10
4.99941e-06
-2.05631e-10
4.9994e-06
-2.12615e-10
4.99936e-06
-3.1787e-10
4.99926e-06
-4.47498e-10
4.9991e-06
-6.90687e-10
4.9989e-06
-8.4281e-10
4.99864e-06
-1.16864e-09
4.99836e-06
-1.24533e-09
-1.80503e-09
5.00008e-06
3.20827e-11
5.00013e-06
5.06283e-11
5.00014e-06
3.38599e-11
5.00013e-06
-2.1729e-11
5.00009e-06
-1.1212e-10
5.00001e-06
-1.95668e-10
4.99991e-06
-2.46258e-10
4.9998e-06
-2.58094e-10
4.9997e-06
-2.36357e-10
4.99961e-06
-2.04384e-10
4.99954e-06
-1.53592e-10
4.99948e-06
-1.34703e-10
4.99941e-06
-1.30303e-10
4.99932e-06
-2.13054e-10
4.99919e-06
-2.97014e-10
4.99901e-06
-4.88934e-10
4.99875e-06
-5.75788e-10
4.99845e-06
-8.56517e-10
4.99808e-06
-8.71872e-10
-1.34148e-09
5.00004e-06
4.0487e-11
5.00009e-06
3.37844e-11
5.00013e-06
1.73458e-11
5.00011e-06
-1.4914e-11
5.00004e-06
-5.01753e-11
4.99991e-06
-8.33185e-11
4.99975e-06
-1.04807e-10
4.9996e-06
-1.14392e-10
4.99948e-06
-1.12469e-10
4.99939e-06
-1.09333e-10
4.99934e-06
-9.23302e-11
4.99931e-06
-8.16728e-11
4.99929e-06
-7.96416e-11
4.99923e-06
-1.21443e-10
4.99912e-06
-1.56933e-10
4.99892e-06
-2.66721e-10
4.99866e-06
-3.00445e-10
4.9983e-06
-4.88819e-10
4.99792e-06
-4.83424e-10
-9.41966e-10
5.00009e-06
5.00015e-06
5.00017e-06
5.00015e-06
5.00009e-06
4.99998e-06
4.99985e-06
4.99972e-06
4.9996e-06
4.99951e-06
4.99944e-06
4.99938e-06
4.99934e-06
4.99926e-06
4.99914e-06
4.99891e-06
4.99863e-06
4.99815e-06
4.99767e-06
)
;

boundaryField
{
    sides
    {
        type            calculated;
        value           uniform 0;
    }
    inlet
    {
        type            calculated;
        value           nonuniform List<scalar> 
20
(
-5e-06
-5e-06
-5e-06
-5e-06
-5e-06
-5e-06
-5e-06
-5e-06
-5e-06
-5e-06
-5e-06
-5e-06
-5e-06
-5e-06
-5e-06
-5e-06
-5e-06
-5e-06
-5e-06
-5e-06
)
;
    }
    outlet
    {
        type            calculated;
        value           nonuniform List<scalar> 
20
(
5.00327e-06
5.00248e-06
5.00238e-06
5.00187e-06
5.00169e-06
5.00131e-06
5.00106e-06
5.00074e-06
5.00045e-06
5.00015e-06
4.99985e-06
4.99955e-06
4.99926e-06
4.99894e-06
4.99869e-06
4.99831e-06
4.99813e-06
4.99762e-06
4.99752e-06
4.99673e-06
)
;
    }
    frontAndBack
    {
        type            empty;
        value           nonuniform 0();
    }
}


// ************************************************************************* //
