/*--------------------------------*- C++ -*----------------------------------*\
  =========                 |
  \\      /  F ield         | OpenFOAM: The Open Source CFD Toolbox
   \\    /   O peration     | Website:  https://openfoam.org
    \\  /    A nd           | Version:  7
     \\/     M anipulation  |
\*---------------------------------------------------------------------------*/
FoamFile
{
    version     2.0;
    format      ascii;
    class       volVectorField;
    location    "9";
    object      U;
}
// * * * * * * * * * * * * * * * * * * * * * * * * * * * * * * * * * * * * * //

dimensions      [0 1 -1 0 0 0 0];

internalField   nonuniform List<vector> 
400
(
(0.0999911 -6.36602e-07 0)
(0.0999897 -2.00489e-06 0)
(0.0999866 -3.51244e-06 0)
(0.0999861 -5.22344e-06 0)
(0.0999883 -7.0522e-06 0)
(0.0999908 -8.67793e-06 0)
(0.0999931 -9.95434e-06 0)
(0.099996 -1.09644e-05 0)
(0.0999991 -1.16933e-05 0)
(0.100002 -1.22005e-05 0)
(0.100004 -1.22695e-05 0)
(0.100006 -1.25252e-05 0)
(0.100006 -1.30722e-05 0)
(0.100009 -1.49501e-05 0)
(0.10001 -1.67828e-05 0)
(0.100016 -2.00115e-05 0)
(0.100018 -2.14116e-05 0)
(0.100032 -2.54403e-05 0)
(0.100035 -2.52655e-05 0)
(0.10006 -3.29749e-05 0)
(0.0999924 1.29511e-06 0)
(0.0999919 2.8141e-06 0)
(0.0999893 3.54888e-06 0)
(0.0999886 3.95366e-06 0)
(0.0999905 3.92232e-06 0)
(0.0999931 3.60703e-06 0)
(0.0999958 3.54212e-06 0)
(0.0999992 3.88106e-06 0)
(0.100003 4.6164e-06 0)
(0.100006 5.41064e-06 0)
(0.100007 6.3578e-06 0)
(0.100009 7.07318e-06 0)
(0.100009 8.09523e-06 0)
(0.100011 8.13937e-06 0)
(0.100012 8.42481e-06 0)
(0.100017 6.57349e-06 0)
(0.10002 6.39944e-06 0)
(0.100029 1.98213e-06 0)
(0.100033 2.33445e-06 0)
(0.100049 -7.85738e-06 0)
(0.099993 9.07675e-07 0)
(0.0999917 9.42945e-07 0)
(0.099989 -2.79655e-07 0)
(0.0999885 -2.50626e-06 0)
(0.0999902 -5.30371e-06 0)
(0.099992 -8.19241e-06 0)
(0.0999936 -1.04304e-05 0)
(0.0999959 -1.17251e-05 0)
(0.0999987 -1.21221e-05 0)
(0.100001 -1.20298e-05 0)
(0.100003 -1.14336e-05 0)
(0.100005 -1.13101e-05 0)
(0.100007 -1.17688e-05 0)
(0.100009 -1.41429e-05 0)
(0.10001 -1.69559e-05 0)
(0.100015 -2.19181e-05 0)
(0.100018 -2.50725e-05 0)
(0.100027 -3.1518e-05 0)
(0.10003 -3.30687e-05 0)
(0.100046 -4.30346e-05 0)
(0.099994 1.65074e-06 0)
(0.0999936 2.90614e-06 0)
(0.099991 2.54031e-06 0)
(0.0999902 8.22421e-07 0)
(0.0999919 -1.76893e-06 0)
(0.099994 -4.20992e-06 0)
(0.0999962 -5.53768e-06 0)
(0.099999 -5.57982e-06 0)
(0.100002 -4.51144e-06 0)
(0.100005 -2.88085e-06 0)
(0.100007 -7.11716e-07 0)
(0.100008 8.19596e-07 0)
(0.100008 1.56349e-06 0)
(0.100009 -1.60291e-07 0)
(0.10001 -2.61701e-06 0)
(0.100014 -7.86787e-06 0)
(0.100017 -1.12066e-05 0)
(0.100024 -1.85289e-05 0)
(0.100027 -2.02004e-05 0)
(0.100037 -3.16204e-05 0)
(0.0999949 1.71786e-06 0)
(0.0999945 2.7776e-06 0)
(0.0999923 1.78361e-06 0)
(0.0999916 -7.65354e-07 0)
(0.0999927 -4.49514e-06 0)
(0.0999941 -8.28267e-06 0)
(0.0999954 -1.08864e-05 0)
(0.0999972 -1.20638e-05 0)
(0.0999995 -1.19505e-05 0)
(0.100002 -1.10768e-05 0)
(0.100003 -9.66606e-06 0)
(0.100005 -8.93562e-06 0)
(0.100006 -9.23019e-06 0)
(0.100008 -1.21168e-05 0)
(0.10001 -1.60538e-05 0)
(0.100013 -2.24973e-05 0)
(0.100015 -2.71755e-05 0)
(0.100021 -3.50099e-05 0)
(0.100023 -3.75824e-05 0)
(0.100033 -4.832e-05 0)
(0.0999959 1.71488e-06 0)
(0.0999956 2.97178e-06 0)
(0.0999937 1.98515e-06 0)
(0.0999928 -1.15545e-06 0)
(0.0999938 -5.53209e-06 0)
(0.0999951 -9.55936e-06 0)
(0.0999964 -1.19005e-05 0)
(0.0999983 -1.23278e-05 0)
(0.100001 -1.10286e-05 0)
(0.100003 -8.62737e-06 0)
(0.100005 -5.49784e-06 0)
(0.100005 -3.34411e-06 0)
(0.100006 -2.9448e-06 0)
(0.100007 -5.96934e-06 0)
(0.100008 -1.04985e-05 0)
(0.100011 -1.78145e-05 0)
(0.100013 -2.31859e-05 0)
(0.100017 -3.17746e-05 0)
(0.100019 -3.4623e-05 0)
(0.100026 -4.6024e-05 0)
(0.0999968 1.62179e-06 0)
(0.0999966 3.0043e-06 0)
(0.0999951 1.9422e-06 0)
(0.0999944 -1.52117e-06 0)
(0.0999951 -6.39962e-06 0)
(0.0999961 -1.08359e-05 0)
(0.0999971 -1.34852e-05 0)
(0.0999984 -1.42149e-05 0)
(0.1 -1.32301e-05 0)
(0.100002 -1.10907e-05 0)
(0.100003 -8.30449e-06 0)
(0.100004 -6.57846e-06 0)
(0.100004 -6.66059e-06 0)
(0.100006 -1.01628e-05 0)
(0.100007 -1.53007e-05 0)
(0.100009 -2.31276e-05 0)
(0.10001 -2.90735e-05 0)
(0.100014 -3.78723e-05 0)
(0.100015 -4.11121e-05 0)
(0.100021 -5.22836e-05 0)
(0.0999977 1.46316e-06 0)
(0.0999976 2.92383e-06 0)
(0.0999965 1.86197e-06 0)
(0.0999959 -1.93092e-06 0)
(0.0999964 -7.28583e-06 0)
(0.0999971 -1.21221e-05 0)
(0.0999977 -1.49356e-05 0)
(0.0999987 -1.55615e-05 0)
(0.1 -1.41764e-05 0)
(0.100001 -1.1335e-05 0)
(0.100002 -7.62012e-06 0)
(0.100003 -5.10142e-06 0)
(0.100003 -4.89069e-06 0)
(0.100004 -8.61102e-06 0)
(0.100005 -1.42712e-05 0)
(0.100006 -2.26848e-05 0)
(0.100008 -2.9164e-05 0)
(0.10001 -3.83829e-05 0)
(0.100011 -4.19121e-05 0)
(0.100015 -5.33099e-05 0)
(0.0999986 1.30397e-06 0)
(0.0999986 2.81082e-06 0)
(0.0999979 1.74123e-06 0)
(0.0999975 -2.26644e-06 0)
(0.0999978 -7.91449e-06 0)
(0.0999982 -1.29178e-05 0)
(0.0999986 -1.57355e-05 0)
(0.0999992 -1.62858e-05 0)
(0.1 -1.47907e-05 0)
(0.100001 -1.18135e-05 0)
(0.100001 -7.99916e-06 0)
(0.100002 -5.48067e-06 0)
(0.100002 -5.3789e-06 0)
(0.100002 -9.28741e-06 0)
(0.100003 -1.52262e-05 0)
(0.100004 -2.39071e-05 0)
(0.100005 -3.06548e-05 0)
(0.100006 -4.00373e-05 0)
(0.100007 -4.37442e-05 0)
(0.100009 -5.51809e-05 0)
(0.0999995 1.20424e-06 0)
(0.0999995 2.73849e-06 0)
(0.0999993 1.68169e-06 0)
(0.0999992 -2.43437e-06 0)
(0.0999993 -8.22505e-06 0)
(0.0999994 -1.33205e-05 0)
(0.0999995 -1.6176e-05 0)
(0.0999997 -1.67535e-05 0)
(0.1 -1.52464e-05 0)
(0.1 -1.21375e-05 0)
(0.1 -8.09883e-06 0)
(0.100001 -5.36764e-06 0)
(0.100001 -5.18117e-06 0)
(0.100001 -9.15002e-06 0)
(0.100001 -1.52463e-05 0)
(0.100001 -2.40946e-05 0)
(0.100002 -3.10061e-05 0)
(0.100002 -4.05055e-05 0)
(0.100002 -4.43224e-05 0)
(0.100003 -5.58032e-05 0)
(0.1 1.20419e-06 0)
(0.1 2.73856e-06 0)
(0.100001 1.68206e-06 0)
(0.100001 -2.43401e-06 0)
(0.100001 -8.22497e-06 0)
(0.100001 -1.33206e-05 0)
(0.1 -1.61762e-05 0)
(0.1 -1.67536e-05 0)
(0.1 -1.52464e-05 0)
(0.0999998 -1.21376e-05 0)
(0.0999996 -8.09913e-06 0)
(0.0999994 -5.36791e-06 0)
(0.0999993 -5.1814e-06 0)
(0.0999992 -9.15017e-06 0)
(0.099999 -1.52465e-05 0)
(0.0999987 -2.40946e-05 0)
(0.0999985 -3.10061e-05 0)
(0.099998 -4.0505e-05 0)
(0.0999978 -4.43219e-05 0)
(0.099997 -5.58021e-05 0)
(0.100001 1.30372e-06 0)
(0.100001 2.81098e-06 0)
(0.100002 1.74225e-06 0)
(0.100002 -2.26535e-06 0)
(0.100002 -7.91423e-06 0)
(0.100002 -1.29184e-05 0)
(0.100001 -1.57364e-05 0)
(0.100001 -1.62865e-05 0)
(0.1 -1.4791e-05 0)
(0.0999992 -1.18137e-05 0)
(0.0999987 -7.99963e-06 0)
(0.0999984 -5.48118e-06 0)
(0.0999981 -5.37947e-06 0)
(0.0999976 -9.28764e-06 0)
(0.0999971 -1.52263e-05 0)
(0.0999962 -2.39062e-05 0)
(0.0999954 -3.06535e-05 0)
(0.0999939 -4.00344e-05 0)
(0.0999933 -4.37409e-05 0)
(0.0999911 -5.51753e-05 0)
(0.100002 1.46261e-06 0)
(0.100002 2.92399e-06 0)
(0.100003 1.86344e-06 0)
(0.100004 -1.92923e-06 0)
(0.100004 -7.28524e-06 0)
(0.100003 -1.21228e-05 0)
(0.100002 -1.49367e-05 0)
(0.100001 -1.55625e-05 0)
(0.1 -1.41773e-05 0)
(0.0999987 -1.1336e-05 0)
(0.0999978 -7.62142e-06 0)
(0.0999971 -5.10273e-06 0)
(0.0999967 -4.89202e-06 0)
(0.0999959 -8.61196e-06 0)
(0.0999952 -1.42723e-05 0)
(0.0999937 -2.26852e-05 0)
(0.0999925 -2.91646e-05 0)
(0.09999 -3.83817e-05 0)
(0.0999889 -4.19109e-05 0)
(0.0999853 -5.33052e-05 0)
(0.100003 1.62106e-06 0)
(0.100003 3.0051e-06 0)
(0.100005 1.94442e-06 0)
(0.100006 -1.51909e-06 0)
(0.100005 -6.39902e-06 0)
(0.100004 -1.08368e-05 0)
(0.100003 -1.34863e-05 0)
(0.100002 -1.42152e-05 0)
(0.1 -1.323e-05 0)
(0.0999984 -1.10906e-05 0)
(0.0999974 -8.30507e-06 0)
(0.0999964 -6.5793e-06 0)
(0.0999956 -6.66156e-06 0)
(0.0999945 -1.01627e-05 0)
(0.0999934 -1.52999e-05 0)
(0.0999913 -2.31243e-05 0)
(0.0999896 -2.90694e-05 0)
(0.0999861 -3.78641e-05 0)
(0.0999847 -4.11032e-05 0)
(0.0999793 -5.22687e-05 0)
(0.100004 1.71381e-06 0)
(0.100004 2.97225e-06 0)
(0.100006 1.98746e-06 0)
(0.100007 -1.15309e-06 0)
(0.100006 -5.53149e-06 0)
(0.100005 -9.56082e-06 0)
(0.100004 -1.19028e-05 0)
(0.100002 -1.23296e-05 0)
(0.0999993 -1.10299e-05 0)
(0.099997 -8.62841e-06 0)
(0.0999955 -5.49926e-06 0)
(0.0999945 -3.34549e-06 0)
(0.0999941 -2.94631e-06 0)
(0.0999931 -5.97041e-06 0)
(0.099992 -1.05003e-05 0)
(0.0999894 -1.78156e-05 0)
(0.0999872 -2.3188e-05 0)
(0.0999827 -3.17744e-05 0)
(0.0999806 -3.46231e-05 0)
(0.0999739 -4.60197e-05 0)
(0.100005 1.71635e-06 0)
(0.100006 2.77686e-06 0)
(0.100008 1.78498e-06 0)
(0.100008 -7.63301e-07 0)
(0.100007 -4.49402e-06 0)
(0.100006 -8.28269e-06 0)
(0.100005 -1.08867e-05 0)
(0.100003 -1.20636e-05 0)
(0.1 -1.195e-05 0)
(0.0999984 -1.10764e-05 0)
(0.0999968 -9.66677e-06 0)
(0.0999953 -8.93678e-06 0)
(0.0999939 -9.23197e-06 0)
(0.099992 -1.21172e-05 0)
(0.0999905 -1.60539e-05 0)
(0.0999871 -2.24936e-05 0)
(0.0999848 -2.71716e-05 0)
(0.0999788 -3.49995e-05 0)
(0.0999767 -3.75722e-05 0)
(0.0999672 -4.82995e-05 0)
(0.100006 1.64921e-06 0)
(0.100006 2.90555e-06 0)
(0.100009 2.54164e-06 0)
(0.10001 8.23989e-07 0)
(0.100008 -1.769e-06 0)
(0.100006 -4.21166e-06 0)
(0.100004 -5.53989e-06 0)
(0.100001 -5.5811e-06 0)
(0.0999978 -4.51175e-06 0)
(0.0999948 -2.88069e-06 0)
(0.099993 -7.11822e-07 0)
(0.099992 8.19554e-07 0)
(0.0999918 1.563e-06 0)
(0.0999907 -1.60331e-07 0)
(0.0999895 -2.61781e-06 0)
(0.0999859 -7.86762e-06 0)
(0.099983 -1.12073e-05 0)
(0.0999762 -1.85268e-05 0)
(0.099973 -2.01987e-05 0)
(0.0999627 -3.16144e-05 0)
(0.100007 9.06337e-07 0)
(0.100008 9.42767e-07 0)
(0.100011 -2.78326e-07 0)
(0.100011 -2.50476e-06 0)
(0.10001 -5.30315e-06 0)
(0.100008 -8.1929e-06 0)
(0.100006 -1.04315e-05 0)
(0.100004 -1.17263e-05 0)
(0.100001 -1.21233e-05 0)
(0.0999986 -1.20311e-05 0)
(0.0999968 -1.1436e-05 0)
(0.0999949 -1.13126e-05 0)
(0.0999934 -1.17722e-05 0)
(0.0999911 -1.41446e-05 0)
(0.0999895 -1.6959e-05 0)
(0.0999848 -2.19179e-05 0)
(0.0999817 -2.50745e-05 0)
(0.0999726 -3.1513e-05 0)
(0.0999696 -3.3066e-05 0)
(0.0999542 -4.30198e-05 0)
(0.100008 1.29405e-06 0)
(0.100008 2.81378e-06 0)
(0.100011 3.54917e-06 0)
(0.100011 3.9538e-06 0)
(0.100009 3.92227e-06 0)
(0.100007 3.60699e-06 0)
(0.100004 3.54265e-06 0)
(0.100001 3.88269e-06 0)
(0.0999973 4.61857e-06 0)
(0.0999944 5.41323e-06 0)
(0.0999927 6.3599e-06 0)
(0.0999915 7.07518e-06 0)
(0.099991 8.09628e-06 0)
(0.0999894 8.14097e-06 0)
(0.0999881 8.42573e-06 0)
(0.0999834 6.57672e-06 0)
(0.0999801 6.4017e-06 0)
(0.0999706 1.9883e-06 0)
(0.0999667 2.33911e-06 0)
(0.0999513 -7.84794e-06 0)
(0.100009 -6.37033e-07 0)
(0.10001 -2.00518e-06 0)
(0.100013 -3.51284e-06 0)
(0.100014 -5.22456e-06 0)
(0.100012 -7.05458e-06 0)
(0.100009 -8.68143e-06 0)
(0.100007 -9.95867e-06 0)
(0.100004 -1.0969e-05 0)
(0.100001 -1.16984e-05 0)
(0.0999979 -1.22058e-05 0)
(0.0999961 -1.22753e-05 0)
(0.0999942 -1.25306e-05 0)
(0.0999936 -1.30779e-05 0)
(0.0999911 -1.49556e-05 0)
(0.0999903 -1.67901e-05 0)
(0.0999841 -2.00191e-05 0)
(0.0999816 -2.1421e-05 0)
(0.099968 -2.54477e-05 0)
(0.0999655 -2.52725e-05 0)
(0.0999399 -3.298e-05 0)
)
;

boundaryField
{
    sides
    {
        type            calculated;
        value           nonuniform List<vector> 
40
(
(0.100009 0 0)
(0.10001 0 0)
(0.100013 0 0)
(0.100014 0 0)
(0.100012 0 0)
(0.100009 0 0)
(0.100007 0 0)
(0.100004 0 0)
(0.100001 0 0)
(0.0999979 0 0)
(0.0999961 0 0)
(0.0999942 0 0)
(0.0999936 0 0)
(0.0999911 0 0)
(0.0999903 0 0)
(0.0999841 0 0)
(0.0999816 0 0)
(0.099968 0 0)
(0.0999655 0 0)
(0.0999399 0 0)
(0.0999911 0 0)
(0.0999897 0 0)
(0.0999866 0 0)
(0.0999861 0 0)
(0.0999883 0 0)
(0.0999908 0 0)
(0.0999931 0 0)
(0.099996 0 0)
(0.0999991 0 0)
(0.100002 0 0)
(0.100004 0 0)
(0.100006 0 0)
(0.100006 0 0)
(0.100009 0 0)
(0.10001 0 0)
(0.100016 0 0)
(0.100018 0 0)
(0.100032 0 0)
(0.100035 0 0)
(0.10006 0 0)
)
;
    }
    inlet
    {
        type            calculated;
        value           nonuniform List<vector> 
20
(
(0.0999902 0 0)
(0.0999914 0 0)
(0.0999922 0 0)
(0.0999933 0 0)
(0.0999943 0 0)
(0.0999954 0 0)
(0.0999965 0 0)
(0.0999975 0 0)
(0.0999985 0 0)
(0.0999995 0 0)
(0.1 0 0)
(0.100001 0 0)
(0.100002 0 0)
(0.100004 0 0)
(0.100005 0 0)
(0.100006 0 0)
(0.100007 0 0)
(0.100008 0 0)
(0.100009 0 0)
(0.10001 0 0)
)
;
    }
    outlet
    {
        type            calculated;
        value           nonuniform List<vector> 
20
(
(0.100061 -3.29752e-05 0)
(0.100049 -7.85742e-06 0)
(0.100046 -4.30348e-05 0)
(0.100038 -3.16205e-05 0)
(0.100033 -4.83202e-05 0)
(0.100026 -4.60241e-05 0)
(0.100021 -5.22837e-05 0)
(0.100015 -5.33099e-05 0)
(0.100009 -5.5181e-05 0)
(0.100003 -5.58032e-05 0)
(0.099997 -5.58021e-05 0)
(0.0999911 -5.51753e-05 0)
(0.0999852 -5.33051e-05 0)
(0.0999791 -5.22686e-05 0)
(0.0999737 -4.60196e-05 0)
(0.0999668 -4.82993e-05 0)
(0.0999623 -3.16143e-05 0)
(0.0999536 -4.30196e-05 0)
(0.0999508 -7.8479e-06 0)
(0.0999389 -3.29796e-05 0)
)
;
    }
    frontAndBack
    {
        type            empty;
    }
}


// ************************************************************************* //
