/*--------------------------------*- C++ -*----------------------------------*\
  =========                 |
  \\      /  F ield         | OpenFOAM: The Open Source CFD Toolbox
   \\    /   O peration     | Website:  https://openfoam.org
    \\  /    A nd           | Version:  7
     \\/     M anipulation  |
\*---------------------------------------------------------------------------*/
FoamFile
{
    version     2.0;
    format      ascii;
    class       volScalarField;
    location    "350";
    object      epsilon;
}
// * * * * * * * * * * * * * * * * * * * * * * * * * * * * * * * * * * * * * //

dimensions      [0 2 -3 0 0 0 0];

internalField   nonuniform List<scalar> 
96800
(
0.000146891
0.000146911
0.000146779
0.000146611
0.00014639
0.000146145
0.000145915
0.000145717
0.000145562
0.000145457
0.000145403
0.00014541
0.000145486
0.000145615
0.000145806
0.000146055
0.000146372
0.00014674
0.000147139
0.000147554
0.000148009
0.000148677
0.000147093
0.000147401
0.000147311
0.000147148
0.000146918
0.000146665
0.000146425
0.00014622
0.000146063
0.000145958
0.000145907
0.000145911
0.000145976
0.000146105
0.000146292
0.000146546
0.000146863
0.000147229
0.000147618
0.000148003
0.000148371
0.000148674
0.000147242
0.000147616
0.000147563
0.000147394
0.000147147
0.000146871
0.000146608
0.000146384
0.000146214
0.000146102
0.000146047
0.00014605
0.000146112
0.000146237
0.000146425
0.000146678
0.00014699
0.000147345
0.00014771
0.000148042
0.000148291
0.000148369
0.000147443
0.00014783
0.000147779
0.00014759
0.000147311
0.000146999
0.000146703
0.000146454
0.000146266
0.000146144
0.000146085
0.000146087
0.000146149
0.000146273
0.000146459
0.000146709
0.000147015
0.000147357
0.0001477
0.000147991
0.00014817
0.000148166
0.000147641
0.000148024
0.000147955
0.000147732
0.000147409
0.000147053
0.000146718
0.000146439
0.000146233
0.000146101
0.00014604
0.000146043
0.000146106
0.00014623
0.000146415
0.000146661
0.000146961
0.000147295
0.000147624
0.000147894
0.000148043
0.000148006
0.000147825
0.000148198
0.0001481
0.000147836
0.000147466
0.000147062
0.000146686
0.000146378
0.000146156
0.000146018
0.000145956
0.000145961
0.000146025
0.000146149
0.000146333
0.000146577
0.000146874
0.000147206
0.000147534
0.000147798
0.000147937
0.000147892
0.000147996
0.000148358
0.00014823
0.000147925
0.000147507
0.000147057
0.000146644
0.000146311
0.000146074
0.000145931
0.000145869
0.000145876
0.000145942
0.000146065
0.000146247
0.000146491
0.000146791
0.000147129
0.000147464
0.000147735
0.000147879
0.000147836
0.000148171
0.000148522
0.000148365
0.00014802
0.000147558
0.000147067
0.000146621
0.000146264
0.000146015
0.000145867
0.000145806
0.000145815
0.000145883
0.000146005
0.000146185
0.00014643
0.000146737
0.000147085
0.000147434
0.000147721
0.000147879
0.000147844
0.000148366
0.000148708
0.000148524
0.000148142
0.00014764
0.000147112
0.000146636
0.000146259
0.000145997
0.000145845
0.000145782
0.000145791
0.000145858
0.000145979
0.000146159
0.000146407
0.000146722
0.000147085
0.000147454
0.000147763
0.000147941
0.000147919
0.000148597
0.00014893
0.000148723
0.000148309
0.000147772
0.000147211
0.000146706
0.000146307
0.000146031
0.00014587
0.000145803
0.000145807
0.00014587
0.000145988
0.000146169
0.000146422
0.000146749
0.000147132
0.000147527
0.000147864
0.000148067
0.000148063
0.000148884
0.000149209
0.000148979
0.000148535
0.000147966
0.000147372
0.000146839
0.000146416
0.000146121
0.000145945
0.000145867
0.000145863
0.00014592
0.000146035
0.000146216
0.000146477
0.00014682
0.000147229
0.000147656
0.000148026
0.000148257
0.000148272
0.000149245
0.000149561
0.000149308
0.000148834
0.000148229
0.000147601
0.000147036
0.000146586
0.000146268
0.000146072
0.000145978
0.000145961
0.000146009
0.000146119
0.000146303
0.000146575
0.00014694
0.00014738
0.000147844
0.000148253
0.000148517
0.000148555
0.000149692
0.000149999
0.000149722
0.000149216
0.000148574
0.000147907
0.000147305
0.00014682
0.000146473
0.000146253
0.000146138
0.000146105
0.000146141
0.000146246
0.000146434
0.000146722
0.000147114
0.000147591
0.0001481
0.000148553
0.000148856
0.000148917
0.000150246
0.000150542
0.000150239
0.000149697
0.000149014
0.000148302
0.000147656
0.000147131
0.000146745
0.000146494
0.000146353
0.000146302
0.000146325
0.000146427
0.000146623
0.00014693
0.000147355
0.000147876
0.000148435
0.000148938
0.000149283
0.000149371
0.000150936
0.000151221
0.000150887
0.000150303
0.000149571
0.000148807
0.000148109
0.000147534
0.000147105
0.000146815
0.000146644
0.000146571
0.000146582
0.000146682
0.000146888
0.000147218
0.000147679
0.000148247
0.00014886
0.000149418
0.000149809
0.000149926
0.000151811
0.000152082
0.000151711
0.000151076
0.000150284
0.000149457
0.000148697
0.000148065
0.000147584
0.000147249
0.000147042
0.000146943
0.00014694
0.000147038
0.000147254
0.000147607
0.000148104
0.000148719
0.000149388
0.000150003
0.000150443
0.000150591
0.000152937
0.00015319
0.000152774
0.000152079
0.000151217
0.000150313
0.000149477
0.000148773
0.000148229
0.000147842
0.000147592
0.000147462
0.00014744
0.000147529
0.00014775
0.000148122
0.000148652
0.000149312
0.000150034
0.000150705
0.000151195
0.000151377
0.000154421
0.000154653
0.00015418
0.000153409
0.000152456
0.000151456
0.000150524
0.000149732
0.000149111
0.000148658
0.000148355
0.000148184
0.000148132
0.000148203
0.000148417
0.000148796
0.000149348
0.000150045
0.000150815
0.000151539
0.000152079
0.000152297
0.000156413
0.000156617
0.000156069
0.000155196
0.000154124
0.000153
0.000151946
0.000151041
0.000150318
0.000149779
0.000149403
0.000149173
0.000149075
0.000149111
0.000149303
0.000149674
0.000150232
0.000150953
0.000151762
0.000152533
0.000153119
0.000153373
0.000159117
0.000159282
0.000158632
0.000157624
0.000156393
0.000155099
0.000153878
0.000152819
0.000151961
0.000151305
0.000150829
0.000150514
0.000150347
0.000150327
0.000150474
0.000150815
0.00015136
0.000152086
0.000152919
0.000153727
0.000154356
0.000154646
0.000162832
0.000162942
0.000162146
0.000160945
0.00015949
0.000157958
0.000156503
0.000155228
0.00015418
0.000153361
0.000152747
0.000152313
0.000152043
0.000151938
0.000152013
0.000152298
0.000152806
0.000153516
0.000154353
0.000155186
0.000155851
0.000156175
0.00016802
0.000168046
0.00016703
0.000165543
0.000163756
0.000161875
0.000160078
0.000158489
0.000157164
0.00015611
0.000155298
0.000154697
0.000154286
0.000154059
0.00015403
0.000154228
0.00015467
0.000155339
0.000156162
0.000157003
0.000157696
0.000158053
0.000175466
0.000175353
0.000173997
0.000172065
0.000169763
0.000167339
0.000165014
0.000162941
0.000161196
0.000159789
0.000158686
0.000157846
0.000157234
0.000156837
0.000156664
0.000156738
0.000157082
0.000157683
0.000158468
0.000159304
0.000160016
0.000160403
0.000186602
0.000186252
0.000184331
0.000181669
0.000178526
0.000175219
0.000172036
0.000169178
0.000166754
0.000164781
0.000163221
0.000162014
0.000161106
0.000160466
0.000160092
0.00016
0.000160207
0.000160707
0.000161431
0.000162243
0.000162966
0.000163388
0.000204089
0.000203306
0.000200412
0.000196508
0.00019194
0.000187138
0.000182498
0.000178306
0.000174723
0.000171787
0.000169451
0.000167631
0.000166244
0.000165229
0.000164557
0.00016423
0.000164251
0.00016461
0.000165242
0.000166014
0.000166746
0.000167209
0.000232767
0.000231175
0.000226558
0.000220494
0.00021346
0.000206073
0.00019891
0.000192396
0.000186778
0.000182127
0.000178393
0.000175469
0.000173233
0.000171573
0.000170417
0.000169726
0.000169479
0.00016964
0.000170142
0.000170854
0.000171596
0.000172116
0.000281147
0.000278063
0.000270362
0.000260514
0.000249204
0.000237347
0.000225815
0.000215252
0.000206042
0.000198309
0.000192012
0.000187025
0.000183182
0.000180314
0.000178273
0.000176948
0.000176257
0.000176119
0.000176435
0.000177064
0.000177819
0.000178421
0.000363301
0.000357565
0.000344415
0.000328019
0.000309396
0.000289934
0.000270976
0.000253499
0.000238076
0.000224912
0.000213982
0.000205155
0.000198239
0.000193007
0.000189228
0.000186681
0.000185167
0.000184507
0.000184524
0.000185028
0.000185805
0.000186524
0.000501585
0.000491233
0.000468669
0.000441204
0.000410403
0.00037836
0.000347115
0.000318143
0.000292302
0.000269898
0.000250911
0.000235194
0.000222541
0.000212719
0.00020545
0.000200408
0.000197228
0.000195539
0.000194993
0.000195272
0.00019607
0.000196958
0.000730792
0.000712625
0.0006742
0.000628442
0.000577844
0.000525511
0.000474483
0.000426923
0.000384089
0.000346461
0.000314028
0.000286539
0.000263707
0.000245326
0.000231208
0.000221058
0.000214375
0.000210503
0.000208765
0.000208547
0.000209318
0.000210439
0.00110732
0.0010762
0.00101136
0.000935558
0.000852966
0.000768241
0.000685838
0.000608783
0.000538761
0.000476472
0.000422013
0.000375056
0.000335061
0.000301634
0.000274742
0.000254457
0.000240452
0.000231843
0.000227432
0.000226018
0.000226556
0.000227942
0.00172726
0.00167473
0.00156582
0.00144036
0.00130558
0.00116864
0.00103615
0.000912317
0.000799175
0.000697355
0.000606934
0.000527737
0.000459203
0.000400486
0.000351226
0.000311937
0.000283163
0.0002644
0.00025396
0.00024963
0.000249293
0.000250844
0.00276046
0.00267077
0.0024881
0.00228014
0.00205927
0.00183677
0.00162261
0.00142284
0.00124005
0.0010745
0.000925557
0.000792722
0.000675836
0.000574343
0.000487281
0.000414555
0.000357661
0.00031791
0.000294134
0.000282856
0.000279923
0.000281179
0.00450554
0.00435123
0.00404614
0.00370159
0.00333846
0.00297438
0.00262443
0.00229759
0.00199779
0.0017254
0.00147897
0.00125665
0.00105741
0.000881679
0.000729307
0.000599431
0.000492382
0.000411661
0.000359466
0.000332216
0.000322459
0.000322028
0.0074819
0.00722262
0.00671825
0.00615103
0.00555501
0.00495688
0.00437905
0.003835
0.00333157
0.00287111
0.00245309
0.00207525
0.00173476
0.0014303
0.00116188
0.000931414
0.0007376
0.000582224
0.000472758
0.000410312
0.00038401
0.000378291
0.0126022
0.0121741
0.0113549
0.0104348
0.00946531
0.00848454
0.00752455
0.00660573
0.00574089
0.00493852
0.00420399
0.00353943
0.0029432
0.00241102
0.00193933
0.00152869
0.00118083
0.000894844
0.000677785
0.000541748
0.000477608
0.000458133
0.0214235
0.0207347
0.0194409
0.0179855
0.0164372
0.0148441
0.0132495
0.0116846
0.0101748
0.00874401
0.00741438
0.00620372
0.00512192
0.00416812
0.00333202
0.0026031
0.001979
0.00146169
0.00105343
0.000773549
0.000627471
0.000575463
0.0365672
0.0354975
0.033535
0.0313173
0.0289128
0.0263677
0.0237349
0.0210634
0.0184058
0.0158224
0.0133748
0.01112
0.00910075
0.00733716
0.00582074
0.00452241
0.00341201
0.00248117
0.00173565
0.00119217
0.000878753
0.000754749
0.0623192
0.0607355
0.0579234
0.0547192
0.0511277
0.0471554
0.0428563
0.0383108
0.0336318
0.028959
0.02444
0.0202177
0.0164097
0.0130901
0.0102752
0.00792406
0.00595555
0.00430268
0.00295767
0.00194776
0.00131395
0.00103906
0.105564
0.103366
0.0996578
0.0953695
0.0902777
0.0842537
0.0773305
0.0696525
0.0614609
0.0530587
0.0447748
0.0369274
0.029786
0.0235387
0.0182666
0.0139397
0.0104184
0.00751542
0.00512679
0.0032963
0.0020794
0.00150456
0.177057
0.174281
0.170024
0.164944
0.15822
0.14938
0.138394
0.125545
0.111341
0.0964146
0.0814466
0.067094
0.0539189
0.0423276
0.0325316
0.0245483
0.0181881
0.0130964
0.00893969
0.00567444
0.00342516
0.00228384
0.293277
0.290298
0.286705
0.282001
0.274001
0.26148
0.24428
0.22299
0.198658
0.172553
0.146007
0.120299
0.0965288
0.0754975
0.0576503
0.0431011
0.031623
0.0226636
0.015517
0.00982175
0.00577602
0.00360495
0.478953
0.476837
0.476814
0.475349
0.467451
0.450358
0.423726
0.388791
0.347662
0.302785
0.256666
0.21168
0.16986
0.132689
0.101002
0.0750667
0.0546237
0.0388936
0.0266722
0.0169743
0.00984647
0.00585574
0.770673
0.771782
0.78144
0.789103
0.7845
0.762058
0.721113
0.664264
0.595638
0.51983
0.441391
0.364548
0.292872
0.228943
0.174198
0.129143
0.0934761
0.066143
0.045329
0.029057
0.0168169
0.00968844
1.22213
1.23114
1.26206
1.2903
1.29486
1.2667
1.20386
1.11198
0.99894
0.87314
0.742563
0.614404
0.494633
0.387492
0.295315
0.21897
0.158121
0.111367
0.0761549
0.0491436
0.0285924
0.0161873
1.9124
1.93798
2.01089
2.07984
2.10462
2.07008
1.97348
1.82616
1.64261
1.43763
1.22474
1.01566
0.819953
0.644314
0.492434
0.36579
0.26408
0.185474
0.12649
0.0820104
0.0481658
0.0271202
2.95989
3.01704
3.16736
3.31072
3.37404
3.33233
3.1842
2.95071
2.65746
2.32947
1.98873
1.65376
1.3394
1.05607
0.809683
0.602883
0.435615
0.305505
0.207817
0.135096
0.0801958
0.0453314
4.54216
4.65581
4.94158
5.2142
5.34624
5.29763
5.07279
4.7086
4.24829
3.73227
3.19508
2.66534
2.16596
1.71337
1.31745
0.983189
0.711207
0.498417
0.338262
0.220094
0.131958
0.0753472
6.93017
7.14064
7.65518
8.14561
8.39785
8.346
8.011
7.45332
6.74346
5.94352
5.10595
4.27467
3.48565
2.7657
2.13205
1.59423
1.15442
0.808612
0.547546
0.356037
0.215161
0.124473
10.5336
10.9046
11.7945
12.6425
13.0988
13.0575
12.5714
11.736
10.6614
9.43848
8.14465
6.84735
5.60431
4.46062
3.44696
2.58171
1.87077
1.30939
0.884411
0.5739
0.34867
0.204465
15.9726
16.602
18.0902
19.5074
20.3012
20.305
19.6281
18.411
16.8166
14.9723
12.9908
10.9766
9.02363
7.20817
5.58481
4.18894
3.03552
2.12121
1.42793
0.923378
0.562541
0.334144
24.1587
25.1929
27.6056
29.9037
31.251
31.3877
30.5097
28.7977
26.4798
23.731
20.7178
17.6055
14.5477
11.6715
9.07163
6.81444
4.93536
3.43934
2.30425
1.48231
0.903265
0.542817
36.3981
38.0503
41.861
45.51
47.7817
48.2673
47.2448
44.9261
41.6102
37.5435
32.982
28.1916
23.4227
18.8845
14.7358
11.0945
8.03436
5.58226
3.71814
2.37475
1.44329
0.875623
54.5251
57.1039
63.0063
68.7361
72.559
73.8275
72.8107
69.7642
65.0568
59.0591
52.1772
44.8377
37.4459
30.3437
23.7917
17.9847
13.053
9.06186
6.00679
3.80557
2.29974
1.40362
81.0968
85.0493
94.059
102.978
109.329
112.063
111.288
107.329
100.633
91.7958
81.4684
70.3223
58.9976
48.0421
37.8746
28.8014
21.0238
14.6518
9.70892
6.1153
3.66862
2.24275
119.617
125.592
139.17
152.864
163.111
168.213
167.899
162.65
153.025
140.022
124.673
108.011
90.9998
74.467
59.0545
45.2328
33.2996
23.4094
15.6094
9.83587
5.87129
3.58407
174.732
183.661
203.844
224.433
240.269
248.664
248.861
241.521
227.502
208.447
185.97
161.608
136.736
112.505
89.8168
69.3574
51.57
36.677
24.7455
15.7205
9.39334
5.73902
252.385
265.58
295.073
325.133
348.34
360.699
360.946
349.997
329.369
301.666
269.358
234.654
199.406
165.091
132.845
103.565
77.8762
56.1253
38.4372
24.7756
14.9448
9.16243
359.749
378.952
421.041
463.247
495.179
511.381
510.287
493.135
462.704
422.951
377.529
329.492
281.208
234.42
190.389
150.119
114.379
83.6815
58.2921
38.2727
23.4913
14.5328
505.108
532.453
590.613
646.908
687.539
705.844
700.492
673.071
628.55
572.64
510.48
446.098
382.355
321.133
263.619
210.695
163.092
121.436
86.2265
57.7965
36.2264
22.7873
697.404
735.037
811.712
881.504
927.743
943.714
928.777
885.602
821.933
745.647
663.486
580.432
499.729
423.208
351.723
285.72
225.533
171.604
124.622
85.456
54.7807
35.1406
946.408
995.641
1089.5
1166.15
1209.14
1214.45
1181.96
1116.69
1029.09
929.283
825.397
723.1
625.775
534.975
450.987
373.533
302.125
236.392
176.636
124.436
81.6845
53.4309
1264.04
1324.91
1424.99
1489.26
1510.58
1491.94
1432.21
1339.32
1225.26
1101.65
977.389
858.315
747.569
646.205
553.815
469.3
391.152
317.36
246.099
179.563
121.285
81.0391
1670.13
1738.07
1814.1
1824.12
1792.03
1730.33
1636.02
1514.27
1376.23
1233.48
1094.67
965.207
847.604
742.346
648.451
564.293
487.883
415.385
338.788
259.424
183.263
127.432
2193.24
2247.35
2222.74
2103.88
1982.29
1863
1734.93
1592.84
1442.11
1292.06
1150.22
1021.18
906.454
806.103
719.31
644.739
581.148
524.098
463.44
393.208
310.97
229.099
2847.29
2824.74
2494.93
2189.89
1981.84
1831.37
1693.99
1551.05
1404.22
1261.32
1128.91
1010.62
907.968
820.92
749.164
692.407
651.155
625.254
612.54
613.722
605.464
636.124
0.223231
18.0491
24.4549
20.7309
16.9896
13.176
11.4283
105.766
339.981
574.795
755.713
869.932
927.399
945.097
938.96
916.486
884.346
845.666
804.74
765.662
730.02
697.966
668.927
642.475
619.102
599.645
584.454
572.906
563.435
554.451
545.368
536.51
528.191
520.188
512.18
504.391
497.553
492.557
490.263
490.957
494.278
501.415
512.075
525.858
541.707
558.439
575.233
591.371
605.889
617.521
625.389
629.484
630.243
627.124
619.743
609.277
596.559
582.447
567.852
553.643
539.688
525.209
509.265
491.542
473.867
457.824
443.853
432.024
422.071
413.718
406.829
401.462
397.822
396.088
396.041
396.903
398.809
402.173
407.091
413.736
421.846
430.712
439.451
447.431
454.487
460.768
466.715
473.269
481.654
493.289
507.325
519.972
527.073
527.556
524.266
522.455
523.042
524.758
527.27
529.223
529.501
527.211
522.773
516.265
507.382
496.574
485.439
483.619
526.697
900.758
2704.59
2667.19
2219.62
1900.63
1715.78
1599.23
1492.64
1376.67
1254.37
1134.66
1024.4
927.204
844.775
777.935
727.105
692.177
677.045
690.443
749.937
888.095
1163.71
1613.04
3790.64
2829.78
2170.86
1760.38
1529.88
1376.15
1258.17
1164.2
1086
1018.08
957.651
905.398
860.089
819.52
782.081
746.744
714.657
686.275
659.923
634.018
608.175
582.896
559.095
538.253
521.82
509.668
501.056
494.838
490.53
488.585
488.598
489.785
492.051
494.865
497.343
499.033
499.719
498.789
495.453
490.883
485.907
481.416
477.281
472.713
467.173
461.271
456.089
452.238
449.58
447.617
446.132
445.459
445.534
446.434
448.95
453.804
460.587
468.761
477.674
486.641
494.997
502.136
507.526
510.794
511.739
510.335
505.857
499.305
491.265
482.5
473.715
465.476
458.285
452.483
448.126
445.132
443.625
443.686
445.218
448.567
452.656
456.843
460.945
464.742
468.017
470.715
472.901
474.729
476.293
477.629
478.905
480.326
481.85
483.302
484.76
486.587
489.286
493.195
498.87
506.772
517.065
530.016
545.965
565.495
590.484
627.184
698.819
875.007
1333.07
2434.55
0.0118776
0.0331389
0.057288
0.0845304
0.115039
0.152918
3.74152
74.6079
293.97
529.722
718.82
843.451
911.322
938.46
938.658
920.875
890.49
853.028
813.392
776.011
742.237
711.656
683.573
658.133
636.222
618.833
605.778
595.573
586.465
577.08
566.972
556.739
547.052
537.818
528.824
520.538
513.811
509.446
507.907
509.013
512.58
519.737
530.259
544.094
559.658
575.623
591.412
606.587
620.295
631.068
637.811
641.092
640.937
637.03
628.574
617.503
604.538
590.462
576.019
561.765
547.662
532.84
516.264
498.144
480.415
464.789
451.649
440.506
431.052
423.269
416.842
411.83
408.579
407.395
407.544
408.367
410.064
412.835
417.16
423.367
431.191
439.743
447.89
454.954
461.082
466.803
472.635
479.493
488.715
500.736
514.238
525.072
529.005
526.369
521.729
521.123
524.23
528.902
533.771
536.939
536.874
533.697
527.377
519.244
508.997
496.772
484.566
480.36
504.636
678.327
1078.01
1270.92
1298.7
1277.31
1258.88
1234.15
1186.34
1113.43
1026.88
938.556
856.499
784.916
725.941
680.988
651.442
639.239
647.735
688.224
783.021
959.029
1197.93
1492.48
2475.72
2524.22
2086.96
1737.49
1523.41
1384.27
1277.37
1185.5
1103.61
1029.93
965.314
910.936
865.639
826.507
791.094
758.409
728.407
701.105
675.476
650.031
624.211
598.392
573.738
552.216
535.711
524.478
517.16
512.431
509.27
507.567
506.714
506.71
507.452
508.6
510.053
511.203
511.587
510.054
506.586
502.287
497.399
492.235
487.014
481.417
475.027
468.312
462.411
458.287
455.985
454.928
454.146
453.485
453.598
454.688
457.665
463.111
470.458
479.199
488.739
498.389
507.402
515.053
520.721
524.025
524.827
522.696
517.517
510.276
501.755
492.835
484.203
476.266
469.379
463.78
459.421
456.28
454.851
455.116
456.555
459.421
463.259
467.542
471.866
475.9
479.517
482.773
485.705
488.386
490.765
492.821
494.279
495.592
496.946
498.19
499.278
500.76
503.031
506.617
511.989
519.289
528.663
540.563
555.876
575.642
601.208
638.481
709.275
881.706
1324.9
2138.09
0.0100343
0.0104821
0.0111661
0.0118218
0.0128251
0.0148819
0.0832832
11.795
139.117
345.589
537.547
680.945
773.114
824.598
846.711
847.194
830.42
802.327
769.453
736.994
706.616
678.318
651.988
628.481
609.094
595.033
585.71
578.667
571.483
562.744
552.208
541.047
530.382
520.104
509.795
500.014
491.912
486.403
483.646
483.667
486.064
491.388
499.645
510.836
523.354
535.894
548.189
560.359
572.201
582.238
588.895
592.242
593.036
590.602
584.3
575.27
564.566
552.964
541.01
529.071
516.984
503.836
488.627
471.679
455.043
440.609
428.451
417.805
408.327
400.164
393.184
387.453
383.422
381.365
380.887
381.1
381.995
383.763
386.896
391.823
398.384
405.717
412.572
418.099
422.373
426.082
429.91
435.083
443.61
456.43
471.494
483.079
485.65
480.128
472.457
470.467
473.877
481.001
488.22
492.826
493.805
490.667
484.193
475.787
465.281
452.393
438.192
426.483
427.818
472.904
597.988
693.721
768.766
829.68
874.79
893.955
881.84
840.198
783.586
723
666.084
617.272
578.71
552.727
540.607
544.028
567.885
623.089
730.333
904.395
1115.96
1248.6
1502.54
1726.62
1687.34
1510.04
1362.4
1257.59
1181.07
1110.3
1039.29
971.561
911.182
860.887
819.454
784.192
752.779
724.055
697.976
674.565
652.582
630.143
606.243
580.979
555.897
533.57
516.062
503.702
495.296
489.574
485.562
482.817
481.18
480.624
480.602
480.842
481.427
482.045
482.043
480.154
476.404
472.006
467.27
462.308
457.142
451.62
445.369
438.654
432.487
427.815
424.791
422.723
420.772
418.873
418.074
418.888
421.926
427.23
434.331
442.775
452.079
461.605
470.701
478.722
485.056
489.241
490.987
490.063
486.043
479.791
472.126
464.014
456.225
449.067
442.703
437.265
432.697
429.047
426.897
426.811
428.037
430.601
434.239
438.698
443.5
448.094
452.273
456.221
460.075
463.81
467.256
469.969
471.54
472.206
472.438
472.196
471.461
470.972
471.22
472.75
476.07
481.193
488.158
497.694
511.329
530.706
556.981
594.05
657.285
794.448
1113.07
1614.41
0.00998583
0.00995221
0.0099771
0.0100388
0.0101718
0.0105205
0.0119684
0.281237
16.1934
118.358
271.339
412.684
521.681
597.269
644.84
669.351
674.759
666.148
648.3
626.84
603.853
580.045
556.672
535.264
517.267
503.835
494.826
488.317
482.059
474.615
465.483
455.441
445.683
436.37
426.933
417.366
408.479
401.136
395.767
392.549
391.54
392.592
396.188
402.069
409.37
417.115
425.053
433.431
442.637
451.994
459.981
465.735
469.414
471.008
470.055
466.382
461.093
454.924
448.212
441.029
433.215
424.177
413.183
400.383
387.204
375.156
364.434
354.209
344.321
335.076
326.646
319.169
313.064
308.661
305.827
304.139
303.312
303.352
304.457
307.007
311.028
316.075
321.282
325.818
329.321
331.988
334.263
337.32
343.488
354.772
370.383
385.121
392.598
391.05
383.777
378.208
378.079
381.79
386.861
390.732
392.243
391.087
386.994
381.161
373.725
364.3
352.952
341.009
336.033
354.816
428.379
500.947
562.897
606.658
635.358
647.62
640.648
613.699
575.562
533.775
494.418
461.652
437.848
424.434
422.909
434.541
464.272
518.696
613.257
762.557
941.826
1066.9
1128.55
1205.2
1224.04
1178.99
1099.59
1026.33
970.715
921.489
872.134
825.104
781.274
742.65
709.16
679.659
652.895
628.155
605.597
585.641
567.615
549.755
530.655
509.29
486.604
464.805
445.713
430.022
417.566
407.861
400.516
395.34
392.167
390.774
390.602
391.049
391.902
392.913
393.491
392.885
390.58
387.354
383.633
379.584
375.255
370.732
365.838
360.647
355.622
351.32
347.958
344.959
341.733
338.186
335.134
333.623
333.992
336.271
340.266
345.63
352.059
359.125
366.411
373.536
380.086
385.613
389.659
391.811
391.774
389.402
385.063
379.554
373.694
367.933
362.427
357.322
352.726
348.791
345.959
344.775
345.118
346.859
349.865
354.108
359.235
364.573
369.506
374.039
378.319
382.236
385.579
388.017
389.129
389.027
388.101
386.502
384.32
381.923
379.953
379.013
379.426
381.474
385.257
391.306
400.992
416.176
438.366
469.455
516.267
601.673
775.029
1036.07
0.00998165
0.00990898
0.00985132
0.00982241
0.00982434
0.00988544
0.0100666
0.0112454
0.142905
7.35146
57.6999
156.653
256.832
341.41
405.814
450.164
476.327
487.452
487.942
481.81
471.167
456.66
439.711
422.452
406.502
392.927
382.214
373.696
366.266
359.007
351.319
343.08
334.904
327.207
319.786
312.313
304.842
297.752
291.483
286.333
282.442
279.938
279.034
279.77
282.206
285.685
289.959
295.135
301.541
309.128
317.089
324.363
330.33
334.804
337.587
338.583
338.244
337.218
335.956
334.231
331.612
327.55
321.525
313.619
304.742
296.073
287.943
279.763
271.184
262.494
254.047
246.056
238.83
232.699
227.764
223.868
220.807
218.463
216.888
216.289
216.773
218.535
221.112
224.049
226.91
229.503
231.868
234.501
239.085
247.744
260.89
275.409
286.596
290.702
288.255
282.445
278.675
278.379
279.881
281.582
282.739
282.822
281.561
278.873
275.126
270.552
265.804
262.201
263.62
281.407
334.241
382.651
416.177
436.697
451.414
459.972
457.873
442.435
417.492
388.709
361.399
339.553
325.37
319.808
323.057
337.385
364.937
410.152
482.165
592.946
731.305
851.041
914.893
945.277
951.308
938.264
900.866
850.144
798.523
750.863
709.475
674.981
643.871
614.133
586.51
561.452
538.568
517.311
497.704
480.235
464.806
450.198
435.319
418.676
400.235
381.117
362.696
345.933
331.231
318.862
308.905
301.29
295.824
292.261
290.186
289.142
288.787
289.075
289.844
290.54
290.678
290.143
288.707
286.418
283.302
279.595
275.335
270.727
266.198
262.381
259.632
257.53
255.107
251.817
248.046
244.625
242.182
240.945
240.954
242.14
244.47
247.794
251.998
256.927
262.286
267.655
272.603
276.742
279.696
280.979
280.426
278.112
274.677
270.728
266.631
262.607
258.838
255.454
252.684
250.832
250.067
250.334
251.741
254.317
258.113
262.789
267.64
272.325
276.737
280.586
283.54
285.472
286.286
286.117
285.31
283.949
282.117
279.949
277.786
276.091
275.254
275.429
277.001
280.144
285.553
294.602
308.675
328.88
357.445
401.833
480.06
600.259
0.00998756
0.00991569
0.00984002
0.00977596
0.00972715
0.00969906
0.00971424
0.00978933
0.0101321
0.0239989
0.911153
13.5307
61.327
127.094
190.158
242.493
281.465
307.369
322.542
330.08
331.791
328.757
320.964
310.307
298.718
287.636
277.983
269.745
262.621
256.16
249.937
243.486
236.833
230.335
224.18
218.28
212.5
206.813
201.337
196.277
191.81
188.074
185.217
183.43
182.799
183.117
184.525
186.957
190.638
195.654
201.752
208.304
214.572
220.003
224.294
227.342
229.358
230.895
232.492
234.15
235.395
235.394
233.694
230.029
225.035
219.695
214.555
209.368
203.699
197.468
190.884
184.201
177.702
171.665
166.237
161.402
157.083
153.227
149.861
147.122
145.173
144.12
143.967
144.496
145.573
146.988
148.772
151.154
154.903
161.318
171.032
182.311
192.736
199.563
200.825
198.262
194.456
191.904
191.553
191.905
192.565
193.04
192.892
192.021
190.569
189.327
189.878
194.222
202.98
218.638
243.799
260.696
271.017
284.541
303.161
319.606
326.287
321.314
306.156
286.847
268.677
255.346
248.402
247.875
253.531
266.306
287.412
319.581
367.653
438.673
532.936
632.199
708.828
752.657
771.558
771.566
755.202
722.324
679.156
632.217
590.283
558.068
531.03
504.866
479.707
456.695
436.136
417.574
400.609
385.397
372.081
359.94
347.786
334.62
320.143
304.91
289.819
275.474
262.037
249.8
239.241
230.632
223.864
218.594
214.416
211.03
208.343
206.499
205.596
205.555
206.115
206.833
207.006
206.421
204.667
201.846
198.062
193.513
188.688
184.425
181.47
179.898
178.831
177.246
174.721
171.568
168.407
165.715
163.713
162.468
162.038
162.365
163.714
166.04
169.224
172.891
176.645
180.207
183.392
185.855
187.182
187.078
185.81
183.642
181.1
178.472
175.94
173.551
171.351
169.468
168.036
167.152
166.88
167.298
168.793
171.164
174.055
177.2
180.503
183.756
186.563
188.774
190.342
191.219
191.497
191.348
190.875
190.198
189.5
188.998
188.851
189.211
190.274
192.081
195
199.818
207.465
218.624
233.967
255.286
287.528
336.899
0.00998761
0.00991182
0.00982952
0.00975399
0.00968824
0.00963641
0.00960225
0.0095876
0.00958543
0.00958383
0.00997621
0.0345723
0.979242
10.1093
38.8645
80.2159
118.777
150.361
174.081
190.78
201.628
207.035
207.408
204.223
198.932
193.32
188.28
183.735
179.522
175.442
171.315
166.826
161.89
156.76
151.724
146.909
142.294
137.826
133.503
129.389
125.575
122.169
119.252
116.9
115.193
114.178
113.921
114.381
115.885
118.38
121.826
126.041
130.67
135.289
139.502
143.028
145.815
148.115
150.357
152.777
155.168
157.062
157.652
156.885
154.851
152.221
149.494
146.711
143.671
140.205
136.297
132.025
127.536
122.998
118.523
114.151
109.926
105.931
102.276
99.0863
96.439
94.3436
92.7948
91.7656
91.1912
91.1025
91.4672
92.6451
95.018
99.1756
105.405
112.988
120.523
126.446
129.449
129.553
128.14
126.614
126.205
126.222
126.377
126.481
126.32
125.73
124.99
125.204
127.87
134.895
144.966
157.137
168.584
171.637
175.989
192.639
216.934
237.772
247.809
246.299
236.014
222.867
211.795
205.491
204.173
206.748
212.769
221.856
234.818
253.432
280.605
320.502
376.232
444.018
511.178
565.45
601.464
617.73
614.992
597.26
567.123
530.147
493.154
461.614
434.377
409.394
386.705
366.605
348.931
333.24
319.079
306.3
295.015
284.969
275.239
264.915
253.856
242.583
231.773
221.387
210.922
200.399
190.617
182.358
175.699
170.153
165.184
160.529
156.251
152.609
149.823
147.963
146.972
146.672
146.562
146.122
144.986
142.879
139.691
135.399
130.35
125.449
121.677
119.487
118.458
117.814
116.889
115.329
113.177
110.781
108.505
106.549
105.009
104.001
103.718
104.116
105.386
107.155
109.13
111.12
113.042
114.781
116.06
116.673
116.471
115.589
114.317
112.882
111.431
109.945
108.39
106.811
105.308
103.984
102.936
102.301
102.285
102.767
103.66
104.707
105.912
107.339
109.194
111.426
113.653
115.593
117.131
118.251
119.042
119.685
120.391
121.32
122.513
123.908
125.448
127.175
129.292
132.224
136.503
142.522
150.493
160.77
174.327
193.41
0.00998499
0.0099087
0.00982692
0.00975053
0.0096799
0.00961622
0.00956057
0.00951299
0.00946924
0.00942197
0.0093696
0.00930456
0.00961148
0.0252594
0.415099
4.00365
14.1794
36.4705
58.0511
76.8949
91.5752
101.301
107.213
110.635
112.965
114.843
116.128
116.414
115.94
114.675
112.829
110.371
107.345
103.946
100.419
96.945
93.5908
90.3585
87.2534
84.3141
81.5824
79.1042
76.9072
74.9958
73.3933
72.1548
71.3462
71.0931
71.2388
71.9776
73.2367
75.0317
77.2878
79.8538
82.5837
85.3
87.8193
90.0237
91.9932
93.9138
95.8233
97.5102
98.6134
98.9289
98.5104
97.6486
96.5378
95.2424
93.7011
91.8256
89.638
87.2219
84.6573
81.9861
79.2113
76.3284
73.379
70.4741
67.7592
65.3349
63.2428
61.4232
59.832
58.4595
57.3203
56.4736
56.0685
56.1937
57.0877
59.1007
62.2538
66.342
70.8163
74.7932
77.3082
78.4621
79.0405
79.7913
80.9517
81.6707
81.5303
81.012
80.1996
79.2038
78.4329