/*--------------------------------*- C++ -*----------------------------------*\
  =========                 |
  \\      /  F ield         | OpenFOAM: The Open Source CFD Toolbox
   \\    /   O peration     | Website:  https://openfoam.org
    \\  /    A nd           | Version:  7
     \\/     M anipulation  |
\*---------------------------------------------------------------------------*/
FoamFile
{
    version     2.0;
    format      ascii;
    class       volScalarField;
    location    "350";
    object      k;
}
// * * * * * * * * * * * * * * * * * * * * * * * * * * * * * * * * * * * * * //

dimensions      [0 2 -2 0 0 0 0];

internalField   nonuniform List<scalar> 
96800
(
0.000465642
0.000465621
0.000465333
0.000464944
0.000464468
0.000463962
0.000463493
0.000463095
0.00046279
0.000462581
0.000462473
0.000462483
0.000462627
0.000462879
0.000463256
0.000463755
0.000464378
0.000465091
0.000465849
0.000466605
0.000467361
0.000468309
0.000465917
0.000466258
0.000466015
0.000465629
0.000465133
0.000464609
0.00046412
0.000463706
0.00046339
0.000463179
0.000463075
0.000463082
0.000463209
0.000463464
0.00046384
0.000464343
0.000464966
0.000465676
0.000466422
0.000467143
0.000467791
0.00046828
0.000466139
0.00046656
0.00046635
0.000465937
0.000465397
0.000464821
0.000464285
0.000463835
0.000463494
0.00046327
0.00046316
0.000463165
0.000463289
0.000463537
0.000463912
0.000464413
0.00046503
0.000465728
0.000466447
0.000467104
0.000467606
0.000467815
0.000466437
0.000466868
0.000466641
0.000466174
0.000465563
0.000464913
0.000464311
0.00046381
0.000463436
0.000463192
0.000463076
0.00046308
0.000463205
0.000463452
0.000463824
0.00046432
0.000464928
0.000465613
0.000466308
0.000466919
0.000467341
0.00046745
0.000466737
0.000467154
0.00046688
0.000466338
0.000465637
0.000464898
0.00046422
0.000463662
0.000463252
0.000462992
0.000462872
0.000462878
0.000463006
0.000463253
0.000463623
0.000464114
0.000464715
0.000465391
0.000466076
0.000466669
0.00046706
0.000467135
0.000467018
0.000467414
0.000467081
0.000466455
0.000465658
0.000464826
0.000464069
0.000463457
0.000463016
0.000462744
0.000462623
0.000462634
0.000462765
0.000463011
0.000463378
0.000463866
0.000464467
0.000465146
0.000465837
0.000466433
0.000466822
0.000466893
0.000467288
0.00046766
0.000467266
0.000466558
0.000465669
0.000464749
0.000463921
0.00046326
0.000462793
0.000462513
0.000462393
0.000462409
0.000462542
0.000462788
0.000463151
0.000463639
0.000464247
0.000464941
0.000465652
0.000466271
0.000466677
0.000466756
0.000467571
0.00046792
0.000467469
0.000466684
0.000465711
0.000464712
0.000463822
0.000463119
0.00046263
0.000462343
0.000462225
0.000462245
0.00046238
0.000462624
0.000462984
0.000463475
0.000464096
0.000464815
0.000465558
0.000466213
0.000466651
0.000466749
0.000467894
0.000468223
0.000467721
0.000466868
0.00046582
0.000464752
0.000463807
0.000463066
0.000462556
0.00046226
0.000462141
0.000462161
0.000462295
0.000462535
0.000462895
0.000463393
0.000464033
0.000464784
0.00046557
0.00046627
0.000466751
0.000466879
0.000468286
0.000468597
0.00046805
0.000467138
0.000466026
0.000464898
0.000463901
0.000463122
0.000462586
0.000462274
0.000462146
0.000462158
0.000462285
0.000462521
0.000462882
0.000463392
0.000464058
0.000464851
0.000465691
0.000466449
0.000466979
0.000467141
0.00046878
0.000469073
0.000468486
0.000467519
0.000466347
0.000465161
0.000464114
0.000463292
0.000462722
0.000462384
0.000462235
0.000462231
0.000462346
0.000462578
0.000462944
0.000463472
0.000464173
0.000465019
0.000465924
0.000466749
0.000467338
0.000467537
0.000469403
0.000469681
0.000469052
0.00046803
0.000466796
0.000465549
0.000464445
0.000463574
0.000462962
0.000462589
0.000462409
0.00046238
0.00046248
0.000462706
0.000463081
0.000463635
0.000464383
0.000465294
0.000466276
0.000467179
0.000467834
0.000468076
0.000470176
0.000470436
0.000469764
0.000468684
0.000467385
0.00046607
0.000464901
0.000463971
0.000463307
0.000462888
0.000462671
0.000462613
0.000462691
0.000462912
0.000463302
0.000463894
0.000464701
0.00046569
0.00046676
0.000467752
0.000468483
0.000468773
0.000471118
0.000471359
0.000470641
0.0004695
0.000468131
0.00046674
0.000465497
0.000464496
0.000463768
0.000463294
0.000463031
0.00046294
0.000462999
0.000463219
0.000463631
0.00046427
0.000465149
0.000466227
0.000467399
0.00046849
0.000469304
0.000469646
0.000472265
0.000472485
0.000471716
0.000470507
0.000469057
0.000467582
0.000466255
0.000465175
0.000464374
0.000463837
0.000463524
0.000463398
0.000463441
0.000463666
0.000464106
0.000464798
0.000465754
0.00046693
0.000468211
0.000469411
0.000470314
0.000470712
0.000473664
0.000473861
0.000473034
0.000471746
0.000470205
0.000468636
0.000467216
0.000466051
0.000465175
0.000464573
0.000464206
0.000464043
0.000464068
0.000464299
0.000464769
0.000465516
0.00046655
0.000467826
0.00046922
0.00047053
0.000471527
0.000471986
0.000475376
0.000475546
0.000474654
0.000473282
0.000471643
0.00046997
0.00046845
0.000467193
0.000466237
0.000465567
0.000465147
0.000464946
0.000464952
0.000465182
0.000465674
0.00046647
0.000467579
0.000468949
0.000470449
0.000471869
0.000472963
0.000473486
0.000477489
0.000477629
0.000476664
0.000475196
0.000473448
0.000471663
0.000470036
0.000468684
0.000467646
0.00046691
0.000466437
0.000466197
0.000466176
0.000466394
0.000466894
0.00046772
0.000468884
0.000470334
0.000471933
0.000473457
0.000474646
0.000475238
0.0004801
0.000480208
0.000479156
0.000477576
0.000475705
0.0004738
0.000472064
0.000470617
0.000469501
0.000468699
0.000468172
0.000467886
0.00046783
0.000468022
0.00046851
0.000469343
0.000470539
0.000472048
0.000473728
0.000475346
0.000476625
0.000477284
0.000483298
0.000483366
0.000482212
0.000480504
0.000478495
0.000476456
0.000474604
0.000473064
0.000471877
0.00047102
0.000470445
0.000470116
0.000470018
0.00047017
0.000470625
0.00047144
0.00047264
0.00047418
0.000475919
0.000477615
0.000478978
0.000479705
0.000487175
0.000487193
0.000485905
0.000484035
0.000481858
0.000479666
0.00047769
0.000476063
0.000474821
0.000473932
0.000473334
0.000472977
0.000472844
0.000472953
0.000473363
0.000474138
0.000475315
0.00047686
0.000478632
0.000480388
0.000481827
0.000482621
0.000491872
0.000491817
0.00049034
0.000488243
0.000485837
0.000483444
0.00048132
0.000479605
0.000478331
0.000477447
0.00047687
0.000476532
0.000476402
0.000476492
0.000476862
0.00047759
0.000478728
0.000480256
0.000482042
0.000483841
0.000485344
0.000486204
0.000497781
0.000497602
0.000495831
0.000493377
0.000490602
0.000487884
0.000485523
0.000483678
0.000482375
0.000481538
0.000481052
0.000480813
0.000480761
0.000480894
0.000481266
0.000481968
0.000483071
0.000484575
0.000486363
0.000488196
0.00048976
0.000490689
0.000505994
0.000505583
0.000503302
0.000500213
0.000496765
0.000493432
0.000490589
0.000488438
0.000487011
0.000486209
0.000485866
0.000485818
0.000485953
0.000486238
0.000486708
0.000487452
0.00048856
0.000490058
0.000491855
0.000493723
0.000495353
0.000496364
0.000519089
0.000518228
0.000515018
0.000510753
0.000506016
0.000501439
0.000497531
0.00049459
0.000492689
0.000491714
0.000491437
0.000491605
0.000492029
0.000492596
0.0004933
0.000494209
0.000495415
0.000496968
0.000498809
0.000500738
0.000502462
0.000503583
0.000542271
0.000540553
0.000535647
0.000529224
0.000522053
0.000515011
0.00050885
0.000504053
0.000500799
0.000498987
0.000498341
0.000498504
0.000499164
0.000500087
0.000501164
0.000502398
0.000503852
0.000505577
0.000507544
0.000509599
0.000511473
0.000512757
0.000584605
0.000581369
0.000573475
0.000563253
0.000551727
0.000540131
0.000529599
0.000520934
0.000514535
0.000510394
0.000508224
0.000507591
0.000508015
0.000509097
0.000510551
0.000512231
0.000514102
0.000516173
0.000518419
0.000520719
0.000522847
0.000524379
0.000659502
0.000653813
0.000640988
0.000624545
0.000605813
0.000586512
0.000568324
0.000552538
0.000539928
0.000530715
0.0005247
0.000521426
0.000520298
0.000520694
0.000522098
0.000524114
0.000526491
0.000529092
0.000531826
0.00053457
0.000537123
0.000539037
0.000784048
0.000774647
0.000754279
0.000728443
0.000698841
0.000667741
0.000637497
0.000610043
0.000586711
0.000568143
0.000554402
0.000545137
0.000539724
0.000537408
0.000537406
0.000539016
0.000541639
0.000544822
0.000548259
0.000551717
0.000554959
0.000557462
0.000977749
0.000963069
0.000931904
0.000892849
0.000848091
0.000800474
0.000753056
0.000708446
0.000668641
0.000634913
0.000607851
0.000587426
0.000573148
0.000564268
0.000559911
0.000559116
0.000560872
0.000564231
0.000568417
0.000572869
0.000577155
0.000580554
0.00126415
0.00124225
0.00119615
0.00113908
0.001074
0.00100446
0.00093422
0.000866464
0.000803696
0.000747812
0.000700166
0.000661448
0.000631622
0.000610121
0.000596172
0.000588866
0.000586991
0.000589025
0.000593456
0.000599014
0.000604742
0.000609424
0.00167622
0.00164451
0.0015778
0.00149616
0.00140382
0.00130534
0.00120538
0.00110764
0.00101486
0.000929127
0.000852311
0.000786084
0.00073152
0.000688753
0.000657292
0.000636513
0.000625499
0.000622605
0.000625465
0.000631654
0.000639092
0.000645474
0.00226496
0.00221899
0.00212368
0.00200819
0.00187875
0.00174137
0.00160193
0.00146485
0.0013331
0.0012086
0.00109302
0.000988347
0.000896943
0.000820727
0.000760401
0.000715756
0.000686412
0.000671449
0.000668362
0.000673278
0.000682149
0.000690567
0.00310806
0.00304129
0.00290644
0.00274437
0.00256405
0.00237348
0.00218019
0.00198955
0.00180508
0.00162876
0.00146191
0.0013059
0.00116306
0.00103708
0.000931336
0.000847667
0.000786241
0.000747172
0.000729337
0.000728188
0.000736843
0.000747196
0.00432094
0.00422611
0.00403767
0.00381237
0.00356281
0.00329937
0.00303147
0.00276573
0.00250656
0.00225674
0.002018
0.00179157
0.00157897
0.00138334
0.00120958
0.00106417
0.00095031
0.000868925
0.000821059
0.000803901
0.000807815
0.000818884
0.00607733
0.00594477
0.00568585
0.00537715
0.00503531
0.00467308
0.00430173
0.0039292
0.00356131
0.00320256
0.00285664
0.0025264
0.0022139
0.00192115
0.00165195
0.00141405
0.00121692
0.00106618
0.000964585
0.000913324
0.000902665
0.000910848
0.00862548
0.00844409
0.00809688
0.00768303
0.00722238
0.00672903
0.0062155
0.00569112
0.0051637
0.00464091
0.00413051
0.00363979
0.0031747
0.00273892
0.00233442
0.00196564
0.00164352
0.00138268
0.00119225
0.00107765
0.00103359
0.00103088
0.0123168
0.0120756
0.0116252
0.0110868
0.01048
0.00981719
0.00911085
0.00837155
0.00761038
0.00684066
0.00607724
0.00533575
0.00463058
0.00397229
0.0033653
0.00281013
0.00231068
0.00188352
0.0015518
0.00132989
0.0012202
0.00119099
0.0176313
0.0173222
0.0167633
0.0160907
0.0153143
0.0144393
0.0134752
0.0124341
0.0113331
0.0101952
0.00904727
0.0079187
0.00683832
0.00583008
0.00490798
0.00407444
0.0033238
0.00265986
0.00211226
0.00171835
0.00149274
0.00140936
0.0252191
0.0248414
0.0241889
0.0233927
0.022435
0.0213024
0.0199976
0.0185357
0.0169449
0.0152644
0.0135412
0.0118267
0.0101723
0.00862297
0.00721049
0.00594843
0.004828
0.00383162
0.00297206
0.00231272
0.00189641
0.0017136
0.0359361
0.0355032
0.0348077
0.0339344
0.0328052
0.0313689
0.0296165
0.0275705
0.0252796
0.0228104
0.020242
0.0176599
0.0151492
0.012786
0.0106282
0.00871043
0.00703225
0.00555928
0.00426612
0.00321233
0.002496
0.00214473
0.0508937
0.050443
0.0498113
0.0489629
0.0477045
0.0459181
0.0435776
0.040723
0.0374398
0.0338399
0.0300516
0.0262116
0.0224547
0.0189011
0.0156449
0.0127499
0.0102357
0.00806444
0.00616648
0.00455503
0.00338509
0.00276296
0.0715093
0.0711141
0.0707357
0.0700936
0.0687944
0.0666094
0.0634924
0.05952
0.0548415
0.0496412
0.0441221
0.0384956
0.0329678
0.02772
0.0228927
0.0185867
0.0148501
0.0116573
0.00890449
0.00652932
0.00469586
0.00365584
0.0995687
0.0993556
0.0995411
0.0993935
0.0982068
0.0955673
0.0914151
0.085897
0.0792696
0.0718322
0.0638988
0.0557872
0.0478006
0.0402003
0.0331848
0.0268984
0.0214244
0.0167625
0.0127952
0.00937066
0.00660933
0.00494851
0.137312
0.137485
0.138724
0.139516
0.138658
0.135488
0.129935
0.12228
0.112954
0.102433
0.0911928
0.0796944
0.0683664
0.0575689
0.0475692
0.0385631
0.0306767
0.0239464
0.0182639
0.013397
0.00936647
0.0068163
0.187578
0.188448
0.191461
0.193852
0.193591
0.18978
0.182319
0.17173
0.158719
0.144022
0.128333
0.112299
0.0965025
0.0814225
0.0674084
0.0547203
0.0435388
0.033949
0.0258728
0.0190222
0.0132798
0.00949771
0.254079
0.256098
0.261903
0.26678
0.267482
0.262866
0.252825
0.238284
0.22034
0.200081
0.178489
0.156443
0.134712
0.113921
0.0945274
0.0768809
0.0612364
0.0477417
0.0363668
0.0267954
0.0187582
0.0133138
0.341691
0.345482
0.355477
0.364052
0.366254
0.36063
0.347201
0.327468
0.303054
0.275496
0.246136
0.216137
0.186509
0.158072
0.131445
0.107112
0.0854337
0.0666358
0.0507497
0.0374583
0.0263458
0.0186932
0.457079
0.463494
0.479599
0.493561
0.498108
0.491351
0.473637
0.447259
0.414514
0.377469
0.337895
0.29732
0.257088
0.218315
0.18187
0.148448
0.118558
0.0925275
0.0704621
0.0520689
0.0368058
0.0262279
0.609266
0.61946
0.644302
0.666017
0.674206
0.666403
0.643503
0.608854
0.565576
0.516316
0.463334
0.408646
0.354077
0.301201
0.25128
0.20534
0.16413
0.128127
0.0975357
0.0721063
0.0511953
0.0367277
0.810692
0.826216
0.863291
0.895926
0.909655
0.90128
0.872512
0.827945
0.77161
0.706749
0.636205
0.562658
0.488639
0.416396
0.347783
0.284352
0.227264
0.177282
0.134786
0.0995865
0.0709464
0.0512937
1.07788
1.10074
1.15453
1.20222
1.22441
1.21681
1.18224
1.12635
1.05409
0.969337
0.875731
0.776927
0.676483
0.577591
0.482939
0.394865
0.315237
0.245385
0.186053
0.137177
0.0979213
0.0713644
1.43213
1.46493
1.54119
1.60968
1.64524
1.64139
1.60248
1.5342
1.44247
1.33208
1.20792
1.07511
0.938703
0.803216
0.672467
0.549869
0.438341
0.340168
0.256822
0.188596
0.134625
0.0988206
1.90039
1.94647
2.0529
2.15058
2.20714
2.21251
2.17195
2.09003
1.97389
1.82989
1.66489
1.48619
1.30097
1.1157
0.935758
0.765911
0.610321
0.472514
0.355136
0.259356
0.184676
0.13626
2.5164
2.58019
2.72712
2.86567
2.95398
2.97628
2.93653
2.83827
2.69023
2.50149
2.28192
2.04182
1.79132
1.5396
1.29427
1.06179
0.847602
0.656388
0.492145
0.357571
0.253493
0.187456
3.32136
3.40877
3.60967
3.804
3.9368
3.98405
3.94588
3.82542
3.63408
3.38536
3.09358
2.77312
2.43779
2.10004
1.77026
1.45716
1.16765
0.90736
0.681331
0.494009
0.348787
0.25787
4.363
4.48185
4.75368
5.02114
5.21138
5.28908
5.24937
5.0956
4.84414
4.51524
4.12959
3.70693
3.26532
2.8205
2.38564
1.97195
1.58827
1.24135
0.937025
0.681129
0.480254
0.35512
5.69352
5.85399
6.21687
6.57542
6.8334
6.94173
6.89072
6.68532
6.35021
5.91528
5.41004
4.86104
4.29096
3.71849
3.15873
2.62479
2.12739
1.67487
1.2742
0.932574
0.659828
0.488162
7.36369
7.57811
8.05343
8.518
8.84718
8.97762
8.89644
8.61228
8.1624
7.58987
6.93583
6.23517
5.51545
4.79754
4.09699
3.42709
2.7993
2.22335
1.70793
1.26242
0.900689
0.668538
9.41706
9.69893
10.3055
10.882
11.2733
11.4045
11.2624
10.8624
10.2595
9.51371
8.68055
7.80443
6.91782
6.04271
5.19314
4.3799
3.61249
2.90034
2.25384
1.68587
1.21614
0.90936
11.8783
12.2386
12.9835
13.6576
14.0808
14.1742
13.9266
13.3655
12.568
11.6149
10.5769
9.50863
8.44686
7.41353
6.41922
5.46926
4.56712
3.71755
2.93015
2.2223
1.62331
1.22477
14.7474
15.1883
16.0489
16.7669
17.1582
17.1567
16.7461
15.9767
14.9486
13.7641
12.5091
11.2466
10.0167
8.84011
7.7224
6.66151
5.65103
4.68398
3.76079
2.90166
2.14946
1.63662
17.996
18.5093
19.3992
20.0339
20.2801
20.1033
19.4718
18.4586
17.1829
15.7657
14.3053
12.8702
11.5017
10.2179
9.01918
7.89613
6.83172
5.79967
4.77292
3.769
2.84234
2.18705
21.5865
22.1336
22.8595
23.1675
23.0934
22.638
21.7493
20.4895
18.9862
17.3717
15.7511
14.1949
12.7432
11.411
10.195
9.08201
8.05094
7.05654
6.01123
4.91198
3.82226
3.00465
25.4321
25.8826
26.0212
25.6158
25.064
24.2693
23.1429
21.6957
20.0412
18.3136
16.6191
15.025
13.5674
12.2622
11.1057
10.0873
9.19386
8.37581
7.53722
6.61791
5.60123
4.63874
29.1607
29.2254
27.7759
26.4103
25.4111
24.4561
23.2614
21.7749
20.1027
18.3829
16.7228
15.1882
13.8147
12.615
11.5917
10.7434
10.0752
9.58121
9.24445
9.07039
8.87579
9.08725
0.00259975
0.0350912
0.0657321
0.0632219
0.0564258
0.0468482
0.277607
4.02356
9.23456
13.1442
15.6123
16.9065
17.3782
17.3449
16.9847
16.4529
15.8109
15.103
14.3884
13.7181
13.1115
12.5695
12.0853
11.6556
11.2882
10.9933
10.7729
10.6145
10.4932
10.3851
10.2807
10.1818
10.0909
10.0055
9.92477
9.85741
9.81939
9.82273
9.86933
9.97715
10.143
10.3584
10.6093
10.8761
11.1386
11.3823
11.6015
11.7926
11.9483
12.0556
12.1053
12.103
12.0469
11.9439
11.7931
11.6038
11.3909
11.1689
10.9527
10.7549
10.5738
10.397
10.2085
10.0016
9.7962
9.60807
9.43931
9.2883
9.15111
9.02572
8.91336
8.81889
8.74897
8.709
8.70022
8.71241
8.75027
8.81642
8.91655
9.04926
9.20572
9.37086
9.52888
9.6703
9.79449
9.90747
10.0208
10.1512
10.3165
10.5277
10.7562
10.9354
11.0059
10.9724
10.8753
10.7983
10.7583
10.7477
10.7478
10.7359
10.6928
10.6194
10.5169
10.3784
10.2031
10.0049
9.82871
9.83897
10.5187
14.4435
27.037
27.5863
25.7092
24.4034
23.6261
22.9284
21.9356
20.6069
19.0756
17.497
15.9844
14.6039
13.3916
12.3663
11.533
10.8961
10.5004
10.4152
10.7281
11.6673
13.413
15.9497
24.7501
21.124
18.4538
16.8503
16.1539
15.8865
15.8365
15.9001
15.9873
15.9915
15.851
15.5876
15.2368
14.8171
14.3506
13.8596
13.3816
12.9363
12.513
12.0981
11.6888
11.291
10.9164
10.5847
10.3149
10.1065
9.95206
9.84022
9.77083
9.75126
9.77523
9.8424
9.92803
10.0071
10.0592
10.0751
10.0528
9.99016
9.90073
9.79969
9.70895
9.64708
9.61531
9.59881
9.58197
9.56337
9.54634
9.53214
9.51835
9.50223
9.49002
9.49125
9.50907
9.56332
9.66163
9.80054
9.96163
10.1253
10.2755
10.4008
10.4948
10.5528
10.5745
10.563
10.514
10.4341
10.328
10.2037
10.0709
9.94024
9.8211
9.72032
9.64385
9.59602
9.57721
9.58094
9.60177
9.64731
9.72139
9.81476
9.9076
9.9883
10.0524
10.0987
10.1299
10.1506
10.1641
10.176
10.1889
10.2038
10.2217
10.244
10.2682
10.2898
10.3096
10.3335
10.3682
10.4221
10.5061
10.6261
10.7811
10.972
11.2014
11.4784
11.8392
12.3991
13.4753
15.7019
20.1044
27.9544
0.0011916
0.00228705
0.00318818
0.00398207
0.00462303
0.00529351
0.153479
3.03733
8.21084
12.2651
14.9206
16.3923
17.0204
17.1056
16.8457
16.3709
15.7636
15.08
14.3875
13.741
13.1573
12.6322
12.1587
11.7398
11.3875
11.113
10.9123
10.7639
10.642
10.526
10.4078
10.2927
10.1867
10.0879
9.99626
9.92258
9.8858
9.89292
9.9387
10.0449
10.2078
10.4214
10.6727
10.9396
11.1983
11.433
11.6406
11.821
11.9691
12.0722
12.1092
12.0965
12.0355
11.9313
11.7713
11.5794
11.3681
11.1501
10.9382
10.7416
10.5599
10.3799
10.1853
9.97573
9.77227
9.59253
9.43727
9.29783
9.16989
9.05414
8.94935
8.86031
8.79562
8.7608
8.75492
8.76604
8.79535
8.8454
8.93485
9.05813
9.20729
9.36527
9.51344
9.6424
9.75408
9.85858
9.96882
10.0999
10.2731
10.4884
10.7123
10.8734
10.9108
10.8412
10.7359
10.6759
10.6736
10.6982
10.7226
10.7189
10.6738
10.5883
10.468
10.3112
10.1229
9.91022
9.71816
9.68546
10.1382
12.4142
16.1421
18.1373
19.0699
19.6369
19.9897
19.9471
19.3812
18.3635
17.0976
15.7624
14.4802
13.3211
12.3234
11.5102
10.8972
10.5006
10.3584
10.5325
11.24
12.5186
14.0285
15.6354
20.1854
20.1869
18.1931
16.7236
16.0124
15.7658
15.7426
15.7991
15.8657
15.8475
15.697
15.4477
15.1269
14.7465
14.3207
13.8724
13.4273
13.0017
12.5925
12.1871
11.7813
11.3803
10.9987
10.6618
10.3929
10.1951
10.0537
9.95357
9.88972
9.86435
9.87239
9.91559
9.98142
10.048
10.0928
10.1054
10.0811
10.0219
9.93056
9.83388
9.74379
9.67279
9.62719
9.5988
9.57099
9.5421
9.51667
9.50126
9.49403
9.4888
9.48248
9.48352
9.50235
9.55404
9.64865
9.79141
9.95674
10.1265
10.285
10.4205
10.5256
10.593
10.6183
10.6064
10.5574
10.4712
10.3561
10.2253
10.0883
9.95673
9.83968
9.74209
9.66847
9.62175
9.60342
9.60417
9.62558
9.6716
9.73948
9.82867
9.92079
10.0063
10.078
10.1291
10.1663
10.1948
10.2179
10.24
10.2625
10.2835
10.3022
10.3216
10.343
10.3628
10.3797
10.399
10.4287
10.4745
10.5513
10.6609
10.8016
10.9773
11.1973
11.4746
11.8363
12.3892
13.4347
15.6089
19.8853
25.8924
0.00100196
0.00104678
0.00108487
0.00112609
0.00119259
0.00132423
0.00526199
0.601238
4.71437
8.92967
12.0187
13.9718
15.042
15.505
15.564
15.3376
14.9074
14.3521
13.7527
13.1732
12.6341
12.1371
11.6829
11.2831
10.954
10.7088
10.5382
10.4113
10.2964
10.1743
10.0399
9.90579
9.78224
9.66595
9.55297
9.45356
9.38703
9.36596
9.38597
9.45856
9.58472
9.76134
9.97891
10.2159
10.4455
10.6502
10.8289
10.987
11.1254
11.2283
11.279
11.2825
11.2434
11.1624
11.0372
10.8775
10.6987
10.5133
10.3309
10.1586
9.9952
9.8284
9.64353
9.44264
9.24913
9.08297
8.94091
8.81026
8.6858
8.56989
8.46244
8.36753
8.29462
8.24922
8.22887
8.22641
8.2383
8.2709
8.33364
8.43038
8.55499
8.69123
8.81872
8.92481
9.01096
9.0882
9.16962
9.27664
9.43936
9.66621
9.9162
10.0977
10.1324
10.0422
9.91406
9.85038
9.86438
9.91966
9.97298
9.98934
9.95851
9.87077
9.74745
9.59505
9.41048
9.19371
8.97076
8.82585
8.93647
9.81612
11.569
13.0082
14.3297
15.4854
16.3076
16.6083
16.3583
15.6202
14.6284
13.5542
12.5177
11.5915
10.8133
10.2144
9.80708
9.61173
9.6554
10.0337
10.9011
12.2366
13.6396
14.368
15.686
16.681
16.391
15.4827
14.8673
14.5939
14.5738
14.6387
14.7087
14.7244
14.6474
14.4874
14.2591
13.969
13.6286
13.2576
12.8812
12.5169
12.1607
11.797
11.4176
11.0256
10.6409
10.2958
10.0153
9.80303
9.64552
9.527
9.44135
9.38923
9.37214
9.38603
9.42683
9.47405
9.51242
9.53052
9.51733
9.46356
9.38176
9.29122
9.20366
9.12852
9.07143
9.02947
8.99226
8.95618
8.92543
8.90486
8.89239
8.87905
8.85904
8.84036
8.84036
8.8739
8.95562
9.08072
9.23354
9.39751
9.55752
9.7004
9.8169
9.90017
9.94684
9.95686
9.92879
9.86193
9.76508
9.64754
9.52002
9.3956
9.28425
9.18987
9.11447
9.05987
9.02547
9.01139
9.01914
9.05594
9.11991
9.20232
9.29408
9.38709
9.4715
9.53974
9.59263
9.63649
9.67628
9.71466
9.75148
9.78158
9.79995
9.80956
9.81577
9.81742
9.81262
9.80897
9.81499
9.83967
9.89065
9.96988
10.0775
10.2222
10.4222
10.6963
11.0627
11.5925
12.5113
14.3088
17.6181
21.6615
0.000999251
0.000998395
0.00100161
0.0010074
0.00101811
0.00104441
0.00114161
0.0160045
0.718371
4.06614
7.3139
9.74636
11.3637
12.3405
12.8482
13.0039
12.9002
12.6014
12.2019
11.7666
11.3235
10.8841
10.4659
10.0891
9.77251
9.52951
9.35576
9.22515
9.10838
8.98649
8.85277
8.71611
8.58887
8.47049
8.35331
8.23911
8.14119
8.07301
8.04089
8.04712
8.09758
8.1932
8.32983
8.4948
8.66653
8.82687
8.97165
9.10579
9.23611
9.35431
9.44242
9.49268
9.50778
9.4905
9.43519
9.34726
9.23863
9.12095
9.00082
8.8813
8.76129
8.6327
8.48507
8.3196
8.15409
8.00618
7.87463
7.74523
7.61428
7.48562
7.36203
7.24725
7.1497
7.07589
7.0254
6.99371
6.978
6.97948
7.0047
7.05847
7.13931
7.23806
7.33913
7.42881
7.50169
7.56169
7.61762
7.69138
7.82086
8.03329
8.30514
8.54625
8.65957
8.62946
8.51078
8.41182
8.38761
8.41329
8.45295
8.47093
8.45692
8.39965
8.30907
8.19389
8.054
7.88519
7.69542
7.52545
7.51799
7.99335
9.32587
10.6376
11.8446
12.8009
13.448
13.6991
13.5339
12.9765
12.1993
11.342
10.5139
9.78762
9.20344
8.7815
8.53533
8.48227
8.63007
9.07249
9.90505
11.1498
12.4615
13.2151
13.4946
13.851
13.8813
13.5468
13.0909
12.7477
12.6082
12.5946
12.6448
12.7186
12.7473
12.7073
12.5865
12.397
12.1498
11.862
11.5583
11.2603
10.9704
10.674
10.3583
10.014
9.65604
9.31374
9.01063
8.75541
8.54601
8.3767
8.24487
8.15142
8.09741
8.08104
8.09419
8.1261
8.16049
8.18717
8.19248
8.16984
8.11761
8.05036
7.97888
7.91111
7.85271
7.80667
7.76845
7.73462
7.70535
7.68222
7.66332
7.6387
7.60144
7.55546
7.51788
7.50745
7.53227
7.59846
7.69547
7.81251
7.93809
8.06071
8.17179
8.26572
8.33846
8.38669
8.40641
8.39611
8.35451
8.28638
8.19773
8.09964
8.00372
7.91609
7.83893
7.77439
7.72407
7.69012
7.67828
7.69077
7.73349
7.799
7.88107
7.97537
8.07347
8.164
8.23954
8.30281
8.35838
8.40702
8.44768
8.47699
8.49036
8.48965
8.48195
8.46734
8.44567
8.42124
8.40288
8.39863
8.4143
8.45575
8.52278
8.62361
8.77739
9.00772
9.33305
9.78616
10.4819
11.7024
13.7836
16.2546
0.000999073
0.00099548
0.000992993
0.000992199
0.000994082
0.000999815
0.00101364
0.00109128
0.00884511
0.361303
2.33268
4.7981
6.81707
8.2839
9.26658
9.85226
10.1216
10.1536
10.0302
9.81527
9.54408
9.22955
8.8949
8.57057
8.27877
8.03355
7.83889
7.68294
7.54861
7.42234
7.2955
7.16671
7.04356
6.93003
6.82205
6.71543
6.61247
6.52047
6.44716
6.39794
6.3757
6.38406
6.42915
6.5067
6.60681
6.716
6.82636
6.93797
7.0555
7.17753
7.29213
7.3858
7.45211
7.48979
7.49703
7.47931
7.44095
7.39484
7.34741
7.29718
7.23856
7.16423
7.06704
6.94819
6.82071
6.70068
6.59041
6.47863
6.35858
6.23351
6.10809
5.98594
5.87303
5.77569
5.69625
5.63283
5.58289
5.54564
5.52337
5.52055
5.54135
5.58476
5.64347
5.70772
5.76945
5.82581
5.87872
5.94004
6.04175
6.21904
6.47009
6.73078
6.91857
6.97597
6.92401
6.81833
6.74475
6.72394
6.72932
6.73343
6.72808
6.70491
6.65882
6.59245
6.50995
6.41587
6.32487
6.2721
6.33428
6.75793
7.77085
8.7766
9.6529
10.3664
10.8974
11.1605
11.0999
10.7149
10.1198
9.44096
8.78501
8.22618
7.80185
7.5228
7.39035
7.40626
7.59337
7.99293
8.67093
9.67692
10.8029
11.6355
11.9955
12.1164
12.0878
11.9426
11.6471
11.2857
10.9662
10.7476
10.6622
10.6819
10.7243
10.7232
10.6609
10.541
10.3723
10.1631
9.93025
9.69456
9.46494
9.23211
8.98572
8.70955
8.40726
8.09691
7.79868
7.52555
7.28324
7.07528
6.90402
6.77049
6.6742
6.61314
6.58176
6.57177
6.5762
6.58971
6.6016
6.60429
6.59547
6.57125
6.53447
6.48871
6.43882
6.39107
6.34636
6.30511
6.26915
6.2428
6.22666
6.2111
6.18091
6.13065
6.07068
6.0178
5.98476
5.97742
5.99655
6.04038
6.10241
6.17627
6.2572
6.34075
6.42152
6.49316
6.55002
6.58764
6.60229
6.59259
6.55602
6.4974
6.42659
6.35325
6.28303
6.21948
6.16549
6.12314
6.09597
6.08728
6.0982
6.13342
6.1864
6.25671
6.34252
6.4355
6.52367
6.60283
6.67293
6.73118
6.77451
6.80278
6.81661
6.81721
6.81266
6.80283
6.78856
6.77095
6.75444
6.74468
6.74633
6.76613
6.80447
6.86535
6.96221
7.11596
7.34516
7.66537
8.1183
8.82278
9.94826
11.3517
0.000999252
0.000995483
0.00099179
0.000988829
0.000986922
0.000986674
0.000989359
0.000995011
0.00101712
0.00186477
0.0523573
0.605042
2.33218
4.00216
5.34643
6.32306
6.9662
7.33599
7.50459
7.53712
7.48104
7.34471
7.1501
6.92634
6.70318
6.50036
6.32738
6.18009
6.05156
5.93428
5.82168
5.70724
5.59196
5.48105
5.37661
5.27677
5.17971
5.08609
4.99905
4.92307
4.86225
4.82008
4.79994
4.80595
4.84129
4.89671
4.96593
5.04673
5.13983
5.24456
5.35523
5.46164
5.5535
5.6242
5.67078
5.69338
5.69716
5.69595
5.69556
5.69845
5.6954
5.67658
5.63131
5.5596
5.47179
5.38341
5.3021
5.22218
5.13523
5.03906
4.93625
4.8304
4.72618
4.62854
4.54007
4.46044
4.38837
4.32342
4.26701
4.22277
4.19452
4.18429
4.19136
4.215
4.24666
4.28362
4.32668
4.38183
4.4666
4.60704
4.81055
5.03628
5.23418
5.35116
5.36092
5.29933
5.22069
5.16735
5.15239
5.14938
5.14821
5.14342
5.12687
5.09613
5.05769
5.02637
5.03301
5.11731
5.29774
5.64423
6.20356
6.7364
7.31454
7.99955
8.65673
9.08486
9.1767
8.96321
8.51901
7.9902
7.48891
7.08609
6.80641
6.64394
6.58372
6.61846
6.77003
7.05554
7.51692
8.19895
9.04161
9.83301
10.3726
10.6352
10.7058
10.6583
10.4738
10.1649
9.78782
9.41897
9.15712
9.0398
8.99016
8.93688
8.85954
8.75895
8.63621
8.48913
8.32127
8.14557
7.97304
7.79988
7.61361
7.4028
7.16663
6.91649
6.66739
6.4278
6.19969
5.98785
5.80118
5.64577
5.52157
5.42411
5.34745
5.28683
5.24092
5.21003
5.19399
5.19019
5.18921
5.18882
5.18265
5.162
5.12753
5.08465
5.03737
4.98824
4.94103
4.903
4.88033
4.87018
4.85675
4.82518
4.77255
4.70814
4.64527
4.594
4.55926
4.54244
4.54291
4.56187
4.59727
4.64853
4.71073
4.77556
4.83551
4.88609
4.92487
4.94634
4.94501
4.9249
4.88416
4.8319
4.77701
4.72465
4.67819
4.63855
4.60669
4.58453
4.57323
4.57351
4.58988
4.62212
4.67144
4.7345
4.80273
4.87084
4.93751
4.99968
5.05213
5.09417
5.12639
5.14952
5.16552
5.17713
5.1871
5.19709
5.2088
5.22366
5.2431
5.26854
5.30032
5.34107
5.39928
5.49011
5.62908
5.82568
6.09167
6.46347
7.01094
7.7298
0.000999374
0.000995531
0.000991308
0.000987525
0.000984374
0.000982155
0.000981096
0.000981527
0.000982991
0.000984678
0.00101007
0.00249459
0.0549512
0.469769
1.62725
2.7748
3.69123
4.35603
4.80545
5.08742
5.24226
5.29678
5.27694
5.20353
5.11036
5.0184
4.93403
4.85168
4.76929
4.68557
4.59929
4.50636
4.40636
4.30403
4.20418
4.10859
4.01668
3.92772
3.84217
3.76194
3.6897
3.62866
3.58186
3.55234
3.54262
3.55146
3.58182
3.6276
3.68704
3.75749
3.83613
3.91912
4.00057
4.07426
4.13469
4.17858
4.20675
4.22591
4.24455
4.26679
4.28817
4.29722
4.28825
4.25577
4.20449
4.14673
4.09148
4.0391
3.98524
3.9261
3.86073
3.78977
3.71526
3.63971
3.5645
3.48973
3.41585
3.34449
3.27829
3.22048
3.17328
3.13746
3.11315
3.09996
3.09677
3.10256
3.12049
3.15419
3.21466
3.31502
3.45938
3.62759
3.78841
3.90657
3.95505
3.94539
3.90537
3.8681
3.85549
3.85239
3.85135
3.8496
3.84311
3.82857
3.8138
3.8195
3.88685
4.04251
4.25964
4.53457
4.8387
5.11838
5.63147
6.43988
7.24954
7.78439
7.94697
7.80555
7.45036
7.04096
6.68337
6.42891
6.27534
6.19669
6.16784
6.1752
6.23431
6.36288
6.59347
6.96585
7.48802
8.08728
8.63587
9.04306
9.28402
9.34582
9.26405
9.03367
8.70102
8.32449
7.98636
7.74341
7.56931
7.42769
7.30738
7.20137
7.09988
6.99299
6.87534
6.75009
6.62551
6.50315
6.37308
6.22435
6.05706
5.88115
5.70717
5.53286
5.34931
5.1586
4.97702
4.81999
4.68967
4.57777
4.47561
4.37966
4.29215
4.21793
4.16079
4.1213
4.09664
4.08247
4.07094
4.05401
4.02634
3.98872
3.94447
3.89657
3.8482
3.80464
3.7716
3.75142
3.73667
3.71656
3.6833
3.63421
3.57311
3.50878
3.44955
3.40005
3.36245
3.3388
3.33174
3.3427
3.3722
3.41025
3.44947
3.48549
3.51666
3.54071
3.5507
3.54711
3.52955
3.49878
3.46237
3.42529
3.39108
3.35976
3.33097
3.30553
3.28493
3.27035
3.26322
3.26559
3.28275
3.31274
3.34916
3.38717
3.42658
3.46887
3.51844
3.5745
3.62979
3.68006
3.72461
3.76455
3.80245
3.84173
3.88478
3.93183
3.98023
4.02662
4.06901
4.109
4.15242
4.20968
4.29213
4.40675
4.55666
4.74983
5.00644
5.34139
0.000999258
0.000995325
0.000991075
0.000987136
0.000983581
0.000980523
0.000978021
0.000976077
0.000974456
0.000972631
0.000970235
0.000967091
0.000986555
0.00194562
0.025085
0.207136
0.709051
1.50015
2.11516
2.59428
2.93967
3.19171
3.3835
3.52669
3.63659
3.71846
3.76389
3.76803
3.74658
3.70534
3.65098
3.58456
3.50763
3.42434
3.33943
3.25606
3.1752
3.0967
3.02082
2.94869
2.88174
2.82178
2.77076
2.73051
2.70303
2.68975
2.69027
2.70421
2.72886
2.75953
2.79455
2.83426
2.8774
2.92173
2.96506
3.0046
3.03755
3.06261