/*--------------------------------*- C++ -*----------------------------------*\
  =========                 |
  \\      /  F ield         | OpenFOAM: The Open Source CFD Toolbox
   \\    /   O peration     | Website:  https://openfoam.org
    \\  /    A nd           | Version:  7
     \\/     M anipulation  |
\*---------------------------------------------------------------------------*/
FoamFile
{
    version     2.0;
    format      ascii;
    class       volScalarField;
    location    "350";
    object      nut;
}
// * * * * * * * * * * * * * * * * * * * * * * * * * * * * * * * * * * * * * //

dimensions      [0 2 -1 0 0 0 0];

internalField   nonuniform List<scalar> 
96800
(
0.000132847
0.000132817
0.000132772
0.000132702
0.00013263
0.000132564
0.000132504
0.000132456
0.000132423
0.000132399
0.000132385
0.000132385
0.000132398
0.000132426
0.000132467
0.000132527
0.000132595
0.000132669
0.00013274
0.000132797
0.000132819
0.000132759
0.000132821
0.000132738
0.00013268
0.000132607
0.000132532
0.000132462
0.0001324
0.000132349
0.000132311
0.000132286
0.000132273
0.000132273
0.000132287
0.000132315
0.00013236
0.000132418
0.000132486
0.000132561
0.000132636
0.0001327
0.000132739
0.000132745
0.000132813
0.000132717
0.000132644
0.000132561
0.000132476
0.000132397
0.000132329
0.000132274
0.000132234
0.000132207
0.000132194
0.000132194
0.000132209
0.000132238
0.000132281
0.000132339
0.000132409
0.000132487
0.000132568
0.000132643
0.000132706
0.000132754
0.000132802
0.000132699
0.000132616
0.00013252
0.000132423
0.000132334
0.000132258
0.000132198
0.000132154
0.000132125
0.000132112
0.000132113
0.000132128
0.000132157
0.0001322
0.000132258
0.000132329
0.00013241
0.000132498
0.000132584
0.000132663
0.000132729
0.000132794
0.000132688
0.000132594
0.000132486
0.000132377
0.000132277
0.000132192
0.000132126
0.000132079
0.000132049
0.000132036
0.000132037
0.000132053
0.000132082
0.000132125
0.000132183
0.000132255
0.00013234
0.000132433
0.000132529
0.000132617
0.000132693
0.00013279
0.00013268
0.000132578
0.000132459
0.000132339
0.000132228
0.000132135
0.000132064
0.000132014
0.000131983
0.00013197
0.000131972
0.000131988
0.000132017
0.00013206
0.000132118
0.000132192
0.00013228
0.000132379
0.000132481
0.000132577
0.000132658
0.000132789
0.000132676
0.000132566
0.000132438
0.000132308
0.000132188
0.000132088
0.000132013
0.000131961
0.00013193
0.000131917
0.00013192
0.000131936
0.000131965
0.000132008
0.000132066
0.000132142
0.000132233
0.000132337
0.000132445
0.000132547
0.00013263
0.000132793
0.000132676
0.000132561
0.000132425
0.000132286
0.000132159
0.000132054
0.000131974
0.000131921
0.00013189
0.000131878
0.000131881
0.000131898
0.000131926
0.000131969
0.000132028
0.000132105
0.000132201
0.00013231
0.000132425
0.000132532
0.000132619
0.000132802
0.000132683
0.000132562
0.00013242
0.000132274
0.000132141
0.000132031
0.000131949
0.000131895
0.000131864
0.000131852
0.000131855
0.000131871
0.000131899
0.000131942
0.000132002
0.000132082
0.000132183
0.000132298
0.00013242
0.000132533
0.000132626
0.000132817
0.000132696
0.000132572
0.000132424
0.000132273
0.000132135
0.000132022
0.000131937
0.000131881
0.000131849
0.000131836
0.000131839
0.000131854
0.000131882
0.000131926
0.000131988
0.000132072
0.000132179
0.000132301
0.00013243
0.00013255
0.000132646
0.000132841
0.000132718
0.00013259
0.000132438
0.000132282
0.00013214
0.000132023
0.000131936
0.000131877
0.000131843
0.000131829
0.00013183
0.000131845
0.000131873
0.000131918
0.000131984
0.000132074
0.000132187
0.000132319
0.000132456
0.000132583
0.000132682
0.000132873
0.000132749
0.000132618
0.000132461
0.000132301
0.000132155
0.000132034
0.000131944
0.000131882
0.000131845
0.000131828
0.000131827
0.00013184
0.00013187
0.000131917
0.000131989
0.000132086
0.000132209
0.00013235
0.000132497
0.000132632
0.000132736
0.000132912
0.000132787
0.000132653
0.000132492
0.000132327
0.000132177
0.000132053
0.000131958
0.000131893
0.000131853
0.000131833
0.000131829
0.000131842
0.000131873
0.000131925
0.000132004
0.00013211
0.000132244
0.000132396
0.000132554
0.000132698
0.000132808
0.000132954
0.000132827
0.000132691
0.000132526
0.000132358
0.000132204
0.000132076
0.000131979
0.000131911
0.000131867
0.000131844
0.000131838
0.000131851
0.000131885
0.000131943
0.00013203
0.000132148
0.000132294
0.000132459
0.000132629
0.000132783
0.000132898
0.00013299
0.000132864
0.000132725
0.000132558
0.000132387
0.000132231
0.000132101
0.000132002
0.000131933
0.000131888
0.000131863
0.000131857
0.000131871
0.000131909
0.000131975
0.000132072
0.000132202
0.000132361
0.000132541
0.000132723
0.000132886
0.000133008
0.000133009
0.000132882
0.000132743
0.000132576
0.000132405
0.00013225
0.000132122
0.000132026
0.000131958
0.000131916
0.000131893
0.000131889
0.000131907
0.00013195
0.000132023
0.000132131
0.000132274
0.000132448
0.000132641
0.000132836
0.00013301
0.000133138
0.000132986
0.00013286
0.000132723
0.00013256
0.000132395
0.000132247
0.000132128
0.000132042
0.000131984
0.00013195
0.000131935
0.000131937
0.000131961
0.000132011
0.000132093
0.000132212
0.000132368
0.000132556
0.000132763
0.000132971
0.000133156
0.00013329
0.000132881
0.000132759
0.000132629
0.000132476
0.000132325
0.000132196
0.000132099
0.000132034
0.000131998
0.000131984
0.000131986
0.000132002
0.000132037
0.000132097
0.000132189
0.000132319
0.000132487
0.000132689
0.00013291
0.000133131
0.000133326
0.000133466
0.000132627
0.000132514
0.000132398
0.000132266
0.000132144
0.000132051
0.000131994
0.000131973
0.000131979
0.000132002
0.000132036
0.000132079
0.000132134
0.00013221
0.000132315
0.000132458
0.000132639
0.000132853
0.000133088
0.000133321
0.000133526
0.000133674
0.000132116
0.000132016
0.000131925
0.00013183
0.000131759
0.000131728
0.000131743
0.000131797
0.000131877
0.000131968
0.000132061
0.000132152
0.000132244
0.000132347
0.000132474
0.000132633
0.000132829
0.000133057
0.000133305
0.000133551
0.000133767
0.000133922
0.000131181
0.000131102
0.00013105
0.000131014
0.000131023
0.000131093
0.000131224
0.000131402
0.000131606
0.000131814
0.000132009
0.000132186
0.000132346
0.000132499
0.000132663
0.000132849
0.000133066
0.000133313
0.000133577
0.000133837
0.000134065
0.000134228
0.000129594
0.000129546
0.000129551
0.0001296
0.000129725
0.000129944
0.00013025
0.000130621
0.000131022
0.00013142
0.000131788
0.000132112
0.000132393
0.000132637
0.000132868
0.000133104
0.000133357
0.000133631
0.000133917
0.000134196
0.000134438
0.00013461
0.000127095
0.000127085
0.000127165
0.000127323
0.000127602
0.000128021
0.000128571
0.000129219
0.000129914
0.000130604
0.000131246
0.000131814
0.000132298
0.000132706
0.000133059
0.000133384
0.000133702
0.000134024
0.000134345
0.000134649
0.000134911
0.000135096
0.000123486
0.000123517
0.000123681
0.000123957
0.000124406
0.00012506
0.00012591
0.000126916
0.00012801
0.000129116
0.000130167
0.000131111
0.000131923
0.000132604
0.000133171
0.000133655
0.00013409
0.000134494
0.000134875
0.000135221
0.000135511
0.000135714
0.000118825
0.000118887
0.000119114
0.000119477
0.000120062
0.000120925
0.000122074
0.000123471
0.000125037
0.000126671
0.000128273
0.000129754
0.000131062
0.000132172
0.000133091
0.000133847
0.000134484
0.000135034
0.000135516
0.000135931
0.000136268
0.000136497
0.000113698
0.000113757
0.000113978
0.000114321
0.000114909
0.000115839
0.000117156
0.00011885
0.000120849
0.00012304
0.00012529
0.000127461
0.000129449
0.000131185
0.000132645
0.000133841
0.000134813
0.000135609
0.000136264
0.000136796
0.000137209
0.000137482
0.000109404
0.000109397
0.000109477
0.000109602
0.000109935
0.000110626
0.000111785
0.000113465
0.000115642
0.000118226
0.000121067
0.000123985
0.000126798
0.000129364
0.000131593
0.000133453
0.000134957
0.000136153
0.000137094
0.000137823
0.000138361
0.000138703
0.000107748
0.000107596
0.000107364
0.000107021
0.000106759
0.000106782
0.000107276
0.000108391
0.000110205
0.000112708
0.000115794
0.000119274
0.000122902
0.000126425
0.000129647
0.000132432
0.000134729
0.00013655
0.000137952
0.000139
0.000139744
0.000140199
0.000110302
0.000109942
0.000109255
0.000108242
0.0001071
0.00010606
0.000105372
0.000105279
0.000105988
0.000107636
0.000110248
0.000113718
0.000117808
0.000122192
0.000126515
0.000130476
0.000133873
0.000136622
0.000138737
0.000140292
0.000141368
0.000142004
0.000117735
0.000117137
0.00011593
0.000114165
0.000112025
0.000109738
0.000107566
0.000105805
0.00010476
0.000104717
0.000105893
0.000108384
0.000112113
0.000116807
0.000122033
0.000127274
0.000132067
0.000136112
0.00013929
0.000141628
0.000143226
0.000144146
0.000129887
0.000129053
0.000127324
0.000124819
0.000121709
0.000118197
0.00011453
0.000110989
0.000107902
0.000105631
0.000104548
0.000104987
0.00010716
0.000111069
0.000116429
0.000122648
0.000128967
0.000134684
0.00013937
0.00014288
0.000145281
0.000146641
0.000146403
0.000145334
0.000143089
0.00013987
0.000135852
0.000131224
0.000126203
0.00012103
0.000115987
0.000111414
0.00010772
0.000105381
0.00010488
0.000106606
0.000110706
0.000116893
0.000124354
0.000131949
0.000138639
0.000143848
0.000147455
0.000149485
0.000167256
0.000165927
0.000163136
0.000159182
0.000154266
0.000148583
0.000142336
0.000135729
0.000128981
0.00012235
0.000116171
0.000110902
0.000107135
0.000105553
0.000106794
0.000111222
0.000118561
0.000127633
0.000136685
0.000144233
0.000149611
0.000152641
0.000192963
0.000191313
0.000187899
0.000183122
0.000177235
0.000170458
0.000163002
0.000155054
0.000146786
0.000138378
0.000130054
0.000122137
0.000115134
0.000109788
0.00010704
0.000107883
0.000112993
0.000122052
0.000133181
0.000143651
0.000151537
0.000156034
0.000224588
0.000222551
0.000218398
0.00021266
0.000205657
0.00019765
0.000188873
0.000179513
0.000169726
0.000159645
0.000149407
0.0001392
0.000129345
0.000120413
0.000113332
0.000109427
0.000110193
0.000116712
0.000128337
0.000141754
0.000152941
0.000159537
0.000263768
0.000261261
0.000256241
0.000249381
0.00024108
0.000231644
0.000221334
0.000210344
0.00019883
0.000186914
0.0001747
0.000162298
0.000149879
0.000137773
0.000126645
0.000117721
0.000112871
0.000114329
0.000123547
0.000138578
0.000153541
0.000162983
0.00031255
0.000309493
0.000303502
0.000295383
0.000285611
0.000274532
0.000262419
0.000249473
0.000235851
0.000221686
0.000207097
0.000192195
0.000177099
0.00016198
0.000147196
0.000133585
0.000122843
0.000117714
0.000121443
0.000135116
0.000153231
0.000166203
0.000373379
0.000369712
0.000362696
0.000353242
0.000341878
0.000328961
0.000314756
0.000299451
0.000283205
0.000266175
0.000248524
0.000230425
0.000212049
0.000193552
0.00017511
0.000157155
0.000140835
0.000128685
0.000124868
0.000133517
0.000152488
0.000169144
0.000448944
0.000444639
0.000436623
0.000425845
0.00041284
0.000397926
0.000381328
0.000363203
0.00034371
0.000323039
0.000301424
0.000279137
0.000256472
0.000233694
0.000210988
0.000188551
0.000166952
0.000147986
0.000135765
0.000136436
0.000152627
0.000172045
0.000542236
0.000537302
0.0005284
0.000516407
0.000501783
0.000484741
0.000465421
0.000443937
0.000420457
0.000395225
0.00036857
0.000340896
0.000312656
0.000284298
0.000256162
0.000228451
0.000201361
0.000175815
0.000155064
0.000146037
0.000155657
0.000175652
0.000656432
0.000650919
0.000641333
0.000628326
0.000612161
0.000592853
0.000570415
0.000544919
0.000516569
0.000485699
0.000452771
0.000418348
0.000383073
0.000347604
0.000312505
0.000278164
0.000244705
0.000212388
0.000183225
0.000163667
0.000163702
0.000181267
0.000794862
0.00078886
0.000778866
0.000765112
0.000747495
0.000725725
0.00069965
0.000669325
0.000635042
0.00059728
0.000556679
0.000514003
0.000470109
0.000425879
0.000382107
0.000339444
0.000298177
0.000258263
0.000220551
0.000190123
0.000178548
0.000190586
0.000960891
0.000954519
0.000944432
0.000930221
0.000911198
0.000886657
0.000856251
0.000820072
0.00077858
0.000732474
0.000682631
0.000630064
0.000575879
0.000521184
0.000466989
0.000414189
0.000363348
0.000314456
0.000267548
0.00022604
0.000201554
0.000205416
0.00115776
0.00115115
0.00114117
0.00112674
0.00110645
0.00107863
0.00104298
0.000999672
0.000949454
0.000893344
0.000832537
0.000768346
0.000702152
0.000635294
0.000568954
0.000504222
0.000441934
0.000382326
0.00032506
0.000271977
0.000233783
0.000227477
0.0013885
0.00138181
0.00137235
0.00135769
0.00133633
0.00130427
0.00126218
0.00121019
0.00114948
0.00108153
0.00100793
0.000930344
0.000850441
0.000769762
0.000689617
0.000611226
0.000535639
0.000463412
0.000394212
0.000328693
0.000276149
0.000258324
0.00165588
0.00164922
0.00164064
0.00162612
0.00160265
0.00156588
0.0015159
0.00145343
0.00138028
0.00129853
0.00121025
0.00111749
0.00102219
0.000926049
0.000830466
0.00073673
0.000646041
0.000559258
0.000476293
0.000397096
0.000329526
0.000299356
0.00196293
0.00195647
0.00194907
0.00193476
0.00190845
0.00186621
0.00180669
0.00173184
0.00164423
0.00154666
0.00144175
0.00133193
0.0012194
0.00110601
0.000993215
0.000882362
0.000774746
0.000671461
0.000572758
0.000478321
0.000394889
0.000351921
0.00231339
0.00230727
0.00230144
0.00228761
0.00225818
0.00220945
0.00213874
0.0020497
0.00194567
0.00183021
0.00170652
0.00157742
0.0014454
0.00131251
0.0011803
0.00105023
0.000923645
0.000801799
0.000685261
0.00057376
0.000473398
0.000417388
0.00271319
0.00270766
0.00270423
0.00269154
0.00265902
0.00260344
0.00252028
0.00241552
0.00229318
0.00215756
0.00201246
0.00186118
0.00170656
0.00155098
0.00139626
0.00124406
0.00109582
0.000952893
0.000816081
0.000685337
0.000566646
0.000497385
0.00317159
0.00316709
0.00316769
0.00315776
0.00312317
0.00306096
0.00296457
0.00284282
0.00270028
0.00254197
0.00237224
0.0021949
0.00201334
0.00183046
0.00164862
0.00146988
0.00129598
0.00112837
0.000968089
0.000815366
0.000676532
0.00059376
0.00370322
0.00370057
0.00370778
0.00370328
0.00366838
0.00360047
0.00349065
0.00335096
0.00318639
0.0030025
0.00280415
0.00259576
0.00238143
0.00216486
0.00194917
0.0017372
0.00153133
0.00133349
0.00114506
0.000966637
0.000805285
0.000708661
0.00432819
0.0043285
0.00434563
0.00434994
0.00431751
0.00424549
0.00412301
0.00396491
0.00377643
0.00356349
0.0033315
0.0030857
0.00283115
0.0025725
0.00231389
0.00205925
0.00181217
0.00157567
0.00135202
0.00114253
0.000955392
0.000844408
0.00507142
0.00507597
0.00510675
0.00512409
0.00509848
0.00502359
0.00489183
0.00471528
0.00450045
0.00425373
0.00398144
0.00369002
0.0033858
0.00307469
0.00276191
0.00245275
0.00215236
0.00186561
0.00159654
0.001348
0.00113017
0.00100374
0.00596116
0.00597136
0.00602
0.00605578
0.0060424
0.00596751
0.00583108
0.0056353
0.00539006
0.00510274
0.00478114
0.00443348
0.00406794
0.00369205
0.00331241
0.0029356
0.00256832
0.00221746
0.00188969
0.00159079
0.0013347
0.0011905
0.00702746
0.0070449
0.00711623
0.00717716
0.00718329
0.0071142
0.00697368
0.00675509
0.00647266
0.00613505
0.00575246
0.00533559
0.00489503
0.00444056
0.00398057
0.00352296
0.00307549
0.0026465
0.00224522
0.00188169
0.00157642
0.00141014
0.0083001
0.00832676
0.00842623
0.00851959
0.00855157
0.00849243
0.00834608
0.00809742
0.00776731
0.00736645
0.00690864
0.00640782
0.00587751
0.00533006
0.00477599
0.00422475
0.00368491
0.00316527
0.00267654
0.00223306
0.00186478
0.00166982
0.00980487
0.00984329
0.0099771
0.0101102
0.010173
0.0101249
0.00996552
0.00967559
0.00928304
0.00880258
0.00825305
0.00765259
0.00701793
0.00636389
0.00570289
0.00504593
0.00440243
0.00378126
0.00319337
0.00265605
0.00220986
0.00197767
0.0115596
0.0116132
0.0117885
0.0119682
0.0120646
0.0120236
0.0118394
0.0114927
0.0110188
0.0104392
0.00977943
0.00906301
0.00831022
0.00753793
0.00675964
0.00598714
0.00523037
0.00449827
0.00380157
0.00315926
0.00262188
0.00234078
0.0135654
0.0136389
0.0138637
0.0140963
0.0142262
0.0141847
0.0139592
0.0135367
0.0129591
0.012258
0.0114681
0.0106193
0.00973592
0.0088366
0.00793473
0.00704141
0.00616588
0.00531652
0.00450372
0.00374765
0.00310802
0.00276787
0.0158012
0.0159004
0.0161837
0.0164746
0.0166359
0.0165839
0.0162968
0.0157774
0.0150714
0.0142253
0.0132849
0.0122884
0.0112646
0.0102334
0.00920716
0.0081944
0.00720147
0.00623438
0.00530212
0.00442576
0.00367437
0.00326605
0.0182081
0.01834
0.0186907
0.0190445
0.019234
0.0191601
0.0187942
0.0181541
0.0172958
0.0162831
0.0151751
0.0140193
0.0128499
0.011688
0.010544
0.00942235
0.00832369
0.00724817
0.0062005
0.0052012
0.00432929
0.00384187
0.020682
0.0208525
0.0212767
0.0216966
0.0219134
0.0218139
0.0213535
0.0205724
0.0195429
0.018348
0.0170621
0.015743
0.0144304
0.0131469
0.011901
0.010692
0.00951287
0.00835294
0.00720643
0.00608961
0.00509052
0.00451178
0.0230585
0.0232722
0.0237683
0.0242551
0.0245042
0.0243796
0.0238258
0.0228957
0.0216872
0.0203062
0.0188438
0.0173687
0.0159264
0.014541
0.0132194
0.011957
0.0107388
0.00953887
0.00833109
0.00711998
0.005995
0.00531209
0.0251105
0.0253676
0.0259249
0.0264817
0.0267838
0.0266557
0.0260222
0.0249518
0.0235736
0.0220188
0.0203977
0.0187883
0.0172426
0.0157863
0.0144258
0.0131553
0.0119569
0.0107888
0.00959933
0.00837039
0.00717479
0.00637606
0.0265414
0.0268279
0.0274163
0.0280696
0.0285217
0.0284541
0.0277839
0.0265962
0.0250663
0.023362
0.021611
0.0198961
0.0182765
0.0167876
0.0154318
0.0142039
0.0130904
0.0120471
0.0110324
0.0100245
0.00908011
0.00845315
0.0268786
0.0272135
0.0278305
0.028666
0.0293238
0.0293927
0.0287477
0.0275124
0.0259011
0.0241126
0.0222947
0.0205433
0.0189172
0.0174467
0.0161421
0.0150026
0.0140304
0.0132138
0.0125566
0.0120649
0.0117103
0.0116833
2.72489e-06
6.14024e-06
1.59013e-05
1.73523e-05
1.68661e-05
1.49915e-05
0.000606905
0.0137758
0.0225746
0.0270521
0.0290282
0.0295708
0.0293078
0.0286489
0.027651
0.0265828
0.0254408
0.0242756
0.0231531
0.0221204
0.0211938
0.0203724
0.0196507
0.0190308
0.0185237
0.0181387
0.0178714
0.0176995
0.0175879
0.0175067
0.0174421
0.0173907
0.0173505
0.0173204
0.0173085
0.0173381
0.017441
0.0176299
0.0178809
0.0182479
0.0187329
0.019259
0.0197824
0.0202452
0.0206128
0.0208798
0.0210584
0.0211642
0.021206
0.0211822
0.0210884
0.0209432
0.0207245
0.0204732
0.0201969
0.0198897
0.0195751
0.0192755
0.0190128
0.0188029
0.0186449
0.0185236
0.018417
0.0183157
0.0182264
0.0181475
0.0180669
0.0179724
0.0178568
0.0177215
0.0175757
0.0174352
0.0173168
0.0172341
0.0172014
0.0172121
0.0172791
0.0173946
0.017577
0.0178133
0.0180803
0.0183491
0.0185958
0.0188103
0.018997
0.0191728
0.019364
0.0195961
0.0198871
0.0202214
0.0205246
0.0206982
0.0206833
0.0205389
0.0203037
0.0200865
0.0199157
0.0198115
0.0197175
0.019601
0.0194337
0.0192513
0.0190416
0.0187773
0.0184661
0.018142
0.0179102
0.0180152
0.0189063
0.020844
0.0243253
0.0256789
0.0268005
0.0281997
0.0292796
0.0295854
0.0290126
0.0277612
0.0261079
0.0242832
0.0224475
0.0207017
0.0191058
0.017692
0.0164637
0.0154371
0.0146567
0.01414
0.0138123
0.013795
0.013914
0.014194
0.014544
0.0141919
0.0141183
0.0145162
0.0153511
0.0165057
0.01794
0.0195439
0.0211817
0.0226068
0.0236128
0.0241525
0.0242933
0.0241108
0.023699
0.023151
0.0225508
0.0219464
0.0213537
0.0207766
0.0202186
0.0196841
0.0191829
0.0187332
0.0183505
0.0180368
0.0177903
0.0176112
0.0175162
0.0175155
0.0176013
0.0178008
0.0180284
0.0182126
0.0183109
0.0183069
0.0182008
0.0180082
0.0178063
0.0176072
0.0174596
0.0173986
0.0174339
0.0175421
0.0176878
0.0178447
0.0179832
0.0180824
0.0181367
0.0181546
0.0181683
0.0182004
0.0182658
0.0184376
0.0187131
0.0190491
0.0193906
0.0196838
0.0198936
0.0200065
0.0200256
0.0199598
0.0198293
0.0196594
0.0194413
0.0192
0.0189778
0.0187668
0.0185806
0.0184306
0.0183251
0.0182687
0.0182645
0.0183156
0.0184213
0.0185596
0.0187038
0.018879
0.0191041
0.0193275
0.0195169
0.0196543
0.0197302
0.0197496
0.0197328
0.0197001
0.0196612
0.0196314
0.0196167
0.0196188
0.0196355
0.0196629
0.0196932
0.019717
0.0197334
0.0197503
0.0197737
0.0198215
0.0199131
0.0200528
0.0202313
0.0204422
0.0206834
0.020969
0.0213637
0.0220612
0.0233859
0.0253593
0.0272881
0.0288883
1.07591e-05
1.42055e-05
1.59685e-05
1.68829e-05
1.67205e-05
1.64919e-05
0.000566621
0.0111286
0.0206403
0.0255587
0.0278736
0.0286721
0.0286096
0.028061
0.0272089
0.0261933
0.0251146
0.0239928
0.0229041
0.0218985
0.020991
0.0201803
0.0194639
0.0188475
0.0183438
0.0179612
0.0176913
0.0175086
0.01738
0.0172796
0.0171947
0.0171258
0.0170718
0.0170299
0.0170062
0.0170231
0.0171184
0.0172899
0.0175032
0.0178404
0.0182956
0.0188067
0.019333
0.0197958
0.0201662
0.0204373
0.0206208
0.0207329
0.0207859
0.0207844
0.0206909
0.0205421
0.02034
0.0201123
0.0198396
0.0195424
0.0192396
0.0189501
0.0186938
0.0184852
0.0183251
0.0181983
0.0180851
0.0179795
0.0178903
0.0178178
0.0177474
0.0176626
0.0175566
0.0174309
0.0172923
0.0171563
0.0170411
0.0169556
0.0169267
0.0169355
0.0169784
0.0170569
0.0172232
0.0174423
0.0176944
0.0179508
0.0181864
0.0183927
0.0185711
0.0187386
0.0189236
0.0191469
0.0194353
0.0197721
0.0200838
0.0202654
0.0202535
0.0200959
0.0198826
0.0196838
0.0195587
0.0194756
0.0193859
0.0192585
0.019099
0.018906
0.0187005
0.0184285
0.0181192
0.0177931
0.0175411
0.0175758
0.0183309
0.0204474
0.0217539
0.0232953
0.0252018
0.02717
0.0285673
0.029016
0.0284967
0.0272576
0.0256209
0.0238246
0.0220326
0.0203469
0.0188279
0.0175094
0.0164059
0.0155241
0.0149084
0.0145069
0.0145213
0.0147069
0.0147854
0.0147418
0.014812
0.0145296
0.014274
0.0144871
0.0151474
0.0161604
0.0174615
0.0189498
0.0205279
0.0219461
0.0229724
0.0235766
0.0237905
0.0236795
0.0233314
0.0228373
0.0222765
0.0217002
0.0211279
0.0205641
0.0200125
0.0194788
0.0189764
0.0185266
0.0181461
0.0178359
0.0175901
0.0174007
0.0172847
0.0172538
0.0173111
0.017463
0.0176698
0.017866
0.0179742
0.0179785
0.0178788
0.0177224
0.0175201
0.0173277
0.0171788
0.017107
0.0171277
0.0172248
0.0173555
0.0174983
0.0176272
0.0177283
0.0177907
0.0178124
0.0178193
0.0178492
0.0179157
0.0180677
0.0183075
0.0186315
0.0189651
0.0192597
0.0194795
0.0196089
0.0196508
0.0196078
0.0194869
0.0193208
0.0191134
0.0188794
0.0186515
0.0184414
0.0182551
0.018104
0.017996
0.0179348
0.017924
0.0179655
0.0180669
0.0181941
0.0183327
0.0184977
0.0186991
0.0189244
0.019121
0.0192738
0.0193718
0.019403
0.0193982
0.0193758
0.0193462
0.0193233
0.0193141
0.0193124
0.0193254
0.019347
0.0193743
0.0194
0.0194208
0.0194356
0.0194585
0.0194907
0.01957
0.0196981
0.0198629
0.0200626
0.0202997
0.0205858
0.0209727
0.0216362
0.0229025
0.0248692
0.0268611
0.0282202
9.0044e-06
9.40807e-06
9.48638e-06
9.65391e-06
9.9808e-06
1.06049e-05
2.99216e-05
0.00275828
0.0143784
0.020766
0.0241847
0.0258008
0.0263398
0.0262389
0.0257482
0.0249904
0.0240852
0.0231059
0.0221227
0.0211916
0.0203303
0.0195452
0.0188412
0.0182309
0.0177297
0.0173452
0.0170646
0.0168586
0.016696
0.0165555
0.0164286
0.0163225
0.0162379
0.0161674
0.0161111
0.0160861
0.0161217
0.0162312
0.0163935
0.0166474
0.0170102
0.0174517
0.0179369
0.018387
0.0187631
0.0190492
0.0192523
0.0193882
0.0194683
0.0194882
0.0194423
0.0193442
0.0191848
0.0189873
0.0187641
0.0185109
0.0182471
0.0179896
0.0177547
0.0175548
0.017392
0.0172552
0.0171292
0.0170131
0.0169196
0.0168518
0.0167921
0.0167204
0.0166285
0.0165179
0.0163922
0.0162636
0.0161495
0.0160594
0.0160002
0.0159817
0.0159904
0.016043
0.0161554
0.0163247
0.0165341
0.0167565
0.016965
0.017146
0.0173017
0.0174464
0.0176022
0.0178013
0.018077
0.0184239
0.0187697
0.0189961
0.0190259
0.0189034
0.0187233
0.0185618
0.0184806
0.0184115
0.0183348
0.0182231
0.0180749
0.0178714
0.0176606
0.0174151
0.0171298
0.0168154
0.0165286
0.0164382
0.0168003
0.0183379
0.0201437
0.021953
0.0240394
0.0260122
0.0273602
0.02777
0.0273106
0.0261355
0.0245783
0.0228692
0.0211719
0.0195903
0.0181844
0.0169885
0.0160118
0.0152835
0.0147748
0.0145418
0.0146441
0.0149008
0.0150037
0.0148802
0.0147381
0.014504
0.0143302
0.0142871
0.0146017
0.0152421
0.016185
0.0173702
0.018735
0.0200838
0.0211912
0.0219422
0.0223306
0.0223949
0.0222065
0.0218476
0.021395
0.020903
0.0203949
0.0198767
0.0193529
0.0188314
0.0183319
0.01788
0.017493
0.0171707
0.0169055
0.0166854
0.0165221
0.0164331
0.016429
0.0164968
0.0166413
0.0168001
0.0169158
0.0169585
0.0169117
0.0167869
0.0166278
0.0164604
0.0163153
0.0162223
0.016201
0.0162478
0.0163403
0.0164576
0.0165779
0.0166817
0.0167535
0.0167849
0.0167868
0.0167919
0.016824
0.016919
0.0171079
0.0173709
0.0176668
0.0179509
0.0181852
0.0183464
0.0184266
0.0184266
0.0183578
0.0182375
0.0180703
0.0178614
0.0176571
0.0174592
0.0172767
0.0171222
0.0170043
0.0169258
0.0168886
0.0168944
0.0169433
0.0170342
0.0171494
0.0172931
0.0174881
0.0176995
0.017903
0.0180775
0.0182048
0.0182787
0.0183112
0.0183192
0.018316
0.0183129
0.0183159
0.0183228
0.0183304
0.0183404
0.0183546
0.0183702
0.0183809
0.0183863
0.0183992
0.018432
0.0184936
0.018591
0.0187235
0.0188961
0.0191188
0.0194023
0.0197754
0.0203598
0.0214336
0.0231945
0.0250978
0.0261581
8.99928e-06
9.01422e-06
9.04975e-06
9.0983e-06
9.17137e-06
9.33152e-06
9.80037e-06
8.19704e-05
0.00286816
0.0125721
0.017743
0.0207162
0.0222782
0.0229478
0.0230398
0.0227373
0.0221968
0.021454
0.020669
0.0198787
0.0191106
0.0183809
0.017709
0.0171152
0.0166165
0.0162217
0.0159202
0.0156851
0.015489
0.0153137
0.0151529
0.0150126
0.0148967
0.014798
0.0147096
0.0146382
0.0146032
0.0146225
0.0147032
0.0148467
0.0150722
0.0153889
0.0157621
0.0161528
0.0165127
0.0168113
0.0170429
0.017217
0.0173449
0.0174234
0.0174449
0.0174133
0.0173318
0.0172104
0.0170449
0.0168604
0.0166598
0.0164583
0.0162676
0.0160964
0.0159469
0.0158121
0.0156823
0.0155586
0.0154544
0.0153774
0.0153138
0.0152423
0.0151543
0.0150506
0.0149335
0.0148105
0.0146955
0.014599
0.0145248
0.0144739
0.0144482
0.0144525
0.0145043
0.0146055
0.0147488
0.0149175
0.0150885
0.0152442
0.0153795
0.0155009
0.015624
0.0157837
0.0160265
0.0163712
0.0167604
0.0170686
0.0171905
0.0171387
0.0169864
0.0168381
0.016747
0.0166859
0.0166228
0.0165282
0.0164101
0.0162365
0.0160562
0.0158531
0.0156212
0.0153606
0.0151005
0.0149466
0.0151379
0.0162068
0.0182723
0.0203301
0.0224313
0.0243096
0.0256178
0.0260799
0.0257318
0.0246947
0.0232711
0.0216903
0.0201221
0.0186759
0.0174108
0.016352
0.0155037
0.0149017
0.0144377
0.0142818
0.0143984
0.0146725
0.0148392
0.0147319
0.0145226
0.0143266
0.014168
0.0140089
0.0140265
0.0142502
0.0147387
0.0154925
0.0165
0.0176445
0.0187188
0.0195688
0.020105
0.0203509
0.0203486
0.0201602
0.019854
0.0194854
0.0190824
0.0186521
0.0181972
0.0177211
0.0172451
0.0167965
0.0163945
0.0160437
0.0157415
0.0154838
0.0152753
0.0151265
0.0150475
0.0150401
0.0150958
0.0151976
0.0152931
0.0153537
0.0153511
0.0152899
0.0151841
0.0150579
0.0149352
0.0148392
0.0147896
0.014795
0.0148465
0.0149293
0.0150258
0.0151187
0.0151897
0.0152235
0.0152177
0.0151918
0.015178
0.0152045
0.0152883
0.0154527
0.0156637
0.0158932
0.0161087
0.0162833
0.0164024
0.0164616
0.0164639
0.0164162
0.0163222
0.0161928
0.0160343
0.0158699
0.0157071
0.0155561
0.015428
0.0153283
0.0152593
0.0152236
0.0152229
0.0152596
0.0153372
0.01544
0.0155964
0.0157822
0.0159777
0.0161662
0.0163299
0.0164537
0.0165359
0.0165873
0.0166199
0.0166416
0.0166573
0.0166677
0.0166725
0.0166741
0.0166836
0.0166949
0.0167039
0.0167116
0.0167251
0.0167496
0.0167939
0.0168687
0.0169689
0.0171043
0.0172917
0.0175467
0.0178835
0.01836
0.0191534
0.0204847
0.0220622
0.0229514
8.99983e-06
9.00075e-06
9.00824e-06
9.02033e-06
9.05281e-06
9.10093e-06
9.18609e-06
9.53102e-06
4.92722e-05
0.00159813
0.0084875
0.0132264
0.016285
0.0180899
0.0190438
0.0194063
0.0193568
0.0190349
0.0185564
0.0179958
0.0173995
0.0167884
0.0161941
0.015649
0.0151744
0.0147824
0.0144692
0.0142161
0.0140017
0.0138109
0.0136349
0.0134737
0.0133324
0.0132096
0.0130982
0.0129957
0.0129091
0.0128513
0.0128341
0.0128662
0.012953
0.0131032
0.0133319
0.0136196
0.0139207
0.0142094
0.0144638
0.0146786
0.0148577
0.0149987
0.0150928
0.0151358
0.0151305
0.0150796
0.0149843
0.0148697
0.0147323
0.0145945
0.014462
0.0143386
0.0142205
0.0141027
0.0139799
0.0138543
0.0137395
0.0136484
0.0135756
0.0135027
0.0134183
0.0133225
0.0132172
0.0131061
0.012998
0.012902
0.0128214
0.0127556
0.0127042
0.0126697
0.0126595
0.0126816
0.0127487
0.0128449
0.0129635
0.0130865
0.0132025
0.0133097
0.0134143
0.0135418
0.0137409
0.0140503
0.0144412
0.0148046
0.0150316
0.0150662
0.0149686
0.0148137
0.0146918
0.0146168
0.0145617
0.0144914
0.0144092
0.0143059
0.0141731
0.0140259
0.0138633
0.0136931
0.0135452
0.0135031
0.0136981
0.0146061
0.01626
0.0181173
0.0201502
0.0221474
0.0236764
0.0243712
0.0242177
0.0233544
0.0220771
0.0206372
0.0192194
0.0179363
0.0168368
0.0159262
0.0152157
0.0146323
0.0142198
0.0140188
0.0140339
0.0142135
0.0143622
0.0143172
0.014155
0.0139776
0.0138234
0.0136809
0.0135524
0.0134837
0.013554
0.0138453
0.014421
0.0152141
0.0160762
0.0168512
0.0174404
0.0178112
0.0179784
0.0179697
0.0178316
0.0176135
0.0173463
0.0170389
0.0166933
0.0163063
0.0158941
0.0154818
0.0150918
0.0147342
0.0144132
0.0141295
0.0138874
0.013693
0.0135521
0.0134675
0.0134354
0.013443
0.0134777
0.0135196
0.0135325
0.0135111
0.0134686
0.0133945
0.0133108
0.01323
0.0131706
0.013148
0.0131653
0.0132159
0.0132879
0.0133681
0.0134398
0.0134819
0.013478
0.0134329
0.0133717
0.0133235
0.0133105
0.013346
0.0134311
0.0135614
0.0137094
0.0138549
0.0139831
0.0140836
0.0141496
0.0141769
0.0141643
0.0141132
0.0140264
0.0139213
0.0137945
0.0136616
0.0135326
0.0134184
0.0133251
0.013257
0.0132175
0.0132093
0.0132358
0.0132956
0.0133841
0.0135247
0.0136825
0.0138535
0.0140267
0.014184
0.0143112
0.0144084
0.0144813
0.0145331
0.0145675
0.0145899
0.0146076
0.0146188
0.0146406
0.0146684
0.0147017
0.0147388
0.0147813
0.014829
0.0148814
0.0149594
0.0150435
0.0151421
0.0152774
0.0154694
0.0157305
0.0160795
0.0165945
0.0174344
0.0185542
0.019321
8.99772e-06
8.99471e-06
8.99677e-06
9.00173e-06
9.01202e-06
9.03359e-06
9.06863e-06
9.10219e-06
9.18932e-06
1.30407e-05
0.000270773
0.00243497
0.00798205
0.0113425
0.0135287
0.0148388
0.0155171
0.015758
0.0157148
0.0154894
0.015181
0.0147678
0.0143354
0.0139142
0.0135377
0.0132213
0.012962
0.0127432
0.0125501
0.0123728
0.0122042
0.0120398
0.0118831
0.0117385
0.0116055
0.0114806
0.0113631
0.0112573
0.011171
0.0111133
0.0110929
0.0111179
0.0111952
0.0113327
0.0115396
0.0117848
0.0120279
0.0122608
0.0124719
0.0126523
0.0127933
0.0128882
0.0129361
0.01294
0.0129036
0.0128323