/*--------------------------------*- C++ -*----------------------------------*\
  =========                 |
  \\      /  F ield         | OpenFOAM: The Open Source CFD Toolbox
   \\    /   O peration     | Website:  https://openfoam.org
    \\  /    A nd           | Version:  7
     \\/     M anipulation  |
\*---------------------------------------------------------------------------*/
FoamFile
{
    version     2.0;
    format      ascii;
    class       volScalarField;
    location    "350";
    object      p;
}
// * * * * * * * * * * * * * * * * * * * * * * * * * * * * * * * * * * * * * //

dimensions      [0 2 -2 0 0 0 0];

internalField   nonuniform List<scalar> 
96800
(
49.8445
49.8445
49.8445
49.8445
49.8445
49.8445
49.8445
49.8446
49.8446
49.8446
49.8446
49.8446
49.8446
49.8446
49.8446
49.8446
49.8446
49.8446
49.8447
49.8447
49.8446
49.8446
49.8445
49.8445
49.8445
49.8445
49.8445
49.8445
49.8445
49.8445
49.8446
49.8446
49.8446
49.8446
49.8446
49.8446
49.8446
49.8446
49.8446
49.8446
49.8446
49.8446
49.8446
49.8446
49.8444
49.8444
49.8444
49.8445
49.8445
49.8445
49.8445
49.8445
49.8445
49.8445
49.8445
49.8446
49.8446
49.8446
49.8446
49.8446
49.8446
49.8446
49.8446
49.8446
49.8446
49.8446
49.8444
49.8444
49.8444
49.8444
49.8444
49.8444
49.8444
49.8444
49.8445
49.8445
49.8445
49.8445
49.8445
49.8445
49.8445
49.8445
49.8446
49.8446
49.8446
49.8446
49.8446
49.8446
49.8443
49.8443
49.8443
49.8443
49.8443
49.8443
49.8443
49.8444
49.8444
49.8444
49.8444
49.8444
49.8444
49.8445
49.8445
49.8445
49.8445
49.8445
49.8445
49.8445
49.8445
49.8445
49.8442
49.8442
49.8442
49.8442
49.8442
49.8442
49.8442
49.8443
49.8443
49.8443
49.8443
49.8443
49.8444
49.8444
49.8444
49.8444
49.8444
49.8444
49.8444
49.8444
49.8444
49.8444
49.844
49.844
49.844
49.844
49.8441
49.8441
49.8441
49.8441
49.8442
49.8442
49.8442
49.8442
49.8443
49.8443
49.8443
49.8443
49.8443
49.8443
49.8443
49.8444
49.8444
49.8444
49.8438
49.8439
49.8439
49.8439
49.8439
49.8439
49.844
49.844
49.844
49.844
49.8441
49.8441
49.8441
49.8442
49.8442
49.8442
49.8442
49.8442
49.8442
49.8443
49.8443
49.8443
49.8436
49.8437
49.8437
49.8437
49.8437
49.8437
49.8438
49.8438
49.8438
49.8439
49.8439
49.8439
49.844
49.844
49.844
49.8441
49.8441
49.8441
49.8441
49.8441
49.8442
49.8442
49.8434
49.8434
49.8434
49.8435
49.8435
49.8435
49.8436
49.8436
49.8436
49.8437
49.8437
49.8438
49.8438
49.8439
49.8439
49.8439
49.844
49.844
49.844
49.844
49.844
49.844
49.8432
49.8432
49.8432
49.8432
49.8433
49.8433
49.8433
49.8434
49.8434
49.8435
49.8435
49.8436
49.8436
49.8437
49.8437
49.8438
49.8438
49.8438
49.8439
49.8439
49.8439
49.8439
49.8429
49.8429
49.8429
49.8429
49.843
49.843
49.8431
49.8431
49.8432
49.8433
49.8433
49.8434
49.8434
49.8435
49.8436
49.8436
49.8437
49.8437
49.8437
49.8438
49.8438
49.8438
49.8426
49.8426
49.8426
49.8426
49.8427
49.8427
49.8428
49.8429
49.8429
49.843
49.8431
49.8432
49.8432
49.8433
49.8434
49.8434
49.8435
49.8435
49.8436
49.8436
49.8436
49.8436
49.8422
49.8422
49.8423
49.8423
49.8423
49.8424
49.8425
49.8426
49.8426
49.8427
49.8428
49.8429
49.843
49.8431
49.8432
49.8433
49.8433
49.8434
49.8434
49.8435
49.8435
49.8435
49.8418
49.8419
49.8419
49.8419
49.842
49.8421
49.8421
49.8422
49.8423
49.8424
49.8425
49.8427
49.8428
49.8429
49.843
49.8431
49.8431
49.8432
49.8433
49.8433
49.8433
49.8434
49.8414
49.8415
49.8415
49.8415
49.8416
49.8417
49.8418
49.8419
49.842
49.8421
49.8423
49.8424
49.8425
49.8426
49.8428
49.8429
49.843
49.8431
49.8431
49.8432
49.8432
49.8432
49.841
49.841
49.8411
49.8411
49.8412
49.8413
49.8414
49.8415
49.8417
49.8418
49.842
49.8421
49.8423
49.8424
49.8425
49.8427
49.8428
49.8429
49.843
49.843
49.8431
49.8431
49.8405
49.8406
49.8406
49.8407
49.8408
49.8409
49.841
49.8411
49.8413
49.8415
49.8416
49.8418
49.842
49.8422
49.8423
49.8425
49.8426
49.8427
49.8428
49.8429
49.843
49.843
49.84
49.8401
49.8401
49.8402
49.8403
49.8404
49.8406
49.8407
49.8409
49.8411
49.8413
49.8415
49.8417
49.8419
49.8421
49.8423
49.8425
49.8426
49.8427
49.8428
49.8428
49.8429
49.8395
49.8395
49.8396
49.8397
49.8398
49.84
49.8401
49.8403
49.8405
49.8408
49.841
49.8412
49.8415
49.8417
49.8419
49.8421
49.8423
49.8425
49.8426
49.8427
49.8428
49.8428
49.839
49.839
49.839
49.8391
49.8393
49.8394
49.8396
49.8399
49.8401
49.8404
49.8406
49.8409
49.8412
49.8415
49.8417
49.842
49.8422
49.8423
49.8425
49.8426
49.8427
49.8427
49.8384
49.8384
49.8385
49.8386
49.8387
49.8389
49.8391
49.8394
49.8397
49.84
49.8403
49.8406
49.8409
49.8412
49.8415
49.8418
49.8421
49.8423
49.8424
49.8426
49.8427
49.8427
49.8377
49.8378
49.8378
49.838
49.8381
49.8384
49.8386
49.8389
49.8392
49.8396
49.8399
49.8403
49.8407
49.841
49.8414
49.8417
49.842
49.8422
49.8424
49.8426
49.8427
49.8428
49.8371
49.8371
49.8372
49.8373
49.8375
49.8378
49.8381
49.8384
49.8388
49.8392
49.8396
49.84
49.8404
49.8408
49.8412
49.8416
49.8419
49.8422
49.8425
49.8426
49.8428
49.8428
49.8364
49.8364
49.8365
49.8367
49.8369
49.8372
49.8375
49.8379
49.8383
49.8388
49.8392
49.8397
49.8402
49.8407
49.8411
49.8415
49.8419
49.8423
49.8425
49.8428
49.8429
49.843
49.8356
49.8357
49.8358
49.836
49.8362
49.8366
49.8369
49.8374
49.8378
49.8383
49.8389
49.8394
49.84
49.8405
49.8411
49.8415
49.842
49.8424
49.8427
49.8429
49.8431
49.8432
49.8349
49.8349
49.835
49.8353
49.8355
49.8359
49.8363
49.8368
49.8374
49.8379
49.8385
49.8392
49.8398
49.8404
49.841
49.8416
49.8421
49.8425
49.8429
49.8432
49.8434
49.8435
49.8341
49.8341
49.8343
49.8345
49.8348
49.8352
49.8357
49.8363
49.8369
49.8375
49.8382
49.8389
49.8397
49.8404
49.8411
49.8417
49.8423
49.8428
49.8432
49.8436
49.8438
49.8439
49.8332
49.8332
49.8334
49.8337
49.8341
49.8345
49.8351
49.8357
49.8364
49.8372
49.8379
49.8387
49.8396
49.8404
49.8412
49.8419
49.8426
49.8432
49.8437
49.8441
49.8443
49.8445
49.8321
49.8322
49.8324
49.8327
49.8332
49.8337
49.8344
49.8351
49.8359
49.8368
49.8377
49.8386
49.8395
49.8405
49.8414
49.8422
49.843
49.8437
49.8443
49.8447
49.845
49.8452
49.8308
49.8309
49.8312
49.8316
49.8321
49.8328
49.8336
49.8344
49.8354
49.8364
49.8374
49.8385
49.8395
49.8406
49.8416
49.8426
49.8435
49.8443
49.845
49.8455
49.8459
49.8461
49.8293
49.8294
49.8297
49.8302
49.8308
49.8316
49.8326
49.8336
49.8347
49.8359
49.8371
49.8383
49.8396
49.8408
49.842
49.8431
49.8442
49.8451
49.8459
49.8465
49.8469
49.8471
49.8273
49.8274
49.8278
49.8284
49.8292
49.8302
49.8313
49.8326
49.8339
49.8353
49.8368
49.8382
49.8397
49.8411
49.8425
49.8438
49.845
49.8461
49.847
49.8477
49.8482
49.8485
49.8248
49.8249
49.8254
49.8262
49.8272
49.8284
49.8297
49.8313
49.8329
49.8346
49.8363
49.8381
49.8398
49.8415
49.8431
49.8446
49.846
49.8473
49.8483
49.8492
49.8498
49.8501
49.8215
49.8217
49.8223
49.8233
49.8245
49.826
49.8277
49.8296
49.8315
49.8336
49.8357
49.8378
49.8399
49.8419
49.8438
49.8456
49.8472
49.8487
49.85
49.851
49.8517
49.852
49.8174
49.8176
49.8184
49.8195
49.8211
49.8229
49.825
49.8273
49.8298
49.8323
49.8349
49.8374
49.8399
49.8423
49.8446
49.8467
49.8487
49.8504
49.8519
49.8531
49.8539
49.8544
49.8119
49.8122
49.8132
49.8147
49.8166
49.8189
49.8216
49.8244
49.8275
49.8306
49.8337
49.8369
49.8399
49.8428
49.8455
49.8481
49.8504
49.8525
49.8542
49.8557
49.8567
49.8572
49.8048
49.8052
49.8064
49.8083
49.8107
49.8137
49.817
49.8206
49.8244
49.8283
49.8322
49.8361
49.8398
49.8433
49.8466
49.8496
49.8524
49.8549
49.857
49.8587
49.86
49.8607
49.7954
49.7959
49.7975
49.7999
49.803
49.8068
49.811
49.8156
49.8204
49.8252
49.8301
49.8349
49.8395
49.8438
49.8479
49.8516
49.8549
49.8579
49.8604
49.8625
49.8641
49.8649
49.783
49.7836
49.7857
49.7888
49.7928
49.7977
49.8031
49.8089
49.8149
49.8211
49.8273
49.8333
49.839
49.8444
49.8494
49.854
49.8581
49.8616
49.8647
49.8672
49.8691
49.8701
49.7666
49.7673
49.77
49.774
49.7793
49.7855
49.7925
49.8
49.8077
49.8156
49.8234
49.8311
49.8384
49.8452
49.8515
49.8571
49.8621
49.8664
49.87
49.873
49.8752
49.8764
49.7447
49.7456
49.7491
49.7544
49.7612
49.7693
49.7783
49.788
49.7981
49.8083
49.8184
49.8282
49.8376
49.8462
49.854
49.861
49.867
49.8722
49.8766
49.8801
49.8827
49.8842
49.7158
49.7168
49.7213
49.7282
49.7371
49.7477
49.7595
49.7721
49.7853
49.7987
49.8118
49.8245
49.8363
49.8472
49.857
49.8656
49.8731
49.8795
49.8848
49.8891
49.8922
49.894
49.6776
49.6787
49.6846
49.6936
49.7053
49.7191
49.7346
49.7512
49.7685
49.7859
49.8029
49.8191
49.8341
49.8479
49.8604
49.8713
49.8809
49.8889
49.8954
49.9005
49.9042
49.9063
49.6274
49.6287
49.6364
49.6482
49.6635
49.6817
49.7021
49.7238
49.7463
49.7687
49.7905
49.8112
49.8307
49.8486
49.8647
49.8788
49.8908
49.9008
49.9088
49.915
49.9194
49.9218
49.5617
49.5632
49.5732
49.5886
49.6089
49.633
49.6597
49.688
49.717
49.7458
49.7739
49.8008
49.8261
49.8492
49.8698
49.8877
49.9029
49.9155
49.9255
49.9332
49.9385
49.9414
49.4761
49.4778
49.4907
49.5111
49.5379
49.5696
49.6044
49.641
49.6785
49.7159
49.7525
49.7873
49.8196
49.849
49.8752
49.8981
49.9177
49.9338
49.9465
49.9561
49.9627
49.9662
49.3652
49.3669
49.3837
49.4106
49.4458
49.4871
49.5323
49.5799
49.6287
49.6774
49.7246
49.769
49.8102
49.8477
49.8812
49.9105
49.9355
49.956
49.9723
49.9844
49.9928
49.9971
49.2219
49.2235
49.2452
49.2803
49.3263
49.3802
49.4391
49.5014
49.5648
49.6275
49.6876
49.7443
49.7969
49.8447
49.8873
49.9245
49.9562
49.9826
50.0035
50.0192
50.03
50.0354
49.0372
49.0382
49.066
49.1115
49.1716
49.242
49.3193
49.4003
49.4822
49.5624
49.6393
49.7116
49.7782
49.8386
49.8925
49.9398
49.9802
50.0138
50.0406
50.0609
50.0749
50.082
48.7989
48.7987
48.8338
48.8924
48.9709
49.0635
49.1647
49.2698
49.3752
49.478
49.576
49.6675
49.7516
49.8278
49.8957
49.9551
50.0062
50.0489
50.0835
50.11
50.1285
50.1378
48.4905
48.4881
48.5322
48.6077
48.7106
48.8326
48.9648
49.1012
49.2371
49.3688
49.4932
49.6086
49.7142
49.8093
49.8939
49.9685
50.0331
50.0876
50.1321
50.1665
50.1908
50.203
48.0891
48.084
48.1397
48.2376
48.3731
48.5338
48.7073
48.8848
49.0599
49.2278
49.3852
49.5301
49.6613
49.7792
49.8845
49.9775
50.0585
50.1276
50.1846
50.2293
50.2613
50.2773
47.5635
47.5566
47.6282
47.7566
47.9361
48.1487
48.3771
48.6082
48.8334
49.0469
49.2448
49.4248
49.587
49.7325
49.8623
49.9776
50.0786
50.1654
50.2378
50.2955
50.3375
50.3584
46.8729
46.867
46.9613
47.132
47.3713
47.6541
47.9553
48.2561
48.5451
48.8153
49.0621
49.2845
49.4835
49.6613
49.8201
49.9613
50.0859
50.1942
50.286
50.3604
50.4153
50.4425
45.964
45.9647
46.092
46.322
46.6434
47.0209
47.4183
47.8094
48.1798
48.5201
48.8262
49.0986
49.3401
49.5548
49.7461
49.9169
50.0692
50.2035
50.3192
50.4145
50.4861
50.521
44.7652
44.783
44.959
45.2728
45.7075
46.2125
46.7375
47.2465
47.7199
48.1467
48.5242
48.8547
49.1441
49.3988
49.6252
49.8284
50.0117
50.1764
50.3212
50.4433
50.535
50.581
43.1774
43.2374
43.4824
43.9156
44.5075
45.1862
45.8813
46.5437
47.1471
47.6798
48.1413
48.5377
48.8787
49.1751
49.4373
49.6735
49.8897
50.0885
50.2683
50.423
50.5361
50.6129
41.0863
41.1996
41.5589
42.1664
42.9792
43.8955
44.8179
45.6788
46.4444
47.1038
47.661
48.1287
48.5226
48.8597
49.1554
49.4228
49.6714
49.9059
50.1249
50.3209
50.4781
50.5574
38.3147
38.5335
39.0647
39.927
41.0514
42.2944
43.5189
44.6334
45.5971
46.4032
47.065
47.6054
48.0495
48.4221
48.7453
49.0378
49.3141
49.5825
49.8422
50.082
50.2792
50.3732
34.6313
35.0629
35.8601
37.0956
38.6571
40.3453
41.966
43.3982
44.5967
45.5656
46.3349
46.943
47.4287
47.8258
48.1644
48.4699
48.7635
49.059
49.3563
49.6365
49.8709
49.9763
29.7987
30.6369
31.8198
33.5971
35.7496
38.0281
40.1581
41.9764
43.4407
44.5795
45.4501
46.1133
46.6241
47.0268
47.3593
47.6541
47.9428
48.2524
48.5847
48.8903
49.1473
49.2294
23.5518
25.1598
26.8818
29.4931
32.346
35.3625
38.1251
40.3901
42.1346
43.4338
44.3868
45.0835
45.5954
45.9761
46.2671
46.5062
46.7401
47.0371
47.4283
47.7126
47.9834
47.8954
16.8407
18.6466
21.0585
25.3232
28.571
32.4081
35.9401
38.686
40.6916
42.1169
43.1184
43.8184
44.3021
44.6255
44.8241
44.9263
44.9832
45.1893
45.8384
45.8554
44.0218
42.944
-10.905
-10.7176
1.81276
14.6026
22.8721
29.2012
33.7504
36.939
39.1256
40.6104
41.6139
42.284
42.7106
42.9414
42.9891
42.8314
42.3782
41.3045
38.9007
35.8636
33.5271
32.3105
-31.6808
-29.2321
0.948263
11.6136
20.1052
27.069
31.971
35.2722
37.4575
38.9009
39.8507
40.4588
40.8074
40.9255
40.793
40.3362
39.3753
37.5316
34.0931
28.1801
17.4002
1.19565
-4.6914
40.9134
35.4878
34.4721
34.4541
34.6024
34.2916
30.5783
28.7042
26.7929
26.0745
25.8343
25.8243
25.7755
25.765
25.7058
25.4036
25.1329
24.8526
24.6187
24.5543
24.4787
24.4286
24.3805
24.3321
24.2844
24.2444
24.1617
24.0376
23.8414
23.5918
23.4872
23.4436
23.4446
23.5194
23.587
23.656
23.6885
23.6354
23.5936
23.556
23.5168
23.4961
23.4915
23.4743
23.5081
23.5643
23.6367
23.6493
23.6751
23.6239
23.5179
23.2966
23.1152
22.8947
22.6685
22.4507
22.241
22.0331
21.8604
21.6067
21.2875
20.9569
20.7038
20.3918
20.3944
20.3721
20.3761
20.3905
20.4018
20.4269
20.432
20.5101
20.5805
20.6102
20.6499
20.6601
20.7039
20.7863
20.9019
21.0249
21.1543
21.2838
21.4225
21.5804
21.76
21.942
22.0826
22.0751
21.9602
21.7914
21.3561
20.8273
20.4777
20.0963
20.2919
20.5581
20.8723
21.0405
21.221
21.2531
21.3886
21.5113
21.6946
22.0238
22.3234
22.657
22.0362
20.3534
12.5943
-141.194
-0.791683
0.958001
12.5731
19.8103
26.1865
30.6524
33.6542
35.6383
36.9496
37.8079
38.3421
38.6135
38.6241
38.3274
37.5926
36.1461
33.4382
28.2082
17.7713
-6.17799
-70.1179
-306.027
-117.486
-34.0908
-25.4802
-18.7263
-13.1913
-8.85209
-5.57341
-3.21336
-1.32672
0.157149
1.67361
3.09998
4.42294
5.58009
6.50142
7.08265
7.61907
7.89154
8.02794
8.11772
8.22038
8.31305
8.60888
8.94508
9.34543
9.74613
10.0763
10.3119
10.3536
10.362
10.3065
10.2142
10.1153
10.0371
9.9182
9.87742
9.8645
9.85128
9.7782
9.56825
9.38382
9.11345
8.79546
8.47896
8.17859
8.04739
8.12089
8.19792
8.30888
8.38895
8.38377
8.38423
8.36819
8.38254
8.39534
8.4301
8.4312
8.49351
8.54325
8.56386
8.55831
8.52434
8.45111
8.27278
8.11054
7.92943
7.7564
7.61429
7.52227
7.45951
7.4532
7.50796
7.6014
7.70446
7.80757
7.91445
7.92241
7.86274
7.82011
7.69204
7.52372
7.4095
7.30631
7.32877
7.34561
7.34646
7.38697
7.43369
7.49855
7.65238
7.87647
8.13135
8.44369
8.77903
9.12182
9.50723
9.94231
10.3806
10.936
11.567
12.3129
13.1746
14.1683
15.3209
16.7194
18.2602
18.8265
14.0643
-1.74258
24.1023
31.609
33.073
33.7031
34.2484
35.3247
38.0631
33.187
29.0043
26.7523
25.8809
25.6832
25.7011
25.7174
25.632
25.4291
25.1376
24.8675
24.6482
24.5019
24.4357
24.3737
24.31
24.2734
24.2644
24.2621
24.2447
24.1493
23.9894
23.7909
23.5986
23.4952
23.4774
23.5061
23.561
23.6182
23.6692
23.6967
23.6883
23.6544
23.6157
23.586
23.5671
23.5539
23.5469
23.5651
23.6158
23.6825
23.7234
23.7156
23.6364
23.5002
23.3104
23.0867
22.8511
22.6272
22.4219
22.2263
22.0184
21.7777
21.4774
21.135
20.8073
20.5572
20.3861
20.3458
20.3478
20.3529
20.3586
20.3568
20.3789
20.4186
20.4886
20.5615
20.6134
20.6501
20.679
20.7318
20.8226
20.9483
21.0851
21.217
21.3439
21.4833
21.649
21.8323
22.009
22.1495
22.185
22.0551
21.7049
21.151
20.5656
20.1764
20.0394
20.2198
20.536
20.843
21.0671
21.2008
21.2877
21.4126
21.5659
21.8548
22.1685
22.6262
23.2785
24.5968
25.437
28.8003
-42.9136
-2.8561
5.60784
15.4879
21.044
26.071
29.5833
32.0011
33.6564
34.7888
35.5435
36.0103
36.2292
36.1622
35.7431
34.824
33.1411
30.132
24.7282
14.4449
-7.3577
-48.0813
-115.81
-81.0829
-44.3302
-23.4459
-16.9686
-11.5872
-7.53371
-4.64774
-2.60559
-0.993891
0.463025
1.95299
3.39243
4.67247
5.73144
6.53627
7.11888
7.51968
7.75521
7.89456
7.99593
8.10289
8.26985
8.57207
8.98093
9.428
9.83448
10.1426
10.3364
10.4173
10.419
10.351
10.2395
10.1191
10.0159
9.93803
9.90445
9.88986
9.85855
9.77015
9.59978
9.3484
9.03055
8.69434
8.38926
8.1556
8.07283
8.12588
8.22745
8.32073
8.3729
8.38949
8.39943
8.41189
8.42473
8.43841
8.44805
8.47123
8.5148
8.55788
8.58258
8.57644
8.53302
8.43633
8.28339
8.09662
7.89651
7.71239
7.56663
7.47307
7.43202
7.44515
7.51572
7.62755
7.75279
7.86933
7.95958
7.97706
7.91411
7.79785
7.64924
7.50323
7.38939
7.32145
7.3047
7.31038
7.32989
7.36169
7.41641
7.50332
7.65773
7.88212
8.14847
8.44083
8.75263
9.09103
9.47196
9.90128
10.3733
10.8958
11.4806
12.1545
12.9343
13.8176
14.7653
16.3462
18.4406
22.5095
23.9213
42.1967
29.153
30.7448
32.0032
32.6801
33.2882
34.0038
34.7492
32.1293
27.8457
26.1176
25.5156
25.5301
25.6636
25.7177
25.5964
25.315
24.9325
24.5835
24.3559
24.2542
24.2102
24.17
24.1253
24.1154
24.1567
24.2275
24.2507
24.1653
23.9807
23.7492
23.5479
23.4451
23.4328
23.4704
23.5301
23.6059
23.685
23.7364
23.7564
23.7468
23.7248
23.7093
23.6953
23.6769
23.6579
23.6603
23.7029
23.7602
23.8142
23.7776
23.6622
23.4921
23.2797
23.0306
22.7708
22.5419
22.3517
22.1793
21.9913
21.752
21.4358
21.0569
20.6814
20.402
20.2702
20.2615
20.3025
20.3196
20.3213
20.3171
20.3331
20.3823
20.465
20.5527
20.619
20.6594
20.6959
20.7539
20.8611
21.0065
21.1587
21.2913
21.404
21.5267
21.6869
21.8879
22.1029
22.3074
22.4094
22.2847
21.8412
21.1085
20.3219
19.7993
19.7184
20.0209
20.4714
20.8705
21.1194
21.2458
21.3015
21.4006
21.5242
21.7873
22.0311
22.2599
22.678
23.3249
21.7427
21.8938
-4.16982
12.6334
16.2519
20.2672
23.2123
26.2663
28.5665
30.3213
31.6269
32.5822
33.2548
33.6499
33.8526
33.7238
33.2346
32.237
30.4875
27.5952
22.9803
15.8762
-3.70628
-25.0794
-48.9618
-46.7264
-33.3488
-21.6049
-14.6059
-9.26496
-5.52039
-3.03068
-1.41506
-0.208692
1.0428
2.37403
3.70612
4.91864
5.92615
6.6958
7.24401
7.59402
7.77244
7.83793
7.86718
7.92568
8.09372
8.41501
8.86819
9.371
9.82948
10.1736
10.3914
10.489
10.4886
10.4114
10.2819
10.138
10.0221
9.94973
9.91309
9.897
9.87336
9.79279
9.62316
9.35412
9.0076
8.63283
8.29081
8.06631
8.00427
8.08764
8.22285
8.33652
8.38814
8.40229
8.41395
8.44318
8.47609
8.50141
8.51777
8.54595
8.58767
8.62931
8.6531
8.639
8.57286
8.44843
8.2642
8.04289
7.81337
7.60753
7.45363
7.36944
7.35473
7.40329
7.50762
7.64934
7.79932
7.93326
8.03241
8.06536
7.99895
7.8571
7.6728
7.50146
7.37661
7.29996
7.26782
7.27507
7.29207
7.32745
7.38734
7.47886
7.62538
7.83804
8.0988
8.38343
8.682
9.01133
9.38407
9.80247
10.2612
10.7551
11.2976
11.919
12.6364
13.4301
14.3111
15.676
17.7183
21.0688
26.6403
35.9128
30.2269
30.6502
31.3789
31.8109
32.1298
32.2539
31.9157
30.1348
27.076
25.4783
25.1679
25.611
25.8863
25.9378
25.7427
25.3462
24.8662
24.4475
24.1809
24.0546
23.985
23.9255
23.9213
23.9589
24.0648
24.1949
24.256
24.1863
23.9921
23.7449
23.5294
23.4199
23.3973
23.4332
23.4858
23.561
23.6527
23.7323
23.7807
23.801
23.8059
23.8076
23.8096
23.7996
23.7779
23.7718
23.8056
23.8685
23.893
23.8348
23.6783
23.468
23.2293
22.9647
22.6961
22.4653
22.2854
22.1264
21.943
21.6951
21.3599
20.9555
20.5574
20.2724
20.1618
20.1872
20.2422
20.2769
20.2868
20.2919
20.3097
20.3602
20.4467
20.5418
20.6151
20.6619
20.7059
20.7794
20.9026
21.0629
21.2241
21.3555
21.4558
21.564
21.7073
21.9144
22.1558
22.423
22.5664
22.4324
21.9051
21.014
20.0405
19.3906
19.3233
19.7614
20.3881
20.9275
21.2434
21.3775
21.3909
21.4647
21.5668
21.7744
21.9897
22.0961
22.159
21.5965
21.311
19.7966
11.0985
18.9006
21.4597
23.06
24.4735
26.1399
27.5668
28.7989
29.8056
30.5942
31.1756
31.5552
31.6494
31.5112
30.9828
29.9569
28.2307
25.5602
21.5709
15.8454
2.77841
-9.7907
-23.3105
-27.1643
-22.3698
-15.8425
-10.7428
-6.56344
-3.42212
-1.41315
-0.17689
0.760208
1.8531
3.03353
4.22953
5.32815
6.24735
6.9544
7.45662
7.7649
7.89129
7.88156
7.82635
7.81714
7.96838
8.30138
8.78084
9.30539
9.78883
10.1502
10.3854
10.4984
10.5161
10.4469
10.3274
10.1835
10.0797
10.0158
9.97698
9.94246
9.89476
9.79132
9.59622
9.30006
8.93188
8.56027
8.20713
8.00859
7.95131
8.06516
8.21538
8.33258
8.37581
8.38347
8.39758
8.44343
8.50335
8.55547
8.59655
8.63807
8.68733
8.73323
8.76061
8.73687
8.64112
8.47199
8.24353
7.98174
7.72328
7.49649
7.33343
7.25907
7.27299
7.36093
7.50183
7.66982
7.8351
7.97414
8.06599
8.10633
8.03915
7.89598
7.71766
7.55596
7.41263
7.30444
7.24431
7.23629
7.25718
7.30412
7.37496
7.46613
7.59667
7.77832
8.00707
8.27068
8.54789
8.86008
9.21349
9.60413
10.0193
10.4544
10.9231
11.4537
12.061
12.7258
13.4161
14.1867
15.1076
16.2112
17.7959
21.4754
30.3491
30.4881
30.8276
31.0485
31.133
30.976
30.4022
29.1124
27.1931
26.1414
24.7932
25.8638
26.2848
26.329
26.0343
25.5346
24.9761
24.5075
24.1816
23.9763
23.8231
23.7209
23.7132
23.8068
23.9821
24.1714
24.2526
24.1957
24.0206
23.7938
23.576
23.4534
23.4234
23.4395
23.4705
23.5206
23.5933
23.6737
23.7426
23.7911
23.8216
23.8431
23.8578
23.8722
23.8526
23.8504
23.8662
23.9124
23.9292
23.8414
23.6563
23.4139
23.1556
22.8888
22.6261
22.4021
22.2306
22.0763
21.8853
21.6199
21.2678
20.8548
20.461
20.1918
20.099
20.1401
20.2028
20.2374
20.2493
20.2631
20.2899
20.3451
20.4326
20.5291
20.6075
20.6654
20.7267
20.819
20.9528
21.1128
21.2667
21.3907
21.4853
21.5742
21.7118
21.9088
22.154
22.4067
22.5819
22.4417
21.8772
20.9053
19.8018
19.0244
18.9105
19.452
20.2492
20.9715
21.3715
21.5147
21.5336
21.5524
21.6569
21.8406
22.0594
22.3112
22.4343
22.3733
21.9392
20.8975
17.6748
22.1108
23.0677
23.9336
24.7266
25.772
26.7433
27.6295
28.3999
29.0358
29.5144
29.818
29.8899
29.6817
29.1019
28.0405
26.3624
23.8963
20.3854
15.4341
8.1935
0.820466
-4.01715
-7.16584
-8.76009
-8.39054
-6.0513
-3.49548
-1.44006
-0.0324933
1.03964
1.90428
2.80163
3.83387
4.8819
5.84146
6.64191
7.2649
7.71609
7.99513
8.09654
8.05018
7.97819
7.87705
7.97629
8.28781
8.7465
9.23875
9.7
10.0457
10.3025
10.4507
10.5034
10.4623
10.3703
10.2763
10.1879
10.1268
10.08
10.0117
9.91195
9.75771
9.52055
9.1957
8.81541
8.44174
8.15711
7.99872
7.98224
8.08496
8.21569
8.31015
8.33266
8.32732
8.34188
8.40662
8.49176
8.57611
8.64579
8.70922
8.77774
8.82463
8.85869
8.82212
8.69591
8.48753
8.2235
7.92936
7.65781
7.41746
7.24805
7.18168
7.21591
7.33709
7.50737
7.68954
7.85419
7.98144
8.06097
8.08382
8.0362
7.92646
7.78523
7.64302
7.49971
7.36333
7.25897
7.21694
7.23493
7.28979
7.37453
7.46185
7.56041
7.70462
7.88557
8.10637
8.35712
8.64292
8.96374
9.30861
9.66164
10.0176
10.389
10.7985
11.2534
11.7224
12.1463
12.4753
12.6542
12.567
11.8113
13.8268
30.1567
30.2091
30.3309
30.3983
30.3414
30.087
29.5528
28.6801
27.5982
26.7065
26.3622
26.6858
26.665
26.7249
26.3447
25.7806
25.2045
24.7133
24.347
24.0404
23.7676
23.5723
23.5318
23.6462
23.8691
24.1405
24.2074
24.1765
24.048
23.8812
23.685
23.5606
23.518
23.5097
23.5138
23.528
23.5595
23.6094
23.6691
23.7257
23.7706
23.801
23.8239
23.8373
23.842
23.8542
23.8464
23.8705
23.8623
23.7695
23.5807
23.3296
23.0626
22.7998
22.5518
22.3405
22.1768
22.0259
21.83
21.5532
21.1917
20.7829
20.4106
20.1733
20.1049
20.1533
20.2122
20.2295
20.2232
20.2279
20.2593
20.321
20.4119
20.5108
20.5953
20.6658
20.7458
20.8559
20.9958
21.1464
21.2812
21.3908
21.48
21.5735
21.6967
21.871
22.0916
22.3138
22.4551
22.3281
21.7773
20.837
19.6945
18.8469
18.5625
19.1727
20.0658
20.97
21.4508
21.6265
21.6475
21.6558
21.737
21.9194
22.1857
22.5011
22.7578
22.8198
22.6138
21.7615
20.742
22.7234
23.5174
24.1658
24.8075
25.5339
26.1988
26.8175
27.3841
27.885
28.243
28.469
28.4776
28.1968
27.5489
26.4442
24.8056
22.533
19.5113
15.6214
10.8449
5.96695
1.99285
-0.876413
-2.44887
-2.68388
-1.83098
-0.590279
0.557094
1.44753
2.16858
2.9239
3.73407
4.66083
5.58189
6.39973
7.06963
7.58939
7.97502
8.22556
8.32062
8.26308
8.10566
8.04925
8.12799
8.38311
8.76665
9.16956
9.54795
9.89882
10.1844
10.3762
10.4866
10.5129
10.4688
10.395
10.3196
10.2352
10.1875
10.0754
9.92025
9.70726
9.42208
9.07348
8.70565
8.38335
8.14512
8.03931
8.05444
8.1571
8.24556
8.31302
8.29653
8.26414
8.26816
8.33643
8.4376
8.54889
8.6484
8.73259
8.81065
8.89234
8.92132
8.86879
8.71793
8.48406
8.20829
7.90373
7.64309
7.40367
7.22963
7.14744
7.19435
7.33236
7.52072
7.70585
7.86107
7.96712
8.02668
8.0428
8.01236
7.94115
7.84339
7.7381
7.62057
7.48015
7.34467
7.26431
7.24752
7.28363
7.36768
7.42308
7.49871
7.59535
7.73184
7.91332
8.13188
8.38157
8.6556
8.9419
9.22474
9.49713
9.76709
10.0518
10.3498
10.6209
10.7869
10.7643
10.4747
9.74552
8.5212
6.45673
29.8563
29.8682
29.8877
29.8587
29.7319
29.4627
29.0171
28.4013
27.7037
27.1113
26.7652
26.6757
26.7064
26.8843
26.4805
25.9921
25.5014
24.9701
24.6476
24.2547
23.8762
23.5842
23.46
23.5477
23.7671
23.917
24.0889
24.1221
24.0689
23.9455
23.8672
23.7606
23.6792
23.6345
23.605
23.5828
23.5714
23.5782
23.601
23.6367
23.6713
23.6922
23.7132
23.7364
23.743
23.7391
23.7644
23.7551
23.7201
23.6265
23.4567
23.2311
22.975
22.7197
22.4845
22.2775
22.1142
21.967
21.7818
21.521
21.1779
20.7899
20.437
20.2202
20.1654
20.211
20.2607
20.2633
20.2367
20.2241
20.2475
20.308
20.3964
20.4929
20.5799
20.6597
20.7523
20.8718
21.011
21.1517
21.2651
21.3566
21.4388
21.5305
21.6501
21.8039
21.9793
22.1409
22.2213
22.0843
21.5871
20.7057
19.7222
18.8676
18.628
19.0953
19.9758
20.869
21.4479
21.6565
21.6983
21.7277
21.7946
21.9513
22.224
22.5348
22.7959
22.9127
22.6833
22.359
22.4137
23.6585
24.5118
24.991
25.1847
25.507
25.8376
26.1814
26.536
26.9151
27.1383
27.3198
27.2621
26.9085
26.1878
25.0444
23.4401
21.3408
18.7343
15.6463
12.2038
8.77733
5.81283
3.55036
2.11268
1.48446
1.52572
1.91109
2.39866
2.85981
3.31906
3.8862
4.60456
5.4273
6.23508
6.9335
7.48535
7.89971
8.20567
8.41527
8.5127
8.48995
8.38833
8.31074
8.36889
8.54836
8.82136
9.12462
9.43048
9.72811
10.0627
10.2877
10.471
10.5594
10.5636
10.5099
10.4307
10.3423
10.2469
10.1095
9.91668
9.65874
9.33757
8.97272
8.61626
8.32846
8.15072
8.0954
8.13349
8.21597
8.2945
8.33009
8.3026
8.25
8.22525
8.26888
8.36373
8.47614
8.60791
8.70705
8.80441
8.88723
8.92006
8.8671
8.70596
8.459
8.18864
7.87595
7.65017
7.45538
7.29901
7.20779
7.22393
7.3487
7.53612
7.7132
7.861
7.94709
7.99162
8.00975
7.99538
7.95022
7.88216
7.80817
7.71899
7.59511
7.45074
7.33145
7.24066
7.25125
7.30509
7.32834
7.37582
7.44869
7.55803
7.70689
7.88947
8.09487
8.3131
8.53307
8.74341
8.93695
9.11641
9.28951
9.44727
9.54557
9.50768
9.24252
8.65506
7.6133
6.07338
4.03999
29.529
29.5224
29.4945
29.4191
29.2667
29.0139
28.6501
28.1932
27.7004
27.2608
26.9428
26.7573
26.6621
26.5757
26.3757
26.0953
25.8404
25.1754
25.0465
24.5843
24.1582
23.8068
23.5911
23.5172
23.659
23.8117
23.9764
24.0891
24.1356
24.1074
24.0467
23.9532
23.858
23.7768
23.7078
23.6479
23.5985
23.5585
23.5476
23.5436
23.5516
23.5699
23.5774
23.5763
23.5811
23.5773
23.5801
23.567
23.5318
23.4531
23.3206
23.1394
22.9155
22.6751
22.4613
22.2377
22.0602
21.9038
21.7307
21.5072
21.2104
20.8671
20.5532
20.3482
20.2793
20.2985
20.3303
20.3292
20.2992
20.282
20.2993
20.3517
20.4271
20.5104
20.5908
20.6706
20.7636
20.8771
20.9985
21.1267
21.218
21.293
21.3645
21.4477
21.5539
21.679
21.8064
21.9039
21.918
21.7607
21.3395
20.6451
19.8207
19.1643
18.9373
19.2854
20.0334
20.8412
21.3873
21.6236
21.6924
21.7277
21.8178
21.9272
22.136
22.3837
22.669
22.9291
23.0786
23.0261
23.4839
24.5534
25.3472
25.6087
25.5938
25.4499
25.4211
25.4956
25.6717
25.8993
26.1723
26.2417
26.1219
25.7065
24.9326
23.7672
22.2074
20.272
18.0062
15.4978
12.886
10.3815
8.19576
6.45462
5.20416
4.42213
4.04533
3.94175
4.01686
4.15937
4.42106
4.78904
5.35679
6.05352
6.75135
7.35124
7.8159
8.15105
8.38773
8.55104
8.64146
8.65274
8.60754
8.56932
8.57562
8.71068
8.87383
9.07428
9.3132
9.55894
9.90824
10.1911
10.4259
10.5666
10.612
10.5774
10.4973
10.3939
10.2706
10.1122
9.9019
9.62846
9.29846
8.93291
8.5957
8.33846
8.19876
8.17392
8.22683
8.29734
8.35567
8.36369
8.33457
8.28083
8.25132
8.25902
8.31831
8.4157
8.52938
8.63614
8.73655
8.81276
8.84537
8.79833
8.64766
8.4085
8.13599
7.8631
7.67091
7.53215
7.41703
7.32812
7.31269
7.40202
7.5601
7.72744
7.85416
7.92955
7.97527
8.00404
8.00988
7.98396
7.92992
7.85995
7.76946
7.64138
7.48565
7.33807
7.24002
7.14615
7.08122
7.13619
7.20314
7.2821
7.38157
7.50455
7.64469
7.79544
7.95261
8.10611
8.2508
8.37648
8.47929
8.5594
8.59927
8.54915
8.35804
7.95921
7.2707
6.2148
4.78251
3.0557
29.2123
29.1975
29.1494
29.0555
28.9006
28.6734
28.3733
28.0162
27.6371
27.282
26.987
26.7611
26.5856
26.4277
26.2587
26.0981
25.994
25.9177
25.9112
25.1214
24.4943
24.0113
23.6828
23.4747
23.5568
23.7372
23.9649
24.1501
24.2542
24.2722
24.2157
24.1164
24.0018
23.8886
23.7828
23.6865
23.6042
23.5411
23.4788
23.4555
23.4374
23.4347
23.4327
23.4278
23.42
23.4104
23.4047
23.3979
23.3736
23.3159
23.2137
23.0664
22.88
22.6662
22.4429
22.2437
22.0446
21.8684
21.6888
21.4843
21.263
20.9787
20.7169
20.529
20.4373
20.4173
20.4219
20.4171
20.4001
20.3927
20.4124
20.458
20.5194
20.5868
20.6552
20.7257
20.805
20.8974
20.9974
21.0789
21.1499
21.2102
21.2692
21.3353
21.4163
21.4997
21.5755
21.6171
21.5858
21.4256
21.0876
20.5807
20.0031
19.5319
19.3621
19.606
20.1747
20.8278
21.312
21.5606
21.6765
21.7523
21.8206
21.8312
21.9125
22.0997
22.4359
22.9132
23.2538
23.832
24.5666
25.54
26.0701
25.9269
25.5119
25.0488
24.7318
24.6015
24.6624
24.8833
25.05
25.1478
25.0136
24.5733
23.7825
22.633
21.1467
19.3756
17.399
15.3219
13.267
11.3694
9.72499
8.3688
7.29573
6.48631
5.9188
5.56126
5.4264
5.35331
5.36352
5.56116
5.95955
6.51555
7.10593
7.61705
8.01783
8.30552
8.5019
8.63326
8.71317
8.74492
8.74124
8.73165
8.74163
8.8031
8.88476
8.9975
9.15425
9.4272
9.7319
10.0553
10.3332
10.5141
10.5894
10.5786
10.5072
10.3981
10.2607
10.0918
9.88072
9.61716
9.31159
8.96656
8.65815
8.42363
8.30357
8.28993
8.34164
8.39371
8.39347
8.39645
8.37089
8.33915
8.3037
8.29268
8.3227
8.38568
8.46819
8.54646
8.6347
8.68059
8.69816
8.65913
8.53934
8.34029
8.0945
7.86778
7.69857
7.59393
7.51575
7.44783
7.42212
7.47687
7.57139
7.719
7.83287
7.91344
7.98229
8.04171
8.07461
8.06555
8.01584
7.92575
7.79294
7.62555
7.42318
7.21835
7.03619
6.91525
6.88561
6.93745
7.01708
7.10868
7.19275
7.30354
7.40019
7.48996
7.5891
7.68103
7.77229
7.84542
7.88271
7.86779
7.79862
7.66003
7.39367
6.92938
6.22437
5.24508
3.98937
2.51546
28.9227
28.905
28.8501
28.7524
28.605
28.4033
28.1501
27.8571
27.5457
27.2405
26.9612
26.714
26.4938
26.2944
26.1303
26.0674
26.2493
26.7775
26.3879
25.2493
24.442
23.9369
23.6274
23.5397
23.6504
23.8753
24.1435
24.294
24.3976
24.3958
24.3179
24.2021
24.0722
23.9402
23.8111
23.6893
23.58
23.4958
23.4202
23.3756
23.3465
23.3314
23.3221
23.3136
23.3056
23.2987
23.2932
23.2961
23.2722
23.2217
23.13
22.9975
22.8312
22.6401
22.436
22.2407
22.0421
21.876
21.6946
21.5095
21.3146
21.099
20.8865
20.7193
20.615
20.5641
20.5424
20.5294
20.5205
20.5257
20.5517
20.5932
20.6446
20.7006
20.7574
20.8139
20.8705