/*--------------------------------*- C++ -*----------------------------------*\
  =========                 |
  \\      /  F ield         | OpenFOAM: The Open Source CFD Toolbox
   \\    /   O peration     | Website:  https://openfoam.org
    \\  /    A nd           | Version:  7
     \\/     M anipulation  |
\*---------------------------------------------------------------------------*/
FoamFile
{
    version     2.0;
    format      ascii;
    class       surfaceScalarField;
    location    "350";
    object      phi;
}
// * * * * * * * * * * * * * * * * * * * * * * * * * * * * * * * * * * * * * //

dimensions      [0 3 -1 0 0 0 0];

internalField   nonuniform List<scalar> 
240592
(
7.19967e-12
1.33932e-13
-7.3336e-12
-1.18598e-11
1.41837e-11
1.90348e-12
-4.22745e-12
-1.40707e-11
1.19034e-11
-1.3099e-12
3.47723e-12
2.68695e-12
-4.05555e-12
9.15576e-12
-7.78712e-12
3.01673e-12
-8.58338e-12
-4.43248e-12
9.99917e-12
1.36725e-11
-1.81149e-11
-3.5587e-12
8.00109e-12
2.1964e-11
-2.55897e-11
-2.83724e-12
6.46293e-12
2.94358e-11
-3.37534e-11
-3.47293e-12
7.7906e-12
3.85154e-11
-4.34933e-11
-4.02045e-12
8.99851e-12
4.82672e-11
-5.23704e-11
-3.26844e-12
7.3718e-12
5.52772e-11
-5.62385e-11
-1.50995e-12
2.47144e-12
5.62292e-11
-5.55334e-11
2.00335e-12
-2.699e-12
5.33001e-11
-5.01797e-11
3.16562e-12
-6.28588e-12
-4.25403e-11
3.85814e-12
-7.87024e-12
4.65526e-11
3.83086e-11
-3.39583e-11
4.13827e-12
-8.48848e-12
2.94471e-11
-2.48528e-11
4.34171e-12
-8.93583e-12
2.03286e-11
-1.60096e-11
4.09057e-12
-8.40942e-12
1.21267e-11
-8.92396e-12
3.09684e-12
-6.29944e-12
6.41814e-12
-4.43079e-12
1.78889e-12
-3.77608e-12
2.97774e-12
-1.57953e-12
1.58464e-12
-2.98268e-12
2.08553e-13
1.309e-12
1.73063e-12
-3.24811e-12
-2.24088e-12
2.17691e-12
2.51831e-13
-1.87889e-13
1.3014e-11
4.57628e-12
-1.02813e-12
-1.65623e-11
7.35086e-12
-9.1037e-12
1.05517e-11
1.61345e-13
-8.96032e-12
-9.60443e-12
-7.82015e-12
1.34089e-12
7.05212e-15
1.60767e-11
-2.17247e-11
8.28985e-12
-1.99951e-11
-9.57562e-14
3.35257e-11
-2.36425e-11
3.27988e-11
-4.54675e-11
-1.02724e-13
3.6414e-11
-1.88875e-11
5.70638e-11
-6.73431e-11
-2.33201e-14
2.91904e-11
-1.55955e-11
7.66392e-11
-8.54499e-11
3.10085e-14
2.43755e-11
-1.77621e-11
9.42422e-11
-1.03383e-10
4.26749e-14
2.68606e-11
-2.00155e-11
1.12938e-10
-1.22517e-10
4.99309e-14
2.95447e-11
-1.62832e-11
1.31486e-10
-1.39198e-10
1.32388e-13
2.38627e-11
-6.0509e-12
1.45131e-10
-1.48977e-10
2.67658e-13
9.62963e-12
5.48247e-12
1.50565e-10
-1.49961e-10
3.99304e-13
-6.48518e-12
1.3309e-11
1.47577e-10
-1.43624e-10
5.47611e-13
-1.78092e-11
1.72226e-11
1.38378e-10
-1.31838e-10
6.66144e-13
-2.44279e-11
1.93607e-11
1.244e-10
-1.15868e-10
7.22068e-13
-2.8614e-11
2.07929e-11
1.06414e-10
-9.60397e-11
7.81341e-13
-3.19477e-11
2.03173e-11
8.49911e-11
-7.36351e-11
8.17709e-13
-3.24906e-11
1.63955e-11
6.25518e-11
-5.20686e-11
8.05121e-13
-2.76833e-11
1.12634e-11
4.27095e-11
-3.44454e-11
7.52733e-13
-2.02799e-11
9.39291e-12
2.71708e-11
-2.03661e-11
7.23472e-13
-1.69207e-11
9.14565e-12
1.39782e-11
-8.27101e-12
6.88162e-13
-1.55406e-11
2.48179e-12
-9.24838e-13
5.4317e-13
-5.8916e-12
3.7913e-12
1.91187e-11
1.93863e-12
-4.81126e-15
-2.10526e-11
-1.76787e-12
8.38403e-12
-5.33429e-13
3.48594e-13
-6.43134e-12
-2.23763e-11
4.86107e-12
-1.10403e-11
2.61536e-13
2.8294e-11
-4.3603e-11
1.86231e-11
-2.73499e-11
2.74566e-13
5.20554e-11
-4.71449e-11
3.65768e-11
-4.59261e-11
2.98648e-13
5.61957e-11
-3.84409e-11
5.51124e-11
-6.38121e-11
3.1925e-13
4.68215e-11
-3.23618e-11
7.19675e-11
-7.9611e-11
3.33664e-13
3.96719e-11
-3.44824e-11
8.67375e-11
-9.33392e-11
3.43169e-13
4.07413e-11
-3.67824e-11
9.94065e-11
-1.04976e-10
3.55199e-13
4.19969e-11
-2.96686e-11
1.10085e-10
-1.1469e-10
3.81399e-13
3.38925e-11
-1.30363e-11
1.18767e-10
-1.2228e-10
4.12158e-13
1.61369e-11
5.80594e-12
1.25229e-10
-1.27523e-10
4.40748e-13
-3.95199e-12
1.97676e-11
1.29029e-10
-1.29602e-10
4.63043e-13
-1.96574e-11
2.89528e-11
1.29132e-10
-1.27371e-10
4.89305e-13
-3.12031e-11
3.59198e-11
1.24178e-10
-1.19299e-10
5.21405e-13
-4.13205e-11
4.19534e-11
1.12817e-10
-1.0477e-10
5.58538e-13
-5.05585e-11
4.43016e-11
9.54833e-11
-8.51959e-11
5.849e-13
-5.51738e-11
3.94626e-11
7.44257e-11
-6.34847e-11
5.93352e-13
-5.09969e-11
3.04126e-11
5.28614e-11
-4.27792e-11
5.952e-13
-4.10899e-11
2.52117e-11
3.36093e-11
-2.52997e-11
6.02183e-13
-3.41233e-11
2.2339e-11
1.79178e-11
-1.13032e-11
5.87907e-13
-2.95413e-11
1.02336e-11
-1.26034e-12
3.12257e-13
-1.48434e-11
5.55762e-12
2.24466e-11
1.70013e-13
8.96948e-13
-2.35136e-11
2.88439e-12
3.50277e-12
-6.98247e-12
4.10069e-13
1.85697e-13
-3.38087e-11
1.18385e-11
-1.73333e-11
2.64754e-13
3.90394e-11
-5.9069e-11
2.31894e-11
-2.94721e-11
2.72065e-13
6.50801e-11
-6.40948e-11
3.63613e-11
-4.3831e-11
2.90188e-13
7.12746e-11
-5.47329e-11
5.16547e-11
-5.96177e-11
3.12804e-13
6.23833e-11
-4.65476e-11
6.72577e-11
-7.41879e-11
3.28963e-13
5.3149e-11
-4.59095e-11
8.00657e-11
-8.47292e-11
3.39114e-13
5.02339e-11
-4.55626e-11
8.82517e-11
-9.09454e-11
3.54048e-13
4.79023e-11
-3.67527e-11
9.32173e-11
-9.54038e-11
3.80939e-13
3.85583e-11
-1.87988e-11
9.7714e-11
-1.00151e-10
4.08706e-13
2.08271e-11
1.70317e-12
1.0267e-10
-1.05126e-10
4.35525e-13
3.17099e-13
1.84374e-11
1.07433e-10
-1.09413e-10
4.61253e-13
-1.69177e-11
3.19222e-11
1.10903e-10
-1.1152e-10
4.84263e-13
-3.17901e-11
4.51762e-11
1.10957e-10
-1.08838e-10
5.10474e-13
-4.78064e-11
5.78038e-11
1.05143e-10
-9.98786e-11
5.31694e-13
-6.35998e-11
6.48697e-11
9.33487e-11
-8.56886e-11
5.4882e-13
-7.30786e-11
6.18993e-11
7.71817e-11
-6.78905e-11
5.63044e-13
-7.17534e-11
5.1918e-11
5.80988e-11
-4.80511e-11
5.74826e-13
-6.25404e-11
4.36275e-11
3.8226e-11
-2.88572e-11
5.866e-13
-5.35828e-11
3.73687e-11
2.02158e-11
-1.24513e-11
5.68676e-13
-4.57017e-11
1.96819e-11
-1.07984e-12
2.772e-13
-2.46833e-11
5.80382e-12
2.41443e-11
-1.64601e-12
1.83772e-12
-2.43362e-11
7.05806e-12
-4.707e-12
-1.29372e-11
4.80677e-13
1.01059e-11
-4.42424e-11
1.87193e-11
-2.43796e-11
2.76068e-13
4.96273e-11
-7.06323e-11
2.99081e-11
-3.55735e-11
2.71957e-13
7.60263e-11
-7.79513e-11
4.15934e-11
-4.81634e-11
2.8137e-13
8.42402e-11
-6.97612e-11
5.51718e-11
-6.23963e-11
2.96541e-13
7.66894e-11
-5.94696e-11
6.93481e-11
-7.55198e-11
3.10415e-13
6.53309e-11
-5.39166e-11
8.04353e-11
-8.39164e-11
3.28088e-13
5.70695e-11
-4.93826e-11
8.6121e-11
-8.74477e-11
3.51722e-13
5.03574e-11
-3.95744e-11
8.8407e-11
-8.93235e-11
3.75735e-13
4.01152e-11
-2.21248e-11
9.03567e-11
-9.13953e-11
3.94452e-13
2.2769e-11
-1.59689e-12
9.23443e-11
-9.31029e-11
4.15722e-13
1.93989e-12
1.58648e-11
9.37689e-11
-9.4366e-11
4.44933e-13
-1.57125e-11
3.15234e-11
9.49581e-11
-9.53468e-11
4.68842e-13
-3.16035e-11
4.96181e-11
9.53239e-11
-9.45576e-11
4.89692e-13
-5.0874e-11
6.80487e-11
9.2926e-11
-9.03051e-11
5.05566e-13
-7.11751e-11
7.98083e-11
8.67136e-11
-8.2017e-11
5.27149e-13
-8.50319e-11
8.05417e-11
7.61504e-11
-6.89519e-11
5.46321e-13
-8.82863e-11
7.2886e-11
6.05496e-11
-5.11035e-11
5.56168e-13
-8.28879e-11
6.39289e-11
4.11712e-11
-3.1214e-11
5.61052e-13
-7.44468e-11
5.46042e-11
2.17544e-11
-1.31988e-11
5.34733e-13
-6.36943e-11
2.98097e-11
-1.25715e-12
2.19256e-13
-3.49437e-11
6.17169e-12
2.38905e-11
-3.84632e-12
2.63888e-12
-2.26832e-11
1.18565e-11
-1.65533e-11
-1.99472e-11
5.42455e-13
2.41015e-11
-5.54966e-11
2.74528e-11
-3.43127e-11
2.66526e-13
6.209e-11
-8.15031e-11
4.06003e-11
-4.66224e-11
2.66889e-13
8.72583e-11
-9.0202e-11
5.2536e-11
-5.84323e-11
2.78031e-13
9.58204e-11
-8.2952e-11
6.42654e-11
-6.99293e-11
2.90981e-13
8.83251e-11
-7.04889e-11
7.51894e-11
-7.97785e-11
3.05957e-13
7.47722e-11
-5.97713e-11
8.34618e-11
-8.61472e-11
3.27738e-13
6.21291e-11
-5.11413e-11
8.7979e-11
-8.926e-11
3.46101e-13
5.20763e-11
-4.05061e-11
9.03244e-11
-9.13023e-11
3.56607e-13
4.11274e-11
-2.29364e-11
9.21034e-11
-9.24294e-11
3.64317e-13
2.28981e-11
-1.29339e-12
9.20834e-11
-9.09879e-11
3.85331e-13
-1.87357e-13
1.67794e-11
8.93332e-11
-8.74277e-11
4.13705e-13
-1.90984e-11
3.24942e-11
8.5619e-11
-8.40937e-11
4.40816e-13
-3.446e-11
5.19904e-11
8.29469e-11
-8.20746e-11
4.64923e-13
-5.33273e-11
7.32697e-11
8.13239e-11
-8.04096e-11
4.86644e-13
-7.46704e-11
8.89756e-11
7.90343e-11
-7.67103e-11
5.06917e-13
-9.18062e-11
9.52013e-11
7.29974e-11
-6.74755e-11
5.19002e-13
-1.01242e-10
9.27313e-11
6.0101e-11
-5.10443e-11
5.2694e-13
-1.02315e-10
8.51646e-11
4.10002e-11
-3.06715e-11
5.3454e-13
-9.60276e-11
7.28794e-11
2.09369e-11
-1.22362e-11
5.16623e-13
-8.20966e-11
4.00008e-11
-7.36301e-13
2.95432e-13
-4.48448e-11
5.28455e-12
2.0758e-11
-5.90039e-12
3.55413e-12
-1.8412e-11
1.65165e-11
-3.28322e-11
-2.7144e-11
6.04037e-13
4.28553e-11
-6.96353e-11
3.70411e-11
-4.59296e-11
2.56869e-13
7.82667e-11
-9.34728e-11
5.38419e-11
-6.08748e-11
2.64277e-13
1.00241e-10
-1.01147e-10
6.70704e-11
-7.24426e-11
2.73896e-13
1.06246e-10
-9.27566e-11
7.7027e-11
-8.09425e-11
2.81231e-13
9.6391e-11
-7.82014e-11
8.43636e-11
-8.74429e-11
2.96018e-13
8.0985e-11
-6.43162e-11
9.02399e-11
-9.28239e-11
3.16611e-13
6.6584e-11
-5.3456e-11
9.52624e-11
-9.7658e-11
3.29041e-13
5.5523e-11
-4.22495e-11
1.00007e-10
-1.02102e-10
3.35136e-13
4.40095e-11
-2.28556e-11
1.0357e-10
-1.04004e-10
3.42425e-13
2.29476e-11
2.339e-12
1.03148e-10
-1.00935e-10
3.59629e-13
-4.91234e-12
2.26324e-11
9.75877e-11
-9.34769e-11
3.78829e-13
-2.71221e-11
3.77495e-11
8.91165e-11
-8.49228e-11
4.0199e-13
-4.23451e-11
5.54568e-11
8.12997e-11
-7.84046e-11
4.29118e-13
-5.87809e-11
7.60129e-11
7.63198e-11
-7.48655e-11
4.53951e-13
-7.79209e-11
9.39117e-11
7.37975e-11
-7.25683e-11
4.69469e-13
-9.56102e-11
1.06385e-10
7.05713e-11
-6.70402e-11
4.81383e-13
-1.10397e-10
1.11468e-10
6.15172e-11
-5.38006e-11
4.95011e-13
-1.1968e-10
1.07087e-10
4.43386e-11
-3.38403e-11
5.04369e-13
-1.1809e-10
9.15634e-11
2.34232e-11
-1.38968e-11
4.77828e-13
-1.01567e-10
4.9774e-11
-5.18216e-13
6.73712e-14
-5.52595e-11
5.93611e-12
1.56304e-11
-7.65903e-12
4.41829e-12
-1.23898e-11
2.09358e-11
-5.42548e-11
-3.43663e-11
6.66496e-13
6.70185e-11
-8.80453e-11
4.68294e-11
-5.79312e-11
2.48489e-13
9.88986e-11
-1.07576e-10
6.75089e-11
-7.55768e-11
2.57128e-13
1.15387e-10
-1.11241e-10
8.2212e-11
-8.75396e-11
2.67478e-13
1.16301e-10
-9.95927e-11
9.17847e-11
-9.52952e-11
2.70321e-13
1.02833e-10
-8.35459e-11
9.84404e-11
-1.01576e-10
2.70966e-13
8.64108e-11
-6.92418e-11
1.04915e-10
-1.08555e-10
2.737e-13
7.26084e-11
-5.83725e-11
1.12409e-10
-1.16282e-10
2.84806e-13
6.19605e-11
-4.62987e-11
1.19845e-10
-1.22721e-10
3.04045e-13
4.88707e-11
-2.31306e-11
1.24544e-10
-1.25011e-10
3.21051e-13
2.32773e-11
7.70679e-12
1.24013e-10
-1.21523e-10
3.31581e-13
-1.05281e-11
3.22521e-11
1.17676e-10
-1.12644e-10
3.41278e-13
-3.76256e-11
4.81504e-11
1.06793e-10
-1.00475e-10
3.5628e-13
-5.48248e-11
6.36122e-11
9.41802e-11
-8.82623e-11
3.77676e-13
-6.99078e-11
8.10101e-11
8.31357e-11
-7.89894e-11
4.0199e-13
-8.55584e-11
9.74513e-11
7.59891e-11
-7.39498e-11
4.28008e-13
-9.99185e-11
1.13352e-10
7.24764e-11
-7.07048e-11
4.52401e-13
-1.15576e-10
1.26613e-10
6.77382e-11
-6.26974e-11
4.64327e-13
-1.32118e-10
1.28771e-10
5.53435e-11
-4.58593e-11
4.65408e-13
-1.38721e-10
1.12518e-10
3.49082e-11
-2.34078e-11
4.24141e-13
-1.24443e-10
6.19131e-11
-3.37457e-12
-4.11488e-13
-7.03449e-11
1.22177e-11
8.76333e-12
-9.18915e-12
5.14596e-12
-4.72023e-12
2.50561e-11
-8.11152e-11
-4.10376e-11
7.19443e-13
9.63773e-11
-1.10727e-10
5.57586e-11
-6.86962e-11
2.22551e-13
1.23443e-10
-1.23623e-10
7.95542e-11
-8.84724e-11
2.28245e-13
1.32313e-10
-1.21624e-10
9.57501e-11
-1.01803e-10
2.43744e-13
1.27433e-10
-1.06579e-10
1.07053e-10
-1.11901e-10
2.47019e-13
1.1118e-10
-9.00639e-11
1.16707e-10
-1.21704e-10
2.3827e-13
9.4823e-11
-7.69026e-11
1.2703e-10
-1.32567e-10
2.30615e-13
8.22081e-11
-6.61465e-11
1.38013e-10
-1.4289e-10
2.41727e-13
7.07818e-11
-5.14235e-11
1.46765e-10
-1.49368e-10
2.64315e-13
5.37612e-11
-2.32676e-11
1.50652e-10
-1.5072e-10
2.82745e-13
2.30521e-11
1.32494e-11
1.49632e-10
-1.47396e-10
2.9476e-13
-1.57802e-11
4.29271e-11
1.4395e-10
-1.39246e-10
3.07119e-13
-4.79381e-11
6.19751e-11
1.33348e-10
-1.26457e-10
3.19381e-13
-6.91858e-11
7.73797e-11
1.18923e-10
-1.11134e-10
3.33504e-13
-8.55013e-11
9.165e-11
1.03555e-10
-9.65949e-11
3.53127e-13
-9.89636e-11
1.03546e-10
9.0671e-11
-8.5965e-11
3.85509e-13
-1.08637e-10
1.17855e-10
8.24649e-11
-7.96946e-11
4.13328e-13
-1.21039e-10
1.36597e-10
7.69172e-11
-7.31637e-11
4.23549e-13
-1.40774e-10
1.47886e-10
6.75793e-11
-5.95386e-11
4.24826e-13
-1.56351e-10
1.37303e-10
4.88518e-11
-3.57331e-11
3.72688e-13
-1.50795e-10
8.08746e-11
-7.57149e-12
-1.13637e-12
-9.33743e-11
2.12073e-11
3.8952e-13
-1.02355e-11
5.71038e-12
4.13542e-12
2.77543e-11
-1.12646e-10
-4.55693e-11
7.3305e-13
1.29728e-10
-1.37026e-10
6.21681e-11
-7.68e-11
1.77554e-13
1.5148e-10
-1.41614e-10
8.91645e-11
-9.94627e-11
1.85778e-13
1.51726e-10
-1.33949e-10
1.08142e-10
-1.15779e-10
2.03228e-13
1.41383e-10
-1.16835e-10
1.22895e-10
-1.29893e-10
2.09414e-13
1.23624e-10
-1.00807e-10
1.37029e-10
-1.44397e-10
2.04682e-13
1.0797e-10
-8.85022e-11
1.51921e-10
-1.59275e-10
1.99505e-13
9.56562e-11
-7.57793e-11
1.65979e-10
-1.715e-10
2.04293e-13
8.10961e-11
-5.59247e-11
1.75471e-10
-1.77838e-10
2.1751e-13
5.80744e-11
-2.26774e-11
1.78785e-10
-1.78622e-10
2.36945e-13
2.22774e-11
1.81516e-11
1.77504e-10
-1.75467e-10
2.59958e-13
-2.04487e-11
5.26439e-11
1.72365e-10
-1.68135e-10
2.7968e-13
-5.7153e-11
7.61823e-11
1.62775e-10
-1.56437e-10
2.92786e-13
-8.2813e-11
9.37588e-11
1.49348e-10
-1.41737e-10
3.08811e-13
-1.01679e-10
1.07082e-10
1.33816e-10
-1.25745e-10
3.25674e-13
-1.1548e-10
1.15332e-10
1.17738e-10
-1.09965e-10
3.46535e-13
-1.23451e-10
1.25993e-10
1.02659e-10
-9.58792e-11
3.63211e-13
-1.33136e-10
1.45732e-10
8.96033e-11
-8.33869e-11
3.77808e-13
-1.52326e-10
1.64674e-10
7.65693e-11
-6.80898e-11
3.9163e-13
-1.73545e-10
1.64737e-10
5.71099e-11
-4.30974e-11
3.38435e-13
-1.79088e-10
1.07417e-10
-9.88665e-12
-1.72163e-12
-1.22478e-10
2.66697e-11
-8.76493e-12
-1.04218e-11
5.84131e-12
1.33451e-11
2.85494e-11
-1.47476e-10
-4.74999e-11
7.1748e-13
1.65709e-10
-1.66848e-10
6.56139e-11
-8.19865e-11
1.35496e-13
1.83084e-10
-1.62872e-10
9.63353e-11
-1.0881e-10
1.43244e-13
1.75203e-10
-1.49964e-10
1.19831e-10
-1.29921e-10
1.54665e-13
1.59899e-10
-1.31627e-10
1.39522e-10
-1.49009e-10
1.61612e-13
1.40952e-10
-1.16251e-10
1.58483e-10
-1.67971e-10
1.68395e-13
1.25571e-10
-1.03543e-10
1.77193e-10
-1.85829e-10
1.74936e-13
1.12004e-10
-8.67461e-11
1.93386e-10
-1.99502e-10
1.76992e-13
9.26844e-11
-6.03892e-11
2.03926e-10
-2.06688e-10
1.83794e-13
6.29668e-11
-2.19593e-11
2.07971e-10
-2.07982e-10
2.03785e-13
2.17664e-11
2.27928e-11
2.06852e-10
-2.0458e-10
2.31265e-13
-2.52964e-11
6.16549e-11
2.01204e-10
-1.96827e-10
2.5535e-13
-6.62876e-11
8.90675e-11
1.91709e-10
-1.86084e-10
2.73991e-13
-9.49665e-11
1.08995e-10
1.80138e-10
-1.7383e-10
2.93044e-13
-1.15597e-10
1.23786e-10
1.66982e-10
-1.59276e-10
3.07991e-13
-1.318e-10
1.32761e-10
1.50507e-10
-1.40604e-10
3.20583e-13
-1.42985e-10
1.42614e-10
1.2981e-10
-1.18522e-10
3.33026e-13
-1.54236e-10
1.6122e-10
1.07246e-10
-9.61794e-11
3.50534e-13
-1.72637e-10
1.83755e-10
8.51602e-11
-7.34153e-11
3.65782e-13
-1.95866e-10
1.94046e-10
6.00877e-11
-4.45838e-11
3.05181e-13
-2.09855e-10
1.37984e-10
-9.77156e-12
-1.83925e-12
-1.53539e-10
2.71656e-11
-1.77341e-11
-9.84979e-12
5.73966e-12
2.1844e-11
2.81698e-11
-1.84369e-10
-4.78786e-11
6.95279e-13
2.03382e-10
-2.00197e-10
6.71498e-11
-8.5195e-11
9.25517e-14
2.18149e-10
-1.88862e-10
1.01728e-10
-1.16879e-10
1.00922e-13
2.03913e-10
-1.71406e-10
1.30937e-10
-1.44263e-10
1.12229e-13
1.8462e-10
-1.51748e-10
1.57073e-10
-1.69524e-10
1.25033e-13
1.64074e-10
-1.35896e-10
1.8151e-10
-1.92902e-10
1.42279e-13
1.47146e-10
-1.20917e-10
2.03402e-10
-2.12789e-10
1.62361e-13
1.30142e-10
-9.88607e-11
2.20804e-10
-2.2729e-10
1.76396e-13
1.0517e-10
-6.58268e-11
2.3216e-10
-2.35412e-10
1.8913e-13
6.88901e-11
-2.16856e-11
2.3712e-10
-2.37305e-10
2.03673e-13
2.16662e-11
2.80118e-11
2.36047e-10
-2.33402e-10
2.22957e-13
-3.08802e-11
7.10727e-11
2.29636e-10
-2.25078e-10
2.4372e-13
-7.58742e-11
1.00539e-10
2.20183e-10
-2.15218e-10
2.67305e-13
-1.05771e-10
1.21568e-10
2.10236e-10
-2.04947e-10
2.86318e-13
-1.27143e-10
1.39601e-10
1.98821e-10
-1.91251e-10
3.0029e-13
-1.47471e-10
1.5402e-10
1.81779e-10
-1.70253e-10
3.14397e-13
-1.6586e-10
1.67752e-10
1.56877e-10
-1.42151e-10
3.26705e-13
-1.82805e-10
1.86539e-10
1.26717e-10
-1.11027e-10
3.34035e-13
-2.02563e-10
2.10216e-10
9.52427e-11
-7.90442e-11
3.33963e-13
-2.26748e-10
2.26848e-10
6.2011e-11
-4.39183e-11
2.56173e-13
-2.45196e-10
1.68899e-10
-8.45559e-12
-1.81298e-12
-1.84069e-10
2.54383e-11
-2.57603e-11
-9.34507e-12
5.47426e-12
2.9631e-11
2.8303e-11
-2.22861e-10
-4.90969e-11
6.85342e-13
2.42969e-10
-2.37053e-10
6.98645e-11
-8.99192e-11
5.72184e-14
2.57051e-10
-2.20476e-10
1.08961e-10
-1.27141e-10
6.90118e-14
2.38588e-10
-1.99629e-10
1.44578e-10
-1.61375e-10
8.81852e-14
2.16337e-10
-1.77912e-10
1.7747e-10
-1.92699e-10
1.11733e-13
1.93029e-10
-1.59201e-10
2.06813e-10
-2.19561e-10
1.3433e-13
1.71814e-10
-1.39563e-10
2.30781e-10
-2.40398e-10
1.57834e-13
1.49022e-10
-1.11534e-10
2.48444e-10
-2.54975e-10
1.87733e-13
1.17877e-10
-7.20968e-11
2.60007e-10
-2.63547e-10
2.17806e-13
7.54194e-11
-2.17286e-11
2.65558e-10
-2.66066e-10
2.34787e-13
2.20016e-11
3.36962e-11
2.65132e-10
-2.62962e-10
2.46425e-13
-3.6113e-11
8.04434e-11
2.59835e-10
-2.56086e-10
2.59974e-13
-8.44533e-11
1.10711e-10
2.51957e-10
-2.47508e-10
2.71477e-13
-1.15432e-10
1.32749e-10
2.42572e-10
-2.36735e-10
2.79895e-13
-1.38867e-10
1.5588e-10
2.29498e-10
-2.20375e-10
2.88489e-13
-1.65292e-10
1.7862e-10
2.09108e-10
-1.95677e-10
2.97851e-13
-1.92348e-10
1.99068e-10
1.80353e-10
-1.63553e-10
3.01081e-13
-2.1617e-10
2.20258e-10
1.45749e-10
-1.27218e-10
2.95022e-13
-2.39084e-10
2.45269e-10
1.08092e-10
-8.82203e-11
2.85471e-13
-2.65426e-10
2.6503e-10
6.75836e-11
-4.64045e-11
1.89052e-13
-2.86398e-10
1.99305e-10
-7.77946e-12
-2.15027e-12
-2.15113e-10
2.57372e-11
-3.36728e-11
-1.00411e-11
5.61257e-12
3.81011e-11
3.10464e-11
-2.64108e-10
-5.43662e-11
7.58295e-13
2.86669e-10
-2.78411e-10
7.79544e-11
-1.00958e-10
4.92021e-14
3.01365e-10
-2.58333e-10
1.23125e-10
-1.445e-10
6.25604e-14
2.79645e-10
-2.34608e-10
1.6505e-10
-1.84664e-10
9.04718e-14
2.54131e-10
-2.09173e-10
2.03069e-10
-2.20017e-10
1.17106e-13
2.26005e-10
-1.8479e-10
2.35202e-10
-2.48489e-10
1.4132e-13
1.97936e-10
-1.58437e-10
2.59822e-10
-2.69344e-10
1.7053e-13
1.67788e-10
-1.24176e-10
2.77256e-10
-2.83776e-10
2.03792e-13
1.30492e-10
-7.88993e-11
2.89026e-10
-2.93048e-10
2.29887e-13
8.26913e-11
-2.26912e-11
2.95854e-10
-2.97492e-10
2.44001e-13
2.40854e-11
3.77806e-11
2.9807e-10
-2.97699e-10
2.53194e-13
-3.84046e-11
8.77256e-11
2.9644e-10
-2.94195e-10
2.58542e-13
-9.02294e-11
1.20188e-10
2.90804e-10
-2.85934e-10
2.5269e-13
-1.2531e-10
1.46061e-10
2.79373e-10
-2.7091e-10
2.46013e-13
-1.5477e-10
1.7612e-10
2.6056e-10
-2.48381e-10
2.42546e-13
-1.88541e-10
2.07033e-10
2.34563e-10
-2.19309e-10
2.42584e-13
-2.22529e-10
2.33769e-10
2.02812e-10
-1.85249e-10
2.39573e-13
-2.51571e-10
2.58597e-10
1.66664e-10
-1.46991e-10
2.32392e-13
-2.78502e-10
2.86941e-10
1.26036e-10
-1.03593e-10
2.25612e-13
-3.09609e-10
3.09489e-10
7.97019e-11
-5.48805e-11
1.19051e-13
-3.34429e-10
2.3196e-10
-9.27981e-12
-2.70915e-12
-2.50387e-10
3.04151e-11
-4.30601e-11
-1.20322e-11
6.45502e-12
4.8637e-11
3.68752e-11
-3.11239e-10
-6.45351e-11
9.11445e-13
3.37987e-10
-3.26191e-10
9.23032e-11
-1.19153e-10
7.7075e-14
3.52964e-10
-3.02483e-10
1.44744e-10
-1.69041e-10
8.83036e-14
3.26691e-10
-2.74681e-10
1.9198e-10
-2.13457e-10
1.14676e-13
2.96043e-10
-2.43348e-10
2.33238e-10
-2.5119e-10
1.3326e-13
2.61167e-10
-2.11271e-10
2.67097e-10
-2.80953e-10
1.51987e-13
2.24975e-10
-1.77213e-10
2.92758e-10
-3.02716e-10
1.74618e-13
1.86997e-10
-1.36972e-10
3.11098e-10
-3.18182e-10
1.88896e-13
1.43867e-10
-8.69548e-11
3.24223e-10
-3.29327e-10
1.92835e-13
9.18658e-11
-2.63713e-11
3.33608e-10
-3.37054e-10
1.95723e-13
2.96216e-11
3.79378e-11
3.39662e-10
-3.41244e-10
1.95245e-13
-3.65513e-11
9.21943e-11
3.41465e-10
-3.39799e-10
1.8877e-13
-9.40488e-11
1.3122e-10
3.35696e-10
-3.28816e-10
1.81559e-13
-1.38282e-10
1.65264e-10
3.19127e-10
-3.07004e-10
1.77111e-13
-1.77564e-10
2.02532e-10
2.93028e-10
-2.77843e-10
1.67008e-13
-2.17883e-10
2.3866e-10
2.61899e-10
-2.4542e-10
1.59573e-13
-2.55298e-10
2.69454e-10
2.28338e-10
-2.10469e-10
1.59624e-13
-2.87482e-10
2.98717e-10
1.91488e-10
-1.71032e-10
1.63875e-13
-3.19336e-10
3.33348e-10
1.48671e-10
-1.24048e-10
1.71614e-13
-3.58142e-10
3.61333e-10
9.70252e-11
-6.81755e-11
6.24967e-14
-3.90246e-10
2.7075e-10
-1.26273e-11
-3.56292e-12
-2.93393e-10
3.88326e-11
-5.47619e-11
-1.44401e-11
7.76051e-12
6.14415e-11
4.39447e-11
-3.67123e-10
-7.65398e-11
1.11411e-12
3.98604e-10
-3.81748e-10
1.08906e-10
-1.39796e-10
1.49451e-13
4.12488e-10
-3.52181e-10
1.68671e-10
-1.95516e-10
1.4068e-13
3.78885e-10
-3.18183e-10
2.20467e-10
-2.43592e-10
1.40336e-13
3.41168e-10
-2.79642e-10
2.64958e-10
-2.84516e-10
1.386e-13
2.99061e-10
-2.39419e-10
3.02219e-10
-3.17996e-10
1.36083e-13
2.5506e-10
-1.97577e-10
3.31838e-10
-3.43834e-10
1.29664e-13
2.09444e-10
-1.51522e-10
3.54145e-10
-3.63037e-10
1.18545e-13
1.60296e-10
-9.75795e-11
3.70725e-10
-3.77433e-10
1.07639e-13
1.0418e-10
-3.37433e-11
3.83217e-10
-3.88053e-10
9.81139e-14
3.84806e-11
3.46347e-11
3.91675e-10
-3.93688e-10
8.98068e-14
-3.27117e-11
9.63167e-11
3.9345e-10
-3.9036e-10
8.55244e-14
-9.94926e-11
1.46743e-10
3.83899e-10
-3.74024e-10
9.02932e-14
-1.56708e-10
1.91498e-10
3.61079e-10
-3.45877e-10
9.77283e-14
-2.06797e-10
2.34337e-10
3.29261e-10
-3.11983e-10
1.01141e-13
-2.51715e-10
2.72468e-10
2.94416e-10
-2.76598e-10
1.02874e-13
-2.90389e-10
3.05926e-10
2.58263e-10
-2.39039e-10
1.03823e-13
-3.25253e-10
3.40613e-10
2.1853e-10
-1.96323e-10
1.11261e-13
-3.62931e-10
3.8406e-10
1.71958e-10
-1.44905e-10
1.29854e-13
-4.11242e-10
4.21132e-10
1.14805e-10
-8.20007e-11
9.50658e-15
-4.53945e-10
3.18322e-10
-1.62074e-11
-4.44518e-12
-3.45508e-10
4.78385e-11
-6.87726e-11
-1.64061e-11
8.47492e-12
7.67039e-11
5.02621e-11
-4.32337e-10
-8.75401e-11
1.30253e-12
4.68312e-10
-4.45144e-10
1.24455e-10
-1.59205e-10
2.11772e-13
4.79683e-10
-4.06807e-10
1.91219e-10
-2.20598e-10
1.85422e-13
4.36001e-10
-3.65184e-10
2.47805e-10
-2.73234e-10
1.52955e-13
3.9046e-10
-3.1982e-10
2.97189e-10
-3.19764e-10
1.18313e-13
3.42276e-10
-2.72407e-10
3.40885e-10
-3.60433e-10
8.34528e-14
2.91872e-10
-2.23118e-10
3.78203e-10
-3.94103e-10
4.69002e-14
2.38971e-10
-1.70568e-10
4.08017e-10
-4.20021e-10
1.88414e-14
1.82553e-10
-1.11722e-10
4.30136e-10
-4.3853e-10
7.16354e-15
1.20109e-10
-4.35168e-11
4.45201e-10
-4.50116e-10
1.33092e-15
4.84302e-11
3.12914e-11
4.52973e-10
-4.53385e-10
1.14295e-15
-3.08803e-11
1.03911e-10
4.50841e-10
-4.44958e-10
1.05315e-14
-1.09804e-10
1.68074e-10
4.356e-10
-4.23019e-10
2.67513e-14
-1.80682e-10
2.2312e-10
4.07796e-10
-3.90712e-10
4.5223e-14
-2.40249e-10
2.69909e-10
3.72422e-10
-3.53383e-10
6.78573e-14
-2.89017e-10
3.0939e-10
3.33661e-10
-3.13176e-10
7.90962e-14
-3.29954e-10
3.46021e-10
2.91628e-10
-2.68837e-10
8.07864e-14
-3.68893e-10
3.86783e-10
2.4458e-10
-2.18673e-10
8.79733e-14
-4.12779e-10
4.39931e-10
1.9074e-10
-1.60275e-10
9.91351e-14
-4.70495e-10
4.88557e-10
1.26768e-10
-9.04569e-11
-4.44514e-14
-5.24823e-10
3.74292e-10
-1.8116e-11
-4.94976e-12
-4.04045e-10
5.28194e-11
-8.52193e-11
-1.83819e-11
9.4483e-12
9.4153e-11
5.67136e-11
-5.06486e-10
-9.88262e-11
1.43875e-12
5.47159e-10
-5.16084e-10
1.40142e-10
-1.78695e-10
2.00542e-13
5.54437e-10
-4.66588e-10
2.1397e-10
-2.4635e-10
1.6952e-13
4.98799e-10
-4.17285e-10
2.76612e-10
-3.05459e-10
1.30515e-13
4.46002e-10
-3.66794e-10
3.33283e-10
-3.60234e-10
8.56918e-14
3.9366e-10
-3.13785e-10
3.86095e-10
-4.10616e-10
3.89023e-14
3.38267e-10
-2.57247e-10
4.33377e-10
-4.54025e-10
-1.51473e-15
2.77895e-10
-1.96369e-10
4.72209e-10
-4.87691e-10
-2.52195e-14
2.11876e-10
-1.29271e-10
5.00303e-10
-5.10022e-10
-3.095e-14
1.39021e-10
-5.2966e-11
5.1682e-10
-5.20743e-10
-2.58611e-14
5.69156e-11
3.17013e-11
5.2164e-10
-5.19457e-10
-1.34773e-14
-3.38703e-11
1.17117e-10
5.13996e-10
-5.05344e-10
1.17563e-15
-1.2577e-10
1.94252e-10
4.93607e-10
-4.79183e-10
1.37414e-14
-2.0869e-10
2.58035e-10
4.62458e-10
-4.43888e-10
2.75956e-14
-2.76633e-10
3.09243e-10
4.23697e-10
-4.01983e-10
4.08799e-14
-3.30999e-10
3.52583e-10
3.78603e-10
-3.53437e-10
4.86924e-14
-3.77798e-10
3.94521e-10
3.26354e-10
-2.97431e-10
5.34219e-14
-4.23497e-10
4.41587e-10
2.66797e-10
-2.34565e-10
5.54904e-14
-4.73875e-10
5.03394e-10
2.00709e-10
-1.65013e-10
5.65035e-14
-5.39147e-10
5.62514e-10
1.27338e-10
-8.82789e-11
-9.87933e-14
-6.01474e-10
4.33818e-10
-1.61256e-11
-4.64513e-12
-4.62713e-10
4.96658e-11
-1.035e-10
-2.072e-11
1.06784e-11
1.13541e-10
6.42175e-11
-5.90397e-10
-1.11641e-10
1.4947e-12
6.36326e-10
-5.94904e-10
1.57815e-10
-2.00779e-10
1.02551e-13
6.37766e-10
-5.32919e-10
2.40143e-10
-2.76616e-10
9.05719e-14
5.69301e-10
-4.76921e-10
3.11205e-10
-3.44681e-10
8.42715e-14
5.10312e-10
-4.23061e-10
3.77458e-10
-4.09515e-10
6.90817e-14
4.55049e-10
-3.65325e-10
4.40522e-10
-4.70035e-10
4.88721e-14
3.94789e-10
-3.00798e-10
4.97497e-10
-5.22431e-10
3.14677e-14
3.25701e-10
-2.28977e-10
5.44338e-10
-5.62877e-10
1.44429e-14
2.47502e-10
-1.49379e-10
5.77702e-10
-5.88691e-10
-4.1851e-15
1.60372e-10
-6.03987e-11
5.95747e-10
-5.98954e-10
-1.28137e-14
6.36184e-11
3.71788e-11
5.98354e-10
-5.9414e-10
-1.2207e-14
-4.13814e-11
1.3555e-10
5.86456e-10
-5.75593e-10
-1.42623e-14
-1.46399e-10
2.24004e-10
5.61772e-10
-5.45251e-10
-1.66108e-14
-2.40509e-10
2.96371e-10
5.26184e-10
-5.04713e-10
-1.21524e-14
-3.1783e-10
3.54746e-10
4.80854e-10
-4.54557e-10
-1.07341e-14
-3.81033e-10
4.05993e-10
4.2569e-10
-3.94184e-10
-2.36255e-15
-4.37497e-10
4.56186e-10
3.60018e-10
-3.23444e-10
9.31613e-15
-4.92771e-10
5.1008e-10
2.84776e-10
-2.44471e-10
1.47523e-14
-5.50399e-10
5.78113e-10
2.02936e-10
-1.6058e-10
2.23553e-14
-6.20491e-10
6.41579e-10
1.18023e-10
-7.65826e-11
-1.35807e-13
-6.82884e-10
4.89819e-10
-9.80409e-12
-4.29048e-12
-5.14553e-10
3.88281e-11
-1.24179e-10
-2.28436e-11
1.17368e-11
1.35286e-10
7.14878e-11
-6.85124e-10
-1.24797e-10
1.57024e-12
7.36862e-10
-6.83401e-10
1.76969e-10
-2.25795e-10
-2.12353e-15
7.3223e-10
-6.0838e-10
2.70936e-10
-3.13194e-10
1.59926e-14
6.50622e-10
-5.46439e-10
3.53537e-10
-3.92688e-10
5.2236e-14
5.85538e-10
-4.89615e-10
4.30893e-10
-4.68072e-10
7.6014e-14
5.26719e-10
-4.26498e-10
5.03809e-10
-5.37673e-10
8.91134e-14
4.60273e-10
-3.52455e-10
5.69115e-10
-5.97666e-10
8.16221e-14
3.80925e-10
-2.67442e-10
6.22836e-10
-6.44212e-10
4.91341e-14
2.88768e-10
-1.72192e-10
6.61403e-10
-6.74154e-10
6.55112e-15
1.84936e-10
-6.69356e-11
6.82325e-10
-6.85907e-10
-3.16949e-14
7.05495e-11
4.6125e-11
6.85009e-10
-6.79845e-10
-5.66381e-14
-5.12322e-11
1.58241e-10
6.7064e-10
-6.57667e-10
-6.17485e-14
-1.71152e-10
2.58529e-10
6.41096e-10
-6.21129e-10
-5.33514e-14
-2.78443e-10
3.41527e-10
5.97831e-10
-5.71371e-10
-4.33664e-14
-3.67944e-10
4.10284e-10
5.41772e-10
-5.09146e-10
-2.59507e-14
-4.42883e-10
4.72472e-10
4.73489e-10
-4.34905e-10
-4.50371e-15
-5.11051e-10
5.3316e-10
3.93452e-10
-3.49459e-10
1.38565e-14
-5.77167e-10
5.94618e-10
3.03313e-10
-2.5562e-10
2.50519e-14
-6.42335e-10
6.66118e-10
2.07078e-10
-1.58536e-10
3.38009e-14
-7.14694e-10
7.2543e-10
1.11245e-10
-6.70737e-11
-1.39277e-13
-7.69462e-10
5.37083e-10
-3.95791e-12
-4.12455e-12
-5.5845e-10
2.94493e-11
-1.46632e-10
-2.3993e-11
1.27214e-11
1.57904e-10
7.70948e-11
-7.91621e-10
-1.36692e-10
1.74069e-12
8.49477e-10
-7.8478e-10
1.96211e-10
-2.52969e-10
-6.90477e-15
8.41545e-10
-6.96648e-10
3.06333e-10
-3.56795e-10
4.21197e-15
7.47106e-10
-6.27998e-10
4.04987e-10
-4.51324e-10
3.23637e-14
6.74303e-10
-5.66424e-10
4.95839e-10
-5.38394e-10
4.85094e-14
6.0893e-10
-4.96002e-10
5.78671e-10
-6.16381e-10
5.46415e-14
5.33657e-10
-4.10983e-10
6.5119e-10
-6.82711e-10
4.72322e-14
4.42457e-10
-3.1141e-10
7.10563e-10
-7.34294e-10
2.60157e-14
3.35115e-10
-1.98619e-10
7.53484e-10
-7.67823e-10
-6.35263e-16
2.12959e-10
-7.45864e-11
7.77084e-10
-7.81291e-10
-2.52123e-14
7.88183e-11
5.65391e-11
7.80458e-10
-7.74806e-10
-3.83088e-14
-6.21526e-11
1.85093e-10
7.64378e-10
-7.49336e-10
-3.47536e-14
-2.00101e-10
3.00381e-10
7.29723e-10
-7.05702e-10
-2.07154e-14
-3.24382e-10
3.97285e-10
6.77407e-10
-6.45071e-10
-7.12051e-15
-4.29614e-10
4.79001e-10
6.08902e-10
-5.69193e-10
1.69669e-14
-5.18727e-10
5.53264e-10
5.26232e-10
-4.80387e-10
3.91388e-14
-5.99148e-10
6.24525e-10
4.32001e-10
-3.81521e-10
5.47976e-14
-6.75059e-10
6.92999e-10
3.29475e-10
-2.76377e-10
6.65366e-14
-7.46165e-10
7.65753e-10
2.22933e-10
-1.69848e-10
7.35765e-14
-8.18912e-10
8.15225e-10
1.18385e-10
-7.0467e-11
-1.158e-13
-8.63028e-10
5.79685e-10
-2.43315e-12
-4.60508e-12
-6.02191e-10
2.95449e-11
-1.69011e-10
-2.4724e-11
1.32875e-11
1.80448e-10
8.32723e-11
-9.10869e-10
-1.51075e-10
2.01035e-12
9.76662e-10
-9.0318e-10
2.20152e-10
-2.87489e-10
5.40921e-14
9.70464e-10
-8.02708e-10
3.51937e-10
-4.13396e-10
7.20719e-15
8.6416e-10
-7.2505e-10
4.72046e-10
-5.27784e-10
-2.40222e-14
7.80812e-10
-6.54615e-10
5.80391e-10
-6.29602e-10
-4.13646e-14
7.03868e-10
-5.73341e-10
6.7514e-10
-7.16948e-10
-3.62184e-14
6.15186e-10
-4.75194e-10
7.54819e-10
-7.88632e-10
-5.16563e-15
5.09012e-10
-3.59519e-10
8.1804e-10
-8.42709e-10
4.00522e-14
3.84148e-10
-2.27467e-10
8.62225e-10
-8.76315e-10
7.5314e-14
2.41481e-10
-8.28088e-11
8.84903e-10
-8.8808e-10
9.28526e-14
8.58933e-11
6.83123e-11
8.86052e-10
-8.78947e-10
9.52318e-14
-7.5513e-11
2.16199e-10
8.66798e-10
-8.4948e-10
8.71811e-14
-2.33604e-10
3.50345e-10
8.26934e-10
-7.99098e-10
7.36991e-14
-3.78254e-10
4.6482e-10
7.66117e-10
-7.28198e-10
6.49486e-14
-5.02804e-10
5.61994e-10
6.85671e-10
-6.38994e-10
5.72872e-14
-6.08728e-10
6.4868e-10
5.88734e-10
-5.35634e-10
5.93573e-14
-7.01839e-10
7.28668e-10
4.80375e-10
-4.23726e-10
6.68391e-14
-7.85383e-10
8.01595e-10
3.66314e-10
-3.08649e-10
7.54165e-14
-8.59337e-10
8.73991e-10
2.51149e-10
-1.94098e-10
9.32183e-14
-9.31136e-10
9.13258e-10
1.38166e-10
-8.49863e-11
-1.29304e-13
-9.66309e-10
6.27154e-10
-4.72089e-12
-5.60883e-12
-6.54946e-10
3.81218e-11
-1.92704e-10
-2.78678e-11