/*--------------------------------*- C++ -*----------------------------------*\
  =========                 |
  \\      /  F ield         | OpenFOAM: The Open Source CFD Toolbox
   \\    /   O peration     | Website:  https://openfoam.org
    \\  /    A nd           | Version:  7
     \\/     M anipulation  |
\*---------------------------------------------------------------------------*/
FoamFile
{
    version     2.0;
    format      ascii;
    class       volVectorField;
    location    "350";
    object      U;
}
// * * * * * * * * * * * * * * * * * * * * * * * * * * * * * * * * * * * * * //

dimensions      [0 1 -1 0 0 0 0];

internalField   nonuniform List<vector> 
96800
(
(1.39783e-05 4.85029e-08 -1.35513e-05)
(2.59086e-05 -4.73304e-08 -3.33156e-06)
(2.52343e-05 1.35479e-07 1.47123e-06)
(9.5471e-06 2.09763e-07 5.19735e-06)
(-1.1964e-05 2.19641e-07 5.71615e-06)
(-3.1063e-05 1.81804e-07 4.46975e-06)
(-4.5528e-05 1.61914e-07 3.47844e-06)
(-5.99205e-05 1.98196e-07 4.48608e-06)
(-7.76661e-05 2.3168e-07 5.3389e-06)
(-9.54329e-05 2.17396e-07 4.31453e-06)
(-0.000106215 2.04563e-07 1.30035e-06)
(-0.000106091 8.89834e-08 -1.93797e-06)
(-9.75842e-05 1.14474e-07 -4.07184e-06)
(-8.40244e-05 8.10806e-08 -5.1324e-06)
(-6.82001e-05 9.37402e-08 -5.36001e-06)
(-5.12389e-05 9.04165e-08 -5.61594e-06)
(-3.42735e-05 1.0408e-07 -5.18471e-06)
(-1.97136e-05 1.50798e-07 -3.73955e-06)
(-1.03005e-05 1.98486e-07 -1.96189e-06)
(-4.83845e-06 1.54426e-07 -1.58418e-06)
(3.52619e-07 1.89297e-07 -1.73623e-06)
(3.72569e-06 7.115e-08 1.80345e-07)
(3.99424e-06 1.35241e-07 -3.04608e-05)
(9.12681e-06 3.60847e-07 -1.06345e-05)
(3.47321e-06 5.11325e-07 8.33398e-06)
(-1.40447e-05 5.25404e-07 2.18529e-05)
(-3.70429e-05 4.95745e-07 2.42745e-05)
(-5.77174e-05 4.61049e-07 1.89737e-05)
(-7.42094e-05 4.34647e-07 1.55526e-05)
(-8.95963e-05 4.26831e-07 1.80274e-05)
(-0.000106228 4.38494e-07 2.07609e-05)
(-0.000121734 4.6508e-07 1.68436e-05)
(-0.000131848 4.91921e-07 5.95407e-06)
(-0.000134356 5.02198e-07 -6.357e-06)
(-0.000129985 5.18795e-07 -1.48937e-05)
(-0.000120431 5.28353e-07 -1.98227e-05)
(-0.000107107 5.14856e-07 -2.25451e-05)
(-9.01911e-05 5.09645e-07 -2.45299e-05)
(-7.05448e-05 5.16114e-07 -2.44192e-05)
(-5.09335e-05 5.26084e-07 -2.04257e-05)
(-3.43877e-05 5.25929e-07 -1.4964e-05)
(-2.15758e-05 5.15269e-07 -1.29846e-05)
(-9.80704e-06 4.57767e-07 -1.24193e-05)
(-2.91128e-06 5.36061e-09 -5.02293e-06)
(2.2623e-06 9.27788e-08 -4.05747e-05)
(-2.76135e-08 1.58172e-07 -1.15333e-05)
(-7.85528e-06 2.6309e-07 1.71168e-05)
(-2.17479e-05 2.75753e-07 3.75614e-05)
(-3.84627e-05 2.79313e-07 4.16519e-05)
(-5.50805e-05 2.79971e-07 3.44017e-05)
(-6.97197e-05 2.7972e-07 2.94293e-05)
(-8.23662e-05 2.79058e-07 3.16588e-05)
(-9.30944e-05 2.78694e-07 3.38323e-05)
(-0.000102073 2.79559e-07 2.73501e-05)
(-0.000109121 2.80464e-07 1.20813e-05)
(-0.000114168 2.7944e-07 -5.23263e-06)
(-0.000116689 2.76724e-07 -1.84743e-05)
(-0.000115647 2.73884e-07 -2.77127e-05)
(-0.000109681 2.71399e-07 -3.53204e-05)
(-9.78978e-05 2.70062e-07 -4.22314e-05)
(-8.12347e-05 2.69915e-07 -4.56782e-05)
(-6.20414e-05 2.6942e-07 -4.20651e-05)
(-4.31151e-05 2.68097e-07 -3.39782e-05)
(-2.6781e-05 2.63732e-07 -2.86991e-05)
(-1.29945e-05 2.25041e-07 -2.51764e-05)
(-3.59223e-06 -1.62269e-07 -1.41985e-05)
(1.04679e-06 1.03642e-07 -4.58323e-05)
(-6.13203e-06 1.06462e-07 -6.01881e-06)
(-1.39417e-05 1.85345e-07 2.72161e-05)
(-2.43223e-05 1.92405e-07 5.02486e-05)
(-3.66477e-05 1.91106e-07 5.57924e-05)
(-5.08376e-05 1.87808e-07 4.85335e-05)
(-6.47749e-05 1.83843e-07 4.17743e-05)
(-7.56218e-05 1.79976e-07 4.09741e-05)
(-8.22648e-05 1.77602e-07 4.01357e-05)
(-8.65102e-05 1.77025e-07 3.20894e-05)
(-9.05807e-05 1.77382e-07 1.61218e-05)
(-9.48709e-05 1.77666e-07 -2.15486e-06)
(-9.87358e-05 1.77202e-07 -1.73058e-05)
(-0.000101159 1.76361e-07 -3.0004e-05)
(-9.99821e-05 1.75951e-07 -4.32038e-05)
(-9.32694e-05 1.76048e-07 -5.62096e-05)
(-8.15087e-05 1.76816e-07 -6.41141e-05)
(-6.61347e-05 1.77997e-07 -6.26825e-05)
(-4.83005e-05 1.7942e-07 -5.43778e-05)
(-3.04642e-05 1.76246e-07 -4.65762e-05)
(-1.42642e-05 1.44444e-07 -3.9819e-05)
(-3.20262e-06 -2.01855e-07 -2.4167e-05)
(-7.12709e-08 3.81496e-08 -4.77467e-05)
(-1.08564e-05 8.34703e-08 4.3405e-06)
(-2.02813e-05 1.66249e-07 3.9232e-05)
(-3.00262e-05 1.73097e-07 6.24545e-05)
(-4.0682e-05 1.70185e-07 6.89533e-05)
(-5.32851e-05 1.64384e-07 6.17054e-05)
(-6.59614e-05 1.58065e-07 5.19986e-05)
(-7.52378e-05 1.52875e-07 4.59e-05)
(-7.97253e-05 1.49899e-07 4.10558e-05)
(-8.17821e-05 1.49274e-07 3.24646e-05)
(-8.36909e-05 1.50649e-07 1.73841e-05)
(-8.52707e-05 1.54021e-07 -7.16735e-07)
(-8.62581e-05 1.58707e-07 -1.63324e-05)
(-8.71555e-05 1.63167e-07 -3.06202e-05)
(-8.70508e-05 1.66623e-07 -4.76307e-05)
(-8.4059e-05 1.6852e-07 -6.51707e-05)
(-7.74495e-05 1.6943e-07 -7.67041e-05)
(-6.66116e-05 1.69396e-07 -7.83988e-05)
(-5.10242e-05 1.68469e-07 -7.25414e-05)
(-3.28093e-05 1.62314e-07 -6.47501e-05)
(-1.50309e-05 1.28421e-07 -5.56229e-05)
(-3.32851e-06 -1.92541e-07 -3.418e-05)
(-1.17555e-06 1.08979e-08 -4.59203e-05)
(-1.53362e-05 3.68385e-08 1.61821e-05)
(-2.86727e-05 1.3415e-07 5.03835e-05)
(-4.01959e-05 1.47273e-07 7.29625e-05)
(-5.0934e-05 1.52223e-07 7.99549e-05)
(-6.144e-05 1.54587e-07 7.25865e-05)
(-7.08619e-05 1.55554e-07 6.01929e-05)
(-7.75596e-05 1.55324e-07 4.92505e-05)
(-8.10159e-05 1.53536e-07 4.09286e-05)
(-8.3093e-05 1.51179e-07 3.18839e-05)
(-8.47333e-05 1.49952e-07 1.67723e-05)
(-8.43424e-05 1.51768e-07 -2.42492e-06)
(-8.15201e-05 1.5628e-07 -1.85696e-05)
(-7.8357e-05 1.61818e-07 -3.2515e-05)
(-7.62596e-05 1.67452e-07 -4.99262e-05)
(-7.46246e-05 1.70502e-07 -6.90889e-05)
(-7.17121e-05 1.70384e-07 -8.36636e-05)
(-6.46318e-05 1.67251e-07 -9.03194e-05)
(-5.09942e-05 1.62725e-07 -8.9511e-05)
(-3.27136e-05 1.55545e-07 -8.33912e-05)
(-1.4512e-05 1.32201e-07 -7.16642e-05)
(-2.72564e-06 -2.23564e-07 -4.40588e-05)
(-2.1115e-06 -5.91952e-08 -3.9079e-05)
(-2.00024e-05 -1.55115e-08 2.89071e-05)
(-3.78879e-05 1.06444e-07 6.09599e-05)
(-5.26433e-05 1.25649e-07 8.17301e-05)
(-6.41817e-05 1.37811e-07 8.80017e-05)
(-7.26348e-05 1.48038e-07 8.00158e-05)
(-7.87431e-05 1.56382e-07 6.6606e-05)
(-8.35798e-05 1.60963e-07 5.37608e-05)
(-8.775e-05 1.60183e-07 4.37939e-05)
(-9.18952e-05 1.55327e-07 3.37375e-05)
(-9.47068e-05 1.49327e-07 1.6026e-05)
(-9.35262e-05 1.45376e-07 -7.08862e-06)
(-8.79365e-05 1.44401e-07 -2.55155e-05)
(-8.04687e-05 1.46666e-07 -3.86961e-05)
(-7.40255e-05 1.50902e-07 -5.37175e-05)
(-6.99291e-05 1.54762e-07 -7.13448e-05)
(-6.74114e-05 1.56738e-07 -8.73994e-05)
(-6.33325e-05 1.56563e-07 -9.97145e-05)
(-5.31399e-05 1.55042e-07 -0.000106212)
(-3.60543e-05 1.50643e-07 -0.000103518)
(-1.66152e-05 1.31002e-07 -8.88259e-05)
(-2.94088e-06 -2.17904e-07 -5.39398e-05)
(-3.22425e-06 -5.84776e-08 -2.90647e-05)
(-2.52428e-05 -8.36873e-09 4.6071e-05)
(-4.72835e-05 1.10467e-07 7.5225e-05)
(-6.48033e-05 1.2839e-07 9.20297e-05)
(-7.70152e-05 1.3316e-07 9.49971e-05)
(-8.49814e-05 1.35062e-07 8.49246e-05)
(-9.09176e-05 1.37649e-07 7.12902e-05)
(-9.70642e-05 1.40613e-07 5.90044e-05)
(-0.000103966 1.42948e-07 4.9133e-05)
(-0.000110327 1.43849e-07 3.74202e-05)
(-0.000113624 1.42625e-07 1.52013e-05)
(-0.000111923 1.39462e-07 -1.38259e-05)
(-0.000105244 1.35801e-07 -3.66962e-05)
(-9.50003e-05 1.33375e-07 -5.08646e-05)
(-8.38289e-05 1.33377e-07 -6.36001e-05)
(-7.45604e-05 1.35977e-07 -7.75974e-05)
(-6.88958e-05 1.40882e-07 -9.12494e-05)
(-6.58722e-05 1.46982e-07 -0.000105676)
(-6.01673e-05 1.52045e-07 -0.000119327)
(-4.66796e-05 1.51721e-07 -0.000123083)
(-2.62565e-05 1.28755e-07 -0.00010839)
(-7.00425e-06 -1.90739e-07 -6.67557e-05)
(-4.22871e-06 -4.69444e-09 -1.53625e-05)
(-3.00573e-05 1.65829e-08 7.01209e-05)
(-5.58688e-05 1.18083e-07 9.55295e-05)
(-7.5298e-05 1.3255e-07 0.000105817)
(-8.83829e-05 1.25834e-07 0.00010317)
(-9.81987e-05 1.14968e-07 8.97182e-05)
(-0.000107424 1.08223e-07 7.54722e-05)
(-0.000117534 1.0909e-07 6.42315e-05)
(-0.000127621 1.181e-07 5.44655e-05)
(-0.000134733 1.31418e-07 4.03176e-05)
(-0.000137081 1.43005e-07 1.3933e-05)
(-0.000135037 1.48191e-07 -1.98208e-05)
(-0.000128657 1.46348e-07 -4.73977e-05)
(-0.000117852 1.39573e-07 -6.50177e-05)
(-0.000104289 1.32121e-07 -7.8447e-05)
(-9.08953e-05 1.28255e-07 -8.99751e-05)
(-8.05073e-05 1.30304e-07 -9.90005e-05)
(-7.41803e-05 1.3601e-07 -0.000110603)
(-6.87832e-05 1.42686e-07 -0.000127717)
(-5.82183e-05 1.4461e-07 -0.000139425)
(-3.83068e-05 1.17979e-07 -0.000130983)
(-1.34442e-05 -1.59208e-07 -8.69193e-05)
(-4.63187e-06 -5.64076e-08 1.07388e-06)
(-3.2728e-05 -2.4921e-08 9.80949e-05)
(-6.22833e-05 9.0866e-08 0.000119088)
(-8.45281e-05 1.12647e-07 0.000121445)
(-0.000100176 1.14416e-07 0.000112809)
(-0.000113225 1.11463e-07 9.67097e-05)
(-0.000126375 1.09009e-07 8.24449e-05)
(-0.000140146 1.0944e-07 7.1937e-05)
(-0.00015241 1.14497e-07 6.06997e-05)
(-0.000159809 1.2335e-07 4.26465e-05)
(-0.000161779 1.32867e-07 1.2819e-05)
(-0.00015988 1.39827e-07 -2.37016e-05)
(-0.000154124 1.41489e-07 -5.51712e-05)
(-0.000144174 1.37573e-07 -7.73331e-05)
(-0.000131232 1.30807e-07 -9.39654e-05)
(-0.000117042 1.24628e-07 -0.00010613)
(-0.000102832 1.21521e-07 -0.000112893)
(-8.97835e-05 1.2167e-07 -0.000121006)
(-7.83241e-05 1.25685e-07 -0.000137527)
(-6.57426e-05 1.29447e-07 -0.000154822)
(-4.55358e-05 1.09586e-07 -0.000156105)
(-1.74538e-05 -1.31133e-07 -0.000114143)
(-4.49075e-06 -1.07817e-07 1.81396e-05)
(-3.33656e-05 -7.05501e-08 0.000125935)
(-6.60708e-05 5.94179e-08 0.000142796)
(-9.22083e-05 9.32973e-08 0.000138151)
(-0.000112177 1.09643e-07 0.000125511)
(-0.000129394 1.20429e-07 0.000108953)
(-0.000146189 1.26036e-07 9.55576e-05)
(-0.000162484 1.23773e-07 8.44418e-05)
(-0.000176043 1.14715e-07 6.91574e-05)
(-0.00018428 1.03921e-07 4.51838e-05)
(-0.000187041 9.76282e-08 1.08219e-05)
(-0.000185426 9.93233e-08 -2.89725e-05)
(-0.000179635 1.07748e-07 -6.39442e-05)
(-0.000170532 1.18094e-07 -8.90862e-05)
(-0.000159696 1.25452e-07 -0.000107751)
(-0.000147013 1.26662e-07 -0.000122013)
(-0.000130826 1.23107e-07 -0.000130956)
(-0.000111206 1.19565e-07 -0.000139602)
(-9.09502e-05 1.21334e-07 -0.000155031)
(-7.13264e-05 1.26855e-07 -0.000174329)
(-4.72813e-05 1.17279e-07 -0.000183318)
(-1.74624e-05 -1.61026e-07 -0.000143998)
(-4.11285e-06 -4.35131e-08 3.42492e-05)
(-3.35507e-05 -5.34824e-08 0.000155192)
(-6.79248e-05 6.7971e-08 0.00016926)
(-9.77176e-05 9.62818e-08 0.000159123)
(-0.000122955 1.01471e-07 0.000143708)
(-0.000145866 1.02817e-07 0.000126878)
(-0.000167221 1.05706e-07 0.000113063)
(-0.000185894 1.06924e-07 9.91052e-05)
(-0.000200234 1.03154e-07 7.81453e-05)
(-0.000209111 9.54014e-08 4.74241e-05)
(-0.000212435 8.85558e-08 7.34165e-06)
(-0.00021052 8.81949e-08 -3.70867e-05)
(-0.000204259 9.61971e-08 -7.5151e-05)
(-0.00019591 1.09971e-07 -0.000100723)
(-0.000187075 1.22895e-07 -0.000119074)
(-0.00017568 1.29685e-07 -0.000135896)
(-0.000158034 1.29802e-07 -0.000150549)
(-0.00013346 1.2656e-07 -0.000164086)
(-0.00010553 1.24938e-07 -0.000180685)
(-7.74007e-05 1.25613e-07 -0.000200676)
(-4.70524e-05 1.15092e-07 -0.000213528)
(-1.57542e-05 -1.64978e-07 -0.000173378)
(-3.59378e-06 4.09744e-08 4.89603e-05)
(-3.43826e-05 -4.35246e-08 0.00018844)
(-7.12046e-05 6.93764e-08 0.000201647)
(-0.000105043 9.30896e-08 0.000186798)
(-0.000135934 8.96536e-08 0.000167745)
(-0.000164615 8.15404e-08 0.000148239)
(-0.000189971 7.95561e-08 0.000131224)
(-0.00021027 8.55381e-08 0.000113002)
(-0.000224841 9.72305e-08 8.7112e-05)
(-0.000233868 1.0865e-07 5.11063e-05)
(-0.000237347 1.13738e-07 5.56222e-06)
(-0.000235644 1.1135e-07 -4.39775e-05)
(-0.000230319 1.05195e-07 -8.50375e-05)
(-0.000223409 1.01376e-07 -0.000110885)
(-0.000214961 1.04032e-07 -0.000129787)
(-0.000202051 1.12681e-07 -0.000150936)
(-0.000181571 1.22102e-07 -0.0001729)
(-0.000153511 1.25338e-07 -0.000192621)
(-0.000120919 1.20919e-07 -0.000212074)
(-8.6386e-05 1.12043e-07 -0.000233913)
(-4.97582e-05 9.19678e-08 -0.000249203)
(-1.56195e-05 -1.37771e-07 -0.000203281)
(-3.67162e-06 4.51094e-08 6.39897e-05)
(-3.75858e-05 -8.70635e-08 0.000223665)
(-7.99491e-05 2.97779e-08 0.000237838)
(-0.000119483 7.60968e-08 0.000220325)
(-0.0001557 9.57443e-08 0.000198219)
(-0.000188023 1.00557e-07 0.00017435)
(-0.000214878 9.68379e-08 0.000151416)
(-0.000235208 9.11002e-08 0.000127163)
(-0.000249592 9.04488e-08 9.6585e-05)
(-0.000259119 9.62367e-08 5.6555e-05)
(-0.000264129 1.02864e-07 6.56777e-06)
(-0.000265096 1.04085e-07 -4.73948e-05)
(-0.000262834 9.81673e-08 -9.20473e-05)
(-0.000256936 8.98914e-08 -0.000121169)
(-0.000245476 8.77919e-08 -0.000144418)
(-0.0002273 9.58503e-08 -0.000171355)
(-0.000202742 1.09357e-07 -0.000199198)
(-0.000173004 1.17673e-07 -0.000223313)
(-0.000139177 1.16364e-07 -0.000246113)
(-0.000101412 1.08599e-07 -0.000272305)
(-5.90227e-05 9.48727e-08 -0.00029131)
(-1.83867e-05 -1.20719e-07 -0.0002372)
(-4.6888e-06 3.62345e-08 8.22608e-05)
(-4.45422e-05 -7.77962e-08 0.000262842)
(-9.38817e-05 2.35668e-08 0.000278351)
(-0.000139601 7.00936e-08 0.000259059)
(-0.000180381 9.16734e-08 0.000234438)
(-0.000215325 1.00091e-07 0.000205557)
(-0.000243336 1.00773e-07 0.000175136)
(-0.000264085 9.44923e-08 0.000143031)
(-0.000278838 8.51147e-08 0.000106445)
(-0.000289627 7.88124e-08 6.22443e-05)
(-0.000297569 8.0236e-08 8.97705e-06)
(-0.000302576 8.87388e-08 -4.78113e-05)
(-0.000303022 9.84212e-08 -9.65722e-05)
(-0.000295412 1.02899e-07 -0.000132698)
(-0.000277835 1.0004e-07 -0.000164134)
(-0.000253027 9.28027e-08 -0.000197151)
(-0.000225017 8.69575e-08 -0.000228384)
(-0.000194934 8.60488e-08 -0.000255047)
(-0.000161335 9.16265e-08 -0.000281743)
(-0.000121761 1.01949e-07 -0.000314424)
(-7.37778e-05 1.17999e-07 -0.00033915)
(-2.37496e-05 -4.37217e-08 -0.000276789)
(-6.26196e-06 1.40522e-07 0.000105582)
(-5.29118e-05 -6.0738e-09 0.000312754)
(-0.000109402 4.37851e-08 0.000327844)
(-0.000160653 6.50942e-08 0.000302724)
(-0.000205426 6.17251e-08 0.000272211)
(-0.00024391 6.14519e-08 0.00023721)
(-0.000275498 7.42494e-08 0.000200193)
(-0.000299741 9.03633e-08 0.000161623)
(-0.000317472 9.75055e-08 0.000119714)
(-0.000330785 9.23544e-08 7.14548e-05)
(-0.000341175 8.21546e-08 1.48896e-05)
(-0.000347999 7.72603e-08 -4.54725e-05)
(-0.000347791 8.14061e-08 -0.000100656)
(-0.000336153 8.92178e-08 -0.000147052)
(-0.000312825 9.06235e-08 -0.000188534)
(-0.0002831 8.10235e-08 -0.000227109)
(-0.00025204 6.64865e-08 -0.000260544)
(-0.000220104 5.75481e-08 -0.000289755)
(-0.000184765 6.31883e-08 -0.000321212)
(-0.000142367 8.46864e-08 -0.000361348)
(-8.89464e-05 1.26357e-07 -0.000393546)
(-2.97376e-05 -1.82018e-08 -0.000324036)
(-7.12677e-06 1.85752e-07 0.000134004)
(-6.01993e-05 -2.13974e-08 0.000372296)
(-0.000124861 2.32366e-08 0.000385273)
(-0.000181513 6.20701e-08 0.000350754)
(-0.000230061 7.00691e-08 0.000312332)
(-0.000272919 6.95297e-08 0.000271611)
(-0.000310446 7.05864e-08 0.000229622)
(-0.000341831 7.24466e-08 0.000185824)
(-0.000366454 7.45472e-08 0.00013848)
(-0.00038437 7.48657e-08 8.49853e-05)
(-0.000395905 7.0396e-08 2.30737e-05)
(-0.00040059 6.18921e-08 -4.44296e-05)
(-0.000395971 5.5004e-08 -0.000110096)
(-0.00037965 5.55706e-08 -0.000168428)
(-0.000352922 6.35388e-08 -0.000218161)
(-0.000320378 7.17143e-08 -0.000259875)
(-0.000285294 7.15543e-08 -0.000295203)
(-0.000247724 6.29122e-08 -0.000328262)
(-0.00020602 5.99145e-08 -0.000365353)
(-0.000157515 7.695e-08 -0.000413277)
(-9.82284e-05 1.22885e-07 -0.000454439)
(-3.27019e-05 1.82745e-08 -0.000378342)
(-7.836e-06 1.73808e-07 0.000166748)
(-6.80229e-05 -4.01768e-08 0.000437961)
(-0.000140744 5.65897e-09 0.000448172)
(-0.000203068 6.08204e-08 0.000404258)
(-0.000256568 7.793e-08 0.000359649)
(-0.000305735 7.37587e-08 0.000314803)
(-0.000351466 5.93471e-08 0.000267562)
(-0.000391959 4.36073e-08 0.00021645)
(-0.00042464 3.93261e-08 0.000160963)
(-0.000447235 5.01807e-08 0.000100066)
(-0.000458934 6.63399e-08 3.10062e-05)
(-0.000459796 7.39315e-08 -4.58498e-05)
(-0.000449601 6.81865e-08 -0.000123775)
(-0.000428802 5.61377e-08 -0.00019378)
(-0.000399557 4.83841e-08 -0.000250678)
(-0.000364278 4.80611e-08 -0.000296087)
(-0.000323441 4.92668e-08 -0.000335781)
(-0.000276228 4.77194e-08 -0.000374885)
(-0.000222627 5.15297e-08 -0.000417993)
(-0.000163118 7.20576e-08 -0.000472587)
(-9.65872e-05 1.3051e-07 -0.000520699)
(-2.98187e-05 1.66318e-08 -0.000434502)
(-8.87778e-06 2.69398e-07 0.000202836)
(-7.71671e-05 -1.65422e-08 0.000513276)
(-0.000158374 1.75973e-09 0.000518859)
(-0.000227714 4.2179e-08 0.000463816)
(-0.000288615 4.54606e-08 0.000413453)
(-0.000346537 4.23974e-08 0.000365786)
(-0.000401656 4.70632e-08 0.000314083)
(-0.000450508 5.34854e-08 0.000255346)
(-0.000489232 5.43187e-08 0.000189732)
(-0.000515222 4.81173e-08 0.000117514)
(-0.000527618 4.18897e-08 3.70525e-05)
(-0.000526518 4.28183e-08 -5.13244e-05)
(-0.000512674 4.76379e-08 -0.000140879)
(-0.00048768 4.59342e-08 -0.000221409)
(-0.000453804 3.40363e-08 -0.000286975)
(-0.000412471 2.19476e-08 -0.000339919)
(-0.000362897 2.47279e-08 -0.000387316)
(-0.000303335 4.25486e-08 -0.000433695)
(-0.000234706 6.40783e-08 -0.000482545)
(-0.000160798 8.12431e-08 -0.000541935)
(-8.56802e-05 1.34448e-07 -0.000591666)
(-2.16011e-05 9.83989e-08 -0.000486627)
(-9.61124e-06 2.91217e-07 0.000243905)
(-8.62393e-05 -7.25149e-08 0.000598392)
(-0.000178446 -3.34617e-08 0.000598784)
(-0.000257706 3.85801e-08 0.000532232)
(-0.000328269 5.45455e-08 0.000476362)
(-0.000395532 4.75749e-08 0.0004258)
(-0.000458985 4.34658e-08 0.000369457)
(-0.000514929 4.4362e-08 0.000302715)
(-0.000559365 4.2663e-08 0.000225194)
(-0.000589371 3.34281e-08 0.000137729)
(-0.000603586 2.34711e-08 4.11852e-05)
(-0.00060213 2.2561e-08 -6.14756e-05)
(-0.000585922 3.08829e-08 -0.00016257)
(-0.000556355 3.78449e-08 -0.00025327)
(-0.000515133 3.49182e-08 -0.000329427)
(-0.000463539 2.64809e-08 -0.000393203)
(-0.000401629 2.49619e-08 -0.000450502)
(-0.00032903 3.51009e-08 -0.000504998)
(-0.000247377 5.30599e-08 -0.000559725)
(-0.000161234 7.49292e-08 -0.00062205)
(-7.78957e-05 1.45255e-07 -0.000667061)
(-1.374e-05 1.48621e-07 -0.000530692)
(-9.99571e-06 3.31985e-07 0.000287435)
(-9.36654e-05 -1.03551e-07 0.000692542)
(-0.00019872 -5.62883e-08 0.00069071)
(-0.000292539 2.53865e-08 0.000614264)
(-0.000377168 4.45138e-08 0.000552258)
(-0.000455453 3.82335e-08 0.000496082)
(-0.000526456 2.8456e-08 0.000431829)
(-0.000588101 2.022e-08 0.000354664)
(-0.000637544 2.07675e-08 0.000264339)
(-0.000671477 3.23589e-08 0.00016155)
(-0.000687477 4.32506e-08 4.80433e-05)
(-0.000685515 3.87718e-08 -7.13154e-05)
(-0.000666901 2.21806e-08 -0.000187672)
(-0.00063282 1.25064e-08 -0.000292312)
(-0.000583722 1.86735e-08 -0.000381302)
(-0.000520217 2.93221e-08 -0.000456929)
(-0.000444167 2.87599e-08 -0.000525165)
(-0.000358765 1.92539e-08 -0.000588909)
(-0.000267349 2.22539e-08 -0.000649229)
(-0.000173514 5.61414e-08 -0.000711856)
(-8.32083e-05 1.63929e-07 -0.000747105)
(-1.29791e-05 1.673e-07 -0.000571389)
(-9.64783e-06 4.80645e-07 0.000330457)
(-0.000102061 -7.51603e-08 0.000800157)
(-0.000223668 -7.32866e-08 0.000799189)
(-0.000337514 -1.01745e-08 0.000711934)
(-0.000441079 1.27961e-08 0.000641166)
(-0.000533695 2.72909e-08 0.00057645)
(-0.000613715 3.69871e-08 0.000501857)
(-0.000680231 3.34739e-08 0.000412249)
(-0.000732101 2.46874e-08 0.000307049)
(-0.000766734 2.06614e-08 0.000187211)
(-0.000781836 2.0729e-08 5.58485e-05)
(-0.000777824 1.86301e-08 -8.13952e-05)
(-0.000756132 1.25982e-08 -0.000216235)
(-0.000716908 7.59983e-09 -0.000338966)
(-0.000659633 1.03204e-08 -0.000443626)
(-0.000584968 2.24664e-08 -0.00053234)
(-0.000495888 3.39071e-08 -0.000611525)
(-0.000397888 2.98491e-08 -0.000683327)
(-0.000296906 2.11713e-08 -0.000747606)
(-0.000196626 4.41311e-08 -0.000809446)
(-9.90358e-05 1.8166e-07 -0.000834903)
(-1.79408e-05 1.98889e-07 -0.00061844)
(-1.0018e-05 5.51799e-07 0.000378068)
(-0.000118318 -1.19226e-07 0.000924099)
(-0.000265254 -1.06978e-07 0.000928692)
(-0.000405065 -6.06527e-09 0.000831438)
(-0.000531566 2.50906e-08 0.000749196)
(-0.000642051 1.97997e-08 0.000670563)
(-0.000733832 1.16113e-08 0.000580349)
(-0.000806205 1.40516e-08 0.00047429)
(-0.000858743 2.31185e-08 0.000350556)
(-0.000889571 2.38553e-08 0.000209993)
(-0.000898283 1.72827e-08 5.84089e-05)
(-0.000887201 1.72974e-08 -9.68315e-05)
(-0.000858282 2.24728e-08 -0.000249544)
(-0.000810738 1.84815e-08 -0.000391713)
(-0.000743268 6.02025e-09 -0.000515792)
(-0.000656772 9.08894e-10 -0.00062089)
(-0.000555405 6.02804e-09 -0.000710983)
(-0.000445738 5.30593e-09 -0.000788119)
(-0.000334284 6.19163e-09 -0.00085412)
(-0.000224306 4.30175e-08 -0.000915327)
(-0.000115973 2.15719e-07 -0.000933442)
(-2.26097e-05 2.88314e-07 -0.000675847)
(-1.47746e-05 5.63567e-07 0.000438008)
(-0.000151369 -1.30064e-07 0.00107441)
(-0.000335984 -1.22171e-07 0.00108914)
(-0.000511845 -1.87228e-08 0.000980736)
(-0.000669301 7.76379e-09 0.000881725)
(-0.000803228 7.53475e-09 0.000781447)
(-0.000909618 1.24856e-08 0.000667557)
(-0.000988127 1.92233e-08 0.000538479)
(-0.00103916 2.07618e-08 0.000391145)
(-0.00106173 1.63635e-08 0.000225336)
(-0.001057 8.23462e-09 5.0125e-05)
(-0.00102974 -3.55113e-09 -0.000124765)
(-0.000983993 -1.14271e-08 -0.000295395)
(-0.000919704 -3.65808e-09 -0.000456464)
(-0.000835463 1.12883e-08 -0.000600101)
(-0.00073272 1.13526e-08 -0.000722384)
(-0.000617141 -4.6841e-09 -0.00082373)
(-0.000495687 -1.15075e-08 -0.000905176)
(-0.000372781 1.37132e-08 -0.000971097)
(-0.000249803 6.98679e-08 -0.00103126)
(-0.000127862 2.31448e-07 -0.00104382)
(-2.40353e-05 3.59223e-07 -0.000741675)
(-2.53487e-05 5.68011e-07 0.000528015)
(-0.000210947 -9.4553e-08 0.00127228)
(-0.000454853 -1.41687e-07 0.00129668)
(-0.000684974 -3.07641e-08 0.00117022)
(-0.000888417 7.64883e-11 0.00104603)
(-0.00105736 8.57744e-09 0.000915396)
(-0.00118518 1.76733e-08 0.000767941)
(-0.00127038 1.16631e-08 0.000604607)
(-0.00131415 -2.08198e-09 0.00042273)
(-0.00131803 -4.24385e-09 0.000223786)
(-0.00128682 3.0173e-09 2.04149e-05)
(-0.00122846 5.28503e-09 -0.000176834)
(-0.00114921 3.66152e-09 -0.000365919)
(-0.00105215 6.10961e-09 -0.00054397)
(-0.000938855 6.71735e-09 -0.000704253)
(-0.000811969 -6.1896e-09 -0.000841035)
(-0.00067682 -2.64008e-08 -0.000951592)
(-0.000539183 -3.15439e-08 -0.00103584)
(-0.000402057 -7.81199e-10 -0.00110024)
(-0.000265947 6.7373e-08 -0.00115856)
(-0.000132147 2.77896e-07 -0.00116532)
(-2.05831e-05 4.19348e-07 -0.000811336)
(-4.37794e-05 4.81896e-07 0.00067997)
(-0.000307716 -4.60494e-08 0.00154337)
(-0.000644701 -1.60358e-07 0.00157625)
(-0.00096155 -2.9235e-08 0.00142423)
(-0.0012408 -3.18802e-10 0.00126264)
(-0.00146921 -9.41505e-09 0.00108506)
(-0.00163412 -9.5384e-09 0.000884702)
(-0.00172909 1.81334e-09 0.000667388)
(-0.00175474 1.27574e-08 0.000434043)
(-0.00171937 4.78624e-09 0.000189827)
(-0.00163699 -1.35978e-08 -4.93092e-05)
(-0.00152097 -1.53696e-08 -0.000272235)
(-0.00138172 -3.7902e-09 -0.000479254)
(-0.00122815 -4.52229e-09 -0.000671133)
(-0.00106632 -1.61945e-08 -0.000843138)
(-0.000900124 -1.82566e-08 -0.000987999)
(-0.000733574 -1.20756e-08 -0.00110123)
(-0.000570696 -1.38346e-08 -0.00118391)
(-0.000414355 -5.26769e-09 -0.00124454)
(-0.000265734 5.43816e-08 -0.00129849)
(-0.000124845 3.27695e-07 -0.00129448)
(-1.15278e-05 5.22993e-07 -0.000877095)
(-7.15099e-05 7.16727e-08 0.000918462)
(-0.000443207 9.76146e-09 0.00192418)
(-0.000917081 -1.9688e-07 0.00196744)
(-0.00137182 -5.66593e-08 0.00178299)
(-0.00177853 -2.78893e-09 0.00156959)
(-0.0021115 3.21464e-09 0.00132074)
(-0.00234562 -1.55283e-09 0.00103403)
(-0.002464 -4.85666e-09 0.000726025)
(-0.00246572 -6.5356e-09 0.000408675)
(-0.00236796 -1.07215e-08 9.55423e-05)
(-0.00219712 -1.11381e-08 -0.00019298)
(-0.00197912 -6.72789e-09 -0.00044636)
(-0.00173674 -2.63091e-09 -0.00066898)
(-0.00148792 -2.65025e-09 -0.000866882)
(-0.00124384 -1.41051e-08 -0.00103961)
(-0.0010108 -3.20307e-08 -0.00118081)
(-0.000792532 -3.5178e-08 -0.00128583)
(-0.000591223 -2.56999e-08 -0.00135722)
(-0.000408908 -1.12596e-08 -0.0014056)
(-0.000246615 4.77662e-08 -0.00144836)
(-0.000102182 3.61665e-07 -0.00142688)
(5.23526e-06 5.74993e-07 -0.000931863)
(-0.00010243 -3.05405e-07 0.00125628)
(-0.000598738 1.4811e-08 0.00244733)
(-0.00124701 -2.28104e-07 0.00252002)
(-0.00189282 -5.12234e-08 0.00230573)
(-0.00249183 -1.03533e-09 0.00202775)
(-0.00300005 -9.40728e-09 0.00167664)
(-0.0033691 -1.00278e-08 0.00125482)
(-0.0035608 -1.20642e-08 0.000795956)
(-0.00356339 -1.90842e-08 0.000336022)
(-0.00339621 -1.47736e-08 -9.06154e-05)
(-0.00309954 -6.75235e-09 -0.000455931)
(-0.00272184 -1.57775e-08 -0.00075215)
(-0.00230992 -3.1361e-08 -0.0009888)
(-0.00190071 -3.63118e-08 -0.0011793)
(-0.00151739 -3.56005e-08 -0.00133295)
(-0.00117172 -3.25685e-08 -0.00145004)
(-0.000867615 -2.65105e-08 -0.00152752)
(-0.000605944 -2.85294e-08 -0.00156927)
(-0.000386876 -1.99651e-08 -0.00158938)
(-0.000207049 5.70536e-08 -0.0016075)
(-6.05045e-05 3.99889e-07 -0.00155638)
(3.24101e-05 6.02352e-07 -0.000965519)
(-0.000126373 -4.46728e-07 0.00169375)
(-0.000731521 4.38556e-08 0.00312475)
(-0.00155035 -2.58279e-07 0.00326805)
(-0.00240705 -7.22687e-08 0.00304556)
(-0.00324557 -1.3135e-08 0.00270613)
(-0.00400458 -2.08387e-09 0.00223438)
(-0.00460869 -2.10453e-09 0.00163168)
(-0.00498552 -2.02722e-08 0.000948278)
(-0.00508705 -3.35359e-08 0.000255853)
(-0.00490834 -3.62215e-08 -0.000372026)
(-0.00449078 -3.47594e-08 -0.000882451)
(-0.0039077 -2.57176e-08 -0.0012601)
(-0.00324403 -2.66488e-08 -0.00151927)
(-0.00257758 -4.78486e-08 -0.00168726)
(-0.00196334 -5.32709e-08 -0.0017909)
(-0.00142906 -3.48149e-08 -0.00184622)
(-0.00098312 -3.6283e-08 -0.00186089)
(-0.000624997 -5.76006e-08 -0.00184262)
(-0.000348418 -3.09622e-08 -0.00180675)
(-0.000141898 8.33218e-08 -0.00177597)
(4.45497e-06 4.78865e-07 -0.00167618)
(7.15718e-05 5.40392e-07 -0.000966963)
(-0.000134203 -1.18438e-07 0.00218989)
(-0.00078534 6.56179e-09 0.00392022)
(-0.00170882 -2.9306e-07 0.00418716)
(-0.00272905 -7.87357e-08 0.00400389)
(-0.00379178 -7.68238e-09 0.00364412)
(-0.00483215 -7.33009e-09 0.00307657)
(-0.00575901 -2.28936e-08 0.00228559)
(-0.00646469 -3.79246e-08 0.00132558)
(-0.00684516 -4.2288e-08 0.000300896)
(-0.00683109 -4.66649e-08 -0.000662416)
(-0.0064164 -4.83201e-08 -0.00145499)
(-0.0056669 -5.08839e-08 -0.002019)
(-0.00470613 -6.13768e-08 -0.00235447)
(-0.00367775 -6.2913e-08 -0.00250171)
(-0.00270418 -5.36277e-08 -0.00251738)
(-0.00186305 -4.64191e-08 -0.00245363)
(-0.00118405 -4.20939e-08 -0.002346)
(-0.000666198 -4.45162e-08 -0.00221386)
(-0.000294333 -2.14072e-08 -0.00207603)
(-4.63612e-05 8.99312e-08 -0.00195872)
(9.76158e-05 5.60756e-07 -0.00177857)
(0.000125142 3.80615e-07 -0.000918479)
(-0.000117907 3.14754e-07 0.00264588)
(-0.00070942 -1.98535e-07 0.00473929)
(-0.0016246 -3.39246e-07 0.00518989)
(-0.0027052 -9.31642e-08 0.00511433)
(-0.00390748 -2.33142e-08 0.00480915)
(-0.00517705 -3.62403e-08 0.00421948)
(-0.00642573 -3.9837e-08 0.00330091)
(-0.00753452 -4.24827e-08 0.00208815)
(-0.00836176 -5.87811e-08 0.000687911)
(-0.00876321 -6.34695e-08 -0.000736564)
(-0.00863038 -5.32206e-08 -0.00200253)
(-0.0079391 -5.97366e-08 -0.00296023)
(-0.00678628 -6.59886e-08 -0.00353407)
(-0.00536707 -5.61119e-08 -0.00373572)
(-0.00391053 -5.58586e-08 -0.00365417)
(-0.00260377 -6.8076e-08 -0.00340506)
(-0.00154786 -7.29237e-08 -0.00308366)
(-0.000765407 -6.04088e-08 -0.00274714)
(-0.000234423 -1.01902e-08 -0.00243057)
(8.33828e-05 1.14676e-07 -0.00216524)
(0.000226354 6.53382e-07 -0.00185484)
(0.000197299 3.2113e-07 -0.000798558)
(-5.73422e-05 3.78599e-08 0.00292613)
(-0.000474024 -4.41027e-07 0.00545673)
(-0.00126274 -3.99068e-07 0.00615603)
(-0.00228358 -1.13222e-07 0.00626352)
(-0.00350429 -3.35599e-08 0.00610081)
(-0.00488333 -4.7675e-08 0.00558776)
(-0.00634897 -5.32988e-08 0.00464968)
(-0.00779996 -5.16804e-08 0.00328909)
(-0.00909822 -4.60541e-08 0.0015833)
(-0.0100688 -4.85431e-08 -0.000314398)
(-0.0105192 -7.02952e-08 -0.00219278)
(-0.0102761 -8.18603e-08 -0.0037967)
(-0.00928697 -7.98116e-08 -0.00490865)
(-0.00767807 -7.8117e-08 -0.00540529)
(-0.00574131 -6.37577e-08 -0.00533442)
(-0.00382617 -6.07029e-08 -0.00487308)
(-0.0022019 -6.85141e-08 -0.00422772)
(-0.00099005 -5.26343e-08 -0.00354988)
(-0.000192597 -5.20394e-09 -0.00292949)
(0.000247168 1.18897e-07 -0.00241687)
(0.000399466 7.62214e-07 -0.00189776)
(0.00029456 2.40373e-07 -0.0005811)
(6.11956e-05 3.1876e-06 0.00300827)
(-9.1972e-05 -6.24851e-07 0.00596086)
(-0.000646527 -4.6066e-07 0.00697088)
(-0.00149279 -1.45258e-07 0.00732934)
(-0.00260522 -6.28046e-08 0.00738666)
(-0.00394966 -5.81879e-08 0.00704242)
(-0.00547194 -6.14482e-08 0.00619847)
(-0.00710023 -6.62498e-08 0.00483038)
(-0.00873269 -5.76941e-08 0.00297513)
(-0.0102216 -5.72945e-08 0.000734771)
(-0.0113556 -6.48369e-08 -0.00170881)
(-0.0118841 -6.63672e-08 -0.00408267)
(-0.0115577 -6.50458e-08 -0.00604811)
(-0.010265 -6.19675e-08 -0.00725245)
(-0.00816281 -8.03531e-08 -0.00753977)
(-0.00567494 -9.50247e-08 -0.00701285)
(-0.00331492 -8.44786e-08 -0.00598421)
(-0.0014536 -8.54622e-08 -0.00479241)
(-0.000221561 -4.14007e-08 -0.00367636)
(0.000431156 1.41047e-07 -0.00275328)
(0.00061872 8.81328e-07 -0.00190298)
(0.000419773 3.89078e-08 -0.000235264)
(0.000185724 7.33532e-06 0.00278329)
(0.000393193 -1.01679e-06 0.00615486)
(0.000186393 -5.3299e-07 0.00752731)
(-0.000373135 -1.70645e-07 0.00819447)
(-0.00125216 -7.34646e-08 0.00853239)
(-0.0024181 -7.50165e-08 0.00842745)
(-0.00382899 -7.68756e-08 0.00776933)
(-0.0054388 -6.31153e-08 0.00652094)
(-0.00718918 -5.28734e-08 0.00468932)
(-0.00898838 -5.04535e-08 0.00232055)
(-0.0106798 -5.2427e-08 -0.0004789)
(-0.0120186 -7.08183e-08 -0.00350523)
(-0.0126661 -8.09823e-08 -0.00639896)
(-0.0122878 -7.82137e-08 -0.00869623)
(-0.0106842 -1.06017e-07 -0.00989711)
(-0.00805464 -1.17925e-07 -0.00977642)
(-0.00501503 -1.16321e-07 -0.00853203)
(-0.0023108 -1.24495e-07 -0.00670124)
(-0.00041349 -8.43531e-08 -0.00483239)
(0.000599359 1.20951e-07 -0.00324881)
(0.000875353 9.9957e-07 -0.00187802)
(0.000572411 -2.31583e-07 0.000269805)
(0.000340421 9.82761e-06 0.00201906)
(0.00099295 -1.57029e-06 0.00592844)
(0.00123574 -6.1224e-07 0.00771686)