/*--------------------------------*- C++ -*----------------------------------*\
  =========                 |
  \\      /  F ield         | OpenFOAM: The Open Source CFD Toolbox
   \\    /   O peration     | Website:  https://openfoam.org
    \\  /    A nd           | Version:  7
     \\/     M anipulation  |
\*---------------------------------------------------------------------------*/
FoamFile
{
    version     2.0;
    format      ascii;
    class       volScalarField;
    location    "76";
    object      ddt0(h);
}
// * * * * * * * * * * * * * * * * * * * * * * * * * * * * * * * * * * * * * //

dimensions      [0 1 -1 0 0 0 0];

internalField   nonuniform List<scalar> 
400
(
-1.51243e-09
-2.48212e-10
1.57528e-09
-1.23277e-09
1.24974e-09
7.26898e-09
-1.05206e-08
1.87906e-08
-3.62699e-11
-3.41695e-10
-5.30713e-10
5.45486e-11
1.13132e-10
-2.51205e-10
-4.66956e-10
-3.07452e-10
1.62529e-11
1.60512e-10
2.62873e-11
-5.42869e-11
-2.45918e-11
-3.76712e-10
-6.64837e-10
2.92593e-10
-7.93993e-10
-1.06418e-08
1.22904e-08
-2.9087e-08
1.67322e-09
-4.78427e-10
-2.52346e-10
-1.95207e-10
-2.93229e-10
-3.64933e-10
-3.7229e-10
-2.20538e-10
-1.41901e-11
-2.86186e-11
-2.23398e-10
-1.58803e-10
9.55438e-10
-2.79559e-10
-1.99078e-09
2.48052e-10
-2.63029e-09
4.4683e-09
-6.79475e-09
1.03353e-08
-1.04957e-09
-5.18469e-10
1.38674e-10
-4.3056e-10
-6.25089e-10
-3.92546e-10
-2.02079e-10
-6.80688e-11
-4.03042e-11
-2.87628e-10
-5.28459e-10
-2.83242e-10
3.45637e-10
-7.2514e-11
-1.07462e-09
-4.66971e-10
-8.51102e-10
-6.14005e-10
1.84275e-09
8.24615e-10
-1.62642e-09
-3.16206e-10
-2.11845e-10
-7.43363e-10
-6.24304e-10
-2.04108e-10
2.16538e-11
-1.11634e-11
-1.86734e-10
-3.99353e-10
-4.95959e-10
-2.49195e-10
-3.25091e-10
-2.09129e-10
-6.56789e-11
-1.07049e-09
1.05026e-09
-2.48466e-09
1.57255e-09
-1.20289e-09
-1.5666e-09
2.14728e-10
-6.50026e-10
-7.76722e-10
-2.88488e-10
4.52349e-11
2.05593e-10
-2.40737e-11
-3.77468e-10
-3.12344e-10
-2.52437e-11
3.95787e-11
-5.16258e-10
-4.66219e-10
4.35653e-10
-6.52194e-10
7.98778e-10
-8.58919e-10
5.38806e-10
-2.0194e-09
2.16944e-10
1.05522e-10
-9.47542e-10
-2.12091e-10
1.45685e-10
1.42834e-11
7.44658e-11
-9.59092e-11
-4.08697e-10
-5.52183e-11
6.59184e-10
4.78845e-10
-4.07475e-10
-4.31509e-10
1.23947e-10
6.65922e-10
-3.82615e-10
5.13069e-10
-4.90742e-10
-5.13048e-10
4.82871e-10
-8.11743e-10
-1.79202e-10
5.50605e-10
1.20437e-10
-2.80876e-10
-2.9358e-10
-2.90863e-10
-2.95111e-10
2.27215e-10
9.88222e-10
6.51723e-10
-1.91272e-10
2.08196e-10
-5.59005e-10
7.26685e-10
-5.10264e-10
5.6435e-10
-8.30987e-10
4.21981e-10
-2.27847e-10
-4.47856e-10
9.314e-10
2.56219e-10
-5.03393e-10
-3.31474e-10
-3.99463e-10
-5.07093e-10
-2.01715e-10
3.08288e-10
6.34021e-10
3.5372e-10
1.72538e-11
3.9389e-10
-1.91024e-10
-1.75371e-10
-3.28508e-10
-3.82594e-11
-3.85155e-10
3.09861e-10
-3.452e-10
1.30458e-10
4.49365e-10
-3.69804e-10
-3.74928e-10
4.18423e-11
-1.74831e-10
-3.77122e-10
-1.26823e-10
-4.69125e-11
-2.5812e-10
-1.91251e-10
2.93058e-10
-1.73337e-11
3.0589e-10
-4.9756e-10
-7.1854e-11
-4.95241e-10
2.06396e-10
-2.48235e-10
2.6601e-11
1.29968e-10
-5.57489e-10
-1.15516e-11
2.99463e-10
-1.27659e-10
-6.29139e-11
3.62205e-10
3.15298e-10
-4.78883e-10
-1.19881e-09
-6.91405e-10
2.60687e-10
-2.44594e-10
4.33635e-10
-4.63731e-10
1.8795e-10
-4.49159e-10
5.15302e-10
-2.93391e-10
2.22672e-10
1.87883e-10
-8.28641e-10
9.19869e-11
5.21187e-10
-1.01445e-10
6.27578e-11
6.66112e-10
5.6692e-10
-3.94826e-10
-1.22362e-09
-7.17331e-10
-6.16548e-11
2.52166e-12
1.06264e-10
-2.30509e-10
2.67286e-10
4.25912e-11
2.65563e-10
3.25336e-10
-3.76946e-11
4.2051e-10
-8.32353e-11
-4.6369e-10
4.60307e-11
3.9078e-10
2.14315e-10
1.30772e-10
3.23498e-10
1.99801e-10
-2.23314e-10
-2.1584e-10
-2.41922e-10
2.50556e-10
-4.52694e-10
6.84961e-10
-6.96831e-12
7.06053e-10
-4.68576e-10
8.29192e-10
-1.861e-10
6.13168e-11
9.30084e-10
-1.9559e-10
-4.85418e-10
1.7111e-10
8.01203e-11
-1.69671e-10
1.86163e-10
6.59898e-10
7.25474e-10
3.18869e-10
-2.0203e-10
-7.97654e-13
1.66204e-11
1.24125e-09
-5.67397e-10
9.07538e-10
-8.24542e-10
3.59391e-10
5.11361e-10
-6.38903e-10
5.2417e-10
6.04558e-10
-4.13416e-11
-1.17991e-10
-1.05481e-10
-1.52661e-10
-2.52574e-11
5.07018e-10
1.06553e-09
6.28415e-10
-1.359e-10
8.21701e-11
8.27584e-10
8.25862e-11
1.77114e-10
1.74738e-10
2.15515e-10
-1.21129e-09
1.33328e-09
1.86392e-10
-2.30553e-10
5.6124e-10
4.2359e-10
2.13482e-11
2.38342e-11
-6.64827e-11
-2.99658e-10
4.26964e-11
7.36153e-10
5.20705e-10
9.27545e-11
3.24397e-10
6.88092e-10
-9.07691e-10
1.38258e-09
-1.72221e-09
2.01843e-09
-1.72966e-09
-2.88672e-10
1.10548e-09
5.48696e-11
3.37611e-10
4.90059e-10
2.43028e-10
2.16305e-10
2.84012e-11
-3.33026e-10
-2.67808e-10
8.61035e-11
1.20042e-10
8.00301e-10
3.83243e-10
-3.77641e-10
-5.7973e-10
1.09969e-09
-1.20978e-09
3.87389e-09
1.78977e-09
-1.10604e-09
4.00115e-10
4.66805e-10
3.21183e-10
4.26609e-10
4.00546e-10
3.52916e-10
2.09585e-10
-6.62498e-11
-3.07204e-10
-3.94491e-10
-1.98466e-10
1.50398e-09
1.71226e-10
-1.76672e-09
3.16428e-10
4.3919e-10
2.56447e-09
1.10649e-09
9.10044e-10
-1.46709e-09
-1.56135e-10
3.55301e-10
3.42449e-10
4.81622e-10
5.28876e-10
4.28474e-10
3.39193e-10
2.12015e-10
-1.19914e-10
-4.1692e-10
-2.39127e-10
4.9569e-10
4.15403e-10
-2.75262e-10
1.31402e-09
1.67058e-10
-8.10542e-10
-7.06365e-09
5.25942e-08
-9.20822e-10
-3.15813e-10
4.19899e-10
4.42406e-10
3.6989e-10
3.36572e-10
2.48953e-10
2.57182e-10
3.20158e-10
1.82527e-10
-1.0037e-10
-1.13117e-10
-1.14512e-09
1.16298e-10
2.90702e-09
7.06746e-10
-6.74171e-10
2.11694e-09
2.93561e-09
-5.11826e-08
4.39388e-09
1.085e-09
2.02536e-10
-1.63401e-10
-2.01537e-10
-2.22046e-11
1.46761e-10
2.95648e-10
4.32712e-10
4.08695e-10
1.6628e-10
-2.75971e-13
)
;

boundaryField
{
    sides
    {
        type            calculated;
        value           nonuniform List<scalar> 
40
(
-1.14512e-09
1.16298e-10
2.90702e-09
7.06746e-10
-6.74171e-10
2.11694e-09
2.93561e-09
-5.11826e-08
4.39388e-09
1.085e-09
2.02536e-10
-1.63401e-10
-2.01537e-10
-2.22046e-11
1.46761e-10
2.95648e-10
4.32712e-10
4.08695e-10
1.6628e-10
-2.75971e-13
-1.51243e-09
-2.48212e-10
1.57528e-09
-1.23277e-09
1.24974e-09
7.26898e-09
-1.05206e-08
1.87906e-08
-3.62699e-11
-3.41695e-10
-5.30713e-10
5.45486e-11
1.13132e-10
-2.51205e-10
-4.66956e-10
-3.07452e-10
1.62529e-11
1.60512e-10
2.62873e-11
-5.42869e-11
)
;
    }
    inlet
    {
        type            calculated;
        value           nonuniform List<scalar> 
20
(
-1.51243e-09
-2.45918e-11
9.55438e-10
3.45637e-10
-3.25091e-10
-5.16258e-10
-4.07475e-10
-1.91272e-10
1.72538e-11
2.93058e-10
2.60687e-10
-6.16548e-11
-2.41922e-10
-2.0203e-10
-1.359e-10
9.27545e-11
8.00301e-10
1.50398e-09
4.9569e-10
-1.14512e-09
)
;
    }
    outlet
    {
        type            calculated;
        value           uniform 0;
    }
    frontAndBack
    {
        type            empty;
    }
}


// ************************************************************************* //
