/*--------------------------------*- C++ -*----------------------------------*\
  =========                 |
  \\      /  F ield         | OpenFOAM: The Open Source CFD Toolbox
   \\    /   O peration     | Website:  https://openfoam.org
    \\  /    A nd           | Version:  7
     \\/     M anipulation  |
\*---------------------------------------------------------------------------*/
FoamFile
{
    version     2.0;
    format      ascii;
    class       volVectorField;
    location    "76";
    object      ddtCorrDdt0(hU);
}
// * * * * * * * * * * * * * * * * * * * * * * * * * * * * * * * * * * * * * //

dimensions      [0 2 -2 0 0 0 0];

internalField   nonuniform List<vector> 
400
(
(-7.18244e-11 1.11325e-11 0)
(6.93464e-11 -5.41521e-11 0)
(9.07097e-11 9.84133e-11 0)
(1.35442e-10 1.89939e-10 0)
(1.4385e-10 1.13694e-11 0)
(1.34376e-09 1.06061e-10 0)
(-1.97481e-10 -6.64706e-10 0)
(8.55475e-10 -1.3546e-09 0)
(-6.8827e-10 4.64863e-10 0)
(2.14569e-10 1.26571e-10 0)
(-3.97058e-11 7.72352e-11 0)
(1.51037e-10 4.61626e-11 0)
(1.68143e-10 -2.70685e-11 0)
(4.32669e-11 -4.37127e-11 0)
(-1.14826e-11 -5.68884e-12 0)
(5.85802e-11 5.32073e-11 0)
(8.7497e-11 7.63651e-11 0)
(6.01366e-11 5.91193e-11 0)
(-5.03316e-11 5.80212e-11 0)
(-1.17702e-10 4.43672e-12 0)
(-3.16075e-12 -9.66663e-12 0)
(6.54973e-11 -8.07944e-11 0)
(8.57834e-11 7.21035e-11 0)
(1.70555e-10 2.1836e-10 0)
(-1.94568e-10 -2.28821e-10 0)
(-1.102e-09 4.07878e-10 0)
(6.56149e-10 -1.25214e-09 0)
(-2.82399e-09 -6.78627e-10 0)
(1.07181e-09 6.12922e-10 0)
(-1.57455e-10 8.80701e-11 0)
(-7.37469e-11 1.52165e-10 0)
(2.08328e-11 1.32699e-10 0)
(5.44492e-12 -2.31489e-12 0)
(4.07956e-12 -6.13492e-11 0)
(3.53777e-11 -2.01526e-11 0)
(8.98578e-11 3.68916e-11 0)
(6.4712e-11 5.41744e-11 0)
(6.44407e-12 1.83059e-11 0)
(-7.0067e-11 1.3244e-11 0)
(-9.3904e-11 1.23911e-11 0)
(9.08241e-11 3.55565e-11 0)
(6.35568e-11 4.79022e-11 0)
(4.51605e-11 -2.96129e-11 0)
(-1.40558e-11 1.02543e-10 0)
(-1.01031e-10 -8.45728e-11 0)
(6.7926e-11 5.22666e-10 0)
(-9.78829e-10 -9.30692e-11 0)
(1.87489e-09 1.15956e-09 0)
(2.0634e-11 7.5416e-11 0)
(-2.66681e-10 -7.94425e-11 0)
(1.01111e-10 -1.20419e-11 0)
(-3.19653e-11 -6.85666e-11 0)
(-9.24358e-11 -1.32858e-10 0)
(1.12829e-11 -1.0052e-10 0)
(1.075e-10 -1.40817e-11 0)
(1.37447e-10 7.60504e-11 0)
(4.04477e-11 1.21943e-10 0)
(-5.57506e-11 1.17033e-10 0)
(-1.38986e-10 1.48837e-10 0)
(-1.19641e-10 4.63942e-11 0)
(3.17634e-11 9.02103e-11 0)
(-2.12962e-11 6.53861e-11 0)
(4.3883e-11 -7.79997e-11 0)
(-3.01176e-11 -7.31583e-11 0)
(1.4469e-10 1.31733e-10 0)
(-1.19833e-10 -1.2813e-11 0)
(2.12867e-10 7.51603e-10 0)
(4.69325e-10 4.72675e-10 0)
(-4.49133e-10 -2.00658e-10 0)
(-1.40012e-10 1.36571e-12 0)
(1.15146e-11 -6.27016e-11 0)
(-1.35016e-10 -1.99408e-10 0)
(-9.28022e-11 -1.83841e-10 0)
(6.7786e-11 -8.89822e-11 0)
(1.54132e-10 -1.58478e-11 0)
(1.30713e-10 5.10757e-11 0)
(1.76376e-11 1.0694e-10 0)
(-6.58427e-11 1.38042e-10 0)
(-1.07009e-10 2.31321e-10 0)
(-8.26454e-11 9.72677e-11 0)
(-5.56022e-11 1.53479e-12 0)
(-1.11983e-10 -1.0041e-11 0)
(9.52709e-12 1.05973e-11 0)
(-5.46805e-11 -1.00861e-10 0)
(2.23489e-10 2.2145e-10 0)
(-7.88466e-11 -1.75996e-10 0)
(3.97442e-10 4.59177e-10 0)
(-1.42898e-10 -1.14125e-10 0)
(-3.8359e-10 -1.68447e-10 0)
(1.00696e-10 4.07135e-11 0)
(-8.27761e-11 -1.43863e-10 0)
(-1.5448e-10 -2.31144e-10 0)
(8.74948e-12 -1.41445e-10 0)
(1.15166e-10 -5.40051e-11 0)
(1.35792e-10 -4.02091e-11 0)
(7.69898e-11 -8.77744e-12 0)
(-2.34361e-11 6.55138e-11 0)
(-3.93844e-11 1.28063e-10 0)
(-3.41237e-11 2.58575e-10 0)
(-4.44872e-11 1.23151e-10 0)
(-5.93372e-11 -7.84216e-11 0)
(-5.37966e-11 -2.4855e-11 0)
(3.75598e-11 1.3873e-10 0)
(5.73032e-11 1.00515e-10 0)
(1.44917e-10 3.13231e-10 0)
(7.01569e-13 1.6046e-10 0)
(1.69478e-10 2.40431e-10 0)
(-4.01616e-10 -1.6453e-10 0)
(4.84113e-12 7.79401e-11 0)
(6.48545e-11 -3.05675e-11 0)
(-2.38927e-10 -2.50259e-10 0)
(-2.70767e-11 -1.80138e-10 0)
(1.49684e-10 -1.04942e-10 0)
(1.17568e-10 -5.82183e-11 0)
(8.50988e-11 -5.92129e-11 0)
(6.43005e-11 -1.54297e-11 0)
(1.42187e-11 9.47422e-11 0)
(4.12907e-11 1.87003e-10 0)
(5.03396e-11 3.38383e-10 0)
(-2.58188e-11 1.34167e-10 0)
(-4.10718e-11 -7.25916e-11 0)
(2.04224e-11 -2.30618e-11 0)
(2.75641e-11 4.09337e-11 0)
(1.25498e-10 1.86947e-10 0)
(1.68406e-12 1.32265e-10 0)
(6.86076e-11 2.97458e-10 0)
(-9.11544e-11 1.18292e-10 0)
(-1.17566e-10 6.63236e-11 0)
(1.61444e-10 2.05524e-10 0)
(-1.38311e-10 -1.10021e-10 0)
(-5.77786e-11 -1.03974e-10 0)
(1.75312e-10 3.4213e-12 0)
(1.07781e-10 -8.76221e-11 0)
(-2.49926e-11 -9.17047e-11 0)
(-8.49848e-11 -4.23669e-11 0)
(-5.34953e-11 1.46717e-11 0)
(3.11584e-11 1.09264e-10 0)
(1.20222e-10 1.78078e-10 0)
(1.56113e-10 3.32026e-10 0)
(6.02409e-11 1.44888e-10 0)
(-9.18552e-12 -2.75886e-11 0)
(6.35775e-11 2.37731e-11 0)
(2.54414e-11 -2.09002e-11 0)
(1.27491e-10 1.78873e-10 0)
(-3.61435e-11 1.34924e-10 0)
(4.72416e-11 3.1812e-10 0)
(-1.90936e-10 1.90242e-10 0)
(4.86262e-11 3.05858e-10 0)
(-2.03507e-11 1.5109e-10 0)
(-1.11356e-10 -2.71465e-11 0)
(2.12778e-10 1.87676e-11 0)
(1.07012e-10 -6.77667e-11 0)
(-5.86947e-11 -2.0505e-10 0)
(-9.19598e-12 -1.41274e-10 0)
(-5.65324e-11 3.69642e-12 0)
(-8.6292e-11 1.61732e-10 0)
(2.51818e-11 2.64203e-10 0)
(1.36402e-10 2.59333e-10 0)
(1.00022e-10 3.77769e-10 0)
(-9.14932e-12 1.45846e-10 0)
(2.82667e-11 3.17953e-11 0)
(4.01976e-11 -9.51855e-12 0)
(1.42767e-11 1.90621e-11 0)
(2.41794e-11 3.92222e-11 0)
(-2.68203e-11 1.51422e-10 0)
(-2.04423e-11 1.94085e-10 0)
(-8.40465e-11 2.4829e-10 0)
(6.25504e-11 3.33277e-10 0)
(-5.49718e-11 1.19904e-10 0)
(3.66308e-11 1.32496e-10 0)
(1.29498e-10 -1.79924e-11 0)
(-6.99664e-11 -2.16622e-10 0)
(-6.81526e-11 -1.97371e-10 0)
(6.79571e-11 -1.27056e-10 0)
(1.14867e-11 -4.59763e-11 0)
(-8.25519e-11 1.84376e-10 0)
(-4.16335e-11 3.63878e-10 0)
(2.68922e-11 3.23051e-10 0)
(-1.19328e-12 3.93518e-10 0)
(-4.7755e-11 1.53602e-10 0)
(4.38797e-12 2.44933e-11 0)
(-3.85334e-11 -6.14738e-11 0)
(1.8981e-11 4.59104e-11 0)
(-5.52491e-11 3.64975e-11 0)
(-8.66349e-12 1.80723e-10 0)
(-6.08681e-11 1.89612e-10 0)
(7.14136e-11 2.78897e-10 0)
(-3.54443e-12 2.81105e-10 0)
(1.1899e-11 1.13633e-10 0)
(4.14931e-11 9.44478e-11 0)
(-1.20977e-10 -1.19648e-10 0)
(-3.11071e-11 -2.53806e-10 0)
(5.85938e-11 -1.7643e-10 0)
(2.51046e-12 -1.30037e-10 0)
(5.43615e-11 -9.33947e-11 0)
(1.17197e-10 1.33648e-10 0)
(2.40162e-11 3.50356e-10 0)
(-9.77125e-11 3.48202e-10 0)
(-1.6699e-10 4.19758e-10 0)
(-1.23749e-10 1.56608e-10 0)
(-8.39566e-12 -7.39391e-11 0)
(-5.24468e-11 -2.20303e-11 0)
(2.77046e-11 1.4832e-11 0)
(-7.05906e-11 1.50857e-10 0)
(5.27346e-12 2.02108e-10 0)
(-6.56591e-11 3.00885e-10 0)
(1.19748e-10 2.79008e-10 0)
(-1.98481e-11 2.38252e-10 0)
(3.07005e-11 1.50658e-10 0)
(4.64155e-11 -2.13027e-11 0)
(-1.81293e-10 -7.71648e-11 0)
(-9.18992e-12 -1.24003e-10 0)
(9.22734e-11 -2.12715e-10 0)
(-2.79255e-11 -1.58218e-10 0)
(5.81645e-11 -5.72896e-11 0)
(1.66024e-10 5.70949e-11 0)
(4.69509e-11 1.86551e-10 0)
(-1.27365e-10 2.63097e-10 0)
(-1.85976e-10 4.27652e-10 0)
(-1.08393e-10 1.76906e-10 0)
(2.7738e-11 -8.97358e-11 0)
(2.72872e-11 -1.63198e-11 0)
(1.41115e-11 7.77924e-12 0)
(-3.64584e-11 1.88714e-10 0)
(-2.4099e-12 1.97358e-10 0)
(-2.72756e-11 3.32413e-10 0)
(3.32232e-11 2.75549e-10 0)
(6.79957e-11 1.62815e-10 0)
(-3.40357e-11 1.88021e-10 0)
(7.23767e-11 -8.34133e-11 0)
(-5.28879e-12 -8.07825e-11 0)
(-1.37627e-10 -1.22116e-11 0)
(-6.03104e-11 -1.51771e-10 0)
(4.6871e-11 -1.33738e-10 0)
(6.04154e-11 -5.44274e-11 0)
(3.53831e-11 -2.32862e-11 0)
(3.26549e-11 7.03176e-11 0)
(2.37943e-11 1.99616e-10 0)
(-2.79811e-11 4.09258e-10 0)
(-5.98496e-11 1.81142e-10 0)
(1.11966e-11 2.3234e-12 0)
(7.22327e-11 -3.93546e-11 0)
(-1.02446e-11 4.80407e-11 0)
(4.5632e-11 3.65859e-11 0)
(-4.71158e-11 2.00494e-10 0)
(3.49489e-11 2.2396e-10 0)
(-1.3084e-10 3.31984e-10 0)
(1.41217e-10 9.85368e-11 0)
(-3.61659e-11 1.5363e-10 0)
(-1.5786e-11 -1.16097e-11 0)
(2.34685e-10 -2.01394e-10 0)
(-3.2573e-11 -1.30591e-10 0)
(-1.90045e-10 -7.56098e-11 0)
(-6.26809e-11 -4.63132e-11 0)
(-5.9923e-11 -4.78997e-11 0)
(-9.07479e-11 4.41929e-12 0)
(3.69449e-11 1.30005e-10 0)
(1.34626e-10 2.20635e-10 0)
(1.26908e-10 3.69287e-10 0)
(4.94288e-11 1.4333e-10 0)
(-2.08443e-11 7.73778e-11 0)
(3.21288e-11 4.19405e-12 0)
(-5.10193e-11 1.40723e-11 0)
(7.76761e-11 -9.50411e-11 0)
(-6.1644e-11 1.83684e-10 0)
(9.26753e-11 6.50701e-11 0)
(-1.79754e-10 3.39008e-10 0)
(1.44374e-11 1.45607e-10 0)
(1.20582e-10 1.15916e-11 0)
(-1.74666e-10 1.39165e-10 0)
(9.18476e-11 -1.00547e-10 0)
(1.70641e-10 -2.1984e-10 0)
(-3.31795e-11 -9.7349e-11 0)
(-1.25862e-10 -4.8234e-12 0)
(-1.41753e-10 5.83302e-12 0)
(-9.74032e-11 8.50984e-11 0)
(2.71188e-11 1.79492e-10 0)
(1.15022e-10 1.80736e-10 0)
(1.42893e-10 2.85516e-10 0)
(8.75315e-11 1.20669e-10 0)
(-4.47283e-11 8.11259e-11 0)
(-6.73352e-11 4.4514e-11 0)
(-9.46101e-11 -2.83615e-11 0)
(-1.73792e-11 7.67689e-11 0)
(-1.40728e-11 1.75145e-10 0)
(3.80922e-11 2.14542e-10 0)
(4.44678e-11 2.93173e-10 0)
(-2.78303e-10 4.30396e-10 0)
(2.93013e-10 -7.14276e-11 0)
(9.35393e-11 6.15372e-12 0)
(-9.97753e-11 -2.30641e-11 0)
(1.10176e-10 -2.1845e-10 0)
(7.53331e-11 -2.16441e-10 0)
(-1.11396e-10 -8.21983e-11 0)
(-1.7914e-10 4.33533e-11 0)
(-1.6631e-10 1.81912e-10 0)
(-8.79625e-11 2.45683e-10 0)
(1.33151e-11 1.97258e-10 0)
(1.57773e-10 2.71475e-10 0)
(1.6895e-10 9.42055e-11 0)
(-4.22312e-11 -3.7907e-11 0)
(-1.34124e-10 -1.82544e-11 0)
(-7.46172e-11 -1.83315e-11 0)
(-9.51529e-11 2.15262e-10 0)
(1.24463e-10 -5.28101e-11 0)
(-1.2666e-10 3.68182e-10 0)
(3.56084e-10 -1.36539e-10 0)
(-4.15153e-10 3.62774e-10 0)
(-2.08781e-10 1.41103e-10 0)
(2.52249e-10 -1.31649e-10 0)
(-4.42604e-11 -4.90702e-11 0)
(-7.26888e-12 -1.16414e-10 0)
(9.15504e-11 -2.06541e-10 0)
(1.80795e-11 -1.38929e-10 0)
(-5.79002e-11 -3.74741e-12 0)
(-1.32297e-10 1.24429e-10 0)
(-1.43853e-10 1.87726e-10 0)
(-7.65959e-11 1.53136e-10 0)
(5.63256e-11 2.01086e-10 0)
(1.2228e-10 7.65936e-11 0)
(4.37868e-11 -1.09353e-10 0)
(-8.45196e-11 -7.33409e-11 0)
(-4.767e-11 1.17841e-10 0)
(-2.03377e-10 3.49854e-10 0)
(1.10888e-10 -1.6695e-11 0)
(-2.33755e-10 4.2199e-10 0)
(3.75365e-10 -7.1541e-10 0)
(3.87708e-10 1.97552e-10 0)
(-3.42226e-10 3.13911e-10 0)
(4.56011e-11 -7.07251e-11 0)
(9.43897e-11 -1.32684e-10 0)
(-1.8291e-11 -1.17818e-10 0)
(3.611e-11 -1.74024e-10 0)
(5.5939e-11 -1.48435e-10 0)
(1.30802e-13 -6.43668e-11 0)
(-1.0915e-10 6.06135e-11 0)
(-1.53452e-10 1.66242e-10 0)
(-1.29867e-10 1.78561e-10 0)
(-2.05837e-11 2.24448e-10 0)
(1.09236e-10 7.96382e-11 0)
(9.27574e-11 -3.95234e-11 0)
(-2.008e-11 -9.3212e-12 0)
(1.94545e-11 9.72067e-11 0)
(-2.13529e-10 5.18119e-11 0)
(-2.71977e-11 1.86353e-10 0)
(-4.23359e-10 -3.14804e-10 0)
(1.47378e-11 -1.25905e-09 0)
(1.0157e-09 1.817e-10 0)
(-4.56796e-10 2.09012e-10 0)
(-1.92421e-10 -2.24362e-11 0)
(3.99677e-11 -1.10094e-10 0)
(-9.29111e-12 -5.9764e-11 0)
(1.29808e-11 -6.02866e-11 0)
(4.56308e-11 -8.74793e-11 0)
(1.91465e-11 -1.00835e-10 0)
(-5.73721e-11 -2.50043e-11 0)
(-8.61619e-11 9.63631e-11 0)
(-1.08145e-10 1.55438e-10 0)
(-1.46613e-11 2.08124e-10 0)
(1.1895e-10 7.6462e-11 0)
(2.2529e-11 -1.1052e-11 0)
(3.19479e-11 1.60018e-10 0)
(-3.27424e-11 1.23639e-11 0)
(9.12398e-13 -4.64875e-10 0)
(-4.02524e-10 2.45496e-10 0)
(-1.69191e-09 -3.16121e-10 0)
(-2.4444e-10 3.03145e-09 0)
(7.07388e-09 -1.00651e-09 0)
(-4.57375e-10 -3.86818e-10 0)
(-2.73162e-10 2.1287e-10 0)
(1.16552e-10 1.3638e-10 0)
(6.76242e-11 9.05306e-11 0)
(-2.78972e-11 3.7829e-11 0)
(-6.19285e-11 -4.93877e-11 0)
(-4.59041e-11 -1.26385e-10 0)
(-2.30376e-11 -1.17535e-10 0)
(-4.07517e-12 -2.23836e-11 0)
(-3.11095e-11 6.11257e-11 0)
(-5.84933e-12 1.15306e-10 0)
(6.73025e-11 6.49797e-11 0)
(3.19041e-12 -1.27083e-11 0)
(9.77645e-11 1.38589e-10 0)
(-1.49635e-10 4.55055e-11 0)
(2.53676e-11 -2.54907e-10 0)
(2.23773e-11 1.9204e-10 0)
(2.25606e-09 2.75328e-10 0)
(-3.54076e-10 3.86018e-09 0)
(-7.8095e-09 -1.02029e-09 0)
(1.41625e-09 -4.47368e-10 0)
(5.00993e-10 1.98015e-10 0)
(-8.82883e-11 1.03736e-10 0)
(-1.3916e-10 9.62391e-12 0)
(-1.83512e-10 -3.8837e-11 0)
(-1.7226e-10 -5.68907e-11 0)
(-8.41597e-11 -6.30618e-11 0)
(2.22118e-11 -2.34693e-11 0)
(9.2213e-11 3.84147e-11 0)
(5.36717e-11 8.5963e-11 0)
(3.39806e-11 1.14515e-10 0)
(4.92765e-11 3.05539e-11 0)
)
;

boundaryField
{
    sides
    {
        type            calculated;
        value           nonuniform List<vector> 
40
(
(3.19041e-12 0 0)
(9.77645e-11 0 0)
(-1.49635e-10 0 0)
(2.53676e-11 0 0)
(2.23773e-11 0 0)
(2.25606e-09 0 0)
(-3.54076e-10 0 0)
(-7.8095e-09 0 0)
(1.41625e-09 0 0)
(5.00993e-10 0 0)
(-8.82883e-11 0 0)
(-1.3916e-10 0 0)
(-1.83512e-10 0 0)
(-1.7226e-10 0 0)
(-8.41597e-11 0 0)
(2.22118e-11 0 0)
(9.2213e-11 0 0)
(5.36717e-11 0 0)
(3.39806e-11 0 0)
(4.92765e-11 0 0)
(-7.18244e-11 0 0)
(6.93464e-11 0 0)
(9.07097e-11 0 0)
(1.35442e-10 0 0)
(1.4385e-10 0 0)
(1.34376e-09 0 0)
(-1.97481e-10 0 0)
(8.55475e-10 0 0)
(-6.8827e-10 0 0)
(2.14569e-10 0 0)
(-3.97058e-11 0 0)
(1.51037e-10 0 0)
(1.68143e-10 0 0)
(4.32669e-11 0 0)
(-1.14826e-11 0 0)
(5.85802e-11 0 0)
(8.7497e-11 0 0)
(6.01366e-11 0 0)
(-5.03316e-11 0 0)
(-1.17702e-10 0 0)
)
;
    }
    inlet
    {
        type            calculated;
        value           uniform (0 0 0);
    }
    outlet
    {
        type            calculated;
        value           nonuniform List<vector> 
20
(
(-1.17702e-10 4.43672e-12 0)
(-9.3904e-11 1.23911e-11 0)
(-1.19641e-10 4.63942e-11 0)
(-8.26454e-11 9.72677e-11 0)
(-4.44872e-11 1.23151e-10 0)
(-2.58188e-11 1.34167e-10 0)
(6.02409e-11 1.44888e-10 0)
(-9.14932e-12 1.45846e-10 0)
(-4.7755e-11 1.53602e-10 0)
(-1.23749e-10 1.56608e-10 0)
(-1.08393e-10 1.76906e-10 0)
(-5.98496e-11 1.81142e-10 0)
(4.94288e-11 1.4333e-10 0)
(8.75315e-11 1.20669e-10 0)
(1.6895e-10 9.42055e-11 0)
(1.2228e-10 7.65936e-11 0)
(1.09236e-10 7.96382e-11 0)
(1.1895e-10 7.6462e-11 0)
(6.73025e-11 6.49797e-11 0)
(4.92765e-11 3.05539e-11 0)
)
;
    }
    frontAndBack
    {
        type            empty;
    }
}


// ************************************************************************* //
