/*--------------------------------*- C++ -*----------------------------------*\
  =========                 |
  \\      /  F ield         | OpenFOAM: The Open Source CFD Toolbox
   \\    /   O peration     | Website:  https://openfoam.org
    \\  /    A nd           | Version:  7
     \\/     M anipulation  |
\*---------------------------------------------------------------------------*/
FoamFile
{
    version     2.0;
    format      ascii;
    class       surfaceScalarField;
    location    "76";
    object      ddtCorrDdt0(phi);
}
// * * * * * * * * * * * * * * * * * * * * * * * * * * * * * * * * * * * * * //

dimensions      [0 4 -2 0 0 0 0];

internalField   nonuniform List<scalar> 
760
(
1.04453e-12
-2.38048e-13
-2.1596e-13
-2.92823e-13
-3.35048e-13
8.23034e-13
2.84663e-12
6.31428e-13
-2.67466e-13
-2.60479e-13
8.21961e-12
-1.58236e-11
3.84292e-13
2.4466e-10
-3.33141e-12
-1.23382e-11
1.85604e-12
7.78143e-12
-3.69408e-13
4.52752e-13
3.64031e-13
4.26687e-13
9.79673e-13
3.93962e-13
5.31603e-13
4.36517e-14
-4.91674e-14
-1.78509e-13
7.86976e-14
-7.96188e-14
4.35032e-13
1.74016e-13
3.80839e-13
3.03858e-13
3.1501e-14
2.20734e-13
-4.46484e-13
2.02769e-13
3.73855e-14
2.36242e-14
-4.24216e-14
8.86301e-13
-1.27208e-13
1.87738e-13
-7.5708e-14
9.24264e-13
1.20245e-12
-5.30263e-12
-7.58515e-13
2.41999e-12
2.84481e-12
-1.14788e-11
-1.42929e-11
1.51453e-12
4.03823e-12
1.13167e-13
2.67802e-12
-6.18554e-13
-1.14688e-13
-9.25805e-15
2.32956e-13
7.73445e-14
1.45055e-13
-1.93206e-14
-3.5208e-13
4.91044e-14
-4.23069e-13
3.48978e-13
-1.00435e-13
4.52517e-13
2.77327e-13
1.1707e-13
4.74004e-13
-1.77631e-13
4.2578e-13
-3.88479e-13
5.01278e-13
1.64598e-13
-1.01339e-13
4.99595e-13
9.13241e-13
1.38852e-13
5.65407e-13
-4.68972e-13
-2.0679e-12
3.41641e-13
3.5631e-12
-8.14677e-13
-7.78892e-12
3.49335e-12
5.79219e-12
6.46384e-13
5.25295e-12
5.49546e-12
-2.24679e-12
-8.24338e-13
2.16701e-13
2.46077e-15
2.69736e-13
5.45808e-14
-4.83582e-13
-5.65091e-13
-2.78779e-13
-8.13531e-13
3.38795e-13
-5.10189e-13
7.02002e-13
-6.27562e-14
4.90853e-13
3.24167e-13
-1.38934e-13
5.52401e-13
-5.35615e-13
6.22432e-13
-6.19708e-13
9.26873e-13
3.53369e-13
-1.21385e-14
2.53002e-13
-1.00435e-13
1.99269e-13
9.07466e-13
-2.06655e-13
-1.6894e-12
-3.82803e-13
3.41854e-12
7.74876e-13
-4.09199e-12
-1.12411e-12
5.44851e-12
4.49248e-12
-1.48482e-12
6.18222e-13
-1.76257e-12
-1.03936e-12
2.21584e-13
-9.79395e-15
-3.93607e-13
-4.14893e-13
-7.38472e-13
-1.19462e-12
-8.0529e-14
-9.59589e-13
6.49424e-13
-4.1378e-13
7.80317e-13
-1.37208e-13
3.72783e-13
1.53148e-13
-1.88971e-13
4.90356e-13
-4.84488e-13
7.09139e-13
-4.54955e-13
1.27065e-12
5.6637e-13
-3.40119e-13
-2.63438e-13
-6.3306e-13
-3.88111e-14
3.76812e-13
5.17373e-13
-2.51356e-13
-2.78102e-13
1.11056e-12
1.83707e-12
1.56277e-13
-7.1666e-13
1.95443e-12
1.31035e-12
-2.92808e-12
-1.51197e-12
-6.24729e-14
-6.16018e-13
2.93862e-13
3.34811e-13
-9.50981e-13
-1.06097e-12
-3.4525e-13
-1.22492e-12
3.78904e-13
-6.00386e-13
6.86612e-13
-2.08425e-13
5.4284e-13
-2.81476e-13
1.10788e-13
-1.47975e-13
-1.65972e-13
3.27612e-13
-2.20976e-13
7.35437e-13
-2.09061e-13
1.44651e-12
6.29083e-13
-1.55891e-13
-4.81658e-13
1.22078e-14
-2.46462e-13
-2.72117e-13
6.4433e-13
1.38454e-12
6.28248e-13
-7.66651e-13
9.94479e-13
1.64114e-12
1.43541e-12
-1.06272e-12
7.24177e-13
-1.6457e-12
-5.09661e-13
1.20168e-12
1.10324e-12
-8.77297e-13
-5.68057e-13
-9.21738e-13
-1.30833e-12
5.59315e-13
-5.00267e-13
7.44315e-13
-3.61257e-13
4.50057e-13
-2.99829e-13
3.05617e-13
-2.9546e-13
1.9278e-13
-1.19415e-13
2.22836e-13
4.30833e-13
2.10428e-13
9.09572e-13
1.46178e-14
1.65337e-12
6.62904e-13
-5.03083e-14
-2.62978e-13
5.44328e-13
-2.14434e-14
-4.13609e-13
-1.12945e-13
1.18453e-12
1.38309e-12
-6.46182e-13
5.90046e-13
9.1541e-13
1.83778e-12
-1.63608e-12
6.6456e-13
7.94013e-13
1.17709e-12
1.57199e-13
9.07424e-13
-9.82216e-13
-6.23489e-13
4.87751e-13
1.57998e-14
8.67354e-13
2.42575e-13
2.28761e-13
-6.78066e-13
-3.45816e-13
-6.44658e-13
-5.07161e-13
-7.10161e-14
-5.44847e-14
4.23817e-13
5.69348e-13
8.45385e-13
6.66739e-13
1.02539e-12
4.55463e-13
1.77036e-12
7.41895e-13
2.15805e-13
-6.63283e-15
1.86636e-13
2.2801e-13
5.60248e-13
-1.28748e-13
-1.87463e-14
4.23279e-13
2.59154e-13
7.12164e-13
-4.11002e-13
1.27111e-12
-8.24498e-13
1.18282e-12
8.34014e-13
1.84228e-12
-9.44548e-13
6.86409e-13
3.90274e-13
4.95113e-13
1.12987e-12
2.94776e-13
-1.43062e-13
-7.45108e-13
-1.21054e-13
-1.18508e-12
-5.32883e-14
-7.04016e-13
-5.55457e-13
4.75809e-14
-2.31627e-13
1.05725e-12
5.81393e-13
1.64467e-12
6.52724e-13
1.42633e-12
1.60172e-13
1.9355e-12
7.8831e-13
4.29657e-13
3.24144e-13
-2.76147e-13
-3.24221e-13
5.67341e-13
2.85809e-13
-4.16665e-13
-8.17021e-14
2.84828e-13
8.14643e-13
-6.49634e-13
7.20223e-13
9.55754e-14
1.36782e-12
1.55272e-13
1.51632e-12
-3.90785e-13
5.1741e-13
7.6665e-13
7.19148e-13
1.60935e-13
-5.60409e-13
-6.40961e-13
-1.43117e-12
1.08183e-13
-8.20001e-13
3.73333e-13
-5.70178e-13
-2.5862e-13
-4.42902e-13
-4.43278e-13
8.60307e-13
-3.60378e-14
2.0148e-12
2.14157e-13
1.81404e-12
-1.07664e-13
2.0325e-12
7.64398e-13
-2.53119e-13
-8.8072e-14
7.01437e-14
-2.74832e-13
-2.04481e-13
2.0599e-13
-2.34701e-14
4.38591e-13
-2.53112e-13
9.84306e-13
-5.86267e-14
1.15485e-12
4.65086e-13
1.37528e-12
-3.38816e-13
1.2558e-12
4.26592e-13
6.17952e-13
-2.54534e-13
2.13444e-13
-5.81445e-13
-5.57122e-13
2.31295e-13
-1.00987e-12
1.0946e-13
-9.48891e-13
8.03532e-14
-7.51236e-13
6.11216e-13
-4.8185e-13
3.57427e-13
4.31942e-13
-3.97736e-13
1.38524e-12
-5.64563e-13
1.58275e-12
-6.47199e-13
2.14885e-12
8.42202e-13
-4.30189e-13
-6.56139e-13
2.36214e-13
9.0574e-14
-3.82239e-13
-4.03318e-14
1.11272e-13
1.10055e-12
-3.83935e-13
1.04362e-12
1.28388e-13
1.82024e-12
6.05384e-13
1.36315e-12
-4.66762e-13
1.07528e-12
6.5297e-13
8.6883e-13
-5.12943e-13
-4.01155e-13
-7.12733e-13
-2.02704e-13
5.04575e-13
-2.03647e-13
4.10513e-14
-1.1194e-12
-7.33447e-14
-8.17006e-13
8.30699e-13
-1.35505e-13
6.03806e-13
9.39137e-14
-4.54045e-13
4.64053e-13
-7.20648e-13
1.02803e-12
-6.44057e-13
2.07373e-12
8.93497e-13
3.73864e-13
-2.37384e-13
-1.90974e-13
-2.34959e-13
2.72138e-13
1.22498e-13
-3.83296e-13
8.03744e-13
1.72365e-13
9.16265e-13
-3.64886e-13
1.51385e-12
6.80045e-13
1.43195e-12
-1.33173e-13
5.7772e-13
1.30415e-14
9.65487e-13
4.23418e-13
-4.6458e-13
-4.57577e-13
-7.40493e-13
-6.19646e-13
-7.65199e-14
-3.06105e-14
-4.11611e-13
3.35207e-13
-4.70148e-13
3.14721e-13
-3.6675e-13
1.34283e-13
-2.25316e-13
6.41597e-14
3.79608e-13
7.9272e-14
1.05976e-12
-1.90624e-13
1.97122e-12
7.98832e-13
4.40101e-13
2.61358e-13
-1.65302e-13
-1.28084e-13
6.10857e-13
4.21552e-13
-6.09901e-13
-4.74374e-13
4.87593e-13
9.90355e-13
-6.39696e-13
6.18734e-13
3.44881e-14
1.81661e-12
7.72632e-13
4.25708e-13
-8.73496e-13
6.15462e-13
9.1244e-13
5.20933e-13
8.12534e-13
-1.04764e-12
-9.09743e-13
-1.09097e-12
-6.61978e-13
-2.62768e-13
-1.92472e-13
4.59426e-14
-4.67596e-13
-1.37922e-13
-1.62648e-13
1.55787e-13
5.68053e-13
7.88844e-13
6.8415e-13
1.03468e-12
3.85304e-13
1.61108e-12
6.25788e-13
-3.35372e-14
5.04586e-13
2.12047e-13
1.84464e-13
-3.89959e-13
-2.65264e-13
4.53998e-13
-3.06317e-13
-2.71062e-13
1.17919e-12
3.47287e-13
2.86085e-13
-1.37087e-12
1.81826e-12
1.34914e-12
1.19655e-12
-6.19553e-13
-5.54652e-13
-4.702e-13
6.95778e-13
1.10356e-12
-9.73251e-14
3.40829e-13
-1.27901e-12
-4.86362e-13
-9.13103e-13
-7.39337e-13
-1.89641e-13
-7.25597e-13
2.25488e-13
-1.31814e-13
8.21203e-13
5.61977e-13
1.16923e-12
5.94565e-13
9.5972e-13
4.92652e-13
1.40647e-12
5.57581e-13
-4.32155e-13
2.09106e-13
-2.62771e-13
5.83609e-14
-1.05176e-12
-3.2217e-13
1.28425e-12
1.0398e-12
-1.47655e-12
2.83292e-15
1.86735e-12
1.59843e-12
-1.86521e-12
6.45184e-13
2.50915e-13
3.16571e-12
1.61252e-12
-1.75242e-13
-6.5074e-13
-6.89885e-13
6.44391e-14
-6.72579e-15
7.53034e-13
-6.90566e-13
-8.98701e-14
-1.0907e-12
-8.51437e-13
-5.7111e-13
-9.55761e-13
1.91667e-13
-6.28319e-13
8.56958e-13
-6.38994e-14
1.08467e-12
3.822e-13
8.1882e-13
7.80213e-13
1.15463e-12
4.39067e-13
-6.3629e-13
-4.18126e-13
-8.16816e-13
-2.49044e-13
-3.22608e-13
2.80018e-13
4.89335e-13
1.5662e-12
-6.84797e-13
-1.80615e-13
1.17803e-12
2.91618e-12
3.59838e-13
-2.26773e-12
-3.14584e-12
2.73478e-13
1.24885e-12
1.88318e-12
3.83222e-13
-6.46342e-13
-4.5031e-13
-6.33048e-13
3.93888e-13
-5.4532e-13
3.66146e-13
-1.01287e-12
-1.0449e-13
-8.3738e-13
-5.26375e-13
-2.14215e-13
-7.66163e-13
4.69816e-13
-5.40466e-13
9.03563e-13
-6.01515e-14
8.655e-13
4.73419e-13
1.09892e-12
3.88752e-13
-4.72597e-13
-5.79047e-13
-6.40329e-13
-4.76392e-14
5.72981e-13
8.51888e-13
-2.02505e-12
5.009e-13
2.1542e-12
7.8404e-13
-2.68586e-12
-7.70721e-13
4.6378e-12
-4.05346e-12
-1.22209e-12
2.40355e-12
-8.06763e-13
6.36064e-13
8.02785e-13
1.46075e-13
-5.43796e-14
-4.71266e-13
-1.51043e-15
-4.75301e-13
3.23867e-13
-6.62959e-13
2.53707e-13
-6.93267e-13
-2.67646e-13
-5.05884e-13
-7.6219e-13
3.51067e-14
-7.68592e-13
6.27173e-13
-4.04811e-13
8.08059e-13
2.66267e-13
1.03735e-12
3.79098e-13
-7.47088e-13
-2.27903e-14
3.66026e-13
5.30912e-13
1.19619e-12
7.48165e-13
-3.80302e-12
-1.3406e-12
3.93063e-12
9.77684e-13
-9.34564e-12
-5.28035e-12
1.04535e-11
1.3001e-12
-1.5287e-12
-9.24926e-12
-1.9248e-12
1.82554e-12
1.55891e-14
5.80373e-13
3.05035e-14
-1.50929e-13
-7.94099e-14
-1.38601e-13
1.91119e-13
-1.1809e-13
2.49325e-13
-2.97778e-13
-4.5157e-14
-5.21962e-13
-4.01867e-13
-3.00538e-13
-5.73689e-13
2.46027e-13
-3.59022e-13
5.45017e-13
3.18139e-13
8.01593e-13
3.59532e-13
-2.76027e-13
2.15905e-13
2.32446e-13
8.52458e-13
2.37313e-13
-4.68167e-13
-6.23831e-13
-1.52125e-12
-3.89437e-12
1.27121e-12
-1.4449e-11
3.21286e-10
2.98904e-11
4.55867e-10
1.10636e-11
-2.22173e-10
-2.00915e-12
-2.9689e-12
-7.78252e-14
1.90843e-13
6.39269e-13
4.71818e-13
5.12397e-14
3.88855e-13
-2.93698e-13
1.7519e-13
-3.03399e-13
-1.01547e-13
-1.08159e-13
-3.75694e-13
1.92364e-16
-3.49837e-13
-1.34459e-13
-1.43012e-14
-1.53435e-13
2.78412e-13
1.80265e-13
4.88669e-13
2.42571e-13
1.41228e-12
-3.59309e-13
-2.68481e-12
3.23078e-12
-1.4372e-12
2.36083e-11
-4.25658e-11
-5.76488e-12
4.35662e-12
3.84985e-13
-5.32599e-13
-7.98565e-13
-9.62398e-13
-7.53857e-13
-9.7741e-14
4.32152e-13
3.97688e-13
1.66582e-13
1.83146e-13
)
;

boundaryField
{
    sides
    {
        type            calculated;
        value           uniform 0;
    }
    inlet
    {
        type            calculated;
        value           uniform 0;
    }
    outlet
    {
        type            calculated;
        value           nonuniform List<scalar> 
20
(
-6.06391e-13
-4.75883e-13
-5.59044e-13
-3.47675e-13
-1.46912e-13
-4.249e-14
4.07921e-13
-5.52006e-14
-4.16696e-13
-8.19611e-13
-7.42563e-13
-4.60591e-13
2.1774e-13
5.49676e-13
9.60894e-13
6.82322e-13
6.24181e-13
6.52083e-13
3.51184e-13
2.28709e-13
)
;
    }
    frontAndBack
    {
        type            empty;
        value           nonuniform 0();
    }
}


// ************************************************************************* //
