/*--------------------------------*- C++ -*----------------------------------*\
  =========                 |
  \\      /  F ield         | OpenFOAM: The Open Source CFD Toolbox
   \\    /   O peration     | Website:  https://openfoam.org
    \\  /    A nd           | Version:  7
     \\/     M anipulation  |
\*---------------------------------------------------------------------------*/
FoamFile
{
    version     2.0;
    format      ascii;
    class       volVectorField;
    location    "76";
    object      hU;
}
// * * * * * * * * * * * * * * * * * * * * * * * * * * * * * * * * * * * * * //

dimensions      [0 2 -1 0 0 0 0];

internalField   nonuniform List<vector> 
400
(
(0.001 -8.70818e-09 0)
(0.000999999 -2.37419e-08 0)
(0.001 -3.59746e-08 0)
(0.001 -4.66801e-08 0)
(0.00100001 -5.68761e-08 0)
(0.00100001 -6.74419e-08 0)
(0.00100002 -7.81403e-08 0)
(0.00100003 -8.92827e-08 0)
(0.00100004 -9.99429e-08 0)
(0.00100006 -1.11941e-07 0)
(0.00100007 -1.22669e-07 0)
(0.0010001 -1.36162e-07 0)
(0.00100011 -1.46503e-07 0)
(0.00100015 -1.63299e-07 0)
(0.00100017 -1.72113e-07 0)
(0.00100024 -1.96242e-07 0)
(0.00100026 -2.00773e-07 0)
(0.00100038 -2.43029e-07 0)
(0.00100038 -2.39214e-07 0)
(0.00100061 -3.31907e-07 0)
(0.001 4.00739e-09 0)
(0.001 1.21013e-08 0)
(0.00100001 2.02242e-08 0)
(0.00100001 2.79641e-08 0)
(0.00100002 3.51721e-08 0)
(0.00100002 4.16975e-08 0)
(0.00100003 4.76806e-08 0)
(0.00100004 5.30873e-08 0)
(0.00100005 5.84927e-08 0)
(0.00100007 6.23382e-08 0)
(0.00100008 6.69787e-08 0)
(0.0010001 6.85775e-08 0)
(0.00100012 7.26794e-08 0)
(0.00100016 6.98776e-08 0)
(0.00100018 7.40472e-08 0)
(0.00100023 6.17155e-08 0)
(0.00100026 6.71994e-08 0)
(0.00100035 3.17906e-08 0)
(0.00100037 3.98666e-08 0)
(0.0010005 -5.46054e-08 0)
(0.001 -3.94604e-09 0)
(0.000999999 -1.29749e-08 0)
(0.001 -2.29981e-08 0)
(0.001 -3.3588e-08 0)
(0.00100001 -4.41444e-08 0)
(0.00100001 -5.49127e-08 0)
(0.00100002 -6.56291e-08 0)
(0.00100003 -7.73139e-08 0)
(0.00100004 -8.89208e-08 0)
(0.00100005 -1.02592e-07 0)
(0.00100006 -1.153e-07 0)
(0.00100009 -1.32419e-07 0)
(0.0010001 -1.46469e-07 0)
(0.00100014 -1.69939e-07 0)
(0.00100016 -1.85019e-07 0)
(0.00100021 -2.21009e-07 0)
(0.00100023 -2.35609e-07 0)
(0.00100031 -2.97544e-07 0)
(0.00100033 -3.06258e-07 0)
(0.00100046 -4.22274e-07 0)
(0.001 -1.31865e-10 0)
(0.001 3.57978e-11 0)
(0.00100001 7.22313e-10 0)
(0.00100001 1.44702e-09 0)
(0.00100001 2.13142e-09 0)
(0.00100002 1.99931e-09 0)
(0.00100003 1.61387e-09 0)
(0.00100004 -3.48852e-10 0)
(0.00100004 -2.46335e-09 0)
(0.00100006 -7.14087e-09 0)
(0.00100007 -1.12679e-08 0)
(0.00100009 -2.04811e-08 0)
(0.00100011 -2.71133e-08 0)
(0.00100013 -4.41486e-08 0)
(0.00100016 -5.33943e-08 0)
(0.00100019 -8.48095e-08 0)
(0.00100022 -9.53864e-08 0)
(0.00100028 -1.54608e-07 0)
(0.0010003 -1.61008e-07 0)
(0.00100039 -2.75987e-07 0)
(0.001 -2.88924e-09 0)
(0.001 -9.17403e-09 0)
(0.001 -1.62039e-08 0)
(0.001 -2.42405e-08 0)
(0.00100001 -3.29053e-08 0)
(0.00100001 -4.26625e-08 0)
(0.00100002 -5.27858e-08 0)
(0.00100002 -6.4557e-08 0)
(0.00100003 -7.65196e-08 0)
(0.00100004 -9.12898e-08 0)
(0.00100005 -1.05652e-07 0)
(0.00100007 -1.25394e-07 0)
(0.00100009 -1.42663e-07 0)
(0.00100011 -1.70796e-07 0)
(0.00100013 -1.9107e-07 0)
(0.00100016 -2.34151e-07 0)
(0.00100018 -2.55676e-07 0)
(0.00100024 -3.26477e-07 0)
(0.00100025 -3.4157e-07 0)
(0.00100033 -4.64535e-07 0)
(0.001 -2.53791e-09 0)
(0.001 -7.44096e-09 0)
(0.001 -1.20557e-08 0)
(0.00100001 -1.67643e-08 0)
(0.00100001 -2.15401e-08 0)
(0.00100001 -2.7144e-08 0)
(0.00100002 -3.31681e-08 0)
(0.00100002 -4.09064e-08 0)
(0.00100003 -4.90206e-08 0)
(0.00100004 -6.02544e-08 0)
(0.00100005 -7.13553e-08 0)
(0.00100006 -8.82346e-08 0)
(0.00100008 -1.0309e-07 0)
(0.0010001 -1.29278e-07 0)
(0.00100011 -1.4813e-07 0)
(0.00100014 -1.90052e-07 0)
(0.00100016 -2.1087e-07 0)
(0.0010002 -2.80428e-07 0)
(0.00100021 -2.94633e-07 0)
(0.00100027 -4.15197e-07 0)
(0.001 -2.86649e-09 0)
(0.001 -8.78443e-09 0)
(0.001 -1.50273e-08 0)
(0.001 -2.20253e-08 0)
(0.00100001 -2.97501e-08 0)
(0.00100001 -3.87732e-08 0)
(0.00100001 -4.86334e-08 0)
(0.00100002 -6.04633e-08 0)
(0.00100002 -7.29345e-08 0)
(0.00100003 -8.87427e-08 0)
(0.00100004 -1.0455e-07 0)
(0.00100005 -1.26371e-07 0)
(0.00100006 -1.46243e-07 0)
(0.00100007 -1.77686e-07 0)
(0.00100009 -2.01636e-07 0)
(0.00100011 -2.48974e-07 0)
(0.00100012 -2.74567e-07 0)
(0.00100015 -3.49454e-07 0)
(0.00100016 -3.67307e-07 0)
(0.00100021 -4.92394e-07 0)
(0.001 -3.15681e-09 0)
(0.001 -9.65481e-09 0)
(0.001 -1.64046e-08 0)
(0.001 -2.37482e-08 0)
(0.001 -3.15999e-08 0)
(0.00100001 -4.05342e-08 0)
(0.00100001 -5.01048e-08 0)
(0.00100001 -6.15254e-08 0)
(0.00100002 -7.35696e-08 0)
(0.00100002 -8.89354e-08 0)
(0.00100003 -1.04401e-07 0)
(0.00100004 -1.2598e-07 0)
(0.00100004 -1.45791e-07 0)
(0.00100005 -1.77243e-07 0)
(0.00100006 -2.01479e-07 0)
(0.00100008 -2.48971e-07 0)
(0.00100009 -2.75069e-07 0)
(0.00100011 -3.49719e-07 0)
(0.00100012 -3.67746e-07 0)
(0.00100015 -4.9108e-07 0)
(0.001 -3.32895e-09 0)
(0.001 -1.01505e-08 0)
(0.001 -1.71809e-08 0)
(0.001 -2.48162e-08 0)
(0.001 -3.29626e-08 0)
(0.001 -4.23121e-08 0)
(0.00100001 -5.24218e-08 0)
(0.00100001 -6.4594e-08 0)
(0.00100001 -7.75691e-08 0)
(0.00100001 -9.40608e-08 0)
(0.00100002 -1.10828e-07 0)
(0.00100002 -1.33898e-07 0)
(0.00100003 -1.55261e-07 0)
(0.00100003 -1.88495e-07 0)
(0.00100004 -2.14444e-07 0)
(0.00100005 -2.63901e-07 0)
(0.00100005 -2.91568e-07 0)
(0.00100007 -3.68222e-07 0)
(0.00100007 -3.87283e-07 0)
(0.00100009 -5.12726e-07 0)
(0.001 -3.41591e-09 0)
(0.001 -1.03917e-08 0)
(0.001 -1.7567e-08 0)
(0.001 -2.5374e-08 0)
(0.001 -3.3737e-08 0)
(0.001 -4.33667e-08 0)
(0.001 -5.38165e-08 0)
(0.001 -6.6372e-08 0)
(0.001 -7.9741e-08 0)
(0.001 -9.66232e-08 0)
(0.00100001 -1.13787e-07 0)
(0.00100001 -1.37223e-07 0)
(0.00100001 -1.58984e-07 0)
(0.00100001 -1.92577e-07 0)
(0.00100001 -2.1895e-07 0)
(0.00100002 -2.68696e-07 0)
(0.00100002 -2.96769e-07 0)
(0.00100002 -3.73479e-07 0)
(0.00100002 -3.92843e-07 0)
(0.00100003 -5.17715e-07 0)
(0.001 -3.42869e-09 0)
(0.001 -1.03921e-08 0)
(0.001 -1.75702e-08 0)
(0.000999999 -2.53613e-08 0)
(0.000999999 -3.37302e-08 0)
(0.000999999 -4.33532e-08 0)
(0.000999998 -5.3815e-08 0)
(0.000999997 -6.63723e-08 0)
(0.000999996 -7.97384e-08 0)
(0.000999995 -9.6628e-08 0)
(0.000999994 -1.13778e-07 0)
(0.000999993 -1.37213e-07 0)
(0.000999991 -1.58988e-07 0)
(0.000999989 -1.92578e-07 0)
(0.000999987 -2.18951e-07 0)
(0.000999984 -2.68705e-07 0)
(0.000999982 -2.9678e-07 0)
(0.000999978 -3.73471e-07 0)
(0.000999977 -3.92821e-07 0)
(0.00099997 -5.177e-07 0)
(0.001 -3.35107e-09 0)
(0.001 -1.01583e-08 0)
(0.000999999 -1.71825e-08 0)
(0.000999998 -2.47931e-08 0)
(0.000999997 -3.29486e-08 0)
(0.000999996 -4.22915e-08 0)
(0.000999994 -5.24197e-08 0)
(0.000999992 -6.46036e-08 0)
(0.000999989 -7.75662e-08 0)
(0.000999986 -9.40722e-08 0)
(0.000999983 -1.1082e-07 0)
(0.000999978 -1.33876e-07 0)
(0.000999973 -1.55257e-07 0)
(0.000999967 -1.88489e-07 0)
(0.000999961 -2.14444e-07 0)
(0.000999952 -2.6391e-07 0)
(0.000999946 -2.91576e-07 0)
(0.000999934 -3.68175e-07 0)
(0.00099993 -3.87213e-07 0)
(0.000999911 -5.12646e-07 0)
(0.001 -3.16657e-09 0)
(0.001 -9.66586e-09 0)
(0.000999999 -1.63969e-08 0)
(0.000999997 -2.37474e-08 0)
(0.000999996 -3.15906e-08 0)
(0.000999993 -4.05368e-08 0)
(0.000999991 -5.00995e-08 0)
(0.000999987 -6.15468e-08 0)
(0.000999983 -7.35757e-08 0)
(0.000999977 -8.8942e-08 0)
(0.000999971 -1.04418e-07 0)
(0.000999964 -1.25981e-07 0)
(0.000999956 -1.45785e-07 0)
(0.000999945 -1.77239e-07 0)
(0.000999936 -2.01491e-07 0)
(0.000999921 -2.4899e-07 0)
(0.000999911 -2.75089e-07 0)
(0.00099989 -3.49705e-07 0)
(0.000999882 -3.6772e-07 0)
(0.000999852 -4.91052e-07 0)
(0.001 -2.85675e-09 0)
(0.000999999 -8.78366e-09 0)
(0.000999998 -1.50274e-08 0)
(0.000999996 -2.20502e-08 0)
(0.000999994 -2.97494e-08 0)
(0.000999991 -3.87937e-08 0)
(0.000999987 -4.86146e-08 0)
(0.000999982 -6.04613e-08 0)
(0.000999977 -7.29438e-08 0)
(0.000999969 -8.87212e-08 0)
(0.000999962 -1.04548e-07 0)
(0.000999951 -1.26369e-07 0)
(0.000999941 -1.46223e-07 0)
(0.000999925 -1.77647e-07 0)
(0.000999913 -2.01602e-07 0)
(0.000999891 -2.48919e-07 0)
(0.000999878 -2.74525e-07 0)
(0.000999847 -3.49375e-07 0)
(0.000999839 -3.67234e-07 0)
(0.000999792 -4.92254e-07 0)
(0.001 -2.51558e-09 0)
(0.000999999 -7.43381e-09 0)
(0.000999997 -1.20768e-08 0)
(0.000999995 -1.67886e-08 0)
(0.000999991 -2.15611e-08 0)
(0.000999987 -2.71562e-08 0)
(0.000999982 -3.3159e-08 0)
(0.000999975 -4.08709e-08 0)
(0.000999968 -4.90403e-08 0)
(0.000999959 -6.02583e-08 0)
(0.000999949 -7.13567e-08 0)
(0.000999935 -8.82511e-08 0)
(0.000999922 -1.03108e-07 0)
(0.000999903 -1.29282e-07 0)
(0.000999886 -1.48128e-07 0)
(0.000999859 -1.90037e-07 0)
(0.000999841 -2.10876e-07 0)
(0.000999802 -2.8044e-07 0)
(0.000999788 -2.94664e-07 0)
(0.000999731 -4.15194e-07 0)
(0.001 -2.87112e-09 0)
(0.001 -9.17073e-09 0)
(0.000999999 -1.62198e-08 0)
(0.000999997 -2.42299e-08 0)
(0.000999994 -3.29252e-08 0)
(0.00099999 -4.26166e-08 0)
(0.000999984 -5.28049e-08 0)
(0.000999977 -6.44897e-08 0)
(0.000999969 -7.64854e-08 0)
(0.000999958 -9.12843e-08 0)
(0.000999946 -1.05634e-07 0)
(0.00099993 -1.25373e-07 0)
(0.000999915 -1.42657e-07 0)
(0.000999891 -1.70773e-07 0)
(0.000999872 -1.91045e-07 0)
(0.000999837 -2.34087e-07 0)
(0.000999817 -2.55634e-07 0)
(0.000999764 -3.264e-07 0)
(0.000999752 -3.41532e-07 0)
(0.00099967 -4.64392e-07 0)
(0.001 -1.24331e-10 0)
(0.000999998 1.95149e-11 0)
(0.000999995 7.0959e-10 0)
(0.000999991 1.47158e-09 0)
(0.000999986 2.12149e-09 0)
(0.00099998 2.04727e-09 0)
(0.000999973 1.5023e-09 0)
(0.000999965 -3.39429e-10 0)
(0.000999955 -2.41803e-09 0)
(0.000999943 -7.14278e-09 0)
(0.00099993 -1.12715e-08 0)
(0.000999912 -2.04745e-08 0)
(0.000999894 -2.71173e-08 0)
(0.000999867 -4.41491e-08 0)
(0.000999845 -5.33992e-08 0)
(0.000999805 -8.47899e-08 0)
(0.000999779 -9.53703e-08 0)
(0.00099972 -1.54572e-07 0)
(0.000999699 -1.60996e-07 0)
(0.000999611 -2.75935e-07 0)
(0.001 -3.96284e-09 0)
(0.001 -1.29777e-08 0)
(0.001 -2.29807e-08 0)
(0.000999998 -3.35713e-08 0)
(0.000999995 -4.41101e-08 0)
(0.000999989 -5.49699e-08 0)
(0.000999983 -6.57301e-08 0)
(0.000999974 -7.74212e-08 0)
(0.000999963 -8.89142e-08 0)
(0.000999949 -1.02584e-07 0)
(0.000999935 -1.15307e-07 0)
(0.000999914 -1.32413e-07 0)
(0.000999896 -1.46474e-07 0)
(0.000999864 -1.69938e-07 0)
(0.000999841 -1.85045e-07 0)
(0.000999791 -2.21003e-07 0)
(0.000999767 -2.35622e-07 0)
(0.000999687 -2.97497e-07 0)
(0.000999672 -3.06252e-07 0)
(0.000999539 -4.22194e-07 0)
(0.001 3.95439e-09 0)
(0.000999996 1.21244e-08 0)
(0.000999991 2.02771e-08 0)
(0.000999987 2.79362e-08 0)
(0.000999982 3.51839e-08 0)
(0.000999976 4.16156e-08 0)
(0.000999969 4.79535e-08 0)
(0.000999959 5.3022e-08 0)
(0.000999948 5.8404e-08 0)
(0.000999934 6.23384e-08 0)
(0.000999919 6.69731e-08 0)
(0.000999897 6.85809e-08 0)
(0.000999878 7.26839e-08 0)
(0.000999844 6.98939e-08 0)
(0.000999819 7.40467e-08 0)
(0.000999767 6.17445e-08 0)
(0.000999738 6.72251e-08 0)
(0.000999654 3.18802e-08 0)
(0.000999629 3.99393e-08 0)
(0.000999495 -5.44715e-08 0)
(0.001 -8.74125e-09 0)
(0.001 -2.37291e-08 0)
(0.001 -3.5947e-08 0)
(0.000999997 -4.67164e-08 0)
(0.000999993 -5.69066e-08 0)
(0.000999986 -6.74653e-08 0)
(0.000999979 -7.7866e-08 0)
(0.000999968 -8.92791e-08 0)
(0.000999958 -1.0005e-07 0)
(0.000999942 -1.11985e-07 0)
(0.000999928 -1.22717e-07 0)
(0.000999903 -1.36211e-07 0)
(0.000999886 -1.46555e-07 0)
(0.000999846 -1.6335e-07 0)
(0.000999826 -1.72173e-07 0)
(0.00099976 -1.96302e-07 0)
(0.000999742 -2.00838e-07 0)
(0.000999623 -2.43094e-07 0)
(0.000999618 -2.39282e-07 0)
(0.000999394 -3.32031e-07 0)
)
;

boundaryField
{
    sides
    {
        type            slip;
    }
    inlet
    {
        type            fixedValue;
        value           uniform (0.001 0 0);
    }
    outlet
    {
        type            zeroGradient;
    }
    frontAndBack
    {
        type            empty;
    }
}


// ************************************************************************* //
