/*--------------------------------*- C++ -*----------------------------------*\
  =========                 |
  \\      /  F ield         | OpenFOAM: The Open Source CFD Toolbox
   \\    /   O peration     | Website:  https://openfoam.org
    \\  /    A nd           | Version:  7
     \\/     M anipulation  |
\*---------------------------------------------------------------------------*/
FoamFile
{
    version     2.0;
    format      ascii;
    class       volVectorField;
    location    "76";
    object      U;
}
// * * * * * * * * * * * * * * * * * * * * * * * * * * * * * * * * * * * * * //

dimensions      [0 1 -1 0 0 0 0];

internalField   nonuniform List<vector> 
400
(
(0.0999931 -8.70758e-07 0)
(0.099993 -2.37402e-06 0)
(0.0999931 -3.59722e-06 0)
(0.0999934 -4.66769e-06 0)
(0.0999939 -5.68722e-06 0)
(0.0999947 -6.74374e-06 0)
(0.0999955 -7.81351e-06 0)
(0.0999966 -8.92769e-06 0)
(0.0999978 -9.99365e-06 0)
(0.0999996 -1.11934e-05 0)
(0.100001 -1.22661e-05 0)
(0.100004 -1.36154e-05 0)
(0.100006 -1.46495e-05 0)
(0.10001 -1.63291e-05 0)
(0.100013 -1.72104e-05 0)
(0.10002 -1.96233e-05 0)
(0.100022 -2.00766e-05 0)
(0.100035 -2.43022e-05 0)
(0.100036 -2.39209e-05 0)
(0.10006 -3.31904e-05 0)
(0.0999943 4.00716e-07 0)
(0.0999947 1.21006e-06 0)
(0.0999952 2.0223e-06 0)
(0.0999958 2.79625e-06 0)
(0.0999963 3.51701e-06 0)
(0.099997 4.16953e-06 0)
(0.0999978 4.76781e-06 0)
(0.0999988 5.30845e-06 0)
(0.1 5.84897e-06 0)
(0.100002 6.23351e-06 0)
(0.100003 6.69755e-06 0)
(0.100006 6.85743e-06 0)
(0.100008 7.26763e-06 0)
(0.100012 6.98748e-06 0)
(0.100014 7.40445e-06 0)
(0.10002 6.17136e-06 0)
(0.100024 6.71976e-06 0)
(0.100033 3.17899e-06 0)
(0.100036 3.98661e-06 0)
(0.10005 -5.46052e-06 0)
(0.0999948 -3.94583e-07 0)
(0.0999947 -1.29742e-06 0)
(0.0999947 -2.29969e-06 0)
(0.0999949 -3.35862e-06 0)
(0.0999953 -4.41421e-06 0)
(0.0999959 -5.49099e-06 0)
(0.0999967 -6.56258e-06 0)
(0.0999977 -7.731e-06 0)
(0.0999988 -8.89165e-06 0)
(0.1 -1.02587e-05 0)
(0.100002 -1.15295e-05 0)
(0.100004 -1.32413e-05 0)
(0.100006 -1.46463e-05 0)
(0.10001 -1.69932e-05 0)
(0.100013 -1.85012e-05 0)
(0.100018 -2.21002e-05 0)
(0.100021 -2.35603e-05 0)
(0.100029 -2.97539e-05 0)
(0.100032 -3.06254e-05 0)
(0.100046 -4.22272e-05 0)
(0.0999956 -1.31859e-08 0)
(0.0999958 3.57962e-09 0)
(0.0999962 7.22281e-08 0)
(0.0999966 1.44695e-07 0)
(0.0999972 2.13133e-07 0)
(0.0999978 1.99923e-07 0)
(0.0999985 1.61381e-07 0)
(0.0999995 -3.48838e-08 0)
(0.100001 -2.46325e-07 0)
(0.100002 -7.1406e-07 0)
(0.100003 -1.12675e-06 0)
(0.100005 -2.04804e-06 0)
(0.100007 -2.71125e-06 0)
(0.10001 -4.41473e-06 0)
(0.100013 -5.33929e-06 0)
(0.100017 -8.48076e-06 0)
(0.10002 -9.53847e-06 0)
(0.100027 -1.54605e-05 0)
(0.100029 -1.61007e-05 0)
(0.100039 -2.75986e-05 0)
(0.0999962 -2.88914e-07 0)
(0.0999963 -9.17368e-07 0)
(0.0999964 -1.62033e-06 0)
(0.0999966 -2.42396e-06 0)
(0.0999969 -3.2904e-06 0)
(0.0999974 -4.26609e-06 0)
(0.099998 -5.27839e-06 0)
(0.0999988 -6.45548e-06 0)
(0.0999997 -7.6517e-06 0)
(0.100001 -9.12868e-06 0)
(0.100002 -1.05649e-05 0)
(0.100004 -1.25391e-05 0)
(0.100006 -1.42659e-05 0)
(0.100008 -1.70792e-05 0)
(0.100011 -1.91066e-05 0)
(0.100014 -2.34147e-05 0)
(0.100017 -2.55672e-05 0)
(0.100022 -3.26473e-05 0)
(0.100024 -3.41567e-05 0)
(0.100033 -4.64534e-05 0)
(0.0999969 -2.53783e-07 0)
(0.099997 -7.44073e-07 0)
(0.0999972 -1.20554e-06 0)
(0.0999975 -1.67638e-06 0)
(0.0999979 -2.15395e-06 0)
(0.0999984 -2.71432e-06 0)
(0.099999 -3.31672e-06 0)
(0.0999997 -4.09053e-06 0)
(0.1 -4.90193e-06 0)
(0.100002 -6.02528e-06 0)
(0.100003 -7.13536e-06 0)
(0.100004 -8.82325e-06 0)
(0.100006 -1.03088e-05 0)
(0.100008 -1.29275e-05 0)
(0.10001 -1.48127e-05 0)
(0.100013 -1.90049e-05 0)
(0.100015 -2.10868e-05 0)
(0.100019 -2.80426e-05 0)
(0.100021 -2.94631e-05 0)
(0.100027 -4.15196e-05 0)
(0.0999976 -2.86642e-07 0)
(0.0999977 -8.78423e-07 0)
(0.0999978 -1.5027e-06 0)
(0.099998 -2.20248e-06 0)
(0.0999983 -2.97495e-06 0)
(0.0999986 -3.87724e-06 0)
(0.0999991 -4.86323e-06 0)
(0.0999996 -6.0462e-06 0)
(0.1 -7.29329e-06 0)
(0.100001 -8.8741e-06 0)
(0.100002 -1.04548e-05 0)
(0.100003 -1.26368e-05 0)
(0.100004 -1.46241e-05 0)
(0.100006 -1.77683e-05 0)
(0.100007 -2.01634e-05 0)
(0.10001 -2.48971e-05 0)
(0.100011 -2.74565e-05 0)
(0.100015 -3.49452e-05 0)
(0.100016 -3.67306e-05 0)
(0.100021 -4.92394e-05 0)
(0.0999983 -3.15676e-07 0)
(0.0999984 -9.65465e-07 0)
(0.0999985 -1.64043e-06 0)
(0.0999986 -2.37478e-06 0)
(0.0999988 -3.15994e-06 0)
(0.099999 -4.05335e-06 0)
(0.0999994 -5.0104e-06 0)
(0.0999998 -6.15245e-06 0)
(0.1 -7.35685e-06 0)
(0.100001 -8.89341e-06 0)
(0.100002 -1.044e-05 0)
(0.100002 -1.25978e-05 0)
(0.100003 -1.45789e-05 0)
(0.100004 -1.77241e-05 0)
(0.100005 -2.01477e-05 0)
(0.100007 -2.48969e-05 0)
(0.100008 -2.75067e-05 0)
(0.100011 -3.49717e-05 0)
(0.100012 -3.67745e-05 0)
(0.100015 -4.91079e-05 0)
(0.099999 -3.32892e-07 0)
(0.099999 -1.01504e-06 0)
(0.0999991 -1.71807e-06 0)
(0.0999992 -2.48159e-06 0)
(0.0999993 -3.29622e-06 0)
(0.0999994 -4.23117e-06 0)
(0.0999996 -5.24213e-06 0)
(0.0999999 -6.45934e-06 0)
(0.1 -7.75684e-06 0)
(0.100001 -9.406e-06 0)
(0.100001 -1.10827e-05 0)
(0.100001 -1.33897e-05 0)
(0.100002 -1.5526e-05 0)
(0.100003 -1.88494e-05 0)
(0.100003 -2.14443e-05 0)
(0.100004 -2.639e-05 0)
(0.100005 -2.91567e-05 0)
(0.100006 -3.6822e-05 0)
(0.100007 -3.87283e-05 0)
(0.100009 -5.12726e-05 0)
(0.0999997 -3.41589e-07 0)
(0.0999997 -1.03916e-06 0)
(0.0999997 -1.75669e-06 0)
(0.0999997 -2.53739e-06 0)
(0.0999998 -3.37369e-06 0)
(0.0999998 -4.33665e-06 0)
(0.0999999 -5.38163e-06 0)
(0.1 -6.63718e-06 0)
(0.1 -7.97407e-06 0)
(0.1 -9.66229e-06 0)
(0.1 -1.13787e-05 0)
(0.1 -1.37222e-05 0)
(0.100001 -1.58984e-05 0)
(0.100001 -1.92576e-05 0)
(0.100001 -2.1895e-05 0)
(0.100001 -2.68695e-05 0)
(0.100002 -2.96769e-05 0)
(0.100002 -3.73479e-05 0)
(0.100002 -3.92843e-05 0)
(0.100003 -5.17715e-05 0)
(0.1 -3.4287e-07 0)
(0.1 -1.03921e-06 0)
(0.1 -1.75702e-06 0)
(0.1 -2.53614e-06 0)
(0.1 -3.37303e-06 0)
(0.1 -4.33533e-06 0)
(0.1 -5.38152e-06 0)
(0.1 -6.63725e-06 0)
(0.0999999 -7.97386e-06 0)
(0.0999998 -9.66283e-06 0)
(0.0999997 -1.13778e-05 0)
(0.0999995 -1.37213e-05 0)
(0.0999993 -1.58989e-05 0)
(0.0999991 -1.92579e-05 0)
(0.0999989 -2.18951e-05 0)
(0.0999986 -2.68706e-05 0)
(0.0999983 -2.96781e-05 0)
(0.0999979 -3.73471e-05 0)
(0.0999977 -3.92821e-05 0)
(0.0999971 -5.177e-05 0)
(0.100001 -3.3511e-07 0)
(0.100001 -1.01584e-06 0)
(0.100001 -1.71826e-06 0)
(0.100001 -2.47933e-06 0)
(0.100001 -3.2949e-06 0)
(0.100001 -4.22919e-06 0)
(0.1 -5.24202e-06 0)
(0.1 -6.46042e-06 0)
(0.0999998 -7.75669e-06 0)
(0.0999995 -9.4073e-06 0)
(0.0999991 -1.10821e-05 0)
(0.0999985 -1.33877e-05 0)
(0.099998 -1.55258e-05 0)
(0.0999973 -1.88491e-05 0)
(0.0999967 -2.14445e-05 0)
(0.0999957 -2.63911e-05 0)
(0.099995 -2.91577e-05 0)
(0.0999936 -3.68176e-05 0)
(0.0999931 -3.87214e-05 0)
(0.0999912 -5.12646e-05 0)
(0.100002 -3.16662e-07 0)
(0.100002 -9.66602e-07 0)
(0.100002 -1.63972e-06 0)
(0.100001 -2.37478e-06 0)
(0.100001 -3.15911e-06 0)
(0.100001 -4.05375e-06 0)
(0.100001 -5.01003e-06 0)
(0.1 -6.15478e-06 0)
(0.0999997 -7.35768e-06 0)
(0.0999991 -8.89432e-06 0)
(0.0999985 -1.04419e-05 0)
(0.0999976 -1.25983e-05 0)
(0.0999968 -1.45787e-05 0)
(0.0999956 -1.77241e-05 0)
(0.0999945 -2.01493e-05 0)
(0.0999929 -2.48992e-05 0)
(0.0999917 -2.75091e-05 0)
(0.0999894 -3.49706e-05 0)
(0.0999885 -3.67721e-05 0)
(0.0999853 -4.91052e-05 0)
(0.100002 -2.85681e-07 0)
(0.100002 -8.78387e-07 0)
(0.100002 -1.50278e-06 0)
(0.100002 -2.20508e-06 0)
(0.100002 -2.975e-06 0)
(0.100001 -3.87946e-06 0)
(0.100001 -4.86157e-06 0)
(0.1 -6.04626e-06 0)
(0.0999998 -7.29454e-06 0)
(0.099999 -8.8723e-06 0)
(0.0999981 -1.0455e-05 0)
(0.0999969 -1.26371e-05 0)
(0.0999957 -1.46226e-05 0)
(0.0999941 -1.77649e-05 0)
(0.0999926 -2.01604e-05 0)
(0.0999903 -2.48922e-05 0)
(0.0999887 -2.74528e-05 0)
(0.0999853 -3.49377e-05 0)
(0.0999843 -3.67236e-05 0)
(0.0999793 -4.92255e-05 0)
(0.100003 -2.51565e-07 0)
(0.100003 -7.43403e-07 0)
(0.100003 -1.20771e-06 0)
(0.100002 -1.67891e-06 0)
(0.100002 -2.15618e-06 0)
(0.100002 -2.7157e-06 0)
(0.100001 -3.31599e-06 0)
(0.1 -4.0872e-06 0)
(0.0999995 -4.90417e-06 0)
(0.0999985 -6.02599e-06 0)
(0.0999973 -7.13585e-06 0)
(0.0999959 -8.82531e-06 0)
(0.0999944 -1.03111e-05 0)
(0.0999923 -1.29285e-05 0)
(0.0999904 -1.4813e-05 0)
(0.0999874 -1.9004e-05 0)
(0.0999853 -2.10879e-05 0)
(0.0999811 -2.80443e-05 0)
(0.0999793 -2.94665e-05 0)
(0.0999733 -4.15195e-05 0)
(0.100004 -2.87123e-07 0)
(0.100004 -9.17108e-07 0)
(0.100004 -1.62204e-06 0)
(0.100003 -2.42308e-06 0)
(0.100003 -3.29264e-06 0)
(0.100003 -4.26181e-06 0)
(0.100002 -5.28068e-06 0)
(0.100001 -6.4492e-06 0)
(0.1 -7.6488e-06 0)
(0.0999991 -9.12873e-06 0)
(0.0999978 -1.05638e-05 0)
(0.099996 -1.25377e-05 0)
(0.0999942 -1.42661e-05 0)
(0.0999916 -1.70777e-05 0)
(0.0999895 -1.91049e-05 0)
(0.0999856 -2.34092e-05 0)
(0.0999833 -2.55638e-05 0)
(0.0999776 -3.26404e-05 0)
(0.099976 -3.41535e-05 0)
(0.0999673 -4.64394e-05 0)
(0.100004 -1.24336e-08 0)
(0.100004 1.95158e-09 0)
(0.100004 7.09621e-08 0)
(0.100003 1.47164e-07 0)
(0.100003 2.12158e-07 0)
(0.100002 2.04736e-07 0)
(0.100001 1.50236e-07 0)
(0.100001 -3.39442e-08 0)
(0.0999994 -2.41812e-07 0)
(0.0999981 -7.14305e-07 0)
(0.0999966 -1.12719e-06 0)
(0.0999946 -2.04752e-06 0)
(0.0999926 -2.71182e-06 0)
(0.0999897 -4.41504e-06 0)
(0.0999871 -5.34006e-06 0)
(0.0999828 -8.47918e-06 0)
(0.0999798 -9.53721e-06 0)
(0.0999734 -1.54574e-05 0)
(0.0999707 -1.60997e-05 0)
(0.0999614 -2.75936e-05 0)
(0.100005 -3.96304e-07 0)
(0.100005 -1.29784e-06 0)
(0.100005 -2.29819e-06 0)
(0.100005 -3.3573e-06 0)
(0.100005 -4.41124e-06 0)
(0.100004 -5.49728e-06 0)
(0.100003 -6.57334e-06 0)
(0.100002 -7.7425e-06 0)
(0.100001 -8.89184e-06 0)
(0.0999996 -1.02589e-05 0)
(0.099998 -1.15312e-05 0)
(0.0999957 -1.32419e-05 0)
(0.0999936 -1.4648e-05 0)
(0.0999901 -1.69944e-05 0)
(0.0999875 -1.85051e-05 0)
(0.0999821 -2.2101e-05 0)
(0.0999791 -2.35628e-05 0)
(0.0999706 -2.97503e-05 0)
(0.0999684 -3.06256e-05 0)
(0.0999544 -4.22196e-05 0)
(0.100006 3.95462e-07 0)
(0.100005 1.21251e-06 0)
(0.100005 2.02782e-06 0)
(0.100004 2.79377e-06 0)
(0.100004 3.51859e-06 0)
(0.100003 4.16179e-06 0)
(0.100002 4.79561e-06 0)
(0.100001 5.30248e-06 0)
(0.1 5.8407e-06 0)
(0.0999984 6.23415e-06 0)
(0.0999967 6.69763e-06 0)
(0.0999943 6.8584e-06 0)
(0.0999921 7.2687e-06 0)
(0.0999884 6.98967e-06 0)
(0.0999855 7.40494e-06 0)
(0.0999799 6.17465e-06 0)
(0.0999764 6.72269e-06 0)
(0.0999674 3.18808e-06 0)
(0.0999642 3.99397e-06 0)
(0.09995 -5.44718e-06 0)
(0.100007 -8.74185e-07 0)
(0.100007 -2.37307e-06 0)
(0.100007 -3.59495e-06 0)
(0.100007 -4.67196e-06 0)
(0.100006 -5.69104e-06 0)
(0.100005 -6.74698e-06 0)
(0.100005 -7.78712e-06 0)
(0.100003 -8.92849e-06 0)
(0.100002 -1.00056e-05 0)
(0.1 -1.11992e-05 0)
(0.0999988 -1.22724e-05 0)
(0.0999961 -1.36219e-05 0)
(0.0999941 -1.46563e-05 0)
(0.0999898 -1.63358e-05 0)
(0.0999874 -1.72182e-05 0)
(0.0999803 -1.9631e-05 0)
(0.0999779 -2.00845e-05 0)
(0.0999653 -2.43101e-05 0)
(0.0999638 -2.39287e-05 0)
(0.0999402 -3.32033e-05 0)
)
;

boundaryField
{
    sides
    {
        type            calculated;
        value           nonuniform List<vector> 
40
(
(0.100007 0 0)
(0.100007 0 0)
(0.100007 0 0)
(0.100007 0 0)
(0.100006 0 0)
(0.100005 0 0)
(0.100005 0 0)
(0.100003 0 0)
(0.100002 0 0)
(0.1 0 0)
(0.0999988 0 0)
(0.0999961 0 0)
(0.0999941 0 0)
(0.0999898 0 0)
(0.0999874 0 0)
(0.0999803 0 0)
(0.0999779 0 0)
(0.0999653 0 0)
(0.0999638 0 0)
(0.0999402 0 0)
(0.0999931 0 0)
(0.099993 0 0)
(0.0999931 0 0)
(0.0999934 0 0)
(0.0999939 0 0)
(0.0999947 0 0)
(0.0999955 0 0)
(0.0999966 0 0)
(0.0999978 0 0)
(0.0999996 0 0)
(0.100001 0 0)
(0.100004 0 0)
(0.100006 0 0)
(0.10001 0 0)
(0.100013 0 0)
(0.10002 0 0)
(0.100022 0 0)
(0.100035 0 0)
(0.100036 0 0)
(0.10006 0 0)
)
;
    }
    inlet
    {
        type            calculated;
        value           nonuniform List<vector> 
20
(
(0.0999931 0 0)
(0.0999943 0 0)
(0.0999948 0 0)
(0.0999956 0 0)
(0.0999962 0 0)
(0.0999969 0 0)
(0.0999976 0 0)
(0.0999983 0 0)
(0.099999 0 0)
(0.0999997 0 0)
(0.1 0 0)
(0.100001 0 0)
(0.100002 0 0)
(0.100002 0 0)
(0.100003 0 0)
(0.100004 0 0)
(0.100004 0 0)
(0.100005 0 0)
(0.100006 0 0)
(0.100007 0 0)
)
;
    }
    outlet
    {
        type            calculated;
        value           nonuniform List<vector> 
20
(
(0.100061 -3.31907e-05 0)
(0.10005 -5.46054e-06 0)
(0.100046 -4.22274e-05 0)
(0.100039 -2.75987e-05 0)
(0.100033 -4.64535e-05 0)
(0.100027 -4.15197e-05 0)
(0.100021 -4.92394e-05 0)
(0.100015 -4.9108e-05 0)
(0.100009 -5.12726e-05 0)
(0.100003 -5.17715e-05 0)
(0.099997 -5.177e-05 0)
(0.0999911 -5.12646e-05 0)
(0.0999852 -4.91052e-05 0)
(0.0999792 -4.92254e-05 0)
(0.0999731 -4.15194e-05 0)
(0.099967 -4.64392e-05 0)
(0.0999611 -2.75935e-05 0)
(0.0999539 -4.22194e-05 0)
(0.0999495 -5.44715e-06 0)
(0.0999394 -3.32031e-05 0)
)
;
    }
    frontAndBack
    {
        type            empty;
    }
}


// ************************************************************************* //
