/*--------------------------------*- C++ -*----------------------------------*\
  =========                 |
  \\      /  F ield         | OpenFOAM: The Open Source CFD Toolbox
   \\    /   O peration     | Website:  https://openfoam.org
    \\  /    A nd           | Version:  7
     \\/     M anipulation  |
\*---------------------------------------------------------------------------*/
FoamFile
{
    version     2.0;
    format      ascii;
    class       volScalarField;
    location    "200";
    object      epsilon;
}
// * * * * * * * * * * * * * * * * * * * * * * * * * * * * * * * * * * * * * //

dimensions      [0 2 -3 0 0 0 0];

internalField   nonuniform List<scalar> 
120313
(
134.726
134.786
132.882
129.798
124.987
118.57
112.158
105.552
98.8019
93.2331
89.2776
85.6137
82.2762
78.8958
75.6569
72.3221
68.8143
64.6539
60.1056
55.4192
50.8833
46.3134
41.339
39.5238
134.263
131.854
130.464
126.786
121.379
116.005
109.86
103.51
97.4376
91.9353
87.4178
83.4152
79.8876
76.4335
73.1741
69.9632
66.7953
63.3884
59.5962
55.3335
51.0587
46.4471
41.6425
41.4522
129.34
125.188
124.431
121.668
116.161
110.314
104.277
98.0375
92.0467
86.6466
82.2008
78.2745
74.9451
71.7647
68.7535
65.849
63.0476
60.1635
57.0684
53.3644
49.4698
45.0453
40.702
40.8432
127.767
123.035
122.285
119.991
114.486
108.378
102.208
95.87
89.8495
84.4756
79.8458
75.9961
72.6573
69.5008
66.5353
63.744
61.0753
58.4454
55.8031
52.5965
49.025
44.8703
40.6558
40.8094
127.921
122.985
122.06
119.886
114.466
108.268
101.879
95.5435
89.3182
83.9557
79.0995
75.26
71.8764
68.6963
65.6623
62.8599
60.2146
57.6585
55.1966
52.3491
49.0638
45.0859
40.9525
41.0417
129.662
124.91
123.777
121.471
116.027
109.702
103.226
96.7572
90.3765
84.9119
79.9558
76.0058
72.5506
69.3079
66.201
63.3402
60.6418
58.0203
55.5646
52.828
49.7362
45.7758
41.6552
41.4585
134.91
131.442
129.8
126.713
121.294
114.782
108.016
101.236
94.599
88.794
83.6977
79.5587
75.9571
72.564
69.3399
66.326
63.4821
60.6601
58.0475
55.1651
52.063
48.0381
43.5155
42.7892
136.662
134.482
132.306
128.947
124.139
117.55
110.149
103.289
96.3391
89.7045
84.3907
80.4482
76.9613
73.7895
70.8754
68.0285
65.3407
62.6783
60.0508
57.0455
53.7311
49.6196
44.4127
42.0377
13.7731
35.8118
57.1798
77.6571
95.1767
107.861
115.192
121.351
118.681
114.544
113.676
111.893
108.948
105.368
101.191
96.5757
91.7648
86.9214
82.386
78.2433
74.1728
70.2455
66.3613
62.4363
58.5247
54.5821
50.6278
46.7677
43.0757
39.6443
36.4968
33.6101
30.9921
28.6803
26.093
23.7199
17.6062
38.7254
59.5647
79.172
95.4157
106.567
112.924
119.203
115.701
120.139
120.478
119.355
116.232
111.628
106.589
101.648
96.2711
90.9979
85.8358
81.1825
76.5174
72.2947
68.1853
64.2748
60.5023
56.819
53.1429
49.4656
45.8428
42.3416
39.0244
35.8996
33.2603
31.0762
30.1197
27.6173
22.9233
43.3895
63.418
81.9295
96.7917
106.594
112.122
117.92
114.608
120.4
122.032
121.401
117.454
113.271
108.092
102.925
97.3737
91.9176
86.6579
81.8499
77.2056
72.9391
68.8292
64.9714
61.2999
57.7519
54.2699
50.7454
47.1979
43.7072
40.3023
37.0295
34.2004
32.036
30.9295
28.4706
27.415
47.523
66.8219
84.3733
98.186
107.027
111.972
117.097
113.136
119.486
121.932
121.291
117.912
113.205
108.104
102.689
96.9933
91.3988
86.0987
81.2078
76.6086
72.3316
68.3433
64.5725
61.0032
57.5919
54.2764
50.9346
47.5382
44.1075
40.7403
37.4084
34.4697
32.005
30.7667
28.0583
30.4993
50.3715
69.1663
86.0308
99.152
107.378
111.937
116.606
112.28
118.946
121.768
121.07
117.93
112.937
107.825
102.173
96.4603
90.7899
85.4559
80.4442
75.8892
71.5808
67.6534
63.9893
60.5079
57.2215
54.0457
50.8743
47.6239
44.3175
40.9777
37.6733
34.4677
31.8592
30.4831
27.5195
32.1018
51.8757
70.3611
86.8336
99.5743
107.495
111.91
116.461
112.074
118.842
121.666
120.892
117.832
112.756
107.656
101.834
96.1364
90.3826
85.0183
79.9055
75.377
71.0266
67.1003
63.4807
60.062
56.8528
53.775
50.7395
47.6198
44.4286
41.1672
37.852
34.6582
31.9037
30.3983
27.2892
32.2479
51.9962
70.4249
86.8278
99.5087
107.42
111.902
116.627
112.461
119.123
121.556
120.68
117.551
112.498
107.408
101.553
95.8641
90.1223
84.7515
79.6268
75.1037
70.7436
66.8021
63.1806
59.8162
56.626
53.5919
50.6192
47.5898
44.4758
41.2866
37.9648
34.906
32.0559
30.4759
27.3201
30.9604
50.7235
69.3866
86.0669
99.0268
107.242
112.03
117.294
113.677
119.547
121.035
120.006
116.578
111.767
106.519
100.813
95.212
89.6064
84.2917
79.2385
74.7314
70.409
66.4864
62.9006
59.5903
56.4172
53.3947
50.4359
47.4411
44.3827
41.2392
37.9336
35.0045
32.1759
30.6308
27.5644
28.0402
48.0397
67.2307
84.5784
98.2074
107.072
112.373
118.295
114.792
118.706
118.611
117.157
113.866
109.616
103.898
98.5233
93.0375
87.666
82.4781
77.6489
73.2474
69.1398
65.3417
61.8736
58.693
55.6021
52.6359
49.6986
46.7644
43.7318
40.6433
37.453
34.5132
31.7435
30.478
27.8772
23.2931
43.7923
63.7839
82.1551
96.8947
106.789
112.797
119.489
116.104
117.453
115.768
113.626
110.132
105.891
101.1
96.1362
90.8915
85.83
80.9245
76.2845
72.143
68.2919
64.4724
60.995
57.9765
54.9857
51.9866
49.0124
46.0202
43.0636
40.0799
37.2732
34.4225
31.2616
30.3211
28.0645
17.4742
38.7327
59.579
79.0688
95.2492
106.56
113.473
120.684
116.735
113.705
112.098
109.745
106.493
102.649
98.38
93.8595
88.7861
83.7633
78.9513
74.5804
70.6204
66.9189
63.394
60.0287
56.8503
53.7642
50.7309
47.6652
44.5545
41.3885
38.252
35.2214
32.3957
29.8288
27.466
25.037
13.1773
35.6997
56.9173
77.1095
94.3885
107.169
114.881
120.103
120.638
115.821
113.794
111.059
107.583
103.6
99.2022
94.436
89.3475
84.1848
79.319
74.8352
70.5999
66.5636
62.7276
59.0552
55.5683
52.1932
48.8332
45.3957
41.8898
38.3463
34.8865
31.6485
28.6249
25.6549
22.7889
20.0504
178.474
173.579
168.72
161.714
153.915
144.867
136.034
126.725
118.013
109.202
101.212
93.5779
86.7131
80.1179
74.1115
68.41
63.0648
57.9329
52.8838
48.1189
43.3805
39.0138
34.455
30.8611
15.2868
32.6647
55.4717
81.6845
107.91
131.132
149.31
159.716
162.348
174.32
169.89
165.055
158.298
150.807
142.29
133.808
124.9
116.523
108.027
100.285
92.7863
86.0955
79.7065
73.9014
68.2924
63.0907
58.0787
53.2007
48.4701
43.9026
39.4932
35.3863
31.1437
27.5942
25.0862
19.997
18.9703
35.9584
59.263
85.5361
111.452
133.972
150.878
158.889
160.175
173.555
168.557
163.693
156.966
149.408
141.284
132.886
124.159
115.631
107.223
99.5996
92.2831
85.7243
79.5373
73.9885
68.6005
63.6115
58.7732
54.1753
49.6789
45.2515
41.1381
37.1945
33.4542
30.0289
26.6207
23.426
23.5196
40.982
64.9398
91.3653
116.916
138.63
154.3
160.435
160.425
175.024
169.764
164.55
157.413
149.628
141.275
132.655
123.834
115.321
107.182
99.6326
92.4175
85.7607
79.616
74.2002
68.9501
64.1207
59.3963
54.9195
50.6051
46.2048
42.2152
38.2317
34.7029
31.4195
28.3384
24.6155
27.3462
45.5939
70.1391
96.7285
121.914
142.88
157.544
162.384
161.507
176.332
170.895
165.398
157.965
149.876
141.334
132.516
123.617
115.072
106.982
99.4643
92.4322
85.8657
79.6875
74.2142
69.0382
64.3443
59.7378
55.3695
51.153
46.9
42.9656
38.9946
35.5305
32.1277
29.2726
25.43
30.0037
48.8703
73.8474
100.537
125.421
145.805
159.749
163.762
162.377
177.056
171.532
165.915
158.357
150.121
141.438
132.527
123.58
114.974
106.861
99.3004
92.2828
85.7596
79.7043
74.1671
69.0014
64.3958
59.8937
55.638
51.489
47.3915
43.493
39.5607
36.0897
32.5568
29.8256
25.9489
31.3851
50.6151
75.8071
102.52
127.212
147.255
160.81
164.394
162.766
177.192
171.638
166.024
158.515
150.228
141.6
132.635
123.785
115.071
106.912
99.2553
92.1989
85.6293
79.6239
74.0578
68.9672
64.3615
59.9345
55.7851
51.7062
47.7176
43.9013
39.95
36.4768
32.8292
30.1789
26.2316
31.5019
50.7547
75.9463
102.637
127.29
147.291
160.807
164.348
162.614
176.71
171.185
165.628
158.213
149.975
141.404
132.468
123.758
115.098
106.974
99.3292
92.2791
85.6898
79.6791
74.125
69.0183
64.3508
59.9611
55.8744
51.8578
47.8972
44.1649
40.2125
36.7186
32.9819
30.3188
26.3466
30.3472
49.2523
74.2437
100.889
125.687
145.969
159.814
163.687
161.906
175.404
169.961
164.556
157.313
149.214
140.674
131.941
123.404
114.919
106.908
99.336
92.3217
85.7522
79.7482
74.1912
69.0202
64.3354
59.9458
55.8695
51.8735
47.9216
44.2084
40.2826
36.7579
32.9841
30.2585
26.2623
27.7822
46.071
70.6701
97.2451
122.368
143.258
157.838
162.46
160.742
173.201
167.938
162.707
155.838
148.027
139.6
131.121
122.722
114.454
106.491
99.0007
92.0136
85.5331
79.5461
73.9841
68.7528
63.9755
59.6877
55.5272
51.6005
47.6268
43.9287
40.0552
36.4918
32.7293
29.8687
25.8785
23.8076
41.3365
65.3739
91.8227
117.363
139.094
154.843
160.847
159.591
171.362
166.438
161.342
154.662
147.025
138.854
130.525
122.215
114.057
106.106
98.6267
91.636
85.1598
79.0964
73.421
68.1821
63.3961
59.0764
54.8795
50.8888
46.9277
43.1143
39.302
35.61
31.9007
28.7136
24.8869
19.0469
36.1894
59.5581
85.8278
111.707
134.244
151.402
159.681
160.287
173.022
168.686
163.78
157.106
149.319
141.016
132.412
123.786
115.192
106.921
99.1329
91.8261
85
78.7101
72.7678
67.4207
62.4759
57.9223
53.5555
49.3005
45.2176
41.0172
37.2184
32.989
29.7732
27.1399
23.008
15.2767
33.0236
55.9155
82.0786
108.125
131.128
149.262
159.848
163.415
176.597
173.216
168.345
161.471
153.019
144.324
135.012
125.961
116.736
108.121
99.7285
92.0835
84.8255
78.3105
72.1373
66.5794
61.4336
56.6703
52.1313
47.6881
43.4611
39.0242
35.1641
30.7516
27.575
24.4415
19.8738
216.888
205.665
195.935
182.054
171.949
155.773
146.19
131.132
122.324
108.739
101.053
89.4446
82.8981
73.0931
67.4376
59.5755
54.4687
47.8848
41.6782
36.0347
30.192
25.4518
19.8883
16.9634
15.0503
31.1581
55.5621
86.5996
119.602
150.559
176.682
196.536
213.107
220.469
208.785
197.041
183.242
172.045
156.863
147.452
132.808
124.169
110.954
103.369
91.9198
85.4925
75.7644
70.1852
61.8317
56.9018
50.4359
44.8304
38.6973
33.0632
27.6154
22.8362
17.5155
14.001
12.6495
9.05135
18.9418
36.0449
62.7643
95.2293
128.845
159.908
185.266
203.476
217.372
223.656
209.441
196.956
184.139
171.471
158.689
146.64
134.706
123.684
111.727
103.62
92.9288
86.8132
77.3674
72.0344
63.8474
59.0244
51.9741
47.7038
41.5581
35.9875
30.5658
25.962
20.9713
16.9976
12.9755
10.3092
23.0446
42.0512
71.2395
105.232
139.603
170.489
194.428
210.324
221.216
226.803
211.137
197.848
184.742
171.555
158.59
146.243
134.48
123.497
113.241
103.926
94.5332
87.0093
78.0938
73.0039
65.111
60.4922
53.4798
49.3746
43.809
38.2961
33.1399
28.4483
24.0896
20.0856
16.2136
12.6798
26.3966
47.2651
78.7139
114.326
149.387
179.657
201.847
215.775
224.645
229.721
213.504
199.706
185.861
172.287
159.064
146.536
134.785
123.887
113.769
104.458
95.8423
87.8264
79.8002
73.4019
65.8119
61.4262
54.5962
50.4929
44.8803
40.3747
35.1687
30.4866
26.3641
22.2828
18.4284
14.4809
28.6763
50.8757
84.0142
120.85
156.294
185.904
206.805
219.525
227.122
231.478
215.162
201.105
187.05
173.452
159.98
147.417
135.584
124.68
114.539
105.14
96.52
88.498
81.047
74.1433
66.5082
62.1034
55.4292
51.4375
45.587
41.8244
36.6799
32.0281
27.9844
23.8489
19.9758
15.8332
29.8621
52.6956
86.6544
124.096
159.726
188.978
209.272
221.431
228.24
232.322
215.931
201.865
187.954
174.204
161.027
148.403
136.774
125.564
115.453
105.811
97.1334
88.9458
81.6155
74.6858
67.7529
62.3936
55.9254
52.0942
46.2694
42.8038
37.9143
33.1803
29.092
24.8731
20.9295
16.6903
29.9279
52.7428
86.6602
124.066
159.699
188.984
209.311
221.484
228.082
231.95
215.813
201.906
188.124
174.571
161.541
148.877
137.365
126.224
116.12
106.511
97.8423
89.6016
82.2428
75.3193
68.8121
62.6228
56.3702
52.6558
46.8673
43.3871
38.6551
34.1679
29.8447
25.4805
21.4207
17.1057
28.8885
51.0376
84.0809
120.825
156.295
186.017
207.036
219.781
226.748
230.66
214.874
201.483
187.991
174.522
161.513
149.084
137.624
126.706
116.722
107.222
98.584
90.3326
82.9558
75.9656
69.3148
63.3772
57.0346
53.2355
47.4161
43.7692
38.9063
34.8663
30.1675
25.6067
21.3784
17.0277
26.6559
47.4616
78.8084
114.317
149.425
179.899
202.334
216.369
224.339
228.634
213.552
200.711
187.917
174.801
161.933
149.631
138.053
127.247
117.178
107.789
99.071
90.947
83.4815
76.342
69.8015
62.6995
58.5644
52.3571
48.512
42.8856
39.4384
34.6653
29.7695
25.1173
20.6589
16.4035
23.2576
42.2976
71.4862
105.443
139.86
170.942
195.209
211.345
221.245
226.032
212.437
200.129
187.825
175.039
162.377
150.118
138.491
127.585
117.352
107.871
99.0665
90.8613
83.2177
75.6104
69.4019
62.237
58.0929
51.6541
47.7684
42.0094
38.4722
33.417
28.0784
23.6444
18.7547
14.9107
19.1364
36.6109
63.6001
96.2785
129.937
160.983
186.438
204.854
217.866
223.67
211.926
200.345
188.288
175.662
163.15
150.731
139.038
127.751
117.323
107.476
98.5032
89.5326
82.3151
73.6815
68.4811
60.995
56.6596
50.0954
46.0898
40.1728
36.259
31.0274
25.1192
21.3665
19.3123
13.7657
15.3199
32.2989
57.3594
88.812
121.767
152.38
178.1
197.998
214.185
220.945
210.69
199.485
188.076
173.957
163.317
148.598
139.349
125.44
117.126
104.82
97.7537
87.2063
81.2536
72.3103
67.275
59.6321
55.2521
48.6299
44.5703
38.521
34.2466
29.0475
23.059
19.5707
17.4981
12.0296
128.928
111.229
97.2887
84.9972
74.5895
65.3797
57.4574
50.1836
44.177
39.1537
34.8733
31.1102
27.7897
24.6407
21.6664
18.8244
16.2019
13.8542
11.7039
9.85627
8.03141
6.62198
5.06324
4.24954
123.044
266.374
301.916
293.828
276.135
259.711
249.002
241.384
222.693
143.458
123.944
107.137
93.2747
81.5675
71.4744
62.8374
55.3041
48.7294
42.8168
37.8124
33.5828
29.9064
26.63
23.5626
20.6216
17.773
15.1412
12.7981
10.7174
8.89373
7.21582
5.79474
4.32948
3.42009
3.17772
2.29377
138.868
285.093
318.211
305.104
285.422
269.021
257.99
251.585
235.08
160.185
138.643
120.409
105.026
91.8151
80.6238
71.0369
62.8275
55.5957
49.3786
43.7338
38.6643
34.0799
30.1144
26.5444
23.3495
20.3005
17.4122
14.7139
12.2734
10.2438
8.37133
6.89822
5.31296
4.19226
3.13573
2.56617
142.939
298.565
327.727
313.184
294.631
280.294
268.662
261.101
245.465
177.278
152.54
132.413
115.511
101.247
89.1353
78.8476
70.299
62.727
56.2593
50.1628
44.6137
39.3321
34.5404
30.1581
26.3194
22.8593
19.7512
16.8056
14.0961
11.7131
9.67121
7.98966
6.45529
5.20614
4.06043
3.22969
151.711
305.98
332.175
319.68
303.154
290.043
277.643
267.942
253.453
190.664
164.826
142.872
124.6
109.301
96.8158
86.2309
77.6296
69.808
62.7262
55.9534
49.773
43.868
38.553
33.5804
29.1898
25.2204
21.7374
18.5857
15.7118
13.1282
10.8819
9.03067
7.42222
6.03066
4.7708
3.77738
154.822
309.242
335.985
324.54
308.999
296.147
282.981
272.741
258.664
199.433
172.251
149.162
130.352
114.924
102.387
92.2164
83.5145
75.2645
67.716
60.422
53.7607
47.3235
41.5845
36.2205
31.4896
27.1988
23.3986
20.0324
17.0439
14.3452
11.9613
9.96254
8.21912
6.69311
5.31353
4.22488
155.25
308.899
336.086
325.677
311.231
298.639
285.454
275.224
261.439
203.681
175.849
152.47
133.319
117.693
105.291
95.1023
86.3001
77.9784
70.3704
62.9611
56.146
49.4669
43.4776
37.8475
32.9427
28.4778
24.547
21.0523
17.982
15.2349
12.7611
10.6586
8.78358
7.14437
5.66654
4.50993
154.926
308.303
335.399
325.007
310.771
298.377
285.38
275.339
261.532
202.865
176.082
152.879
134.035
118.698
106.184
95.9883
87.3469
79.0935
71.5307
64.0402
57.1746
50.4341
44.3783
38.6472
33.6745
29.1258
25.1599
21.6434
18.5544
15.8063
13.2824
11.0949
9.11927
7.39491
5.84787
4.65115
154.842
308.607
334.779
323.295
308.032
295.741
283.184
273.403
259.236
197.837
172.121
150.66
132.341
117.277
104.762
94.488
85.8839
77.7676
70.377
63.1061
56.4742
49.9272
44.0413
38.4325
33.5391
29.0416
25.1401
21.6758
18.6574
15.9414
13.413
11.174
9.13182
7.38261
5.81327
4.61433
151.863
305.566
331.391
318.12
301.789
289.452
277.992
269.185
254.544
187.984
163.999
143.869
127.05
112.576
100.422
89.9787
81.311
73.731
66.8886
60.1856
54.0137
47.8922
42.3488
37.0309
32.3686
28.031
24.3475
21.0372
18.1771
15.5318
13.046
10.8102
8.77176
7.08338
5.52338
4.3883
144.541
299.61
327.703
311.648
292.713
279.246
269.159
262.961
247.894
174.539
152.559
134.057
118.717
105.308
94.0169
84.072
75.5767
68.1218
61.5866
55.5167
49.8806
44.295
39.193
34.2902
29.9956
26.0264
22.6994
19.6985
16.9971
14.4521
12.0016
9.8931
7.9244
6.44069
4.88748
3.91388
142.518
286.985
319.438
306.049
286.448
270.672
260.326
255.44
240.074
160.666
139.939
123.274
109.297
97.3883
87.0174
77.9948
69.9755
62.749
56.3719
50.5448
45.1955
40.071
35.3755
30.9834
27.1852
23.7683
20.8038
18.0402
15.4288
12.9907
10.6079
8.7718
6.8193
5.68187
5.40612
3.93218
123.418
265.175
301.596
294.489
277.07
262.191
251.678
246.133
231.177
150.689
131.535
115.63
102.6
91.5953
82.2207
73.7702
66.2895
59.3491
53.1192
47.3611
42.2069
37.3016
32.9451
28.9454
25.5163
22.4136
19.628
16.983
14.42
12.0599
9.77934
8.06173
6.18127
5.14
4.84389
3.42745
3.88109
4.78201
5.38445
5.74539
5.97582
5.98904
5.92649
5.78662
5.5785
5.3318
5.05757
4.75402
4.41934
4.05554
3.66251
3.24148
2.80585
2.37316
1.97416
1.62607
1.33078
1.0834
0.86356
0.715488
0.00992581
0.0093632
0.00891766
0.00850692
0.00816206
0.0078555
0.00780236
0.0105407
0.0347923
0.151205
0.523862
1.48624
3.3915
4.43046
4.82435
5.94985
6.68589
7.10887
7.32512
7.35282
7.27098
7.08696
6.82807
6.51941
6.14375
5.72117
5.24848
4.75794
4.24762
3.7375
3.21776
2.70851
2.23482
1.82586
1.4854
1.20252
0.962994
0.739405
0.582626
0.533572
0.404729
0.00992947
0.00934701
0.00890824
0.0084574
0.00816643
0.00785475
0.0079387
0.0138937
0.0762407
0.388362
1.42204
3.93879
8.91003
9.36253
8.08932
9.21223
9.92552
10.3925
10.4696
10.4036
10.1928
9.89816
9.50376
9.01486
8.40561
7.68992
6.85166
6.04569
5.28091
4.5946
3.9343
3.32274
2.752
2.24501
1.80985
1.45173
1.15831
0.907324
0.706205
0.540508
0.450716
0.00992901
0.00935057
0.00886666
0.00849166
0.00816174
0.00784945
0.00850798
0.0233653
0.170974
0.850464
3.09809
8.9597
20.3238
18.2327
12.7262
13.7104
14.4765
14.6289
14.5731
14.3312
13.9482
13.4517
12.7363
11.8198
10.6274
9.49802
8.36922
7.34793
6.38857
5.56095
4.78016
4.06339
3.39172
2.7901
2.2598
1.80547
1.42765
1.11585
0.879591
0.696483
0.574008
0.00991123
0.00931459
0.00888008
0.00848315
0.00816389
0.00787643
0.0134411
0.0465206
0.295547
1.44593
5.53991
16.269
35.2638
28.8168
17.2448
18.1958
18.8587
18.7827
18.5367
18.2239
17.3407
16.5336
15.1327
13.7214
12.2741
10.934
9.61793
8.4345
7.31192
6.33152
5.43748
4.65682
3.91646
3.24778
2.65142
2.1361
1.7039
1.341
1.05759
0.830301
0.682667
0.00991107
0.00933301
0.00889263
0.00851131
0.00816699
0.00788406
0.0192869
0.0828878
0.429963
2.08143
8.28627
23.439
49.1328
37.3889
20.7972
21.395
21.6562
21.4804
21.4627
20.1359
19.5802
18.3261
16.7566
15.1884
13.5722
12.0771
10.6054
9.28984
8.04893
6.96527
5.97417
5.11598
4.33839
3.62567
2.98086
2.41841
1.94237
1.53832
1.21538
0.947048
0.772776
0.00991109
0.00932352
0.00888688
0.00849367
0.00817256
0.00796233
0.0255538
0.127306
0.556357
2.59651
10.235
28.2152
57.2114
42.4434
22.4432
23.2716
23.2447
23.0664
22.6046
22.0048
20.6409
19.2457
17.496
15.9027
14.2237
12.7007
11.1975
9.81651
8.50613
7.36379
6.319
5.41675
4.60808
3.8784
3.20832
2.61543
2.10873
1.67305
1.32272
1.02559
0.832914
0.00991126
0.00932287
0.00888025
0.00849518
0.00816447
0.00797472
0.0267003
0.136939
0.578513
2.66327
10.3938
28.4793
57.6102
42.2002
21.9026
22.7737
23.0091
22.8423
22.6019
21.6735
20.7061
19.3288
17.718
16.1248
14.5164
12.9867
11.4369
10.0337
8.69596
7.53242
6.46851
5.55523
4.74023
4.00955
3.33292
2.72613
2.20223
1.74699
1.38042
1.06683
0.863947
0.00992714
0.009363
0.00890395
0.00850153
0.00816907
0.00791074
0.0212112
0.0967506
0.458272
2.15962
8.41899
23.6211
49.7251
37.0756
19.2422
20.2781
21.0221
21.1866
21.0361
20.7864
19.7667
18.8015
17.2521
15.7319
14.1447
12.6694
11.1849
9.84298
8.55127
7.42306
6.38355
5.49556
4.70161
3.9845
3.31976
2.71799
2.19567
1.73883
1.37014
1.05668
0.854548
0.00991106
0.00933249
0.00890699
0.00847543
0.00816645
0.00787312
0.0150626
0.0590091
0.324147
1.5342
5.75968
16.8033
36.5391
28.4188
15.3701
16.445
17.2204
17.8007
17.7743
17.5929
17.1942
16.6786
15.7186
14.5182
13.1344
11.8275
10.4858
9.26178
8.06911
7.01946
6.05032
5.22374
4.46932
3.78345
3.14807
2.5714
2.06947
1.63254
1.2789
0.987946
0.800316
0.00991119
0.00932751
0.0088797
0.00849176
0.00815486
0.00785902
0.00886532
0.0249307
0.181731
0.911646
3.34198
9.75097
22.8793
18.6813
11.0949
12.2381
13.042
13.7091
13.9392
13.9864
13.8458
13.58
13.1523
12.54
11.6554
10.566
9.41314
8.33206
7.27486
6.33952
5.48289
4.72421
4.02242
3.38353
2.7927
2.25914
1.80453
1.41805
1.12091
0.8696
0.708436
0.00992954
0.00935193
0.00887037
0.00850187
0.00817055
0.0078557
0.00793154
0.0137787
0.0752016
0.390125
1.4863
4.55377
11.6823
11.0895
7.48242
8.65815
9.51911
10.1182
10.6417
10.8385
10.8587
10.7494
10.5211
10.1711
9.67073
9.01703
8.20347
7.28374
6.36633
5.54295
4.78453
4.11035
3.47885
2.89162
2.36179
1.8975
1.5228
1.19846
0.988572
0.914041
0.688328
0.00989969
0.00932152
0.00887638
0.00849973
0.00815094
0.00784475
0.00814975
0.0109611
0.0362547
0.170137
0.648288
2.17953
6.43512
7.54878
5.85058
6.96097
7.83584
8.45047
8.90348
9.28152
9.32885
9.26935
9.09797
8.83519
8.44963
7.94358
7.29763
6.54619
5.73708
5.01423
4.34006
3.7218
3.14559
2.62218
2.14441
1.71768
1.37271
1.07659
0.884928
0.815037
0.622345
0.0096455
0.0144484
0.0207251
0.0280898
0.0362443
0.0446639
0.0532527
0.0616239
0.0691264
0.0754921
0.080631
0.0842922
0.0864354
0.0868162
0.0854689
0.0822562
0.0775494
0.071639
0.0652904
0.0588305
0.0527092
0.047002
0.042002
0.0385321
0.00995508
0.00952668
0.00910845
0.00871315
0.00834488
0.00800297
0.007682
0.00738249
0.00710407
0.00684217
0.00659651
0.00637082
0.00617059
0.00590301
0.0104817
0.0181758
0.0279515
0.0390177
0.0508769
0.0631976
0.0758973
0.0880586
0.0988289
0.107834
0.11469
0.119104
0.120914
0.120277
0.117287
0.112281
0.105365
0.0972867
0.0884888
0.0796337
0.0709667
0.0627353
0.054671
0.0463253
0.041015
0.0384357
0.0335693
0.00995121
0.0095181
0.0091058
0.00871466
0.0083482
0.00800447
0.00768168
0.00738374
0.00710633
0.00684508
0.00660065
0.00637347
0.00617808
0.00591237
0.0172859
0.033678
0.0533938
0.0751999
0.0982376
0.122504
0.146108
0.167415
0.185366
0.198972
0.206719
0.209589
0.207024
0.201132
0.19239
0.181964
0.169739
0.156533
0.142427
0.12826
0.114105
0.100344
0.0867127
0.0735965
0.0629869
0.0561221
0.0519973
0.00995229
0.00951839
0.00910713
0.00871697
0.00834954
0.00800489
0.00768544
0.00738878
0.00711034
0.00684626
0.00660201
0.00638051
0.00618756
0.00596038
0.0312623
0.063159
0.099821
0.14001
0.183588
0.226797
0.264215
0.294725
0.316349
0.329066
0.333256
0.330384
0.321102
0.307613
0.290477
0.271604
0.251222
0.230331
0.208963
0.187924
0.167258
0.147454
0.128538
0.111254
0.0969942
0.0852221
0.0758672
0.00995197
0.00951812
0.00910667
0.00871527
0.00834567
0.00800254
0.00768434
0.0073866
0.0071084
0.00684686
0.0066047
0.00638914
0.00619051
0.00607523
0.0513929
0.10397
0.163723
0.230291
0.295449
0.352613
0.397885
0.432681
0.453673
0.463716
0.463119
0.45426
0.437886
0.416579
0.391025
0.363534
0.334495
0.305444
0.27634
0.248165
0.220901
0.195168
0.17108
0.149644
0.130816
0.113147
0.0985241
0.00995143
0.0095172
0.00910511
0.00871295
0.0083417
0.00799806
0.00768145
0.00738471
0.00710542
0.00684379
0.00660709
0.00639171
0.00620705
0.00623987
0.0715152
0.144391
0.227099
0.315866
0.395916
0.460946
0.515157
0.552534
0.574589
0.58329
0.579401
0.565574
0.543007
0.514754
0.481816
0.446897
0.41047
0.374305
0.338486
0.30407
0.271006
0.239945
0.211187
0.184841
0.159586
0.135512
0.116258
0.00995054
0.00951611
0.00910443
0.0087118
0.00833963
0.00799535
0.0076792
0.00738311
0.00710591
0.00684394
0.0066063
0.00639578
0.00621384
0.00638986
0.0829472
0.168474
0.266698
0.364083
0.450327
0.525083
0.582674
0.623427
0.64583
0.655544
0.648924
0.630903
0.603644
0.571408
0.534534
0.495576
0.455104
0.415106
0.375622
0.3378
0.30149
0.267326
0.235882
0.205903
0.176781
0.149008
0.127069
0.00995045
0.00951604
0.00910448
0.00871191
0.00833948
0.0079954
0.00768049
0.00738434
0.00710612
0.00684247
0.00660549
0.00639518
0.00621795
0.0063711
0.0790663
0.161177
0.254905
0.354788
0.442098
0.516023
0.577306
0.620029
0.645235
0.655345
0.650444
0.635492
0.611114
0.580071
0.543515
0.504526
0.463819
0.423589
0.383886
0.345869
0.30927
0.274697
0.242373
0.212128
0.182708
0.154377
0.131838
0.00995108
0.00951698
0.0091051
0.00871303
0.00834154
0.00799773
0.00768078
0.00738361
0.00710572
0.00684341
0.00660509
0.0063897
0.00620557
0.00621136
0.0630454
0.128784
0.203016
0.287262
0.366896
0.437619
0.49436
0.538924
0.567046
0.581614
0.582544
0.573708
0.554971
0.529436
0.498125
0.464074
0.42795
0.391976
0.356275
0.321929
0.288617
0.256907
0.226694
0.198927
0.17283
0.147682
0.127336
0.00995178
0.0095177
0.00910613
0.00871472
0.00834468
0.00800071
0.00768258
0.00738464
0.00710558
0.00684466
0.00660235
0.00638161
0.00618469
0.00605706
0.042964
0.0879628
0.139367
0.196842
0.260532
0.320141
0.371366
0.413815
0.444379
0.463114
0.471119
0.469346
0.458323
0.440738
0.417359
0.390937
0.362189
0.333165
0.304043
0.275732
0.247922
0.221203
0.195626
0.171628
0.149379
0.129505
0.11337
0.00995211
0.00951875
0.00910757
0.00871664
0.00834799
0.0080027
0.00768293
0.00738539
0.00710603
0.00684198
0.00659631
0.00637187
0.00617319
0.00595371
0.0262017
0.0528121
0.0842005
0.119589
0.158486
0.201624
0.244002
0.281216
0.311527
0.333749
0.346147
0.350775
0.346851
0.336919
0.321672
0.303415
0.282964
0.261887
0.240223
0.218589
0.196916
0.17592
0.155848
0.137167
0.119868
0.103514
0.0921662
0.00995256
0.00951977
0.00910706
0.0087154
0.00834747
0.00800278
0.00768202
0.00738354
0.00710276
0.00683876
0.00659151
0.0063635
0.00615975
0.0059082
0.0158637
0.0301408
0.0484634
0.0700411
0.0943389
0.120964
0.149627
0.178726
0.204715
0.226165
0.241256
0.249407
0.250681
0.246554
0.237762
0.226354
0.212725
0.198148
0.182192
0.165794
0.148992
0.13282
0.117409
0.103394
0.0931093
0.0868932
0.0738725
0.00995423
0.00952732
0.00910767
0.00871262
0.00834393
0.00800071
0.00768048
0.0073815
0.00709954
0.00683424
0.00658647
0.00635816
0.00615203
0.0058959
0.0117283
0.021071
0.0338276
0.0495656
0.0675893
0.0877087
0.109024
0.131337
0.152941
0.172011
0.18682
0.19644
0.199687
0.198392
0.192971
0.18512
0.174962
0.163267
0.149932
0.136019
0.121815
0.108235
0.0954644
0.0840948
0.0756551
0.0706074
0.0586434
0.00554272
0.00537823
0.00521823
0.00506555
0.00491979
0.00478045
0.00464721
0.00451992
0.00439832
0.00428225
0.0041711
0.00406434
0.00396099
0.0038605
0.00376194
0.00366518
0.00356976
0.00347548
0.00338291
0.00329154
0.00320322
0.00311684
0.00303829
0.0029568
0.00995559
0.00952765
0.00911076
0.00871598
0.00834456
0.00799586
0.0076698
0.0073651
0.00708042
0.00681489
0.00656764
0.00633958
0.00613074
0.00590596
0.00557775
0.00540183
0.00524074
0.0050876
0.00494183
0.00480365
0.00467259
0.0045492
0.00443224
0.00432209
0.00421704
0.00411705
0.00401935
0.00392474
0.00383005
0.00373681
0.00364186
0.00354775
0.00345198
0.00335779
0.0032631
0.00317028
0.00307637
0.00297905
0.00290427
0.00286461
0.00278156
0.00995327
0.00951924
0.00910658
0.00871422
0.00834356
0.00799549
0.00767029
0.00736681
0.00708231
0.00681504
0.00656619
0.00633943
0.00613396
0.00589556
0.00558096
0.00540813
0.00524925
0.00510014
0.00496127
0.00483314
0.00471615
0.00461008
0.00451334
0.00442494
0.00434098
0.00426042
0.00417936
0.00409814
0.00401381
0.00392756
0.00383573
0.0037433
0.00364521
0.00354691
0.00344354
0.00333978
0.00322876
0.00311588
0.00300842
0.00292163
0.0028503
0.00995409
0.00951806
0.00910457
0.00871317
0.00834293
0.00799472
0.00766918
0.00736555
0.00708132
0.00681504
0.0065688
0.00634312
0.00613687
0.00589761
0.0055724
0.0054129
0.00526038
0.00512245
0.00500191
0.00490034
0.00481637
0.00474799
0.00469115
0.00464137
0.00459182
0.00454251
0.00448708
0.00442573
0.0043551
0.00427593
0.00418573
0.0040885
0.00398267
0.0038714
0.00375324
0.00363085
0.00350215
0.00337343
0.00325265
0.00314374
0.00304401
0.00995394
0.00951761
0.00910398
0.00871263
0.00834247
0.00799426
0.00766864
0.00736518
0.00708172
0.00681603
0.0065687
0.00634123
0.00613624
0.00590143
0.0055735
0.00541589
0.00527369
0.00515666
0.00506797
0.00500636
0.00496982
0.00495113
0.00494777
0.00494601
0.00493949
0.00492902
0.00490529
0.00486556
0.00480736
0.00473303
0.00464073
0.00453446
0.00441333
0.00428194
0.00413965
0.00399057
0.00383549
0.00368076
0.00353236
0.00339019
0.00326548
0.00995386
0.00951738
0.00910352
0.00871196
0.00834159
0.00799315
0.00766718
0.00736302
0.00707878
0.00681321
0.006567
0.00634167
0.00613834
0.00591918
0.00557061
0.00542105
0.0052926
0.00520072
0.00514786
0.00513169
0.00514831
0.00518753
0.00524287
0.00529886
0.00534709
0.00538208
0.00539477
0.00538377
0.00534404
0.00527908
0.00518636
0.00507205
0.00493541
0.0047833
0.00461535
0.00443756
0.00424986
0.00406079
0.00387242
0.0036903
0.0035325
0.00995386
0.00951723
0.00910332
0.00871177
0.0083413
0.00799264
0.00766693
0.00736361
0.00708017
0.0068139
0.00656678
0.00634238
0.00614098
0.00591445
0.00557736
0.00541869
0.00530329
0.00522936
0.00519984
0.0052141
0.00526443
0.0053453
0.00543787
0.00552889
0.00561121
0.00567651
0.00571406
0.00572184
0.00569381
0.0056344
0.00554106
0.00542138
0.00527495
0.00511008
0.00492644
0.00473064
0.0045217
0.00430726
0.00409158
0.00388347
0.00370449
0.00995378
0.00951712
0.00910316
0.00871152
0.008341
0.00799229
0.0076665
0.00736297
0.00707909
0.00681269
0.00656567
0.00634105
0.00613961
0.00591624
0.00557724
0.00541658
0.00529772
0.00522069
0.00518802
0.00519887
0.00524767
0.00532886
0.00542201
0.00551465
0.00560196
0.00567443
0.00571982
0.00573494
0.00571368
0.00565989
0.00557144
0.00545578
0.00531278
0.00515072
0.00496907
0.0047742
0.0045641
0.00434696
0.00412759
0.00391573
0.00373399
0.00995366
0.00951699
0.00910304
0.00871147
0.00834104
0.00799251
0.00766681
0.00736322
0.00707916
0.00681253
0.0065656
0.00633975
0.00613545
0.00589998
0.00556858
0.00541555
0.00528024
0.00517885
0.00511471
0.00508787
0.00509294
0.005128
0.00518469
0.00524325
0.00529318
0.00534037
0.00536762
0.00537186
0.00534713
0.00529588
0.00521569
0.0051125
0.00498597
0.00484301
0.00468293
0.00451105
0.00432634
0.00413372
0.00393792
0.00374748
0.00358413
0.00995387
0.00951726
0.00910336
0.00871181
0.00834144
0.007993
0.0076675
0.0073642
0.00708034
0.00681346
0.00656585
0.00633922
0.00613299
0.00589532
0.00556415
0.00540627
0.0052588
0.00513213
0.00503207
0.00495978
0.00491465
0.00489353
0.00489067
0.00489619
0.00490379
0.0049117
0.00490535
0.00488408
0.00484384
0.00478602
0.00470835
0.00461481
0.00450507
0.00438372