/*--------------------------------*- C++ -*----------------------------------*\
  =========                 |
  \\      /  F ield         | OpenFOAM: The Open Source CFD Toolbox
   \\    /   O peration     | Website:  https://openfoam.org
    \\  /    A nd           | Version:  7
     \\/     M anipulation  |
\*---------------------------------------------------------------------------*/
FoamFile
{
    version     2.0;
    format      ascii;
    class       volScalarField;
    location    "200";
    object      k;
}
// * * * * * * * * * * * * * * * * * * * * * * * * * * * * * * * * * * * * * //

dimensions      [0 2 -2 0 0 0 0];

internalField   nonuniform List<scalar> 
120313
(
1.73713
1.87166
1.87493
1.85276
1.80849
1.74671
1.68368
1.61703
1.5483
1.48893
1.44679
1.406
1.36946
1.33195
1.29582
1.25889
1.22193
1.17764
1.12631
1.06989
1.01125
0.946597
0.866403
0.776007
1.86357
2.11109
2.13372
2.10706
2.05081
1.99106
1.92077
1.84647
1.774
1.7065
1.65018
1.59877
1.55348
1.50855
1.46544
1.42291
1.38101
1.33707
1.28934
1.23145
1.1683
1.09191
0.997854
0.8623
1.8359
2.07245
2.11051
2.09567
2.03734
1.97058
1.89797
1.82232
1.7476
1.67834
1.62042
1.56824
1.52335
1.47973
1.43813
1.39762
1.35824
1.31848
1.27757
1.22657
1.16723
1.09107
0.998187
0.8625
1.82693
2.05963
2.0999
2.09104
2.03295
1.96235
1.88659
1.80942
1.73223
1.66221
1.6013
1.5488
1.50345
1.4594
1.41753
1.37764
1.33904
1.30133
1.26401
1.21986
1.16545
1.0933
1.00209
0.865225
1.82825
2.05878
2.09703
2.08977
2.0325
1.96051
1.88356
1.8026
1.72452
1.65421
1.59079
1.53759
1.49215
1.44753
1.40497
1.3644
1.32578
1.2885
1.25264
1.21259
1.16291
1.09422
1.00594
0.86793
1.8379
2.06776
2.1012
2.09162
2.03448
1.96167
1.88484
1.80432
1.72593
1.6537
1.58954
1.5351
1.48913
1.4442
1.40111
1.35997
1.32126
1.28344
1.24768
1.20823
1.16256
1.09637
1.0109
0.870904
1.86528
2.10129
2.12094
2.10099
2.04563
1.97328
1.8957
1.8156
1.73714
1.66367
1.59974
1.54493
1.49868
1.45326
1.41012
1.36881
1.32986
1.29094
1.25435
1.21418
1.17007
1.10738
1.02281
0.87998
1.74077
1.85805
1.85939
1.83572
1.79278
1.72855
1.65555
1.58586
1.51527
1.44493
1.38715
1.34296
1.30359
1.26717
1.2333
1.20037
1.16929
1.13823
1.1073
1.07287
1.03371
0.981282
0.904488
0.806058
0.749392
1.71752
2.62054
3.41348
4.05997
4.52743
4.76715
4.64051
4.51884
4.31762
4.29408
4.25741
4.19284
4.11066
4.01299
3.89701
3.76982
3.63511
3.50294
3.37446
3.24414
3.12002
2.99319
2.86136
2.73159
2.59079
2.4425
2.29031
2.13993
1.99472
1.85304
1.71998
1.59096
1.46676
1.36338
1.29778
0.917027
1.84312
2.71491
3.47185
4.07452
4.48946
4.66062
4.43383
4.32727
5.18617
5.24917
5.23075
5.14533
5.01843
4.87786
4.72864
4.56103
4.38441
4.21272
4.0478
3.88746
3.73344
3.58302
3.4352
3.28702
3.13536
2.97751
2.81017
2.64146
2.46271
2.31547
2.12524
1.94921
1.83364
1.65082
1.48738
1.10882
2.02051
2.85676
3.57238
4.12942
4.49921
4.63106
4.3741
4.23131
5.10094
5.33317
5.3565
5.2584
5.13606
4.98475
4.82423
4.64337
4.46176
4.28382
4.11448
3.95019
3.79439
3.64412
3.49844
3.35532
3.21115
3.06198
2.90328
2.73523
2.559
2.39865
2.1901
1.96031
1.81809
1.63588
1.49262
1.25642
2.16983
2.97879
3.66101
4.1835
4.5218
4.62686
4.34727
4.16481
5.01803
5.33942
5.38139
5.30935
5.17371
5.02073
4.84819
4.6617
4.47575
4.29473
4.12085
3.95377
3.79514
3.64476
3.501
3.36222
3.22459
3.08461
2.93585
2.77686
2.60674
2.43952
2.22557
1.96716
1.80668
1.60724
1.45793
1.35135
2.26963
3.06085
3.72058
4.22064
4.53927
4.62626
4.3351
4.13415
4.98547
5.34871
5.39173
5.33449
5.19379
5.04034
4.86128
4.67193
4.48088
4.29677
4.11808
3.94937
3.78643
3.63369
3.48971
3.35359
3.22118
3.08858
2.94926
2.79915
2.63761
2.46922
2.26272
1.97473
1.80336
1.58971
1.44515
1.39875
2.32042
3.10209
3.74943
4.23736
4.5459
4.62533
4.33072
4.12742
4.98395
5.35542
5.39542
5.34064
5.20309
5.04817
4.86878
4.68185
4.48631
4.29776
4.11433
3.94357
3.77685
3.62106
3.47453
3.33882
3.20991
3.0833
2.95178
2.80967
2.65582
2.49168
2.29459
1.98809
1.81426
1.5834
1.43162
1.40314
2.32455
3.10442
3.74958
4.23571
4.54362
4.62475
4.33444
4.14226
5.00921
5.35528
5.3879
5.33067
5.19558
5.03898
4.86103
4.67857
4.48534
4.29576
4.11245
3.94003
3.77198
3.61475
3.467
3.33057
3.20231
3.07801
2.95037
2.81374
2.66519
2.50535
2.31628
2.00364
1.82694
1.58764
1.43453
1.36563
2.28159
3.06812
3.72212
4.21726
4.53425
4.62725
4.35024
4.18791
5.07584
5.33948
5.35845
5.28881
5.15974
4.9988
4.82582
4.64812
4.46413
4.27846
4.096
3.92459
3.75817
3.60243
3.45684
3.32169
3.19373
3.06909
2.94183
2.80748
2.66207
2.50502
2.32715
2.02923
1.85292
1.60793
1.45141
1.27603
2.18646
2.99076
3.66661
4.18347
4.52078
4.63603
4.38258
4.27275
5.16505
5.25406
5.24378
5.16954
5.05436
4.88245
4.71485
4.54387
4.37028
4.19008
4.01563
3.84956
3.6912
3.5426
3.40397
3.27275
3.14666
3.02219
2.89451
2.76231
2.6194
2.46454
2.29705
2.07114
1.90794
1.65839
1.49453
1.12093
2.03124
2.86678
3.57918
4.13309
4.50413
4.64827
4.42547
4.36289
5.18565
5.12476
5.0809
4.99473
4.87347
4.73005
4.58059
4.42089
4.25889
4.08948
3.92139
3.76494
3.61517
3.47556
3.34444
3.21609
3.09138
2.96536
2.83448
2.70139
2.55127
2.40395
2.23113
2.07226
1.93233
1.72378
1.52676
0.912648
1.83818
2.71553
3.47362
4.07721
4.49753
4.6852
4.48951
4.40468
4.23349
4.18511
4.13508
4.06534
3.97796
3.87649
3.76614
3.63849
3.50236
3.3645
3.23024
3.10336
2.98194
2.8665
2.75619
2.64865
2.54175
2.43441
2.32166
2.20165
2.07092
1.93492
1.79634
1.66405
1.54447
1.44788
1.37086
0.72942
1.70514
2.61822
3.41235
4.05789
4.52928
4.79144
4.74286
4.69316
4.46785
4.41782
4.3562
4.27677
4.18228
4.07439
3.95492
3.81632
3.66741
3.51991
3.37595
3.23615
3.10129
2.97117
2.84416
2.72153
2.60001
2.47577
2.34236
2.19846
2.04291
1.88278
1.72175
1.56739
1.4245
1.29304
1.18083
6.9665
6.82537
6.70443
6.5522
6.38451
6.19033
5.96113
5.72612
5.48521
5.24938
5.01866
4.79285
4.57342
4.35369
4.13137
3.90474
3.67237
3.43967
3.20208
2.96811
2.72714
2.49534
2.24982
2.05398
1.07457
2.09691
3.20303
4.29523
5.2712
6.06042
6.62463
6.88943
6.8405
6.91262
6.74289
6.61077
6.46245
6.28906
6.1055
5.90605
5.67886
5.43331
5.1997
4.97387
4.75614
4.5446
4.33541
4.12557
3.91118
3.68766
3.45706
3.22264
2.98851
2.75547
2.52336
2.30099
2.0656
1.87037
1.72282
1.41259
1.26463
2.26837
3.37071
4.44558
5.39481
6.1506
6.66938
6.86521
6.80481
6.91909
6.73604
6.58876
6.41401
6.22801
6.04058
5.84191
5.62255
5.38131
5.1512
4.93037
4.71812
4.51309
4.31326
4.11683
3.92057
3.71907
3.50838
3.28378
3.0547
2.82694
2.60678
2.39635
2.18593
1.99384
1.80611
1.63751
1.47943
2.50335
3.60636
4.66289
5.58051
6.29942
6.77674
6.92119
6.82979
6.99525
6.82761
6.67193
6.47252
6.26345
6.06072
5.84989
5.611
5.37635
5.14711
4.92705
4.71504
4.51182
4.3151
4.12418
3.93723
3.74904
3.55588
3.34774
3.12641
2.89732
2.68003
2.46891
2.26731
2.08001
1.90936
1.71789
1.65016
2.7088
3.81776
4.85909
5.75018
6.4382
6.88386
6.9937
6.87982
7.07963
6.92436
6.75726
6.54304
6.31544
6.10254
5.87531
5.63222
5.39271
5.15994
4.93607
4.71954
4.51267
4.31572
4.12725
3.94552
3.76528
3.58372
3.39022
3.18421
2.96031
2.7432
2.53237
2.33087
2.13466
1.97751
1.77174
1.76346
2.84985
3.96467
4.99646
5.86901
6.53523
6.95946
7.04834
6.92348
7.14222
6.99403
6.82603
6.60404
6.36857
6.14521
5.90694
5.66531
5.41594
5.1779
4.94888
4.72633
4.51366
4.31133
4.12233
3.94343
3.76943
3.59655
3.41457
3.22273
3.01132
2.79542
2.58513
2.37988
2.17601
2.02086
1.8149
1.82213
2.92293
4.04066
5.06705
5.92948
6.58388
6.99725
7.07664
6.9483
7.17024
7.02625
6.86258
6.6419
6.40614
6.16836
5.94366
5.69152
5.44519
5.19462
4.96028
4.72915
4.51275
4.30254
4.1111
3.92969
3.76164
3.59714
3.42533
3.24516
3.04683
2.83682
2.62553
2.41588
2.20696
2.04797
1.84242
1.82739
2.92811
4.04513
5.07049
5.93177
6.58536
6.99878
7.07912
6.95059
7.16519
7.02104
6.86129
6.64593
6.41376
6.1724
5.94862
5.69886
5.46095
5.20858
4.97206
4.73836
4.52021
4.30686
4.11376
3.92992
3.76261
3.60042
3.43368
3.261
3.07074
2.8682
2.65569
2.44107
2.22705
2.06251
1.8558
1.77819
2.86393
3.97736
5.00688
5.87694
6.54151
6.96642
7.0586
6.93349
7.12943
6.97999
6.82582
6.61902
6.39114
6.15078
5.92749
5.68541
5.46022
5.21141
4.97742
4.74485
4.52777
4.31531
4.12351
3.94242
3.77371
3.60957
3.44263
3.27148
3.08437
2.88732
2.67308
2.45524
2.23775
2.0668
1.85651
1.66864
2.72644
3.83508
4.87534
5.76504
6.45298
6.90218
7.01942
6.90522
7.07047
6.91021
6.76154
6.56846
6.34832
6.11217
5.88556
5.6599
5.44065
5.19726
4.96408
4.73673
4.52277
4.31844
4.12916
3.95025
3.77892
3.61046
3.44112
3.26751
3.08134
2.88325
2.66812
2.45123
2.23381
2.05461
1.83875
1.49281
2.51687
3.62256
4.68098
5.59998
6.32236
6.80914
6.96771
6.87295
7.0084
6.84161
6.69583
6.51351
6.30574
6.08568
5.86829
5.65198
5.43107
5.19228
4.95318
4.72748
4.51518
4.31471
4.12698
3.9469
3.77298
3.59997
3.42658
3.24563
3.05443
2.84556
2.62586
2.40221
2.18824
1.99505
1.76933
1.27093
2.27893
3.38705
4.46644
5.41799
6.17865
6.7124
6.93314
6.87865
7.01448
6.86165
6.72588
6.55961
6.36511
6.16129
5.94738
5.71884
5.46934
5.2178
4.976
4.74344
4.52417
4.31597
4.11998
3.93043
3.74811
3.56508
3.38182
3.18429
2.98001
2.74367
2.52076
2.26659
2.08033
1.89848
1.63318
1.07966
2.11874
3.2337
4.32916
5.30377
6.09135
6.66238
6.94748
6.95202
7.05604
6.91793
6.78855
6.62869
6.43835
6.23321
6.01074
5.76049
5.50216
5.24425
4.993
4.74932
4.51876
4.30003
4.09433
3.89573
3.70574
3.51471
3.32344
3.11371
2.89717
2.64263
2.4136
2.14579
1.96033
1.75419
1.45144
7.07175
6.9127
6.71481
6.47911
6.22096
5.94789
5.66636
5.38148
5.10193
4.83393
4.58857
4.32283
4.10017
3.83271
3.58156
3.29682
3.01741
2.74445
2.46502
2.19803
1.89766
1.65034
1.33109
1.17736
1.09592
1.95941
2.93001
3.9838
5.0203
5.94944
6.70893
7.25091
7.36029
7.19975
7.01961
6.81358
6.58048
6.32473
6.05207
5.76972
5.48443
5.20257
4.9304
4.67026
4.4214
4.18783
3.95695
3.73287
3.48971
3.22242
2.91476
2.6236
2.33953
2.06009
1.77297
1.51236
1.20081
1.00396
0.920787
0.688947
1.28912
2.18221
3.18805
4.25658
5.29657
6.2251
6.97178
7.4815
7.56603
7.37365
7.14503
6.91029
6.65254
6.38006
6.09915
5.81501
5.53041
5.25235
4.98412
4.726
4.47795
4.24186
4.01738
3.80239
3.59222
3.36896
3.12865
2.82789
2.51624
2.23709
1.95085
1.70888
1.41766
1.19469
0.939
0.785829
1.48906
2.44983
3.50763
4.59923
5.64379
6.56242
7.28003
7.74636
7.79538
7.5729
7.29312
7.02931
6.74797
6.45298
6.15654
5.86516
5.57757
5.29787
5.02759
4.76875
4.52191
4.28666
4.06098
3.84625
3.64422
3.43546
3.23127
2.99243
2.69243
2.38994
2.11228
1.86762
1.61997
1.40053
1.1547
0.955386
1.6454
2.67662
3.78858
4.90695
5.9569
6.85855
7.54125
7.96739
7.98366
7.75584
7.45989
7.15108
6.84692
6.53018
6.23372
5.93184
5.64691
5.36378
5.09053
4.8259
4.57053
4.32764
4.09776
3.88147
3.67902
3.47598
3.28849
3.0682
2.83437
2.52215
2.24309
1.99783
1.76792
1.54871
1.30463
1.08308
1.74907
2.83121
3.98411
5.12474
6.17778
7.06436
7.72029
8.11997
8.11543
7.88494
7.58543
7.25554
6.94211
6.60922
6.32918
5.99606
5.73372
5.41607
5.15543
4.88801
4.61194
4.37057
4.11458
3.89899
3.69586
3.5004
3.31965
3.11146
2.91002
2.65054
2.35465
2.10219
1.87299
1.65378
1.40951
1.17856
1.80235
2.90934
4.08278
5.2353
6.29035
7.16891
7.81188
8.20033
8.18231
7.94278
7.64381
7.32288
6.99115
6.68724
6.36193
6.11035
5.76048
5.5147
5.17538
4.9437
4.61537
4.39874
4.09586
3.90194
3.65445
3.49034
3.32206
3.13064
2.94749
2.73116
2.45154
2.18433
1.94656
1.72185
1.47411
1.23869
1.8053
2.91146
4.08404
5.23635
6.29194
7.17166
7.81615
8.20632
8.18208
7.93146
7.64125
7.32719
7.00712
6.71302
6.38987
6.14008
5.79067
5.55155
5.21108
4.98251
4.65172
4.43438
4.12558
3.93142
3.66854
3.50773
3.3327
3.15193
2.98066
2.7755
2.53494
2.24856
1.99639
1.76189
1.50648
1.26694
1.75786
2.83731
3.988
5.12841
6.18388
7.07473
7.73607
8.14121
8.1194
7.85734
7.57981
7.29383
6.99165
6.69787
6.38796
6.12207
5.81064
5.56922
5.24194
5.01721
4.69019
4.47277
4.1647
3.96746
3.73202
3.54991
3.36819
3.18767
3.00811
2.80748
2.59408
2.30076
2.0216
1.77215
1.50305
1.26015
1.65604
2.68381
3.7934
4.91335
5.96882
6.87932
7.57334
8.01074
8.00471
7.73385
7.48276
7.23393
6.96168
6.67026
6.37528
6.08865
5.80482
5.53455
5.26035
5.00063
4.73261
4.48402
4.23239
4.00559
3.79142
3.58918
3.39465
3.20542
3.01665
2.81791
2.60238
2.31262
2.00322
1.74177
1.45308
1.21372
1.49866
2.45906
3.51849
4.61476
5.66799
6.59901
7.33388
7.82
7.84545
7.58913
7.37083
7.14745
6.89879
6.62467
6.34055
6.05558
5.77577
5.50237
5.23302
4.96943
4.71164
4.46248
4.22415
3.99862
3.78428
3.57849
3.37986
3.18494
2.98621
2.77696
2.53866
2.21626
1.89461
1.64374
1.32526
1.10561
1.30019
2.2075
3.2242
4.30361
5.353
6.29186
7.05429
7.58976
7.66593
7.44624
7.26187
7.06669
6.83863
6.58341
6.31202
6.03354
5.75208
5.47036
5.193
4.92367
4.66342
4.41404
4.17598
3.94963
3.73235
3.52385
3.32058
3.11769
2.90762
2.69029
2.37579
2.06428
1.70483
1.4985
1.37194
1.01531
1.11762
2.0202
3.01325
4.08207
5.12568
6.05815
6.82221
7.38334
7.51184
7.33002
7.18084
7.00388
6.79233
6.54679
6.28369
6.00816
5.72448
5.43829
5.15538
4.8811
4.61673
4.36406
4.12289
3.89384
3.67505
3.46466
3.25763
3.05207
2.83087
2.59726
2.2399
1.94286
1.5754
1.38223
1.25036
0.893173
3.39041
3.19155
3.00653
2.81735
2.64074
2.46399
2.3011
2.13633
1.98372
1.84468
1.72498
1.61251
1.50847
1.39679
1.27671
1.1455
1.01286
0.883734
0.756586
0.648207
0.538668
0.45668
0.356316
0.310501
2.3381
3.69876
4.13281
4.31831
4.57395
4.93095
5.33228
5.71563
5.48672
3.74765
3.52079
3.28362
3.06503
2.86278
2.66914
2.49092
2.32115
2.16188
2.00508
1.85797
1.72433
1.60664
1.49412
1.37987
1.25445
1.11571
0.973954
0.837392
0.71019
0.598521
0.495309
0.407617
0.311941
0.256337
0.24421
0.181504
2.59614
4.00323
4.45454
4.6404
4.91734
5.29585
5.73419
6.13265
5.95832
4.27088
3.99556
3.72276
3.46449
3.22245
3.00003
2.7988
2.61303
2.43838
2.28904
2.13921
1.9879
1.8324
1.68607
1.54529
1.41229
1.27581
1.1289
0.979236
0.833175
0.706238
0.583005
0.491347
0.384611
0.312996
0.237533
0.202964
2.739
4.28455
4.74606
4.96723
5.30266
5.72982
6.18055
6.57965
6.42937
4.82422
4.46591
4.14064
3.83912
3.57019
3.32033
3.11176
2.93983
2.77281
2.60848
2.4333
2.26217
2.08352
1.91189
1.74258
1.58476
1.42911
1.27718
1.12064
0.962536
0.819248
0.685598
0.57676
0.471964
0.391791
0.307952
0.256925
2.91614
4.47746
4.95814
5.24774
5.63792
6.10759
6.55508
6.952
6.81008
5.26235
4.87314
4.49877
4.16144
3.86534
3.63474
3.43896
3.2593
3.06938
2.88208
2.68326
2.48878
2.28795
2.09819
1.90931
1.73415
1.56355
1.39944
1.23717
1.07411
0.920951
0.778987
0.661026
0.548756
0.457208
0.363412
0.301144
3.00485
4.59528
5.1056
5.44297
5.87405
6.36665
6.81401
7.20707
7.06093
5.5624
5.13641
4.73064
4.37544
4.09951
3.88501
3.69121
3.50071
3.29526
3.09178
2.87544
2.6636
2.44265
2.23522
2.03186
1.84538
1.66589
1.49559
1.32913
1.16402
1.00648
0.857534
0.733346
0.613419
0.511252
0.405938
0.336823
3.0328
4.63836
5.16793
5.53945
5.99356
6.49665
6.94548
7.33822
7.18732
5.70243
5.26127
4.8452
4.49354
4.22366
4.01215
3.81835
3.62498
3.41813
3.21042
2.98929
2.76988
2.53938
2.32011
2.1045
1.91044
1.72675
1.55507
1.38943
1.22543
1.06866
0.915262
0.785326
0.658302
0.549011
0.433884
0.359841
3.03227
4.63608
5.16423
5.53763
5.99236
6.49637
6.94776
7.34522
7.18512
5.66916
5.25821
4.85204
4.51143
4.24812
4.03749
3.84689
3.6599
3.45772
3.25381
3.03254
2.81353
2.58267
2.36176
2.14208
1.9445
1.75786
1.58636
1.423
1.26287
1.10974
0.953684
0.818222
0.684245
0.569539
0.447881
0.370996
3.00669
4.59152
5.09684
5.43706
5.87045
6.36822
6.82553
7.23328
7.06301
5.48971
5.1141
4.75948
4.4235
4.15701
3.94772
3.76115
3.58537
3.39317
3.20034
2.99083
2.78347
2.56164
2.34882
2.13485
1.94142
1.75596
1.58649
1.42565
1.27021
1.12092
0.965835
0.825719
0.685674
0.567703
0.444354
0.367553
2.92328
4.47645
4.94802
5.23611
5.63125
6.11203
6.57971
7.00631
6.82303
5.15744
4.83204
4.51895
4.23263
3.96217
3.74045
3.55258
3.39208
3.22326
3.05324
2.86478
2.67636
2.47113
2.27384
2.07222
1.88809
1.70747
1.54479
1.38855
1.24025
1.09497
0.942228
0.800505
0.657155
0.541085
0.420007
0.34801
2.76038
4.29361
4.73967
4.95263
5.29313
5.74197
6.22588
6.67804
6.49144
4.71926
4.44831
4.18132
3.93675
3.70097
3.49054
3.29102
3.12569
2.97323
2.82772
2.66396
2.49569
2.31066
2.13056
1.94486
1.77331
1.60468
1.45357
1.307
1.16601
1.02419
0.869221
0.731371
0.588401
0.486494
0.369391
0.308294
2.63707
4.02262
4.47006
4.65579
4.9455
5.35886
5.84348
6.30807
6.12417
4.27688
4.03493
3.81641
3.61207
3.41992
3.2344
3.06078
2.8928
2.72743
2.58072
2.43532
2.28481
2.11976
1.95434
1.78555
1.62956
1.47901
1.34138
1.20675
1.06747
0.9247
0.7644
0.639934
0.498545
0.426253
0.41483
0.302766
2.33543
3.69518
4.15645
4.37548
4.66471
5.06459
5.5243
5.98363
5.81725
3.9842
3.77257
3.57261
3.39406
3.2283
3.07131
2.91093
2.75593
2.59722
2.43797
2.28934
2.14734
1.99088
1.83672
1.68073
1.53846
1.40108
1.27292
1.14404
1.00193
0.857221
0.699287
0.58265
0.449332
0.384766
0.371228
0.26473
0.13685
0.180762
0.216505
0.244649
0.266313
0.28202
0.294447
0.303934
0.306332
0.304905
0.300777
0.293129
0.282222
0.267436
0.248617
0.225075
0.197653
0.167677
0.139303
0.115195
0.0949108
0.078977
0.0640326
0.0554218
0.000997785
0.000975683
0.000953256
0.000931836
0.000911848
0.000892863
0.00088218
0.000923128
0.00143738
0.00426858
0.0141086
0.0405697
0.0986203
0.137946
0.168584
0.222599
0.265888
0.298563
0.3228
0.341233
0.357305
0.368552
0.369784
0.366662
0.358991
0.346003
0.328163
0.306529
0.28208
0.255428
0.224855
0.19278
0.161898
0.133669
0.109121
0.0879845
0.0713322
0.0556859
0.0458934
0.0428342
0.0331329
0.000997698
0.000975598
0.000953738
0.000932498
0.000912364
0.000892492
0.000884329
0.00099095
0.00237993
0.00993442
0.0364475
0.105406
0.254529
0.285162
0.277597
0.339608
0.38863
0.424432
0.454488
0.481443
0.501986
0.504997
0.500149
0.486716
0.463552
0.43165
0.396496
0.36413
0.332224
0.302813
0.27161
0.239532
0.206142
0.173393
0.143559
0.115839
0.0925975
0.0712265
0.0561473
0.0432559
0.0378967
0.000997689
0.000975483
0.000953515
0.000932535
0.000912461
0.000892334
0.000893921
0.00118551
0.00454268
0.0207247
0.0774038
0.235139
0.550937
0.544996
0.421612
0.489825
0.54184
0.587492
0.629836
0.657943
0.655288
0.643792
0.620871
0.587641
0.548788
0.51067
0.468778
0.429053
0.388581
0.351649
0.31503
0.279655
0.243747
0.208725
0.175852
0.144658
0.118089
0.0928608
0.0749946
0.0587777
0.0499311
0.000997539
0.000975566
0.000953412
0.000932139
0.00091237
0.000892848
0.00097284
0.00161982
0.00731497
0.0345727
0.13736
0.410115
0.91797
0.825921
0.569759
0.638173
0.698944
0.761343
0.795299
0.790887
0.776576
0.75169
0.712084
0.671752
0.625766
0.580664
0.532076
0.486237
0.439556
0.396743
0.35469
0.315141
0.276024
0.238055
0.202913
0.168883
0.139817
0.112433
0.0920816
0.0721032
0.0610036
0.00099737
0.00097548
0.00095347
0.000932072
0.000912299
0.000893012
0.00106578
0.00229265
0.0102584
0.0494495
0.203989
0.583087
1.25229
1.028
0.687882
0.754951
0.823432
0.884145
0.886821
0.877525
0.85555
0.829083
0.785496
0.740127
0.688302
0.637463
0.58253
0.531029
0.479378
0.432362
0.386752
0.344312
0.302933
0.262846
0.225639
0.189837
0.158446
0.128319
0.105553
0.0823132
0.0697098
0.000997239
0.000975353
0.000953544
0.000932235
0.000912325
0.000894393
0.00116389
0.00309931
0.0129175
0.0611926
0.250104
0.693036
1.44647
1.19109
0.742141
0.814743
0.89088
0.938184
0.934128
0.923145
0.902658
0.869332
0.822963
0.777275
0.723297
0.670873
0.613877
0.558928
0.503684
0.45403
0.406356
0.36261
0.320469
0.279798
0.24158
0.204642
0.171713
0.139394
0.114835
0.0891257
0.0754557
0.000997204
0.00097527
0.000953512
0.000932293
0.000912352
0.000894421
0.00118198
0.00327181
0.0133825
0.0626783
0.253498
0.698258
1.45282
1.18676
0.720768
0.793592
0.871148
0.927731
0.937892
0.916657
0.902915
0.874103
0.831297
0.786775
0.735459
0.683271
0.625235
0.569898
0.513581
0.462969
0.414486
0.370645
0.328847
0.288811
0.250855
0.213397
0.179521
0.145719
0.119999
0.0927544
0.0785031
0.000997352
0.000975472
0.000953495
0.000932116
0.00091231
0.000893432
0.00109593
0.00253557
0.0108334
0.0510332
0.206336
0.585631
1.26283
1.01875
0.634696
0.712667
0.780163
0.860898
0.886544
0.881537
0.870098
0.845438
0.806006
0.764705
0.715399
0.666657
0.612047
0.559843
0.505811
0.456922
0.409426
0.366695
0.326224
0.287897
0.251159
0.213857
0.17977
0.145603
0.119566
0.091972
0.0777042
0.000997564
0.000975574
0.000953374
0.000932061
0.000912265
0.000892792
0.000998196
0.00183683
0.0078892
0.0364151
0.141925
0.420413
0.947067
0.815415
0.50834
0.585601
0.648981
0.706722
0.768585
0.788185
0.78409
0.769769
0.744287
0.710254
0.667882
0.62534
0.576433
0.529401
0.479805
0.434397
0.389788
0.349705
0.311936
0.276236
0.241297
0.204531
0.170913
0.137689
0.112069
0.085566
0.0720993
0.000997707
0.000975475
0.000953425
0.000932444
0.000912494
0.000892308
0.00089947
0.00121491
0.00478224
0.0220898
0.0828669
0.253315
0.604513
0.558141
0.373639
0.445602
0.503924
0.551926
0.5957
0.639643
0.668168
0.666551
0.655841
0.635346
0.60213
0.565482
0.523047
0.481368
0.437209
0.396278
0.356405
0.320758
0.286971
0.253405
0.218797
0.182395
0.150824
0.119333
0.0966665
0.0733313
0.0621716
0.000997689
0.000975584
0.000953746
0.000932445
0.000912298
0.000892291
0.000883868
0.000987955
0.00235257
0.00995682
0.0380426
0.121695
0.325816
0.33303
0.257943
0.321281
0.376364
0.421865
0.460286
0.494594
0.526072
0.553697
0.557774
0.550605
0.532972
0.504636
0.467348
0.429745
0.390777
0.355139
0.321138
0.289959
0.258446
0.22304
0.188637
0.152663
0.124877
0.0962641
0.0816305
0.0763357
0.0568844
0.000997577
0.000975316
0.000953117
0.000931762
0.000911836
0.000892975
0.000887473
0.000929002
0.00146494
0.00471043
0.017167
0.0591142
0.185122
0.229066
0.202395
0.258938
0.31061
0.355102
0.392054
0.423731
0.451396
0.474593
0.492646
0.494673
0.484961
0.464996
0.433309
0.398335
0.36309
0.331427
0.300923
0.270556
0.236761
0.20039
0.166208
0.132763
0.107524
0.0835442
0.0710387
0.0664524
0.0510802
0.000927252
0.00116736
0.00151305
0.00195579
0.00248322
0.00307771
0.00373701
0.00443945
0.00512715
0.00577096
0.0063546
0.00684663
0.00723167
0.00733805
0.0076085
0.00749846
0.00723116
0.00682453
0.00634972
0.00584136
0.00534425
0.00486826
0.00444044
0.0041391
0.000997771
0.000975174
0.000952674
0.000930981
0.000910351
0.000890774
0.000871992
0.000854283
0.000837475
0.000821335
0.000806224
0.000792145
0.000779394
0.000762579
0.000964539
0.00134685
0.00188139
0.00253879
0.00330034
0.00415933
0.00512579
0.00614052
0.0071189
0.00802163
0.00880734
0.00943185
0.0098648
0.0100985
0.0101253
0.0099566
0.00958432
0.00906653
0.00844184
0.00777047
0.00707894
0.00639511
0.00569785
0.00494275
0.0044452
0.00421065
0.00346122
0.000997562
0.000974696
0.000952481
0.000930958
0.000910401
0.000890717
0.000871895
0.000854307
0.000837612
0.000821458
0.000806202
0.00079245
0.000779821
0.000762995
0.00127065
0.00208852
0.00316592
0.00444745
0.00593512
0.00765209
0.0094838
0.0112584
0.0128827
0.0142556
0.0152468
0.0158357
0.0160654
0.0160483
0.0157992
0.0153906
0.014789
0.0140424
0.0131428
0.0121586
0.0110995
0.0100028
0.00885237
0.00769258
0.00673839
0.0059831
0.00556107
0.00099759
0.000974765
0.000952594
0.000931074
0.000910405
0.000890685
0.000872122
0.00085458
0.000837826
0.000821751
0.000806701
0.000792897
0.000780954
0.000765588
0.00187629
0.00344549
0.00539474
0.00776801
0.0106138
0.0136934
0.0165281
0.0190044
0.0209623
0.0223855
0.0232864
0.0237611
0.0237868
0.0234809
0.0228492
0.0220123
0.0209748
0.0198061
0.0184983
0.0171134
0.0156577
0.0141775
0.0126868
0.0112565
0.010012
0.00878873
0.00782514
0.000997632
0.000974803
0.000952614
0.000931073
0.000910281
0.000890615
0.000872155
0.000854549
0.000837775
0.000821777
0.000806763
0.000793417
0.000781734
0.000771295
0.00277209
0.00533073
0.0085136
0.0125168
0.0167783
0.0206893
0.0240742
0.0269055
0.029032
0.0305522
0.0314043
0.0318139
0.0316354
0.03105
0.0300675
0.02883
0.0273459
0.0257232
0.0239606
0.0221384
0.0202634
0.0183925
0.0165766
0.0147217
0.0129502
0.0111384
0.0097394
0.00099772
0.000974826
0.000952615
0.000931033
0.000910164
0.000890461
0.000872061
0.000854462
0.000837652
0.000821704
0.000807001
0.00079368
0.000783134
0.000778641
0.00367554
0.00725242
0.0117872
0.0171831
0.0222178
0.0267636
0.0307414
0.0339401
0.0363476
0.0379897
0.0385649
0.0393477
0.0389261
0.0380368
0.0367029
0.0350926
0.0332187
0.0312022
0.0290453
0.0268402
0.0245955
0.0223902
0.0201387
0.0177279
0.0153828
0.013006
0.0112348
0.000997613
0.000974726
0.000952585
0.00093101
0.000910071
0.000890267
0.000871749
0.000854233
0.000837609
0.000821767
0.000807081
0.000793949
0.000782897
0.000785701
0.00419141
0.00837149
0.013808
0.0197034
0.0251729
0.0301974
0.0345589
0.0381152
0.0408029
0.0425349
0.0434865
0.0436678
0.0431236
0.0420945
0.0405865
0.0387767
0.03669
0.0344661
0.0321022
0.0296967
0.0272522
0.0248506
0.0223003
0.0195559
0.0168787
0.0141692
0.0121772
0.00099761
0.000974725
0.000952587
0.000931007
0.000910052
0.000890271
0.000871826
0.000854243
0.000837583
0.000821675
0.000807018
0.000794038
0.000783532
0.000784611
0.00400496
0.00800425
0.0131543
0.0191764
0.0247468
0.0297637
0.0342845
0.0379503
0.0407362
0.0425946
0.0431675
0.0441023
0.0436748
0.042707
0.0412243
0.0394249
0.0373393
0.0351213
0.0327679
0.0303757
0.0279351
0.0255358
0.0230104
0.0202517
0.0175366
0.0147413
0.0126731
0.000997687
0.000974803
0.000952614
0.000931035
0.000910159
0.000890443
0.000871932
0.000854217
0.000837538
0.000821661
0.000806871
0.000793444
0.000782411
0.000777142
0.00328982
0.00650653
0.0104661
0.0155365
0.020638
0.0253431
0.0295043
0.0330793
0.035858
0.0379059
0.0390282
0.0397582
0.039707
0.03908
0.037914
0.036411
0.0346025
0.0326485
0.0305555
0.0284158
0.0262091
0.0239807
0.0217562
0.0193466
0.016934
0.0143809
0.0124509
0.000997634
0.000974799
0.000952622
0.000931091
0.000910307
0.000890588
0.00087212
0.000854497
0.000837657
0.00082154
0.000806405
0.00079294
0.000781097
0.000769722
0.00239767
0.00462142
0.00739123
0.010749
0.0149079
0.019052
0.0228072
0.0261016
0.0287763
0.0308556
0.0322069
0.0330336
0.0332372
0.032941
0.0321485
0.0310304
0.0296174
0.0280576
0.0263653
0.0246145
0.022775
0.0208882
0.018972
0.0170556
0.015127
0.0130099
0.0113749
0.000997549
0.000974749
0.000952608
0.000931105
0.000910405
0.000890616
0.000871989
0.000854328
0.000837425
0.000821352
0.000806204
0.000792241
0.000780211
0.000764778
0.0016647
0.0029934
0.0047076
0.00676933
0.00924589
0.0122504
0.0154447
0.0183938
0.0209558
0.0230312
0.0244916
0.0254419
0.0258483
0.0258189
0.0253613
0.0246179
0.0236305
0.0225179
0.0212741
0.0199329
0.0184754
0.0169572
0.0154177
0.0139084
0.0124351
0.0106827
0.00946252
0.000997622
0.000974842
0.000952591
0.000930983
0.000910285
0.000890524
0.00087183
0.000854195
0.000837393
0.00082121
0.000805695
0.000791464
0.000778726
0.000761988
0.00120814
0.00192646
0.00293905
0.00422799
0.00576255
0.00758452
0.00971415
0.0120687
0.0143079
0.0162884
0.0178582
0.0188866
0.0191353
0.0196883
0.0194727
0.0190446
0.0184103
0.0176533
0.0167119
0.0156385
0.0144329
0.0131865
0.0119346
0.0107483
0.00978773
0.00921416
0.00762667
0.000997716
0.000975181
0.000952598
0.000930899
0.000910153
0.000890384
0.000871684
0.000853993
0.00083703
0.000820704
0.000805103
0.000790754
0.00077806
0.000761474
0.00101861
0.00148375
0.00218251
0.00312024
0.00426835
0.00562676
0.00719542
0.00897376
0.0108513
0.0126337
0.0141496
0.0152928
0.015877
0.0161999
0.0161909
0.0159742
0.0155379
0.01492
0.0140793
0.0130961
0.0120076
0.0109075
0.00983111
0.00884228
0.00806625
0.0076051
0.00613396
0.000737602
0.000726438
0.000715527
0.000704987
0.000694798
0.000684951
0.000675442
0.000666284
0.000657487
0.000648994
0.00064083
0.000632946
0.000625302
0.000617822
0.000610419
0.000603071
0.000595658
0.000588234
0.000580793
0.000573346
0.000566004
0.000558726
0.000551948
0.000544912
0.000997765
0.000975273
0.00095282
0.000931098
0.000910242
0.000890265
0.000871206
0.000853042
0.000835781
0.00081943
0.000803917
0.000789418
0.000776246
0.000762161
0.0007401
0.000728146
0.000717172
0.000706625
0.000696468
0.000686742
0.000677428
0.000668613
0.000660213
0.000652309
0.000644754
0.000637589
0.00063059
0.000623844
0.00061699
0.000610207
0.00060305
0.000595864
0.000588262
0.000580685
0.000572778
0.000564944
0.000556703
0.000547905
0.000540361
0.000536931
0.000529534
0.000997642
0.000974802
0.000952581
0.000930996
0.000910184
0.000890229
0.00087119
0.000853033
0.000835733
0.000819375
0.00080377
0.000789253
0.000776288
0.000762166
0.000739815
0.000727973
0.000717208
0.000706961
0.000697303
0.000688334
0.000680156
0.000672805
0.00066629
0.000660508
0.000655125
0.000650015
0.000644872
0.000639644
0.000633892
0.000628125
0.000621654
0.00061503
0.000607608
0.000600009
0.000591598
0.000582951
0.000573226
0.000563108
0.000553224
0.000545395
0.000538806
0.000997726
0.000974748
0.000952441
0.000930872
0.000910065
0.000890128
0.000871116
0.000853005
0.000835791
0.00081939
0.000803823
0.000789548
0.000776773
0.000761756
0.000739925
0.000728852
0.000718294
0.000708649
0.000700202
0.000693215
0.000687681
0.000683469
0.000680342
0.00067782
0.000675846
0.000673644
0.000670962
0.000668038
0.000664291
0.000659648
0.000654111
0.000647785
0.000640495
0.000632376
0.00062315
0.000613074
0.00060198
0.000590402
0.000579483
0.0005695
0.000559915
0.000997707
0.00097472
0.000952431
0.000930894
0.000910104
0.000890119
0.000870992
0.000852801
0.000835587
0.000819264
0.000803825
0.000789556
0.00077682
0.000762103
0.000740313
0.000729371
0.000719443
0.000711175
0.000705
0.000700957
0.000698967
0.000698562
0.000699778
0.000701537
0.000703131
0.000704727
0.00070557
0.000705416
0.00070379
0.000700693
0.00069581
0.000689394
0.000681245
0.000671732
0.000660719
0.000648581
0.000635382
0.000621667
0.000608125
0.000594742
0.000582628
0.00099769
0.000974694
0.000952381
0.000930803
0.000909971
0.000889977
0.000870919
0.000852824
0.000835661
0.00081931
0.000803818
0.000789642
0.000776991
0.000762714
0.000740322
0.000729208
0.000720209
0.000713727
0.00071014
0.000709424
0.000711355
0.000715842
0.000722169
0.000728728
0.000735268
0.000741754
0.00074685
0.000750275
0.000751384
0.00075029
0.000746543
0.000740537
0.000732022
0.000721538
0.000708932
0.00069475
0.000678819
0.000661912
0.000644363
0.000626817
0.000611155
0.000997697
0.000974692
0.000952383
0.000930815
0.000909981
0.000889952
0.000870845
0.000852719
0.000835591
0.000819405
0.000804038
0.000789854
0.000777209
0.000762176
0.00074044
0.000729596
0.000721105
0.000715622
0.000713481
0.00071495