/*--------------------------------*- C++ -*----------------------------------*\
  =========                 |
  \\      /  F ield         | OpenFOAM: The Open Source CFD Toolbox
   \\    /   O peration     | Website:  https://openfoam.org
    \\  /    A nd           | Version:  7
     \\/     M anipulation  |
\*---------------------------------------------------------------------------*/
FoamFile
{
    version     2.0;
    format      ascii;
    class       volScalarField;
    location    "200";
    object      nut;
}
// * * * * * * * * * * * * * * * * * * * * * * * * * * * * * * * * * * * * * //

dimensions      [0 2 -1 0 0 0 0];

internalField   nonuniform List<scalar> 
120313
(
0.00201584
0.00233912
0.00238094
0.0023802
0.00235509
0.00231584
0.00227473
0.00222951
0.00218367
0.00214005
0.00211013
0.00207813
0.00205148
0.0020238
0.00199748
0.00197218
0.0019528
0.00193051
0.00189952
0.00185891
0.00180879
0.00174127
0.00163427
0.00137125
0.00232797
0.00304203
0.00314069
0.00315155
0.00311854
0.00307564
0.00302239
0.00296445
0.00290686
0.00285083
0.00280351
0.00275785
0.00271877
0.00267965
0.00264132
0.00260452
0.00256973
0.00253829
0.00251048
0.00246654
0.0024059
0.00231023
0.00215199
0.0016144
0.00234536
0.00308781
0.00322171
0.0032487
0.00321595
0.00316811
0.00310906
0.00304858
0.00298621
0.00292583
0.00287489
0.00282781
0.00278677
0.00274598
0.00270735
0.00266977
0.00263347
0.00260049
0.00257405
0.00253733
0.00247865
0.00237847
0.00220318
0.00163923
0.00235108
0.00310306
0.00324539
0.00327958
0.00324898
0.00319782
0.0031341
0.00307355
0.00300565
0.00294362
0.00289025
0.00284083
0.00279989
0.00275806
0.00271802
0.00267965
0.00264218
0.00260775
0.00257684
0.00254626
0.0024935
0.00239754
0.00222299
0.00165097
0.00235165
0.00310177
0.00324249
0.00327847
0.00324809
0.00319506
0.00313411
0.00306084
0.00299668
0.00293343
0.00287935
0.0028272
0.00278791
0.00274512
0.00270559
0.00266535
0.00262715
0.0025915
0.00255849
0.0025279
0.00248071
0.00239006
0.00222387
0.00165191
0.00234463
0.00308068
0.00321024
0.00324142
0.00321064
0.00315706
0.00309742
0.00302822
0.00296643
0.00289858
0.00284405
0.00279043
0.00275086
0.00270842
0.00266882
0.00262798
0.00259087
0.00255516
0.00252147
0.00248702
0.00244567
0.00236332
0.00220794
0.00164653
0.00232107
0.00302329
0.00311908
0.00313524
0.00310499
0.00305314
0.00299429
0.00293055
0.00287095
0.0028054
0.00275186
0.00270005
0.00266128
0.00261945
0.00258091
0.00254239
0.00250728
0.00247258
0.00243947
0.00240517
0.00236668
0.00229748
0.00216366
0.00162875
0.00199562
0.00231042
0.00235181
0.00235204
0.00233018
0.00228761
0.00223948
0.00219138
0.00214495
0.0020947
0.00205209
0.00201768
0.00198724
0.00195848
0.00193147
0.00190626
0.00188324
0.00186031
0.00183761
0.001816
0.00178985
0.00174653
0.00165783
0.00139103
0.00366968
0.00741346
0.0108089
0.0135038
0.0155869
0.0171033
0.0177556
0.0159709
0.0154851
0.0146474
0.0145987
0.0145791
0.0145224
0.014433
0.0143232
0.0141526
0.0139383
0.013682
0.0134047
0.0130979
0.0127702
0.012472
0.0121506
0.0118019
0.0114745
0.0110677
0.0106053
0.0100945
0.00956771
0.00903289
0.00846749
0.00792174
0.0073504
0.00675109
0.00641143
0.00639046
0.00429875
0.00789501
0.0111369
0.0137022
0.0156594
0.0170219
0.0173118
0.0148427
0.0145658
0.0201488
0.0205834
0.0206315
0.0204994
0.0203052
0.0200904
0.0197978
0.0194479
0.0190122
0.018608
0.0181642
0.0177752
0.0173522
0.0169454
0.0165236
0.0160722
0.0155713
0.0150143
0.0143683
0.0136981
0.0128914
0.0123648
0.0113232
0.0102809
0.00973741
0.00814316
0.00720947
0.00482708
0.00846797
0.0115818
0.014019
0.0158556
0.0170915
0.0172153
0.0146027
0.0140598
0.0194499
0.0209769
0.0212707
0.0211875
0.0209597
0.0206889
0.0203505
0.0199281
0.019492
0.0190589
0.0186146
0.0181899
0.017765
0.0173642
0.0169539
0.0165292
0.0160694
0.0155485
0.0149494
0.0142661
0.0134843
0.0128484
0.011658
0.0101126
0.00928611
0.007787
0.00704279
0.00518233
0.00891644
0.011951
0.0142968
0.0160425
0.0171938
0.0172071
0.0145254
0.0137984
0.0189666
0.0210432
0.0214883
0.0215163
0.0212804
0.0209861
0.0206005
0.0201646
0.0197257
0.0192804
0.01882
0.0183649
0.0179213
0.0174938
0.0170836
0.0166779
0.0162491
0.0157773
0.0152299
0.0145985
0.0138652
0.013147
0.0119167
0.0101038
0.00917878
0.00755653
0.006818
0.00538875
0.00920383
0.0121908
0.0144814
0.0161696
0.0172702
0.017208
0.014505
0.0136997
0.0188064
0.0211451
0.0216103
0.0217173
0.0214968
0.0212052
0.0208165
0.0203651
0.0199036
0.019444
0.0189731
0.0184977
0.0180263
0.017565
0.0171283
0.0167283
0.0163197
0.0158854
0.0153875
0.0148071
0.0141283
0.0133911
0.0122312
0.0101823
0.00918697
0.00746134
0.00683015
0.00548524
0.00934137
0.0123089
0.0145708
0.0162288
0.017302
0.0172051
0.0144938
0.0136803
0.0188113
0.0212158
0.0216718
0.0217854
0.0216085
0.0213045
0.0209503
0.0205205
0.0200418
0.0195531
0.0190662
0.0185687
0.0180751
0.0175869
0.0171156
0.0167044
0.0163109
0.0159109
0.0154548
0.0149199
0.0142882
0.013573
0.0125188
0.0102638
0.00928538
0.00742288
0.00675936
0.0054947
0.00935298
0.0123162
0.014573
0.0162268
0.0172966
0.0172021
0.014498
0.0137314
0.0189576
0.0212339
0.0216493
0.0217561
0.0215957
0.021276
0.0209413
0.02055
0.020091
0.0195963
0.0191155
0.0186029
0.0181007
0.0176039
0.0171225
0.0166902
0.0162987
0.0159104
0.0154767
0.0149726
0.0143739
0.0136827
0.0127187
0.010351
0.00937098
0.00744372
0.00677925
0.00542131
0.00923651
0.0122099
0.0144873
0.0161641
0.017254
0.017201
0.0145209
0.0138856
0.0193963
0.0211997
0.0215337
0.0215944
0.0214381
0.0211129
0.0207906
0.0204224
0.020016
0.0195449
0.0190557
0.0185493
0.0180537
0.0175671
0.017098
0.0166642
0.0162714
0.0158768
0.0154432
0.0149528
0.0143704
0.0136948
0.0128489
0.0105872
0.00960343
0.00759658
0.00687818
0.00522614
0.00895625
0.011974
0.0143058
0.0160388
0.0171788
0.0172135
0.0146129
0.0143135
0.0202264
0.0209464
0.0211234
0.0211228
0.020975
0.0206496
0.0203067
0.0199727
0.0196078
0.0191579
0.0186902
0.0182084
0.0177358
0.0172861
0.0168542
0.0164241
0.016027
0.0156172
0.0151722
0.0146849
0.0141205
0.0134501
0.0126793
0.011186
0.0103209
0.00812137
0.00721109
0.00485484
0.00847947
0.0115963
0.0140338
0.0158669
0.0170978
0.0172396
0.0147514
0.0147552
0.0206057
0.0204174
0.0204477
0.020387
0.0201865
0.0199169
0.0196426
0.0193525
0.0190194
0.0185994
0.018142
0.0176833
0.0172239
0.0168624
0.0165043
0.0160563
0.0156422
0.0152232
0.0147531
0.0142715
0.0136033
0.0129768
0.0120198
0.0112277
0.0107496
0.00881981
0.00747524
0.00428996
0.00785131
0.0111393
0.0137341
0.0157075
0.0170842
0.0174103
0.0150311
0.0149579
0.014186
0.0140623
0.0140225
0.0139673
0.0138742
0.0137472
0.0136006
0.0134196
0.0131798
0.012904
0.0125918
0.0122738
0.0119589
0.0116654
0.0113894
0.0111061
0.0108147
0.0105137
0.0101775
0.00979144
0.00932586
0.00880873
0.00824546
0.00769287
0.00719722
0.00686932
0.00675535
0.0036339
0.00732987
0.0108395
0.0135907
0.0157009
0.0172279
0.0179857
0.0168566
0.016432
0.0155114
0.0154362
0.0153782
0.0153013
0.0151952
0.0150608
0.0149066
0.0146707
0.0143789
0.0140582
0.0137066
0.0133504
0.0130044
0.012666
0.012328
0.0119961
0.0116568
0.0112966
0.0108776
0.0103842
0.00979531
0.00914503
0.00843005
0.00772415
0.00711861
0.00660298
0.00625878
0.0244735
0.0241544
0.0239773
0.023893
0.0238351
0.0238068
0.0235099
0.0232863
0.0229456
0.0227106
0.0223967
0.0220931
0.021709
0.0212926
0.0207274
0.0200589
0.0192463
0.0183802
0.0174495
0.0164774
0.0154298
0.0143643
0.0132217
0.0123034
0.00679818
0.012115
0.0166453
0.0203271
0.0231738
0.0252081
0.0264531
0.0267462
0.0259401
0.0246707
0.0240862
0.0238297
0.0237444
0.0236043
0.0235781
0.0234615
0.0232382
0.0228013
0.0225251
0.0222021
0.0219416
0.02159
0.0212231
0.020728
0.0201598
0.019399
0.0185199
0.0175691
0.0165835
0.0155648
0.0145104
0.013466
0.0123301
0.0114098
0.0106484
0.00898068
0.00758743
0.0128786
0.0172544
0.0207946
0.023502
0.0254134
0.026533
0.0266966
0.0260184
0.0248258
0.0242273
0.0238683
0.0235882
0.023365
0.0232437
0.0231139
0.0229156
0.0225395
0.0222727
0.0219657
0.0217099
0.0213839
0.0210515
0.020616
0.0201657
0.0195693
0.0188485
0.0179139
0.0169047
0.0158944
0.0148664
0.0138951
0.0128547
0.0119148
0.0110284
0.0103018
0.00837534
0.0137624
0.0180248
0.0214176
0.0239727
0.0257624
0.0267867
0.0268723
0.0261689
0.0251623
0.0247135
0.0243472
0.0239524
0.023597
0.0234005
0.0232174
0.0228815
0.0225584
0.0222458
0.0219288
0.0216501
0.0213628
0.0210487
0.0206307
0.0202344
0.0197281
0.0191592
0.0183662
0.0173836
0.0163511
0.0153127
0.0143492
0.0133321
0.012393
0.0115783
0.0107901
0.00896183
0.014484
0.0187025
0.0219684
0.0244091
0.0261096
0.027071
0.027109
0.0263757
0.025582
0.0252507
0.0248458
0.0243916
0.0239506
0.0237148
0.0234442
0.0230954
0.0227449
0.0223986
0.0220464
0.0216879
0.0213447
0.0210358
0.0206575
0.0202937
0.0198302
0.0193491
0.0186821
0.0178392
0.0168168
0.0157629
0.0148011
0.0137619
0.012765
0.0120232
0.0111096
0.00932826
0.0149569
0.0191568
0.0223482
0.0247173
0.0263628
0.0272869
0.0273026
0.0265684
0.0259298
0.0256657
0.0252751
0.024787
0.0243156
0.0240298
0.0236955
0.0233745
0.022961
0.0225804
0.0221975
0.0217857
0.0213805
0.0209886
0.0206213
0.0202831
0.019858
0.0194373
0.0188601
0.0181541
0.0172209
0.0161702
0.0152035
0.0141244
0.0130894
0.0123233
0.0114242
0.00952094
0.0151915
0.0193837
0.0225396
0.0248742
0.0264933
0.0274022
0.0274165
0.0266954
0.0261136
0.0258867
0.0255298
0.025047
0.0245858
0.0241835
0.0239713
0.0235522
0.02319
0.0227155
0.0223101
0.0218315
0.0214044
0.0209242
0.0205394
0.0201519
0.0197865
0.0194304
0.0189291
0.0183304
0.0175089
0.0164979
0.0155295
0.0144005
0.0133528
0.0125079
0.0116465
0.00954048
0.0152034
0.0193911
0.0225443
0.024878
0.0264988
0.0274146
0.0274433
0.026738
0.0261479
0.0259167
0.0255812
0.0251254
0.0246859
0.0242488
0.0240417
0.0236181
0.023319
0.0228247
0.0223995
0.0218975
0.0214601
0.0209517
0.0205474
0.0201394
0.0198001
0.0194572
0.0189911
0.0184556
0.0177181
0.0167642
0.0157847
0.0146055
0.013534
0.0126277
0.0117646
0.00937736
0.0149879
0.0191766
0.0223631
0.0247317
0.0263838
0.0273306
0.0273946
0.0267229
0.0260803
0.0257991
0.0254823
0.025065
0.0246371
0.0242042
0.0239664
0.0235741
0.0233491
0.0228636
0.0224462
0.0219474
0.0215162
0.0210157
0.0206264
0.0202671
0.0199219
0.0195611
0.0190919
0.0185689
0.0178667
0.0169717
0.0159643
0.0147598
0.0136634
0.0127055
0.0118115
0.00901985
0.0145213
0.0187308
0.0219981
0.0244444
0.0261603
0.0271645
0.027296
0.0266973
0.025977
0.0255904
0.0252888
0.0249171
0.024503
0.024085
0.0237763
0.0234929
0.0232763
0.0228285
0.0224018
0.0219456
0.0215237
0.0210998
0.0207409
0.0204268
0.0200893
0.0196554
0.0191927
0.0186218
0.0179419
0.0170317
0.0159954
0.0148189
0.0137214
0.0127199
0.0117584
0.00842427
0.0137921
0.0180663
0.0214766
0.0240483
0.0258639
0.0269486
0.0271649
0.0266392
0.0257968
0.0253109
0.0250094
0.0246882
0.0243402
0.024005
0.023745
0.0235244
0.023275
0.0228674
0.0223881
0.0219501
0.0215456
0.0211831
0.0208779
0.0205629
0.0202092
0.0197436
0.0192554
0.0186302
0.0178925
0.0169027
0.0157896
0.0145846
0.0135093
0.0124757
0.0113212
0.0076324
0.0129159
0.0173358
0.0209189
0.0236503
0.0255937
0.0267835
0.0270925
0.0265676
0.0255937
0.02512
0.0248588
0.0246494
0.0244196
0.024228
0.0240417
0.0237786
0.0233717
0.0229167
0.0224794
0.0220528
0.0216721
0.0212995
0.0209939
0.0206219
0.0202374
0.0197486
0.0192194
0.0185104
0.0176755
0.0165173
0.0153655
0.0140159
0.0130823
0.0119522
0.0104336
0.00686734
0.0122342
0.016831
0.0205504
0.0234145
0.0254668
0.0267641
0.0271763
0.0266178
0.0253736
0.024866
0.0246375
0.0244908
0.0243807
0.0242286
0.0240839
0.0237097
0.0233403
0.0228928
0.0224981
0.0220457
0.0216648
0.0212503
0.0209146
0.0205154
0.0201181
0.0196185
0.0190687
0.0182974
0.0173815
0.0161058
0.0149098
0.0134756
0.0125425
0.011331
0.00954022
0.020752
0.0209112
0.0207108
0.0207526
0.0202562
0.0204398
0.0197667
0.0198763
0.0191515
0.0193401
0.0187521
0.0188029
0.0182517
0.0180874
0.0171192
0.0164197
0.015044
0.0141565
0.0131212
0.0120667
0.0107346
0.00963097
0.00801783
0.00735442
0.00718212
0.0110898
0.013906
0.0164938
0.0189655
0.0211587
0.0229275
0.0240761
0.0228789
0.0211607
0.0212407
0.0212049
0.0212682
0.0209259
0.021015
0.0203189
0.0203836
0.0196185
0.019718
0.0189904
0.0191405
0.0184626
0.0185994
0.0178682
0.0177259
0.0164241
0.0151603
0.0138186
0.0127297
0.0115523
0.0102446
0.00901418
0.00740912
0.00647913
0.00603236
0.00471955
0.00789606
0.0118902
0.014574
0.0171236
0.0195959
0.0218105
0.0236121
0.0247575
0.0237015
0.021879
0.0219375
0.0218206
0.0216308
0.0213649
0.0210976
0.0207535
0.0204348
0.0200741
0.0200106
0.0193992
0.0194201
0.0186539
0.0187746
0.0180641
0.0181897
0.0173063
0.01695
0.0150874
0.0137116
0.0125157
0.0112062
0.0101234
0.00862509
0.00755725
0.00611577
0.00539104
0.00865962
0.012845
0.0155435
0.018091
0.0205348
0.0227339
0.024533
0.0256772
0.0247229
0.0227571
0.0226728
0.0224769
0.0221832
0.0218454
0.02151
0.0211703
0.0208197
0.0204545
0.0200889
0.0196937
0.0194671
0.019007
0.0190058
0.0182378
0.0183568
0.0175595
0.0175711
0.0163226
0.0148925
0.0134233
0.012117
0.0110348
0.00980452
0.00878906
0.00740121
0.00647869
0.00923078
0.0136419
0.0164114
0.0189549
0.0213781
0.0235647
0.0253576
0.0264773
0.0255358
0.0235668
0.0234585
0.023046
0.022701
0.0222762
0.021987
0.0216112
0.0212924
0.0209005
0.0204995
0.0200659
0.0196164
0.019192
0.0189379
0.0184725
0.0185098
0.0177029
0.0178268
0.0167795
0.0161102
0.01418
0.012876
0.0117828
0.0106697
0.00968751
0.00831241
0.00729066
0.00960134
0.01418
0.0170041
0.0195588
0.0219768
0.0241602
0.0259387
0.0270314
0.0260979
0.0241729
0.0240679
0.0235591
0.0231882
0.0226654
0.0225358
0.0219495
0.0218227
0.0211745
0.0208843
0.020452
0.0198332
0.0194261
0.0188
0.0184533
0.0184841
0.0177566
0.0178932
0.0169391
0.0167184
0.0151175
0.013604
0.0124181
0.0112823
0.0103212
0.00895104
0.00789541
0.00979037
0.0144563
0.0173126
0.0198777
0.0222955
0.0244759
0.0262447
0.0273316
0.0263999
0.0244398
0.0243527
0.0239081
0.0234039
0.0231034
0.0226215
0.0226428
0.0218352
0.0217982
0.0208796
0.0207882
0.0197373
0.0195783
0.0184995
0.018347
0.0177402
0.0175726
0.0177603
0.0169324
0.0168987
0.0156839
0.0142665
0.012942
0.011722
0.0107277
0.00934419
0.00827372
0.00980089
0.0144644
0.0173222
0.0198906
0.0223105
0.0244938
0.0262686
0.0273651
0.0264168
0.0244092
0.0243497
0.0239314
0.0234897
0.023233
0.022748
0.022791
0.0219697
0.0219751
0.0210471
0.0209771
0.0199041
0.0197511
0.0186258
0.0184687
0.0176021
0.0176833
0.0177331
0.0169805
0.0170608
0.0159796
0.0149613
0.0133178
0.012019
0.0109645
0.00953529
0.00844532
0.00962685
0.014196
0.0170237
0.0195907
0.0220201
0.0242164
0.0260159
0.0271413
0.0261665
0.0240891
0.0240645
0.0237637
0.0234026
0.0231349
0.0227383
0.022626
0.0220799
0.0220309
0.0211872
0.0211293
0.0200824
0.019932
0.0188175
0.0186488
0.0180844
0.0178955
0.0179018
0.0171786
0.0171753
0.0162072
0.0155664
0.013664
0.0121926
0.011038
0.0095108
0.0083933
0.00925961
0.0136585
0.0164334
0.0190058
0.0214584
0.0236759
0.0255123
0.0266927
0.0257057
0.0235447
0.0235973
0.023465
0.0232115
0.0229078
0.0225894
0.0222979
0.0219672
0.021665
0.0212533
0.0208794
0.0203469
0.019897
0.0193118
0.0189153
0.0185346
0.0184913
0.0177092
0.0176619
0.0168827
0.0166642
0.0154548
0.0138854
0.0121319
0.0108705
0.0091984
0.00808242
0.00869133
0.0128666
0.0155859
0.0181771
0.0206731
0.0229273
0.0247976
0.0260414
0.0250384
0.0229328
0.0230167
0.0229739
0.0228053
0.022565
0.0222828
0.0219848
0.021679
0.0213571
0.0210019
0.0206039
0.0201679
0.0197249
0.0192977
0.0190318
0.0185711
0.0185179
0.0176977
0.0176742
0.0168013
0.016521
0.0150767
0.0132287
0.0115056
0.0102845
0.00842823
0.00737817
0.00795048
0.0119793
0.0147106
0.0173132
0.0198475
0.022132
0.0240223
0.0253078
0.0242764
0.0223105
0.0223952
0.0224335
0.0223541
0.0222058
0.0219783
0.0217362
0.021417
0.0210819
0.0206869
0.0203006
0.0198701
0.0195855
0.0190668
0.0190544
0.0183078
0.0183224
0.0175144
0.0174626
0.0165087
0.0162147
0.0140101
0.0123604
0.0104136
0.00945853
0.00877162
0.00673969
0.00733796
0.0113722
0.0142465
0.0168862
0.0194186
0.0216768
0.0235195
0.0247793
0.0237108
0.0218861
0.0220266
0.0221314
0.0220774
0.0221747
0.0217591
0.0218631
0.0211646
0.0212194
0.0204225
0.0204566
0.0196236
0.0196552
0.018828
0.0188712
0.0180682
0.0181169
0.0172861
0.0172396
0.0161821
0.0157607
0.0131851
0.0116954
0.00968682
0.00878614
0.00804124
0.00596848
0.00802416
0.00824192
0.00836203
0.00840462
0.00841428
0.00835752
0.00829406
0.00818498
0.00801695
0.00782187
0.00767927
0.00752216
0.00736942
0.00712605
0.00677087
0.00627352
0.0056987
0.00507345
0.00440176
0.00383669
0.00325157
0.00283452
0.00225676
0.00204186
0.00399863
0.00462235
0.00509152
0.00571185
0.00681874
0.00842584
0.010277
0.0121804
0.0121664
0.00881118
0.0090011
0.00905756
0.0090646
0.00904275
0.00897086
0.00888675
0.00876782
0.00863209
0.00845071
0.00821644
0.00796827
0.00776807
0.00754473
0.00727276
0.00686792
0.00630356
0.00563844
0.00493123
0.00423547
0.00362508
0.00305991
0.00258056
0.0020228
0.00172913
0.00168909
0.00129261
0.00436814
0.00505913
0.00561221
0.00635194
0.00762458
0.0093827
0.0114705
0.0134541
0.0135917
0.0102484
0.0103633
0.0103589
0.0102855
0.0101789
0.0100468
0.00992439
0.00978098
0.00962507
0.00955012
0.00941742
0.00919862
0.00886718
0.00849614
0.00809638
0.00768795
0.00721622
0.00658716
0.00586529
0.00509039
0.0043821
0.0036542
0.00314979
0.00250581
0.00210316
0.00161939
0.00144475
0.00472364
0.00553369
0.0061858
0.00709041
0.00858918
0.0105417
0.0127965
0.0149224
0.0151562
0.0118152
0.0117674
0.0116532
0.0114837
0.0113304
0.0111316
0.0110526
0.0110646
0.0110313
0.0108849
0.0106231
0.0103235
0.00993326
0.00952442
0.00906202
0.00858801
0.00804096
0.00743286
0.0067254
0.0059153
0.00515707
0.00437422
0.00374717
0.0031056
0.0026536
0.00210202
0.00183948
0.00504479
0.00589675
0.00666059
0.00775305
0.00943663
0.011575
0.0139287
0.0162339
0.0164683
0.0130718
0.0129669
0.0127492
0.0125087
0.0123026
0.0122813
0.0123434
0.0123158
0.0121462
0.0119181
0.0115809
0.0112001
0.0107396
0.0102772
0.00977036
0.00927222
0.00872392
0.00810855
0.00741173
0.00660873
0.00581448
0.0050188
0.00435472
0.00365146
0.00311965
0.00249143
0.00216073
0.00524872
0.00614565
0.00698259
0.00821573
0.0100499
0.0123185
0.014767
0.0171399
0.0173472
0.0139627
0.0137848
0.0135028
0.0132181
0.0131612
0.0132673
0.0132975
0.0132067
0.0129847
0.0127048
0.0123156
0.0118772
0.0113472
0.0108131
0.0102583
0.00973299
0.00918304
0.00860355
0.00793682
0.00715477
0.00635539
0.00553307
0.00485836
0.00412032
0.00351467
0.00279112
0.00241674
0.00533208
0.00626839
0.00715197
0.00847986
0.0103879
0.0127196
0.0152093
0.0176091
0.0177831
0.0143685
0.0141672
0.0138574
0.013631
0.0136417
0.0137596
0.0137976
0.0137038
0.0134848
0.0131819
0.0127734
0.0122983
0.0117323
0.0111427
0.0105319
0.00997126
0.00942317
0.00886633
0.00825312
0.00751588
0.00674655
0.00590805
0.00520768
0.00444039
0.003797
0.00299
0.00258401
0.00534138
0.00627433
0.00715637
0.00849176
0.0103991
0.0127297
0.0152233
0.0176354
0.0177658
0.0142585
0.014132
0.0138593
0.0136663
0.0136834
0.0138168
0.0138754
0.0138017
0.0136045
0.0133209
0.0129242
0.0124607
0.011903
0.0113121
0.0106855
0.0101055
0.00954844
0.00900197
0.00842027
0.00773596
0.00701219
0.00616275
0.00543075
0.00462067
0.00394782
0.00308724
0.0026633
0.0052545
0.00614821
0.0069837
0.00822948
0.0100691
0.0123415
0.0148063
0.017223
0.0173192
0.0137099
0.0136756
0.0135321
0.013307
0.0132615
0.0133885
0.0134743
0.013471
0.0133246
0.013098
0.0127572
0.0123471
0.0118288
0.0112741
0.0106728
0.0101142
0.0095555
0.00901055
0.00843904
0.00778293
0.0070936
0.00625927
0.00549158
0.00463363
0.00392893
0.00305688
0.00263496
0.00506443
0.00590209
0.00664912
0.00775655
0.0094569
0.0116155
0.014016
0.0164124
0.0164602
0.0127347
0.0128133
0.0127747
0.0126908
0.0125506
0.0125389
0.0126238
0.0127357
0.0126819
0.0125433
0.0122725
0.0119351
0.0114755
0.010988
0.0104364
0.00991208
0.00936077
0.00882116
0.00824853
0.00761611
0.00694751
0.00612461
0.005335
0.00443089
0.00371991
0.00287442
0.00248387
0.0047445
0.00553771
0.0061696
0.00708352
0.00861443
0.0106262
0.0129609
0.0152633
0.0152988
0.0114841
0.0116733
0.0117376
0.0117491
0.0117061
0.0116633
0.0115945
0.0116345
0.0116792
0.011685
0.0115047
0.0112381
0.0108483
0.0104237
0.00992774
0.00943528
0.00890444
0.00837722
0.00780482
0.00719905
0.00653235
0.00566581
0.00486615
0.00393208
0.00330723
0.00251264
0.00218557
0.00439153
0.00507459
0.00562967
0.00637439
0.00768453
0.00954872
0.0118051
0.0140199
0.0140602
0.0102464
0.0104707
0.0106336
0.0107436
0.0108085
0.0108199
0.0108103
0.010763
0.0106695
0.0106331
0.0105604
0.0103956
0.0100922
0.00971714
0.00926097
0.0087912
0.00828298
0.00778403
0.00726497
0.00664687
0.00592394
0.00495739
0.00420169
0.00328029
0.00287797
0.00286482
0.00209809
0.0039774
0.00463426
0.00515542
0.00585093
0.0070681
0.00880467
0.0109132
0.0130919
0.0131744
0.00948077
0.00973813
0.00993441
0.0101049
0.0102404
0.0103254
0.0103377
0.0103118
0.0102293
0.0100705
0.00995958
0.00983247
0.00956326
0.00921592
0.00878328
0.00834833
0.00788234
0.00742961
0.00693598
0.00626549
0.00548385
0.00450033
0.00378992
0.00293967
0.00259222
0.00256053
0.00184025
0.000434289
0.000614959
0.0007835
0.00093758
0.00106814
0.00119521
0.00131662
0.00143673
0.00151395
0.00156928
0.00160986
0.00162667
0.00162206
0.00158721
0.00151889
0.00140655
0.0012531
0.00106625
0.000884669
0.000734465
0.00060921
0.000518151
0.000427318
0.000386368
9.02714e-06
9.15031e-06
9.17087e-06
9.18649e-06
9.16827e-06
9.13352e-06
8.97699e-06
7.27606e-06
5.34444e-06
1.08454e-05
3.41974e-05
9.96681e-05
0.000258097
0.000386553
0.000530197
0.000749519
0.000951657
0.00112853
0.00128025
0.00142525
0.00158026
0.00172496
0.00180235
0.00185595
0.00188788
0.00188329
0.00184667
0.00177733
0.00168593
0.00157109
0.00141415
0.00123492
0.00105556
0.000880713
0.000721459
0.000579378
0.000475543
0.000377442
0.000325351
0.000309479
0.000244116
9.02224e-06
9.16456e-06
9.18985e-06
9.25341e-06
9.17374e-06
9.1268e-06
8.86585e-06
6.36105e-06
6.68626e-06
2.28713e-05
8.40751e-05
0.00025387
0.000654394
0.000781689
0.00085735
0.00112677
0.0013695
0.00156005
0.00177564
0.00200517
0.00222502
0.00231881
0.0023689
0.00236502
0.00230075
0.00218064
0.00206502
0.00197383
0.00188102
0.00179615
0.00168759
0.00155408
0.00138972
0.00120528
0.00102486
0.000831893
0.00066622
0.000503226
0.000401763
0.000311553
0.000286775
9.0225e-06
9.15892e-06
9.22864e-06
9.2168e-06
9.18096e-06
9.12974e-06
8.45307e-06
5.41356e-06
1.08627e-05
4.54532e-05
0.000174049
0.000555392
0.00134413
0.00146615
0.0012571
0.00157498
0.00182525
0.00212341
0.00244989
0.00271854
0.0027707
0.00277305
0.00272396
0.00262939
0.00255049
0.0024711
0.00236315
0.00225476
0.00212717
0.0020013
0.00186854
0.00173221
0.00157652
0.00140531
0.00123159
0.00104313
0.000879098
0.000695504
0.000575469
0.000446433
0.000390902
9.03596e-06
9.19586e-06
9.21269e-06
9.21822e-06
9.17671e-06
9.10895e-06
6.3371e-06
5.07609e-06
1.62945e-05
7.43982e-05
0.00030652
0.000930453
0.00215065
0.00213046
0.00169421
0.00201441
0.00233139
0.00277744
0.00307094
0.0030891
0.00312999
0.00307576
0.00301571
0.00295979
0.00287129
0.00277533
0.00264916
0.00252278
0.00237815
0.00223745
0.0020823
0.00191938
0.00175082
0.00157041
0.0013976
0.00120169
0.00103257
0.000848408
0.000721555
0.000563528
0.00049062
9.03306e-06
9.17609e-06
9.20081e-06
9.18639e-06
9.1718e-06
9.10348e-06
5.30045e-06
5.70724e-06
2.20276e-05
0.000105731
0.000451958
0.00130548
0.00287262
0.00254381
0.00204769
0.00239755
0.00281783
0.00327526
0.00329785
0.00344184
0.00336446
0.00337574
0.00331393
0.00324595
0.0031416
0.00302822
0.00287973
0.00273194
0.00256957
0.00241546
0.00225335
0.00208554
0.00190374
0.00171498
0.00153719
0.00134114
0.00116325
0.000963329
0.00082504
0.000643886
0.000565948
9.03067e-06
9.18304e-06
9.20819e-06
9.20869e-06
9.16609e-06
9.0419e-06
4.77102e-06
6.79083e-06
2.69928e-05
0.000129793
0.000550043
0.00153204
0.0032914
0.00300831
0.00220868
0.00256719
0.00307297
0.0034343
0.00347423
0.0034855
0.00355271
0.00353412
0.0034839
0.00341918
0.00331026
0.00318929
0.00302891
0.00286416
0.00268428
0.00251948
0.00235184
0.00218465
0.00200584
0.00181668
0.00163715
0.00144109
0.00125843
0.00104525
0.000897263
0.000697067
0.000615215
9.02988e-06
9.18212e-06
9.21445e-06
9.2082e-06
9.1757e-06
9.0284e-06
4.70923e-06
7.03547e-06
2.78615e-05
0.000132758
0.00055644
0.0015408
0.00329735
0.00300369
0.0021347
0.00248888
0.00296843
0.00339115
0.00350271
0.00348921
0.00354354
0.00355765
0.00351026
0.00345502
0.00335352
0.00323541
0.00307623
0.00291325
0.00272988
0.00256101
0.00239033
0.00222565
0.0020532
0.0018723
0.00169927
0.00150339
0.00131708
0.00109392
0.000938833
0.000725801
0.000641991
9.0181e-06
9.14655e-06
9.18959e-06
9.19782e-06
9.16969e-06
9.08131e-06
5.09619e-06
5.98055e-06
2.30489e-05
0.000108535
0.000455128
0.00130674
0.0028864
0.00251935
0.00188416
0.00225418
0.00260578
0.00314836
0.00336262
0.00336469
0.00344702
0.00342147
0.00338903
0.0033454
0.00325647
0.00315712
0.00301425
0.00286581
0.0026927
0.0025313
0.00236337
0.00220212
0.00203717
0.00187216
0.00171015
0.0015144
0.00132467
0.00109731
0.000939059
0.000720463
0.00063591
9.03657e-06
9.17836e-06
9.18413e-06
9.22506e-06
9.17173e-06
9.11162e-06
5.95353e-06
5.14592e-06
1.72809e-05
7.77897e-05
0.000314746
0.000946673
0.00220926
0.00210568
0.00151312
0.00187678
0.00220123
0.00252525
0.00299113
0.00317805
0.00321805
0.00319745
0.00317183
0.00312722
0.00305655
0.00297565
0.00285191
0.00272344
0.00256772
0.00241942
0.00226006
0.002107
0.00195944
0.00181517
0.00166457
0.00146417
0.00127038
0.00104514
0.000883847
0.000666979
0.000584579
9.03905e-06
9.1814e-06
9.21335e-06
9.21489e-06
9.18937e-06
9.11809e-06
8.21337e-06
5.32841e-06
1.1326e-05
4.81724e-05
0.000184927
0.000592263
0.00143751
0.0015008
0.00113247
0.00146024
0.00175239
0.00199984
0.00229119
0.00263276
0.00290198
0.0029445
0.00294333
0.00289712
0.0027996
0.00272377
0.00261571
0.00250291
0.00236481
0.00222939
0.00208506
0.00196005
0.0018426
0.00170806
0.00154278
0.00132533
0.00113454
0.000903799
0.000750282
0.000556546
0.00049105
9.02202e-06
9.15947e-06
9.22926e-06
9.20395e-06
9.16778e-06
9.12159e-06
8.86461e-06
6.3754e-06
6.62372e-06
2.28707e-05
8.76346e-05
0.000292696
0.000817825
0.000900111
0.000800289
0.00107297
0.00133925
0.00158302
0.0017918
0.00203128
0.00229379
0.00256685
0.00266133
0.00268259
0.00264358
0.00254176
0.00239621
0.00228197
0.00215879
0.00204785
0.00193993
0.00184093
0.00172801
0.00154834
0.00135599
0.00110542
0.000921654
0.000695899
0.00060665
0.000573763
0.000423091
9.04719e-06
9.18431e-06
9.21083e-06
9.19278e-06
9.18054e-06
9.14834e-06
8.69778e-06
7.08632e-06
5.32741e-06
1.17372e-05
4.09132e-05
0.000144299
0.000479294
0.000625588
0.000630149
0.000866894
0.00110812
0.00134298
0.00155373
0.00174102
0.00196576
0.00218693
0.00240087
0.00249266
0.00250506
0.00244976
0.00231556
0.00218147
0.00206815
0.00197158
0.00187783
0.00177013
0.00160384
0.00137826
0.00115941
0.000923538
0.000758004
0.00058348
0.000513244
0.000487626
0.000377326
8.02257e-06
8.48848e-06
9.94151e-06
1.22556e-05
1.5312e-05
1.90872e-05
2.36021e-05
2.87841e-05
3.42256e-05
3.97043e-05
4.5073e-05
5.00506e-05
5.44539e-05
5.58216e-05
6.09583e-05
6.15203e-05
6.06849e-05
5.8511e-05
5.55778e-05
5.21997e-05
4.87674e-05
4.5381e-05
4.22498e-05
4.00158e-05
9.00035e-06
8.98391e-06
8.96781e-06
8.9526e-06
8.93799e-06
8.9233e-06
8.90828e-06
8.89698e-06
8.88543e-06
8.87338e-06
8.86828e-06
8.86454e-06
8.85992e-06
8.86623e-06
7.98824e-06
8.98226e-06
1.13971e-05
1.48674e-05
1.92681e-05
2.4637e-05
3.11557e-05
3.85373e-05
4.61514e-05
5.37046e-05
6.08705e-05
6.72216e-05
7.24338e-05
7.63079e-05
7.86697e-05
7.94619e-05
7.84636e-05
7.60452e-05
7.24818e-05
6.82402e-05
6.35513e-05
5.86713e-05
5.3445e-05
4.74637e-05
4.33592e-05
4.1515e-05
3.21187e-05
9.00007e-06
8.98319e-06
8.96679e-06
8.9506e-06
8.93542e-06
8.92051e-06
8.90665e-06
8.89599e-06
8.88552e-06
8.87225e-06
8.86223e-06
8.86769e-06
8.85889e-06
8.86185e-06
8.40632e-06
1.16566e-05
1.68947e-05
2.36727e-05
3.22719e-05
4.30181e-05
5.5403e-05
6.81403e-05
8.05799e-05
9.19222e-05
0.000101209
0.000107683
0.000112203
0.000115244
0.00011677
0.000117157
0.000115968
0.000113375
0.00010915
0.000103734
9.7173e-05
8.97415e-05
8.13352e-05
7.23652e-05
6.4879e-05
5.74065e-05
5.35276e-05
8.9996e-06
8.9842e-06
8.96761e-06
8.95046e-06
8.93406e-06
8.91938e-06
8.90693e-06
8.8956e-06
8.88504e-06
8.87707e-06
8.87139e-06
8.8679e-06
8.87104e-06
8.8503e-06
1.01349e-05
1.69164e-05
2.62398e-05
3.87886e-05
5.52257e-05
7.44091e-05
9.30534e-05
0.00011029
0.000125012
0.000137055
0.000146443
0.0001538
0.000158588
0.000161312
0.000161761
0.00016056
0.000157608
0.000153282
0.000147379
0.000140259
0.000131921
0.000122683
0.000112698
0.000102502
9.30125e-05
8.15722e-05
7.26395e-05
9.00065e-06
8.98514e-06
8.96844e-06
8.95218e-06
8.93578e-06
8.9206e-06
8.90888e-06
8.89758e-06
8.88639e-06
8.87686e-06
8.86914e-06
8.86755e-06
8.88451e-06
8.81293e-06
1.34571e-05
2.45984e-05
3.98436e-05
6.12282e-05
8.57546e-05
0.000109254
0.000131095
0.000150576
0.000167207
0.000181165
0.000191658
0.000200527
0.000205697
0.000208291
0.000208081
0.000205772
0.000201204
0.000194967
0.000186979
0.000177744
0.00016729
0.000155996
0.000144554
0.000130347
0.000115382
9.86829e-05
8.66492e-05
9.00274e-06
8.98644e-06
8.96999e-06
8.9538e-06
8.93774e-06
8.92252e-06
8.91031e-06
8.89805e-06
8.88752e-06
8.87927e-06
8.87117e-06
8.86985e-06
8.89261e-06
8.74463e-06
1.70014e-05
3.27844e-05
5.50614e-05
8.41285e-05
0.000112213
0.000139856
0.000165102
0.000187633
0.000206936
0.000222685
0.000231019
0.000246372
0.000251142
0.000252959
0.00025163
0.000248009
0.000241951
0.000234093
0.000224312
0.000213226
0.000200898
0.000188038
0.000172838
0.000153024
0.000133451
0.000112345
9.77126e-05
9.00161e-06
8.98563e-06
8.9701e-06
8.95454e-06
8.93812e-06
8.92166e-06
8.90655e-06
8.8952e-06
8.88598e-06
8.88042e-06
8.87397e-06
8.87021e-06
8.87752e-06
8.69492e-06
1.90617e-05
3.74383e-05
6.434e-05
9.59671e-05
0.000126643
0.000156298
0.000184475
0.000209727
0.00023201
0.000248388
0.000262275
0.000272022
0.000277262
0.000279092
0.000277351
0.000273069
0.000266212
0.000257553
0.000246923
0.000234963
0.000221704
0.000207909
0.000189745