/*--------------------------------*- C++ -*----------------------------------*\
  =========                 |
  \\      /  F ield         | OpenFOAM: The Open Source CFD Toolbox
   \\    /   O peration     | Website:  https://openfoam.org
    \\  /    A nd           | Version:  7
     \\/     M anipulation  |
\*---------------------------------------------------------------------------*/
FoamFile
{
    version     2.0;
    format      ascii;
    class       volScalarField;
    location    "200";
    object      p;
}
// * * * * * * * * * * * * * * * * * * * * * * * * * * * * * * * * * * * * * //

dimensions      [0 2 -2 0 0 0 0];

internalField   nonuniform List<scalar> 
120313
(
-17.1648
-15.6229
-14.0481
-12.5239
-11.0712
-9.69919
-8.45427
-7.33874
-6.34547
-5.45948
-4.67205
-3.97971
-3.3672
-2.82826
-2.34963
-1.92627
-1.54726
-1.21734
-0.933541
-0.701099
-0.501282
-0.333651
-0.190903
-0.139035
-17.2131
-15.6947
-14.1825
-12.6343
-11.1376
-9.76756
-8.51659
-7.39864
-6.40012
-5.5094
-4.72273
-4.03269
-3.41975
-2.87981
-2.40117
-1.97877
-1.60076
-1.26669
-0.971828
-0.725258
-0.517379
-0.342692
-0.195768
-0.125925
-17.2104
-15.7166
-14.1901
-12.6684
-11.1721
-9.78999
-8.54381
-7.42348
-6.42629
-5.53414
-4.74659
-4.05556
-3.44291
-2.90154
-2.42248
-1.99992
-1.62101
-1.28403
-0.982532
-0.728565
-0.511804
-0.324098
-0.169277
-0.12161
-17.2294
-15.7417
-14.2
-12.6954
-11.2015
-9.81208
-8.56813
-7.4456
-6.44916
-5.55815
-4.76826
-4.07478
-3.46519
-2.92191
-2.44255
-2.02026
-1.64261
-1.3059
-1.00186
-0.74109
-0.516666
-0.32105
-0.170986
-0.0901012
-17.2473
-15.7572
-14.2083
-12.7132
-11.2218
-9.83145
-8.58943
-7.46621
-6.46994
-5.5789
-4.78706
-4.09154
-3.48305
-2.93818
-2.45829
-2.03594
-1.65864
-1.32262
-1.0181
-0.753174
-0.52338
-0.322663
-0.166035
-0.0837095
-17.2611
-15.7625
-14.2111
-12.718
-11.2312
-9.84577
-8.60601
-7.48404
-6.48742
-5.59551
-4.80235
-4.10568
-3.49566
-2.94998
-2.46918
-2.0462
-1.66855
-1.33328
-1.02939
-0.763793
-0.531337
-0.329379
-0.160273
-0.106638
-17.2981
-15.775
-14.2252
-12.7104
-11.2271
-9.85704
-8.61714
-7.4967
-6.49848
-5.60615
-4.81302
-4.11549
-3.50315
-2.9575
-2.47599
-2.05201
-1.67395
-1.33967
-1.03798
-0.773267
-0.541627
-0.34315
-0.1727
-0.108896
-17.2752
-15.7284
-14.1554
-12.6042
-11.1688
-9.82477
-8.58406
-7.47066
-6.47415
-5.58686
-4.79631
-4.09798
-3.48105
-2.93613
-2.45422
-2.03
-1.65137
-1.31615
-1.01553
-0.755534
-0.52762
-0.331377
-0.170667
-0.1057
-22.4585
-22.9655
-23.5501
-23.8209
-23.734
-23.3002
-22.533
-21.5076
-19.6074
-18.0047
-16.3781
-14.7399
-13.1688
-11.6773
-10.2855
-8.98274
-7.8128
-6.77639
-5.84433
-5.03283
-4.32092
-3.6889
-3.12819
-2.63622
-2.19555
-1.79924
-1.45466
-1.15768
-0.909276
-0.702829
-0.533704
-0.39771
-0.293567
-0.190772
-0.0348154
0.00995038
-22.4068
-22.9968
-23.5734
-23.8301
-23.7295
-23.2866
-22.5239
-21.5201
-19.6894
-17.7038
-16.1554
-14.5208
-12.9702
-11.4922
-10.1029
-8.83111
-7.69069
-6.66892
-5.77004
-4.98066
-4.28183
-3.66685
-3.121
-2.63521
-2.20503
-1.82213
-1.48496
-1.18944
-0.940716
-0.724989
-0.554517
-0.40934
-0.346867
-0.279548
-0.0136904
-0.0578323
-22.2621
-22.9953
-23.5993
-23.85
-23.7375
-23.288
-22.5346
-21.5544
-19.7526
-17.7418
-16.2696
-14.6113
-13.0567
-11.5363
-10.1582
-8.88825
-7.74921
-6.73501
-5.83182
-5.02975
-4.32915
-3.71462
-3.16651
-2.67955
-2.2483
-1.86209
-1.52123
-1.22245
-0.963814
-0.742487
-0.565202
-0.410903
-0.380066
-0.272273
0.00325623
-0.0741114
-22.0588
-22.9513
-23.6111
-23.8703
-23.7525
-23.2997
-22.554
-21.5859
-19.7716
-17.7461
-16.3117
-14.6435
-13.09
-11.5697
-10.1739
-8.91128
-7.77025
-6.75442
-5.85197
-5.04495
-4.34227
-3.73058
-3.18272
-2.69474
-2.26369
-1.87873
-1.53896
-1.23676
-0.970567
-0.740727
-0.548323
-0.395231
-0.387445
-0.281974
0.0163119
-0.0800927
-21.8714
-22.8907
-23.6082
-23.8826
-23.7649
-23.311
-22.5709
-21.6146
-19.7981
-17.7623
-16.3389
-14.6642
-13.1117
-11.5941
-10.1882
-8.93011
-7.78754
-6.77123
-5.8701
-5.05978
-4.35447
-3.74233
-3.19551
-2.70734
-2.27626
-1.8911
-1.55279
-1.25084
-0.980968
-0.745189
-0.543454
-0.388846
-0.398623
-0.266916
0.032169
-0.0819023
-21.7557
-22.8437
-23.5981
-23.8837
-23.768
-23.3151
-22.5802
-21.6336
-19.8161
-17.7747
-16.3509
-14.6737
-13.1239
-11.6091
-10.2014
-8.9463
-7.80277
-6.78636
-5.8857
-5.0736
-4.36592
-3.75221
-3.20534
-2.71723
-2.28586
-1.90007
-1.5619
-1.26056
-0.989284
-0.749419
-0.545394
-0.383106
-0.386754
-0.266564
0.0360685
-0.0881663
-21.7344
-22.8297
-23.588
-23.8748
-23.7604
-23.3098
-22.5793
-21.6416
-19.8278
-17.7812
-16.3462
-14.6713
-13.1244
-11.6155
-10.212
-8.95842
-7.81587
-6.79949
-5.89867
-5.08608
-4.37623
-3.76105
-3.21323
-2.72448
-2.29224
-1.90596
-1.56728
-1.26664
-0.994559
-0.752891
-0.547488
-0.379652
-0.357346
-0.262145
0.0332144
-0.086332
-21.8115
-22.8518
-23.5789
-23.8567
-23.7427
-23.2945
-22.5659
-21.6344
-19.8298
-17.7969
-16.3235
-14.6567
-13.1136
-11.6117
-10.2225
-8.96579
-7.8263
-6.8094
-5.90749
-5.09571
-4.38537
-3.76869
-3.21951
-2.72949
-2.29537
-1.90834
-1.56906
-1.26929
-0.998025
-0.757055
-0.555064
-0.381748
-0.332809
-0.249303
0.0331088
-0.077597
-21.9758
-22.8941
-23.5661
-23.8315
-23.7188
-23.2721
-22.5392
-21.6106
-19.821
-17.7682
-16.2186
-14.5828
-13.0404
-11.5708
-10.2058
-8.93923
-7.80175
-6.7816
-5.87187
-5.06852
-4.36414
-3.74465
-3.19559
-2.70611
-2.27223
-1.88843
-1.5529
-1.25106
-0.981366
-0.739195
-0.538741
-0.376027
-0.30483
-0.244357
0.0316562
-0.0637939
-22.1763
-22.9217
-23.5399
-23.8026
-23.6975
-23.2526
-22.5084
-21.5679
-19.7845
-17.7442
-16.1336
-14.5314
-12.9964
-11.5412
-10.1838
-8.93349
-7.79353
-6.77215
-5.86799
-5.05418
-4.34711
-3.72806
-3.17748
-2.68628
-2.25201
-1.86637
-1.52943
-1.22766
-0.960772
-0.722106
-0.527566
-0.373534
-0.281981
-0.244631
0.015464
-0.0632431
-22.3345
-22.9023
-23.4984
-23.7777
-23.6898
-23.2521
-22.4982
-21.5192
-19.6355
-18.0375
-16.4128
-14.797
-13.2448
-11.7699
-10.3904
-9.1243
-7.95363
-6.89961
-5.97236
-5.1376
-4.41709
-3.78014
-3.21634
-2.71976
-2.27647
-1.88024
-1.52983
-1.21948
-0.943521
-0.703764
-0.504381
-0.347441
-0.235961
-0.16545
-0.0770888
-0.022948
-22.3949
-22.8311
-23.4606
-23.765
-23.6957
-23.2704
-22.5158
-21.5623
-19.644
-18.028
-16.4239
-14.8238
-13.2777
-11.8085
-10.4325
-9.1665
-7.98598
-6.93987
-6.00847
-5.18246
-4.46071
-3.8259
-3.25713
-2.74977
-2.30333
-1.90763
-1.55792
-1.2459
-0.966843
-0.72367
-0.52419
-0.365866
-0.249032
-0.151798
-0.0489177
-0.0256867
-17.8484
-16.1714
-14.6899
-13.1567
-11.7058
-10.3506
-9.10008
-7.96513
-6.9532
-6.05198
-5.25503
-4.5457
-3.91412
-3.34704
-2.84007
-2.39203
-1.99744
-1.64957
-1.35386
-1.10258
-0.893303
-0.723569
-0.57888
-0.545962
-22.7011
-23.1429
-23.584
-23.7903
-23.7209
-23.3794
-22.7438
-21.8204
-19.951
-17.8801
-16.2504
-14.6898
-13.1558
-11.6963
-10.3331
-9.08091
-7.94923
-6.93914
-6.03777
-5.24053
-4.53279
-3.90396
-3.34326
-2.83863
-2.3907
-1.99341
-1.64737
-1.34813
-1.0947
-0.881908
-0.708367
-0.578577
-0.457387
-0.42279
-0.197953
0.0323129
-22.7006
-23.1727
-23.6113
-23.8098
-23.729
-23.3746
-22.7321
-21.8358
-19.9802
-17.8992
-16.3285
-14.7443
-13.2036
-11.7305
-10.3562
-9.10209
-7.97444
-6.96366
-6.06448
-5.2636
-4.55467
-3.92605
-3.36881
-2.86847
-2.42292
-2.0205
-1.66828
-1.36007
-1.10114
-0.875282
-0.696763
-0.540325
-0.432269
-0.284263
-0.161161
0.0955707
-22.6507
-23.2063
-23.6572
-23.8482
-23.7549
-23.3873
-22.7452
-21.8958
-20.039
-17.9356
-16.4021
-14.81
-13.2573
-11.7615
-10.388
-9.1355
-8.00896
-6.99957
-6.09874
-5.29336
-4.58329
-3.95358
-3.39553
-2.89738
-2.45595
-2.05562
-1.70031
-1.38487
-1.11828
-0.885954
-0.702883
-0.536856
-0.43762
-0.264171
-0.131149
0.144369
-22.5557
-23.2141
-23.6974
-23.8887
-23.7849
-23.407
-22.7685
-21.9484
-20.0777
-17.9461
-16.4341
-14.8383
-13.2883
-11.7872
-10.4062
-9.15533
-8.02663
-7.01657
-6.11517
-5.30738
-4.59628
-3.96801
-3.40901
-2.90962
-2.46949
-2.0727
-1.7191
-1.39969
-1.12546
-0.886614
-0.699301
-0.530009
-0.439442
-0.2604
-0.120768
0.162525
-22.4543
-23.2002
-23.7198
-23.9175
-23.807
-23.4229
-22.7885
-21.9876
-20.1089
-17.9592
-16.4551
-14.8575
-13.3116
-11.809
-10.4223
-9.17282
-8.04354
-7.03408
-6.13311
-5.32328
-4.60892
-3.98001
-3.42124
-2.92178
-2.48121
-2.08561
-1.73451
-1.41532
-1.13595
-0.89182
-0.70041
-0.530807
-0.442004
-0.259286
-0.124285
0.164566
-22.3868
-23.1819
-23.7251
-23.9292
-23.8147
-23.4283
-22.7979
-22.0109
-20.1269
-17.9682
-16.4643
-14.8663
-13.3235
-11.8227
-10.435
-9.18632
-8.05667
-7.04722
-6.14668
-5.33595
-4.61934
-3.98802
-3.42826
-2.92946
-2.48928
-2.09347
-1.74393
-1.42635
-1.14473
-0.895482
-0.69994
-0.526377
-0.43628
-0.255858
-0.123973
0.164452
-22.3715
-23.1706
-23.7154
-23.9188
-23.8056
-23.4202
-22.7926
-22.0138
-20.1302
-17.9704
-16.4592
-14.8622
-13.3216
-11.8278
-10.4436
-9.1945
-8.06509
-7.05626
-6.15607
-5.34516
-4.6273
-3.99407
-3.43283
-2.93337
-2.4927
-2.09674
-1.74857
-1.43295
-1.15155
-0.898567
-0.697736
-0.520803
-0.423182
-0.244472
-0.118849
0.163124
-22.41
-23.1674
-23.6914
-23.8898
-23.7803
-23.3984
-22.7711
-21.9927
-20.1156
-17.9723
-16.4452
-14.8503
-13.3106
-11.8258
-10.45
-9.20017
-8.07264
-7.06436
-6.16419
-5.35353
-4.63493
-4.00037
-3.43821
-2.93674
-2.49381
-2.09665
-1.74891
-1.43491
-1.15479
-0.900199
-0.695473
-0.51558
-0.407909
-0.234909
-0.118156
0.158005
-22.4907
-23.1619
-23.6513
-23.8458
-23.7434
-23.3669
-22.7361
-21.9469
-20.0757
-17.9453
-16.3973
-14.8105
-13.2752
-11.8111
-10.4475
-9.19488
-8.06797
-7.0588
-6.15733
-5.34988
-4.63331
-3.99709
-3.43357
-2.92999
-2.48514
-2.08849
-1.74169
-1.4269
-1.14657
-0.890792
-0.683653
-0.505945
-0.388997
-0.235307
-0.135669
0.13677
-22.5742
-23.1356
-23.5953
-23.7938
-23.7036
-23.3358
-22.6987
-21.886
-20.0256
-17.902
-16.3406
-14.7708
-13.2444
-11.7913
-10.4363
-9.1927
-8.0662
-7.05592
-6.15442
-5.34429
-4.62753
-3.99111
-3.42599
-2.92061
-2.47551
-2.07833
-1.73101
-1.41342
-1.13179
-0.876174
-0.672435
-0.501869
-0.38098
-0.251182
-0.147814
0.0937343
-22.6209
-23.0849
-23.5381
-23.7502
-23.6752
-23.3199
-22.6792
-21.8388
-19.9992
-17.8598
-16.304
-14.7519
-13.2318
-11.7889
-10.4432
-9.20625
-8.08049
-7.06955
-6.16647
-5.35721
-4.6405
-4.00081
-3.43276
-2.92477
-2.47942
-2.08095
-1.73285
-1.40969
-1.12763
-0.872771
-0.676692
-0.521285
-0.402155
-0.364467
-0.081174
0.00795508
-22.5988
-23.0385
-23.5062
-23.7318
-23.6708
-23.327
-22.6874
-21.8209
-19.9906
-17.824
-16.3072
-14.7602
-13.2384
-11.8026
-10.4641
-9.22969
-8.10473
-7.09236
-6.18814
-5.3791
-4.66163
-4.01931
-3.44894
-2.93938
-2.49542
-2.09783
-1.74971
-1.42443
-1.14227
-0.891316
-0.692753
-0.547227
-0.408716
-0.407475
-0.154467
-0.000111679
-17.6774
-16.0631
-14.6164
-13.1435
-11.7329
-10.4128
-9.19689
-8.08275
-7.08594
-6.19889
-5.411
-4.71057
-4.09189
-3.54248
-3.05564
-2.62263
-2.24006
-1.90351
-1.61132
-1.36169
-1.13992
-0.954574
-0.789746
-0.658039
-22.7137
-23.0218
-23.3826
-23.5249
-23.4314
-23.1126
-22.5437
-21.7353
-19.9443
-17.7589
-16.1241
-14.6465
-13.1603
-11.7338
-10.4039
-9.18439
-8.07769
-7.0832
-6.19353
-5.40212
-4.70149
-4.0815
-3.53435
-3.0461
-2.61555
-2.23069
-1.89525
-1.59829
-1.34446
-1.12615
-0.937237
-0.785814
-0.640923
-0.463836
-0.194177
-0.0477838
-22.7476
-23.0738
-23.4301
-23.5694
-23.4662
-23.128
-22.546
-21.7646
-20.0078
-17.8101
-16.1828
-14.6883
-13.1905
-11.7453
-10.4029
-9.181
-8.0793
-7.08481
-6.19664
-5.40005
-4.69738
-4.07313
-3.52674
-3.03715
-2.60905
-2.22303
-1.8891
-1.58756
-1.3298
-1.10142
-0.910946
-0.738015
-0.600289
-0.415759
-0.237529
-0.0269488
-22.7452
-23.1335
-23.4989
-23.6406
-23.524
-23.1623
-22.5757
-21.837
-20.0899
-17.8556
-16.2476
-14.7463
-13.233
-11.7694
-10.4258
-9.20637
-8.10536
-7.10835
-6.21675
-5.41542
-4.70931
-4.0805
-3.52924
-3.03649
-2.60818
-2.22292
-1.88924
-1.5871
-1.32638
-1.09043
-0.897098
-0.715101
-0.581365
-0.395037
-0.229087
-0.00913943
-22.7001
-23.1616
-23.5601
-23.7071
-23.5727
-23.1931
-22.613
-21.9103
-20.1479
-17.8849
-16.2942
-14.7847
-13.2668
-11.8015
-10.455
-9.23192
-8.12653
-7.12798
-6.23592
-5.43269
-4.72326
-4.0902
-3.53335
-3.03555
-2.60364
-2.21725
-1.88336
-1.5814
-1.31942
-1.08001
-0.882743
-0.696204
-0.568775
-0.38383
-0.22512
0.000280108
-22.6384
-23.1671
-23.5997
-23.7505
-23.6021
-23.2141
-22.6427
-21.9677
-20.1806
-17.9034
-16.3195
-14.8102
-13.2976
-11.832
-10.478
-9.25293
-8.14684
-7.14898
-6.25721
-5.45294
-4.74036
-4.10383
-3.54179
-3.03949
-2.60314
-2.21485
-1.87948
-1.57826
-1.31631
-1.07664
-0.876964
-0.688443
-0.563337
-0.375725
-0.222233
0.0032968
-22.5945
-23.1629
-23.6161
-23.7689
-23.6126
-23.2207
-22.6551
-22.0031
-20.195
-17.9142
-16.3308
-14.8228
-13.3132
-11.8467
-10.4921
-9.26833
-8.16311
-7.16605
-6.27533
-5.4703
-4.75535
-4.11522
-3.54873
-3.04213
-2.60213
-2.21114
-1.87462
-1.57323
-1.31206
-1.07294
-0.872681
-0.682946
-0.55607
-0.369099
-0.216163
0.00721758
-22.5827
-23.1536
-23.6069
-23.7591
-23.6019
-23.2089
-22.6445
-21.9999
-20.1916
-17.9098
-16.3238
-14.8156
-13.3083
-11.8524
-10.4999
-9.27229
-8.16668
-7.17183
-6.28267
-5.47836
-4.7629
-4.12156
-3.55355
-3.0447
-2.60268
-2.20977
-1.87251
-1.57107
-1.31101
-1.07288
-0.872763
-0.68328
-0.551207
-0.366788
-0.215348
0.00852885
-22.6033
-23.1376
-23.5703
-23.7199
-23.5692
-23.1788
-22.61
-21.953
-20.1704
-17.8947
-16.3026
-14.7951
-13.2881
-11.841
-10.4998
-9.2734
-8.16813
-7.17383
-6.28506
-5.48094
-4.76576
-4.12418
-3.55626
-3.04631
-2.60345
-2.2093
-1.87215
-1.57054
-1.31164
-1.07407
-0.874845
-0.687006
-0.550088
-0.370034
-0.218944
0.00729197
-22.6472
-23.112
-23.5093
-23.6547
-23.5178
-23.1349
-22.5574
-21.8802
-20.1261
-17.8563
-16.2575
-14.7606
-13.2609
-11.8251
-10.4963
-9.27432
-8.16985
-7.1754
-6.28568
-5.48143
-4.76611
-4.12368
-3.55583
-3.0462
-2.60421
-2.21063
-1.8748
-1.57283
-1.31408
-1.07699
-0.879048
-0.694886
-0.555881
-0.387408
-0.233274
-0.00200195
-22.6798
-23.0636
-23.428
-23.5688
-23.4505
-23.0855
-22.5004
-21.795
-20.0631
-17.8028
-16.2051
-14.7226
-13.2404
-11.8108
-10.4882
-9.27629
-8.17552
-7.18229
-6.29178
-5.485
-4.76814
-4.12428
-3.55649
-3.04764
-2.60793
-2.21507
-1.88053
-1.57716
-1.31885
-1.08231
-0.887784
-0.70976
-0.574978
-0.419541
-0.257441
-0.0193472
-22.6697
-22.9878
-23.3466
-23.4859
-23.3838
-23.0425
-22.4597
-21.7252
-19.9889
-17.7474
-16.1697
-14.7035
-13.2299
-11.8137
-10.4965
-9.28951
-8.19051
-7.1976
-6.30608
-5.4999
-4.78172
-4.13642
-3.56812
-3.06034
-2.62236
-2.2299
-1.89547
-1.58956
-1.33254
-1.0965
-0.907693
-0.734573
-0.630267
-0.5116
-0.162945
-0.0363853
-22.6179
-22.9307
-23.3014
-23.4465
-23.3564
-23.0318
-22.4537
-21.6911
-19.9414
-17.6834
-16.1358
-14.6934
-13.2259
-11.8234
-10.5166
-9.31043
-8.21094
-7.21506
-6.32264
-5.51695
-4.7988
-4.1524
-3.58374
-3.07575
-2.63804
-2.24526
-1.91006
-1.60403
-1.34622
-1.11269
-0.921186
-0.757257
-0.65607
-0.557346
-0.19186
-0.0614853
-17.2747
-15.6876
-14.4272
-13.0808
-11.7314
-10.4444
-9.26385
-8.1922
-7.22986
-6.36787
-5.59454
-4.9004
-4.28542
-3.7422
-3.25836
-2.82266
-2.42831
-2.07819
-1.76386
-1.48817
-1.23243
-1.01027
-0.813251
-0.593879
-22.1534
-22.3779
-22.6167
-22.6523
-22.4631
-22.1038
-21.5647
-20.7718
-19.2056
-17.3722
-15.7495
-14.454
-13.0932
-11.7342
-10.4468
-9.27063
-8.20757
-7.24537
-6.38096
-5.60076
-4.90245
-4.28161
-3.73692
-3.25147
-2.82111
-2.42955
-2.07954
-1.7631
-1.48389
-1.23422
-1.00597
-0.799377
-0.604119
-0.421533
-0.312689
-0.124484
-22.067
-22.3931
-22.6492
-22.7037
-22.5119
-22.147
-21.5984
-20.8424
-19.2856
-17.4998
-15.8563
-14.5319
-13.1482
-11.7504
-10.4525
-9.28179
-8.22481
-7.26019
-6.39789
-5.61536
-4.91966
-4.29211
-3.74164
-3.24502
-2.81292
-2.42305
-2.08086
-1.76305
-1.48233
-1.22707
-1.0028
-0.789397
-0.606727
-0.403802
-0.252649
-0.0899193
-21.9529
-22.3848
-22.6782
-22.7692
-22.5765
-22.1885
-21.6458
-20.9538
-19.3993
-17.6254
-15.9501
-14.6069
-13.1767
-11.7565
-10.4758
-9.30957
-8.25331
-7.28956
-6.42605
-5.64057
-4.94351
-4.31386
-3.75852
-3.25647
-2.81769
-2.4237
-2.08094
-1.76852
-1.48711
-1.2289
-1.0042
-0.789701
-0.604079
-0.402479
-0.240147
-0.0774463
-21.7606
-22.3202
-22.7032
-22.8136
-22.6107
-22.206
-21.7008
-21.0589
-19.4994
-17.7126
-16.0401
-14.6442
-13.1956
-11.786
-10.5035
-9.33764
-8.28369
-7.32078
-6.4576
-5.67066
-4.96953
-4.33228
-3.77009
-3.26248
-2.81982
-2.42162
-2.07658
-1.76422
-1.48674
-1.2272
-1.00292
-0.786276
-0.604275
-0.400614
-0.238816
-0.0721997
-21.5929
-22.2732
-22.7079
-22.8287
-22.6192
-22.2238
-21.7406
-21.1317
-19.5621
-17.7474
-16.0708
-14.6701
-13.2221
-11.8091
-10.5215
-9.36218
-8.31033
-7.34901
-6.4873
-5.70129
-4.99824
-4.35604
-3.78488
-3.27017
-2.82253
-2.4224
-2.07467
-1.76215
-1.48732
-1.23068
-1.00597
-0.789418
-0.609643
-0.403581
-0.238783
-0.0676844
-21.5055
-22.2457
-22.7124
-22.8369
-22.6213
-22.2282
-21.7537
-21.1659
-19.5927
-17.7605
-16.0831
-14.6912
-13.2382
-11.8153
-10.5287
-9.37095
-8.32016
-7.36798
-6.51318
-5.72834
-5.02437
-4.37708
-3.7985
-3.27478
-2.82068
-2.41732
-2.06811
-1.75438
-1.48188
-1.2291
-1.00616
-0.789533
-0.609648
-0.404093
-0.241059
-0.0658782
-21.494
-22.2403
-22.706
-22.8293
-22.612
-22.2136
-21.7391
-21.1555
-19.5821
-17.7489
-16.0772
-14.6766
-13.2276
-11.8138
-10.5263
-9.36904
-8.32278
-7.36972
-6.51651
-5.73334
-5.0283
-4.38219
-3.80452
-3.27883
-2.82204
-2.4162
-2.06531
-1.75083
-1.47903
-1.23045
-1.00989
-0.793618
-0.611937
-0.408488
-0.243297
-0.0652463
-21.5489
-22.2436
-22.683
-22.7983
-22.5846
-22.1794
-21.6944
-21.0976
-19.5353
-17.713
-16.0502
-14.6472
-13.1931
-11.7918
-10.5206
-9.361
-8.31377
-7.3593
-6.50438
-5.72159
-5.01997
-4.37688
-3.80229
-3.27781
-2.82214
-2.41478
-2.06305
-1.7469
-1.47552
-1.22899
-1.01065
-0.795795
-0.611974
-0.40839
-0.241917
-0.0655909
-21.6976
-22.2759
-22.6542
-22.7575
-22.5488
-22.1328
-21.6242
-21.0022
-19.4452
-17.6352
-15.9792
-14.6124
-13.1789
-11.7753
-10.5061
-9.35106
-8.30575
-7.35061
-6.49372
-5.71096
-5.01063
-4.36948
-3.79809
-3.27745
-2.82455
-2.41675
-2.06388
-1.74741
-1.47591
-1.23236
-1.01398
-0.802479
-0.617699
-0.417456
-0.251821
-0.0737475
-21.8876
-22.3123
-22.6016
-22.6824
-22.4842
-22.0875
-21.5435
-20.8837
-19.3358
-17.5118
-15.8857
-14.563
-13.1579
-11.754
-10.4926
-9.34431
-8.30243
-7.34475
-6.4856
-5.70147
-5.00099
-4.36038
-3.79217
-3.27465
-2.82442
-2.4153
-2.06301
-1.74734
-1.47863
-1.23585
-1.01617
-0.80651
-0.622772
-0.426455
-0.274509
-0.0904975
-21.9903
-22.2989
-22.5404
-22.5805
-22.3921
-22.0228
-21.4764
-20.7794
-19.2214
-17.3907
-15.8043
-14.5198
-13.15
-11.773
-10.4993
-9.35423
-8.31196
-7.35364
-6.49006
-5.704
-5.00036
-4.36005
-3.7928
-3.27711
-2.82668
-2.41721
-2.06718
-1.75513
-1.4881
-1.24742
-1.01657
-0.810033
-0.636473
-0.455579
-0.315583
-0.112565
-22.0439
-22.2601
-22.4945
-22.5231
-22.3441
-21.9908
-21.4535
-20.7346
-19.1453
-17.2722
-15.7126
-14.4643
-13.1271
-11.7767
-10.5251
-9.37214
-8.3206
-7.35804
-6.49378
-5.70589
-5.00178
-4.3607
-3.79383
-3.27836
-2.82738
-2.41929
-2.07048
-1.76223
-1.49417
-1.25535
-1.01709
-0.817112
-0.650696
-0.47667
-0.371007
-0.124151
-16.3537
-15.2487
-14.126
-12.8871
-11.6395
-10.4544
-9.37571
-8.39333
-7.47489
-6.62791
-5.85653
-5.15536
-4.52636
-3.96506
-3.46626
-3.01376
-2.61222
-2.24219
-1.91585
-1.61131
-1.34374
-1.09115
-0.861452
-0.596748
-19.0521
-19.0124
-19.0308
-19.028
-19.0816
-19.9347
-20.9493
-21.4714
-21.6371
-21.384
-20.9623
-20.3521
-19.416
-18.0241
-16.3449
-15.2405
-14.1084
-12.8986
-11.6644
-10.4964
-9.42005
-8.42087
-7.48837
-6.63704
-5.86168
-5.15999
-4.52843
-3.96732
-3.4639
-3.01541
-2.6089
-2.246
-1.91253
-1.61604
-1.34097
-1.09775
-0.858995
-0.625568
-0.408409
-0.271009
-0.145685
-18.9995
-19.0135
-19.0218
-19.0054
-19.0088
-19.7867
-20.8775
-21.4788
-21.6484
-21.3953
-20.9765
-20.3747
-19.426
-18.0701
-16.4166
-15.3084
-14.1402
-12.9081
-11.6761
-10.5283
-9.44405
-8.43437
-7.49166
-6.6397
-5.85882
-5.16202
-4.52574
-3.96558
-3.45338
-3.00699
-2.59653
-2.24022
-1.90484
-1.61529
-1.33338
-1.09908
-0.865498
-0.667091
-0.459709
-0.29689
-0.136031
-18.9754
-18.9938
-18.9953
-18.9585
-18.9263
-19.6169
-20.7792
-21.465
-21.6445
-21.3919
-20.9564
-20.3115
-19.4841
-18.1393
-16.5046
-15.33
-14.1842
-12.9595
-11.7359
-10.5756
-9.46928
-8.44827
-7.50461
-6.65157
-5.87111
-5.17333
-4.53739
-3.97328
-3.45901
-3.00712
-2.59581
-2.23685
-1.90484
-1.61539
-1.33848
-1.0997
-0.872856
-0.678204
-0.483957
-0.300406
-0.132932
-18.9543
-18.9703
-18.9618
-18.8976
-18.8174
-19.4873
-20.7276
-21.4508
-21.6056
-21.3561
-20.8889
-20.2489
-19.5189
-18.1213
-16.645
-15.3733
-14.1664
-12.9849
-11.7777
-10.6033
-9.49421
-8.47328
-7.52717
-6.67269
-5.89029
-5.18987
-4.54802
-3.97847
-3.45878
-3.00431
-2.58989
-2.23104
-1.8982
-1.61112
-1.33508
-1.09793
-0.866562
-0.673585
-0.482709
-0.307928
-0.140704
-18.9363
-18.9492
-18.9309
-18.8409
-18.7124
-19.3559
-20.666
-21.4354
-21.5767
-21.2951
-20.8476
-20.2675
-19.5632
-18.0985
-16.6693
-15.3519
-14.1721
-13.0144
-11.8134
-10.6507
-9.5457
-8.51474
-7.56111
-6.70234
-5.9195
-5.21502
-4.56747
-3.98954
-3.46492
-3.00587
-2.59021
-2.22952
-1.89711
-1.6106
-1.33618
-1.10128
-0.867548
-0.676585
-0.486323
-0.316012
-0.147764
-18.924
-18.935
-18.9098
-18.8022
-18.6432
-19.2787
-20.6181
-21.4084
-21.5533
-21.2527
-20.8041
-20.2423
-19.5614
-18.095
-16.6783
-15.3447
-14.1645
-13.0005
-11.8106
-10.6496
-9.54631
-8.53538
-7.61302
-6.76309
-5.9794
-5.26152
-4.59523
-4.00314
-3.46917
-3.00509
-2.58646
-2.22451
-1.89156
-1.60561
-1.3323
-1.09907
-0.865867
-0.675715
-0.486381
-0.324567
-0.156125
-18.9195
-18.9307
-18.9042
-18.7945
-18.6325
-19.2572
-20.6082
-21.3998
-21.5448
-21.2405
-20.7853
-20.2238
-19.5449
-18.078
-16.6932
-15.3522
-14.1588
-12.9965
-11.796
-10.6414
-9.54838
-8.53689
-7.61243
-6.76131
-5.96588
-5.24502
-4.58673
-4.00231
-3.47109
-3.0069
-2.5875
-2.22482
-1.89165
-1.60587
-1.33418
-1.10267
-0.86994
-0.677534
-0.488385
-0.328772
-0.159295
-18.9236
-18.9363
-18.9156
-18.82
-18.6828
-19.3235
-20.6315
-21.3971
-21.5452
-21.2652
-20.7692
-20.2096
-19.5091
-18.0768
-16.6912
-15.3876
-14.1639
-12.9835
-11.7775
-10.6075
-9.50516
-8.49384
-7.56041
-6.71458
-5.9314
-5.22563
-4.57618
-3.99851
-3.46898
-3.00671
-2.58605
-2.22356
-1.88912
-1.60354
-1.3321
-1.10073
-0.867773
-0.674008
-0.484065
-0.321239
-0.154591
-18.9347
-18.9494
-18.9383
-18.8677
-18.7788
-19.4408
-20.6633
-21.3958
-21.5672
-21.2957
-20.7788
-20.2026
-19.4409
-18.0791
-16.6076
-15.3553
-14.1506
-12.9507
-11.7431
-10.5852
-9.49033
-8.48348
-7.54954
-6.70239
-5.92164
-5.21991
-4.57456
-3.99997
-3.47294
-3.01198
-2.59138
-2.2282
-1.8933
-1.6074
-1.33659
-1.10416
-0.872477
-0.679068
-0.486618
-0.318963
-0.151079
-18.9496
-18.9657
-18.9641
-18.9211
-18.8848
-19.5698
-20.7266
-21.4049
-21.5432
-21.3175
-20.8517
-20.184
-19.3868
-18.0654
-16.4679
-15.3021
-14.1455
-12.9288
-11.7035
-10.5635
-9.47858
-8.47699
-7.54148
-6.69515
-5.91478
-5.21528
-4.5711
-3.99972
-3.47411
-3.01519
-2.59375
-2.23075
-1.89555
-1.61105
-1.33982
-1.10619
-0.872667
-0.683097
-0.485495
-0.325731
-0.159343
-18.9715
-18.9787
-18.9834
-18.961
-18.9557
-19.7261
-20.8106
-21.412
-21.5383
-21.315
-20.8717
-20.234
-19.3668
-18.067
-16.3428
-15.2643
-14.1491
-12.9242
-11.6968
-10.5541
-9.48975
-8.49093
-7.55565
-6.70353
-5.92188
-5.21964
-4.57633
-4.00539
-3.48072
-3.02227
-2.59981
-2.23821
-1.90266
-1.62147
-1.34501
-1.11424
-0.871896
-0.680314
-0.453031
-0.29265
-0.154769
-19.0451
-18.9742
-18.9894
-18.9733
-19.0078
-19.8701
-20.8461
-21.3622
-21.5037
-21.3095
-20.8542
-20.2429
-19.3286
-18.0429
-16.259
-15.177
-14.097
-12.9252
-11.7
-10.5692
-9.50307
-8.5024
-7.563
-6.70907
-5.92373
-5.22097
-4.57684
-4.00705
-3.48288
-3.02482
-2.60294
-2.24148
-1.90767
-1.6256
-1.34898
-1.11556
-0.876538
-0.683502
-0.454288
-0.302445
-0.137758
-16.0702
-14.9736
-13.874
-12.7331
-11.6134
-10.5432
-9.52709
-8.56987
-7.67295
-6.84848
-6.08961
-5.39828
-4.76739
-4.19944
-3.68364
-3.21708
-2.79251
-2.40245
-2.04915
-1.71488
-1.41755
-1.12863
-0.873311
-0.588474
-19.0544
-19.0568
-19.086
-19.1576
-19.3559
-19.8136
-20.2978
-20.5562
-20.5898
-20.3971
-19.9867
-19.3482
-18.4555
-17.3296
-16.0695
-15.0182
-13.9029
-12.7617
-11.6386
-10.5633
-9.54086
-8.57824
-7.67988
-6.85317
-6.09414
-5.40141
-4.77076
-4.20204
-3.68511
-3.21871
-2.79207
-2.40564
-2.04854
-1.72129
-1.41592
-1.1351
-0.867206
-0.604235
-0.381929
-0.275782
-0.152487
-19.0384
-19.0466
-19.0723
-19.1331
-19.3176
-19.7674
-20.2694
-20.5438
-20.5823
-20.389
-19.9756
-19.3426
-18.4778
-17.3387
-16.122
-15.0465
-13.915
-12.7765
-11.6533
-10.5739
-9.54516
-8.58224
-7.68204
-6.85718
-6.09552
-5.40571
-4.77144
-4.20453
-3.68178
-3.21863
-2.78663
-2.40821
-2.04477
-1.73114
-1.41628
-1.1515
-0.882613
-0.667155
-0.460158
-0.296767
-0.145248
-19.0213
-19.0296
-19.0502
-19.0982
-19.2652
-19.7055
-20.2274
-20.5245
-20.5728
-20.3778
-19.959
-19.3504
-18.5087
-17.3879
-16.1771
-15.0716
-13.945
-12.815
-11.6861
-10.597
-9.56316
-8.5988
-7.69805
-6.87108
-6.10901
-5.41768
-4.78347
-4.21276
-3.68984
-3.22209
-2.79161
-2.40952
-2.05151
-1.7353
-1.4304
-1.16412
-0.906885
-0.688816
-0.486769
-0.301994
-0.141496
-19.0035
-19.0097
-19.0229
-19.058
-19.2052
-19.643
-20.1831
-20.4985
-20.5533
-20.3523
-19.9424
-19.3594
-18.5257
-17.4003
-16.2239
-15.0891
-13.9457
-12.8305
-11.7075
-10.6167
-9.58502
-8.62044
-7.71462
-6.88606
-6.12242
-5.43027
-4.79158
-4.21747
-3.69
-3.22117
-2.78828
-2.4071
-2.04936
-1.73552
-1.43307
-1.16955
-0.913377
-0.69499
-0.490695
-0.308885
-0.144629
-18.988
-18.992
-18.9979
-19.0206
-19.152
-19.5887
-20.1452
-20.4743
-20.5326
-20.3268
-19.9268
-19.3535
-18.5077
-17.3733
-16.1674
-15.0711
-13.9491
-12.8577
-11.7553
-10.6744
-9.65337
-8.68086
-7.7484
-6.9112
-6.14818
-5.45481
-4.81156
-4.22948
-3.69807
-3.22581
-2.79256
-2.40976
-2.05351
-1.73967
-1.44003
-1.17758
-0.922899
-0.704152
-0.498797
-0.317612
-0.146947
-18.977
-18.9797
-18.9812
-18.9956
-19.1175
-19.5528
-20.1194
-20.4569
-20.5158
-20.3115
-19.9192
-19.3591
-18.5131
-17.3527
-16.1486
-15.057
-13.9453
-12.8735
-11.7723
-10.6682
-9.62374
-8.65157
-7.76545
-6.94908
-6.19594
-5.50546
-4.84714
-4.24229
-3.70172
-3.22583
-2.7905
-2.40696
-2.05072
-1.73747
-1.43908
-1.17723
-0.923628
-0.705332
-0.499833
-0.319238
-0.147574
-18.9727
-18.9754
-18.9764
-18.9897
-19.1101
-19.5444
-20.1108
-20.4486
-20.5073
-20.3034
-19.9106
-19.361
-18.515
-17.3324
-16.163
-15.0634
-13.9415
-12.8498
-11.7698
-10.6634
-9.61514
-8.66016
-7.77946
-6.97224
-6.20418
-5.48441
-4.82716
-4.23909
-3.7036
-3.22853
-2.7936
-2.40962
-2.05372
-1.74082
-1.4434
-1.18257
-0.92897
-0.710124
-0.502646
-0.322122
-0.14881
-18.9759
-18.9796
-18.9839
-19.0036
-19.1316
-19.5649
-20.1205
-20.4489
-20.5071
-20.3041
-19.9117
-19.3485
-18.4898
-17.3572
-16.2283
-15.1012
-13.9564
-12.8562
-11.7222
-10.6233
-9.58542
-8.6275
-7.73732
-6.92172
-6.15881
-5.46034
-4.81451
-4.23388
-3.70039
-3.22723
-2.7913
-2.40819
-2.05105
-1.73934
-1.44072
-1.18059
-0.924558
-0.704691
-0.494834
-0.313796
-0.146257
-18.9845
-18.9901
-19.0008
-19.0323
-19.1745
-19.6077
-20.1446
-20.458
-20.5119
-20.3106
-19.9097
-19.325
-18.476
-17.3852
-16.2076
-15.0767
-13.9423
-12.8269
-11.7017
-10.6127
-9.58197
-8.62399
-7.73089
-6.90938
-6.14779
-5.45279
-4.81202
-4.23391
-3.70322
-3.2302
-2.79498
-2.4113
-2.05455
-1.74248
-1.44374
-1.18253
-0.92521
-0.703542
-0.490995
-0.307241
-0.144553
-18.9959
-19.0032
-19.0205
-19.0653
-19.226
-19.6612
-20.1775
-20.4688
-20.5135
-20.316
-19.8987
-19.3035
-18.4459
-17.3626
-16.1436
-15.0565
-13.9353
-12.8104
-11.6851
-10.6008
-9.57201
-8.61481
-7.72082
-6.90008
-6.13885
-5.44641
-4.80676
-4.23197
-3.7016
-3.23082
-2.79378
-2.41252
-2.05299
-1.74445
-1.44003
-1.18167
-0.912421
-0.691804
-0.463274
-0.302636
-0.153764
-19.0085
-19.0147
-19.0368
-19.0932
-19.2713
-19.7137
-20.2081
-20.4772
-20.5138
-20.3174
-19.894
-19.2697
-18.4179
-17.3042
-16.0834
-15.0464
-13.9415
-12.8069
-11.6886
-10.609
-9.58452
-8.62182
-7.72679
-6.90175
-6.14177
-5.4473
-4.80939
-4.23389
-3.70487
-3.23354
-2.79671
-2.41647
-2.05521
-1.74968
-1.43829
-1.18406
-0.898134
-0.66885
-0.383063
-0.296024
-0.181503
-19.0216
-19.02
-19.0457
-19.1107
-19.3001
-19.7495
-20.2248
-20.4797
-20.5113
-20.3132
-19.8926
-19.2564
-18.399
-17.2609
-16.0126
-15.0002
-13.9169
-12.7963
-11.682
-10.6124
-9.58996
-8.62545
-7.72702
-6.9009
-6.13989
-5.44571
-4.80812
-4.23305
-3.70492
-3.23316
-2.79789
-2.41612
-2.05695
-1.7478
-1.43923
-1.17773
-0.89648
-0.651892
-0.380728
-0.301076
-0.153686
-15.5456
-14.5602
-13.5889
-12.5753
-11.5605
-10.5611
-9.59824
-8.68457
-7.82369
-7.01851
-6.27217
-5.58407
-4.95337
-4.37822
-3.8541
-3.37644
-2.94022
-2.54147
-2.17552
-1.83591
-1.51921
-1.2186
-0.936507
-0.636119
-19.0662
-19.0764
-19.1114
-19.1886
-19.3381
-19.5672
-19.7934
-19.9031
-19.8462
-19.6044
-19.1773
-18.5613
-17.7533
-16.7901
-15.5337
-14.595
-13.6054
-12.5864
-11.571
-10.5729
-9.61048
-8.69578
-7.83361
-7.02725
-6.28023
-5.59127
-4.95983
-4.38302
-3.85932
-3.38004
-2.94487
-2.54358
-2.17917
-1.83659
-1.52341
-1.21981
-0.935861
-0.646487
-0.422987
-0.23526
-0.133517
-19.0571
-19.0678
-19.1011
-19.1746
-19.319
-19.5461
-19.7762
-19.8929
-19.8398
-19.6
-19.1744
-18.562
-17.7618
-16.7867
-15.5611
-14.6093
-13.612
-12.5956
-11.5792
-10.5813
-9.61877
-8.70354
-7.83883
-7.03228
-6.283
-5.59433
-4.96005
-4.38363
-3.8557
-3.3787
-2.93875
-2.54267
-2.17237
-1.83879
-1.52055
-1.23318
-0.956166
-0.710652
-0.485285
-0.300693
-0.140013
-19.0445
-19.0545
-19.0847
-19.1523
-19.2903
-19.5153
-19.7515
-19.8771
-19.8294
-19.5919
-19.1688
-18.5638
-17.7726
-16.8088
-15.5772
-14.6276
-13.6358
-12.6216
-11.604
-10.6049
-9.64084
-8.72243
-7.85579
-7.04711
-6.29711
-5.60621
-4.97156
-4.39147
-3.86257
-3.38206
-2.94377
-2.54439
-2.17779
-1.84166
-1.5304
-1.24367
-0.978912
-0.734879
-0.516877
-0.312535
-0.137175
-19.0306
-19.0395
-19.0656
-19.1267
-19.2577
-19.4824
-19.7249
-19.8583
-19.8154
-19.5803
-19.161
-18.5636
-17.7785
-16.8182
-15.5994
-14.6475
-13.6507
-12.6377
-11.6195
-10.6164
-9.64873
-8.72861
-7.86023
-7.05137
-6.30111
-5.61037
-4.97401
-4.39256
-3.86064
-3.37954
-2.93955
-2.54108
-2.17415
-1.84051
-1.53083
-1.24795
-0.986286
-0.745889
-0.527234
-0.324039
-0.141568
-19.018
-19.0258
-19.048
-19.1037
-19.2286
-19.4531
-19.701
-19.8399
-19.8008
-19.5679
-19.1529
-18.5604
-17.7745
-16.8068
-15.6175
-14.6742
-13.6741
-12.6611
-11.6364
-10.6256
-9.65438
-8.73529
-7.86808
-7.06064