/*--------------------------------*- C++ -*----------------------------------*\
  =========                 |
  \\      /  F ield         | OpenFOAM: The Open Source CFD Toolbox
   \\    /   O peration     | Website:  https://openfoam.org
    \\  /    A nd           | Version:  7
     \\/     M anipulation  |
\*---------------------------------------------------------------------------*/
FoamFile
{
    version     2.0;
    format      ascii;
    class       volVectorField;
    location    "200";
    object      U;
}
// * * * * * * * * * * * * * * * * * * * * * * * * * * * * * * * * * * * * * //

dimensions      [0 1 -1 0 0 0 0];

internalField   nonuniform List<vector> 
120313
(
(-2.35662 0.0448575 -0.137173)
(-2.05979 0.0749447 -0.174318)
(-1.83926 0.0765692 -0.173562)
(-1.5984 0.0645779 -0.198321)
(-1.27568 0.0498322 -0.210403)
(-0.971268 0.047108 -0.193327)
(-0.696996 0.04923 -0.190526)
(-0.411629 0.0490198 -0.196467)
(-0.148986 0.0485415 -0.198975)
(0.105493 0.0516522 -0.193807)
(0.357494 0.0498174 -0.17198)
(0.598992 0.0519336 -0.153283)
(0.832574 0.055677 -0.143555)
(1.05256 0.0611895 -0.132822)
(1.26463 0.0646302 -0.125508)
(1.46447 0.0666229 -0.120345)
(1.66002 0.0620942 -0.121804)
(1.84598 0.0531475 -0.120019)
(2.02794 0.0385462 -0.115597)
(2.19559 0.0212205 -0.105586)
(2.37246 0.00436731 -0.100193)
(2.5216 -0.00957424 -0.0892269)
(2.66722 -0.0218268 -0.0723204)
(2.74145 -0.0226289 -0.0511953)
(-2.36476 0.095225 -0.123838)
(-2.00268 0.101549 -0.18301)
(-1.80753 0.102847 -0.191379)
(-1.42831 0.0898534 -0.214315)
(-1.19942 0.0746953 -0.191814)
(-0.889942 0.075651 -0.20664)
(-0.621432 0.0756573 -0.202584)
(-0.345769 0.0740302 -0.205584)
(-0.0867053 0.0743127 -0.213673)
(0.1669 0.0739995 -0.200365)
(0.403988 0.0720012 -0.170136)
(0.637068 0.0717564 -0.15517)
(0.862251 0.0746063 -0.148514)
(1.07555 0.0787374 -0.137685)
(1.2835 0.0839244 -0.129094)
(1.47814 0.0888525 -0.121901)
(1.67291 0.091298 -0.118714)
(1.85383 0.08666 -0.116397)
(2.03682 0.0762462 -0.122307)
(2.20669 0.0572788 -0.114004)
(2.36855 0.0402203 -0.113409)
(2.52395 0.0205462 -0.104222)
(2.66351 0.00601123 -0.0842085)
(2.70146 0.000555871 -0.0703176)
(-2.43498 0.0796759 -0.11086)
(-2.07307 0.0804813 -0.173644)
(-1.86118 0.07721 -0.186993)
(-1.54389 0.0835123 -0.221233)
(-1.24699 0.0746977 -0.202267)
(-0.96962 0.0741986 -0.198819)
(-0.682474 0.0775804 -0.201288)
(-0.412987 0.0755353 -0.202182)
(-0.151633 0.0781862 -0.209447)
(0.0999934 0.0769189 -0.202471)
(0.34342 0.0750864 -0.172129)
(0.573097 0.0717241 -0.152685)
(0.797356 0.074506 -0.148682)
(1.01037 0.0767102 -0.138317)
(1.21901 0.0812261 -0.128322)
(1.41462 0.08636 -0.11914)
(1.60995 0.0916358 -0.114097)
(1.79189 0.0906817 -0.112999)
(1.97783 0.084279 -0.120489)
(2.15131 0.0683921 -0.115502)
(2.31999 0.0527228 -0.117587)
(2.47529 0.0325373 -0.105804)
(2.60919 0.0204649 -0.0907593)
(2.62198 0.0114135 -0.0611141)
(-2.49039 0.063385 -0.104809)
(-2.13091 0.0618436 -0.168242)
(-1.91195 0.0613229 -0.181524)
(-1.61933 0.0685045 -0.218447)
(-1.28746 0.0699701 -0.202002)
(-1.03091 0.0702281 -0.189875)
(-0.731726 0.0739217 -0.19526)
(-0.468531 0.0735198 -0.194347)
(-0.206176 0.076158 -0.199472)
(0.0424974 0.0762514 -0.200089)
(0.290896 0.0749562 -0.173524)
(0.513227 0.0711835 -0.148494)
(0.740161 0.0726334 -0.144427)
(0.952008 0.0734226 -0.136281)
(1.1593 0.0763859 -0.125881)
(1.35535 0.0806172 -0.116287)
(1.54869 0.086617 -0.107494)
(1.73137 0.0896646 -0.104309)
(1.91723 0.0880076 -0.112082)
(2.09719 0.0780324 -0.112237)
(2.26937 0.06457 -0.114429)
(2.43352 0.049004 -0.109458)
(2.56628 0.0394426 -0.0881361)
(2.61448 0.0340474 -0.0960263)
(-2.51501 0.0349949 -0.102183)
(-2.15715 0.0342345 -0.164681)
(-1.93628 0.0377088 -0.177079)
(-1.6543 0.0461796 -0.215482)
(-1.30975 0.0564513 -0.198874)
(-1.063 0.0592575 -0.183782)
(-0.759915 0.0637716 -0.189537)
(-0.500532 0.0657272 -0.187362)
(-0.238943 0.0677311 -0.191032)
(0.00776785 0.0682679 -0.195716)
(0.258872 0.0680025 -0.17155)
(0.473368 0.0663959 -0.143887)
(0.70301 0.0657768 -0.140378)
(0.914186 0.0654642 -0.13387)
(1.1201 0.0662932 -0.1236)
(1.31574 0.0686719 -0.11355)
(1.50775 0.0721823 -0.103692)
(1.68943 0.0762314 -0.0973852)
(1.87356 0.0766343 -0.103047)
(2.05654 0.0726367 -0.104992)
(2.23072 0.0626784 -0.109061)
(2.401 0.0543746 -0.106488)
(2.5376 0.0452266 -0.0854918)
(2.5819 0.0430181 -0.0925994)
(-2.50672 0.0115801 -0.103683)
(-2.15004 0.00938476 -0.164172)
(-1.93142 0.0147716 -0.174974)
(-1.65252 0.0221718 -0.212438)
(-1.31009 0.0412581 -0.19644)
(-1.0662 0.0473228 -0.180816)
(-0.766186 0.0512972 -0.185217)
(-0.507584 0.0549983 -0.182542)
(-0.247579 0.0558628 -0.18504)
(-0.00261244 0.0567329 -0.189689)
(0.246003 0.0577946 -0.167149)
(0.460736 0.0586141 -0.139735)
(0.689064 0.0571799 -0.136502)
(0.899788 0.0564102 -0.130607)
(1.10528 0.0552984 -0.1211)
(1.29998 0.0553604 -0.11119)
(1.49196 0.0557389 -0.10202)
(1.67146 0.0588391 -0.0938494)
(1.85428 0.0595543 -0.0983801)
(2.03585 0.0603263 -0.0971032)
(2.21098 0.0547518 -0.1042)
(2.38395 0.0539554 -0.0979839)
(2.52634 0.0511816 -0.0798495)
(2.54922 0.0539598 -0.0569647)
(-2.46938 -0.0212819 -0.109456)
(-2.11332 -0.025512 -0.166114)
(-1.9079 -0.0215322 -0.16938)
(-1.60642 -0.0120326 -0.200879)
(-1.29762 0.0239329 -0.186099)
(-1.03653 0.031283 -0.179981)
(-0.753429 0.0325812 -0.17881)
(-0.49213 0.0382842 -0.176512)
(-0.234899 0.0390661 -0.1784)
(0.00948309 0.0411265 -0.182742)
(0.256205 0.0418544 -0.160262)
(0.471217 0.0445078 -0.13572)
(0.698177 0.0427751 -0.133426)
(0.908697 0.0418394 -0.126638)
(1.11453 0.0394578 -0.117907)
(1.30883 0.0375607 -0.108128)
(1.50135 0.0356916 -0.0997721)
(1.67963 0.036108 -0.0904119)
(1.86162 0.0356974 -0.0942134)
(2.04179 0.0378775 -0.092188)
(2.21472 0.0376552 -0.0987647)
(2.38977 0.0402306 -0.0950122)
(2.54125 0.0451697 -0.0763365)
(2.57202 0.0479842 -0.0504084)
(-2.49141 0.000470656 -0.117326)
(-2.19979 -0.0191 -0.151351)
(-1.97963 -0.00647196 -0.147304)
(-1.73001 0.00793034 -0.163964)
(-1.48605 0.0264739 -0.183074)
(-1.1374 0.0439767 -0.183875)
(-0.876158 0.0443031 -0.161302)
(-0.60405 0.0461275 -0.162044)
(-0.342855 0.0453385 -0.16294)
(-0.0952285 0.0453168 -0.166406)
(0.144975 0.0434758 -0.155523)
(0.37736 0.0456918 -0.136749)
(0.60438 0.0433394 -0.125176)
(0.821482 0.0407872 -0.116048)
(1.0351 0.0368779 -0.107813)
(1.23736 0.03151 -0.0984581)
(1.43504 0.0276526 -0.0925769)
(1.61949 0.024655 -0.0902034)
(1.8084 0.0251326 -0.0916327)
(1.98578 0.028302 -0.0900666)
(2.17432 0.0335054 -0.0936638)
(2.34576 0.0396266 -0.0891052)
(2.50667 0.0499507 -0.0721884)
(2.58713 0.048636 -0.0480686)
(-0.393428 0.0745526 0.617398)
(-0.870751 0.0464018 0.512778)
(-1.26643 0.0245834 0.332865)
(-1.53408 0.0172068 0.209863)
(-1.70467 0.016026 0.120735)
(-1.7945 0.0215312 0.0412097)
(-1.80669 0.0339263 -0.0459009)
(-1.74991 0.0402374 -0.126745)
(-1.57102 0.0331091 -0.159037)
(-1.43239 0.0260493 -0.172011)
(-1.22357 0.0282814 -0.207303)
(-0.98462 0.0241789 -0.22169)
(-0.732631 0.021857 -0.230519)
(-0.47038 0.0185317 -0.237492)
(-0.199655 0.0144512 -0.247471)
(0.0736352 0.0114535 -0.245625)
(0.349344 0.0114618 -0.242364)
(0.620034 0.0113531 -0.236263)
(0.879746 0.0114164 -0.228875)
(1.13495 0.0116729 -0.217717)
(1.37518 0.0132613 -0.208579)
(1.60803 0.0145224 -0.200771)
(1.82876 0.0166797 -0.193887)
(2.0382 0.0190647 -0.187568)
(2.24244 0.0196741 -0.182034)
(2.43618 0.0197943 -0.173524)
(2.62504 0.0165998 -0.162378)
(2.8096 0.0126202 -0.150513)
(2.99345 0.00635053 -0.139669)
(3.17965 -0.00120243 -0.130911)
(3.37036 -0.00860847 -0.124846)
(3.57428 -0.0138578 -0.123)
(3.79086 -0.0144369 -0.125132)
(4.00592 -0.00620977 -0.130364)
(4.19741 0.0155781 -0.138869)
(4.43116 0.0496176 -0.148892)
(-0.512582 -0.0463741 0.63624)
(-0.987577 0.0602563 0.486902)
(-1.36262 0.0556617 0.316316)
(-1.62182 0.0468189 0.20062)
(-1.78991 0.0443705 0.118779)
(-1.87916 0.0513648 0.0487293)
(-1.89419 0.0663048 -0.0257311)
(-1.86818 0.0766777 -0.0866972)
(-1.709 0.0726722 -0.132493)
(-1.06473 0.0389283 -0.196445)
(-0.735638 0.0580343 -0.275281)
(-0.489791 0.0531218 -0.311991)
(-0.234192 0.0482946 -0.340028)
(0.0233921 0.0375695 -0.354797)
(0.28299 0.030601 -0.355174)
(0.542237 0.0272876 -0.352536)
(0.800708 0.0250982 -0.347923)
(1.05084 0.0227746 -0.339224)
(1.29519 0.0227103 -0.327325)
(1.53228 0.0222237 -0.312778)
(1.75929 0.0232782 -0.297747)
(1.97916 0.0263296 -0.284067)
(2.18784 0.0307257 -0.271215)
(2.38984 0.0346972 -0.261582)
(2.58248 0.0381316 -0.253715)
(2.76956 0.0385132 -0.248311)
(2.94526 0.0358564 -0.240805)
(3.11705 0.0288825 -0.232504)
(3.27616 0.0192577 -0.22115)
(3.44135 0.00571949 -0.212734)
(3.58284 -0.00660204 -0.201238)
(3.74834 -0.0204637 -0.188452)
(3.84909 -0.0238232 -0.177342)
(3.92864 -0.00745782 -0.155852)
(3.89022 0.00311523 -0.152442)
(4.03097 0.0344352 -0.154654)
(-0.659457 -0.114743 0.687692)
(-1.17573 0.0518836 0.488432)
(-1.53681 0.0712264 0.314495)
(-1.78053 0.0678931 0.201425)
(-1.9359 0.0657795 0.122701)
(-2.01385 0.0712399 0.0565978)
(-2.01856 0.0829978 -0.0126752)
(-1.98472 0.0881449 -0.0715938)
(-1.81742 0.0774348 -0.13452)
(-1.13344 0.0621648 -0.186218)
(-0.692116 0.0697234 -0.26498)
(-0.430501 0.0641225 -0.326817)
(-0.156849 0.0596275 -0.359925)
(0.0938971 0.0509443 -0.368713)
(0.356831 0.0464856 -0.373756)
(0.613411 0.0457017 -0.369909)
(0.865977 0.044918 -0.363083)
(1.11165 0.0446278 -0.353617)
(1.34895 0.0440513 -0.340604)
(1.57765 0.0417384 -0.324727)
(1.79912 0.0407986 -0.308575)
(2.01433 0.0420169 -0.294234)
(2.21874 0.044397 -0.280307)
(2.41752 0.0475539 -0.268964)
(2.60747 0.0512792 -0.259714)
(2.79431 0.0534555 -0.254561)
(2.97045 0.0525717 -0.249399)
(3.14407 0.0476039 -0.245186)
(3.29904 0.03797 -0.236122)
(3.46111 0.026392 -0.228126)
(3.58462 0.0129279 -0.217522)
(3.73926 -0.00113712 -0.197688)
(3.76966 -0.00525961 -0.192384)
(3.78676 -0.00553313 -0.163158)
(3.7233 -0.000505606 -0.1541)
(3.8306 0.0192866 -0.1434)
(-0.770565 -0.125972 0.740398)
(-1.34144 0.0337378 0.502873)
(-1.7032 0.0654106 0.320271)
(-1.93431 0.0684068 0.20566)
(-2.07508 0.0677905 0.12694)
(-2.13919 0.0711325 0.0617684)
(-2.13271 0.0778476 -0.00559768)
(-2.09191 0.0790149 -0.0628924)
(-1.92254 0.0690855 -0.128326)
(-1.21959 0.0502646 -0.168365)
(-0.729749 0.0523755 -0.246567)
(-0.461667 0.0489305 -0.31284)
(-0.184856 0.0489814 -0.357737)
(0.0715554 0.0470801 -0.370004)
(0.330424 0.0442839 -0.370822)
(0.58893 0.0457039 -0.367948)
(0.838563 0.0458392 -0.359582)
(1.08227 0.0462816 -0.350027)
(1.31744 0.0463346 -0.338063)
(1.54405 0.0447917 -0.323149)
(1.76334 0.0435423 -0.306527)
(1.97679 0.0440449 -0.292242)
(2.18036 0.0454917 -0.278104)
(2.37831 0.0477732 -0.265752)
(2.568 0.0510279 -0.254909)
(2.75492 0.0543538 -0.247801)
(2.93318 0.0556581 -0.242803)
(3.10951 0.053191 -0.240494)
(3.26814 0.045505 -0.235211)
(3.42841 0.036059 -0.228634)
(3.55252 0.0224272 -0.219643)
(3.68959 0.0112002 -0.195319)
(3.69331 0.00825056 -0.188477)
(3.69577 0.00395861 -0.161584)
(3.6162 0.00367099 -0.151157)
(3.71147 0.015283 -0.134164)
(-0.844463 -0.0987855 0.780003)
(-1.45766 0.0154914 0.518297)
(-1.82637 0.0441427 0.327574)
(-2.05067 0.0499775 0.210386)
(-2.18097 0.0510907 0.13075)
(-2.23476 0.0536942 0.065688)
(-2.22042 0.0581004 -0.000518101)
(-2.17406 0.0585811 -0.0572003)
(-1.99723 0.050902 -0.124182)
(-1.28345 0.0330663 -0.157334)
(-0.777854 0.0306453 -0.234221)
(-0.508751 0.0300812 -0.300433)
(-0.230981 0.0331263 -0.350427)
(0.0287338 0.0359579 -0.364444)
(0.283692 0.0371014 -0.362609)
(0.542963 0.0403108 -0.360058)
(0.790147 0.0421298 -0.350697)
(1.03224 0.04395 -0.340817)
(1.26578 0.0451126 -0.330043)
(1.49164 0.0448223 -0.31639)
(1.71008 0.0440308 -0.300556)
(1.92265 0.0438855 -0.287615)
(2.12571 0.0445794 -0.273617)
(2.32298 0.0460841 -0.26039)
(2.51298 0.048382 -0.248429)
(2.69965 0.0513112 -0.239402)
(2.87935 0.0535316 -0.233301)
(3.05756 0.0531734 -0.231318)
(3.22175 0.0484758 -0.228865)
(3.38189 0.0413416 -0.22418)
(3.5138 0.0316221 -0.217053)
(3.64156 0.0237435 -0.193727)
(3.63983 0.021213 -0.191527)
(3.63901 0.0163038 -0.16675)
(3.55306 0.0132807 -0.150629)
(3.64219 0.0185985 -0.130309)
(-0.887325 -0.0515537 0.803826)
(-1.5215 -0.000889785 0.527923)
(-1.89531 0.014262 0.33244)
(-2.11685 0.0192304 0.213774)
(-2.24166 0.0217206 0.133631)
(-2.28958 0.0246443 0.0686916)
(-2.27036 0.0282728 0.00291978)
(-2.22011 0.0296931 -0.0534952)
(-2.03584 0.0246708 -0.121508)
(-1.31491 0.00877174 -0.153298)
(-0.809463 0.00427542 -0.228572)
(-0.541843 0.00740076 -0.292896)
(-0.265219 0.0130167 -0.343874)
(-0.00549618 0.0201645 -0.357893)
(0.24686 0.0258511 -0.35496)
(0.504417 0.0308954 -0.351885)
(0.749984 0.0345928 -0.342051)
(0.989895 0.0375459 -0.332074)
(1.22172 0.0396093 -0.321781)
(1.44612 0.0407367 -0.308811)
(1.66344 0.0410225 -0.293742)
(1.87559 0.0408865 -0.282436)
(2.07815 0.0410337 -0.26923)
(2.27421 0.041606 -0.255501)
(2.46409 0.042685 -0.242427)
(2.65051 0.0443743 -0.231886)
(2.83039 0.0462921 -0.224022)
(3.00945 0.0467161 -0.221119)
(3.17693 0.0445217 -0.219654)
(3.34054 0.0393229 -0.216972)
(3.47444 0.0345481 -0.211884)
(3.61607 0.0292401 -0.189443)
(3.61301 0.0267886 -0.18821)
(3.60972 0.0259432 -0.162542)
(3.51889 0.026463 -0.146731)
(3.60592 0.0298106 -0.126638)
(-0.893959 0.00357174 0.806687)
(-1.52979 -0.0163872 0.528454)
(-1.90389 -0.0187154 0.332705)
(-2.1253 -0.0162811 0.214207)
(-2.24954 -0.0129896 0.134323)
(-2.29654 -0.00980833 0.0695975)
(-2.27611 -0.00647078 0.00392225)
(-2.22425 -0.00312911 -0.052894)
(-2.03479 -0.00387125 -0.121958)
(-1.31219 -0.0144672 -0.156208)
(-0.823454 -0.0213873 -0.229083)
(-0.559706 -0.0145586 -0.289989)
(-0.286968 -0.00663975 -0.338341)
(-0.0298544 0.00490922 -0.351524)
(0.220006 0.0152375 -0.348514)
(0.47471 0.0217234 -0.344473)
(0.718954 0.0270811 -0.334428)
(0.957217 0.0306421 -0.324497)
(1.18782 0.0330842 -0.314155)
(1.41109 0.0352872 -0.301309)
(1.6276 0.0367812 -0.286612)
(1.83949 0.0371299 -0.276027)
(2.04195 0.0370521 -0.263752)
(2.23781 0.0366367 -0.25056)
(2.42752 0.0363394 -0.237237)
(2.61374 0.036553 -0.225962)
(2.79272 0.037546 -0.216345)
(2.97174 0.0378659 -0.212151)
(3.13937 0.0372385 -0.21001)
(3.30777 0.0343419 -0.208839)
(3.44163 0.0332846 -0.204651)
(3.59027 0.0331652 -0.185767)
(3.60053 0.0311099 -0.177103)
(3.60258 0.0309756 -0.149948)
(3.50984 0.0355222 -0.144794)
(3.59418 0.0390189 -0.124708)
(-0.862562 0.0559594 0.785925)
(-1.4809 -0.0319518 0.519351)
(-1.85042 -0.0489604 0.328398)
(-2.07475 -0.0481588 0.21184)
(-2.204 -0.0446977 0.132962)
(-2.25545 -0.0424653 0.0686653)
(-2.2376 -0.0403375 0.00305831)
(-2.1864 -0.0347438 -0.0540316)
(-1.99344 -0.028546 -0.122851)
(-1.28268 -0.0393886 -0.165837)
(-0.841935 -0.046709 -0.236938)
(-0.587326 -0.0351721 -0.289417)
(-0.322023 -0.0244279 -0.328377)
(-0.0704361 -0.00723429 -0.339925)
(0.179167 0.00723515 -0.339893)
(0.429871 0.0146845 -0.33438)
(0.673878 0.0208017 -0.324357)
(0.912097 0.0240693 -0.314226)
(1.14327 0.0257841 -0.303852)
(1.36724 0.0283347 -0.290943)
(1.58425 0.0307891 -0.276381)
(1.79675 0.0313479 -0.265889)
(2.0003 0.031068 -0.254046)
(2.19802 0.029902 -0.242115)
(2.38921 0.0286618 -0.229603)
(2.57671 0.0278138 -0.21897)
(2.75557 0.0277151 -0.208721)
(2.93448 0.0269649 -0.203874)
(3.10203 0.0265496 -0.200943)
(3.27355 0.0259522 -0.200669)
(3.41018 0.0263304 -0.196855)
(3.56671 0.0316351 -0.182984)
(3.60217 0.0322588 -0.169729)
(3.62054 0.0335738 -0.143385)
(3.52699 0.0391622 -0.142877)
(3.61006 0.0418998 -0.124063)
(-0.796216 0.0925239 0.746196)
(-1.37277 -0.0490566 0.503801)
(-1.73639 -0.069839 0.321523)
(-1.96964 -0.0671094 0.207628)
(-2.11126 -0.0640328 0.129992)
(-2.17427 -0.0651994 0.0664958)
(-2.16477 -0.067471 0.00159212)
(-2.11766 -0.0621755 -0.0541395)
(-1.93209 -0.047417 -0.118607)
(-1.26435 -0.0371536 -0.16283)
(-0.930358 -0.0458238 -0.235745)
(-0.692916 -0.0306811 -0.268291)
(-0.444539 -0.0174579 -0.291531)
(-0.197831 -0.000727567 -0.31076)
(0.0563539 0.0141203 -0.315413)
(0.303607 0.0236593 -0.306713)
(0.550744 0.0287771 -0.298178)
(0.793005 0.0311776 -0.28908)
(1.02802 0.0325345 -0.279321)
(1.25777 0.0331892 -0.268084)
(1.48037 0.0341948 -0.254577)
(1.69707 0.0337606 -0.242865)
(1.9058 0.0322745 -0.23137)
(2.10959 0.0299043 -0.221338)
(2.30616 0.0275215 -0.211009)
(2.49811 0.0253419 -0.201824)
(2.68044 0.023362 -0.192944)
(2.86076 0.0213087 -0.188251)
(3.03071 0.0207495 -0.185457)
(3.20302 0.0223877 -0.185891)
(3.35076 0.0250565 -0.181075)
(3.50831 0.033408 -0.169193)
(3.59825 0.0337373 -0.154509)
(3.65837 0.0352833 -0.133992)
(3.56929 0.0386001 -0.140057)
(3.65772 0.0385949 -0.125333)
(-0.68188 0.0887851 0.689665)
(-1.19957 -0.0667147 0.491344)
(-1.56538 -0.0732552 0.317494)
(-1.81532 -0.0643247 0.203526)
(-1.97527 -0.0616123 0.124916)
(-2.05571 -0.067611 0.0608089)
(-2.0613 -0.0775383 -0.00364481)
(-2.02398 -0.0790335 -0.0550022)
(-1.84267 -0.0618608 -0.10439)
(-1.24713 -0.0429221 -0.173081)
(-1.02176 -0.0436262 -0.231188)
(-0.795753 -0.0265617 -0.246831)
(-0.556489 -0.0124829 -0.259548)
(-0.309913 0.00245085 -0.269634)
(-0.0569504 0.0149595 -0.272346)
(0.195929 0.0246089 -0.271677)
(0.447951 0.0283759 -0.266246)
(0.696392 0.0302121 -0.259035)
(0.93865 0.0317363 -0.252121)
(1.17228 0.0319586 -0.240746)
(1.39957 0.0313996 -0.228314)
(1.6216 0.0288216 -0.218193)
(1.83603 0.0253706 -0.208388)
(2.04477 0.0217859 -0.20119)
(2.2456 0.0185455 -0.193618)
(2.4401 0.0153202 -0.186346)
(2.62593 0.0119125 -0.178472)
(2.80801 0.00933645 -0.174645)
(2.98246 0.0091179 -0.170959)
(3.15506 0.0129022 -0.169063)
(3.3169 0.0185411 -0.163868)
(3.47714 0.0271798 -0.154064)
(3.62849 0.0339247 -0.142362)
(3.76042 0.0249907 -0.127006)
(3.68176 0.0283946 -0.132352)
(3.78479 0.025987 -0.125969)
(-0.534788 0.018748 0.632611)
(-0.994425 -0.0775904 0.498822)
(-1.37938 -0.0543342 0.325161)
(-1.64875 -0.0398165 0.204189)
(-1.82334 -0.0374826 0.118887)
(-1.91708 -0.0458294 0.0483778)
(-1.93705 -0.0607836 -0.0215584)
(-1.91719 -0.0732936 -0.0735483)
(-1.77526 -0.0694471 -0.11231)
(-1.6643 -0.0389521 -0.144312)
(-1.46226 -0.0246032 -0.173106)
(-1.23595 -0.0121526 -0.183513)
(-0.993289 -0.00215325 -0.190422)
(-0.738815 0.00707507 -0.196197)
(-0.475011 0.0141072 -0.199302)
(-0.207347 0.0194486 -0.205932)
(0.0624667 0.0190303 -0.204222)
(0.32897 0.0183008 -0.199427)
(0.58935 0.0174986 -0.1954)
(0.840529 0.0171147 -0.187339)
(1.08587 0.0167446 -0.177974)
(1.32137 0.0132858 -0.170069)
(1.54907 0.00951148 -0.162698)
(1.76844 0.00538943 -0.156673)
(1.98105 0.00224904 -0.150972)
(2.18528 -0.000483997 -0.143436)
(2.38217 -0.00225798 -0.135857)
(2.57164 -0.00313064 -0.13016)
(2.75708 -0.00158542 -0.126085)
(2.93775 0.00173445 -0.120648)
(3.11676 0.00694208 -0.114142)
(3.29431 0.0112369 -0.107018)
(3.47433 0.0146304 -0.0999771)
(3.65658 0.00986434 -0.0960158)
(3.83305 0.00986196 -0.0999761)
(4.03481 -0.00314108 -0.123805)
(-0.303633 -0.0985552 0.569649)
(-0.856463 -0.0593865 0.547596)
(-1.28326 -0.0205832 0.352602)
(-1.56521 -0.0106053 0.218962)
(-1.74177 -0.00924712 0.121669)
(-1.83359 -0.0133223 0.0373196)
(-1.84789 -0.0205207 -0.0476082)
(-1.79598 -0.0253801 -0.125665)
(-1.6363 -0.0330639 -0.144593)
(-1.51949 -0.0120829 -0.179399)
(-1.32187 -0.0021252 -0.200363)
(-1.09309 0.0042461 -0.209827)
(-0.844935 0.0090344 -0.216939)
(-0.582682 0.013729 -0.222296)
(-0.309019 0.0175031 -0.225892)
(-0.0301319 0.0205151 -0.234686)
(0.249726 0.0211964 -0.230345)
(0.53055 0.0225819 -0.225461)
(0.804931 0.0218435 -0.220553)
(1.07225 0.0209379 -0.212635)
(1.33216 0.018935 -0.205471)
(1.58128 0.0165306 -0.199918)
(1.82016 0.0131871 -0.194669)
(2.04879 0.00922843 -0.186121)
(2.26787 0.00671943 -0.17764)
(2.47666 0.00546963 -0.167566)
(2.67828 0.00475907 -0.159401)
(2.87325 0.00400497 -0.152443)
(3.06465 0.00353124 -0.146625)
(3.25218 0.00301912 -0.13984)
(3.43818 0.00314259 -0.132806)
(3.62382 0.00249332 -0.127976)
(3.80952 0.00280309 -0.121916)
(3.9994 0.000226147 -0.122516)
(4.17542 -0.0041937 -0.122328)
(4.35889 -0.0159605 -0.125752)
(1.11014 -0.00124852 -0.525092)
(1.22188 -0.00343042 -0.579493)
(1.42785 0.00082804 -0.604743)
(1.63335 0.00231183 -0.618566)
(1.845 0.00148239 -0.624726)
(2.05881 0.000116883 -0.626594)
(2.27443 -0.000750129 -0.621839)
(2.48854 -0.00094778 -0.611046)
(2.69816 -0.00115285 -0.594826)
(2.89976 -0.00123941 -0.575376)
(3.09624 -0.00111217 -0.555169)
(3.28489 -0.000450608 -0.53573)
(3.46587 0.000555159 -0.516526)
(3.63809 0.0020952 -0.498111)
(3.80099 0.00309472 -0.4792)
(3.95583 0.00392544 -0.459716)
(4.10403 0.00392996 -0.438379)
(4.25196 0.00435502 -0.418246)
(4.39384 0.00345175 -0.397984)
(4.53837 0.00216982 -0.383012)
(4.68852 0.000369293 -0.372746)
(4.83518 -0.00358615 -0.369372)
(5.0161 -0.00123706 -0.379893)
(5.14585 -0.00668646 -0.381047)
(-0.129384 -0.0189673 0.950216)
(-0.202793 0.0286747 0.750321)
(-0.269784 0.0225464 0.497018)
(-0.299071 0.0136834 0.304881)
(-0.284778 0.00398036 0.15739)
(-0.231345 -0.00344739 0.0193862)
(-0.148627 -0.00472911 -0.130709)
(-0.0442815 0.00325455 -0.287944)
(0.299518 0.0128118 -0.391803)
(0.893113 0.0187422 -0.483233)
(1.06905 0.0337718 -0.553691)
(1.28266 0.0267513 -0.578176)
(1.49618 0.0245914 -0.592475)
(1.71305 0.0201104 -0.600149)
(1.92903 0.0146882 -0.60067)
(2.14626 0.0113944 -0.595699)
(2.35979 0.0103819 -0.585982)
(2.56893 0.00904628 -0.570549)
(2.76974 0.00827174 -0.55044)
(2.96666 0.00733804 -0.530181)
(3.1555 0.0078415 -0.51057)
(3.34063 0.00938925 -0.492221)
(3.51604 0.0127955 -0.474421)
(3.68662 0.0153971 -0.458913)
(3.84797 0.0175614 -0.443691)
(4.00212 0.0169574 -0.427836)
(4.15155 0.0166338 -0.41025)
(4.29886 0.0127818 -0.392851)
(4.44759 0.00818102 -0.377456)
(4.59519 -8.91528e-06 -0.366245)
(4.75175 -0.00946866 -0.360621)
(4.89639 -0.0162487 -0.361223)
(5.09995 -0.0278175 -0.373477)
(5.20573 -0.0367817 -0.377163)
(5.27167 -0.0312324 -0.380249)
(5.51005 -0.019522 -0.400505)
(-0.231125 -0.10969 1.00325)
(-0.312831 0.0311289 0.740368)
(-0.373275 0.0439621 0.480999)
(-0.401475 0.0342081 0.293212)
(-0.391875 0.0201442 0.151575)
(-0.347963 0.00983635 0.0226338)
(-0.283456 0.0100563 -0.112177)
(-0.212287 0.0226106 -0.241595)
(0.087832 0.0279707 -0.335775)
(0.762616 0.0222925 -0.449975)
(1.0175 0.0354995 -0.527393)
(1.25444 0.0360636 -0.559718)
(1.48157 0.035685 -0.58064)
(1.70315 0.0301016 -0.591029)
(1.92211 0.0250918 -0.590584)
(2.13873 0.0221646 -0.583229)
(2.35021 0.0209533 -0.571464)
(2.55569 0.019334 -0.555208)
(2.75355 0.0183246 -0.535492)
(2.94685 0.0167284 -0.516404)
(3.13156 0.0163057 -0.496401)
(3.31422 0.0170046 -0.478682)
(3.48744 0.0195561 -0.460133)
(3.65916 0.0224171 -0.444531)
(3.82244 0.025826 -0.429748)
(3.98367 0.0264083 -0.418714)
(4.1323 0.0258941 -0.405854)
(4.27936 0.0212189 -0.392413)
(4.41793 0.0160677 -0.377839)
(4.56106 0.00515913 -0.364351)
(4.69074 -0.00239446 -0.354893)
(4.82774 -0.0184795 -0.343028)
(4.93969 -0.0202746 -0.347484)
(5.07493 -0.0352104 -0.344146)
(5.16445 -0.0418751 -0.382127)
(5.42959 -0.0447549 -0.419108)
(-0.332709 -0.163169 1.09452)
(-0.459477 0.0114455 0.764076)
(-0.523021 0.0470877 0.489589)
(-0.547761 0.0450583 0.30144)
(-0.536492 0.0338501 0.160937)
(-0.493074 0.0255351 0.035365)
(-0.432542 0.0269652 -0.0920925)
(-0.368079 0.0366112 -0.21261)
(-0.0756324 0.0388388 -0.304862)
(0.663135 0.0246335 -0.428094)
(0.979386 0.0324886 -0.509791)
(1.23764 0.0340855 -0.54852)
(1.47716 0.0349295 -0.577462)
(1.70326 0.0314143 -0.588661)
(1.9265 0.0289059 -0.589674)
(2.14358 0.0283969 -0.581742)
(2.35338 0.0280589 -0.568206)
(2.55672 0.0275566 -0.551795)
(2.75148 0.027024 -0.532427)
(2.94069 0.0256168 -0.512407)
(3.12401 0.0247316 -0.491859)
(3.30475 0.0247438 -0.474695)
(3.47628 0.0255694 -0.456484)
(3.64682 0.0270022 -0.440514)
(3.80932 0.0297558 -0.424696)
(3.97246 0.031711 -0.413307)
(4.12466 0.0322968 -0.402782)
(4.27481 0.0290487 -0.393524)
(4.40839 0.0240939 -0.381778)
(4.54863 0.0149751 -0.367886)
(4.66064 0.00776946 -0.358488)
(4.78632 -0.00503419 -0.338815)
(4.84507 -0.00868978 -0.339802)
(4.94631 -0.0156523 -0.326745)
(5.00275 -0.0166015 -0.357724)
(5.30485 -0.0214119 -0.39935)
(-0.412859 -0.16565 1.18215)
(-0.587715 -0.0085837 0.799802)
(-0.663442 0.0349976 0.507809)
(-0.687058 0.0404631 0.314864)
(-0.670991 0.0347196 0.172521)
(-0.622222 0.029758 0.0476486)
(-0.557163 0.0308335 -0.0769282)
(-0.488637 0.0354556 -0.194913)
(-0.191191 0.0327141 -0.284697)
(0.571806 0.0142581 -0.405999)
(0.918394 0.0178036 -0.488209)
(1.18694 0.0191527 -0.530008)
(1.43298 0.0219756 -0.565288)
(1.66204 0.0229682 -0.579793)
(1.88507 0.0224972 -0.578691)
(2.10323 0.0238812 -0.570825)
(2.31199 0.0248511 -0.556731)
(2.5146 0.0256586 -0.540107)
(2.70866 0.0264396 -0.521765)
(2.8967 0.0262696 -0.502741)
(3.07912 0.0257645 -0.482866)
(3.25864 0.0257339 -0.466075)
(3.43165 0.0260568 -0.448796)
(3.60238 0.0265825 -0.433405)
(3.76542 0.028099 -0.417404)
(3.92889 0.0300521 -0.404758)
(4.08322 0.0316662 -0.39412)
(4.23742 0.0302833 -0.386715)
(4.37262 0.0265207 -0.378124)
(4.51076 0.0196795 -0.365277)
(4.61694 0.0133517 -0.356076)
(4.73344 0.00384166 -0.33197)
(4.7736 0.000785471 -0.332315)
(4.85574 -0.004236 -0.31651)
(4.9048 -0.00484861 -0.34635)
(5.208 -0.00676918 -0.378246)
(-0.467529 -0.127201 1.2463)
(-0.6782 -0.0181532 0.830891)
(-0.767294 0.0169915 0.524732)
(-0.792572 0.0245469 0.326674)
(-0.772764 0.0231403 0.18215)
(-0.718996 0.0210219 0.0573663)
(-0.649269 0.0218131 -0.065854)
(-0.576528 0.023656 -0.18291)
(-0.271685 0.0187658 -0.271914)
(0.503942 0.0017922 -0.391615)
(0.860503 0.00212221 -0.472557)
(1.13202 0.00326385 -0.514673)
(1.38002 0.00674248 -0.552208)
(1.60965 0.0101623 -0.568125)
(1.83059 0.0122929 -0.565626)
(2.04848 0.0153621 -0.557463)
(2.25507 0.0180546 -0.542792)
(2.45683 0.0204857 -0.526009)
(2.65033 0.0226519 -0.508563)
(2.8377 0.0238619 -0.490552)
(3.02062 0.0241826 -0.472443)
(3.19938 0.0242052 -0.457118)
(3.37279 0.0244703 -0.440798)
(3.54371 0.0249191 -0.425418)
(3.70855 0.0257143 -0.409447)
(3.87253 0.0270179 -0.39582)
(4.02833 0.0286709 -0.384241)
(4.18492 0.0287734 -0.376768)
(4.3245 0.0265594 -0.37038)
(4.46265 0.0221163 -0.359359)
(4.56947 0.0174249 -0.351256)
(4.68189 0.0116388 -0.325019)
(4.71779 0.00909226 -0.328696)
(4.79316 0.00496345 -0.30938)
(4.84002 0.00477334 -0.338346)
(5.14065 0.00262185 -0.367013)
(-0.499677 -0.0644978 1.28078)
(-0.728349 -0.0181999 0.848598)
(-0.825498 -0.00179993 0.534825)
(-0.852806 0.00314663 0.333671)
(-0.831269 0.0037903 0.188215)
(-0.774894 0.00359533 0.0635717)
(-0.702423 0.00425348 -0.0588961)
(-0.627012 0.00491429 -0.17562)
(-0.315869 7.61753e-05 -0.26548)
(0.465757 -0.0133176 -0.384935)
(0.820371 -0.0150557 -0.46438)
(1.09036 -0.0138386 -0.50547)
(1.33747 -0.010367 -0.542926)
(1.56479 -0.00497476 -0.558647)
(1.78568 0.000186356 -0.556228)
(2.00048 0.00486177 -0.546716)
(2.20681 0.0090348 -0.531052)
(2.40462 0.012757 -0.514346)
(2.59773 0.0158996 -0.497374)
(2.78264 0.0183039 -0.479732)
(2.96578 0.0198384 -0.462718)
(3.14377 0.0204826 -0.449023)
(3.31762 0.0208901 -0.434359)
(3.48645 0.0212629 -0.418817)
(3.65292 0.0216416 -0.402325)
(3.81758 0.0223263 -0.387957)
(3.97442 0.0235663 -0.375146)
(4.13235 0.0242879 -0.366634)
(4.27553 0.0233246 -0.360723)
(4.41648 0.0207375 -0.351507)
(4.5252 0.0177653 -0.34489)
(4.6388 0.0152275 -0.319455)
(4.67687 0.012943 -0.322528)
(4.75313 0.0110264 -0.30439)
(4.8009 0.0112001 -0.333038)
(5.09946 0.00956136 -0.360151)
(-0.505166 0.00629299 1.28351)
(-0.735165 -0.0146544 0.849304)
(-0.83285 -0.020345 0.535217)
(-0.860409 -0.0197463 0.334416)
(-0.839749 -0.0179109 0.189154)
(-0.783719 -0.0168394 0.0649031)
(-0.711232 -0.0167068 -0.0572498)
(-0.635561 -0.0168927 -0.173977)
(-0.321752 -0.0202877 -0.265702)
(0.457961 -0.0284436 -0.38614)
(0.798632 -0.03168 -0.463808)
(1.06202 -0.0298819 -0.502922)
(1.305 -0.0264063 -0.53877)
(1.52907 -0.0189918 -0.552821)
(1.74774 -0.0105329 -0.550409)
(1.95997 -0.0041292 -0.540395)
(2.16502 0.00150075 -0.524182)
(2.36109 0.00614871 -0.507121)
(2.55316 0.00987095 -0.489917)
(2.73724 0.0130699 -0.472234)
(2.92 0.0156242 -0.455272)
(3.0978 0.0171052 -0.442147)
(3.27163 0.0178494 -0.428335)
(3.43994 0.0179596 -0.41329)
(3.60651 0.017812 -0.396792)
(3.77065 0.0179155 -0.381975)
(3.92725 0.0185866 -0.367718)
(4.08527 0.0193256 -0.357693)
(4.22995 0.0190108 -0.350549)
(4.37497 0.0180853 -0.342427)
(4.48598 0.0164663 -0.336496)
(4.60296 0.0173421 -0.314723)
(4.64808 0.0159626 -0.31396)
(4.73134 0.0156859 -0.297511)
(4.78198 0.0172041 -0.325914)
(5.08093 0.0161005 -0.353984)
(-0.48126 0.0737612 1.25345)
(-0.69624 -0.0134937 0.83229)
(-0.786863 -0.0380886 0.525538)
(-0.813941 -0.0398531 0.328135)
(-0.79653 -0.0359385 0.184687)
(-0.744396 -0.0338043 0.06117)
(-0.675303 -0.0349953 -0.0607904)
(-0.602368 -0.0369705 -0.17735)
(-0.291164 -0.0391081 -0.271146)
(0.472022 -0.0435438 -0.393463)
(0.780826 -0.0478144 -0.467647)
(1.03052 -0.0444393 -0.503468)
(1.26528 -0.0395991 -0.535292)
(1.48487 -0.0292318 -0.548179)
(1.70044 -0.017651 -0.546396)
(1.91088 -0.00948455 -0.535292)
(2.11487 -0.00265401 -0.518568)
(2.31154 0.00241567 -0.501043)
(2.50365 0.00612822 -0.483511)
(2.68838 0.00968889 -0.465752)
(2.87121 0.0128387 -0.448581)
(3.04917 0.0145955 -0.435216)
(3.22348 0.0153288 -0.421154)
(3.39346 0.0150913 -0.406812)
(3.56035 0.0145777 -0.390953)
(3.72507 0.0143158 -0.376754)
(3.88126 0.0143317 -0.361905)
(4.03868 0.0143091 -0.350765)
(4.18438 0.013677 -0.342043)
(4.33255 0.0139849 -0.334309)
(4.44895 0.0132008 -0.328787)
(4.57165 0.0171409 -0.310592)
(4.62993 0.0173152 -0.308013)
(4.72834 0.0198509 -0.291817)
(4.78393 0.0249017 -0.319551)
(5.08505 0.0247758 -0.351165)
(-0.430442 0.121038 1.19001)
(-0.610315 -0.0209162 0.801157)
(-0.688428 -0.0532876 0.508979)
(-0.716181 -0.0517467 0.316824)
(-0.705041 -0.0437314 0.175745)
(-0.660639 -0.0401865 0.0530756)
(-0.598865 -0.0438016 -0.0683845)
(-0.532859 -0.0502711 -0.183667)
(-0.231824 -0.0525542 -0.278231)
(0.493852 -0.0499424 -0.399413)
(0.750264 -0.0534785 -0.467741)
(0.978004 -0.0477298 -0.49791)
(1.19976 -0.0405826 -0.52196)
(1.4153 -0.0290319 -0.536139)
(1.62782 -0.0166226 -0.536483)
(1.83603 -0.00622887 -0.524249)
(2.03976 0.00133217 -0.507255)
(2.23874 0.00637862 -0.490089)
(2.43187 0.00984886 -0.47247)
(2.62053 0.0125314 -0.455443)