/*--------------------------------*- C++ -*----------------------------------*\
  =========                 |
  \\      /  F ield         | OpenFOAM: The Open Source CFD Toolbox
   \\    /   O peration     | Website:  https://openfoam.org
    \\  /    A nd           | Version:  7
     \\/     M anipulation  |
\*---------------------------------------------------------------------------*/
FoamFile
{
    version     2.0;
    format      ascii;
    class       volVectorField;
    location    "52";
    object      ddtCorrDdt0(hU);
}
// * * * * * * * * * * * * * * * * * * * * * * * * * * * * * * * * * * * * * //

dimensions      [0 2 -2 0 0 0 0];

internalField   nonuniform List<vector> 
400
(
(5.22738e-11 1.73137e-10 0)
(4.62012e-10 2.62729e-11 0)
(7.48231e-10 2.9948e-10 0)
(7.46142e-10 7.86149e-10 0)
(1.02388e-09 6.61978e-10 0)
(-1.57204e-09 -2.14801e-10 0)
(-2.27996e-09 7.89196e-10 0)
(-1.73722e-09 2.26345e-09 0)
(3.039e-11 8.49134e-10 0)
(4.79657e-10 4.25553e-10 0)
(5.9154e-10 -3.00393e-10 0)
(1.67817e-10 -6.55724e-10 0)
(4.54168e-11 -6.42664e-10 0)
(4.08168e-10 -3.48589e-10 0)
(7.54171e-10 -3.78133e-11 0)
(8.61337e-10 3.54085e-10 0)
(4.25518e-10 6.21944e-10 0)
(1.72983e-10 7.11155e-10 0)
(-4.16759e-10 7.64195e-10 0)
(-7.49796e-10 8.78513e-11 0)
(-1.92368e-10 1.4229e-10 0)
(2.80131e-10 -4.10248e-10 0)
(9.08806e-10 -3.91482e-10 0)
(8.93784e-10 -7.89524e-11 0)
(5.37408e-11 -3.90668e-10 0)
(2.17162e-09 -4.62841e-10 0)
(3.25793e-09 -2.10879e-10 0)
(6.29347e-10 5.58599e-10 0)
(-1.09727e-09 8.84732e-10 0)
(-4.96632e-10 6.9163e-10 0)
(-5.34086e-10 6.49556e-11 0)
(-2.34369e-10 -2.64261e-10 0)
(1.04794e-10 -2.79826e-10 0)
(5.03711e-10 -1.60629e-10 0)
(7.59338e-10 -1.13902e-10 0)
(8.69726e-10 -6.38402e-11 0)
(5.29999e-10 1.37901e-10 0)
(2.8171e-10 3.14633e-10 0)
(-2.96199e-10 5.99762e-10 0)
(-7.05138e-10 3.27984e-10 0)
(-2.62192e-10 -1.26599e-10 0)
(9.92186e-11 -1.17981e-10 0)
(6.17501e-10 1.26216e-10 0)
(7.85678e-10 4.51859e-10 0)
(5.44452e-10 7.04587e-10 0)
(6.35458e-10 1.67946e-09 0)
(-5.25551e-10 6.34852e-10 0)
(3.78171e-10 -2.50271e-10 0)
(7.33779e-10 3.79673e-10 0)
(-5.84012e-10 -2.47614e-10 0)
(-6.71998e-10 -5.75105e-10 0)
(-2.17468e-10 -7.83615e-10 0)
(3.45324e-10 -8.41252e-10 0)
(7.55797e-10 -5.64751e-10 0)
(8.40328e-10 -2.15614e-10 0)
(8.63548e-10 4.07951e-10 0)
(4.53514e-10 1.04336e-09 0)
(2.44623e-10 1.36115e-09 0)
(-5.38522e-10 1.7435e-09 0)
(-1.0016e-09 4.94104e-10 0)
(-2.58632e-10 -3.45696e-10 0)
(1.65239e-10 -5.12685e-11 0)
(7.96393e-10 2.9842e-10 0)
(8.44369e-10 6.72906e-10 0)
(6.02541e-10 1.11416e-09 0)
(3.69472e-10 1.28701e-09 0)
(-1.08934e-10 1.31074e-09 0)
(5.18455e-10 1.40379e-09 0)
(-6.24549e-10 1.62459e-10 0)
(-9.68853e-10 -3.94727e-10 0)
(-5.71735e-10 -6.63699e-10 0)
(-1.39592e-10 -8.53964e-10 0)
(3.10848e-10 -9.51549e-10 0)
(5.91337e-10 -7.24947e-10 0)
(6.42523e-10 -3.67736e-10 0)
(7.34053e-10 4.36723e-10 0)
(5.55604e-10 1.29233e-09 0)
(3.78053e-10 1.70673e-09 0)
(-2.35269e-10 2.30338e-09 0)
(-7.62982e-10 7.56306e-10 0)
(-1.82712e-10 -3.87516e-10 0)
(1.09768e-10 -2.71228e-10 0)
(5.13175e-10 4.63e-11 0)
(5.10827e-10 3.54732e-10 0)
(5.20921e-10 8.51832e-10 0)
(1.74156e-10 8.2978e-10 0)
(4.39433e-10 1.14367e-09 0)
(7.16058e-11 7.12853e-10 0)
(-4.7961e-10 4.20419e-11 0)
(-2.02503e-10 -1.46078e-10 0)
(-2.88596e-11 -5.25539e-10 0)
(1.85598e-10 -7.86405e-10 0)
(3.49098e-10 -9.60321e-10 0)
(3.56282e-10 -8.33376e-10 0)
(3.40144e-10 -4.93577e-10 0)
(4.94024e-10 3.87939e-10 0)
(3.85762e-10 1.34909e-09 0)
(2.45401e-10 1.7699e-09 0)
(-3.27677e-10 2.44349e-09 0)
(-7.31695e-10 8.50365e-10 0)
(-7.713e-11 -2.39333e-10 0)
(2.57262e-10 3.63738e-11 0)
(6.44161e-10 7.03059e-10 0)
(6.56493e-10 1.30354e-09 0)
(4.64028e-10 2.02265e-09 0)
(6.44872e-11 2.11405e-09 0)
(8.38322e-11 2.16119e-09 0)
(-5.11336e-10 1.31673e-09 0)
(-4.86137e-10 8.05036e-10 0)
(-3.55015e-10 1.04229e-10 0)
(-2.57853e-10 -6.78084e-10 0)
(1.13991e-10 -1.15583e-09 0)
(3.88512e-10 -1.50561e-09 0)
(5.27785e-10 -1.25743e-09 0)
(6.70725e-10 -5.95788e-10 0)
(8.6218e-10 7.72286e-10 0)
(5.57806e-10 2.0459e-09 0)
(1.99161e-10 2.53577e-09 0)
(-5.75239e-10 3.21939e-09 0)
(-9.64375e-10 9.07875e-10 0)
(-2.04566e-11 -1.2715e-10 0)
(1.5071e-10 -4.50017e-11 0)
(3.35899e-10 3.35753e-10 0)
(4.03889e-10 9.12709e-10 0)
(1.79089e-10 1.44421e-09 0)
(1.86075e-10 1.90409e-09 0)
(1.71478e-10 1.86158e-09 0)
(7.37128e-11 1.49211e-09 0)
(1.77621e-10 1.08976e-09 0)
(-5.92955e-11 2.87143e-10 0)
(-1.76562e-11 -4.00849e-10 0)
(8.24808e-11 -9.09557e-10 0)
(-1.70588e-11 -1.40672e-09 0)
(-1.719e-11 -1.24651e-09 0)
(1.28763e-10 -6.51588e-10 0)
(3.23607e-10 5.59944e-10 0)
(2.48087e-10 1.79809e-09 0)
(8.29361e-11 2.34928e-09 0)
(-1.42004e-10 3.26365e-09 0)
(-3.05241e-10 1.11255e-09 0)
(-1.69364e-11 -6.05911e-12 0)
(8.75209e-11 1.19453e-10 0)
(1.96003e-10 4.83863e-10 0)
(3.26988e-10 1.27134e-09 0)
(1.72539e-10 1.92738e-09 0)
(2.17635e-10 2.47216e-09 0)
(3.73125e-11 2.29673e-09 0)
(8.74645e-11 1.84857e-09 0)
(-1.0714e-10 9.7787e-10 0)
(-2.53172e-10 1.67405e-11 0)
(-4.38507e-11 -7.87514e-10 0)
(-7.66904e-11 -1.43727e-09 0)
(-3.77127e-11 -1.85755e-09 0)
(2.83262e-10 -1.44188e-09 0)
(4.93357e-10 -6.37881e-10 0)
(5.09675e-10 7.99369e-10 0)
(1.89351e-10 2.1703e-09 0)
(-7.32841e-11 2.78153e-09 0)
(-4.52613e-10 3.76059e-09 0)
(-5.15116e-10 1.16102e-09 0)
(-1.1499e-11 5.11005e-11 0)
(1.81697e-11 1.91342e-10 0)
(9.96904e-11 6.50065e-10 0)
(1.41287e-10 1.37338e-09 0)
(9.64162e-11 2.14487e-09 0)
(6.83558e-11 2.51896e-09 0)
(1.82734e-11 2.41934e-09 0)
(4.15114e-11 1.91088e-09 0)
(-9.27754e-11 1.02171e-09 0)
(-3.39838e-11 2.32961e-10 0)
(2.22445e-11 -6.51492e-10 0)
(-8.1507e-11 -1.34058e-09 0)
(-2.7539e-11 -1.68899e-09 0)
(1.48419e-10 -1.38446e-09 0)
(1.72743e-10 -8.1232e-10 0)
(6.00774e-11 5.21866e-10 0)
(-7.26948e-11 1.99582e-09 0)
(-1.07275e-10 2.7469e-09 0)
(-1.16774e-10 3.93523e-09 0)
(-8.29558e-11 1.36003e-09 0)
(-2.12023e-11 3.22167e-11 0)
(-2.81461e-11 1.76045e-10 0)
(4.29268e-11 7.18961e-10 0)
(9.31394e-12 1.47601e-09 0)
(3.82999e-11 2.32743e-09 0)
(-3.60747e-13 2.70974e-09 0)
(3.55306e-11 2.62887e-09 0)
(-4.89697e-11 2.00877e-09 0)
(-1.68814e-11 1.07617e-09 0)
(1.59692e-11 1.67045e-10 0)
(-8.3838e-11 -8.14344e-10 0)
(-3.70411e-11 -1.46635e-09 0)
(4.57094e-13 -1.7489e-09 0)
(-2.97548e-11 -1.39688e-09 0)
(2.4301e-11 -7.91016e-10 0)
(1.032e-10 6.31127e-10 0)
(7.31925e-11 2.17706e-09 0)
(1.08569e-10 2.94666e-09 0)
(2.75356e-11 4.0886e-09 0)
(-9.92598e-11 1.34296e-09 0)
(-7.99612e-12 -3.42457e-11 0)
(-3.76571e-11 1.82926e-10 0)
(-1.10282e-13 6.60694e-10 0)
(-6.82211e-11 1.5148e-09 0)
(-2.25937e-12 2.30411e-09 0)
(-5.1716e-11 2.75745e-09 0)
(-2.56225e-11 2.61745e-09 0)
(-1.3741e-10 2.04257e-09 0)
(-3.01098e-11 1.1698e-09 0)
(8.18165e-11 1.5817e-10 0)
(2.50722e-11 -7.64311e-10 0)
(1.65702e-10 -1.43467e-09 0)
(1.48151e-10 -1.86124e-09 0)
(-1.09696e-10 -1.48576e-09 0)
(-2.14349e-10 -7.47373e-10 0)
(-2.06352e-10 7.27141e-10 0)
(-1.05677e-10 2.25659e-09 0)
(1.42489e-11 2.99107e-09 0)
(1.89843e-10 4.08096e-09 0)
(1.91482e-10 1.32212e-09 0)
(3.98361e-11 -7.02423e-11 0)
(-3.26497e-11 1.43485e-10 0)
(-1.01103e-10 6.05525e-10 0)
(-1.73071e-10 1.44008e-09 0)
(-7.52459e-11 2.13987e-09 0)
(-6.14983e-11 2.56411e-09 0)
(-3.51137e-11 2.4207e-09 0)
(-8.38545e-12 1.89793e-09 0)
(-3.51732e-11 1.22431e-09 0)
(8.15153e-11 2.47418e-10 0)
(9.5961e-12 -6.01779e-10 0)
(-6.01278e-11 -1.23513e-09 0)
(2.14911e-12 -1.78797e-09 0)
(-6.53851e-12 -1.52615e-09 0)
(-6.80438e-11 -7.94238e-10 0)
(-1.03996e-10 6.60285e-10 0)
(-2.27639e-11 2.16251e-09 0)
(9.12447e-11 2.85746e-09 0)
(1.68185e-10 3.91618e-09 0)
(1.26898e-10 1.30747e-09 0)
(6.19226e-11 -9.44411e-11 0)
(-3.31505e-11 6.28825e-11 0)
(-2.3364e-10 5.75598e-10 0)
(-2.68994e-10 1.22171e-09 0)
(-2.50045e-10 2.0097e-09 0)
(-9.80799e-11 2.3373e-09 0)
(-1.19423e-10 2.33835e-09 0)
(1.71142e-10 1.69246e-09 0)
(1.13395e-10 1.01517e-09 0)
(1.37471e-10 1.06055e-10 0)
(2.0348e-10 -8.26349e-10 0)
(-3.95299e-11 -1.3781e-09 0)
(-1.82249e-10 -1.75612e-09 0)
(-1.83605e-10 -1.45095e-09 0)
(-2.49139e-10 -7.15173e-10 0)
(-3.77282e-10 7.9381e-10 0)
(-2.26385e-10 2.25915e-09 0)
(-1.00625e-10 2.8653e-09 0)
(2.8164e-10 3.75482e-09 0)
(5.1031e-10 1.12775e-09 0)
(9.7598e-11 -1.19537e-10 0)
(-4.66099e-11 1.33449e-11 0)
(-3.59786e-10 3.82171e-10 0)
(-3.38885e-10 8.10954e-10 0)
(-3.05088e-10 1.48694e-09 0)
(-9.61226e-11 1.70757e-09 0)
(-1.84101e-10 1.87353e-09 0)
(-2.22224e-11 1.44821e-09 0)
(1.47289e-10 8.01196e-10 0)
(-3.00659e-11 2.79025e-10 0)
(4.23365e-11 -4.51473e-10 0)
(7.26503e-12 -9.67915e-10 0)
(-1.13886e-10 -1.28853e-09 0)
(-1.01736e-10 -1.14749e-09 0)
(-4.25825e-11 -7.1844e-10 0)
(-1.19728e-10 4.40628e-10 0)
(-1.80197e-10 1.72949e-09 0)
(-2.62589e-10 2.3441e-09 0)
(-7.17292e-11 3.31005e-09 0)
(2.86965e-10 1.14681e-09 0)
(1.02563e-10 -1.16807e-10 0)
(-1.71181e-10 1.22227e-10 0)
(-6.24425e-10 6.0091e-10 0)
(-6.85976e-10 1.30537e-09 0)
(-4.58268e-10 1.89066e-09 0)
(-2.14248e-10 2.25802e-09 0)
(1.25537e-10 2.09352e-09 0)
(8.91466e-11 1.68377e-09 0)
(5.56364e-10 6.67933e-10 0)
(5.78199e-10 -9.40637e-11 0)
(2.95914e-10 -7.59333e-10 0)
(3.40075e-11 -1.2555e-09 0)
(-3.79807e-10 -1.49945e-09 0)
(-7.26004e-10 -1.1631e-09 0)
(-7.82636e-10 -5.73959e-10 0)
(-7.5069e-10 6.72912e-10 0)
(-4.1436e-10 1.91768e-09 0)
(-2.03316e-10 2.49585e-09 0)
(4.88828e-10 3.30182e-09 0)
(9.10519e-10 9.77264e-10 0)
(9.21317e-11 -1.94373e-10 0)
(-1.00854e-10 -3.34233e-10 0)
(-4.78028e-10 -1.08356e-10 0)
(-5.92929e-10 4.42435e-10 0)
(-3.3786e-10 7.31582e-10 0)
(-4.56646e-10 1.34355e-09 0)
(-7.75326e-11 9.32045e-10 0)
(-3.51604e-10 1.09231e-09 0)
(-2.15325e-10 5.50945e-10 0)
(1.78074e-10 -1.3486e-10 0)
(1.52295e-10 -5.91774e-10 0)
(3.53409e-11 -8.8899e-10 0)
(-1.92986e-10 -1.04115e-09 0)
(-4.68459e-10 -7.8509e-10 0)
(-5.49045e-10 -3.94789e-10 0)
(-5.26556e-10 3.91922e-10 0)
(-2.32384e-10 1.27996e-09 0)
(-8.76314e-11 1.73832e-09 0)
(3.60197e-10 2.48218e-09 0)
(6.41491e-10 8.86758e-10 0)
(4.58382e-11 -1.39457e-10 0)
(-3.2796e-10 -3.03245e-10 0)
(-7.67567e-10 1.45369e-10 0)
(-8.11552e-10 8.76205e-10 0)
(-3.93146e-10 1.19653e-09 0)
(-4.18381e-10 1.5208e-09 0)
(7.88967e-11 9.40465e-10 0)
(5.24442e-10 7.38048e-10 0)
(-1.86346e-11 8.40463e-10 0)
(3.1635e-10 6.34977e-11 0)
(4.22421e-10 -5.47822e-10 0)
(2.72447e-10 -8.93636e-10 0)
(-6.09212e-11 -1.04381e-09 0)
(-5.27193e-10 -7.35817e-10 0)
(-8.07161e-10 -2.7417e-10 0)
(-8.62255e-10 5.19686e-10 0)
(-4.79352e-10 1.30075e-09 0)
(-2.04423e-10 1.67689e-09 0)
(3.14644e-10 2.26287e-09 0)
(6.88853e-10 7.3354e-10 0)
(-1.1089e-10 -2.54568e-10 0)
(-3.75242e-10 -9.07938e-11 0)
(-5.08425e-10 2.50639e-10 0)
(-5.62489e-10 5.28387e-10 0)
(-5.44124e-10 9.84607e-10 0)
(-4.39335e-10 5.08666e-10 0)
(-7.52654e-10 2.79226e-10 0)
(1.50719e-09 -1.45376e-09 0)
(3.09283e-10 1.57726e-10 0)
(-2.33512e-10 1.032e-11 0)
(8.64197e-11 -4.09902e-10 0)
(1.25071e-10 -6.88957e-10 0)
(-1.37372e-10 -8.65515e-10 0)
(-5.95534e-10 -6.55177e-10 0)
(-9.02947e-10 -2.2872e-10 0)
(-1.00846e-09 4.78071e-10 0)
(-4.87153e-10 1.08294e-09 0)
(-1.62606e-10 1.32247e-09 0)
(6.08817e-10 1.65246e-09 0)
(9.84938e-10 4.41102e-10 0)
(2.19654e-10 -3.81092e-10 0)
(-3.26276e-10 -2.24015e-11 0)
(-8.97865e-10 1.13186e-10 0)
(-7.56953e-10 -5.36652e-10 0)
(-8.07973e-10 -4.96181e-10 0)
(2.2538e-10 -4.52377e-10 0)
(-1.88427e-09 1.33605e-09 0)
(6.68033e-10 1.79421e-09 0)
(2.81466e-09 -5.26056e-10 0)
(4.61599e-10 -4.21129e-12 0)
(1.94366e-10 1.59196e-10 0)
(6.7404e-11 -3.02527e-11 0)
(-1.40275e-10 -2.63607e-10 0)
(-4.21242e-10 -3.03628e-10 0)
(-6.82759e-10 -1.91166e-10 0)
(-9.12811e-10 -1.74378e-11 0)
(-6.27768e-10 1.83309e-10 0)
(-3.19813e-10 2.7981e-10 0)
(3.221e-10 5.10053e-10 0)
(7.46112e-10 2.76219e-10 0)
(4.50335e-10 -1.27787e-10 0)
(-1.50799e-10 2.23468e-10 0)
(-9.33331e-10 6.10437e-10 0)
(-1.06144e-09 3.93086e-10 0)
(-5.22975e-10 3.67807e-10 0)
(-7.05112e-10 8.94287e-10 0)
(1.7438e-09 2.48218e-09 0)
(-1.94415e-09 3.95928e-09 0)
(-1.67922e-09 -8.99264e-11 0)
(8.87322e-10 -2.04311e-10 0)
(1.65255e-10 -2.57317e-10 0)
(-3.68742e-10 -5.08649e-10 0)
(-4.02945e-10 -6.37362e-10 0)
(-3.83575e-10 -4.22303e-10 0)
(-5.2424e-10 -7.25058e-11 0)
(-8.0776e-10 3.77593e-10 0)
(-5.63619e-10 6.43619e-10 0)
(-2.91244e-10 6.96868e-10 0)
(4.21282e-10 7.27167e-10 0)
(8.36075e-10 6.5914e-11 0)
)
;

boundaryField
{
    sides
    {
        type            calculated;
        value           nonuniform List<vector> 
40
(
(4.50335e-10 0 0)
(-1.50799e-10 0 0)
(-9.33331e-10 0 0)
(-1.06144e-09 0 0)
(-5.22975e-10 0 0)
(-7.05112e-10 0 0)
(1.7438e-09 0 0)
(-1.94415e-09 0 0)
(-1.67922e-09 0 0)
(8.87322e-10 0 0)
(1.65255e-10 0 0)
(-3.68742e-10 0 0)
(-4.02945e-10 0 0)
(-3.83575e-10 0 0)
(-5.2424e-10 0 0)
(-8.0776e-10 0 0)
(-5.63619e-10 0 0)
(-2.91244e-10 0 0)
(4.21282e-10 0 0)
(8.36075e-10 0 0)
(5.22738e-11 0 0)
(4.62012e-10 0 0)
(7.48231e-10 0 0)
(7.46142e-10 0 0)
(1.02388e-09 0 0)
(-1.57204e-09 0 0)
(-2.27996e-09 0 0)
(-1.73722e-09 0 0)
(3.039e-11 0 0)
(4.79657e-10 0 0)
(5.9154e-10 0 0)
(1.67817e-10 0 0)
(4.54168e-11 0 0)
(4.08168e-10 0 0)
(7.54171e-10 0 0)
(8.61337e-10 0 0)
(4.25518e-10 0 0)
(1.72983e-10 0 0)
(-4.16759e-10 0 0)
(-7.49796e-10 0 0)
)
;
    }
    inlet
    {
        type            calculated;
        value           uniform (0 0 0);
    }
    outlet
    {
        type            calculated;
        value           nonuniform List<vector> 
20
(
(-7.49796e-10 8.78513e-11 0)
(-7.05138e-10 3.27984e-10 0)
(-1.0016e-09 4.94104e-10 0)
(-7.62982e-10 7.56306e-10 0)
(-7.31695e-10 8.50365e-10 0)
(-9.64375e-10 9.07875e-10 0)
(-3.05241e-10 1.11255e-09 0)
(-5.15116e-10 1.16102e-09 0)
(-8.29558e-11 1.36003e-09 0)
(-9.92598e-11 1.34296e-09 0)
(1.91482e-10 1.32212e-09 0)
(1.26898e-10 1.30747e-09 0)
(5.1031e-10 1.12775e-09 0)
(2.86965e-10 1.14681e-09 0)
(9.10519e-10 9.77264e-10 0)
(6.41491e-10 8.86758e-10 0)
(6.88853e-10 7.3354e-10 0)
(9.84938e-10 4.41102e-10 0)
(7.46112e-10 2.76219e-10 0)
(8.36075e-10 6.5914e-11 0)
)
;
    }
    frontAndBack
    {
        type            empty;
    }
}


// ************************************************************************* //
