/*--------------------------------*- C++ -*----------------------------------*\
  =========                 |
  \\      /  F ield         | OpenFOAM: The Open Source CFD Toolbox
   \\    /   O peration     | Website:  https://openfoam.org
    \\  /    A nd           | Version:  7
     \\/     M anipulation  |
\*---------------------------------------------------------------------------*/
FoamFile
{
    version     2.0;
    format      ascii;
    class       surfaceScalarField;
    location    "52";
    object      ddtCorrDdt0(phi);
}
// * * * * * * * * * * * * * * * * * * * * * * * * * * * * * * * * * * * * * //

dimensions      [0 4 -2 0 0 0 0];

internalField   nonuniform List<scalar> 
760
(
4.24692e-12
7.25966e-13
3.01509e-12
-1.18324e-12
1.44884e-12
1.76137e-13
5.53271e-12
1.54398e-12
1.23063e-12
-5.13213e-11
-1.0206e-11
-8.02294e-11
-1.50396e-11
2.68644e-10
-4.16534e-14
4.00891e-10
1.44153e-13
1.93241e-11
3.51178e-12
2.20781e-12
1.82159e-12
3.09561e-13
8.25505e-14
-1.43129e-12
9.26702e-13
-1.90773e-12
3.05338e-12
-1.14601e-12
4.11617e-12
-2.89858e-13
3.22596e-12
6.57856e-13
1.35468e-12
1.62376e-12
-5.59627e-13
2.23752e-12
-2.97702e-12
3.06506e-12
9.82947e-13
1.41271e-12
-4.10272e-13
3.33481e-12
-1.80837e-12
4.32765e-12
-9.00951e-13
3.63491e-12
1.68079e-12
7.97333e-13
2.4636e-12
1.7261e-11
9.15227e-12
1.38401e-11
-5.26571e-12
-7.96286e-12
-1.74733e-11
-1.13253e-12
3.53676e-12
-2.96442e-12
9.2384e-13
-1.98459e-12
-1.76984e-12
-4.14976e-13
-2.92955e-12
1.52803e-12
-3.15585e-12
3.2745e-12
-2.06521e-12
4.05155e-12
-8.65237e-13
3.47521e-12
1.08139e-12
1.93999e-12
3.35584e-12
8.66711e-14
4.58579e-12
-2.55852e-12
6.25544e-12
2.13347e-12
-4.98555e-13
-4.14666e-12
2.70104e-12
-5.50538e-13
3.98298e-12
2.89998e-13
2.05501e-12
2.32234e-12
4.65261e-12
3.4813e-12
-3.4575e-13
5.83067e-12
-2.25705e-12
4.28527e-12
5.66e-12
8.51058e-12
-4.6072e-13
3.31541e-12
-3.54967e-12
-1.88806e-12
-2.42109e-12
-3.37181e-12
2.72567e-13
-4.03276e-12
2.95238e-12
-4.16499e-12
4.16544e-12
-2.95173e-12
4.09051e-12
-1.40898e-12
3.2326e-12
1.86034e-12
1.71857e-12
5.42553e-12
-5.64399e-13
7.28745e-12
-4.00099e-12
9.79908e-12
3.1093e-12
6.25801e-13
-2.22532e-12
2.60309e-12
-8.46734e-13
4.12749e-12
1.15696e-12
2.61202e-12
3.18608e-12
4.53796e-12
5.19479e-12
-1.28562e-12
6.36621e-12
1.91005e-12
6.9625e-12
2.66416e-13
6.07362e-12
-4.84293e-12
-4.9229e-13
-3.62671e-12
-1.76078e-12
-1.95615e-12
-3.37588e-12
4.00283e-13
-4.58121e-12
2.48345e-12
-5.15784e-12
3.12629e-12
-4.1131e-12
3.19628e-12
-2.24617e-12
3.20764e-12
2.22074e-12
2.3947e-12
6.97172e-12
6.05403e-13
9.12705e-12
-2.56127e-12
1.22943e-11
4.1011e-12
8.80945e-13
-1.61374e-12
1.27021e-12
-5.37754e-13
2.75553e-12
2.02225e-12
2.01502e-12
3.97733e-12
2.98796e-12
7.29501e-12
3.16743e-13
6.32468e-12
2.76123e-12
8.2802e-12
-2.29501e-12
3.9314e-12
-1.42547e-12
1.944e-12
-4.38555e-13
4.15515e-13
2.00741e-13
-2.41752e-12
1.45633e-12
-4.29934e-12
1.9162e-12
-5.6385e-12
1.65125e-12
-4.94832e-12
1.90337e-12
-2.72378e-12
2.23559e-12
2.70409e-12
1.62088e-12
8.19238e-12
1.32427e-14
1.04343e-11
-2.7999e-12
1.38972e-11
4.36772e-12
1.6252e-12
-1.22089e-12
2.36654e-12
-5.29875e-13
2.84116e-12
2.32209e-12
3.16331e-12
4.9984e-12
9.11627e-13
8.43816e-12
9.72124e-13
9.93743e-12
-1.21674e-12
9.80616e-12
-3.10308e-12
6.72383e-12
-1.4713e-12
4.9842e-12
-1.69585e-12
9.26096e-13
-4.70333e-13
-3.03856e-12
1.42862e-12
-5.40728e-12
2.27939e-12
-7.47485e-12
2.83074e-12
-6.39708e-12
3.79383e-12
-3.07633e-12
3.64801e-12
3.61206e-12
1.85686e-12
9.97173e-12
-7.29044e-13
1.24933e-11
-3.92878e-12
1.62571e-11
4.98694e-12
9.32943e-13
-2.25277e-13
1.62237e-12
3.04607e-13
1.11945e-12
2.21107e-12
2.13903e-12
6.21291e-12
3.24393e-13
8.68065e-12
1.73283e-12
1.15608e-11
-1.97616e-13
1.05145e-11
9.86827e-13
8.74897e-12
4.34694e-13
5.42542e-12
-4.48805e-13
6.73883e-13
3.14474e-13
-2.80187e-12
1.96277e-13
-5.66612e-12
-2.36497e-13
-8.25452e-12
2.38713e-13
-6.87225e-12
1.24169e-12
-3.23173e-12
1.49531e-12
3.37972e-12
7.45861e-13
9.82852e-12
-1.77767e-13
1.2683e-11
-1.18503e-12
1.74551e-11
5.64362e-12
5.28239e-13
2.21967e-13
8.22747e-13
1.07367e-12
1.29288e-12
2.76915e-12
1.08354e-12
6.39879e-12
1.19005e-12
9.97744e-12
6.82386e-13
1.23167e-11
-5.51759e-15
1.18066e-11
4.26516e-13
9.61933e-12
-1.26309e-12
4.98349e-12
-5.95693e-13
7.82979e-13
-9.3173e-14
-3.41367e-12
-5.82608e-13
-7.00461e-12
4.84787e-13
-8.99471e-12
2.13153e-12
-7.09625e-12
2.62597e-12
-3.61334e-12
1.72422e-12
3.26217e-12
1.56373e-13
1.03093e-11
-1.37863e-12
1.37645e-11
-2.44242e-12
1.9295e-11
6.36791e-12
3.78029e-13
3.23307e-13
5.90509e-14
9.01484e-13
8.01425e-13
3.65963e-12
2.60529e-13
7.12344e-12
7.9266e-13
1.14072e-11
4.66044e-14
1.31219e-11
2.92369e-13
1.28097e-11
-1.47839e-13
9.72046e-12
-4.77813e-13
5.04292e-12
2.3253e-13
8.40873e-13
-1.71767e-13
-4.02663e-12
-5.35595e-13
-7.21989e-12
2.92917e-13
-8.38633e-12
1.00746e-12
-6.69395e-12
6.39751e-13
-3.93906e-12
-1.21837e-13
2.86578e-12
-5.49766e-13
1.04171e-11
-5.65169e-13
1.4173e-11
-4.71186e-13
1.99303e-11
6.67493e-12
-1.52145e-13
4.37932e-15
1.29136e-13
9.01954e-13
-2.45096e-14
3.62904e-12
1.79186e-13
7.70018e-12
1.23852e-13
1.18274e-11
1.38995e-13
1.37441e-11
7.15454e-14
1.30926e-11
-4.49534e-13
1.00483e-11
1.896e-13
5.63748e-12
-1.88315e-13
9.78011e-13
-4.00192e-13
-3.78038e-12
3.41265e-14
-7.11003e-12
-7.48953e-14
-8.93267e-12
-5.32624e-14
-7.29435e-12
3.22578e-13
-4.15231e-12
4.2508e-13
3.05507e-12
4.11531e-13
1.09055e-11
3.39987e-13
1.49024e-11
-1.83156e-13
2.06791e-11
6.81355e-12
-3.86541e-13
-3.40385e-13
1.12823e-13
9.61384e-13
-3.09127e-13
3.05045e-12
-2.33066e-14
7.54082e-12
-2.66811e-13
1.12016e-11
-1.89042e-13
1.36095e-11
-2.77013e-13
1.27052e-11
-7.22008e-13
1.00328e-11
4.1368e-13
5.9477e-12
1.67325e-13
7.60739e-13
3.45482e-13
-3.56547e-12
1.04626e-12
-6.90691e-12
1.14692e-13
-9.42848e-12
-1.00661e-12
-7.54992e-12
-1.10772e-12
-3.55842e-12
-7.18313e-13
3.76917e-12
-1.71087e-13
1.11883e-11
5.78078e-13
1.46088e-11
9.87467e-13
1.9868e-11
6.49436e-12
-1.35033e-13
-3.38055e-13
-5.57491e-13
4.83491e-13
-3.24078e-13
2.93919e-12
-8.33608e-13
6.72092e-12
-1.68407e-13
1.017e-11
-5.98241e-13
1.23059e-11
2.12302e-13
1.19218e-11
-3.04621e-13
9.14422e-12
5.89763e-14
6.00507e-12
3.67782e-13
1.00781e-12
-2.45645e-13
-3.41755e-12
-1.00262e-13
-6.30596e-12
1.30629e-13
-8.86222e-12
-2.3479e-13
-7.59732e-12
-5.45397e-13
-3.86461e-12
-2.97569e-13
3.65739e-12
2.60093e-13
1.11369e-11
6.43238e-13
1.44013e-11
7.30486e-13
1.92129e-11
6.10143e-12
-2.58251e-13
-5.83396e-13
-8.84973e-13
3.26622e-13
-7.66092e-13
3.02674e-12
-1.74706e-12
5.3906e-12
-6.03228e-13
9.32346e-12
-8.95549e-13
1.02132e-11
2.63064e-13
1.07852e-11
1.04781e-12
7.67544e-12
9.58626e-14
4.69582e-12
1.04621e-12
1.28465e-12
5.38577e-13
-3.17198e-12
-7.3448e-13
-5.80945e-12
-8.68307e-13
-7.40992e-12
-1.01365e-12
-6.4343e-12
-1.59068e-12
-3.70321e-12
-1.48388e-12
2.93266e-12
-7.38727e-13
9.84163e-12
3.21318e-13
1.28525e-11
1.99998e-12
1.75086e-11
5.61875e-12
-3.67653e-13
-7.85149e-13
-8.64159e-13
9.31994e-14
-1.94226e-12
1.85348e-12
-1.27463e-12
4.78455e-12
-1.6469e-12
8.1247e-12
-2.55562e-13
9.29465e-12
-1.04521e-12
9.69774e-12
1.01298e-12
7.54759e-12
-1.87988e-14
2.91924e-12
-1.76732e-13
1.81359e-13
4.14371e-13
-3.1719e-12
-2.98644e-13
-5.83931e-12
-6.70412e-13
-7.17973e-12
-3.77435e-13
-5.84477e-12
-2.96977e-13
-3.20625e-12
-6.70198e-13
2.93022e-12
-1.11074e-12
9.28799e-12
-1.02932e-12
1.22577e-11
5.96076e-13
1.6636e-11
5.32134e-12
-7.33392e-13
-5.59397e-13
-2.26104e-12
-3.69262e-13
-3.46698e-12
1.06625e-12
-2.11843e-12
4.32154e-12
-2.85684e-12
6.10174e-12
6.9531e-13
9.21149e-12
1.4043e-13
7.80334e-12
1.56459e-12
7.38045e-12
3.17926e-12
3.25017e-12
1.874e-12
-6.21957e-13
9.60636e-13
-3.08149e-12
-7.24268e-13
-4.88685e-12
-2.93283e-12
-5.91605e-12
-3.88265e-12
-4.57447e-12
-3.65912e-12
-2.34894e-12
-2.84948e-12
2.43245e-12
-1.55049e-12
7.60836e-12
4.77017e-13
1.02284e-11
3.57024e-12
1.42615e-11
4.68109e-12
-4.25838e-13
-1.1088e-12
-2.04021e-12
-1.53659e-12
-2.3477e-12
4.43468e-13
-2.40792e-12
3.78456e-12
-2.20129e-12
5.72133e-12
-1.47249e-12
8.78221e-12
-3.66366e-13
4.59199e-12
-2.23348e-12
6.36386e-12
1.89888e-13
3.82044e-12
8.36861e-13
-2.34317e-13
5.45876e-13
-3.25014e-12
-2.42729e-13
-5.01788e-12
-1.77733e-12
-5.77112e-12
-2.71953e-12
-4.09406e-12
-2.58326e-12
-1.67768e-12
-1.83662e-12
2.54446e-12
-7.81785e-13
6.90029e-12
6.02349e-13
9.02202e-12
2.63522e-12
1.22755e-11
4.11301e-12
-2.26664e-12
-2.66894e-13
-3.40095e-12
-1.06219e-12
-2.5708e-12
9.33938e-13
-4.11179e-12
2.61974e-12
-2.98403e-13
4.57611e-12
-3.96338e-12
2.4066e-12
4.53992e-12
5.1019e-12
-1.54976e-14
-2.6842e-12
5.30219e-13
3.14603e-12
1.98752e-12
6.55842e-13
1.86552e-12
-2.08541e-12
7.28887e-13
-3.79178e-12
-1.48054e-12
-4.56416e-12
-3.48384e-12
-3.25819e-12
-4.15592e-12
-1.13413e-12
-3.33933e-12
2.3759e-12
-1.64618e-12
5.65171e-12
1.86247e-13
7.15049e-12
2.54768e-12
9.42922e-12
2.8833e-12
-3.77536e-12
-1.30354e-12
-2.81126e-12
-6.34301e-13
-6.34807e-13
1.76734e-12
-3.99475e-12
9.30469e-13
-9.57586e-13
1.72753e-12
-6.24372e-12
-7.57751e-13
3.41788e-12
2.06132e-13
6.32216e-12
-1.57815e-11
-1.59046e-12
-3.20935e-12
-2.7614e-13
1.58122e-13
7.40888e-13
-8.96584e-13
1.87422e-13
-2.10496e-12
-1.78527e-12
-3.02613e-12
-3.87393e-12
-2.53595e-12
-4.81103e-12
-1.13539e-12
-3.77189e-12
1.31355e-12
-1.49718e-12
3.57209e-12
1.0448e-12
4.43883e-12
4.11671e-12
5.81756e-12
1.85687e-12
-1.80039e-12
-1.33793e-12
-3.55053e-12
7.41579e-13
-3.44908e-12
1.40465e-12
-2.32829e-12
-1.0553e-12
-3.32712e-12
-5.04253e-11
-2.99183e-12
-2.663e-10
-1.09587e-11
4.28009e-10
1.99107e-11
4.30371e-10
4.0358e-12
2.01794e-11
1.32517e-12
-8.25258e-13
8.01026e-13
-3.19507e-13
-1.06284e-13
-7.88886e-13
-1.40043e-12
-1.58455e-12
-2.72173e-12
-1.54937e-12
-3.9579e-12
-7.12141e-13
-3.95303e-12
6.72562e-13
-2.28643e-12
1.7697e-12
-1.00281e-13
2.16689e-12
2.72688e-12
2.78719e-12
7.86904e-13
1.65723e-13
-1.67188e-12
-6.86897e-12
-3.84406e-12
-5.23057e-12
6.59424e-12
3.9103e-12
-1.99239e-11
3.41234e-12
2.61689e-12
-7.97098e-13
-2.08054e-12
-1.86614e-12
-2.09199e-12
-3.25054e-12
-3.60102e-12
-2.09695e-12
2.40133e-13
3.23523e-12
)
;

boundaryField
{
    sides
    {
        type            calculated;
        value           uniform 0;
    }
    inlet
    {
        type            calculated;
        value           uniform 0;
    }
    outlet
    {
        type            calculated;
        value           nonuniform List<scalar> 
20
(
-3.58585e-12
-3.43264e-12
-4.97145e-12
-4.02861e-12
-3.86579e-12
-5.02619e-12
-1.44928e-12
-2.39131e-12
-3.46925e-13
-4.11768e-13
7.96983e-13
6.11912e-13
2.62485e-12
1.60885e-12
4.71457e-12
3.14637e-12
3.40133e-12
4.7799e-12
3.6948e-12
4.16938e-12
)
;
    }
    frontAndBack
    {
        type            empty;
        value           nonuniform 0();
    }
}


// ************************************************************************* //
