/*--------------------------------*- C++ -*----------------------------------*\
  =========                 |
  \\      /  F ield         | OpenFOAM: The Open Source CFD Toolbox
   \\    /   O peration     | Website:  https://openfoam.org
    \\  /    A nd           | Version:  7
     \\/     M anipulation  |
\*---------------------------------------------------------------------------*/
FoamFile
{
    version     2.0;
    format      ascii;
    class       volVectorField;
    location    "52";
    object      hU;
}
// * * * * * * * * * * * * * * * * * * * * * * * * * * * * * * * * * * * * * //

dimensions      [0 2 -1 0 0 0 0];

internalField   nonuniform List<vector> 
400
(
(0.001 -8.61746e-09 0)
(0.000999999 -2.34561e-08 0)
(0.001 -3.5572e-08 0)
(0.001 -4.62727e-08 0)
(0.00100001 -5.65866e-08 0)
(0.00100001 -6.74393e-08 0)
(0.00100002 -7.8216e-08 0)
(0.00100003 -8.95269e-08 0)
(0.00100004 -1.00362e-07 0)
(0.00100006 -1.12353e-07 0)
(0.00100007 -1.22976e-07 0)
(0.0010001 -1.36253e-07 0)
(0.00100012 -1.46297e-07 0)
(0.00100015 -1.62843e-07 0)
(0.00100017 -1.71553e-07 0)
(0.00100024 -1.95681e-07 0)
(0.00100026 -2.00505e-07 0)
(0.00100038 -2.42956e-07 0)
(0.00100038 -2.39609e-07 0)
(0.00100061 -3.32457e-07 0)
(0.001 4.02246e-09 0)
(0.001 1.21372e-08 0)
(0.00100001 2.02852e-08 0)
(0.00100001 2.81076e-08 0)
(0.00100002 3.5391e-08 0)
(0.00100002 4.18626e-08 0)
(0.00100003 4.79733e-08 0)
(0.00100004 5.32807e-08 0)
(0.00100005 5.86133e-08 0)
(0.00100007 6.23838e-08 0)
(0.00100008 6.6936e-08 0)
(0.0010001 6.85352e-08 0)
(0.00100012 7.26997e-08 0)
(0.00100016 6.99951e-08 0)
(0.00100018 7.4236e-08 0)
(0.00100023 6.20154e-08 0)
(0.00100026 6.74857e-08 0)
(0.00100035 3.20408e-08 0)
(0.00100037 3.99307e-08 0)
(0.00100051 -5.48384e-08 0)
(0.001 -3.80354e-09 0)
(0.000999999 -1.24909e-08 0)
(0.001 -2.22957e-08 0)
(0.001 -3.28417e-08 0)
(0.001 -4.35273e-08 0)
(0.00100001 -5.45637e-08 0)
(0.00100002 -6.56717e-08 0)
(0.00100003 -7.77123e-08 0)
(0.00100004 -8.94035e-08 0)
(0.00100005 -1.03108e-07 0)
(0.00100007 -1.15665e-07 0)
(0.00100009 -1.32505e-07 0)
(0.00100011 -1.46164e-07 0)
(0.00100014 -1.69226e-07 0)
(0.00100016 -1.84071e-07 0)
(0.00100021 -2.1991e-07 0)
(0.00100023 -2.3492e-07 0)
(0.00100031 -2.97166e-07 0)
(0.00100033 -3.0675e-07 0)
(0.00100046 -4.23318e-07 0)
(0.001 7.90546e-11 0)
(0.001 8.07013e-10 0)
(0.00100001 1.85363e-09 0)
(0.00100001 2.65807e-09 0)
(0.00100001 3.17909e-09 0)
(0.00100002 2.71423e-09 0)
(0.00100003 1.81018e-09 0)
(0.00100003 -5.38502e-10 0)
(0.00100004 -2.92554e-09 0)
(0.00100006 -7.70165e-09 0)
(0.00100007 -1.16646e-08 0)
(0.00100009 -2.05579e-08 0)
(0.00100011 -2.67232e-08 0)
(0.00100013 -4.32481e-08 0)
(0.00100016 -5.21858e-08 0)
(0.0010002 -8.33662e-08 0)
(0.00100022 -9.44251e-08 0)
(0.00100028 -1.54022e-07 0)
(0.0010003 -1.61523e-07 0)
(0.00100039 -2.77309e-07 0)
(0.001 -2.71182e-09 0)
(0.001 -8.57217e-09 0)
(0.001 -1.53002e-08 0)
(0.001 -2.31846e-08 0)
(0.00100001 -3.19197e-08 0)
(0.00100001 -4.19422e-08 0)
(0.00100002 -5.2486e-08 0)
(0.00100002 -6.46276e-08 0)
(0.00100003 -7.68661e-08 0)
(0.00100004 -9.17352e-08 0)
(0.00100005 -1.05956e-07 0)
(0.00100007 -1.25402e-07 0)
(0.00100009 -1.42225e-07 0)
(0.00100011 -1.69836e-07 0)
(0.00100013 -1.89773e-07 0)
(0.00100016 -2.32562e-07 0)
(0.00100018 -2.54571e-07 0)
(0.00100024 -3.25777e-07 0)
(0.00100025 -3.42036e-07 0)
(0.00100033 -4.65933e-07 0)
(0.001 -2.19067e-09 0)
(0.001 -6.42099e-09 0)
(0.001 -1.05836e-08 0)
(0.00100001 -1.51595e-08 0)
(0.00100001 -2.01782e-08 0)
(0.00100001 -2.63351e-08 0)
(0.00100002 -3.30263e-08 0)
(0.00100002 -4.13629e-08 0)
(0.00100003 -4.98249e-08 0)
(0.00100004 -6.11258e-08 0)
(0.00100005 -7.19522e-08 0)
(0.00100007 -8.83357e-08 0)
(0.00100008 -1.02469e-07 0)
(0.0010001 -1.27869e-07 0)
(0.00100011 -1.46236e-07 0)
(0.00100014 -1.87827e-07 0)
(0.00100016 -2.09441e-07 0)
(0.0010002 -2.79633e-07 0)
(0.00100021 -2.95546e-07 0)
(0.00100027 -4.17233e-07 0)
(0.001 -2.53051e-09 0)
(0.001 -7.81613e-09 0)
(0.001 -1.35913e-08 0)
(0.001 -2.03651e-08 0)
(0.00100001 -2.81827e-08 0)
(0.00100001 -3.76222e-08 0)
(0.00100001 -4.80549e-08 0)
(0.00100002 -6.04568e-08 0)
(0.00100002 -7.3311e-08 0)
(0.00100003 -8.92872e-08 0)
(0.00100004 -1.04962e-07 0)
(0.00100005 -1.26414e-07 0)
(0.00100006 -1.45673e-07 0)
(0.00100007 -1.7638e-07 0)
(0.00100009 -1.99845e-07 0)
(0.00100011 -2.46773e-07 0)
(0.00100012 -2.73033e-07 0)
(0.00100015 -3.48469e-07 0)
(0.00100016 -3.67941e-07 0)
(0.00100021 -4.94325e-07 0)
(0.001 -2.79715e-09 0)
(0.001 -8.60073e-09 0)
(0.001 -1.48043e-08 0)
(0.001 -2.19005e-08 0)
(0.001 -2.99343e-08 0)
(0.00100001 -3.94443e-08 0)
(0.00100001 -4.9761e-08 0)
(0.00100001 -6.18659e-08 0)
(0.00100002 -7.43111e-08 0)
(0.00100002 -8.97851e-08 0)
(0.00100003 -1.04963e-07 0)
(0.00100004 -1.25975e-07 0)
(0.00100004 -1.44963e-07 0)
(0.00100006 -1.75527e-07 0)
(0.00100006 -1.99244e-07 0)
(0.00100008 -2.46379e-07 0)
(0.00100009 -2.73376e-07 0)
(0.00100011 -3.48708e-07 0)
(0.00100012 -3.68654e-07 0)
(0.00100015 -4.93358e-07 0)
(0.001 -2.94993e-09 0)
(0.001 -9.05371e-09 0)
(0.001 -1.55182e-08 0)
(0.001 -2.28957e-08 0)
(0.001 -3.12258e-08 0)
(0.001 -4.11254e-08 0)
(0.00100001 -5.19447e-08 0)
(0.00100001 -6.47717e-08 0)
(0.00100001 -7.81533e-08 0)
(0.00100001 -9.48042e-08 0)
(0.00100002 -1.11355e-07 0)
(0.00100002 -1.33935e-07 0)
(0.00100003 -1.54538e-07 0)
(0.00100003 -1.8689e-07 0)
(0.00100004 -2.12286e-07 0)
(0.00100005 -2.61309e-07 0)
(0.00100005 -2.89795e-07 0)
(0.00100007 -3.67081e-07 0)
(0.00100007 -3.88041e-07 0)
(0.00100009 -5.14995e-07 0)
(0.001 -3.02463e-09 0)
(0.001 -9.27571e-09 0)
(0.001 -1.58713e-08 0)
(0.001 -2.33892e-08 0)
(0.001 -3.19138e-08 0)
(0.001 -4.21062e-08 0)
(0.001 -5.33201e-08 0)
(0.001 -6.65924e-08 0)
(0.001 -8.03998e-08 0)
(0.001 -9.74234e-08 0)
(0.00100001 -1.14311e-07 0)
(0.00100001 -1.37189e-07 0)
(0.00100001 -1.58125e-07 0)
(0.00100001 -1.90801e-07 0)
(0.00100001 -2.16628e-07 0)
(0.00100002 -2.65978e-07 0)
(0.00100002 -2.94961e-07 0)
(0.00100002 -3.72363e-07 0)
(0.00100002 -3.93723e-07 0)
(0.00100003 -5.20092e-07 0)
(0.001 -3.03062e-09 0)
(0.001 -9.27709e-09 0)
(0.001 -1.58791e-08 0)
(0.000999999 -2.33878e-08 0)
(0.000999999 -3.1914e-08 0)
(0.000999999 -4.20979e-08 0)
(0.000999998 -5.33145e-08 0)
(0.000999997 -6.65819e-08 0)
(0.000999996 -8.03885e-08 0)
(0.000999995 -9.74203e-08 0)
(0.000999994 -1.14305e-07 0)
(0.000999993 -1.37187e-07 0)
(0.000999991 -1.58132e-07 0)
(0.000999989 -1.908e-07 0)
(0.000999987 -2.16617e-07 0)
(0.000999984 -2.65964e-07 0)
(0.000999982 -2.94952e-07 0)
(0.000999978 -3.72361e-07 0)
(0.000999977 -3.93729e-07 0)
(0.00099997 -5.20093e-07 0)
(0.001 -2.96269e-09 0)
(0.001 -9.06178e-09 0)
(0.000999999 -1.55283e-08 0)
(0.000999999 -2.28906e-08 0)
(0.000999997 -3.12221e-08 0)
(0.000999996 -4.11107e-08 0)
(0.000999994 -5.19323e-08 0)
(0.000999992 -6.47564e-08 0)
(0.000999989 -7.81293e-08 0)
(0.000999986 -9.47952e-08 0)
(0.000999982 -1.11344e-07 0)
(0.000999978 -1.33924e-07 0)
(0.000999973 -1.54541e-07 0)
(0.000999967 -1.86884e-07 0)
(0.000999961 -2.12266e-07 0)
(0.000999952 -2.61271e-07 0)
(0.000999946 -2.89764e-07 0)
(0.000999933 -3.67051e-07 0)
(0.00099993 -3.88032e-07 0)
(0.000999911 -5.1495e-07 0)
(0.001 -2.81071e-09 0)
(0.000999999 -8.60899e-09 0)
(0.000999999 -1.47977e-08 0)
(0.000999998 -2.18982e-08 0)
(0.000999996 -2.9925e-08 0)
(0.000999994 -3.9447e-08 0)
(0.000999991 -4.97539e-08 0)
(0.000999987 -6.18732e-08 0)
(0.000999983 -7.43068e-08 0)
(0.000999977 -8.97803e-08 0)
(0.000999971 -1.04966e-07 0)
(0.000999963 -1.2597e-07 0)
(0.000999955 -1.44961e-07 0)
(0.000999945 -1.75532e-07 0)
(0.000999935 -1.99254e-07 0)
(0.000999921 -2.46376e-07 0)
(0.000999911 -2.73373e-07 0)
(0.00099989 -3.48706e-07 0)
(0.000999882 -3.68671e-07 0)
(0.000999852 -4.93355e-07 0)
(0.001 -2.5389e-09 0)
(0.000999999 -7.812e-09 0)
(0.000999998 -1.35783e-08 0)
(0.000999996 -2.03665e-08 0)
(0.000999994 -2.81772e-08 0)
(0.000999991 -3.76405e-08 0)
(0.000999987 -4.80576e-08 0)
(0.000999982 -6.04699e-08 0)
(0.000999977 -7.33369e-08 0)
(0.000999969 -8.92881e-08 0)
(0.000999961 -1.0496e-07 0)
(0.000999951 -1.26398e-07 0)
(0.00099994 -1.45647e-07 0)
(0.000999925 -1.76351e-07 0)
(0.000999912 -1.99832e-07 0)
(0.000999891 -2.46735e-07 0)
(0.000999878 -2.72991e-07 0)
(0.000999846 -3.48382e-07 0)
(0.000999839 -3.67862e-07 0)
(0.000999792 -4.94181e-07 0)
(0.001 -2.18993e-09 0)
(0.000999999 -6.41304e-09 0)
(0.000999997 -1.05871e-08 0)
(0.000999995 -1.51678e-08 0)
(0.000999992 -2.01983e-08 0)
(0.000999987 -2.63469e-08 0)
(0.000999982 -3.30458e-08 0)
(0.000999976 -4.13602e-08 0)
(0.000999968 -4.98635e-08 0)
(0.000999958 -6.11641e-08 0)
(0.000999948 -7.19789e-08 0)
(0.000999934 -8.83514e-08 0)
(0.000999921 -1.02476e-07 0)
(0.000999902 -1.27872e-07 0)
(0.000999886 -1.46254e-07 0)
(0.000999859 -1.87844e-07 0)
(0.000999841 -2.0946e-07 0)
(0.000999802 -2.79623e-07 0)
(0.000999788 -2.95536e-07 0)
(0.000999731 -4.17206e-07 0)
(0.001 -2.68892e-09 0)
(0.001 -8.57183e-09 0)
(0.000999999 -1.53177e-08 0)
(0.000999997 -2.31832e-08 0)
(0.000999994 -3.19279e-08 0)
(0.00099999 -4.18964e-08 0)
(0.000999984 -5.24889e-08 0)
(0.000999977 -6.45784e-08 0)
(0.000999969 -7.68236e-08 0)
(0.000999958 -9.17312e-08 0)
(0.000999946 -1.05962e-07 0)
(0.000999929 -1.25397e-07 0)
(0.000999914 -1.42216e-07 0)
(0.00099989 -1.69803e-07 0)
(0.000999872 -1.8975e-07 0)
(0.000999836 -2.32518e-07 0)
(0.000999817 -2.54544e-07 0)
(0.000999764 -3.25684e-07 0)
(0.000999752 -3.41956e-07 0)
(0.00099967 -4.65763e-07 0)
(0.001 1.17359e-10 0)
(0.000999998 7.96342e-10 0)
(0.000999995 1.81887e-09 0)
(0.000999991 2.65903e-09 0)
(0.000999986 3.18244e-09 0)
(0.00099998 2.73907e-09 0)
(0.000999974 1.78593e-09 0)
(0.000999965 -5.42574e-10 0)
(0.000999955 -2.84867e-09 0)
(0.000999942 -7.66177e-09 0)
(0.000999929 -1.16664e-08 0)
(0.000999911 -2.05699e-08 0)
(0.000999893 -2.67363e-08 0)
(0.000999867 -4.32424e-08 0)
(0.000999844 -5.21788e-08 0)
(0.000999805 -8.33482e-08 0)
(0.000999779 -9.44242e-08 0)
(0.00099972 -1.53992e-07 0)
(0.000999699 -1.61502e-07 0)
(0.000999611 -2.77248e-07 0)
(0.001 -3.80593e-09 0)
(0.001 -1.24871e-08 0)
(0.001 -2.22885e-08 0)
(0.000999998 -3.28328e-08 0)
(0.000999995 -4.34872e-08 0)
(0.000999989 -5.46357e-08 0)
(0.000999983 -6.56768e-08 0)
(0.000999974 -7.77754e-08 0)
(0.000999963 -8.93895e-08 0)
(0.000999949 -1.03072e-07 0)
(0.000999935 -1.15652e-07 0)
(0.000999914 -1.32502e-07 0)
(0.000999895 -1.46184e-07 0)
(0.000999863 -1.6923e-07 0)
(0.00099984 -1.84083e-07 0)
(0.000999791 -2.19891e-07 0)
(0.000999767 -2.34941e-07 0)
(0.000999688 -2.97142e-07 0)
(0.000999672 -3.06766e-07 0)
(0.000999539 -4.23245e-07 0)
(0.001 3.96804e-09 0)
(0.000999995 1.2146e-08 0)
(0.000999991 2.03532e-08 0)
(0.000999987 2.80953e-08 0)
(0.000999982 3.53611e-08 0)
(0.000999976 4.18475e-08 0)
(0.000999969 4.80482e-08 0)
(0.000999959 5.32772e-08 0)
(0.000999948 5.84747e-08 0)
(0.000999933 6.23625e-08 0)
(0.000999918 6.69793e-08 0)
(0.000999896 6.85755e-08 0)
(0.000999877 7.27058e-08 0)
(0.000999844 7.00091e-08 0)
(0.000999819 7.42527e-08 0)
(0.000999767 6.2065e-08 0)
(0.000999738 6.75097e-08 0)
(0.000999654 3.21032e-08 0)
(0.00099963 3.99698e-08 0)
(0.000999495 -5.47181e-08 0)
(0.001 -8.6502e-09 0)
(0.001 -2.3456e-08 0)
(0.001 -3.55323e-08 0)
(0.000999997 -4.6299e-08 0)
(0.000999993 -5.66635e-08 0)
(0.000999986 -6.74047e-08 0)
(0.000999979 -7.81753e-08 0)
(0.000999968 -8.95178e-08 0)
(0.000999958 -1.00507e-07 0)
(0.000999941 -1.12416e-07 0)
(0.000999927 -1.22988e-07 0)
(0.000999902 -1.36271e-07 0)
(0.000999885 -1.46342e-07 0)
(0.000999845 -1.62892e-07 0)
(0.000999826 -1.71604e-07 0)
(0.00099976 -1.95731e-07 0)
(0.000999742 -2.00569e-07 0)
(0.000999623 -2.43032e-07 0)
(0.000999618 -2.39693e-07 0)
(0.000999393 -3.32588e-07 0)
)
;

boundaryField
{
    sides
    {
        type            slip;
    }
    inlet
    {
        type            fixedValue;
        value           uniform (0.001 0 0);
    }
    outlet
    {
        type            zeroGradient;
    }
    frontAndBack
    {
        type            empty;
    }
}


// ************************************************************************* //
