/*--------------------------------*- C++ -*----------------------------------*\
  =========                 |
  \\      /  F ield         | OpenFOAM: The Open Source CFD Toolbox
   \\    /   O peration     | Website:  https://openfoam.org
    \\  /    A nd           | Version:  7
     \\/     M anipulation  |
\*---------------------------------------------------------------------------*/
FoamFile
{
    version     2.0;
    format      ascii;
    class       volVectorField;
    location    "52";
    object      hU_0;
}
// * * * * * * * * * * * * * * * * * * * * * * * * * * * * * * * * * * * * * //

dimensions      [0 2 -1 0 0 0 0];

internalField   nonuniform List<vector> 
400
(
(0.001 -8.62826e-09 0)
(0.000999999 -2.34564e-08 0)
(0.001 -3.56076e-08 0)
(0.001 -4.634e-08 0)
(0.00100001 -5.66421e-08 0)
(0.00100001 -6.74201e-08 0)
(0.00100002 -7.8332e-08 0)
(0.00100003 -8.95657e-08 0)
(0.00100004 -1.0042e-07 0)
(0.00100006 -1.124e-07 0)
(0.00100007 -1.22965e-07 0)
(0.0010001 -1.36198e-07 0)
(0.00100012 -1.46234e-07 0)
(0.00100015 -1.62804e-07 0)
(0.00100017 -1.71545e-07 0)
(0.00100024 -1.95714e-07 0)
(0.00100026 -2.00566e-07 0)
(0.00100038 -2.43026e-07 0)
(0.00100038 -2.39687e-07 0)
(0.00100061 -3.3247e-07 0)
(0.001 4.01629e-09 0)
(0.001 1.21761e-08 0)
(0.00100001 2.03099e-08 0)
(0.00100001 2.81266e-08 0)
(0.00100002 3.54291e-08 0)
(0.00100002 4.19276e-08 0)
(0.00100003 4.79489e-08 0)
(0.00100004 5.33151e-08 0)
(0.00100005 5.85648e-08 0)
(0.00100007 6.23098e-08 0)
(0.00100008 6.69067e-08 0)
(0.0010001 6.85468e-08 0)
(0.00100012 7.27256e-08 0)
(0.00100016 7.00137e-08 0)
(0.00100018 7.42481e-08 0)
(0.00100023 6.20217e-08 0)
(0.00100026 6.7473e-08 0)
(0.00100035 3.20118e-08 0)
(0.00100037 3.98721e-08 0)
(0.00100051 -5.48726e-08 0)
(0.001 -3.79029e-09 0)
(0.000999999 -1.24742e-08 0)
(0.001 -2.23035e-08 0)
(0.001 -3.28806e-08 0)
(0.001 -4.36035e-08 0)
(0.00100001 -5.47123e-08 0)
(0.00100002 -6.57359e-08 0)
(0.00100003 -7.77672e-08 0)
(0.00100004 -8.94506e-08 0)
(0.00100005 -1.031e-07 0)
(0.00100007 -1.15617e-07 0)
(0.00100009 -1.3243e-07 0)
(0.00100011 -1.46078e-07 0)
(0.00100014 -1.69164e-07 0)
(0.00100016 -1.84044e-07 0)
(0.00100021 -2.19945e-07 0)
(0.00100023 -2.35019e-07 0)
(0.00100031 -2.97297e-07 0)
(0.00100033 -3.06926e-07 0)
(0.00100046 -4.23374e-07 0)
(0.001 1.08182e-10 0)
(0.001 8.22034e-10 0)
(0.00100001 1.84149e-09 0)
(0.00100001 2.59683e-09 0)
(0.00100001 3.08005e-09 0)
(0.00100002 2.57576e-09 0)
(0.00100003 1.697e-09 0)
(0.00100003 -6.70637e-10 0)
(0.00100004 -2.97482e-09 0)
(0.00100006 -7.67449e-09 0)
(0.00100007 -1.15982e-08 0)
(0.00100009 -2.04689e-08 0)
(0.00100011 -2.66235e-08 0)
(0.00100013 -4.31714e-08 0)
(0.00100016 -5.21445e-08 0)
(0.00100019 -8.34015e-08 0)
(0.00100022 -9.45456e-08 0)
(0.00100028 -1.54186e-07 0)
(0.0010003 -1.61755e-07 0)
(0.00100039 -2.77393e-07 0)
(0.001 -2.67549e-09 0)
(0.001 -8.54009e-09 0)
(0.001 -1.52931e-08 0)
(0.001 -2.32154e-08 0)
(0.00100001 -3.1991e-08 0)
(0.00100001 -4.20347e-08 0)
(0.00100002 -5.25895e-08 0)
(0.00100002 -6.47208e-08 0)
(0.00100003 -7.68823e-08 0)
(0.00100004 -9.17167e-08 0)
(0.00100005 -1.05902e-07 0)
(0.00100007 -1.25322e-07 0)
(0.00100009 -1.42128e-07 0)
(0.00100011 -1.69752e-07 0)
(0.00100013 -1.8972e-07 0)
(0.00100016 -2.3259e-07 0)
(0.00100018 -2.54696e-07 0)
(0.00100024 -3.25947e-07 0)
(0.00100025 -3.42284e-07 0)
(0.00100033 -4.66028e-07 0)
(0.001 -2.16216e-09 0)
(0.001 -6.41739e-09 0)
(0.001 -1.06418e-08 0)
(0.001 -1.52782e-08 0)
(0.00100001 -2.03704e-08 0)
(0.00100001 -2.65391e-08 0)
(0.00100002 -3.32394e-08 0)
(0.00100002 -4.15025e-08 0)
(0.00100003 -4.98974e-08 0)
(0.00100004 -6.11352e-08 0)
(0.00100005 -7.18866e-08 0)
(0.00100007 -8.82215e-08 0)
(0.00100008 -1.0232e-07 0)
(0.0010001 -1.27741e-07 0)
(0.00100011 -1.46167e-07 0)
(0.00100014 -1.87888e-07 0)
(0.00100016 -2.09634e-07 0)
(0.0010002 -2.79881e-07 0)
(0.00100021 -2.95877e-07 0)
(0.00100027 -4.17339e-07 0)
(0.001 -2.513e-09 0)
(0.001 -7.80385e-09 0)
(0.001 -1.36183e-08 0)
(0.001 -2.0442e-08 0)
(0.00100001 -2.83218e-08 0)
(0.00100001 -3.77976e-08 0)
(0.00100001 -4.82402e-08 0)
(0.00100002 -6.05986e-08 0)
(0.00100002 -7.34142e-08 0)
(0.00100003 -8.93206e-08 0)
(0.00100004 -1.04923e-07 0)
(0.00100005 -1.26326e-07 0)
(0.00100006 -1.45537e-07 0)
(0.00100007 -1.76252e-07 0)
(0.00100009 -1.99769e-07 0)
(0.00100011 -2.46813e-07 0)
(0.00100012 -2.73202e-07 0)
(0.00100015 -3.48698e-07 0)
(0.00100016 -3.68273e-07 0)
(0.00100021 -4.94452e-07 0)
(0.001 -2.79282e-09 0)
(0.001 -8.6031e-09 0)
(0.001 -1.48437e-08 0)
(0.001 -2.20144e-08 0)
(0.001 -3.01175e-08 0)
(0.00100001 -3.9683e-08 0)
(0.00100001 -4.99911e-08 0)
(0.00100001 -6.20493e-08 0)
(0.00100002 -7.44166e-08 0)
(0.00100002 -8.97931e-08 0)
(0.00100003 -1.04888e-07 0)
(0.00100004 -1.25836e-07 0)
(0.00100004 -1.44778e-07 0)
(0.00100006 -1.75374e-07 0)
(0.00100006 -1.99164e-07 0)
(0.00100008 -2.46442e-07 0)
(0.00100009 -2.73583e-07 0)
(0.00100011 -3.48977e-07 0)
(0.00100012 -3.69033e-07 0)
(0.00100015 -4.93489e-07 0)
(0.001 -2.9517e-09 0)
(0.001 -9.06662e-09 0)
(0.001 -1.55683e-08 0)
(0.001 -2.30207e-08 0)
(0.001 -3.14246e-08 0)
(0.001 -4.13711e-08 0)
(0.00100001 -5.21821e-08 0)
(0.00100001 -6.49659e-08 0)
(0.00100001 -7.82619e-08 0)
(0.00100001 -9.48287e-08 0)
(0.00100002 -1.11295e-07 0)
(0.00100002 -1.33803e-07 0)
(0.00100003 -1.54362e-07 0)
(0.00100003 -1.86742e-07 0)
(0.00100004 -2.12194e-07 0)
(0.00100005 -2.61346e-07 0)
(0.00100005 -2.89982e-07 0)
(0.00100007 -3.67343e-07 0)
(0.00100007 -3.88432e-07 0)
(0.00100009 -5.15143e-07 0)
(0.001 -3.02479e-09 0)
(0.001 -9.28934e-09 0)
(0.001 -1.59285e-08 0)
(0.001 -2.35217e-08 0)
(0.001 -3.21288e-08 0)
(0.001 -4.23673e-08 0)
(0.001 -5.35757e-08 0)
(0.001 -6.67947e-08 0)
(0.001 -8.05094e-08 0)
(0.001 -9.74404e-08 0)
(0.00100001 -1.14233e-07 0)
(0.00100001 -1.37039e-07 0)
(0.00100001 -1.5794e-07 0)
(0.00100001 -1.9065e-07 0)
(0.00100001 -2.16536e-07 0)
(0.00100002 -2.66023e-07 0)
(0.00100002 -2.95163e-07 0)
(0.00100002 -3.72643e-07 0)
(0.00100002 -3.9413e-07 0)
(0.00100003 -5.20239e-07 0)
(0.001 -3.02571e-09 0)
(0.001 -9.28865e-09 0)
(0.001 -1.5935e-08 0)
(0.000999999 -2.35232e-08 0)
(0.000999999 -3.21289e-08 0)
(0.000999999 -4.23603e-08 0)
(0.000999998 -5.35699e-08 0)
(0.000999997 -6.67822e-08 0)
(0.000999996 -8.0506e-08 0)
(0.000999995 -9.7438e-08 0)
(0.000999994 -1.14229e-07 0)
(0.000999993 -1.37044e-07 0)
(0.000999991 -1.57941e-07 0)
(0.000999989 -1.90638e-07 0)
(0.000999987 -2.16523e-07 0)
(0.000999984 -2.66015e-07 0)
(0.000999982 -2.95161e-07 0)
(0.000999978 -3.72648e-07 0)
(0.000999977 -3.94139e-07 0)
(0.00099997 -5.20241e-07 0)
(0.001 -2.95406e-09 0)
(0.001 -9.06827e-09 0)
(0.000999999 -1.55817e-08 0)
(0.000999999 -2.3018e-08 0)
(0.000999997 -3.14246e-08 0)
(0.000999996 -4.13532e-08 0)
(0.000999994 -5.21701e-08 0)
(0.000999992 -6.49407e-08 0)
(0.000999989 -7.82501e-08 0)
(0.000999986 -9.48247e-08 0)
(0.000999982 -1.11284e-07 0)
(0.000999978 -1.33803e-07 0)
(0.000999973 -1.54363e-07 0)
(0.000999967 -1.86721e-07 0)
(0.000999961 -2.12167e-07 0)
(0.000999952 -2.61315e-07 0)
(0.000999946 -2.89964e-07 0)
(0.000999933 -3.67327e-07 0)
(0.00099993 -3.88431e-07 0)
(0.000999911 -5.15099e-07 0)
(0.001 -2.79893e-09 0)
(0.000999999 -8.60919e-09 0)
(0.000999999 -1.48438e-08 0)
(0.000999998 -2.20058e-08 0)
(0.000999996 -3.01148e-08 0)
(0.000999994 -3.96721e-08 0)
(0.000999991 -4.99837e-08 0)
(0.000999987 -6.20447e-08 0)
(0.000999983 -7.44063e-08 0)
(0.000999977 -8.97957e-08 0)
(0.000999971 -1.04887e-07 0)
(0.000999963 -1.25832e-07 0)
(0.000999955 -1.44785e-07 0)
(0.000999945 -1.75382e-07 0)
(0.000999935 -1.9917e-07 0)
(0.000999921 -2.46435e-07 0)
(0.000999911 -2.73583e-07 0)
(0.00099989 -3.48985e-07 0)
(0.000999882 -3.69056e-07 0)
(0.000999852 -4.93486e-07 0)
(0.001 -2.52588e-09 0)
(0.000999999 -7.80566e-09 0)
(0.000999998 -1.36007e-08 0)
(0.000999997 -2.0438e-08 0)
(0.000999994 -2.83117e-08 0)
(0.000999991 -3.78109e-08 0)
(0.000999987 -4.8238e-08 0)
(0.000999982 -6.06221e-08 0)
(0.000999977 -7.34208e-08 0)
(0.000999969 -8.93153e-08 0)
(0.000999961 -1.04918e-07 0)
(0.000999951 -1.26302e-07 0)
(0.00099994 -1.45517e-07 0)
(0.000999925 -1.76235e-07 0)
(0.000999912 -1.99757e-07 0)
(0.000999891 -2.46767e-07 0)
(0.000999878 -2.73151e-07 0)
(0.000999846 -3.48607e-07 0)
(0.000999839 -3.68196e-07 0)
(0.000999792 -4.9431e-07 0)
(0.001 -2.17748e-09 0)
(0.000999999 -6.41372e-09 0)
(0.000999997 -1.0633e-08 0)
(0.000999995 -1.52887e-08 0)
(0.000999992 -2.03765e-08 0)
(0.000999987 -2.65753e-08 0)
(0.000999982 -3.32517e-08 0)
(0.000999976 -4.15339e-08 0)
(0.000999968 -4.99472e-08 0)
(0.000999958 -6.11617e-08 0)
(0.000999948 -7.19061e-08 0)
(0.000999934 -8.82266e-08 0)
(0.000999921 -1.02323e-07 0)
(0.000999902 -1.27751e-07 0)
(0.000999886 -1.46191e-07 0)
(0.000999859 -1.87901e-07 0)
(0.000999841 -2.09641e-07 0)
(0.000999802 -2.79863e-07 0)
(0.000999788 -2.95868e-07 0)
(0.000999731 -4.17316e-07 0)
(0.001 -2.66743e-09 0)
(0.001 -8.53225e-09 0)
(0.000999999 -1.53042e-08 0)
(0.000999997 -2.32189e-08 0)
(0.000999994 -3.19999e-08 0)
(0.00099999 -4.20178e-08 0)
(0.000999984 -5.25863e-08 0)
(0.000999977 -6.46704e-08 0)
(0.000999969 -7.68874e-08 0)
(0.000999958 -9.17304e-08 0)
(0.000999946 -1.05909e-07 0)
(0.000999929 -1.25309e-07 0)
(0.000999914 -1.42108e-07 0)
(0.00099989 -1.69718e-07 0)
(0.000999872 -1.89705e-07 0)
(0.000999836 -2.3255e-07 0)
(0.000999817 -2.54665e-07 0)
(0.000999764 -3.25849e-07 0)
(0.000999752 -3.42203e-07 0)
(0.00099967 -4.65859e-07 0)
(0.001 1.38072e-10 0)
(0.000999998 8.35618e-10 0)
(0.000999995 1.8055e-09 0)
(0.000999991 2.58323e-09 0)
(0.000999986 3.06866e-09 0)
(0.00099998 2.61599e-09 0)
(0.000999974 1.67263e-09 0)
(0.000999965 -5.91012e-10 0)
(0.000999955 -2.91714e-09 0)
(0.000999942 -7.67847e-09 0)
(0.000999929 -1.16215e-08 0)
(0.000999911 -2.04846e-08 0)
(0.000999893 -2.66293e-08 0)
(0.000999867 -4.3161e-08 0)
(0.000999844 -5.21423e-08 0)
(0.000999805 -8.33915e-08 0)
(0.000999779 -9.45488e-08 0)
(0.00099972 -1.54155e-07 0)
(0.000999699 -1.6173e-07 0)
(0.000999611 -2.7733e-07 0)
(0.001 -3.77783e-09 0)
(0.001 -1.24753e-08 0)
(0.001 -2.2308e-08 0)
(0.000999999 -3.28818e-08 0)
(0.000999995 -4.35737e-08 0)
(0.000999989 -5.46692e-08 0)
(0.000999983 -6.57831e-08 0)
(0.000999974 -7.77721e-08 0)
(0.000999963 -8.93885e-08 0)
(0.000999949 -1.03069e-07 0)
(0.000999935 -1.15616e-07 0)
(0.000999914 -1.3244e-07 0)
(0.000999895 -1.46101e-07 0)
(0.000999863 -1.69161e-07 0)
(0.00099984 -1.84052e-07 0)
(0.000999791 -2.1993e-07 0)
(0.000999767 -2.35045e-07 0)
(0.000999688 -2.97274e-07 0)
(0.000999672 -3.06936e-07 0)
(0.000999539 -4.23297e-07 0)
(0.001 4.00278e-09 0)
(0.000999996 1.21401e-08 0)
(0.000999991 2.03565e-08 0)
(0.000999987 2.81513e-08 0)
(0.000999982 3.54114e-08 0)
(0.000999976 4.18404e-08 0)
(0.000999969 4.80254e-08 0)
(0.000999959 5.31628e-08 0)
(0.000999948 5.84963e-08 0)
(0.000999933 6.23752e-08 0)
(0.000999918 6.69675e-08 0)
(0.000999896 6.857e-08 0)
(0.000999877 7.2722e-08 0)
(0.000999844 7.00366e-08 0)
(0.000999819 7.42756e-08 0)
(0.000999767 6.20714e-08 0)
(0.000999738 6.74925e-08 0)
(0.000999654 3.20742e-08 0)
(0.00099963 3.99168e-08 0)
(0.000999495 -5.47483e-08 0)
(0.001 -8.63797e-09 0)
(0.001 -2.348e-08 0)
(0.001 -3.55793e-08 0)
(0.000999998 -4.63305e-08 0)
(0.000999993 -5.67037e-08 0)
(0.000999986 -6.75487e-08 0)
(0.000999979 -7.82505e-08 0)
(0.000999968 -8.97009e-08 0)
(0.000999958 -1.00534e-07 0)
(0.000999941 -1.12395e-07 0)
(0.000999927 -1.22961e-07 0)
(0.000999902 -1.36226e-07 0)
(0.000999885 -1.46283e-07 0)
(0.000999845 -1.62848e-07 0)
(0.000999826 -1.71591e-07 0)
(0.00099976 -1.95763e-07 0)
(0.000999742 -2.00631e-07 0)
(0.000999623 -2.43102e-07 0)
(0.000999618 -2.3977e-07 0)
(0.000999393 -3.32599e-07 0)
)
;

boundaryField
{
    sides
    {
        type            slip;
    }
    inlet
    {
        type            fixedValue;
        value           uniform (0.001 0 0);
    }
    outlet
    {
        type            zeroGradient;
    }
    frontAndBack
    {
        type            empty;
    }
}


// ************************************************************************* //
