/*--------------------------------*- C++ -*----------------------------------*\
  =========                 |
  \\      /  F ield         | OpenFOAM: The Open Source CFD Toolbox
   \\    /   O peration     | Website:  https://openfoam.org
    \\  /    A nd           | Version:  7
     \\/     M anipulation  |
\*---------------------------------------------------------------------------*/
FoamFile
{
    version     2.0;
    format      ascii;
    class       surfaceScalarField;
    location    "52";
    object      phi;
}
// * * * * * * * * * * * * * * * * * * * * * * * * * * * * * * * * * * * * * //

dimensions      [0 4 -1 0 0 0 0];

internalField   nonuniform List<scalar> 
760
(
4.99999e-06
1.05587e-11
4.99999e-06
-3.33062e-12
5.00001e-06
-1.14168e-11
5.00003e-06
-1.77336e-11
5.00005e-06
-2.52346e-11
5.00009e-06
-3.64622e-11
5.00013e-06
-4.72502e-11
5.00018e-06
-4.77028e-11
5.00025e-06
-6.29107e-11
5.00033e-06
-7.86711e-11
5.00042e-06
-9.06515e-11
5.00053e-06
-1.14194e-10
5.00066e-06
-1.26392e-10
5.00083e-06
-1.6652e-10
5.001e-06
-1.76324e-10
5.00126e-06
-2.54793e-10
5.00151e-06
-2.5485e-10
5.00194e-06
-4.30931e-10
5.00236e-06
-4.14925e-10
-8.93662e-10
5.00002e-06
-1.15114e-11
5.00004e-06
-1.66086e-11
5.00005e-06
-2.62203e-11
5.00007e-06
-3.8413e-11
5.0001e-06
-5.13318e-11
5.00014e-06
-6.69886e-11
5.00018e-06
-8.4167e-11
5.00023e-06
-1.05526e-10
5.00029e-06
-1.25027e-10
5.00037e-06
-1.54942e-10
5.00046e-06
-1.78404e-10
5.00057e-06
-2.22438e-10
5.00069e-06
-2.49223e-10
5.00085e-06
-3.21477e-10
5.00102e-06
-3.50324e-10
5.00125e-06
-4.8184e-10
5.0015e-06
-5.06363e-10
5.00183e-06
-7.66187e-10
5.00218e-06
-7.6131e-10
-1.26571e-09
4.99999e-06
-3.33963e-12
4.99999e-06
-1.74912e-11
5e-06
-3.3297e-11
5.00002e-06
-5.18425e-11
5.00004e-06
-7.21954e-11
5.00007e-06
-9.61681e-11
5.00011e-06
-1.21884e-10
5.00016e-06
-1.53169e-10
5.00022e-06
-1.84587e-10
5.00029e-06
-2.26448e-10
5.00037e-06
-2.64212e-10
5.00048e-06
-3.23629e-10
5.0006e-06
-3.70033e-10
5.00074e-06
-4.6321e-10
5.00091e-06
-5.20066e-10
5.00111e-06
-6.80069e-10
5.00135e-06
-7.4359e-10
5.00162e-06
-1.03853e-09
5.00194e-06
-1.08569e-09
-1.69587e-09
5.00001e-06
-1.16196e-11
5.00002e-06
-2.93451e-11
5.00004e-06
-4.8399e-11
5.00006e-06
-7.09655e-11
5.00008e-06
-9.605e-11
5.00011e-06
-1.26626e-10
5.00015e-06
-1.59106e-10
5.0002e-06
-1.99288e-10
5.00025e-06
-2.39347e-10
5.00032e-06
-2.92269e-10
5.0004e-06
-3.40754e-10
5.00049e-06
-4.15617e-10
5.0006e-06
-4.75755e-10
5.00072e-06
-5.9073e-10
5.00087e-06
-6.65295e-10
5.00105e-06
-8.56259e-10
5.00124e-06
-9.41077e-10
5.00148e-06
-1.27649e-09
5.00173e-06
-1.33439e-09
-1.90575e-09
5e-06
-1.01062e-11
5e-06
-3.18464e-11
5.00001e-06
-5.52879e-11
5.00002e-06
-8.25387e-11
5.00004e-06
-1.13117e-10
5.00006e-06
-1.49945e-10
5.0001e-06
-1.89636e-10
5.00013e-06
-2.37642e-10
5.00018e-06
-2.86456e-10
5.00024e-06
-3.48842e-10
5.00031e-06
-4.09017e-10
5.00039e-06
-4.95733e-10
5.00049e-06
-5.71104e-10
5.0006e-06
-7.00682e-10
5.00073e-06
-7.94826e-10
5.00087e-06
-1.00225e-09
5.00104e-06
-1.10968e-09
5.00122e-06
-1.45744e-09
5.00142e-06
-1.53633e-09
-2.17218e-09
5e-06
-1.2189e-11
5.00001e-06
-3.78868e-11
5.00002e-06
-6.50022e-11
5.00003e-06
-9.59377e-11
5.00005e-06
-1.30697e-10
5.00008e-06
-1.72449e-10
5.0001e-06
-2.17954e-10
5.00014e-06
-2.72421e-10
5.00018e-06
-3.28051e-10
5.00023e-06
-3.98681e-10
5.00029e-06
-4.67022e-10
5.00036e-06
-5.6391e-10
5.00044e-06
-6.49189e-10
5.00053e-06
-7.91824e-10
5.00063e-06
-8.97934e-10
5.00075e-06
-1.12186e-09
5.00089e-06
-1.24292e-09
5.00104e-06
-1.6111e-09
5.00121e-06
-1.70181e-09
-2.30467e-09
5e-06
-1.37129e-11
5.00001e-06
-4.1877e-11
5.00001e-06
-7.16754e-11
5.00002e-06
-1.05301e-10
5.00004e-06
-1.43352e-10
5.00005e-06
-1.88943e-10
5.00008e-06
-2.38978e-10
5.0001e-06
-2.98344e-10
5.00013e-06
-3.59848e-10
5.00017e-06
-4.36818e-10
5.00022e-06
-5.12465e-10
5.00027e-06
-6.17178e-10
5.00034e-06
-7.11624e-10
5.00041e-06
-8.63488e-10
5.00049e-06
-9.80495e-10
5.00058e-06
-1.21436e-09
5.00069e-06
-1.34666e-09
5.0008e-06
-1.7211e-09
5.00091e-06
-1.81641e-09
-2.4538e-09
5e-06
-1.4641e-11
5e-06
-4.46429e-11
5.00001e-06
-7.62099e-11
5.00002e-06
-1.12079e-10
5.00003e-06
-1.52735e-10
5.00004e-06
-2.01454e-10
5.00006e-06
-2.54968e-10
5.00008e-06
-3.18312e-10
5.0001e-06
-3.8408e-10
5.00013e-06
-4.65631e-10
5.00016e-06
-5.46186e-10
5.0002e-06
-6.56419e-10
5.00025e-06
-7.56515e-10
5.0003e-06
-9.1492e-10
5.00036e-06
-1.03855e-09
5.00042e-06
-1.27983e-09
5.0005e-06
-1.41892e-09
5.00058e-06
-1.80136e-09
5.00067e-06
-1.90516e-09
-2.52892e-09
5e-06
-1.51713e-11
5e-06
-4.63377e-11
5.00001e-06
-7.89963e-11
5.00001e-06
-1.16321e-10
5.00002e-06
-1.58653e-10
5.00002e-06
-2.0925e-10
5.00003e-06
-2.64728e-10
5.00005e-06
-3.30319e-10
5.00006e-06
-3.98465e-10
5.00008e-06
-4.82658e-10
5.0001e-06
-5.6616e-10
5.00012e-06
-6.79627e-10
5.00015e-06
-7.83303e-10
5.00018e-06
-9.45718e-10
5.00022e-06
-1.07363e-09
5.00026e-06
-1.31923e-09
5.0003e-06
-1.46251e-09
5.00035e-06
-1.84838e-09
5.00039e-06
-1.95251e-09
-2.58514e-09
5e-06
-1.53705e-11
5e-06
-4.69142e-11
5e-06
-8.00199e-11
5e-06
-1.17795e-10
5.00001e-06
-1.60675e-10
5.00001e-06
-2.11792e-10
5.00001e-06
-2.67873e-10
5.00002e-06
-3.34133e-10
5.00002e-06
-4.03105e-10
5.00003e-06
-4.8832e-10
5.00003e-06
-5.7294e-10
5.00004e-06
-6.87594e-10
5.00005e-06
-7.92499e-10
5.00006e-06
-9.56036e-10
5.00007e-06
-1.08517e-09
5.00009e-06
-1.33192e-09
5.0001e-06
-1.4766e-09
5.00011e-06
-1.86334e-09
5.00013e-06
-1.96981e-09
-2.60169e-09
5e-06
-1.5231e-11
5e-06
-4.63557e-11
5e-06
-7.90788e-11
5e-06
-1.16306e-10
4.99999e-06
-1.58651e-10
4.99999e-06
-2.09164e-10
4.99999e-06
-2.6467e-10
4.99998e-06
-3.30217e-10
4.99998e-06
-3.98356e-10
4.99997e-06
-4.82628e-10
4.99997e-06
-5.66106e-10
4.99996e-06
-6.79611e-10
4.99995e-06
-7.83367e-10
4.99994e-06
-9.45713e-10
4.99993e-06
-1.07353e-09
4.99991e-06
-1.31909e-09
4.9999e-06
-1.46241e-09
4.99989e-06
-1.84833e-09
4.99987e-06
-1.95256e-09
-2.58506e-09
5e-06
-1.47096e-11
5e-06
-4.47175e-11
4.99999e-06
-7.62342e-11
4.99999e-06
-1.12041e-10
4.99998e-06
-1.52694e-10
4.99998e-06
-2.01387e-10
4.99997e-06
-2.54896e-10
4.99995e-06
-3.18263e-10
4.99994e-06
-3.83955e-10
4.99992e-06
-4.65576e-10
4.9999e-06
-5.46143e-10
4.99988e-06
-6.56345e-10
4.99985e-06
-7.56499e-10
4.99982e-06
-9.14904e-10
4.99978e-06
-1.0385e-09
4.99974e-06
-1.27968e-09
4.9997e-06
-1.41878e-09
4.99965e-06
-1.80124e-09
4.99961e-06
-1.90515e-09
-2.52878e-09
5e-06
-1.37832e-11
5e-06
-4.18935e-11
4.99999e-06
-7.15841e-11
4.99998e-06
-1.05318e-10
4.99997e-06
-1.43297e-10
4.99996e-06
-1.89036e-10
4.99994e-06
-2.38977e-10
4.99992e-06
-2.98454e-10
4.9999e-06
-3.59917e-10
4.99987e-06
-4.36794e-10
4.99984e-06
-5.12485e-10
4.9998e-06
-6.17141e-10
4.99975e-06
-7.11551e-10
4.9997e-06
-8.63441e-10
4.99964e-06
-9.80524e-10
4.99958e-06
-1.2143e-09
4.9995e-06
-1.34657e-09
4.99942e-06
-1.72092e-09
4.99933e-06
-1.8163e-09
-2.45346e-09
5e-06
-1.22011e-11
4.99999e-06
-3.78166e-11
4.99999e-06
-6.49727e-11
4.99998e-06
-9.59591e-11
4.99996e-06
-1.30736e-10
4.99995e-06
-1.72585e-10
4.99992e-06
-2.18026e-10
4.9999e-06
-2.72488e-10
4.99987e-06
-3.28302e-10
4.99983e-06
-3.98798e-10
4.99978e-06
-4.67071e-10
4.99973e-06
-5.63903e-10
4.99966e-06
-6.49136e-10
4.99959e-06
-7.91752e-10
4.99951e-06
-8.97951e-10
4.99942e-06
-1.12182e-09
4.99931e-06
-1.24286e-09
4.9992e-06
-1.61084e-09
4.99909e-06
-1.70155e-09
-2.30422e-09
5e-06
-1.00289e-11
4.99999e-06
-3.17976e-11
4.99998e-06
-5.53616e-11
4.99997e-06
-8.2568e-11
4.99995e-06
-1.13245e-10
4.99992e-06
-1.49811e-10
4.9999e-06
-1.8967e-10
4.99986e-06
-2.3741e-10
4.99982e-06
-2.86463e-10
4.99977e-06
-3.49e-10
4.99971e-06
-4.09137e-10
4.99964e-06
-4.95774e-10
4.99956e-06
-5.71106e-10
4.99947e-06
-7.00604e-10
4.99937e-06
-7.94809e-10
4.99925e-06
-1.00219e-09
4.99911e-06
-1.10965e-09
4.99896e-06
-1.45716e-09
4.99879e-06
-1.53608e-09
-2.17167e-09
5e-06
-1.14486e-11
5e-06
-2.93595e-11
4.99999e-06
-4.85258e-11
4.99998e-06
-7.09785e-11
4.99996e-06
-9.60202e-11
4.99994e-06
-1.26335e-10
4.9999e-06
-1.5917e-10
4.99987e-06
-1.99059e-10
4.99982e-06
-2.3893e-10
4.99976e-06
-2.92129e-10
4.99969e-06
-3.40775e-10
4.99961e-06
-4.15642e-10
4.99951e-06
-4.75776e-10
4.9994e-06
-5.90631e-10
4.99927e-06
-6.65213e-10
4.99913e-06
-8.56106e-10
4.99896e-06
-9.41024e-10
4.99878e-06
-1.2762e-09
4.99858e-06
-1.33416e-09
-1.9052e-09
4.99999e-06
-3.23644e-12
4.99998e-06
-1.75474e-11
4.99996e-06
-3.33108e-11
4.99994e-06
-5.18083e-11
4.99992e-06
-7.20797e-11
4.99989e-06
-9.63256e-11
4.99985e-06
-1.21972e-10
4.9998e-06
-1.5375e-10
4.99975e-06
-1.84405e-10
4.99968e-06
-2.26148e-10
4.9996e-06
-2.64113e-10
4.99951e-06
-3.23638e-10
4.9994e-06
-3.70111e-10
4.99928e-06
-4.63195e-10
4.99913e-06
-5.20052e-10
4.99895e-06
-6.79947e-10
4.99876e-06
-7.43607e-10
4.99852e-06
-1.03837e-09
4.99827e-06
-1.08565e-09
-1.6955e-09
5.00001e-06
-1.16646e-11
5.00001e-06
-1.66028e-11
5e-06
-2.59526e-11
4.99998e-06
-3.83259e-11
4.99996e-06
-5.1346e-11
4.99993e-06
-6.79221e-11
4.99989e-06
-8.34989e-11
4.99984e-06
-1.05837e-10
4.99978e-06
-1.25428e-10
4.99971e-06
-1.54842e-10
4.99962e-06
-1.78247e-10
4.99952e-06
-2.22327e-10
4.9994e-06
-2.49247e-10
4.99926e-06
-3.21448e-10
4.99909e-06
-3.50332e-10
4.99889e-06
-4.81678e-10
4.99865e-06
-5.06371e-10
4.99838e-06
-7.65986e-10
4.99806e-06
-7.61273e-10
-1.26526e-09
4.99998e-06
1.03071e-11
4.99996e-06
-3.25433e-12
4.99995e-06
-1.11695e-11
4.99993e-06
-1.79543e-11
4.9999e-06
-2.54771e-11
4.99986e-06
-3.22636e-11
4.99982e-06
-3.44059e-11
4.99977e-06
-4.50212e-11
4.99971e-06
-6.31426e-11
4.99963e-06
-7.89538e-11
4.99954e-06
-9.06809e-11
4.99943e-06
-1.14154e-10
4.99931e-06
-1.26454e-10
4.99915e-06
-1.66604e-10
4.99898e-06
-1.7642e-10
4.99875e-06
-2.54805e-10
4.9985e-06
-2.54941e-10
4.99817e-06
-4.30971e-10
4.99782e-06
-4.15046e-10
-8.93686e-10
5.00001e-06
5.00001e-06
4.99999e-06
4.99997e-06
4.99995e-06
4.99991e-06
4.99987e-06
4.99982e-06
4.99975e-06
4.99967e-06
4.99958e-06
4.99947e-06
4.99934e-06
4.99917e-06
4.999e-06
4.99874e-06
4.99849e-06
4.99805e-06
4.99764e-06
)
;

boundaryField
{
    sides
    {
        type            calculated;
        value           uniform 0;
    }
    inlet
    {
        type            calculated;
        value           nonuniform List<scalar> 
20
(
-5e-06
-5e-06
-5e-06
-5e-06
-5e-06
-5e-06
-5e-06
-5e-06
-5e-06
-5e-06
-5e-06
-5e-06
-5e-06
-5e-06
-5e-06
-5e-06
-5e-06
-5e-06
-5e-06
-5e-06
)
;
    }
    outlet
    {
        type            calculated;
        value           nonuniform List<scalar> 
20
(
5.00325e-06
5.00255e-06
5.00237e-06
5.00194e-06
5.00169e-06
5.00134e-06
5.00106e-06
5.00074e-06
5.00045e-06
5.00015e-06
4.99985e-06
4.99955e-06
4.99926e-06
4.99894e-06
4.99866e-06
4.99831e-06
4.99806e-06
4.99763e-06
4.99745e-06
4.99675e-06
)
;
    }
    frontAndBack
    {
        type            empty;
        value           nonuniform 0();
    }
}


// ************************************************************************* //
