/*--------------------------------*- C++ -*----------------------------------*\
  =========                 |
  \\      /  F ield         | OpenFOAM: The Open Source CFD Toolbox
   \\    /   O peration     | Website:  https://openfoam.org
    \\  /    A nd           | Version:  7
     \\/     M anipulation  |
\*---------------------------------------------------------------------------*/
FoamFile
{
    version     2.0;
    format      ascii;
    class       volScalarField;
    location    "62";
    object      ddt0(h);
}
// * * * * * * * * * * * * * * * * * * * * * * * * * * * * * * * * * * * * * //

dimensions      [0 1 -1 0 0 0 0];

internalField   nonuniform List<scalar> 
400
(
3.12845e-09
1.91509e-09
2.39128e-09
2.92686e-09
3.95726e-09
7.27206e-11
-8.70976e-09
-8.77726e-09
1.92587e-09
1.94892e-09
9.04403e-10
2.88906e-10
4.18423e-11
1.30416e-10
2.38626e-10
2.15021e-10
6.44181e-11
-6.06142e-11
-1.21774e-10
-5.78779e-11
2.195e-09
2.59308e-09
2.15187e-09
1.83578e-09
6.92179e-10
2.35263e-09
1.34591e-08
9.42541e-09
1.83944e-09
3.75424e-10
1.81027e-10
2.03017e-10
2.11303e-10
2.65446e-10
1.99259e-10
5.09002e-11
-9.72775e-12
5.96494e-11
6.2796e-11
1.93399e-11
2.20407e-09
3.03572e-09
1.71097e-09
2.09833e-09
-4.32074e-11
5.16707e-09
-2.39797e-09
2.27855e-09
1.69421e-09
-4.62179e-10
4.11167e-10
4.11217e-10
4.60961e-10
4.69925e-10
1.677e-10
-1.1457e-10
-6.39007e-11
1.36394e-10
1.67886e-10
8.09104e-11
1.51257e-09
1.85668e-09
1.7036e-09
1.73797e-09
1.27876e-09
8.49484e-10
1.53394e-09
4.94957e-09
-1.9409e-09
1.12438e-10
9.04678e-10
5.52561e-10
5.76431e-10
4.67641e-10
1.21134e-10
-1.16889e-10
-7.81691e-11
6.47327e-11
8.35975e-11
3.04623e-11
1.23767e-09
1.16531e-09
2.36131e-09
1.32527e-09
3.38897e-09
-8.56967e-10
3.09675e-09
-1.16866e-09
-4.38253e-10
1.87506e-09
8.85173e-10
6.92893e-10
7.21823e-10
3.09877e-10
1.41464e-10
1.23298e-10
-1.51728e-11
-7.92778e-11
3.04754e-12
3.74656e-11
1.29857e-09
8.21199e-10
1.98888e-09
9.41771e-10
2.32073e-09
8.00629e-10
1.83087e-09
-5.61325e-10
2.04319e-09
1.65962e-09
3.38935e-10
9.14843e-10
7.70995e-10
9.17268e-11
2.63656e-10
5.70916e-10
2.34553e-10
-1.29859e-10
6.18367e-12
1.00007e-10
1.34475e-09
9.91326e-10
1.00997e-09
1.42823e-09
3.03853e-10
1.46476e-09
5.41765e-10
8.58068e-10
1.89958e-09
2.2013e-10
4.92254e-10
1.11175e-09
3.99358e-10
-9.6881e-11
3.36739e-10
7.65668e-10
5.0422e-10
1.0188e-10
1.64123e-10
1.6829e-10
8.79792e-10
1.33429e-09
1.16858e-10
1.08613e-09
-1.10626e-10
9.65793e-10
-1.5603e-10
1.18318e-09
5.46435e-10
-2.65576e-11
1.02811e-09
4.34887e-10
-2.9081e-10
6.99534e-11
3.83683e-10
4.00276e-10
4.34916e-10
4.08316e-10
2.93487e-10
1.18515e-10
2.97306e-10
7.75416e-10
2.79365e-10
3.02527e-10
1.57826e-10
3.10197e-10
8.11652e-11
6.69372e-10
7.08289e-12
2.30636e-10
4.28904e-10
-3.12986e-10
-2.07027e-10
4.04736e-10
1.9116e-10
-2.26195e-10
-2.76395e-12
3.09559e-10
1.5973e-10
-1.21305e-11
3.69104e-11
-2.58061e-10
3.31623e-10
9.63424e-12
3.95007e-10
-2.28884e-11
5.3611e-10
1.23466e-10
1.45953e-10
2.7173e-10
-3.39695e-10
-7.60049e-11
3.95068e-10
1.31384e-10
-3.34604e-10
-4.0814e-10
-1.38694e-10
-4.86555e-11
-3.3433e-10
-2.66648e-10
-1.41181e-10
-7.23183e-10
1.24033e-10
-2.95572e-10
2.72709e-10
-2.88603e-10
5.06865e-10
-1.97566e-10
2.50389e-11
2.00477e-10
-5.94439e-10
-6.58242e-12
5.91467e-10
8.39774e-11
-4.02824e-10
-3.3429e-10
-1.36948e-10
-2.61785e-10
-6.06632e-10
-3.84171e-10
-4.07022e-10
-3.71839e-10
-3.41249e-10
-7.07568e-10
-3.20267e-10
-5.53469e-10
-2.61079e-10
-2.51118e-10
-6.35387e-10
-3.21828e-11
-2.65742e-10
-5.95177e-10
2.8301e-11
4.81856e-10
1.05524e-10
-2.68756e-10
-1.72835e-10
-1.42864e-10
-3.37961e-10
-2.2681e-10
-5.95927e-10
-3.00118e-11
-1.2843e-09
-5.04018e-10
-1.16388e-09
-4.09576e-10
-1.34096e-09
-1.18428e-10
-1.10713e-09
-7.78667e-10
2.23019e-10
-6.42572e-10
-7.45483e-10
1.60831e-10
3.46677e-10
1.09801e-10
9.19804e-11
2.22009e-11
-9.0472e-11
-6.24512e-11
-7.75253e-10
-8.0728e-10
-1.46142e-09
-1.9688e-10
-1.84871e-09
-3.01181e-11
-1.71244e-09
-4.10281e-10
-3.16633e-10
-1.57049e-09
-3.96947e-10
-2.43448e-10
-8.20099e-10
-5.63165e-10
5.53959e-11
3.73296e-10
2.173e-10
-4.13003e-11
5.99812e-11
1.02954e-10
-1.34323e-09
-1.73316e-09
-8.80009e-10
-1.22219e-09
-1.03068e-09
-6.54129e-10
-1.05108e-09
-2.00813e-09
6.21241e-10
-6.54604e-10
-1.20379e-09
-4.67895e-10
-7.40581e-10
-1.00581e-09
-4.02907e-10
1.39843e-10
2.32606e-11
-1.0198e-10
1.99058e-10
2.06201e-10
-1.98643e-09
-2.20941e-09
-8.07254e-10
-2.15341e-09
8.36134e-11
-3.38618e-09
3.1689e-10
-3.94196e-09
-8.83163e-10
2.93809e-10
-8.11529e-10
-6.07612e-10
-6.45961e-10
-9.6537e-10
-7.02723e-10
-3.34304e-10
-2.22606e-10
-2.90552e-11
2.50578e-10
1.66623e-10
-2.10323e-09
-1.70674e-09
-1.32546e-09
-2.40768e-09
-8.92769e-10
-3.89561e-09
1.7639e-09
-1.22868e-09
-3.68343e-09
-2.2895e-10
-1.77179e-10
-2.98619e-10
-3.16206e-10
-5.81675e-10
-7.31627e-10
-6.50891e-10
-3.4989e-10
4.12946e-11
2.40321e-10
1.22127e-10
-2.59168e-09
-1.6301e-09
-2.45418e-09
-3.49456e-09
-3.22742e-09
-1.39115e-10
-1.60105e-09
7.06091e-09
-3.18648e-09
-1.75222e-09
-1.167e-10
3.42685e-11
1.35034e-11
-1.74449e-10
-4.70165e-10
-5.7895e-10
-3.50679e-10
-2.13539e-11
1.07193e-10
4.05048e-11
-2.44465e-09
-1.75809e-09
-2.28935e-09
-2.19708e-09
-4.04262e-09
-9.26683e-09
-3.72158e-09
8.61263e-10
2.69684e-09
-1.01773e-09
-4.37045e-10
-2.92802e-10
-1.42735e-10
1.8543e-11
-4.93761e-12
-1.07438e-10
-1.33216e-10
-6.82144e-11
-3.91395e-11
-3.21596e-11
-1.75264e-09
-3.26627e-09
-3.3323e-09
-5.17893e-10
-1.72278e-10
7.52125e-09
-2.71192e-09
-8.7409e-09
-1.2457e-09
-6.54951e-10
-1.44338e-09
-1.08825e-09
-2.88724e-10
3.15507e-10
5.1391e-10
4.06823e-10
1.18827e-10
-1.46114e-10
-2.5836e-10
-1.47723e-10
)
;

boundaryField
{
    sides
    {
        type            calculated;
        value           nonuniform List<scalar> 
40
(
-1.75264e-09
-3.26627e-09
-3.3323e-09
-5.17893e-10
-1.72278e-10
7.52125e-09
-2.71192e-09
-8.7409e-09
-1.2457e-09
-6.54951e-10
-1.44338e-09
-1.08825e-09
-2.88724e-10
3.15507e-10
5.1391e-10
4.06823e-10
1.18827e-10
-1.46114e-10
-2.5836e-10
-1.47723e-10
3.12845e-09
1.91509e-09
2.39128e-09
2.92686e-09
3.95726e-09
7.27206e-11
-8.70976e-09
-8.77726e-09
1.92587e-09
1.94892e-09
9.04403e-10
2.88906e-10
4.18423e-11
1.30416e-10
2.38626e-10
2.15021e-10
6.44181e-11
-6.06142e-11
-1.21774e-10
-5.78779e-11
)
;
    }
    inlet
    {
        type            calculated;
        value           nonuniform List<scalar> 
20
(
3.12845e-09
2.195e-09
2.20407e-09
1.51257e-09
1.23767e-09
1.29857e-09
1.34475e-09
8.79792e-10
2.97306e-10
3.69104e-11
-1.41181e-10
-4.07022e-10
-5.95927e-10
-7.75253e-10
-1.34323e-09
-1.98643e-09
-2.10323e-09
-2.59168e-09
-2.44465e-09
-1.75264e-09
)
;
    }
    outlet
    {
        type            calculated;
        value           uniform 0;
    }
    frontAndBack
    {
        type            empty;
    }
}


// ************************************************************************* //
