/*--------------------------------*- C++ -*----------------------------------*\
  =========                 |
  \\      /  F ield         | OpenFOAM: The Open Source CFD Toolbox
   \\    /   O peration     | Website:  https://openfoam.org
    \\  /    A nd           | Version:  7
     \\/     M anipulation  |
\*---------------------------------------------------------------------------*/
FoamFile
{
    version     2.0;
    format      ascii;
    class       volVectorField;
    location    "62";
    object      ddtCorrDdt0(hU);
}
// * * * * * * * * * * * * * * * * * * * * * * * * * * * * * * * * * * * * * //

dimensions      [0 2 -2 0 0 0 0];

internalField   nonuniform List<vector> 
400
(
(1.80686e-10 1.52067e-10 0)
(2.36986e-10 5.91161e-11 0)
(-5.8192e-11 -1.31251e-10 0)
(-3.59587e-10 -6.58773e-11 0)
(-3.98229e-10 1.11566e-10 0)
(-4.49877e-10 1.40392e-10 0)
(-1.8355e-09 3.68656e-10 0)
(-1.31916e-09 1.68825e-09 0)
(1.18112e-09 2.63449e-10 0)
(7.5192e-10 6.09806e-11 0)
(4.77165e-10 -3.51092e-11 0)
(2.95846e-10 4.96907e-11 0)
(2.18553e-10 1.92524e-10 0)
(1.61928e-10 2.73115e-10 0)
(9.82092e-11 2.56221e-10 0)
(-4.03254e-11 1.62011e-10 0)
(-1.20441e-10 -2.61005e-11 0)
(-1.41729e-10 -1.47878e-10 0)
(-1.16721e-10 -3.51013e-10 0)
(2.05892e-10 -2.55166e-10 0)
(6.59642e-12 3.3411e-10 0)
(5.23919e-11 1.94756e-10 0)
(-1.37623e-10 -2.1198e-10 0)
(-9.65297e-11 2.14085e-11 0)
(-3.74925e-10 4.28645e-11 0)
(1.43672e-10 6.75566e-10 0)
(2.01594e-09 2.24523e-11 0)
(4.71318e-10 9.77091e-10 0)
(-5.87895e-10 7.22496e-10 0)
(1.58326e-10 2.03041e-10 0)
(2.00628e-10 -7.32047e-12 0)
(3.14428e-10 -2.38967e-11 0)
(3.22089e-10 3.65466e-11 0)
(2.36421e-10 1.23768e-10 0)
(1.10533e-10 1.63457e-10 0)
(-5.4271e-11 1.65645e-10 0)
(-1.52309e-10 7.75767e-11 0)
(-1.71174e-10 -1.40676e-11 0)
(-1.22534e-10 -1.63662e-10 0)
(2.07907e-10 -1.87652e-10 0)
(-2.72615e-11 1.77552e-10 0)
(-2.2162e-10 2.77258e-10 0)
(-3.24518e-10 1.67236e-10 0)
(-2.0721e-10 2.3236e-10 0)
(-1.46524e-10 -2.0861e-10 0)
(1.22595e-10 2.38257e-10 0)
(-8.51879e-10 -7.91728e-10 0)
(5.85707e-10 -8.38472e-10 0)
(3.88765e-10 -1.34897e-10 0)
(-2.25049e-10 -3.45057e-10 0)
(1.97373e-10 -8.04333e-11 0)
(3.21573e-10 1.07896e-10 0)
(3.34267e-10 3.05173e-10 0)
(2.22076e-10 4.55326e-10 0)
(3.9641e-11 4.85849e-10 0)
(-1.86465e-10 3.8624e-10 0)
(-2.72786e-10 5.00545e-11 0)
(-2.49691e-10 -1.72378e-10 0)
(-1.0079e-10 -5.84453e-10 0)
(3.79323e-10 -5.22562e-10 0)
(8.32402e-12 -2.20036e-11 0)
(-7.12339e-11 2.1967e-10 0)
(-1.69571e-10 4.68127e-10 0)
(-3.18522e-10 4.06552e-10 0)
(-6.96668e-11 3.05342e-10 0)
(-2.82452e-10 -1.43241e-10 0)
(-1.00315e-10 8.32167e-11 0)
(7.50569e-10 1.30863e-10 0)
(-4.97176e-10 -6.52059e-10 0)
(-1.9898e-11 -3.16184e-10 0)
(4.3826e-10 -1.07174e-11 0)
(3.92886e-10 1.58971e-10 0)
(3.9721e-10 4.10892e-10 0)
(2.87778e-10 5.84623e-10 0)
(8.53407e-11 6.16637e-10 0)
(-1.40388e-10 5.13376e-10 0)
(-2.43223e-10 1.09569e-10 0)
(-2.11049e-10 -1.18448e-10 0)
(-9.72501e-11 -6.14882e-10 0)
(2.65015e-10 -6.26866e-10 0)
(1.55761e-11 5.5376e-11 0)
(6.62494e-12 2.35294e-10 0)
(9.70597e-12 4.83176e-10 0)
(-1.8553e-10 3.83614e-10 0)
(5.44125e-11 5.48762e-10 0)
(-3.0413e-10 -1.62788e-10 0)
(2.89393e-10 2.31812e-10 0)
(-3.5346e-10 -4.15255e-10 0)
(-3.60035e-10 -4.70877e-10 0)
(3.82458e-10 -1.62319e-11 0)
(2.51367e-10 3.95699e-11 0)
(2.02558e-10 1.77591e-10 0)
(2.71159e-10 4.42089e-10 0)
(1.65744e-10 6.03281e-10 0)
(4.86164e-11 6.24727e-10 0)
(-8.31499e-11 5.44825e-10 0)
(-1.27508e-10 1.66559e-10 0)
(-8.22136e-11 -2.22833e-11 0)
(-2.47465e-11 -5.45925e-10 0)
(2.04213e-10 -6.43827e-10 0)
(3.01997e-11 1.68281e-10 0)
(7.03541e-11 3.38153e-10 0)
(2.161e-11 5.23938e-10 0)
(-1.67896e-10 3.61022e-10 0)
(-1.785e-10 2.8546e-10 0)
(-2.52801e-10 -1.25041e-10 0)
(1.9739e-11 -2.27067e-10 0)
(-3.59127e-10 -7.08768e-10 0)
(3.0287e-10 -3.09124e-10 0)
(4.83406e-10 -2.452e-10 0)
(2.31161e-10 -1.43544e-10 0)
(3.74033e-10 2.39836e-10 0)
(3.59331e-10 6.05434e-10 0)
(1.04774e-10 8.0808e-10 0)
(-3.34752e-11 8.35553e-10 0)
(-1.50238e-10 6.91006e-10 0)
(-1.72967e-10 1.55084e-10 0)
(-1.15283e-10 -1.37997e-10 0)
(-7.36388e-11 -9.04055e-10 0)
(1.14433e-10 -9.2608e-10 0)
(2.87978e-11 2.0143e-10 0)
(1.14648e-10 4.22122e-10 0)
(1.22796e-11 4.68881e-10 0)
(-3.35772e-11 4.95597e-10 0)
(-1.69269e-10 2.11582e-10 0)
(-1.85337e-11 1.9446e-10 0)
(-1.20256e-10 -1.62619e-10 0)
(-8.47696e-11 -2.73361e-10 0)
(2.43054e-10 -1.45033e-10 0)
(-2.486e-11 -3.4592e-10 0)
(5.74372e-11 -1.12015e-10 0)
(2.41184e-10 2.52921e-10 0)
(1.15184e-10 4.84731e-10 0)
(2.18279e-11 7.07822e-10 0)
(7.54885e-11 8.34332e-10 0)
(1.17902e-10 7.63153e-10 0)
(1.4702e-10 2.3329e-10 0)
(1.49728e-10 -1.15081e-10 0)
(1.15778e-11 -9.37662e-10 0)
(-6.21662e-11 -9.95846e-10 0)
(1.57953e-11 1.85018e-10 0)
(9.72109e-11 4.85214e-10 0)
(-4.59699e-11 4.38373e-10 0)
(-5.72543e-11 4.40459e-10 0)
(-1.83627e-10 8.6325e-11 0)
(-2.29091e-11 -5.06161e-11 0)
(-1.96412e-10 -4.16097e-10 0)
(5.36135e-11 -4.10788e-10 0)
(3.5138e-11 -4.86281e-10 0)
(-1.10872e-11 -4.32539e-10 0)
(3.06126e-10 -2.87256e-11 0)
(1.77409e-10 2.9135e-10 0)
(-3.43798e-11 6.22575e-10 0)
(2.50715e-11 9.5147e-10 0)
(4.49388e-11 1.07981e-09 0)
(-4.53546e-11 9.4718e-10 0)
(-6.07682e-12 2.43521e-10 0)
(5.39946e-11 -2.98762e-10 0)
(6.08223e-13 -1.31634e-09 0)
(3.72035e-11 -1.23077e-09 0)
(2.19736e-11 1.62284e-10 0)
(3.54168e-11 4.22693e-10 0)
(-7.1694e-11 5.13195e-10 0)
(-1.00911e-10 3.80645e-10 0)
(-8.29374e-11 1.86686e-10 0)
(-7.38133e-12 -1.06414e-10 0)
(-4.08842e-11 -3.43861e-10 0)
(7.20255e-11 -4.01482e-10 0)
(-2.72245e-11 -5.2431e-10 0)
(5.18874e-11 -3.14235e-10 0)
(1.31114e-10 -9.72674e-11 0)
(-6.77845e-11 1.27287e-10 0)
(-8.68988e-11 6.42819e-10 0)
(7.22385e-11 1.03656e-09 0)
(7.28258e-11 1.1158e-09 0)
(-2.93563e-11 1.03652e-09 0)
(-3.93124e-11 3.81181e-10 0)
(1.76243e-11 -2.15238e-10 0)
(5.88017e-11 -1.32537e-09 0)
(1.18007e-10 -1.2851e-09 0)
(-6.4212e-12 1.4829e-10 0)
(-4.5324e-11 3.74861e-10 0)
(-2.73497e-11 5.64884e-10 0)
(-6.5815e-11 4.40254e-10 0)
(1.79816e-11 2.72177e-10 0)
(-2.8221e-12 -7.9332e-11 0)
(8.83577e-11 -3.33602e-10 0)
(1.42936e-11 -4.86664e-10 0)
(7.50356e-12 -5.5798e-10 0)
(4.2158e-11 -3.5013e-10 0)
(-7.93298e-11 -1.4504e-10 0)
(4.87013e-12 1.69054e-10 0)
(1.1482e-10 7.52719e-10 0)
(3.92812e-11 1.12662e-09 0)
(3.18701e-12 1.15137e-09 0)
(-1.76131e-11 1.02716e-09 0)
(-1.38526e-10 3.67573e-10 0)
(-2.29079e-10 -1.73649e-10 0)
(-1.16214e-10 -1.27523e-09 0)
(1.73713e-10 -1.26516e-09 0)
(-8.20305e-12 1.10833e-10 0)
(-6.31673e-11 4.37251e-10 0)
(1.77165e-11 5.35472e-10 0)
(-1.35832e-11 5.14709e-10 0)
(6.49885e-11 2.59367e-10 0)
(-1.21136e-11 -1.31825e-11 0)
(1.163e-10 -3.34195e-10 0)
(9.79777e-12 -5.11132e-10 0)
(3.679e-11 -5.29496e-10 0)
(4.76351e-11 -4.60719e-10 0)
(-1.59194e-10 -1.40888e-10 0)
(-1.82439e-11 2.35424e-10 0)
(1.054e-10 6.46129e-10 0)
(-3.70547e-11 1.01658e-09 0)
(-5.49256e-11 1.1543e-09 0)
(3.89074e-11 9.92704e-10 0)
(-5.19861e-11 2.88577e-10 0)
(-1.72851e-10 -1.22365e-10 0)
(-7.37084e-11 -1.08012e-09 0)
(1.10243e-10 -1.14637e-09 0)
(2.90543e-11 1.24625e-10 0)
(-6.1993e-12 4.33263e-10 0)
(1.90177e-11 5.15235e-10 0)
(3.19586e-11 5.27835e-10 0)
(6.99175e-11 2.23845e-10 0)
(1.56353e-11 1.91536e-12 0)
(2.99584e-11 -3.06113e-10 0)
(2.9948e-11 -5.13122e-10 0)
(-9.10376e-11 -4.43619e-10 0)
(-1.99245e-11 -5.00475e-10 0)
(-7.8185e-11 -1.73631e-10 0)
(-1.36107e-10 2.53945e-10 0)
(7.81291e-12 5.50382e-10 0)
(1.0701e-10 8.71514e-10 0)
(5.86284e-11 1.05736e-09 0)
(-8.52539e-12 9.07176e-10 0)
(-5.8657e-11 2.37968e-10 0)
(-9.34064e-11 -5.99871e-11 0)
(-8.96187e-11 -9.00339e-10 0)
(-6.73739e-11 -1.03942e-09 0)
(6.88392e-12 1.56231e-10 0)
(3.23696e-11 3.57236e-10 0)
(1.13669e-11 5.75777e-10 0)
(1.07254e-10 4.47848e-10 0)
(2.77306e-11 2.71539e-10 0)
(9.98964e-11 -1.02472e-10 0)
(-7.44658e-11 -2.93902e-10 0)
(1.21492e-10 -6.1386e-10 0)
(-1.27857e-10 -4.61636e-10 0)
(-1.95362e-10 -3.79251e-10 0)
(-8.61023e-12 -1.61897e-10 0)
(-2.11443e-10 2.92932e-10 0)
(-2.48032e-10 7.10692e-10 0)
(1.1506e-11 9.54767e-10 0)
(9.13623e-11 9.94223e-10 0)
(1.03882e-10 8.04595e-10 0)
(1.75669e-10 1.57322e-10 0)
(1.95694e-10 -1.60526e-10 0)
(4.3628e-11 -1.0118e-09 0)
(-2.76189e-10 -1.06074e-09 0)
(-1.82183e-11 1.54277e-10 0)
(3.40204e-11 3.52772e-10 0)
(4.12181e-11 5.4469e-10 0)
(1.69239e-10 3.64651e-10 0)
(-3.17816e-11 4.00438e-10 0)
(1.21538e-10 -7.21205e-11 0)
(-1.30056e-10 -5.93796e-11 0)
(7.71583e-11 -3.7502e-10 0)
(1.2677e-10 -4.33072e-10 0)
(-2.54674e-10 -1.33138e-10 0)
(-7.04512e-11 -4.42531e-11 0)
(-4.10116e-11 1.72446e-10 0)
(-2.15158e-10 5.87307e-10 0)
(-1.74051e-10 8.27256e-10 0)
(-8.09994e-11 8.45109e-10 0)
(6.23766e-12 7.40784e-10 0)
(1.24709e-10 2.01499e-10 0)
(1.616e-10 -1.55283e-10 0)
(5.00133e-11 -9.61452e-10 0)
(-2.60279e-10 -9.97659e-10 0)
(-3.65724e-11 1.75532e-10 0)
(-1.50051e-11 3.95891e-10 0)
(1.10427e-10 3.75324e-10 0)
(2.33968e-10 2.99062e-10 0)
(1.61366e-10 1.19548e-10 0)
(1.82307e-10 -1.89579e-10 0)
(1.19957e-10 -2.90123e-10 0)
(-2.30281e-10 -3.04253e-10 0)
(2.31878e-10 -6.80947e-10 0)
(-1.32604e-10 -3.43225e-10 0)
(-4.46349e-10 1.75231e-11 0)
(-3.1331e-10 2.53065e-10 0)
(-3.28437e-10 6.39747e-10 0)
(-2.75059e-10 8.98065e-10 0)
(-6.14467e-11 9.17047e-10 0)
(1.87928e-10 7.60602e-10 0)
(2.98428e-10 1.46238e-10 0)
(3.06131e-10 -3.10068e-10 0)
(1.59166e-10 -1.16937e-09 0)
(-2.99958e-10 -1.05962e-09 0)
(-5.22632e-11 2.25259e-10 0)
(-8.35023e-11 3.80924e-10 0)
(1.12326e-10 2.42504e-10 0)
(1.03403e-10 4.1462e-10 0)
(2.39947e-10 9.98153e-11 0)
(-5.53025e-11 4.4204e-10 0)
(3.81505e-10 -2.45861e-10 0)
(-4.96896e-10 3.57927e-10 0)
(-9.51039e-11 -1.2536e-10 0)
(2.38695e-10 -3.20999e-10 0)
(-1.47343e-10 -1.71398e-11 0)
(-2.16494e-10 2.03897e-10 0)
(-2.44775e-10 4.38191e-10 0)
(-2.69351e-10 6.43328e-10 0)
(-1.69329e-10 6.98347e-10 0)
(-1.54514e-11 6.23896e-10 0)
(6.25036e-11 1.9975e-10 0)
(1.13735e-10 -1.517e-10 0)
(1.17132e-10 -8.2055e-10 0)
(-1.58266e-10 -8.00295e-10 0)
(-7.08863e-11 3.06218e-10 0)
(-1.67804e-10 3.80729e-10 0)
(1.09378e-10 1.94322e-10 0)
(1.52088e-10 3.81162e-10 0)
(5.07112e-10 1.56044e-10 0)
(-8.878e-11 5.20856e-10 0)
(6.02168e-10 -5.47927e-10 0)
(1.68269e-10 -1.46895e-10 0)
(-8.93897e-10 1.74454e-10 0)
(-1.62716e-10 -3.1152e-10 0)
(-1.48347e-10 -1.75656e-10 0)
(-2.98159e-10 1.16513e-10 0)
(-3.31492e-10 3.9418e-10 0)
(-2.98788e-10 6.07032e-10 0)
(-1.88623e-10 6.53612e-10 0)
(-1.15639e-11 5.60105e-10 0)
(9.13533e-11 1.76753e-10 0)
(1.22302e-10 -1.19973e-10 0)
(1.59342e-10 -7.18866e-10 0)
(-5.88171e-11 -6.96542e-10 0)
(-1.15849e-10 4.58432e-11 0)
(-2.47109e-10 1.38342e-10 0)
(3.8273e-11 2.79355e-10 0)
(2.03185e-10 1.92291e-10 0)
(4.42578e-10 3.87702e-10 0)
(5.31247e-12 -1.05809e-10 0)
(-2.17449e-10 -7.30223e-10 0)
(1.47637e-09 -2.2288e-09 0)
(-5.37716e-10 -1.63975e-10 0)
(-6.16624e-10 -8.18232e-12 0)
(-1.12806e-10 -5.1649e-11 0)
(-1.45001e-10 7.75896e-11 0)
(-2.07465e-10 2.50844e-10 0)
(-1.79905e-10 4.04711e-10 0)
(-1.10322e-10 4.4444e-10 0)
(7.36301e-11 3.75238e-10 0)
(1.47742e-10 1.0934e-10 0)
(1.3153e-10 -6.67987e-11 0)
(1.14784e-10 -4.85719e-10 0)
(-1.84294e-10 -4.80392e-10 0)
(-8.14006e-11 -2.01722e-10 0)
(1.02114e-11 -4.42537e-11 0)
(1.28356e-10 4.92536e-10 0)
(4.35818e-10 2.29162e-10 0)
(1.5956e-10 2.01779e-10 0)
(-1.48156e-09 -6.51987e-10 0)
(-1.86513e-09 1.70294e-09 0)
(9.54725e-10 1.28207e-09 0)
(1.98545e-09 -1.65546e-10 0)
(-3.3549e-10 3.27307e-10 0)
(-3.88302e-10 1.42943e-10 0)
(-3.35584e-10 -6.66068e-11 0)
(-2.97968e-10 -1.07264e-10 0)
(-1.96725e-10 -8.485e-12 0)
(-9.35439e-11 9.57177e-11 0)
(7.61568e-11 1.5809e-10 0)
(1.49015e-10 1.30005e-10 0)
(1.12282e-10 1.11665e-10 0)
(8.43642e-11 -1.42343e-12 0)
(-1.59448e-10 -1.08096e-10 0)
(7.28699e-11 -6.78887e-11 0)
(2.30674e-10 2.54086e-11 0)
(2.03956e-10 3.09575e-10 0)
(1.70458e-10 1.29292e-10 0)
(-1.09639e-10 -2.45462e-10 0)
(2.28779e-09 -6.75565e-10 0)
(1.76897e-09 1.75207e-09 0)
(-1.94176e-09 2.72304e-09 0)
(-1.32186e-09 -2.25828e-10 0)
(-1.59243e-10 -2.42512e-11 0)
(-6.52764e-10 1.83123e-11 0)
(-5.42908e-10 2.81493e-12 0)
(-2.52108e-10 9.5075e-11 0)
(-2.5514e-11 2.02038e-10 0)
(6.32602e-11 2.39615e-10 0)
(1.78396e-10 1.77949e-10 0)
(1.86944e-10 3.2859e-12 0)
(1.03176e-10 -9.60138e-11 0)
(1.55926e-11 -2.81999e-10 0)
(-2.87917e-10 -2.18888e-10 0)
)
;

boundaryField
{
    sides
    {
        type            calculated;
        value           nonuniform List<vector> 
40
(
(7.28699e-11 0 0)
(2.30674e-10 0 0)
(2.03956e-10 0 0)
(1.70458e-10 0 0)
(-1.09639e-10 0 0)
(2.28779e-09 0 0)
(1.76897e-09 0 0)
(-1.94176e-09 0 0)
(-1.32186e-09 0 0)
(-1.59243e-10 0 0)
(-6.52764e-10 0 0)
(-5.42908e-10 0 0)
(-2.52108e-10 0 0)
(-2.5514e-11 0 0)
(6.32602e-11 0 0)
(1.78396e-10 0 0)
(1.86944e-10 0 0)
(1.03176e-10 0 0)
(1.55926e-11 0 0)
(-2.87917e-10 0 0)
(1.80686e-10 0 0)
(2.36986e-10 0 0)
(-5.8192e-11 0 0)
(-3.59587e-10 0 0)
(-3.98229e-10 0 0)
(-4.49877e-10 0 0)
(-1.8355e-09 0 0)
(-1.31916e-09 0 0)
(1.18112e-09 0 0)
(7.5192e-10 0 0)
(4.77165e-10 0 0)
(2.95846e-10 0 0)
(2.18553e-10 0 0)
(1.61928e-10 0 0)
(9.82092e-11 0 0)
(-4.03254e-11 0 0)
(-1.20441e-10 0 0)
(-1.41729e-10 0 0)
(-1.16721e-10 0 0)
(2.05892e-10 0 0)
)
;
    }
    inlet
    {
        type            calculated;
        value           uniform (0 0 0);
    }
    outlet
    {
        type            calculated;
        value           nonuniform List<vector> 
20
(
(2.05892e-10 -2.55166e-10 0)
(2.07907e-10 -1.87652e-10 0)
(3.79323e-10 -5.22562e-10 0)
(2.65015e-10 -6.26866e-10 0)
(2.04213e-10 -6.43827e-10 0)
(1.14433e-10 -9.2608e-10 0)
(-6.21662e-11 -9.95846e-10 0)
(3.72035e-11 -1.23077e-09 0)
(1.18007e-10 -1.2851e-09 0)
(1.73713e-10 -1.26516e-09 0)
(1.10243e-10 -1.14637e-09 0)
(-6.73739e-11 -1.03942e-09 0)
(-2.76189e-10 -1.06074e-09 0)
(-2.60279e-10 -9.97659e-10 0)
(-2.99958e-10 -1.05962e-09 0)
(-1.58266e-10 -8.00295e-10 0)
(-5.88171e-11 -6.96542e-10 0)
(-1.84294e-10 -4.80392e-10 0)
(-1.59448e-10 -1.08096e-10 0)
(-2.87917e-10 -2.18888e-10 0)
)
;
    }
    frontAndBack
    {
        type            empty;
    }
}


// ************************************************************************* //
