/*--------------------------------*- C++ -*----------------------------------*\
  =========                 |
  \\      /  F ield         | OpenFOAM: The Open Source CFD Toolbox
   \\    /   O peration     | Website:  https://openfoam.org
    \\  /    A nd           | Version:  7
     \\/     M anipulation  |
\*---------------------------------------------------------------------------*/
FoamFile
{
    version     2.0;
    format      ascii;
    class       surfaceScalarField;
    location    "62";
    object      ddtCorrDdt0(phi);
}
// * * * * * * * * * * * * * * * * * * * * * * * * * * * * * * * * * * * * * //

dimensions      [0 4 -2 0 0 0 0];

internalField   nonuniform List<scalar> 
760
(
3.83027e-13
1.44267e-12
1.43872e-12
5.19806e-13
-1.85026e-12
-8.53305e-13
-1.44987e-12
1.96324e-13
-3.47844e-12
1.07091e-12
-1.73163e-12
2.7245e-10
-1.54495e-11
2.82783e-10
5.7599e-12
3.96455e-10
3.70939e-12
1.25805e-11
2.89715e-12
6.36435e-13
1.86656e-12
1.39628e-13
1.22969e-12
1.08784e-13
9.56272e-13
4.21644e-13
6.04188e-13
7.94332e-13
1.57137e-13
9.00303e-13
-3.41293e-13
7.74878e-13
-6.15423e-13
1.59333e-13
-6.55955e-13
-4.13021e-13
1.40258e-13
-1.28585e-12
-1.11563e-12
-4.32383e-13
1.89824e-12
-4.01839e-13
1.65748e-12
-1.15732e-12
-7.57267e-14
9.63314e-13
4.59599e-13
-3.89207e-12
-8.49179e-13
7.10866e-12
3.02987e-12
9.92884e-12
-1.28153e-11
-5.97572e-12
-1.97983e-11
1.3625e-12
1.66898e-12
5.5778e-13
-4.48146e-13
1.36949e-12
-4.50704e-13
1.64579e-12
2.17058e-13
1.4479e-12
9.59747e-13
8.08202e-13
1.5571e-12
1.41017e-13
1.7853e-12
-4.21202e-13
1.53224e-12
-7.99929e-13
3.44554e-13
-8.23854e-13
-5.98032e-13
1.7307e-13
-2.14899e-12
-1.92526e-12
-1.04997e-12
4.99998e-13
-2.69568e-12
1.2642e-12
-1.83113e-13
1.19673e-12
-1.92121e-12
1.48229e-12
2.60643e-12
-3.27056e-13
-5.00004e-12
2.32531e-12
-1.20607e-13
-7.5327e-13
4.65439e-12
6.10834e-12
-1.25545e-12
-4.94617e-13
5.88072e-14
-2.11534e-12
1.39522e-12
-3.21988e-13
1.68283e-12
6.71875e-13
1.49218e-12
1.6806e-12
5.93299e-13
2.44548e-12
-3.62247e-13
2.63533e-12
-1.07808e-12
2.18149e-12
-1.35755e-12
3.98759e-13
-1.03491e-12
-6.72117e-13
6.78755e-13
-2.85194e-12
-2.80204e-12
-1.88425e-13
7.65771e-14
-1.67884e-12
1.23405e-12
-8.69337e-14
2.2949e-12
-2.65684e-12
2.07371e-12
2.35958e-12
1.90917e-12
-5.08705e-12
-1.92867e-12
4.93381e-12
1.20605e-12
-1.93675e-13
-1.09832e-12
-2.17884e-12
-4.5211e-12
1.65736e-12
-1.06785e-12
1.9856e-12
1.84052e-13
2.0026e-12
8.8446e-13
1.80599e-12
2.26255e-12
9.2267e-13
3.17606e-12
-1.35341e-13
3.29418e-12
-9.50088e-13
2.73577e-12
-1.18822e-12
6.51813e-13
-8.69198e-13
-4.16859e-13
4.21898e-13
-2.97944e-12
-3.201e-12
1.09976e-13
4.71976e-13
-5.24163e-13
1.33053e-12
3.50412e-14
2.69581e-12
-7.23712e-13
1.8138e-12
-2.22092e-13
2.9014e-12
-8.43355e-13
-1.07796e-12
1.58939e-12
1.61065e-13
-3.74857e-12
-3.95675e-12
9.41459e-13
-1.65351e-12
1.72826e-12
-9.45471e-14
8.38812e-13
-1.7931e-13
1.31327e-12
8.77601e-13
1.17047e-12
2.49977e-12
5.25053e-13
3.40453e-12
-1.20633e-13
3.46601e-12
-6.13001e-13
2.95445e-12
-4.97167e-13
8.28679e-13
-1.99647e-13
-1.99633e-13
4.0582e-13
-3.29418e-12
-3.771e-12
-2.39155e-14
9.75884e-13
3.60899e-13
1.80564e-12
-8.73806e-13
2.67278e-12
2.84743e-13
2.1495e-12
-2.61706e-12
1.18752e-12
7.33089e-13
7.56013e-13
-1.43334e-12
-9.69815e-13
-5.84864e-13
-2.21439e-12
2.92156e-12
-5.59548e-13
1.34576e-12
-1.51182e-12
1.35435e-12
-8.73226e-13
2.07302e-12
1.31551e-12
1.171e-12
2.90963e-12
1.44141e-13
3.88328e-12
-5.20402e-13
4.162e-12
-9.22169e-13
3.54373e-12
-5.70777e-13
8.99754e-13
-2.43737e-13
-6.25123e-13
-1.50398e-15
-4.61543e-12
-4.81417e-12
-1.73637e-13
1.09322e-12
9.01319e-13
2.37172e-12
-7.58709e-13
1.93451e-12
4.15335e-13
2.38571e-12
-1.43056e-12
2.21764e-13
5.81087e-13
2.71192e-13
-1.53106e-12
-1.74674e-12
1.07233e-12
-1.61526e-12
5.94545e-13
-1.70282e-12
-3.55684e-13
-2.33478e-12
1.03274e-12
-2.85876e-13
9.54659e-13
1.54648e-12
2.4966e-13
2.63403e-12
2.53833e-13
3.94186e-12
3.8439e-13
4.71457e-12
5.67478e-13
4.24961e-12
9.73319e-13
1.15265e-12
6.70474e-13
-1.05936e-12
-2.74976e-13
-5.62519e-12
-5.55865e-12
2.72176e-14
7.89601e-13
9.99805e-14
2.45935e-12
-5.54875e-14
2.28578e-12
-8.62475e-13
1.89045e-12
-2.99038e-13
7.07476e-13
-5.32081e-13
-4.40952e-13
-7.46278e-13
-1.87185e-12
8.78241e-13
-1.93033e-12
-5.33387e-13
-2.64357e-12
8.77685e-13
-1.73682e-12
1.58732e-12
-1.56806e-13
3.80999e-14
9.4111e-13
-1.0259e-13
3.00206e-12
3.37782e-13
4.95322e-12
-7.57954e-14
5.6231e-12
-2.2543e-13
5.1345e-12
2.85142e-13
1.61343e-12
3.19268e-13
-1.43526e-12
-2.57063e-15
-6.84733e-12
-6.40503e-12
3.52577e-13
8.22762e-13
-5.58713e-13
1.80317e-12
-6.01196e-14
2.86768e-12
-8.29603e-13
1.97619e-12
1.8506e-13
1.27832e-12
-3.86945e-13
-5.94745e-13
1.82121e-13
-1.69358e-12
2.0727e-13
-2.31921e-12
-2.36844e-13
-2.76558e-12
7.41615e-13
-1.47477e-12
2.18966e-13
-6.44896e-13
-6.54111e-13
7.17969e-13
-3.70075e-14
3.80758e-12
5.02514e-13
5.66213e-12
1.60193e-13
5.64332e-12
-2.04532e-13
5.13985e-12
-1.34362e-13
1.9433e-12
1.58332e-13
-1.02277e-12
4.68384e-13
-6.68863e-12
-6.47592e-12
-1.18701e-13
6.52242e-13
-1.70103e-13
1.95668e-12
-3.68454e-13
2.80786e-12
-4.38949e-14
2.39545e-12
6.14761e-14
1.38813e-12
1.36578e-13
-2.30157e-13
4.52543e-13
-1.60191e-12
-2.10871e-13
-2.41919e-12
3.76936e-13
-2.6626e-12
-1.54229e-13
-1.97701e-12
-3.66583e-13
-8.07836e-13
5.02749e-13
8.95827e-13
3.3282e-13
3.51259e-12
-6.12607e-14
5.40345e-12
1.94035e-13
5.78467e-12
-2.14508e-13
5.13878e-12
-1.2329e-12
1.81049e-12
-1.14971e-12
-5.86329e-13
3.05644e-13
-5.84356e-12
-6.03683e-12
-2.22815e-13
4.73055e-13
9.45665e-14
2.39721e-12
-2.51174e-13
2.49698e-12
2.94559e-13
2.71502e-12
4.44851e-14
1.16634e-12
2.25992e-13
8.35377e-14
5.67151e-13
-1.66802e-12
-2.51679e-13
-2.54692e-12
6.01858e-13
-2.47356e-12
-4.65332e-13
-2.53073e-12
-7.05529e-13
-6.3296e-13
5.8718e-13
1.34592e-12
1.27725e-13
2.81777e-12
-4.93276e-13
4.62293e-12
2.19737e-13
5.63426e-12
1.98347e-13
4.74961e-12
-8.97403e-13
1.15816e-12
-9.43481e-13
-4.97803e-13
2.30541e-13
-4.76102e-12
-5.32708e-12
3.90573e-13
8.01306e-13
-2.32779e-13
1.86205e-12
4.01071e-13
2.58564e-12
-5.31491e-14
2.63501e-12
5.14557e-13
1.19229e-12
-2.09734e-13
-1.05489e-14
4.60541e-13
-1.47772e-12
-3.20843e-13
-2.78011e-12
-3.09173e-13
-2.15579e-12
-8.14474e-14
-2.4547e-12
-6.90616e-13
-9.40322e-13
-3.45424e-13
1.48372e-12
3.599e-13
3.11954e-12
4.13009e-13
4.44438e-12
1.85999e-13
5.04341e-12
-1.42974e-13
4.17201e-12
-5.18117e-13
9.30278e-13
-4.95768e-13
-4.24794e-13
-3.10977e-13
-4.56077e-12
-5.15165e-12
2.48291e-13
7.73853e-13
-4.23918e-14
1.62914e-12
8.03412e-13
3.06088e-12
-3.24784e-13
1.69256e-12
8.84245e-13
1.58368e-12
-2.94805e-13
-6.89373e-13
9.14509e-14
-9.46022e-13
4.21253e-13
-2.78287e-12
-1.43076e-12
-2.04797e-12
-1.94068e-13
-1.10321e-12
-3.56496e-13
-7.5648e-13
-1.49226e-12
9.84499e-13
-5.4196e-13
3.32084e-12
4.44361e-13
4.50745e-12
3.72871e-13
4.50557e-12
5.83242e-13
3.77578e-12
1.0504e-12
9.04845e-13
8.05594e-13
-7.17248e-13
-6.33264e-13
-4.85716e-12
-5.12205e-12
-1.50585e-13
7.74388e-13
9.22104e-13
2.00308e-12
1.59504e-14
2.32792e-12
5.56783e-13
1.54569e-12
-1.11197e-13
1.68658e-12
5.84137e-13
-1.19203e-12
-1.07367e-12
-8.4188e-13
1.4918e-12
-2.02965e-12
-7.7089e-13
-3.21474e-12
-9.99364e-13
-7.99258e-13
8.91949e-14
3.07015e-13
-8.01591e-13
1.14271e-12
-1.03634e-12
3.20711e-12
-5.20542e-13
4.49479e-12
-3.24706e-13
4.54202e-12
1.99381e-13
3.83984e-12
9.48181e-13
8.34788e-13
8.05486e-13
-1.3548e-12
-6.21598e-13
-5.58779e-12
-5.24782e-12
-6.57391e-14
1.04272e-12
1.07824e-12
2.07902e-12
-2.0005e-13
1.36557e-12
2.2377e-12
1.89397e-12
-8.76799e-13
1.12801e-13
2.59629e-12
6.915e-13
-1.63552e-12
-5.60547e-13
2.56479e-13
6.89786e-13
8.88695e-13
-2.35038e-12
-1.96597e-12
-1.97649e-12
-1.82635e-12
1.35638e-13
-1.52123e-12
1.24617e-12
-1.6074e-12
2.58218e-12
-8.05773e-13
3.69113e-12
2.43673e-13
3.96389e-12
1.10354e-12
3.48066e-12
1.66043e-12
9.11029e-13
1.37992e-12
-1.1662e-12
-3.99588e-13
-4.98547e-12
-4.66068e-12
1.23435e-13
1.42072e-12
2.37874e-13
1.88086e-12
1.73515e-13
1.14157e-12
1.2915e-12
1.95536e-12
-4.66549e-13
2.50288e-13
2.00725e-12
3.60841e-12
-3.49638e-13
-3.1913e-12
-2.85125e-12
2.31453e-12
1.49472e-12
3.96041e-13
1.42838e-13
-1.94181e-12
-1.09896e-12
-7.28283e-13
-1.1005e-12
7.97584e-13
-1.37947e-12
2.14975e-12
-1.06459e-12
3.2345e-12
-4.48763e-13
3.5388e-12
4.6666e-14
3.09925e-12
4.65878e-13
9.73432e-13
6.27706e-13
-7.79608e-13
-7.16938e-14
-4.10465e-12
-3.87808e-12
7.44568e-15
9.79987e-13
-7.17169e-13
9.56254e-13
1.56515e-12
1.36864e-12
-3.07933e-14
1.61873e-12
3.76498e-12
1.85905e-12
-2.32907e-12
3.98882e-13
6.13663e-12
-8.54543e-13
-4.88541e-12
-7.37585e-12
-2.16496e-12
1.84376e-12
-2.34712e-13
-1.50857e-13
-1.22714e-12
-7.57344e-13
-1.60634e-12
1.874e-13
-1.6566e-12
1.37684e-12
-1.21872e-12
2.36674e-12
-4.64196e-13
2.60929e-12
1.97363e-13
2.27789e-12
4.7396e-13
7.92506e-13
5.78392e-13
-3.1401e-13
3.2616e-13
-2.78971e-12
-2.83647e-12
-2.08395e-13
-5.41125e-13
-1.83983e-12
2.65653e-13
2.21361e-12
2.31942e-12
-1.65134e-13
1.57373e-12
5.19149e-12
2.54293e-12
-6.44224e-12
-6.13835e-12
7.08697e-12
-2.29307e-12
2.24429e-12
-1.68225e-11
-4.58699e-12
-3.45149e-12
-1.06786e-12
6.21518e-13
-5.25494e-13
1.33684e-13
-9.03649e-13
7.72555e-14
-1.02994e-12
6.10737e-13
-7.63707e-13
1.24182e-12
-8.39474e-14
1.47791e-12
6.32216e-13
1.31525e-12
6.20778e-13
5.29301e-13
4.42511e-13
8.08351e-14
-7.06511e-14
-1.25668e-12
-1.47761e-12
2.55924e-13
-8.23834e-13
5.37604e-13
3.16123e-13
7.89438e-13
2.28833e-12
2.84751e-12
6.36952e-13
-2.24145e-12
6.08694e-12
-1.06224e-11
1.76546e-10
-7.77386e-12
4.34704e-10
1.70978e-11
4.11404e-10
1.85387e-13
1.35289e-11
-1.90684e-12
4.04076e-13
-1.73901e-12
5.19466e-13
-1.61767e-12
1.15969e-13
-1.21085e-12
3.9296e-14
-7.70311e-13
3.19331e-13
-6.73835e-14
5.63555e-13
6.41465e-13
5.81401e-13
6.20862e-13
2.203e-13
3.75417e-13
1.00003e-13
-1.32919e-13
-4.95527e-13
-7.06953e-13
7.37856e-13
3.19317e-12
-1.4836e-13
1.731e-13
2.52767e-14
1.95072e-11
-1.31648e-12
-1.50629e-11
3.86368e-13
-2.58709e-12
-3.20825e-12
-1.99348e-12
-5.17352e-13
1.45008e-13
5.4216e-13
9.43697e-13
7.15382e-13
2.57594e-13
-6.25292e-13
)
;

boundaryField
{
    sides
    {
        type            calculated;
        value           uniform 0;
    }
    inlet
    {
        type            calculated;
        value           uniform 0;
    }
    outlet
    {
        type            calculated;
        value           nonuniform List<scalar> 
20
(
1.05166e-12
1.13144e-12
2.18885e-12
1.50685e-12
1.04507e-12
2.99422e-13
-6.36528e-13
-4.7868e-14
6.68176e-13
1.22867e-12
9.50325e-13
-3.3504e-13
-1.70396e-12
-1.733e-12
-1.78046e-12
-8.62212e-13
-6.98695e-14
-7.39097e-13
-6.66835e-13
-1.48993e-12
)
;
    }
    frontAndBack
    {
        type            empty;
        value           nonuniform 0();
    }
}


// ************************************************************************* //
