/*--------------------------------*- C++ -*----------------------------------*\
  =========                 |
  \\      /  F ield         | OpenFOAM: The Open Source CFD Toolbox
   \\    /   O peration     | Website:  https://openfoam.org
    \\  /    A nd           | Version:  7
     \\/     M anipulation  |
\*---------------------------------------------------------------------------*/
FoamFile
{
    version     2.0;
    format      ascii;
    class       volVectorField;
    location    "62";
    object      hU_0;
}
// * * * * * * * * * * * * * * * * * * * * * * * * * * * * * * * * * * * * * //

dimensions      [0 2 -1 0 0 0 0];

internalField   nonuniform List<vector> 
400
(
(0.001 -8.77481e-09 0)
(0.000999999 -2.38686e-08 0)
(0.001 -3.6198e-08 0)
(0.001 -4.70097e-08 0)
(0.00100001 -5.72095e-08 0)
(0.00100001 -6.76317e-08 0)
(0.00100002 -7.8319e-08 0)
(0.00100003 -8.92517e-08 0)
(0.00100004 -9.99293e-08 0)
(0.00100006 -1.11834e-07 0)
(0.00100007 -1.22509e-07 0)
(0.0010001 -1.36013e-07 0)
(0.00100011 -1.46435e-07 0)
(0.00100015 -1.63379e-07 0)
(0.00100017 -1.72313e-07 0)
(0.00100024 -1.96561e-07 0)
(0.00100026 -2.01061e-07 0)
(0.00100038 -2.43253e-07 0)
(0.00100038 -2.39276e-07 0)
(0.00100061 -3.31723e-07 0)
(0.001 3.97374e-09 0)
(0.001 1.21085e-08 0)
(0.00100001 2.02343e-08 0)
(0.00100001 2.79182e-08 0)
(0.00100002 3.51003e-08 0)
(0.00100002 4.16065e-08 0)
(0.00100003 4.75998e-08 0)
(0.00100004 5.30209e-08 0)
(0.00100005 5.83322e-08 0)
(0.00100007 6.22309e-08 0)
(0.00100008 6.69315e-08 0)
(0.0010001 6.85813e-08 0)
(0.00100012 7.2715e-08 0)
(0.00100016 6.9888e-08 0)
(0.00100018 7.40114e-08 0)
(0.00100023 6.16032e-08 0)
(0.00100026 6.7044e-08 0)
(0.00100035 3.16359e-08 0)
(0.00100037 3.97071e-08 0)
(0.00100051 -5.46082e-08 0)
(0.001 -4.01574e-09 0)
(0.000999999 -1.31892e-08 0)
(0.000999999 -2.33416e-08 0)
(0.001 -3.40457e-08 0)
(0.00100001 -4.46403e-08 0)
(0.00100001 -5.54532e-08 0)
(0.00100002 -6.5931e-08 0)
(0.00100003 -7.75191e-08 0)
(0.00100004 -8.88993e-08 0)
(0.00100005 -1.02385e-07 0)
(0.00100006 -1.15017e-07 0)
(0.00100009 -1.32157e-07 0)
(0.0010001 -1.46318e-07 0)
(0.00100014 -1.70018e-07 0)
(0.00100016 -1.85303e-07 0)
(0.00100021 -2.21534e-07 0)
(0.00100023 -2.36153e-07 0)
(0.00100031 -2.98029e-07 0)
(0.00100033 -3.06542e-07 0)
(0.00100046 -4.22033e-07 0)
(0.001 -2.27628e-10 0)
(0.001 -2.99772e-10 0)
(0.00100001 1.9538e-10 0)
(0.00100001 7.64626e-10 0)
(0.00100001 1.38039e-09 0)
(0.00100002 1.27981e-09 0)
(0.00100003 1.02836e-09 0)
(0.00100004 -7.09783e-10 0)
(0.00100004 -2.51682e-09 0)
(0.00100006 -6.96879e-09 0)
(0.00100007 -1.09771e-08 0)
(0.00100009 -2.01851e-08 0)
(0.00100011 -2.69383e-08 0)
(0.00100013 -4.42559e-08 0)
(0.00100015 -5.37512e-08 0)
(0.00100019 -8.54836e-08 0)
(0.00100022 -9.61146e-08 0)
(0.00100028 -1.55284e-07 0)
(0.0010003 -1.61458e-07 0)
(0.00100039 -2.75726e-07 0)
(0.001 -2.93088e-09 0)
(0.001 -9.39353e-09 0)
(0.001 -1.65927e-08 0)
(0.001 -2.47802e-08 0)
(0.00100001 -3.35626e-08 0)
(0.00100001 -4.32869e-08 0)
(0.00100002 -5.33135e-08 0)
(0.00100002 -6.48437e-08 0)
(0.00100003 -7.65354e-08 0)
(0.00100004 -9.11228e-08 0)
(0.00100005 -1.05364e-07 0)
(0.00100007 -1.25098e-07 0)
(0.00100008 -1.42485e-07 0)
(0.00100011 -1.70903e-07 0)
(0.00100013 -1.91427e-07 0)
(0.00100016 -2.34849e-07 0)
(0.00100018 -2.56459e-07 0)
(0.00100024 -3.27221e-07 0)
(0.00100025 -3.4211e-07 0)
(0.00100033 -4.64293e-07 0)
(0.001 -2.62367e-09 0)
(0.001 -7.84035e-09 0)
(0.001 -1.27911e-08 0)
(0.00100001 -1.77483e-08 0)
(0.00100001 -2.26527e-08 0)
(0.00100001 -2.81301e-08 0)
(0.00100002 -3.39027e-08 0)
(0.00100002 -4.12259e-08 0)
(0.00100003 -4.89905e-08 0)
(0.00100004 -5.99369e-08 0)
(0.00100005 -7.08687e-08 0)
(0.00100006 -8.77795e-08 0)
(0.00100008 -1.02844e-07 0)
(0.0010001 -1.29458e-07 0)
(0.00100011 -1.48683e-07 0)
(0.00100014 -1.9108e-07 0)
(0.00100016 -2.11964e-07 0)
(0.0010002 -2.81429e-07 0)
(0.00100021 -2.9526e-07 0)
(0.00100027 -4.1476e-07 0)
(0.001 -2.94788e-09 0)
(0.001 -9.13554e-09 0)
(0.001 -1.56711e-08 0)
(0.001 -2.29127e-08 0)
(0.00100001 -3.07819e-08 0)
(0.00100001 -3.97779e-08 0)
(0.00100001 -4.94402e-08 0)
(0.00100002 -6.09426e-08 0)
(0.00100002 -7.31112e-08 0)
(0.00100003 -8.86106e-08 0)
(0.00100004 -1.04225e-07 0)
(0.00100005 -1.26031e-07 0)
(0.00100006 -1.4603e-07 0)
(0.00100007 -1.77832e-07 0)
(0.00100009 -2.02134e-07 0)
(0.00100011 -2.49957e-07 0)
(0.00100012 -2.7566e-07 0)
(0.00100015 -3.50475e-07 0)
(0.00100016 -3.68029e-07 0)
(0.00100021 -4.92044e-07 0)
(0.001 -3.25397e-09 0)
(0.001 -1.00413e-08 0)
(0.001 -1.71179e-08 0)
(0.001 -2.47622e-08 0)
(0.001 -3.27567e-08 0)
(0.00100001 -4.16387e-08 0)
(0.00100001 -5.09337e-08 0)
(0.00100001 -6.19655e-08 0)
(0.00100002 -7.36097e-08 0)
(0.00100002 -8.86168e-08 0)
(0.00100003 -1.03903e-07 0)
(0.00100004 -1.2551e-07 0)
(0.00100004 -1.45532e-07 0)
(0.00100005 -1.77467e-07 0)
(0.00100006 -2.02152e-07 0)
(0.00100008 -2.50207e-07 0)
(0.00100009 -2.76373e-07 0)
(0.00100011 -3.50882e-07 0)
(0.00100012 -3.68481e-07 0)
(0.00100015 -4.9059e-07 0)
(0.001 -3.43306e-09 0)
(0.001 -1.0555e-08 0)
(0.001 -1.79223e-08 0)
(0.001 -2.58485e-08 0)
(0.001 -3.4135e-08 0)
(0.001 -4.34289e-08 0)
(0.00100001 -5.32943e-08 0)
(0.00100001 -6.51137e-08 0)
(0.00100001 -7.76964e-08 0)
(0.00100001 -9.38433e-08 0)
(0.00100002 -1.10399e-07 0)
(0.00100002 -1.33439e-07 0)
(0.00100003 -1.54976e-07 0)
(0.00100003 -1.88674e-07 0)
(0.00100004 -2.15066e-07 0)
(0.00100005 -2.65113e-07 0)
(0.00100005 -2.929e-07 0)
(0.00100007 -3.69442e-07 0)
(0.00100007 -3.88114e-07 0)
(0.00100009 -5.12293e-07 0)
(0.001 -3.50731e-09 0)
(0.001 -1.07884e-08 0)
(0.001 -1.83213e-08 0)
(0.001 -2.64316e-08 0)
(0.001 -3.49577e-08 0)
(0.001 -4.45365e-08 0)
(0.001 -5.47332e-08 0)
(0.001 -6.6893e-08 0)
(0.001 -7.98318e-08 0)
(0.001 -9.63473e-08 0)
(0.00100001 -1.13296e-07 0)
(0.00100001 -1.3673e-07 0)
(0.00100001 -1.58709e-07 0)
(0.00100001 -1.92804e-07 0)
(0.00100001 -2.19635e-07 0)
(0.00100002 -2.69975e-07 0)
(0.00100002 -2.98151e-07 0)
(0.00100002 -3.74739e-07 0)
(0.00100002 -3.93671e-07 0)
(0.00100003 -5.17235e-07 0)
(0.001 -3.50076e-09 0)
(0.001 -1.07764e-08 0)
(0.001 -1.83231e-08 0)
(0.000999999 -2.64335e-08 0)
(0.000999999 -3.49657e-08 0)
(0.000999999 -4.45399e-08 0)
(0.000999998 -5.47437e-08 0)
(0.000999997 -6.68932e-08 0)
(0.000999996 -7.98364e-08 0)
(0.000999995 -9.6349e-08 0)
(0.000999994 -1.13289e-07 0)
(0.000999993 -1.36733e-07 0)
(0.000999991 -1.58716e-07 0)
(0.000999989 -1.92798e-07 0)
(0.000999987 -2.19621e-07 0)
(0.000999984 -2.69962e-07 0)
(0.000999982 -2.98141e-07 0)
(0.000999978 -3.74728e-07 0)
(0.000999976 -3.9366e-07 0)
(0.00099997 -5.17227e-07 0)
(0.001 -3.41859e-09 0)
(0.001 -1.05346e-08 0)
(0.000999999 -1.79271e-08 0)
(0.000999998 -2.58452e-08 0)
(0.000999997 -3.41488e-08 0)
(0.000999996 -4.34299e-08 0)
(0.000999994 -5.33137e-08 0)
(0.000999992 -6.51128e-08 0)
(0.000999989 -7.76992e-08 0)
(0.000999986 -9.38477e-08 0)
(0.000999983 -1.10382e-07 0)
(0.000999978 -1.33434e-07 0)
(0.000999973 -1.54986e-07 0)
(0.000999967 -1.88664e-07 0)
(0.000999961 -2.15037e-07 0)
(0.000999952 -2.65069e-07 0)
(0.000999946 -2.92864e-07 0)
(0.000999934 -3.69394e-07 0)
(0.00099993 -3.88068e-07 0)
(0.000999911 -5.12229e-07 0)
(0.001 -3.24685e-09 0)
(0.001 -1.00386e-08 0)
(0.000999999 -1.71145e-08 0)
(0.000999998 -2.47494e-08 0)
(0.000999996 -3.27567e-08 0)
(0.000999993 -4.16297e-08 0)
(0.000999991 -5.09399e-08 0)
(0.000999987 -6.19701e-08 0)
(0.000999983 -7.3598e-08 0)
(0.000999977 -8.8622e-08 0)
(0.000999971 -1.03902e-07 0)
(0.000999964 -1.255e-07 0)
(0.000999956 -1.45541e-07 0)
(0.000999945 -1.77482e-07 0)
(0.000999936 -2.02153e-07 0)
(0.000999921 -2.50187e-07 0)
(0.000999911 -2.76365e-07 0)
(0.000999889 -3.50874e-07 0)
(0.000999882 -3.68475e-07 0)
(0.000999851 -4.90573e-07 0)
(0.001 -2.9609e-09 0)
(0.000999999 -9.15135e-09 0)
(0.000999998 -1.56559e-08 0)
(0.000999996 -2.29056e-08 0)
(0.000999994 -3.07557e-08 0)
(0.000999991 -3.97725e-08 0)
(0.000999987 -4.94229e-08 0)
(0.000999982 -6.09597e-08 0)
(0.000999977 -7.3092e-08 0)
(0.000999969 -8.85869e-08 0)
(0.000999962 -1.04222e-07 0)
(0.000999951 -1.26008e-07 0)
(0.000999941 -1.4601e-07 0)
(0.000999926 -1.77817e-07 0)
(0.000999913 -2.02121e-07 0)
(0.000999891 -2.49911e-07 0)
(0.000999878 -2.75621e-07 0)
(0.000999847 -3.50396e-07 0)
(0.000999839 -3.67952e-07 0)
(0.000999792 -4.91901e-07 0)
(0.001 -2.6463e-09 0)
(0.000999999 -7.85527e-09 0)
(0.000999998 -1.27816e-08 0)
(0.000999995 -1.77548e-08 0)
(0.000999991 -2.26308e-08 0)
(0.000999987 -2.81593e-08 0)
(0.000999982 -3.38896e-08 0)
(0.000999975 -4.12624e-08 0)
(0.000999968 -4.90261e-08 0)
(0.000999959 -5.99314e-08 0)
(0.000999949 -7.08782e-08 0)
(0.000999936 -8.77899e-08 0)
(0.000999922 -1.02852e-07 0)
(0.000999903 -1.29472e-07 0)
(0.000999887 -1.48716e-07 0)
(0.00099986 -1.91108e-07 0)
(0.000999841 -2.11991e-07 0)
(0.000999802 -2.81429e-07 0)
(0.000999787 -2.9526e-07 0)
(0.000999731 -4.14741e-07 0)
(0.001 -2.93289e-09 0)
(0.001 -9.38841e-09 0)
(0.000999999 -1.65994e-08 0)
(0.000999997 -2.47915e-08 0)
(0.000999994 -3.35762e-08 0)
(0.00099999 -4.32966e-08 0)
(0.000999984 -5.32977e-08 0)
(0.000999977 -6.48009e-08 0)
(0.000999969 -7.6575e-08 0)
(0.000999958 -9.11293e-08 0)
(0.000999946 -1.05351e-07 0)
(0.00099993 -1.2508e-07 0)
(0.000999915 -1.42467e-07 0)
(0.000999891 -1.70869e-07 0)
(0.000999872 -1.91419e-07 0)
(0.000999837 -2.34821e-07 0)
(0.000999817 -2.56439e-07 0)
(0.000999764 -3.27132e-07 0)
(0.000999752 -3.42039e-07 0)
(0.00099967 -4.64132e-07 0)
(0.001 -2.12834e-10 0)
(0.000999998 -2.87321e-10 0)
(0.000999995 1.64276e-10 0)
(0.000999991 7.25323e-10 0)
(0.000999986 1.32532e-09 0)
(0.00099998 1.31662e-09 0)
(0.000999973 1.00921e-09 0)
(0.000999965 -6.26534e-10 0)
(0.000999955 -2.51635e-09 0)
(0.000999943 -7.00067e-09 0)
(0.00099993 -1.09856e-08 0)
(0.000999912 -2.01832e-08 0)
(0.000999894 -2.69344e-08 0)
(0.000999868 -4.42389e-08 0)
(0.000999845 -5.37495e-08 0)
(0.000999806 -8.54758e-08 0)
(0.000999779 -9.61132e-08 0)
(0.00099972 -1.55248e-07 0)
(0.000999698 -1.61429e-07 0)
(0.000999611 -2.75663e-07 0)
(0.001 -4.01209e-09 0)
(0.001 -1.31797e-08 0)
(0.001 -2.33398e-08 0)
(0.000999998 -3.40449e-08 0)
(0.000999995 -4.46552e-08 0)
(0.000999989 -5.53432e-08 0)
(0.000999983 -6.60179e-08 0)
(0.000999973 -7.7521e-08 0)
(0.000999963 -8.88278e-08 0)
(0.00099995 -1.02376e-07 0)
(0.000999936 -1.15029e-07 0)
(0.000999915 -1.32163e-07 0)
(0.000999896 -1.46329e-07 0)
(0.000999864 -1.70002e-07 0)
(0.000999841 -1.853e-07 0)
(0.000999792 -2.21507e-07 0)
(0.000999767 -2.36164e-07 0)
(0.000999687 -2.97995e-07 0)
(0.000999671 -3.0655e-07 0)
(0.000999539 -4.21959e-07 0)
(0.001 3.98599e-09 0)
(0.000999996 1.20884e-08 0)
(0.000999992 2.02359e-08 0)
(0.000999987 2.79724e-08 0)
(0.000999982 3.51511e-08 0)
(0.000999976 4.14865e-08 0)
(0.000999969 4.76531e-08 0)
(0.000999959 5.29115e-08 0)
(0.000999948 5.83418e-08 0)
(0.000999934 6.22635e-08 0)
(0.000999919 6.69287e-08 0)
(0.000999898 6.85787e-08 0)
(0.000999878 7.27172e-08 0)
(0.000999845 6.99222e-08 0)
(0.00099982 7.40497e-08 0)
(0.000999768 6.16699e-08 0)
(0.000999738 6.70807e-08 0)
(0.000999654 3.17053e-08 0)
(0.000999629 3.97487e-08 0)
(0.000999495 -5.44892e-08 0)
(0.001 -8.75826e-09 0)
(0.001 -2.38918e-08 0)
(0.001 -3.62181e-08 0)
(0.000999997 -4.69866e-08 0)
(0.000999993 -5.71823e-08 0)
(0.000999986 -6.78421e-08 0)
(0.000999979 -7.82177e-08 0)
(0.000999968 -8.93463e-08 0)
(0.000999958 -1.00003e-07 0)
(0.000999942 -1.1186e-07 0)
(0.000999928 -1.22552e-07 0)
(0.000999903 -1.36059e-07 0)
(0.000999886 -1.46482e-07 0)
(0.000999846 -1.63417e-07 0)
(0.000999827 -1.72355e-07 0)
(0.00099976 -1.96604e-07 0)
(0.000999742 -2.01121e-07 0)
(0.000999623 -2.43328e-07 0)
(0.000999618 -2.39359e-07 0)
(0.000999393 -3.31853e-07 0)
)
;

boundaryField
{
    sides
    {
        type            slip;
    }
    inlet
    {
        type            fixedValue;
        value           uniform (0.001 0 0);
    }
    outlet
    {
        type            zeroGradient;
    }
    frontAndBack
    {
        type            empty;
    }
}


// ************************************************************************* //
