/*--------------------------------*- C++ -*----------------------------------*\
  =========                 |
  \\      /  F ield         | OpenFOAM: The Open Source CFD Toolbox
   \\    /   O peration     | Website:  https://openfoam.org
    \\  /    A nd           | Version:  7
     \\/     M anipulation  |
\*---------------------------------------------------------------------------*/
FoamFile
{
    version     2.0;
    format      ascii;
    class       volVectorField;
    location    "62";
    object      U;
}
// * * * * * * * * * * * * * * * * * * * * * * * * * * * * * * * * * * * * * //

dimensions      [0 1 -1 0 0 0 0];

internalField   nonuniform List<vector> 
400
(
(0.0999931 -8.75778e-07 0)
(0.099993 -2.38623e-06 0)
(0.0999931 -3.62036e-06 0)
(0.0999934 -4.70073e-06 0)
(0.0999939 -5.71853e-06 0)
(0.0999947 -6.76989e-06 0)
(0.0999955 -7.8245e-06 0)
(0.0999966 -8.92571e-06 0)
(0.0999978 -9.99068e-06 0)
(0.0999996 -1.11816e-05 0)
(0.100001 -1.22501e-05 0)
(0.100004 -1.35999e-05 0)
(0.100006 -1.46409e-05 0)
(0.10001 -1.63344e-05 0)
(0.100013 -1.72279e-05 0)
(0.10002 -1.96534e-05 0)
(0.100022 -2.01055e-05 0)
(0.100035 -2.43259e-05 0)
(0.100036 -2.39306e-05 0)
(0.10006 -3.31746e-05 0)
(0.0999943 4.00414e-07 0)
(0.0999947 1.21225e-06 0)
(0.0999952 2.02217e-06 0)
(0.0999957 2.79216e-06 0)
(0.0999963 3.51201e-06 0)
(0.099997 4.16003e-06 0)
(0.0999978 4.7647e-06 0)
(0.0999988 5.30199e-06 0)
(0.1 5.83876e-06 0)
(0.100002 6.22596e-06 0)
(0.100003 6.69335e-06 0)
(0.100006 6.85766e-06 0)
(0.100008 7.27135e-06 0)
(0.100012 6.9895e-06 0)
(0.100014 7.40245e-06 0)
(0.10002 6.16191e-06 0)
(0.100024 6.70515e-06 0)
(0.100033 3.16348e-06 0)
(0.100036 3.96913e-06 0)
(0.10005 -5.46265e-06 0)
(0.0999948 -3.99776e-07 0)
(0.0999947 -1.31595e-06 0)
(0.0999947 -2.33191e-06 0)
(0.0999949 -3.40215e-06 0)
(0.0999953 -4.46504e-06 0)
(0.0999959 -5.53951e-06 0)
(0.0999967 -6.60018e-06 0)
(0.0999977 -7.75339e-06 0)
(0.0999988 -8.88973e-06 0)
(0.1 -1.02408e-05 0)
(0.100002 -1.15024e-05 0)
(0.100004 -1.32145e-05 0)
(0.100006 -1.46286e-05 0)
(0.10001 -1.69968e-05 0)
(0.100012 -1.85248e-05 0)
(0.100018 -2.21487e-05 0)
(0.100021 -2.36138e-05 0)
(0.100029 -2.98036e-05 0)
(0.100032 -3.06594e-05 0)
(0.100046 -4.22084e-05 0)
(0.0999956 -2.23799e-08 0)
(0.0999958 -2.70529e-08 0)
(0.0999961 2.37678e-08 0)
(0.0999966 8.07842e-08 0)
(0.0999972 1.39925e-07 0)
(0.0999978 1.29544e-07 0)
(0.0999985 1.01331e-07 0)
(0.0999995 -6.94322e-08 0)
(0.100001 -2.56007e-07 0)
(0.100002 -7.00819e-07 0)
(0.100003 -1.09847e-06 0)
(0.100005 -2.01726e-06 0)
(0.100007 -2.69004e-06 0)
(0.10001 -4.41973e-06 0)
(0.100013 -5.36882e-06 0)
(0.100017 -8.54292e-06 0)
(0.10002 -9.60983e-06 0)
(0.100027 -1.55289e-05 0)
(0.100029 -1.61515e-05 0)
(0.100039 -2.75788e-05 0)
(0.0999963 -2.92442e-07 0)
(0.0999963 -9.36545e-07 0)
(0.0999964 -1.65479e-06 0)
(0.0999966 -2.47361e-06 0)
(0.0999969 -3.35165e-06 0)
(0.0999974 -4.32874e-06 0)
(0.099998 -5.32994e-06 0)
(0.0999988 -6.48542e-06 0)
(0.0999997 -7.65848e-06 0)
(0.100001 -9.11359e-06 0)
(0.100002 -1.05358e-05 0)
(0.100004 -1.25079e-05 0)
(0.100006 -1.42441e-05 0)
(0.100008 -1.70838e-05 0)
(0.100011 -1.91361e-05 0)
(0.100014 -2.3479e-05 0)
(0.100017 -2.56436e-05 0)
(0.100022 -3.27216e-05 0)
(0.100024 -3.42159e-05 0)
(0.100033 -4.64357e-05 0)
(0.099997 -2.6098e-07 0)
(0.099997 -7.80542e-07 0)
(0.0999972 -1.27354e-06 0)
(0.0999975 -1.77076e-06 0)
(0.0999979 -2.2613e-06 0)
(0.0999984 -2.81438e-06 0)
(0.099999 -3.3917e-06 0)
(0.0999997 -4.12914e-06 0)
(0.1 -4.90368e-06 0)
(0.100002 -5.99594e-06 0)
(0.100003 -7.08799e-06 0)
(0.100004 -8.77587e-06 0)
(0.100006 -1.02784e-05 0)
(0.100008 -1.29374e-05 0)
(0.10001 -1.48597e-05 0)
(0.100013 -1.91006e-05 0)
(0.100015 -2.11943e-05 0)
(0.100019 -2.81438e-05 0)
(0.100021 -2.95346e-05 0)
(0.100027 -4.14853e-05 0)
(0.0999976 -2.9295e-07 0)
(0.0999977 -9.09643e-07 0)
(0.0999978 -1.56161e-06 0)
(0.099998 -2.28621e-06 0)
(0.0999983 -3.07446e-06 0)
(0.0999986 -3.97588e-06 0)
(0.099999 -4.94436e-06 0)
(0.0999996 -6.09737e-06 0)
(0.1 -7.31249e-06 0)
(0.100001 -8.86336e-06 0)
(0.100002 -1.04237e-05 0)
(0.100003 -1.26007e-05 0)
(0.100004 -1.45977e-05 0)
(0.100006 -1.77758e-05 0)
(0.100007 -2.02048e-05 0)
(0.10001 -2.49874e-05 0)
(0.100011 -2.7563e-05 0)
(0.100015 -3.50481e-05 0)
(0.100016 -3.68117e-05 0)
(0.100021 -4.92143e-05 0)
(0.0999983 -3.23399e-07 0)
(0.0999984 -9.99477e-07 0)
(0.0999984 -1.70677e-06 0)
(0.0999986 -2.47125e-06 0)
(0.0999988 -3.27394e-06 0)
(0.099999 -4.16372e-06 0)
(0.0999994 -5.09669e-06 0)
(0.0999998 -6.20064e-06 0)
(0.1 -7.36495e-06 0)
(0.100001 -8.86571e-06 0)
(0.100002 -1.03909e-05 0)
(0.100002 -1.25478e-05 0)
(0.100003 -1.45467e-05 0)
(0.100004 -1.77373e-05 0)
(0.100005 -2.02042e-05 0)
(0.100007 -2.50103e-05 0)
(0.100008 -2.76338e-05 0)
(0.100011 -3.50902e-05 0)
(0.100012 -3.68603e-05 0)
(0.100015 -4.90711e-05 0)
(0.099999 -3.41572e-07 0)
(0.099999 -1.0508e-06 0)
(0.0999991 -1.78705e-06 0)
(0.0999992 -2.58026e-06 0)
(0.0999993 -3.41146e-06 0)
(0.0999994 -4.34314e-06 0)
(0.0999996 -5.33271e-06 0)
(0.0999999 -6.515e-06 0)
(0.1 -7.77436e-06 0)
(0.100001 -9.38783e-06 0)
(0.100001 -1.10406e-05 0)
(0.100001 -1.33424e-05 0)
(0.100002 -1.54918e-05 0)
(0.100003 -1.88574e-05 0)
(0.100003 -2.14951e-05 0)
(0.100004 -2.65002e-05 0)
(0.100005 -2.92853e-05 0)
(0.100006 -3.69451e-05 0)
(0.100007 -3.88232e-05 0)
(0.100009 -5.12418e-05 0)
(0.0999997 -3.49316e-07 0)
(0.0999997 -1.07453e-06 0)
(0.0999997 -1.82647e-06 0)
(0.0999997 -2.6382e-06 0)
(0.0999998 -3.49288e-06 0)
(0.0999998 -4.45377e-06 0)
(0.0999999 -5.47651e-06 0)
(0.1 -6.69373e-06 0)
(0.1 -7.98856e-06 0)
(0.1 -9.63857e-06 0)
(0.1 -1.13309e-05 0)
(0.1 -1.36715e-05 0)
(0.100001 -1.58643e-05 0)
(0.100001 -1.92695e-05 0)
(0.100001 -2.19517e-05 0)
(0.100001 -2.69867e-05 0)
(0.100002 -2.98108e-05 0)
(0.100002 -3.74746e-05 0)
(0.100002 -3.93787e-05 0)
(0.100003 -5.17359e-05 0)
(0.1 -3.48951e-07 0)
(0.1 -1.07348e-06 0)
(0.1 -1.82664e-06 0)
(0.1 -2.63783e-06 0)
(0.1 -3.49335e-06 0)
(0.1 -4.45364e-06 0)
(0.1 -5.47706e-06 0)
(0.1 -6.69411e-06 0)
(0.0999999 -7.98866e-06 0)
(0.0999998 -9.63943e-06 0)
(0.0999997 -1.13307e-05 0)
(0.0999995 -1.36712e-05 0)
(0.0999993 -1.58654e-05 0)
(0.0999991 -1.927e-05 0)
(0.0999989 -2.19509e-05 0)
(0.0999986 -2.6986e-05 0)
(0.0999983 -2.98106e-05 0)
(0.0999979 -3.74734e-05 0)
(0.0999977 -3.93763e-05 0)
(0.0999971 -5.17343e-05 0)
(0.100001 -3.40644e-07 0)
(0.100001 -1.04962e-06 0)
(0.100001 -1.78696e-06 0)
(0.100001 -2.57915e-06 0)
(0.100001 -3.41167e-06 0)
(0.100001 -4.34273e-06 0)
(0.1 -5.33344e-06 0)
(0.1 -6.51613e-06 0)
(0.0999998 -7.7742e-06 0)
(0.0999995 -9.38923e-06 0)
(0.0999991 -1.10406e-05 0)
(0.0999986 -1.33413e-05 0)
(0.099998 -1.54929e-05 0)
(0.0999973 -1.88579e-05 0)
(0.0999967 -2.14937e-05 0)
(0.0999957 -2.64978e-05 0)
(0.099995 -2.92835e-05 0)
(0.0999936 -3.69397e-05 0)
(0.0999931 -3.88158e-05 0)
(0.0999912 -5.12336e-05 0)
(0.100002 -3.23252e-07 0)
(0.100002 -1.0001e-06 0)
(0.100002 -1.7055e-06 0)
(0.100001 -2.47036e-06 0)
(0.100001 -3.27226e-06 0)
(0.100001 -4.16371e-06 0)
(0.100001 -5.09637e-06 0)
(0.1 -6.2026e-06 0)
(0.0999997 -7.36493e-06 0)
(0.0999991 -8.86576e-06 0)
(0.0999985 -1.03919e-05 0)
(0.0999976 -1.25478e-05 0)
(0.0999968 -1.45473e-05 0)
(0.0999956 -1.77385e-05 0)
(0.0999945 -2.02054e-05 0)
(0.0999929 -2.50106e-05 0)
(0.0999917 -2.76346e-05 0)
(0.0999894 -3.50887e-05 0)
(0.0999885 -3.68575e-05 0)
(0.0999852 -4.90683e-05 0)
(0.100002 -2.94444e-07 0)
(0.100002 -9.10993e-07 0)
(0.100002 -1.56049e-06 0)
(0.100002 -2.28625e-06 0)
(0.100002 -3.07187e-06 0)
(0.100001 -3.97711e-06 0)
(0.100001 -4.94322e-06 0)
(0.1 -6.09865e-06 0)
(0.0999998 -7.31394e-06 0)
(0.099999 -8.86094e-06 0)
(0.0999981 -1.04226e-05 0)
(0.0999969 -1.25995e-05 0)
(0.0999958 -1.45958e-05 0)
(0.0999941 -1.77735e-05 0)
(0.0999927 -2.02034e-05 0)
(0.0999903 -2.49836e-05 0)
(0.0999887 -2.75597e-05 0)
(0.0999854 -3.50407e-05 0)
(0.0999843 -3.68045e-05 0)
(0.0999793 -4.92003e-05 0)
(0.100003 -2.62585e-07 0)
(0.100003 -7.81196e-07 0)
(0.100003 -1.27442e-06 0)
(0.100002 -1.77162e-06 0)
(0.100002 -2.26227e-06 0)
(0.100002 -2.81616e-06 0)
(0.100001 -3.39257e-06 0)
(0.1 -4.12849e-06 0)
(0.0999995 -4.90836e-06 0)
(0.0999985 -5.99767e-06 0)
(0.0999974 -7.08837e-06 0)
(0.0999959 -8.77688e-06 0)
(0.0999944 -1.02795e-05 0)
(0.0999923 -1.29385e-05 0)
(0.0999904 -1.48623e-05 0)
(0.0999874 -1.91028e-05 0)
(0.0999853 -2.11971e-05 0)
(0.0999811 -2.81455e-05 0)
(0.0999792 -2.95372e-05 0)
(0.0999733 -4.14847e-05 0)
(0.100004 -2.91084e-07 0)
(0.100004 -9.35278e-07 0)
(0.100004 -1.65702e-06 0)
(0.100003 -2.47485e-06 0)
(0.100003 -3.35588e-06 0)
(0.100003 -4.32524e-06 0)
(0.100002 -5.3321e-06 0)
(0.100001 -6.47901e-06 0)
(0.1 -7.65731e-06 0)
(0.0999991 -9.11587e-06 0)
(0.0999978 -1.05362e-05 0)
(0.099996 -1.25068e-05 0)
(0.0999943 -1.42431e-05 0)
(0.0999916 -1.70812e-05 0)
(0.0999895 -1.91353e-05 0)
(0.0999856 -2.34758e-05 0)
(0.0999833 -2.56418e-05 0)
(0.0999776 -3.27146e-05 0)
(0.0999759 -3.42118e-05 0)
(0.0999673 -4.64212e-05 0)
(0.100004 -1.85086e-08 0)
(0.100004 -2.52401e-08 0)
(0.100004 1.94838e-08 0)
(0.100003 7.68317e-08 0)
(0.100003 1.35905e-07 0)
(0.100002 1.34506e-07 0)
(0.100001 9.81965e-08 0)
(0.100001 -6.76028e-08 0)
(0.0999994 -2.50686e-07 0)
(0.0999981 -7.0194e-07 0)
(0.0999966 -1.10045e-06 0)
(0.0999946 -2.01776e-06 0)
(0.0999926 -2.69017e-06 0)
(0.0999897 -4.41852e-06 0)
(0.0999871 -5.36875e-06 0)
(0.0999828 -8.54191e-06 0)
(0.0999798 -9.60936e-06 0)
(0.0999734 -1.55258e-05 0)
(0.0999706 -1.61497e-05 0)
(0.0999614 -2.75733e-05 0)
(0.100005 -4.00665e-07 0)
(0.100005 -1.31654e-06 0)
(0.100005 -2.33113e-06 0)
(0.100005 -3.40255e-06 0)
(0.100005 -4.46139e-06 0)
(0.100004 -5.53811e-06 0)
(0.100003 -6.59958e-06 0)
(0.100002 -7.76154e-06 0)
(0.100001 -8.88757e-06 0)
(0.0999996 -1.02386e-05 0)
(0.0999981 -1.15038e-05 0)
(0.0999958 -1.32161e-05 0)
(0.0999936 -1.46311e-05 0)
(0.0999902 -1.69972e-05 0)
(0.0999875 -1.85265e-05 0)
(0.0999821 -2.21477e-05 0)
(0.0999791 -2.36158e-05 0)
(0.0999706 -2.98005e-05 0)
(0.0999683 -3.06599e-05 0)
(0.0999543 -4.22009e-05 0)
(0.100006 3.96711e-07 0)
(0.100005 1.20918e-06 0)
(0.100005 2.028e-06 0)
(0.100004 2.79867e-06 0)
(0.100004 3.51578e-06 0)
(0.100003 4.14731e-06 0)
(0.100002 4.77092e-06 0)
(0.100001 5.29849e-06 0)
(0.1 5.83323e-06 0)
(0.0999984 6.22874e-06 0)
(0.0999967 6.69504e-06 0)
(0.0999943 6.85827e-06 0)
(0.0999921 7.27132e-06 0)
(0.0999885 6.99224e-06 0)
(0.0999856 7.4057e-06 0)
(0.0999799 6.16828e-06 0)
(0.0999764 6.70932e-06 0)
(0.0999674 3.17173e-06 0)
(0.0999641 3.97506e-06 0)
(0.09995 -5.44995e-06 0)
(0.100007 -8.76668e-07 0)
(0.100007 -2.3885e-06 0)
(0.100007 -3.61901e-06 0)
(0.100007 -4.69828e-06 0)
(0.100006 -5.72201e-06 0)
(0.100005 -6.78551e-06 0)
(0.100005 -7.82415e-06 0)
(0.100003 -8.92801e-06 0)
(0.100002 -1.00015e-05 0)
(0.1 -1.11872e-05 0)
(0.0999989 -1.22555e-05 0)
(0.0999962 -1.36063e-05 0)
(0.0999941 -1.46479e-05 0)
(0.0999899 -1.63406e-05 0)
(0.0999875 -1.72342e-05 0)
(0.0999803 -1.96596e-05 0)
(0.0999779 -2.01128e-05 0)
(0.0999653 -2.43344e-05 0)
(0.0999638 -2.39391e-05 0)
(0.0999402 -3.31878e-05 0)
)
;

boundaryField
{
    sides
    {
        type            calculated;
        value           nonuniform List<vector> 
40
(
(0.100007 0 0)
(0.100007 0 0)
(0.100007 0 0)
(0.100007 0 0)
(0.100006 0 0)
(0.100005 0 0)
(0.100005 0 0)
(0.100003 0 0)
(0.100002 0 0)
(0.1 0 0)
(0.0999989 0 0)
(0.0999962 0 0)
(0.0999941 0 0)
(0.0999899 0 0)
(0.0999875 0 0)
(0.0999803 0 0)
(0.0999779 0 0)
(0.0999653 0 0)
(0.0999638 0 0)
(0.0999402 0 0)
(0.0999931 0 0)
(0.099993 0 0)
(0.0999931 0 0)
(0.0999934 0 0)
(0.0999939 0 0)
(0.0999947 0 0)
(0.0999955 0 0)
(0.0999966 0 0)
(0.0999978 0 0)
(0.0999996 0 0)
(0.100001 0 0)
(0.100004 0 0)
(0.100006 0 0)
(0.10001 0 0)
(0.100013 0 0)
(0.10002 0 0)
(0.100022 0 0)
(0.100035 0 0)
(0.100036 0 0)
(0.10006 0 0)
)
;
    }
    inlet
    {
        type            calculated;
        value           nonuniform List<vector> 
20
(
(0.0999931 0 0)
(0.0999943 0 0)
(0.0999948 0 0)
(0.0999956 0 0)
(0.0999963 0 0)
(0.0999969 0 0)
(0.0999976 0 0)
(0.0999983 0 0)
(0.099999 0 0)
(0.0999997 0 0)
(0.1 0 0)
(0.100001 0 0)
(0.100002 0 0)
(0.100002 0 0)
(0.100003 0 0)
(0.100004 0 0)
(0.100004 0 0)
(0.100005 0 0)
(0.100006 0 0)
(0.100007 0 0)
)
;
    }
    outlet
    {
        type            calculated;
        value           nonuniform List<vector> 
20
(
(0.100061 -3.31749e-05 0)
(0.100051 -5.46267e-06 0)
(0.100046 -4.22086e-05 0)
(0.100039 -2.75789e-05 0)
(0.100033 -4.64358e-05 0)
(0.100027 -4.14854e-05 0)
(0.100021 -4.92144e-05 0)
(0.100015 -4.90712e-05 0)
(0.100009 -5.12418e-05 0)
(0.100003 -5.17359e-05 0)
(0.099997 -5.17343e-05 0)
(0.0999911 -5.12336e-05 0)
(0.0999851 -4.90682e-05 0)
(0.0999792 -4.92002e-05 0)
(0.0999731 -4.14847e-05 0)
(0.099967 -4.6421e-05 0)
(0.0999611 -2.75732e-05 0)
(0.0999539 -4.22007e-05 0)
(0.0999495 -5.44993e-06 0)
(0.0999393 -3.31875e-05 0)
)
;
    }
    frontAndBack
    {
        type            empty;
    }
}


// ************************************************************************* //
