/*--------------------------------*- C++ -*----------------------------------*\
  =========                 |
  \\      /  F ield         | OpenFOAM: The Open Source CFD Toolbox
   \\    /   O peration     | Website:  https://openfoam.org
    \\  /    A nd           | Version:  7
     \\/     M anipulation  |
\*---------------------------------------------------------------------------*/
FoamFile
{
    version     2.0;
    format      ascii;
    class       volVectorField;
    location    "77";
    object      ddt0(hU);
}
// * * * * * * * * * * * * * * * * * * * * * * * * * * * * * * * * * * * * * //

dimensions      [0 2 -2 0 0 0 0];

internalField   nonuniform List<vector> 
400
(
(-8.67813e-11 -9.71825e-11 0)
(-1.53752e-10 7.56944e-12 0)
(5.89837e-11 5.88879e-11 0)
(1.63515e-10 -1.50882e-10 0)
(-2.00859e-10 -2.69279e-10 0)
(-7.0564e-10 8.41251e-10 0)
(1.1132e-09 -6.71982e-10 0)
(-1.57182e-09 -1.89476e-09 0)
(-1.03425e-09 -1.12971e-10 0)
(-4.51819e-10 1.34545e-11 0)
(-3.76439e-10 1.47581e-10 0)
(-5.47177e-12 1.42494e-10 0)
(1.22385e-10 4.95371e-11 0)
(1.12167e-10 -1.97648e-11 0)
(6.85607e-11 -5.35477e-11 0)
(8.34364e-12 -6.11116e-11 0)
(-5.11993e-11 -2.16817e-11 0)
(-4.32288e-11 1.74084e-11 0)
(1.16675e-11 8.35427e-11 0)
(-3.52589e-11 7.05475e-11 0)
(-1.24528e-11 -1.5857e-10 0)
(5.71347e-12 3.03494e-11 0)
(-5.9406e-11 5.60309e-11 0)
(7.09683e-11 -1.38448e-11 0)
(1.82311e-10 -3.72886e-10 0)
(1.15984e-09 8.54949e-10 0)
(-3.79828e-10 -1.16797e-09 0)
(6.08168e-10 -1.21096e-09 0)
(1.11494e-09 -1.45977e-10 0)
(2.98744e-11 -1.42137e-10 0)
(-7.14087e-11 1.5175e-10 0)
(-4.52149e-11 2.43501e-10 0)
(-6.28744e-11 1.49881e-10 0)
(-4.69816e-11 4.86868e-11 0)
(-3.13175e-11 -2.77738e-11 0)
(-2.56803e-11 -8.47976e-11 0)
(-2.48304e-11 -6.2721e-11 0)
(-7.83797e-12 4.99678e-12 0)
(1.64387e-11 6.73477e-11 0)
(-5.34635e-11 6.30519e-11 0)
(3.89674e-11 -5.85277e-11 0)
(1.22942e-10 -4.005e-11 0)
(3.74051e-11 -9.72823e-11 0)
(7.69094e-11 1.31113e-10 0)
(1.88046e-12 -1.38297e-10 0)
(-2.46706e-11 -1.60871e-12 0)
(-1.08542e-09 -2.04476e-10 0)
(5.94085e-10 1.1241e-09 0)
(1.08043e-10 2.27888e-10 0)
(2.38554e-11 -1.38578e-11 0)
(2.43096e-10 8.57895e-11 0)
(4.85767e-11 5.30898e-11 0)
(-1.23962e-10 -3.52662e-11 0)
(-1.26846e-10 -8.84216e-11 0)
(-1.03071e-10 -1.20822e-10 0)
(-4.10942e-11 -1.27901e-10 0)
(3.03436e-11 -3.06774e-11 0)
(5.6935e-11 6.01325e-11 0)
(2.28736e-11 1.73045e-10 0)
(-1.2491e-10 1.49386e-10 0)
(4.08252e-11 4.13719e-11 0)
(4.73084e-11 -7.04708e-11 0)
(5.96386e-11 -1.35607e-10 0)
(-1.7329e-11 -1.0077e-10 0)
(1.4846e-10 -3.26173e-11 0)
(-1.41147e-10 -3.06205e-10 0)
(6.15949e-13 4.30661e-10 0)
(7.50975e-10 4.75891e-10 0)
(-2.83377e-10 6.36639e-11 0)
(-4.1803e-11 2.20819e-10 0)
(1.52709e-10 1.31757e-10 0)
(-1.22105e-10 -9.02042e-11 0)
(-2.10137e-10 -1.75552e-10 0)
(-1.52916e-10 -1.9774e-10 0)
(-1.01113e-10 -1.95464e-10 0)
(-1.92269e-11 -1.41859e-10 0)
(7.93183e-11 -4.10742e-12 0)
(9.7656e-11 4.40481e-11 0)
(2.18163e-11 1.42444e-10 0)
(-1.32476e-10 1.58177e-10 0)
(3.98941e-11 3.7081e-11 0)
(-2.66656e-11 -7.28716e-11 0)
(3.08809e-11 -9.07306e-11 0)
(-1.07792e-10 -2.17475e-10 0)
(1.27372e-10 9.93723e-11 0)
(-2.09676e-10 -3.41407e-10 0)
(4.10909e-10 3.55195e-10 0)
(-9.68779e-11 1.04137e-12 0)
(-2.30506e-10 -4.37642e-11 0)
(2.93271e-10 2.3393e-10 0)
(-5.45376e-11 -2.03371e-11 0)
(-2.46585e-10 -1.9997e-10 0)
(-1.69612e-10 -2.00838e-10 0)
(-1.10802e-10 -2.01972e-10 0)
(-4.95048e-11 -1.90929e-10 0)
(3.65964e-11 -1.11792e-10 0)
(8.67133e-11 2.22052e-11 0)
(7.47993e-11 2.23883e-12 0)
(1.35361e-11 5.59314e-11 0)
(-1.02816e-10 1.22502e-10 0)
(-7.25479e-13 -1.10073e-11 0)
(-5.02277e-11 -1.20534e-10 0)
(1.47046e-12 -8.57052e-11 0)
(-1.21421e-11 -1.99792e-10 0)
(7.469e-11 2.65006e-11 0)
(6.60442e-12 -3.71552e-11 0)
(2.64092e-10 2.07986e-10 0)
(-2.21407e-10 -7.46954e-11 0)
(1.69606e-10 2.71171e-10 0)
(6.75385e-11 1.03914e-10 0)
(-3.60298e-10 -1.93865e-10 0)
(-2.22535e-10 -2.08975e-10 0)
(-6.06169e-11 -2.02905e-10 0)
(-5.50449e-11 -2.05254e-10 0)
(1.57654e-11 -1.67431e-10 0)
(1.14951e-10 -9.72794e-11 0)
(8.61364e-11 3.24259e-11 0)
(1.12446e-11 8.2035e-13 0)
(5.82283e-12 9.00497e-11 0)
(-1.54114e-11 1.66263e-10 0)
(-3.91177e-11 -4.02225e-11 0)
(-3.15991e-11 -8.83825e-11 0)
(-4.30183e-11 -1.20031e-10 0)
(6.0831e-11 -6.79204e-11 0)
(-1.40696e-11 -1.61083e-10 0)
(1.28894e-10 7.06105e-11 0)
(3.16442e-11 -1.37795e-11 0)
(-6.69304e-12 3.97909e-11 0)
(1.42889e-10 1.87863e-10 0)
(-2.55294e-10 -1.16299e-10 0)
(-2.33361e-10 -1.28881e-10 0)
(3.00854e-11 -4.75081e-11 0)
(5.88242e-11 -1.50436e-10 0)
(1.21022e-11 -1.68781e-10 0)
(2.87753e-11 -9.4885e-11 0)
(5.40834e-11 -9.3613e-11 0)
(-2.50085e-11 -3.4838e-11 0)
(-1.32549e-10 -1.98699e-11 0)
(-7.89317e-11 1.37162e-10 0)
(6.30312e-11 2.09132e-10 0)
(-3.96558e-11 -6.97515e-11 0)
(1.27772e-11 -5.97331e-11 0)
(-4.02206e-11 -1.57077e-10 0)
(8.60154e-11 -2.91873e-11 0)
(-3.91004e-12 -1.12614e-10 0)
(1.45994e-10 8.47108e-11 0)
(-6.84291e-11 1.04192e-11 0)
(9.51848e-11 1.60775e-10 0)
(-7.59404e-11 7.57435e-11 0)
(-2.38494e-10 -1.14465e-11 0)
(7.07048e-11 7.82986e-11 0)
(5.07217e-11 -2.07532e-12 0)
(-1.35332e-11 -1.84091e-10 0)
(9.9034e-11 -2.07223e-10 0)
(8.33414e-11 -1.39902e-10 0)
(-2.54318e-12 -1.66591e-10 0)
(-6.08897e-11 -1.05011e-10 0)
(-1.05654e-10 -1.39196e-12 0)
(-7.63826e-11 2.89484e-10 0)
(1.58422e-11 3.2015e-10 0)
(1.12766e-11 -4.37265e-11 0)
(3.11696e-11 -1.08779e-10 0)
(2.0174e-12 -1.18784e-10 0)
(3.93506e-11 -1.29273e-10 0)
(2.29296e-11 -2.92659e-11 0)
(3.17051e-11 1.46467e-11 0)
(-6.85454e-11 6.6167e-11 0)
(3.18184e-11 1.64068e-10 0)
(-8.57684e-11 4.17728e-11 0)
(8.70334e-12 1.85962e-10 0)
(1.31497e-10 1.31051e-10 0)
(-2.65071e-11 -5.87504e-11 0)
(-1.76115e-11 -1.23818e-10 0)
(1.1814e-10 -1.94526e-10 0)
(4.94291e-11 -2.63641e-10 0)
(-9.36573e-11 -2.87649e-10 0)
(-1.02232e-10 -1.48554e-10 0)
(-4.31691e-11 6.47211e-12 0)
(-2.28894e-11 3.23256e-10 0)
(-3.74887e-11 3.50953e-10 0)
(2.00071e-11 -1.97909e-11 0)
(-1.23024e-11 -1.36396e-10 0)
(5.52389e-11 -9.80406e-11 0)
(-4.51811e-12 -1.66917e-10 0)
(2.61927e-11 -5.68846e-11 0)
(-8.8983e-11 -3.98108e-11 0)
(-2.35022e-11 7.64521e-11 0)
(-8.0484e-11 1.46227e-10 0)
(2.72666e-11 8.49334e-11 0)
(1.35072e-10 1.84039e-10 0)
(-1.08549e-11 3.66522e-11 0)
(1.8959e-11 -1.28716e-10 0)
(1.80194e-11 -1.56742e-10 0)
(-1.00733e-10 -2.59727e-10 0)
(-9.46518e-11 -3.61024e-10 0)
(-1.86655e-11 -3.32793e-10 0)
(2.84623e-11 -1.15697e-10 0)
(6.81215e-11 3.14306e-11 0)
(5.22285e-11 3.01748e-10 0)
(-7.55772e-11 3.304e-10 0)
(1.35822e-11 -5.09559e-11 0)
(-2.14584e-11 -5.01387e-11 0)
(6.86002e-11 -1.28954e-10 0)
(-2.68059e-11 -1.25902e-10 0)
(2.31475e-11 -1.54948e-10 0)
(-1.14996e-10 -5.08558e-11 0)
(2.7767e-12 2.37278e-11 0)
(-1.08484e-10 1.14133e-10 0)
(4.89672e-11 1.34494e-10 0)
(1.59224e-10 2.47397e-11 0)
(-5.51887e-11 -3.49048e-11 0)
(3.73059e-11 -1.29329e-10 0)
(3.21816e-11 -2.89197e-10 0)
(-1.65131e-10 -3.36934e-10 0)
(-1.22022e-10 -2.87612e-10 0)
(3.25537e-11 -2.37802e-10 0)
(9.5292e-11 -7.3871e-11 0)
(1.06871e-10 -3.07788e-12 0)
(5.8215e-11 2.10128e-10 0)
(-7.53359e-11 2.75284e-10 0)
(1.34735e-11 -2.38922e-11 0)
(2.52074e-11 -3.44909e-11 0)
(1.83536e-11 -1.60244e-10 0)
(-2.76697e-11 -1.27213e-10 0)
(1.12162e-11 -1.93936e-10 0)
(-2.87182e-11 -3.5284e-11 0)
(-1.54642e-11 4.43301e-11 0)
(-1.99292e-14 1.02778e-10 0)
(-5.06167e-11 2.24251e-10 0)
(1.10179e-10 -3.48432e-11 0)
(7.80608e-11 -9.40017e-11 0)
(-5.10563e-11 -9.6985e-11 0)
(-2.97796e-11 -2.81124e-10 0)
(1.25975e-11 -3.16201e-10 0)
(-1.28193e-11 -2.18126e-10 0)
(-2.54807e-11 -1.58598e-10 0)
(4.59029e-11 -2.27332e-11 0)
(1.20266e-10 -2.57557e-11 0)
(8.83601e-11 1.09408e-10 0)
(-1.81523e-11 2.09551e-10 0)
(-4.25946e-11 3.53379e-11 0)
(1.3539e-11 -1.04401e-10 0)
(-4.96622e-11 -1.36354e-10 0)
(2.31281e-11 -2.19404e-10 0)
(-2.37338e-11 -9.02595e-11 0)
(9.56004e-11 -3.90514e-11 0)
(-8.51941e-11 1.75505e-10 0)
(1.04224e-10 1.28796e-10 0)
(-1.18874e-10 2.96711e-10 0)
(-1.04986e-10 1.50186e-10 0)
(1.96899e-10 -1.08861e-10 0)
(4.72532e-11 -1.5538e-10 0)
(-3.09467e-11 -1.93363e-10 0)
(8.56962e-11 -2.39419e-10 0)
(4.68703e-11 -2.3302e-10 0)
(-4.398e-11 -1.54603e-10 0)
(-2.23158e-11 2.67865e-11 0)
(5.80399e-12 6.83173e-12 0)
(5.49082e-12 1.0288e-10 0)
(7.2793e-11 1.91219e-10 0)
(-6.20781e-11 1.29209e-11 0)
(-4.73379e-11 -1.07585e-10 0)
(-9.16611e-11 -1.11549e-10 0)
(4.05332e-11 -2.12232e-10 0)
(-6.10003e-11 3.20874e-11 0)
(1.61062e-10 -1.315e-10 0)
(-6.39543e-11 1.53584e-10 0)
(6.50976e-11 7.68938e-11 0)
(5.5319e-11 9.60419e-11 0)
(-3.11477e-10 2.95614e-10 0)
(-6.32227e-11 5.6492e-11 0)
(1.29229e-10 -1.44342e-10 0)
(9.36078e-11 -1.36403e-10 0)
(7.24339e-11 -1.58627e-10 0)
(4.33228e-11 -1.95106e-10 0)
(1.43012e-11 -1.52037e-10 0)
(-2.87678e-11 -8.67079e-12 0)
(-7.2339e-11 -3.03311e-12 0)
(-2.48561e-11 1.29955e-10 0)
(1.38462e-10 2.06684e-10 0)
(-1.29779e-11 -5.99853e-11 0)
(-7.366e-11 -7.63005e-11 0)
(-6.73641e-11 -1.05757e-10 0)
(-4.19427e-11 -2.20592e-11 0)
(-8.44012e-11 -7.89182e-12 0)
(1.24722e-11 -3.8236e-11 0)
(6.86742e-11 6.69084e-11 0)
(-1.67548e-10 2.30533e-10 0)
(3.15785e-10 -8.11622e-11 0)
(2.88276e-11 1.65164e-10 0)
(-2.17432e-10 1.86664e-10 0)
(3.27952e-11 -4.71973e-11 0)
(1.52403e-10 -1.69016e-10 0)
(7.60515e-11 -1.97246e-10 0)
(2.98089e-11 -1.85916e-10 0)
(-1.49385e-11 -1.58891e-10 0)
(-9.57796e-11 -3.99309e-11 0)
(-1.28739e-10 3.53007e-11 0)
(-3.98184e-11 2.53462e-10 0)
(1.54168e-10 2.70821e-10 0)
(5.64382e-11 -1.47106e-10 0)
(-4.01693e-11 -4.27854e-11 0)
(-1.00622e-12 -3.19758e-11 0)
(-1.3019e-10 1.14497e-10 0)
(9.37922e-12 -2.25512e-10 0)
(-1.93838e-10 1.86769e-10 0)
(3.57668e-10 -3.56355e-10 0)
(-3.89499e-10 3.27857e-10 0)
(6.09877e-11 -3.04721e-11 0)
(3.74935e-10 -1.60826e-10 0)
(-8.46019e-11 6.78534e-11 0)
(-1.17389e-10 4.37629e-11 0)
(4.04995e-11 -1.02667e-10 0)
(7.27521e-11 -1.57632e-10 0)
(6.69514e-11 -1.34126e-10 0)
(1.85655e-11 -1.37058e-10 0)
(-3.91709e-11 -6.46146e-11 0)
(-4.48733e-11 3.03847e-11 0)
(-1.83023e-11 2.13428e-10 0)
(7.22737e-11 2.16676e-10 0)
(1.13039e-10 -2.17451e-10 0)
(1.12243e-10 -6.64349e-11 0)
(6.92973e-11 9.91809e-12 0)
(-1.8866e-10 4.01379e-11 0)
(4.18691e-11 -2.8372e-10 0)
(-4.404e-10 3.84937e-10 0)
(3.75189e-10 -6.58159e-10 0)
(3.57066e-10 -2.7095e-10 0)
(-5.31205e-10 2.01998e-10 0)
(3.43719e-10 -1.63221e-10 0)
(2.95269e-10 -8.20969e-11 0)
(-1.35008e-11 6.55073e-12 0)
(-1.41317e-11 -7.8032e-11 0)
(5.51162e-11 -1.38735e-10 0)
(6.71583e-11 -1.29308e-10 0)
(1.66654e-11 -1.20601e-10 0)
(-1.17313e-11 -4.44002e-11 0)
(-1.25531e-11 2.39827e-11 0)
(-4.27288e-11 1.72247e-10 0)
(5.18461e-12 1.80465e-10 0)
(1.65777e-10 4.66932e-11 0)
(2.45648e-10 -8.06313e-11 0)
(9.48671e-11 -6.16937e-11 0)
(-1.7771e-10 -2.36379e-10 0)
(6.46257e-11 -6.91143e-11 0)
(-4.89212e-10 3.82155e-10 0)
(-7.90501e-10 -1.00052e-09 0)
(1.13973e-09 1.07321e-10 0)
(9.39624e-11 5.10647e-11 0)
(7.01715e-11 1.14699e-10 0)
(3.73918e-10 -8.94377e-11 0)
(1.01424e-10 -7.18101e-11 0)
(-2.30716e-11 -6.44741e-11 0)
(1.2494e-11 -9.03108e-11 0)
(3.95256e-11 -9.94145e-11 0)
(7.55844e-12 -8.43875e-11 0)
(5.17257e-14 -2.08555e-11 0)
(-2.74819e-12 5.24719e-12 0)
(-3.63997e-11 1.006e-10 0)
(2.77967e-11 1.19021e-10 0)
(-1.43729e-11 3.19706e-10 0)
(5.18471e-11 -6.80242e-11 0)
(-6.33213e-11 -2.58194e-10 0)
(-7.43622e-11 -2.96255e-10 0)
(2.81443e-10 4.98908e-10 0)
(-1.48744e-09 -1.17583e-09 0)
(-8.87941e-10 2.69326e-09 0)
(-1.96053e-09 -3.57057e-11 0)
(-2.4086e-10 1.84552e-10 0)
(1.18109e-10 2.3226e-10 0)
(1.24884e-10 -7.76457e-11 0)
(1.55945e-10 -9.73864e-11 0)
(8.13517e-11 -8.48178e-12 0)
(2.74121e-11 -5.39266e-12 0)
(1.32851e-11 -4.07922e-11 0)
(2.46721e-12 -5.15144e-11 0)
(3.43128e-12 -3.14837e-11 0)
(1.60859e-11 -2.79742e-11 0)
(5.86959e-12 -4.92503e-12 0)
(4.28657e-11 2.70662e-11 0)
(-2.02421e-10 1.53207e-10 0)
(-2.11172e-10 -4.55381e-11 0)
(-8.12185e-11 -2.01423e-10 0)
(2.47609e-10 -8.60981e-11 0)
(-6.27746e-10 4.68454e-10 0)
(2.18243e-09 -1.29431e-09 0)
(8.43984e-10 3.43368e-09 0)
(8.57021e-10 -5.11327e-10 0)
(5.1366e-10 3.46955e-10 0)
(-3.59424e-10 1.4258e-10 0)
(-1.39503e-10 -4.69769e-11 0)
(1.98346e-10 -7.73647e-11 0)
(1.5721e-10 -4.46677e-11 0)
(2.72353e-12 -4.70842e-11 0)
(-3.79992e-11 -6.21246e-11 0)
(-2.07569e-11 -5.02034e-11 0)
(6.62585e-12 -4.73849e-12 0)
(3.57685e-11 1.44286e-11 0)
(3.82688e-11 6.18624e-11 0)
(7.84868e-11 5.71895e-11 0)
)
;

boundaryField
{
    sides
    {
        type            calculated;
        value           nonuniform List<vector> 
40
(
(-2.02421e-10 0 0)
(-2.11172e-10 0 0)
(-8.12185e-11 0 0)
(2.47609e-10 0 0)
(-6.27746e-10 0 0)
(2.18243e-09 0 0)
(8.43984e-10 0 0)
(8.57021e-10 0 0)
(5.1366e-10 0 0)
(-3.59424e-10 0 0)
(-1.39503e-10 0 0)
(1.98346e-10 0 0)
(1.5721e-10 0 0)
(2.72353e-12 0 0)
(-3.79992e-11 0 0)
(-2.07569e-11 0 0)
(6.62585e-12 0 0)
(3.57685e-11 0 0)
(3.82688e-11 0 0)
(7.84868e-11 0 0)
(-8.67813e-11 0 0)
(-1.53752e-10 0 0)
(5.89837e-11 0 0)
(1.63515e-10 0 0)
(-2.00859e-10 0 0)
(-7.0564e-10 0 0)
(1.1132e-09 0 0)
(-1.57182e-09 0 0)
(-1.03425e-09 0 0)
(-4.51819e-10 0 0)
(-3.76439e-10 0 0)
(-5.47177e-12 0 0)
(1.22385e-10 0 0)
(1.12167e-10 0 0)
(6.85607e-11 0 0)
(8.34364e-12 0 0)
(-5.11993e-11 0 0)
(-4.32288e-11 0 0)
(1.16675e-11 0 0)
(-3.52589e-11 0 0)
)
;
    }
    inlet
    {
        type            calculated;
        value           uniform (0 0 0);
    }
    outlet
    {
        type            calculated;
        value           nonuniform List<vector> 
20
(
(-3.52589e-11 7.05475e-11 0)
(-5.34635e-11 6.30519e-11 0)
(-1.2491e-10 1.49386e-10 0)
(-1.32476e-10 1.58177e-10 0)
(-1.02816e-10 1.22502e-10 0)
(-1.54114e-11 1.66263e-10 0)
(6.30312e-11 2.09132e-10 0)
(1.58422e-11 3.2015e-10 0)
(-3.74887e-11 3.50953e-10 0)
(-7.55772e-11 3.304e-10 0)
(-7.53359e-11 2.75284e-10 0)
(-1.81523e-11 2.09551e-10 0)
(7.2793e-11 1.91219e-10 0)
(1.38462e-10 2.06684e-10 0)
(1.54168e-10 2.70821e-10 0)
(7.22737e-11 2.16676e-10 0)
(5.18461e-12 1.80465e-10 0)
(2.77967e-11 1.19021e-10 0)
(4.28657e-11 2.70662e-11 0)
(7.84868e-11 5.71895e-11 0)
)
;
    }
    frontAndBack
    {
        type            empty;
    }
}


// ************************************************************************* //
