/*--------------------------------*- C++ -*----------------------------------*\
  =========                 |
  \\      /  F ield         | OpenFOAM: The Open Source CFD Toolbox
   \\    /   O peration     | Website:  https://openfoam.org
    \\  /    A nd           | Version:  7
     \\/     M anipulation  |
\*---------------------------------------------------------------------------*/
FoamFile
{
    version     2.0;
    format      ascii;
    class       surfaceScalarField;
    location    "77";
    object      ddtCorrDdt0(phi);
}
// * * * * * * * * * * * * * * * * * * * * * * * * * * * * * * * * * * * * * //

dimensions      [0 4 -2 0 0 0 0];

internalField   nonuniform List<scalar> 
760
(
-1.10591e-12
-6.16775e-13
-2.34251e-13
1.55828e-13
6.62189e-13
1.00579e-13
2.62131e-12
-1.02768e-12
-9.82891e-12
-3.3766e-13
8.5935e-12
2.5863e-10
-1.56909e-12
2.60196e-10
-1.01225e-11
-3.52995e-10
-2.05935e-12
-1.41665e-11
-2.58337e-12
-5.88873e-13
-7.577e-13
2.47875e-13
4.29726e-13
6.99828e-13
5.76285e-13
5.09666e-13
5.17731e-13
2.11814e-13
2.58547e-13
-6.38347e-14
-1.91247e-13
-2.97211e-13
-3.46549e-13
-2.01476e-13
-8.00805e-14
7.08301e-14
1.04349e-15
4.02816e-13
3.49119e-13
-3.73564e-14
-3.5618e-13
5.40567e-13
-4.34522e-14
-1.14431e-12
2.61863e-14
9.42429e-13
6.29243e-13
4.51791e-12
-2.08034e-12
2.83541e-12
-4.38061e-13
-5.12952e-12
-1.71551e-11
9.9069e-12
1.39856e-11
1.3995e-12
5.83898e-13
-3.17517e-13
7.10874e-14
-2.12082e-13
5.28145e-13
-3.19001e-13
6.28729e-13
-3.11147e-13
2.25198e-13
-1.28104e-13
-1.09058e-13
-1.13193e-13
-3.58042e-13
-2.19169e-13
-5.40281e-13
-1.27868e-13
-2.29355e-13
8.67616e-14
2.40482e-13
-5.85967e-14
7.24345e-13
5.91164e-13
8.79572e-13
-1.2649e-13
3.11573e-13
-1.95059e-13
4.59413e-13
-4.53785e-13
-1.26151e-12
3.74444e-13
3.88901e-12
-1.49692e-12
-8.08326e-12
2.03894e-12
1.82793e-12
1.15125e-12
1.64857e-12
4.27425e-13
-4.43609e-13
1.67019e-12
1.11519e-12
4.13665e-13
8.67727e-13
8.14512e-13
-3.54187e-13
1.7729e-13
-6.73017e-13
-4.38571e-13
-5.32025e-13
-7.35536e-13
-4.20055e-13
-8.33032e-13
-1.06036e-13
-7.24282e-13
2.87306e-13
-1.19753e-13
3.26165e-13
2.89883e-13
-2.66797e-13
8.20275e-13
7.78405e-13
4.90657e-13
2.29747e-13
-1.09657e-14
-3.23762e-13
1.03493e-12
-7.19416e-13
-1.85983e-12
-6.39811e-13
3.49048e-12
3.6757e-13
-4.34844e-12
-2.22224e-12
4.68477e-12
2.89573e-12
5.52221e-13
2.52405e-12
-1.57678e-12
-1.0633e-12
1.02923e-12
1.18105e-12
1.56181e-15
5.72051e-13
-9.82926e-13
-7.00334e-13
-8.97814e-13
-1.0177e-12
-6.32099e-13
-1.11549e-12
-3.88237e-13
-1.09664e-12
1.2954e-13
-6.96476e-13
5.67924e-13
4.65311e-14
4.06347e-13
1.05016e-13
-3.26733e-13
4.97612e-13
7.12666e-13
2.17043e-13
1.30059e-13
-2.63839e-13
-5.06233e-13
3.83614e-13
-4.67344e-13
-7.77897e-13
-1.3713e-12
4.94377e-13
9.55735e-13
-3.62231e-13
-1.51126e-12
2.46723e-12
1.45386e-12
-2.71986e-12
-1.44517e-12
1.07792e-12
7.24477e-13
8.00122e-13
1.22941e-12
-1.12157e-12
-6.26614e-13
-9.89911e-13
-1.25042e-12
-6.75779e-13
-1.07471e-12
-4.94594e-13
-1.036e-12
-3.82401e-14
-9.35751e-13
4.09185e-13
-4.84551e-13
4.47576e-13
1.93508e-13
2.15321e-13
-7.02994e-14
-2.3762e-13
1.7523e-13
6.29012e-13
-9.93434e-14
-9.97308e-14
-8.34742e-15
-5.41436e-13
-4.36465e-13
-3.16972e-13
1.06219e-12
-8.55306e-13
-1.1635e-12
-5.92748e-13
1.96466e-12
4.70464e-13
-4.24405e-13
3.65724e-13
-5.48707e-13
7.27655e-14
1.52549e-12
1.61602e-12
-1.20323e-12
-2.095e-13
-1.69497e-12
-1.24142e-12
-4.32436e-13
-8.07974e-13
-3.1558e-13
-8.9469e-13
-2.96313e-13
-9.24934e-13
4.39434e-13
-6.34906e-13
7.23457e-13
-4.15545e-13
1.28084e-13
8.24016e-14
-1.50919e-13
-3.49457e-14
3.06963e-14
4.73924e-13
8.7038e-13
-2.90998e-13
-2.9759e-13
2.37176e-13
-3.34108e-13
-6.9966e-13
-8.14813e-13
9.74906e-13
1.79239e-13
-6.01025e-13
-9.15951e-13
1.35282e-12
5.0086e-13
-8.51753e-13
-2.11395e-13
1.02423e-12
5.70105e-13
-2.8335e-13
5.09958e-13
-1.74518e-12
-7.49928e-13
-3.26597e-13
-7.46655e-14
4.08916e-13
1.45595e-13
1.03006e-13
-8.1641e-13
-4.22916e-14
-9.44742e-13
3.41519e-13
-4.53282e-13
3.00571e-13
-5.66271e-13
-5.76788e-13
-3.67076e-13
-8.45931e-13
-5.63784e-14
4.93267e-14
1.11141e-12
1.35575e-12
-2.76663e-15
-3.92628e-13
-1.20532e-13
-2.72196e-13
2.74451e-13
-7.60798e-13
-8.05151e-14
-4.07658e-13
5.78601e-13
-2.42362e-13
2.1663e-13
2.50626e-13
-2.90345e-13
1.88511e-13
7.56598e-13
8.69788e-13
-1.4539e-12
1.57651e-13
-3.52235e-13
5.87886e-13
6.26207e-13
8.1385e-13
-1.25873e-13
-1.0388e-13
2.14471e-13
-8.51771e-13
5.63389e-13
-9.69394e-13
2.13862e-13
-8.63944e-13
-1.16021e-13
-1.09282e-12
-5.18226e-13
-7.44772e-13
-6.42527e-13
-3.70016e-14
-9.26181e-14
1.65342e-12
1.77081e-12
3.70573e-13
-5.51053e-14
-2.93862e-13
-8.59926e-13
5.52978e-13
-4.66619e-13
-2.72107e-13
-9.28329e-13
5.30365e-13
-5.37254e-14
-4.01996e-13
-8.17649e-14
1.14599e-14
5.42327e-13
-2.11186e-14
8.4764e-13
-5.22979e-13
3.45313e-13
6.60173e-13
1.23111e-12
2.91382e-13
4.19175e-13
-3.90277e-13
-5.49578e-13
3.76086e-13
-4.93336e-13
6.42948e-13
-1.03705e-12
-2.32635e-13
-1.74979e-12
-6.65697e-13
-1.73826e-12
-3.09714e-13
-6.89701e-13
-6.95817e-14
1.82592e-13
-1.57737e-13
1.66311e-12
1.73713e-12
-1.93266e-13
-1.56093e-13
2.9203e-13
-5.42164e-13
3.98682e-14
-5.11359e-13
1.85256e-13
-7.49885e-13
-1.92243e-13
-4.95533e-13
-3.70331e-13
-2.86649e-13
-1.04717e-13
2.24775e-13
-5.12866e-13
5.9102e-13
7.87411e-13
4.8034e-13
2.96884e-13
5.49317e-13
-1.93283e-13
-3.39799e-14
2.24573e-13
-6.81924e-13
-1.57258e-13
-1.07072e-12
-4.84554e-13
-1.51983e-12
-3.94328e-13
-1.76407e-12
-1.37862e-13
-1.54986e-12
4.20778e-13
-5.09979e-13
5.32547e-13
8.49968e-14
-1.47501e-13
1.30446e-12
1.5234e-12
-3.40974e-13
-3.51855e-13
4.84864e-13
9.11867e-14
-1.58772e-13
-7.57504e-13
2.49844e-13
-4.88967e-13
-3.87018e-13
-1.05673e-12
-2.97702e-13
-2.52603e-13
-7.25883e-14
-3.43606e-14
-6.80715e-13
4.85535e-13
1.09706e-12
8.09972e-13
1.61419e-13
-3.12998e-13
-3.10849e-13
-3.19725e-13
4.29041e-13
-5.83623e-13
-3.36378e-13
-1.74704e-12
-8.09278e-13
-1.80439e-12
-3.08084e-13
-1.11544e-12
2.05973e-13
-8.31766e-13
7.16467e-13
-2.33078e-13
6.58365e-13
-1.45544e-13
-1.49449e-13
7.33925e-13
1.19293e-12
3.53653e-13
1.31981e-13
-1.5193e-13
-3.68449e-13
2.22805e-13
-8.17108e-13
-3.52896e-13
-7.77496e-13
2.58213e-13
-9.47456e-13
-3.99876e-13
-1.58631e-13
2.67511e-13
4.72309e-13
-3.94719e-13
5.74197e-13
1.40814e-13
1.44648e-12
7.5328e-13
2.486e-14
-4.98917e-14
-6.59411e-13
-3.43305e-13
-4.96911e-13
3.29541e-14
-1.12355e-12
1.12052e-13
-1.42731e-12
-2.0363e-13
-1.15431e-12
-8.39595e-14
-7.44692e-13
5.61861e-13
1.02299e-13
6.82183e-13
-3.50923e-14
1.04641e-13
4.15683e-13
9.25754e-13
1.58306e-13
2.21243e-13
-4.68209e-13
-6.77956e-13
3.67142e-13
-4.97773e-13
-6.13507e-13
-1.39906e-12
7.40247e-13
4.8694e-14
-2.53335e-13
-2.79224e-13
5.528e-14
1.16179e-12
3.89749e-13
5.85543e-13
-1.28113e-12
1.37314e-12
5.6414e-13
1.4678e-12
8.73036e-13
-3.08709e-13
-2.87841e-13
-9.27719e-13
1.44618e-13
-6.74706e-13
4.69885e-13
-8.41621e-13
-2.52578e-14
-1.0884e-12
-1.63256e-13
-7.71988e-13
-3.44652e-14
1.13173e-13
-5.58204e-14
5.71024e-15
1.94396e-13
4.5747e-13
9.14111e-13
-5.10104e-13
-1.09591e-13
-1.53868e-13
-4.80676e-13
-5.41002e-13
-6.67475e-13
3.878e-13
-5.98923e-13
-8.99875e-14
5.81639e-13
8.04098e-13
-7.8881e-13
-8.13176e-13
7.01721e-13
1.24138e-12
5.08567e-13
-1.14514e-12
-2.50529e-13
-1.23302e-12
1.54097e-12
5.2527e-13
9.27875e-13
5.73169e-13
-5.46179e-13
3.42608e-13
-8.44553e-13
2.21593e-13
-9.10192e-13
2.2556e-13
-9.76866e-13
1.38211e-13
-7.9068e-13
-3.80603e-13
-1.36635e-13
-5.18432e-13
8.69701e-14
3.39997e-13
1.0445e-12
1.25256e-12
-6.03432e-13
-6.27658e-13
-1.20121e-13
-3.09702e-13
-9.12373e-13
-3.14159e-13
1.04046e-12
6.6815e-13
-1.8427e-12
-1.00287e-12
1.81008e-12
2.42813e-13
-1.43097e-12
-4.68646e-13
7.22767e-13
1.59188e-12
1.4286e-12
-9.64768e-13
-1.12018e-12
-3.31464e-13
-5.09153e-13
7.76744e-13
7.41736e-13
1.62916e-13
5.58622e-13
-6.46785e-13
1.03633e-13
-8.66893e-13
1.50356e-13
-7.48536e-13
-9.66786e-14
-7.591e-13
-7.21697e-13
-3.33565e-13
-6.41517e-13
1.82456e-13
3.56579e-13
1.27566e-12
1.28401e-12
-2.00923e-13
-9.67859e-13
-1.63728e-13
-3.13637e-13
-1.45089e-13
8.62622e-15
-2.63739e-14
3.8605e-13
-1.32457e-12
-1.67162e-12
1.1953e-12
2.15755e-12
9.65936e-14
-3.56484e-12
-2.05245e-12
2.07499e-12
2.32859e-12
1.13458e-12
4.82043e-13
-1.1974e-12
-8.78726e-13
-2.49324e-13
-2.90046e-14
1.68225e-13
3.51732e-13
-4.37386e-13
2.7093e-13
-7.65402e-13
2.51804e-13
-6.79162e-13
2.11529e-14
-7.07353e-13
-2.80169e-13
-3.24637e-13
-2.10719e-13
1.83009e-13
1.6189e-13
1.06998e-12
1.03731e-12
8.77373e-13
-4.23516e-13
8.4928e-14
-2.67343e-13
6.80593e-13
-2.15795e-13
-2.26718e-12
-9.42333e-13
1.67893e-12
-2.25675e-13
-3.86236e-12
2.83259e-13
5.88308e-12
-1.74516e-12
-3.10084e-12
-9.89533e-12
4.0664e-14
1.24134e-12
2.18653e-12
1.38489e-13
3.78765e-13
-6.95783e-13
-1.55744e-13
-2.46523e-13
1.69473e-13
-3.24052e-13
3.39924e-13
-5.48757e-13
1.83271e-13
-5.61636e-13
-1.65104e-14
-5.07116e-13
-2.65024e-14
-1.80597e-13
-7.0084e-14
3.11335e-14
-1.20363e-13
6.05195e-13
7.06208e-13
1.78917e-12
1.8205e-12
6.78713e-13
-5.06589e-13
5.22554e-13
-1.14409e-12
-3.28869e-12
-2.09688e-12
4.75038e-12
1.91785e-12
-1.02497e-11
1.41902e-12
4.64086e-12
1.14735e-12
3.53747e-12
2.28399e-11
-9.82871e-13
-7.33869e-13
1.85014e-12
8.36066e-13
1.14456e-12
-2.29392e-13
2.71023e-15
-4.49429e-13
-2.28664e-14
-3.10031e-13
1.98289e-13
-3.22007e-13
1.03145e-13
-3.65083e-13
-5.05021e-14
-2.83524e-13
3.74729e-14
-7.51876e-14
5.3806e-15
-9.27936e-14
-6.61053e-14
1.80458e-13
3.46203e-13
-4.434e-14
1.21189e-12
4.49122e-13
-4.70778e-13
-8.78334e-13
-1.23039e-12
-9.80839e-13
-1.58105e-13
4.52175e-12
1.43884e-12
-2.06041e-11
-2.95539e-10
7.17959e-12
4.58519e-10
-1.23142e-11
-2.25902e-10
1.07286e-12
-1.15885e-11
4.32149e-13
1.1421e-12
8.45278e-13
-1.75676e-14
5.45421e-13
-3.39554e-13
2.28235e-13
-1.68807e-13
1.31382e-13
-1.09424e-13
6.01054e-14
-1.651e-13
-3.68216e-14
-1.52167e-13
5.25379e-14
-4.88393e-14
1.38626e-13
-8.56332e-14
1.07952e-13
4.31172e-14
1.73515e-13
-1.707e-12
-1.08991e-12
-2.85514e-13
4.316e-12
-1.00209e-11
3.04599e-11
-1.64275e-11
1.26879e-11
-1.14915e-12
-1.77565e-12
5.02339e-13
1.05668e-12
2.93231e-13
-1.5105e-13
-1.02668e-13
-4.33716e-14
1.03169e-13
2.34135e-13
2.76987e-13
)
;

boundaryField
{
    sides
    {
        type            calculated;
        value           uniform 0;
    }
    inlet
    {
        type            calculated;
        value           uniform 0;
    }
    outlet
    {
        type            calculated;
        value           nonuniform List<scalar> 
20
(
-1.51538e-13
-3.24659e-13
-7.96068e-13
-8.28134e-13
-5.93212e-13
8.5279e-14
6.56326e-13
3.16644e-13
-2.55069e-13
-6.2028e-13
-6.59795e-13
-2.53034e-13
4.90518e-13
1.04157e-12
1.02574e-12
4.12306e-13
-7.03075e-14
4.04712e-14
1.24958e-13
3.58232e-13
)
;
    }
    frontAndBack
    {
        type            empty;
        value           nonuniform 0();
    }
}


// ************************************************************************* //
