/*--------------------------------*- C++ -*----------------------------------*\
  =========                 |
  \\      /  F ield         | OpenFOAM: The Open Source CFD Toolbox
   \\    /   O peration     | Website:  https://openfoam.org
    \\  /    A nd           | Version:  7
     \\/     M anipulation  |
\*---------------------------------------------------------------------------*/
FoamFile
{
    version     2.0;
    format      ascii;
    class       volVectorField;
    location    "77";
    object      hU;
}
// * * * * * * * * * * * * * * * * * * * * * * * * * * * * * * * * * * * * * //

dimensions      [0 2 -1 0 0 0 0];

internalField   nonuniform List<vector> 
400
(
(0.001 -8.73361e-09 0)
(0.000999999 -2.37372e-08 0)
(0.001 -3.59501e-08 0)
(0.001 -4.66756e-08 0)
(0.00100001 -5.68864e-08 0)
(0.00100001 -6.73512e-08 0)
(0.00100002 -7.81189e-08 0)
(0.00100003 -8.92515e-08 0)
(0.00100004 -9.99346e-08 0)
(0.00100006 -1.11918e-07 0)
(0.00100007 -1.22664e-07 0)
(0.0010001 -1.36185e-07 0)
(0.00100011 -1.46549e-07 0)
(0.00100015 -1.63348e-07 0)
(0.00100017 -1.72152e-07 0)
(0.00100024 -1.96256e-07 0)
(0.00100026 -2.00749e-07 0)
(0.00100038 -2.42987e-07 0)
(0.00100038 -2.39131e-07 0)
(0.00100061 -3.31858e-07 0)
(0.001 3.96256e-09 0)
(0.001 1.21024e-08 0)
(0.00100001 2.02378e-08 0)
(0.00100001 2.79354e-08 0)
(0.00100002 3.51044e-08 0)
(0.00100002 4.16768e-08 0)
(0.00100003 4.76186e-08 0)
(0.00100004 5.3011e-08 0)
(0.00100005 5.84274e-08 0)
(0.00100007 6.23341e-08 0)
(0.00100008 6.69938e-08 0)
(0.0010001 6.85855e-08 0)
(0.00100012 7.26694e-08 0)
(0.00100016 6.98517e-08 0)
(0.00100018 7.40127e-08 0)
(0.00100023 6.16801e-08 0)
(0.00100026 6.7188e-08 0)
(0.00100035 3.17973e-08 0)
(0.00100037 3.99057e-08 0)
(0.0010005 -5.45643e-08 0)
(0.001 -3.97405e-09 0)
(0.000999999 -1.30084e-08 0)
(0.001 -2.30266e-08 0)
(0.001 -3.35906e-08 0)
(0.00100001 -4.4114e-08 0)
(0.00100001 -5.48942e-08 0)
(0.00100002 -6.55469e-08 0)
(0.00100003 -7.72495e-08 0)
(0.00100004 -8.88566e-08 0)
(0.00100005 -1.02567e-07 0)
(0.00100006 -1.15319e-07 0)
(0.00100009 -1.32477e-07 0)
(0.0010001 -1.4656e-07 0)
(0.00100014 -1.70034e-07 0)
(0.00100016 -1.851e-07 0)
(0.00100021 -2.21054e-07 0)
(0.00100023 -2.35578e-07 0)
(0.00100031 -2.97479e-07 0)
(0.00100033 -3.06109e-07 0)
(0.00100046 -4.22167e-07 0)
(0.001 -1.44009e-10 0)
(0.001 -1.94924e-11 0)
(0.00100001 6.63435e-10 0)
(0.00100001 1.41814e-09 0)
(0.00100001 2.14468e-09 0)
(0.00100002 2.0508e-09 0)
(0.00100003 1.70854e-09 0)
(0.00100004 -2.16408e-10 0)
(0.00100004 -2.34543e-09 0)
(0.00100006 -7.08506e-09 0)
(0.00100007 -1.12869e-08 0)
(0.00100009 -2.05612e-08 0)
(0.00100011 -2.7237e-08 0)
(0.00100013 -4.42749e-08 0)
(0.00100016 -5.3499e-08 0)
(0.00100019 -8.48653e-08 0)
(0.00100022 -9.53461e-08 0)
(0.00100028 -1.54535e-07 0)
(0.0010003 -1.60832e-07 0)
(0.00100039 -2.75847e-07 0)
(0.001 -2.90537e-09 0)
(0.001 -9.23e-09 0)
(0.001 -1.62735e-08 0)
(0.001 -2.43012e-08 0)
(0.00100001 -3.29276e-08 0)
(0.00100001 -4.26324e-08 0)
(0.00100002 -5.27098e-08 0)
(0.00100002 -6.44535e-08 0)
(0.00100003 -7.64357e-08 0)
(0.00100004 -9.12549e-08 0)
(0.00100005 -1.0569e-07 0)
(0.00100007 -1.25491e-07 0)
(0.00100009 -1.428e-07 0)
(0.00100011 -1.70933e-07 0)
(0.00100013 -1.91179e-07 0)
(0.00100016 -2.34209e-07 0)
(0.00100018 -2.55635e-07 0)
(0.00100024 -3.26412e-07 0)
(0.00100025 -3.41399e-07 0)
(0.00100033 -4.64389e-07 0)
(0.001 -2.56536e-09 0)
(0.001 -7.50509e-09 0)
(0.001 -1.21237e-08 0)
(0.00100001 -1.68015e-08 0)
(0.00100001 -2.15086e-08 0)
(0.00100001 -2.70311e-08 0)
(0.00100002 -3.29943e-08 0)
(0.00100002 -4.07229e-08 0)
(0.00100003 -4.88817e-08 0)
(0.00100004 -6.02038e-08 0)
(0.00100005 -7.14085e-08 0)
(0.00100006 -8.83651e-08 0)
(0.00100008 -1.03273e-07 0)
(0.0010001 -1.29453e-07 0)
(0.00100011 -1.48263e-07 0)
(0.00100014 -1.90111e-07 0)
(0.00100016 -2.10802e-07 0)
(0.0010002 -2.80328e-07 0)
(0.00100021 -2.94381e-07 0)
(0.00100027 -4.14999e-07 0)
(0.001 -2.89937e-09 0)
(0.001 -8.85326e-09 0)
(0.001 -1.51041e-08 0)
(0.001 -2.20846e-08 0)
(0.00100001 -2.97611e-08 0)
(0.00100001 -3.87157e-08 0)
(0.00100001 -4.85173e-08 0)
(0.00100002 -6.03264e-08 0)
(0.00100002 -7.28268e-08 0)
(0.00100003 -8.86973e-08 0)
(0.00100004 -1.04588e-07 0)
(0.00100005 -1.26477e-07 0)
(0.00100006 -1.46404e-07 0)
(0.00100007 -1.77849e-07 0)
(0.00100009 -2.01768e-07 0)
(0.00100011 -2.49051e-07 0)
(0.00100012 -2.74525e-07 0)
(0.00100015 -3.49372e-07 0)
(0.00100016 -3.67056e-07 0)
(0.00100021 -4.9218e-07 0)
(0.001 -3.19021e-09 0)
(0.001 -9.7236e-09 0)
(0.001 -1.64764e-08 0)
(0.001 -2.37876e-08 0)
(0.001 -3.15737e-08 0)
(0.00100001 -4.04297e-08 0)
(0.00100001 -4.99402e-08 0)
(0.00100001 -6.13498e-08 0)
(0.00100002 -7.34337e-08 0)
(0.00100002 -8.88765e-08 0)
(0.00100003 -1.04445e-07 0)
(0.00100004 -1.26112e-07 0)
(0.00100004 -1.45996e-07 0)
(0.00100005 -1.77451e-07 0)
(0.00100006 -2.01647e-07 0)
(0.00100008 -2.49068e-07 0)
(0.00100009 -2.75019e-07 0)
(0.00100011 -3.49601e-07 0)
(0.00100012 -3.6742e-07 0)
(0.00100015 -4.90824e-07 0)
(0.001 -3.35548e-09 0)
(0.001 -1.02151e-08 0)
(0.001 -1.72519e-08 0)
(0.001 -2.48524e-08 0)
(0.001 -3.29332e-08 0)
(0.001 -4.22093e-08 0)
(0.00100001 -5.22635e-08 0)
(0.00100001 -6.44213e-08 0)
(0.00100001 -7.74262e-08 0)
(0.00100001 -9.39838e-08 0)
(0.00100002 -1.10847e-07 0)
(0.00100002 -1.3401e-07 0)
(0.00100003 -1.55459e-07 0)
(0.00100003 -1.88713e-07 0)
(0.00100004 -2.14634e-07 0)
(0.00100005 -2.6403e-07 0)
(0.00100005 -2.91544e-07 0)
(0.00100007 -3.68114e-07 0)
(0.00100007 -3.86949e-07 0)
(0.00100009 -5.12454e-07 0)
(0.001 -3.4366e-09 0)
(0.001 -1.0452e-08 0)
(0.001 -1.76388e-08 0)
(0.001 -2.54158e-08 0)
(0.001 -3.37132e-08 0)
(0.001 -4.32624e-08 0)
(0.001 -5.36476e-08 0)
(0.001 -6.61836e-08 0)
(0.001 -7.95881e-08 0)
(0.001 -9.65492e-08 0)
(0.00100001 -1.13822e-07 0)
(0.00100001 -1.37358e-07 0)
(0.00100001 -1.59205e-07 0)
(0.00100001 -1.9281e-07 0)
(0.00100001 -2.19149e-07 0)
(0.00100002 -2.68819e-07 0)
(0.00100002 -2.96729e-07 0)
(0.00100002 -3.73362e-07 0)
(0.00100002 -3.92504e-07 0)
(0.00100003 -5.17444e-07 0)
(0.001 -3.44767e-09 0)
(0.001 -1.04491e-08 0)
(0.001 -1.76396e-08 0)
(0.000999999 -2.54056e-08 0)
(0.000999999 -3.37117e-08 0)
(0.000999999 -4.3254e-08 0)
(0.000999998 -5.3647e-08 0)
(0.000999997 -6.61825e-08 0)
(0.000999996 -7.95877e-08 0)
(0.000999995 -9.65644e-08 0)
(0.000999994 -1.13829e-07 0)
(0.000999993 -1.37359e-07 0)
(0.000999991 -1.59209e-07 0)
(0.000999989 -1.92805e-07 0)
(0.000999987 -2.19139e-07 0)
(0.000999984 -2.68812e-07 0)
(0.000999982 -2.96724e-07 0)
(0.000999978 -3.73358e-07 0)
(0.000999977 -3.92508e-07 0)
(0.00099997 -5.17445e-07 0)
(0.001 -3.36942e-09 0)
(0.001 -1.02156e-08 0)
(0.000999999 -1.72535e-08 0)
(0.000999998 -2.48402e-08 0)
(0.000999997 -3.2933e-08 0)
(0.000999996 -4.21967e-08 0)
(0.000999994 -5.22582e-08 0)
(0.000999992 -6.44198e-08 0)
(0.000999989 -7.74195e-08 0)
(0.000999986 -9.40104e-08 0)
(0.000999983 -1.10871e-07 0)
(0.000999978 -1.34015e-07 0)
(0.000999973 -1.5546e-07 0)
(0.000999967 -1.88697e-07 0)
(0.000999961 -2.14616e-07 0)
(0.000999952 -2.64007e-07 0)
(0.000999946 -2.91518e-07 0)
(0.000999934 -3.68078e-07 0)
(0.00099993 -3.86935e-07 0)
(0.000999911 -5.12409e-07 0)
(0.001 -3.18539e-09 0)
(0.001 -9.72828e-09 0)
(0.000999999 -1.64766e-08 0)
(0.000999997 -2.38013e-08 0)
(0.000999996 -3.15745e-08 0)
(0.000999993 -4.04328e-08 0)
(0.000999991 -4.99256e-08 0)
(0.000999987 -6.13504e-08 0)
(0.000999983 -7.34204e-08 0)
(0.000999977 -8.88795e-08 0)
(0.000999971 -1.04476e-07 0)
(0.000999964 -1.26135e-07 0)
(0.000999956 -1.46002e-07 0)
(0.000999945 -1.7745e-07 0)
(0.000999936 -2.01658e-07 0)
(0.000999921 -2.49072e-07 0)
(0.000999911 -2.75014e-07 0)
(0.000999889 -3.49591e-07 0)
(0.000999882 -3.67434e-07 0)
(0.000999852 -4.90823e-07 0)
(0.001 -2.88163e-09 0)
(0.000999999 -8.84917e-09 0)
(0.000999998 -1.51061e-08 0)
(0.000999996 -2.21085e-08 0)
(0.000999994 -2.97562e-08 0)
(0.000999991 -3.87345e-08 0)
(0.000999987 -4.84984e-08 0)
(0.000999982 -6.03178e-08 0)
(0.000999977 -7.28158e-08 0)
(0.000999969 -8.86536e-08 0)
(0.000999962 -1.04573e-07 0)
(0.000999951 -1.26477e-07 0)
(0.000999941 -1.46395e-07 0)
(0.000999925 -1.77825e-07 0)
(0.000999913 -2.01751e-07 0)
(0.000999891 -2.49008e-07 0)
(0.000999878 -2.7448e-07 0)
(0.000999847 -3.49284e-07 0)
(0.000999839 -3.66978e-07 0)
(0.000999792 -4.92039e-07 0)
(0.001 -2.55209e-09 0)
(0.000999999 -7.49579e-09 0)
(0.000999997 -1.21296e-08 0)
(0.000999995 -1.6804e-08 0)
(0.000999991 -2.15189e-08 0)
(0.000999987 -2.70508e-08 0)
(0.000999982 -3.30044e-08 0)
(0.000999975 -4.07065e-08 0)
(0.000999968 -4.8902e-08 0)
(0.000999959 -6.01847e-08 0)
(0.000999949 -7.13812e-08 0)
(0.000999935 -8.83644e-08 0)
(0.000999922 -1.03291e-07 0)
(0.000999903 -1.29468e-07 0)
(0.000999886 -1.48279e-07 0)
(0.000999859 -1.90118e-07 0)
(0.000999841 -2.10819e-07 0)
(0.000999802 -2.80324e-07 0)
(0.000999788 -2.94375e-07 0)
(0.000999731 -4.14976e-07 0)
(0.001 -2.91756e-09 0)
(0.001 -9.22413e-09 0)
(0.000999999 -1.62638e-08 0)
(0.000999997 -2.42666e-08 0)
(0.000999994 -3.29436e-08 0)
(0.00099999 -4.26011e-08 0)
(0.000999984 -5.27546e-08 0)
(0.000999977 -6.44181e-08 0)
(0.000999969 -7.64298e-08 0)
(0.000999958 -9.1253e-08 0)
(0.000999946 -1.05651e-07 0)
(0.00099993 -1.25445e-07 0)
(0.000999915 -1.42781e-07 0)
(0.000999891 -1.70907e-07 0)
(0.000999872 -1.91158e-07 0)
(0.000999837 -2.34159e-07 0)
(0.000999817 -2.55609e-07 0)
(0.000999764 -3.26328e-07 0)
(0.000999752 -3.41327e-07 0)
(0.00099967 -4.64225e-07 0)
(0.001 -1.79491e-10 0)
(0.000999998 -2.79574e-11 0)
(0.000999995 6.78553e-10 0)
(0.00099999 1.43936e-09 0)
(0.000999986 2.11075e-09 0)
(0.00099998 2.09672e-09 0)
(0.000999973 1.588e-09 0)
(0.000999965 -2.81916e-10 0)
(0.000999955 -2.36062e-09 0)
(0.000999943 -7.11605e-09 0)
(0.00099993 -1.12883e-08 0)
(0.000999912 -2.05365e-08 0)
(0.000999894 -2.7225e-08 0)
(0.000999867 -4.42656e-08 0)
(0.000999845 -5.34963e-08 0)
(0.000999805 -8.48457e-08 0)
(0.000999779 -9.53413e-08 0)
(0.00099972 -1.54506e-07 0)
(0.000999699 -1.60809e-07 0)
(0.000999611 -2.75787e-07 0)
(0.001 -3.97269e-09 0)
(0.001 -1.30142e-08 0)
(0.001 -2.302e-08 0)
(0.000999998 -3.36085e-08 0)
(0.000999995 -4.41271e-08 0)
(0.000999989 -5.49067e-08 0)
(0.000999983 -6.56692e-08 0)
(0.000999974 -7.73472e-08 0)
(0.000999964 -8.88635e-08 0)
(0.00099995 -1.02566e-07 0)
(0.000999936 -1.15342e-07 0)
(0.000999914 -1.32479e-07 0)
(0.000999896 -1.46562e-07 0)
(0.000999864 -1.70024e-07 0)
(0.000999841 -1.85112e-07 0)
(0.000999791 -2.21036e-07 0)
(0.000999767 -2.35593e-07 0)
(0.000999687 -2.97446e-07 0)
(0.000999672 -3.06117e-07 0)
(0.000999539 -4.22091e-07 0)
(0.001 3.99834e-09 0)
(0.000999996 1.20973e-08 0)
(0.000999991 2.02015e-08 0)
(0.000999987 2.78986e-08 0)
(0.000999982 3.52054e-08 0)
(0.000999976 4.15999e-08 0)
(0.000999969 4.79851e-08 0)
(0.000999959 5.31085e-08 0)
(0.000999948 5.84368e-08 0)
(0.000999934 6.23123e-08 0)
(0.000999919 6.69317e-08 0)
(0.000999897 6.85542e-08 0)
(0.000999878 7.2669e-08 0)
(0.000999844 6.98785e-08 0)
(0.000999819 7.4029e-08 0)
(0.000999767 6.17248e-08 0)
(0.000999738 6.72176e-08 0)
(0.000999654 3.18751e-08 0)
(0.000999629 3.99601e-08 0)
(0.000999496 -5.44391e-08 0)
(0.001 -8.7177e-09 0)
(0.001 -2.37433e-08 0)
(0.001 -3.59868e-08 0)
(0.000999997 -4.66988e-08 0)
(0.000999993 -5.68036e-08 0)
(0.000999986 -6.74085e-08 0)
(0.000999979 -7.77272e-08 0)
(0.000999968 -8.91521e-08 0)
(0.000999958 -9.99694e-08 0)
(0.000999942 -1.11993e-07 0)
(0.000999928 -1.22756e-07 0)
(0.000999903 -1.36256e-07 0)
(0.000999886 -1.46602e-07 0)
(0.000999846 -1.63391e-07 0)
(0.000999826 -1.72204e-07 0)
(0.00099976 -1.96309e-07 0)
(0.000999742 -2.00811e-07 0)
(0.000999623 -2.43056e-07 0)
(0.000999618 -2.39207e-07 0)
(0.000999394 -3.31986e-07 0)
)
;

boundaryField
{
    sides
    {
        type            slip;
    }
    inlet
    {
        type            fixedValue;
        value           uniform (0.001 0 0);
    }
    outlet
    {
        type            zeroGradient;
    }
    frontAndBack
    {
        type            empty;
    }
}


// ************************************************************************* //
