/*--------------------------------*- C++ -*----------------------------------*\
  =========                 |
  \\      /  F ield         | OpenFOAM: The Open Source CFD Toolbox
   \\    /   O peration     | Website:  https://openfoam.org
    \\  /    A nd           | Version:  7
     \\/     M anipulation  |
\*---------------------------------------------------------------------------*/
FoamFile
{
    version     2.0;
    format      ascii;
    class       volVectorField;
    location    "77";
    object      hU_0;
}
// * * * * * * * * * * * * * * * * * * * * * * * * * * * * * * * * * * * * * //

dimensions      [0 2 -1 0 0 0 0];

internalField   nonuniform List<vector> 
400
(
(0.001 -8.72656e-09 0)
(0.000999999 -2.3737e-08 0)
(0.001 -3.59517e-08 0)
(0.001 -4.66534e-08 0)
(0.00100001 -5.68837e-08 0)
(0.00100001 -6.74061e-08 0)
(0.00100002 -7.81678e-08 0)
(0.00100003 -8.91192e-08 0)
(0.00100004 -9.99069e-08 0)
(0.00100006 -1.11909e-07 0)
(0.00100007 -1.22671e-07 0)
(0.0010001 -1.36196e-07 0)
(0.00100011 -1.46556e-07 0)
(0.00100015 -1.63348e-07 0)
(0.00100017 -1.72148e-07 0)
(0.00100024 -1.9625e-07 0)
(0.00100026 -2.00747e-07 0)
(0.00100038 -2.42989e-07 0)
(0.00100038 -2.39139e-07 0)
(0.00100061 -3.31865e-07 0)
(0.001 3.97404e-09 0)
(0.001 1.21028e-08 0)
(0.00100001 2.02349e-08 0)
(0.00100001 2.79499e-08 0)
(0.00100002 3.51091e-08 0)
(0.00100002 4.16289e-08 0)
(0.00100003 4.76215e-08 0)
(0.00100004 5.31204e-08 0)
(0.00100005 5.84535e-08 0)
(0.00100007 6.23558e-08 0)
(0.00100008 6.69921e-08 0)
(0.0010001 6.85669e-08 0)
(0.00100012 7.26524e-08 0)
(0.00100016 6.98431e-08 0)
(0.00100018 7.40124e-08 0)
(0.00100023 6.16867e-08 0)
(0.00100026 6.71937e-08 0)
(0.00100035 3.1797e-08 0)
(0.00100037 3.98994e-08 0)
(0.0010005 -5.45703e-08 0)
(0.001 -3.96832e-09 0)
(0.000999999 -1.30019e-08 0)
(0.001 -2.30196e-08 0)
(0.001 -3.35992e-08 0)
(0.00100001 -4.41001e-08 0)
(0.00100001 -5.48958e-08 0)
(0.00100002 -6.54915e-08 0)
(0.00100003 -7.73066e-08 0)
(0.00100004 -8.88881e-08 0)
(0.00100005 -1.0257e-07 0)
(0.00100006 -1.15324e-07 0)
(0.00100009 -1.32483e-07 0)
(0.0010001 -1.4656e-07 0)
(0.00100014 -1.70027e-07 0)
(0.00100016 -1.85089e-07 0)
(0.00100021 -2.21042e-07 0)
(0.00100023 -2.35575e-07 0)
(0.00100031 -2.97483e-07 0)
(0.00100033 -3.06124e-07 0)
(0.00100046 -4.22181e-07 0)
(0.001 -1.4508e-10 0)
(0.001 -1.36335e-11 0)
(0.00100001 6.76315e-10 0)
(0.00100001 1.42021e-09 0)
(0.00100001 2.16467e-09 0)
(0.00100002 2.05809e-09 0)
(0.00100003 1.71082e-09 0)
(0.00100004 -2.6609e-10 0)
(0.00100004 -2.36188e-09 0)
(0.00100006 -7.10274e-09 0)
(0.00100007 -1.13038e-08 0)
(0.00100009 -2.05599e-08 0)
(0.00100011 -2.72232e-08 0)
(0.00100013 -4.42557e-08 0)
(0.00100016 -5.34789e-08 0)
(0.00100019 -8.485e-08 0)
(0.00100022 -9.53436e-08 0)
(0.00100028 -1.54537e-07 0)
(0.0010003 -1.60843e-07 0)
(0.00100039 -2.75863e-07 0)
(0.001 -2.90805e-09 0)
(0.001 -9.2254e-09 0)
(0.001 -1.62624e-08 0)
(0.001 -2.42883e-08 0)
(0.00100001 -3.29265e-08 0)
(0.00100001 -4.26083e-08 0)
(0.00100002 -5.27315e-08 0)
(0.00100002 -6.44744e-08 0)
(0.00100003 -7.64302e-08 0)
(0.00100004 -9.12726e-08 0)
(0.00100005 -1.05697e-07 0)
(0.00100007 -1.25477e-07 0)
(0.00100009 -1.42779e-07 0)
(0.00100011 -1.70911e-07 0)
(0.00100013 -1.91159e-07 0)
(0.00100016 -2.34196e-07 0)
(0.00100018 -2.55635e-07 0)
(0.00100024 -3.26411e-07 0)
(0.00100025 -3.41404e-07 0)
(0.00100033 -4.64402e-07 0)
(0.001 -2.56579e-09 0)
(0.001 -7.49544e-09 0)
(0.001 -1.21137e-08 0)
(0.00100001 -1.67798e-08 0)
(0.00100001 -2.15127e-08 0)
(0.00100001 -2.70173e-08 0)
(0.00100002 -3.30172e-08 0)
(0.00100002 -4.07213e-08 0)
(0.00100003 -4.88982e-08 0)
(0.00100004 -6.02219e-08 0)
(0.00100005 -7.13976e-08 0)
(0.00100006 -8.83432e-08 0)
(0.00100008 -1.03249e-07 0)
(0.0010001 -1.29429e-07 0)
(0.00100011 -1.48244e-07 0)
(0.00100014 -1.901e-07 0)
(0.00100016 -2.10803e-07 0)
(0.0010002 -2.80328e-07 0)
(0.00100021 -2.94393e-07 0)
(0.00100027 -4.15017e-07 0)
(0.001 -2.89747e-09 0)
(0.001 -8.84323e-09 0)
(0.001 -1.50949e-08 0)
(0.001 -2.20691e-08 0)
(0.00100001 -2.97499e-08 0)
(0.00100001 -3.87125e-08 0)
(0.00100001 -4.85225e-08 0)
(0.00100002 -6.0324e-08 0)
(0.00100002 -7.28451e-08 0)
(0.00100003 -8.86958e-08 0)
(0.00100004 -1.04572e-07 0)
(0.00100005 -1.26466e-07 0)
(0.00100006 -1.46388e-07 0)
(0.00100007 -1.7783e-07 0)
(0.00100009 -2.01756e-07 0)
(0.00100011 -2.49041e-07 0)
(0.00100012 -2.74522e-07 0)
(0.00100015 -3.49372e-07 0)
(0.00100016 -3.67072e-07 0)
(0.00100021 -4.92202e-07 0)
(0.001 -3.18385e-09 0)
(0.001 -9.71383e-09 0)
(0.001 -1.64623e-08 0)
(0.001 -2.37815e-08 0)
(0.001 -3.15616e-08 0)
(0.00100001 -4.04362e-08 0)
(0.00100001 -4.99439e-08 0)
(0.00100001 -6.13618e-08 0)
(0.00100002 -7.34457e-08 0)
(0.00100002 -8.88742e-08 0)
(0.00100003 -1.04444e-07 0)
(0.00100004 -1.2611e-07 0)
(0.00100004 -1.4598e-07 0)
(0.00100005 -1.77431e-07 0)
(0.00100006 -2.01631e-07 0)
(0.00100008 -2.4905e-07 0)
(0.00100009 -2.7501e-07 0)
(0.00100011 -3.49602e-07 0)
(0.00100012 -3.67447e-07 0)
(0.00100015 -4.90854e-07 0)
(0.001 -3.34781e-09 0)
(0.001 -1.02047e-08 0)
(0.001 -1.72366e-08 0)
(0.001 -2.48436e-08 0)
(0.001 -3.29274e-08 0)
(0.001 -4.22151e-08 0)
(0.00100001 -5.22678e-08 0)
(0.00100001 -6.4438e-08 0)
(0.00100001 -7.74314e-08 0)
(0.00100001 -9.39944e-08 0)
(0.00100002 -1.1086e-07 0)
(0.00100002 -1.34006e-07 0)
(0.00100003 -1.55447e-07 0)
(0.00100003 -1.88697e-07 0)
(0.00100004 -2.14611e-07 0)
(0.00100005 -2.64e-07 0)
(0.00100005 -2.91528e-07 0)
(0.00100007 -3.68114e-07 0)
(0.00100007 -3.86976e-07 0)
(0.00100009 -5.12486e-07 0)
(0.001 -3.43155e-09 0)
(0.001 -1.04415e-08 0)
(0.001 -1.76255e-08 0)
(0.001 -2.54015e-08 0)
(0.001 -3.37046e-08 0)
(0.001 -4.32615e-08 0)
(0.001 -5.3652e-08 0)
(0.001 -6.61991e-08 0)
(0.001 -7.9596e-08 0)
(0.001 -9.65631e-08 0)
(0.00100001 -1.1383e-07 0)
(0.00100001 -1.37347e-07 0)
(0.00100001 -1.59188e-07 0)
(0.00100001 -1.92789e-07 0)
(0.00100001 -2.19118e-07 0)
(0.00100002 -2.68785e-07 0)
(0.00100002 -2.96713e-07 0)
(0.00100002 -3.73362e-07 0)
(0.00100002 -3.92529e-07 0)
(0.00100003 -5.17475e-07 0)
(0.001 -3.44579e-09 0)
(0.001 -1.0443e-08 0)
(0.001 -1.76266e-08 0)
(0.000999999 -2.53894e-08 0)
(0.000999999 -3.3694e-08 0)
(0.000999999 -4.32447e-08 0)
(0.000999998 -5.36482e-08 0)
(0.000999997 -6.61911e-08 0)
(0.000999996 -7.96016e-08 0)
(0.000999995 -9.65696e-08 0)
(0.000999994 -1.13826e-07 0)
(0.000999993 -1.37349e-07 0)
(0.000999991 -1.59183e-07 0)
(0.000999989 -1.92771e-07 0)
(0.000999987 -2.19109e-07 0)
(0.000999984 -2.68788e-07 0)
(0.000999982 -2.96715e-07 0)
(0.000999978 -3.73355e-07 0)
(0.000999977 -3.92526e-07 0)
(0.00099997 -5.17472e-07 0)
(0.001 -3.37137e-09 0)
(0.001 -1.02094e-08 0)
(0.000999999 -1.72405e-08 0)
(0.000999998 -2.48207e-08 0)
(0.000999997 -3.29144e-08 0)
(0.000999996 -4.21852e-08 0)
(0.000999994 -5.22634e-08 0)
(0.000999992 -6.4426e-08 0)
(0.000999989 -7.7441e-08 0)
(0.000999986 -9.40155e-08 0)
(0.000999983 -1.10861e-07 0)
(0.000999978 -1.34005e-07 0)
(0.000999973 -1.55435e-07 0)
(0.000999967 -1.88661e-07 0)
(0.000999961 -2.1459e-07 0)
(0.000999952 -2.63992e-07 0)
(0.000999946 -2.91515e-07 0)
(0.000999934 -3.68073e-07 0)
(0.00099993 -3.86946e-07 0)
(0.000999911 -5.12432e-07 0)
(0.001 -3.18748e-09 0)
(0.001 -9.71872e-09 0)
(0.000999999 -1.64636e-08 0)
(0.000999997 -2.37786e-08 0)
(0.000999996 -3.15677e-08 0)
(0.000999993 -4.04249e-08 0)
(0.000999991 -4.99408e-08 0)
(0.000999987 -6.13633e-08 0)
(0.000999983 -7.34439e-08 0)
(0.000999977 -8.89002e-08 0)
(0.000999971 -1.04472e-07 0)
(0.000999964 -1.26119e-07 0)
(0.000999956 -1.4598e-07 0)
(0.000999945 -1.77424e-07 0)
(0.000999936 -2.01634e-07 0)
(0.000999921 -2.49056e-07 0)
(0.000999911 -2.75016e-07 0)
(0.000999889 -3.49591e-07 0)
(0.000999882 -3.67446e-07 0)
(0.000999852 -4.90844e-07 0)
(0.001 -2.87787e-09 0)
(0.000999999 -8.83964e-09 0)
(0.000999998 -1.50925e-08 0)
(0.000999996 -2.20956e-08 0)
(0.000999994 -2.97554e-08 0)
(0.000999991 -3.87262e-08 0)
(0.000999987 -4.85053e-08 0)
(0.000999982 -6.03314e-08 0)
(0.000999977 -7.28197e-08 0)
(0.000999969 -8.86752e-08 0)
(0.000999962 -1.04585e-07 0)
(0.000999951 -1.26467e-07 0)
(0.000999941 -1.4638e-07 0)
(0.000999925 -1.77808e-07 0)
(0.000999913 -2.01732e-07 0)
(0.000999891 -2.48992e-07 0)
(0.000999878 -2.74478e-07 0)
(0.000999847 -3.49284e-07 0)
(0.000999839 -3.66991e-07 0)
(0.000999792 -4.9206e-07 0)
(0.001 -2.54259e-09 0)
(0.000999999 -7.48698e-09 0)
(0.000999997 -1.21184e-08 0)
(0.000999995 -1.68067e-08 0)
(0.000999991 -2.15097e-08 0)
(0.000999987 -2.70575e-08 0)
(0.000999982 -3.29995e-08 0)
(0.000999975 -4.07329e-08 0)
(0.000999968 -4.8901e-08 0)
(0.000999959 -6.01887e-08 0)
(0.000999949 -7.13953e-08 0)
(0.000999935 -8.83639e-08 0)
(0.000999922 -1.03277e-07 0)
(0.000999903 -1.2945e-07 0)
(0.000999886 -1.48259e-07 0)
(0.000999859 -1.901e-07 0)
(0.000999841 -2.10814e-07 0)
(0.000999802 -2.80327e-07 0)
(0.000999788 -2.94399e-07 0)
(0.000999731 -4.15002e-07 0)
(0.001 -2.90577e-09 0)
(0.001 -9.21871e-09 0)
(0.000999999 -1.62613e-08 0)
(0.000999997 -2.42703e-08 0)
(0.000999994 -3.29229e-08 0)
(0.00099999 -4.26188e-08 0)
(0.000999984 -5.27215e-08 0)
(0.000999977 -6.44265e-08 0)
(0.000999969 -7.64404e-08 0)
(0.000999958 -9.12379e-08 0)
(0.000999946 -1.05648e-07 0)
(0.00099993 -1.25446e-07 0)
(0.000999915 -1.42774e-07 0)
(0.000999891 -1.70894e-07 0)
(0.000999872 -1.91144e-07 0)
(0.000999837 -2.34143e-07 0)
(0.000999817 -2.55601e-07 0)
(0.000999764 -3.2633e-07 0)
(0.000999752 -3.41347e-07 0)
(0.00099967 -4.64246e-07 0)
(0.001 -1.65406e-10 0)
(0.000999998 -2.14173e-11 0)
(0.000999995 6.80028e-10 0)
(0.00099999 1.44921e-09 0)
(0.000999986 2.12592e-09 0)
(0.00099998 2.07973e-09 0)
(0.000999973 1.61461e-09 0)
(0.000999965 -2.44207e-10 0)
(0.000999955 -2.37549e-09 0)
(0.000999943 -7.1092e-09 0)
(0.00099993 -1.12761e-08 0)
(0.000999912 -2.05321e-08 0)
(0.000999894 -2.72175e-08 0)
(0.000999867 -4.42536e-08 0)
(0.000999845 -5.34839e-08 0)
(0.000999805 -8.48321e-08 0)
(0.000999779 -9.53347e-08 0)
(0.00099972 -1.54507e-07 0)
(0.000999699 -1.60825e-07 0)
(0.000999611 -2.75805e-07 0)
(0.001 -3.978e-09 0)
(0.001 -1.30079e-08 0)
(0.001 -2.30123e-08 0)
(0.000999998 -3.35834e-08 0)
(0.000999995 -4.41293e-08 0)
(0.000999989 -5.49065e-08 0)
(0.000999983 -6.56907e-08 0)
(0.000999974 -7.73571e-08 0)
(0.000999964 -8.88577e-08 0)
(0.00099995 -1.0258e-07 0)
(0.000999935 -1.15339e-07 0)
(0.000999914 -1.32471e-07 0)
(0.000999896 -1.46553e-07 0)
(0.000999864 -1.70015e-07 0)
(0.000999841 -1.85104e-07 0)
(0.000999791 -2.21028e-07 0)
(0.000999767 -2.3559e-07 0)
(0.000999687 -2.97445e-07 0)
(0.000999672 -3.06125e-07 0)
(0.000999539 -4.22102e-07 0)
(0.001 3.97174e-09 0)
(0.000999996 1.2104e-08 0)
(0.000999991 2.02243e-08 0)
(0.000999987 2.79108e-08 0)
(0.000999982 3.51782e-08 0)
(0.000999976 4.16671e-08 0)
(0.000999969 4.78808e-08 0)
(0.000999959 5.30705e-08 0)
(0.000999948 5.84192e-08 0)
(0.000999934 6.22849e-08 0)
(0.000999919 6.69277e-08 0)
(0.000999897 6.85616e-08 0)
(0.000999878 7.26731e-08 0)
(0.000999844 6.988e-08 0)
(0.000999819 7.40311e-08 0)
(0.000999767 6.1728e-08 0)
(0.000999738 6.72204e-08 0)
(0.000999654 3.18789e-08 0)
(0.000999629 3.99624e-08 0)
(0.000999496 -5.44409e-08 0)
(0.001 -8.73093e-09 0)
(0.001 -2.37373e-08 0)
(0.001 -3.59687e-08 0)
(0.000999997 -4.67021e-08 0)
(0.000999993 -5.68265e-08 0)
(0.000999986 -6.73527e-08 0)
(0.000999979 -7.78146e-08 0)
(0.000999968 -8.91563e-08 0)
(0.000999958 -1.00003e-07 0)
(0.000999942 -1.12013e-07 0)
(0.000999928 -1.22758e-07 0)
(0.000999903 -1.3625e-07 0)
(0.000999886 -1.46597e-07 0)
(0.000999846 -1.63386e-07 0)
(0.000999826 -1.72199e-07 0)
(0.00099976 -1.96305e-07 0)
(0.000999742 -2.0081e-07 0)
(0.000999623 -2.43056e-07 0)
(0.000999618 -2.39212e-07 0)
(0.000999394 -3.31991e-07 0)
)
;

boundaryField
{
    sides
    {
        type            slip;
    }
    inlet
    {
        type            fixedValue;
        value           uniform (0.001 0 0);
    }
    outlet
    {
        type            zeroGradient;
    }
    frontAndBack
    {
        type            empty;
    }
}


// ************************************************************************* //
