/*--------------------------------*- C++ -*----------------------------------*\
  =========                 |
  \\      /  F ield         | OpenFOAM: The Open Source CFD Toolbox
   \\    /   O peration     | Website:  https://openfoam.org
    \\  /    A nd           | Version:  7
     \\/     M anipulation  |
\*---------------------------------------------------------------------------*/
FoamFile
{
    version     2.0;
    format      ascii;
    class       volVectorField;
    location    "77";
    object      U;
}
// * * * * * * * * * * * * * * * * * * * * * * * * * * * * * * * * * * * * * //

dimensions      [0 1 -1 0 0 0 0];

internalField   nonuniform List<vector> 
400
(
(0.0999931 -8.73301e-07 0)
(0.099993 -2.37356e-06 0)
(0.0999931 -3.59476e-06 0)
(0.0999934 -4.66724e-06 0)
(0.0999939 -5.68826e-06 0)
(0.0999947 -6.73467e-06 0)
(0.0999955 -7.81137e-06 0)
(0.0999966 -8.92456e-06 0)
(0.0999978 -9.99282e-06 0)
(0.0999996 -1.11911e-05 0)
(0.100001 -1.22657e-05 0)
(0.100004 -1.36177e-05 0)
(0.100006 -1.46541e-05 0)
(0.10001 -1.63339e-05 0)
(0.100013 -1.72143e-05 0)
(0.10002 -1.96247e-05 0)
(0.100022 -2.00741e-05 0)
(0.100035 -2.4298e-05 0)
(0.100036 -2.39126e-05 0)
(0.10006 -3.31855e-05 0)
(0.0999943 3.96233e-07 0)
(0.0999947 1.21017e-06 0)
(0.0999952 2.02367e-06 0)
(0.0999958 2.79339e-06 0)
(0.0999963 3.51025e-06 0)
(0.099997 4.16745e-06 0)
(0.0999978 4.76161e-06 0)
(0.0999988 5.30082e-06 0)
(0.1 5.84244e-06 0)
(0.100002 6.23309e-06 0)
(0.100003 6.69906e-06 0)
(0.100006 6.85824e-06 0)
(0.100008 7.26662e-06 0)
(0.100012 6.98489e-06 0)
(0.100014 7.401e-06 0)
(0.10002 6.16781e-06 0)
(0.100024 6.71862e-06 0)
(0.100033 3.17967e-06 0)
(0.100036 3.99052e-06 0)
(0.10005 -5.45641e-06 0)
(0.0999948 -3.97384e-07 0)
(0.0999947 -1.30077e-06 0)
(0.0999947 -2.30254e-06 0)
(0.099995 -3.35888e-06 0)
(0.0999953 -4.41117e-06 0)
(0.099996 -5.48914e-06 0)
(0.0999967 -6.55436e-06 0)
(0.0999977 -7.72457e-06 0)
(0.0999988 -8.88523e-06 0)
(0.1 -1.02562e-05 0)
(0.100002 -1.15314e-05 0)
(0.100004 -1.32471e-05 0)
(0.100006 -1.46554e-05 0)
(0.10001 -1.70027e-05 0)
(0.100013 -1.85094e-05 0)
(0.100018 -2.21047e-05 0)
(0.100021 -2.35573e-05 0)
(0.100029 -2.97473e-05 0)
(0.100032 -3.06105e-05 0)
(0.100046 -4.22165e-05 0)
(0.0999956 -1.44003e-08 0)
(0.0999958 -1.94916e-09 0)
(0.0999962 6.63406e-08 0)
(0.0999966 1.41808e-07 0)
(0.0999972 2.14458e-07 0)
(0.0999978 2.05071e-07 0)
(0.0999986 1.70847e-07 0)
(0.0999995 -2.16399e-08 0)
(0.100001 -2.34534e-07 0)
(0.100002 -7.08479e-07 0)
(0.100003 -1.12865e-06 0)
(0.100005 -2.05605e-06 0)
(0.100007 -2.72361e-06 0)
(0.10001 -4.42736e-06 0)
(0.100013 -5.34976e-06 0)
(0.100017 -8.48633e-06 0)
(0.10002 -9.53444e-06 0)
(0.100027 -1.54533e-05 0)
(0.100029 -1.60831e-05 0)
(0.100039 -2.75847e-05 0)
(0.0999962 -2.90526e-07 0)
(0.0999963 -9.22966e-07 0)
(0.0999964 -1.62729e-06 0)
(0.0999966 -2.43003e-06 0)
(0.0999969 -3.29264e-06 0)
(0.0999974 -4.26308e-06 0)
(0.099998 -5.2708e-06 0)
(0.0999988 -6.44512e-06 0)
(0.0999997 -7.64331e-06 0)
(0.100001 -9.12519e-06 0)
(0.100002 -1.05687e-05 0)
(0.100004 -1.25487e-05 0)
(0.100006 -1.42796e-05 0)
(0.100008 -1.70929e-05 0)
(0.100011 -1.91175e-05 0)
(0.100014 -2.34205e-05 0)
(0.100017 -2.55631e-05 0)
(0.100022 -3.26408e-05 0)
(0.100024 -3.41396e-05 0)
(0.100033 -4.64388e-05 0)
(0.0999969 -2.56528e-07 0)
(0.0999971 -7.50486e-07 0)
(0.0999972 -1.21234e-06 0)
(0.0999975 -1.6801e-06 0)
(0.0999979 -2.1508e-06 0)
(0.0999984 -2.70303e-06 0)
(0.099999 -3.29933e-06 0)
(0.0999997 -4.07218e-06 0)
(0.1 -4.88803e-06 0)
(0.100002 -6.02022e-06 0)
(0.100003 -7.14067e-06 0)
(0.100004 -8.83631e-06 0)
(0.100006 -1.0327e-05 0)
(0.100008 -1.2945e-05 0)
(0.10001 -1.4826e-05 0)
(0.100013 -1.90109e-05 0)
(0.100015 -2.10799e-05 0)
(0.100019 -2.80325e-05 0)
(0.100021 -2.9438e-05 0)
(0.100027 -4.14998e-05 0)
(0.0999976 -2.8993e-07 0)
(0.0999977 -8.85305e-07 0)
(0.0999978 -1.51038e-06 0)
(0.099998 -2.20841e-06 0)
(0.0999983 -2.97604e-06 0)
(0.0999986 -3.87148e-06 0)
(0.0999991 -4.85162e-06 0)
(0.0999996 -6.03251e-06 0)
(0.1 -7.28253e-06 0)
(0.100001 -8.86955e-06 0)
(0.100002 -1.04586e-05 0)
(0.100003 -1.26474e-05 0)
(0.100004 -1.46402e-05 0)
(0.100006 -1.77846e-05 0)
(0.100007 -2.01766e-05 0)
(0.10001 -2.49048e-05 0)
(0.100011 -2.74523e-05 0)
(0.100015 -3.4937e-05 0)
(0.100016 -3.67054e-05 0)
(0.100021 -4.92179e-05 0)
(0.0999983 -3.19016e-07 0)
(0.0999984 -9.72344e-07 0)
(0.0999985 -1.64761e-06 0)
(0.0999986 -2.37872e-06 0)
(0.0999988 -3.15731e-06 0)
(0.099999 -4.04291e-06 0)
(0.0999994 -4.99394e-06 0)
(0.0999998 -6.13489e-06 0)
(0.1 -7.34326e-06 0)
(0.100001 -8.88752e-06 0)
(0.100002 -1.04443e-05 0)
(0.100002 -1.2611e-05 0)
(0.100003 -1.45994e-05 0)
(0.100004 -1.77449e-05 0)
(0.100005 -2.01645e-05 0)
(0.100007 -2.49066e-05 0)
(0.100008 -2.75017e-05 0)
(0.100011 -3.49599e-05 0)
(0.100012 -3.67419e-05 0)
(0.100015 -4.90823e-05 0)
(0.099999 -3.35544e-07 0)
(0.099999 -1.0215e-06 0)
(0.0999991 -1.72517e-06 0)
(0.0999992 -2.48521e-06 0)
(0.0999993 -3.29329e-06 0)
(0.0999994 -4.22089e-06 0)
(0.0999996 -5.2263e-06 0)
(0.0999999 -6.44208e-06 0)
(0.1 -7.74255e-06 0)
(0.100001 -9.3983e-06 0)
(0.100001 -1.10847e-05 0)
(0.100001 -1.34009e-05 0)
(0.100002 -1.55458e-05 0)
(0.100003 -1.88711e-05 0)
(0.100003 -2.14633e-05 0)
(0.100004 -2.64028e-05 0)
(0.100005 -2.91543e-05 0)
(0.100006 -3.68113e-05 0)
(0.100007 -3.86948e-05 0)
(0.100009 -5.12454e-05 0)
(0.0999997 -3.43659e-07 0)
(0.0999997 -1.0452e-06 0)
(0.0999997 -1.76388e-06 0)
(0.0999997 -2.54157e-06 0)
(0.0999998 -3.37131e-06 0)
(0.0999998 -4.32623e-06 0)
(0.0999999 -5.36474e-06 0)
(0.1 -6.61834e-06 0)
(0.1 -7.95879e-06 0)
(0.1 -9.65489e-06 0)
(0.1 -1.13822e-05 0)
(0.1 -1.37357e-05 0)
(0.100001 -1.59204e-05 0)
(0.100001 -1.9281e-05 0)
(0.100001 -2.19148e-05 0)
(0.100001 -2.68819e-05 0)
(0.100002 -2.96728e-05 0)
(0.100002 -3.73361e-05 0)
(0.100002 -3.92504e-05 0)
(0.100003 -5.17444e-05 0)
(0.1 -3.44768e-07 0)
(0.1 -1.04492e-06 0)
(0.1 -1.76396e-06 0)
(0.1 -2.54057e-06 0)
(0.1 -3.37118e-06 0)
(0.1 -4.32541e-06 0)
(0.1 -5.36471e-06 0)
(0.1 -6.61827e-06 0)
(0.0999999 -7.95879e-06 0)
(0.0999998 -9.65647e-06 0)
(0.0999997 -1.1383e-05 0)
(0.0999995 -1.3736e-05 0)
(0.0999993 -1.5921e-05 0)
(0.0999991 -1.92806e-05 0)
(0.0999989 -2.19139e-05 0)
(0.0999986 -2.68813e-05 0)
(0.0999983 -2.96724e-05 0)
(0.0999979 -3.73359e-05 0)
(0.0999977 -3.92508e-05 0)
(0.0999971 -5.17445e-05 0)
(0.100001 -3.36945e-07 0)
(0.100001 -1.02157e-06 0)
(0.100001 -1.72537e-06 0)
(0.100001 -2.48405e-06 0)
(0.100001 -3.29334e-06 0)
(0.100001 -4.21971e-06 0)
(0.1 -5.22587e-06 0)
(0.1 -6.44204e-06 0)
(0.0999998 -7.74202e-06 0)
(0.0999995 -9.40112e-06 0)
(0.0999991 -1.10872e-05 0)
(0.0999985 -1.34016e-05 0)
(0.099998 -1.55461e-05 0)
(0.0999973 -1.88698e-05 0)
(0.0999967 -2.14617e-05 0)
(0.0999957 -2.64008e-05 0)
(0.099995 -2.91519e-05 0)
(0.0999936 -3.68079e-05 0)
(0.0999932 -3.86935e-05 0)
(0.0999912 -5.12409e-05 0)
(0.100002 -3.18544e-07 0)
(0.100002 -9.72844e-07 0)
(0.100002 -1.64768e-06 0)
(0.100001 -2.38017e-06 0)
(0.100001 -3.1575e-06 0)
(0.100001 -4.04334e-06 0)
(0.100001 -4.99264e-06 0)
(0.1 -6.13513e-06 0)
(0.0999997 -7.34215e-06 0)
(0.0999991 -8.88808e-06 0)
(0.0999985 -1.04478e-05 0)
(0.0999976 -1.26137e-05 0)
(0.0999968 -1.46003e-05 0)
(0.0999956 -1.77452e-05 0)
(0.0999945 -2.0166e-05 0)
(0.0999929 -2.49074e-05 0)
(0.0999917 -2.75016e-05 0)
(0.0999894 -3.49593e-05 0)
(0.0999885 -3.67435e-05 0)
(0.0999853 -4.90823e-05 0)
(0.100002 -2.8817e-07 0)
(0.100002 -8.84938e-07 0)
(0.100002 -1.51064e-06 0)
(0.100002 -2.2109e-06 0)
(0.100002 -2.97569e-06 0)
(0.100001 -3.87353e-06 0)
(0.100001 -4.84994e-06 0)
(0.1 -6.03191e-06 0)
(0.0999998 -7.28174e-06 0)
(0.099999 -8.86554e-06 0)
(0.0999981 -1.04575e-05 0)
(0.0999969 -1.26479e-05 0)
(0.0999957 -1.46397e-05 0)
(0.0999941 -1.77827e-05 0)
(0.0999926 -2.01754e-05 0)
(0.0999903 -2.49011e-05 0)
(0.0999887 -2.74482e-05 0)
(0.0999853 -3.49286e-05 0)
(0.0999843 -3.6698e-05 0)
(0.0999793 -4.9204e-05 0)
(0.100003 -2.55217e-07 0)
(0.100003 -7.49602e-07 0)
(0.100003 -1.213e-06 0)
(0.100002 -1.68045e-06 0)
(0.100002 -2.15195e-06 0)
(0.100002 -2.70516e-06 0)
(0.100001 -3.30053e-06 0)
(0.1 -4.07077e-06 0)
(0.0999995 -4.89033e-06 0)
(0.0999985 -6.01862e-06 0)
(0.0999973 -7.1383e-06 0)
(0.0999959 -8.83665e-06 0)
(0.0999944 -1.03293e-05 0)
(0.0999923 -1.29471e-05 0)
(0.0999904 -1.48282e-05 0)
(0.0999874 -1.90121e-05 0)
(0.0999853 -2.10822e-05 0)
(0.0999811 -2.80326e-05 0)
(0.0999793 -2.94376e-05 0)
(0.0999733 -4.14976e-05 0)
(0.100004 -2.91767e-07 0)
(0.100004 -9.22448e-07 0)
(0.100004 -1.62644e-06 0)
(0.100003 -2.42675e-06 0)
(0.100003 -3.29448e-06 0)
(0.100003 -4.26026e-06 0)
(0.100002 -5.27565e-06 0)
(0.100001 -6.44204e-06 0)
(0.1 -7.64324e-06 0)
(0.0999991 -9.1256e-06 0)
(0.0999978 -1.05654e-05 0)
(0.099996 -1.25448e-05 0)
(0.0999942 -1.42785e-05 0)
(0.0999916 -1.70912e-05 0)
(0.0999895 -1.91163e-05 0)
(0.0999856 -2.34163e-05 0)
(0.0999833 -2.55613e-05 0)
(0.0999776 -3.26332e-05 0)
(0.099976 -3.4133e-05 0)
(0.0999673 -4.64226e-05 0)
(0.100004 -1.79499e-08 0)
(0.100004 -2.79586e-09 0)
(0.100004 6.78583e-08 0)
(0.100003 1.43942e-07 0)
(0.100003 2.11084e-07 0)
(0.100002 2.0968e-07 0)
(0.100001 1.58807e-07 0)
(0.100001 -2.81928e-08 0)
(0.0999994 -2.36071e-07 0)
(0.0999981 -7.11631e-07 0)
(0.0999966 -1.12887e-06 0)
(0.0999946 -2.05372e-06 0)
(0.0999926 -2.72259e-06 0)
(0.0999897 -4.42669e-06 0)
(0.0999871 -5.34977e-06 0)
(0.0999828 -8.48476e-06 0)
(0.0999798 -9.53431e-06 0)
(0.0999734 -1.54508e-05 0)
(0.0999707 -1.60811e-05 0)
(0.0999614 -2.75788e-05 0)
(0.100005 -3.9729e-07 0)
(0.100005 -1.30149e-06 0)
(0.100005 -2.30212e-06 0)
(0.100005 -3.36102e-06 0)
(0.100005 -4.41294e-06 0)
(0.100004 -5.49095e-06 0)
(0.100003 -6.56725e-06 0)
(0.100002 -7.7351e-06 0)
(0.100001 -8.88678e-06 0)
(0.0999996 -1.02571e-05 0)
(0.099998 -1.15347e-05 0)
(0.0999957 -1.32485e-05 0)
(0.0999936 -1.46568e-05 0)
(0.0999901 -1.7003e-05 0)
(0.0999874 -1.85118e-05 0)
(0.0999821 -2.21043e-05 0)
(0.0999791 -2.35599e-05 0)
(0.0999706 -2.97451e-05 0)
(0.0999684 -3.0612e-05 0)
(0.0999544 -4.22093e-05 0)
(0.100006 3.99857e-07 0)
(0.100005 1.20979e-06 0)
(0.100005 2.02027e-06 0)
(0.100004 2.79002e-06 0)
(0.100004 3.52074e-06 0)
(0.100003 4.16022e-06 0)
(0.100002 4.79877e-06 0)
(0.100001 5.31113e-06 0)
(0.1 5.84398e-06 0)
(0.0999984 6.23154e-06 0)
(0.0999967 6.69349e-06 0)
(0.0999943 6.85573e-06 0)
(0.0999921 7.26722e-06 0)
(0.0999884 6.98813e-06 0)
(0.0999855 7.40317e-06 0)
(0.0999799 6.17268e-06 0)
(0.0999764 6.72193e-06 0)
(0.0999674 3.18757e-06 0)
(0.0999642 3.99606e-06 0)
(0.09995 -5.44393e-06 0)
(0.100007 -8.7183e-07 0)
(0.100007 -2.37449e-06 0)
(0.100007 -3.59893e-06 0)
(0.100007 -4.6702e-06 0)
(0.100006 -5.68074e-06 0)
(0.100005 -6.7413e-06 0)
(0.100005 -7.77324e-06 0)
(0.100003 -8.9158e-06 0)
(0.100002 -9.99757e-06 0)
(0.1 -1.12e-05 0)
(0.0999988 -1.22764e-05 0)
(0.0999961 -1.36264e-05 0)
(0.0999941 -1.46611e-05 0)
(0.0999898 -1.634e-05 0)
(0.0999874 -1.72212e-05 0)
(0.0999803 -1.96317e-05 0)
(0.0999779 -2.00818e-05 0)
(0.0999653 -2.43063e-05 0)
(0.0999638 -2.39211e-05 0)
(0.0999402 -3.31989e-05 0)
)
;

boundaryField
{
    sides
    {
        type            calculated;
        value           nonuniform List<vector> 
40
(
(0.100007 0 0)
(0.100007 0 0)
(0.100007 0 0)
(0.100007 0 0)
(0.100006 0 0)
(0.100005 0 0)
(0.100005 0 0)
(0.100003 0 0)
(0.100002 0 0)
(0.1 0 0)
(0.0999988 0 0)
(0.0999961 0 0)
(0.0999941 0 0)
(0.0999898 0 0)
(0.0999874 0 0)
(0.0999803 0 0)
(0.0999779 0 0)
(0.0999653 0 0)
(0.0999638 0 0)
(0.0999402 0 0)
(0.0999931 0 0)
(0.099993 0 0)
(0.0999931 0 0)
(0.0999934 0 0)
(0.0999939 0 0)
(0.0999947 0 0)
(0.0999955 0 0)
(0.0999966 0 0)
(0.0999978 0 0)
(0.0999996 0 0)
(0.100001 0 0)
(0.100004 0 0)
(0.100006 0 0)
(0.10001 0 0)
(0.100013 0 0)
(0.10002 0 0)
(0.100022 0 0)
(0.100035 0 0)
(0.100036 0 0)
(0.10006 0 0)
)
;
    }
    inlet
    {
        type            calculated;
        value           nonuniform List<vector> 
20
(
(0.0999931 0 0)
(0.0999943 0 0)
(0.0999948 0 0)
(0.0999956 0 0)
(0.0999962 0 0)
(0.0999969 0 0)
(0.0999976 0 0)
(0.0999983 0 0)
(0.099999 0 0)
(0.0999997 0 0)
(0.1 0 0)
(0.100001 0 0)
(0.100002 0 0)
(0.100002 0 0)
(0.100003 0 0)
(0.100004 0 0)
(0.100004 0 0)
(0.100005 0 0)
(0.100006 0 0)
(0.100007 0 0)
)
;
    }
    outlet
    {
        type            calculated;
        value           nonuniform List<vector> 
20
(
(0.100061 -3.31858e-05 0)
(0.10005 -5.45643e-06 0)
(0.100046 -4.22167e-05 0)
(0.100039 -2.75847e-05 0)
(0.100033 -4.64389e-05 0)
(0.100027 -4.14999e-05 0)
(0.100021 -4.9218e-05 0)
(0.100015 -4.90824e-05 0)
(0.100009 -5.12454e-05 0)
(0.100003 -5.17444e-05 0)
(0.099997 -5.17445e-05 0)
(0.0999911 -5.12409e-05 0)
(0.0999852 -4.90823e-05 0)
(0.0999792 -4.92039e-05 0)
(0.0999731 -4.14976e-05 0)
(0.099967 -4.64225e-05 0)
(0.0999611 -2.75787e-05 0)
(0.0999539 -4.22091e-05 0)
(0.0999496 -5.44391e-06 0)
(0.0999394 -3.31986e-05 0)
)
;
    }
    frontAndBack
    {
        type            empty;
    }
}


// ************************************************************************* //
