/*--------------------------------*- C++ -*----------------------------------*\
  =========                 |
  \\      /  F ield         | OpenFOAM: The Open Source CFD Toolbox
   \\    /   O peration     | Website:  https://openfoam.org
    \\  /    A nd           | Version:  7
     \\/     M anipulation  |
\*---------------------------------------------------------------------------*/
FoamFile
{
    version     2.0;
    format      ascii;
    class       volVectorField;
    location    "83";
    object      ddt0(hU);
}
// * * * * * * * * * * * * * * * * * * * * * * * * * * * * * * * * * * * * * //

dimensions      [0 2 -2 0 0 0 0];

internalField   nonuniform List<vector> 
400
(
(-1.66976e-10 -1.32161e-10 0)
(-1.78575e-10 -4.50388e-11 0)
(1.67211e-11 2.6134e-10 0)
(2.66969e-10 4.07239e-11 0)
(2.70824e-10 -4.13818e-10 0)
(-1.81241e-09 -8.98839e-11 0)
(5.16733e-10 -3.69088e-10 0)
(2.42046e-09 -1.84981e-09 0)
(-1.51056e-09 4.15299e-10 0)
(1.64486e-10 4.57309e-10 0)
(4.32143e-10 2.20532e-10 0)
(5.18351e-10 -3.1234e-11 0)
(1.49085e-10 -2.07273e-10 0)
(-2.2477e-10 -2.06197e-10 0)
(-2.84289e-10 -1.03435e-10 0)
(-1.25315e-10 -5.1472e-12 0)
(2.88275e-11 4.75057e-11 0)
(8.78045e-11 4.71239e-11 0)
(6.36013e-11 5.47877e-11 0)
(-2.5273e-11 3.56706e-11 0)
(-2.62416e-12 -2.16815e-10 0)
(5.53924e-11 -1.50105e-11 0)
(-5.58123e-12 3.62158e-10 0)
(4.25154e-11 1.29362e-10 0)
(-2.47438e-10 -5.97143e-10 0)
(2.07455e-09 2.76639e-10 0)
(3.24688e-10 -9.69173e-10 0)
(-4.36368e-09 -1.37322e-09 0)
(1.41734e-09 6.3022e-10 0)
(-6.6407e-11 4.36344e-10 0)
(-2.20469e-10 3.69772e-10 0)
(-7.58058e-11 6.42543e-11 0)
(-1.01508e-10 -2.57181e-10 0)
(-1.13586e-10 -2.94869e-10 0)
(-5.61345e-11 -1.37209e-10 0)
(3.25505e-11 5.9185e-12 0)
(7.56222e-11 6.06392e-11 0)
(6.2091e-11 4.96844e-11 0)
(2.5597e-11 3.74484e-11 0)
(-4.32465e-11 2.66374e-11 0)
(1.37905e-10 -3.71831e-11 0)
(1.62356e-10 -1.52229e-11 0)
(-3.59626e-12 -4.29303e-11 0)
(-7.0988e-11 1.16902e-10 0)
(-6.58676e-11 -9.9093e-11 0)
(1.57257e-10 4.00467e-10 0)
(-1.35612e-09 -4.41131e-10 0)
(1.65658e-09 1.20105e-09 0)
(6.62572e-10 9.77752e-11 0)
(-2.08258e-10 -1.22007e-10 0)
(-9.3317e-11 8.10006e-11 0)
(-3.68686e-10 -2.60572e-11 0)
(-3.7158e-10 -1.75508e-10 0)
(-1.03835e-10 -1.67307e-10 0)
(9.71152e-11 -6.52127e-11 0)
(1.64223e-10 3.00639e-12 0)
(1.31491e-10 4.05651e-11 0)
(5.01266e-11 4.65606e-11 0)
(-2.09812e-11 7.96023e-11 0)
(-8.68633e-11 6.62131e-11 0)
(6.01352e-11 9.27936e-11 0)
(4.31751e-11 -7.31796e-11 0)
(4.69655e-11 -2.25659e-10 0)
(-6.16748e-11 -3.48598e-11 0)
(1.09879e-10 1.47498e-10 0)
(-1.5219e-10 -1.98678e-10 0)
(1.99285e-10 3.91928e-10 0)
(7.74994e-10 5.73082e-10 0)
(-5.17167e-10 -3.5765e-10 0)
(-6.29083e-11 -1.24898e-10 0)
(-3.96066e-11 -1.54378e-10 0)
(-3.42001e-10 -2.40437e-10 0)
(-2.35425e-10 -1.36982e-10 0)
(3.70279e-11 -1.01163e-11 0)
(1.56727e-10 3.01141e-11 0)
(1.36298e-10 8.65105e-12 0)
(7.50501e-11 9.29035e-12 0)
(6.74398e-12 3.9422e-12 0)
(-4.66403e-11 6.02152e-11 0)
(-8.21111e-11 7.54123e-11 0)
(3.10303e-12 6.11627e-11 0)
(-4.7362e-11 -4.18142e-11 0)
(6.27432e-11 -1.0587e-10 0)
(-8.08885e-11 -1.73747e-10 0)
(1.19711e-10 1.62612e-10 0)
(-1.92661e-10 -2.94368e-10 0)
(3.91023e-10 3.70084e-10 0)
(-1.92862e-10 -2.6062e-10 0)
(-2.7846e-10 -1.96475e-10 0)
(1.38176e-10 5.6075e-11 0)
(-1.85617e-10 -1.55504e-10 0)
(-2.27475e-10 -1.82582e-10 0)
(4.8496e-11 2.08766e-12 0)
(1.84395e-10 8.23108e-11 0)
(1.45845e-10 2.12339e-11 0)
(4.34416e-11 -4.28261e-11 0)
(-3.82415e-11 -3.31682e-11 0)
(-5.75411e-11 -3.77041e-11 0)
(-4.71528e-11 2.60322e-11 0)
(-5.46385e-11 6.95013e-11 0)
(-2.94615e-11 -6.49852e-12 0)
(-6.04596e-11 -3.68632e-11 0)
(2.70149e-11 -2.97986e-11 0)
(2.81836e-13 -1.71748e-10 0)
(5.65422e-11 5.44545e-11 0)
(-4.86326e-11 -2.70019e-11 0)
(1.69499e-10 1.44244e-10 0)
(-3.0264e-10 -1.54836e-10 0)
(8.73917e-11 1.64869e-10 0)
(4.4443e-11 5.71709e-11 0)
(-2.96469e-10 -1.17526e-10 0)
(-1.31889e-11 1.10643e-11 0)
(2.30333e-10 9.86752e-11 0)
(1.46733e-10 3.36105e-11 0)
(2.58362e-11 -8.0439e-11 0)
(-4.29073e-11 -1.30966e-10 0)
(-9.97727e-11 -6.36041e-11 0)
(-8.44354e-11 -2.40363e-11 0)
(-2.88208e-12 6.73519e-11 0)
(1.8671e-11 9.93292e-11 0)
(-3.05596e-11 -6.32879e-11 0)
(-1.82643e-11 -3.74075e-11 0)
(-2.37504e-11 -5.1252e-11 0)
(7.13799e-11 -1.82677e-11 0)
(-2.68236e-11 -1.15946e-10 0)
(7.21178e-11 9.36667e-11 0)
(-6.25444e-11 -9.95144e-12 0)
(-8.85174e-11 3.37201e-11 0)
(1.36352e-10 2.04737e-10 0)
(-1.86888e-10 -5.02288e-11 0)
(-8.02697e-11 2.51832e-11 0)
(2.43481e-10 1.70723e-10 0)
(2.16701e-10 3.01846e-11 0)
(1.55729e-11 -1.20632e-10 0)
(-1.11088e-10 -1.62215e-10 0)
(-1.37777e-10 -1.68526e-10 0)
(-1.38909e-10 -8.52969e-11 0)
(-1.03162e-10 -3.79487e-12 0)
(1.59607e-11 1.14867e-10 0)
(9.56386e-11 1.28212e-10 0)
(-1.28363e-11 -6.66007e-11 0)
(3.20113e-11 -2.13401e-11 0)
(-3.39653e-11 -8.36126e-11 0)
(8.13078e-11 2.81643e-11 0)
(-1.78145e-11 -9.9674e-11 0)
(1.08505e-10 4.99713e-11 0)
(-1.131e-10 -3.54519e-11 0)
(8.46705e-11 1.45419e-10 0)
(-3.04276e-11 8.50736e-11 0)
(-1.36875e-10 1.96432e-11 0)
(1.90493e-10 1.5497e-10 0)
(1.29892e-10 7.8002e-11 0)
(-4.18639e-11 -1.78631e-10 0)
(-3.35771e-11 -2.97741e-10 0)
(-7.42027e-11 -2.4416e-10 0)
(-1.12692e-10 -1.73432e-10 0)
(-6.773e-11 -5.75955e-11 0)
(-9.42138e-12 5.3553e-11 0)
(4.75623e-11 2.229e-10 0)
(7.08821e-11 1.94752e-10 0)
(1.39505e-11 -8.96812e-13 0)
(3.36602e-11 -6.54259e-11 0)
(-1.54648e-11 -5.81032e-11 0)
(1.45215e-11 -8.64065e-11 0)
(1.18482e-11 -4.13789e-11 0)
(4.87698e-11 -5.91387e-11 0)
(-1.70788e-11 -1.68675e-11 0)
(8.53663e-11 1.04251e-10 0)
(-5.44037e-11 -2.66674e-12 0)
(2.10638e-11 1.32126e-10 0)
(1.19434e-10 9.11306e-11 0)
(-9.44514e-11 -9.84941e-11 0)
(-1.38629e-10 -1.95535e-10 0)
(1.03723e-11 -2.76913e-10 0)
(1.97346e-11 -2.81491e-10 0)
(-3.52194e-11 -1.80358e-10 0)
(5.84371e-12 -1.6289e-11 0)
(6.27389e-11 9.08791e-11 0)
(5.18178e-11 2.49313e-10 0)
(4.54453e-12 2.11573e-10 0)
(-1.17172e-11 2.49576e-11 0)
(-3.40159e-11 -1.0019e-10 0)
(1.69962e-11 -5.74856e-11 0)
(-3.91045e-11 -1.15735e-10 0)
(1.47856e-11 -2.47111e-11 0)
(-3.26547e-11 -5.60626e-11 0)
(8.65424e-11 2.19482e-11 0)
(7.27954e-12 7.89344e-11 0)
(2.10719e-11 2.69648e-11 0)
(6.0311e-11 1.35123e-10 0)
(-9.84761e-11 1.99857e-11 0)
(-9.32634e-11 -1.10092e-10 0)
(-7.59885e-11 -1.06474e-10 0)
(-9.8164e-11 -1.76996e-10 0)
(1.34975e-11 -2.33159e-10 0)
(1.42339e-10 -1.56712e-10 0)
(1.57572e-10 6.39623e-12 0)
(1.00297e-10 8.88338e-11 0)
(9.33705e-12 2.20449e-10 0)
(-7.73361e-11 1.92626e-10 0)
(-1.16397e-11 -5.09239e-11 0)
(-5.49114e-11 -4.08996e-11 0)
(2.94047e-11 -9.71498e-11 0)
(-5.67835e-11 -3.6127e-11 0)
(5.41076e-12 -2.91673e-11 0)
(-7.29916e-11 4.79983e-11 0)
(1.00333e-10 4.79194e-11 0)
(-2.55624e-11 7.9128e-11 0)
(3.65954e-11 1.01115e-10 0)
(7.29997e-11 4.70462e-11 0)
(-1.46436e-10 4.97179e-11 0)
(-5.934e-11 1.8154e-11 0)
(-2.96407e-11 -6.59625e-11 0)
(-1.26229e-10 -8.357e-11 0)
(4.80971e-12 -6.51413e-11 0)
(1.78122e-10 -7.84864e-11 0)
(1.70533e-10 -3.70832e-11 0)
(6.77034e-11 -1.26563e-12 0)
(-4.82055e-11 1.33289e-10 0)
(-1.14438e-10 1.53759e-10 0)
(3.58364e-11 -6.99347e-11 0)
(1.15733e-11 -3.8816e-11 0)
(9.74115e-12 -1.06287e-10 0)
(-3.31653e-11 8.87596e-13 0)
(-1.12563e-11 -2.80038e-11 0)
(-4.82152e-11 9.50803e-11 0)
(2.50976e-12 6.44777e-11 0)
(3.64746e-11 2.64854e-11 0)
(-3.40213e-11 1.34107e-10 0)
(9.43702e-11 -4.32868e-11 0)
(4.87613e-11 -1.34174e-11 0)
(-9.15011e-11 6.78846e-11 0)
(-7.47976e-11 -1.07711e-11 0)
(-5.0479e-13 -9.86934e-12 0)
(1.59284e-11 1.13164e-11 0)
(2.19983e-12 -6.34792e-11 0)
(2.14386e-11 -7.59558e-11 0)
(3.88665e-11 -6.4553e-11 0)
(-1.3974e-11 5.27564e-11 0)
(-6.71624e-11 1.11747e-10 0)
(1.64352e-11 -8.35338e-12 0)
(5.01571e-11 -8.86709e-11 0)
(-9.47771e-12 -5.19907e-11 0)
(5.01288e-11 -1.025e-10 0)
(-4.40849e-11 9.5857e-12 0)
(1.78468e-11 1.78659e-12 0)
(-1.5337e-10 1.08428e-10 0)
(8.60641e-11 -4.03693e-11 0)
(-7.60155e-11 1.0085e-10 0)
(-2.39301e-11 1.05281e-11 0)
(2.73938e-10 -1.60308e-10 0)
(1.03983e-10 -1.16109e-10 0)
(-3.19698e-11 -3.7768e-11 0)
(2.03574e-11 -1.90741e-11 0)
(-5.25228e-11 -6.3114e-11 0)
(-1.50493e-10 -1.05665e-10 0)
(-1.07394e-10 -4.99062e-11 0)
(-2.87606e-11 -3.03562e-11 0)
(-2.24901e-12 5.76176e-11 0)
(3.18666e-11 1.037e-10 0)
(-2.25268e-11 2.76175e-11 0)
(2.88979e-11 -6.84769e-11 0)
(-2.11123e-11 -3.8745e-11 0)
(9.08147e-11 -1.52868e-10 0)
(-6.66626e-11 4.53241e-11 0)
(7.47806e-11 -1.48206e-10 0)
(-1.84777e-10 1.06001e-10 0)
(-7.39839e-12 -1.68767e-11 0)
(5.93325e-11 -4.74309e-11 0)
(-2.26862e-10 1.41964e-10 0)
(7.76071e-11 -8.23955e-11 0)
(2.90436e-10 -2.54793e-10 0)
(1.96306e-10 -1.79832e-10 0)
(4.99272e-11 -1.24467e-10 0)
(-9.27088e-11 -1.32382e-10 0)
(-1.58004e-10 -1.06778e-10 0)
(-1.30783e-10 -1.52892e-11 0)
(-6.03884e-11 1.53228e-11 0)
(3.24022e-11 1.01121e-10 0)
(1.10349e-10 1.22578e-10 0)
(-4.49525e-11 9.98012e-12 0)
(-2.22519e-11 -3.51602e-11 0)
(-7.50183e-12 -7.08422e-11 0)
(2.30344e-11 -1.44218e-11 0)
(-3.18487e-11 -4.45588e-11 0)
(9.26415e-12 -6.41751e-11 0)
(2.01605e-11 8.48451e-11 0)
(-2.77805e-10 2.54056e-10 0)
(2.0308e-10 -4.84058e-11 0)
(-4.32985e-11 1.47652e-10 0)
(-2.12856e-10 1.44193e-10 0)
(1.48361e-10 -1.30276e-10 0)
(3.10789e-10 -2.77419e-10 0)
(1.63842e-10 -2.81081e-10 0)
(-5.54256e-12 -2.0358e-10 0)
(-1.07977e-10 -1.01712e-10 0)
(-1.39943e-10 2.12351e-11 0)
(-8.08651e-11 8.5588e-11 0)
(4.00936e-11 1.92054e-10 0)
(1.25366e-10 1.6082e-10 0)
(-2.73451e-11 -4.06195e-11 0)
(-4.87273e-11 -7.30394e-12 0)
(2.11226e-11 -2.97746e-11 0)
(-7.92452e-11 6.53885e-11 0)
(8.90827e-11 -2.8282e-10 0)
(-1.17941e-10 2.1594e-10 0)
(3.52248e-10 -2.76921e-10 0)
(-3.47928e-10 4.00685e-10 0)
(-8.6502e-11 9.00859e-11 0)
(1.47514e-10 2.35883e-11 0)
(-2.46921e-10 2.22806e-10 0)
(-1.58719e-10 1.21767e-10 0)
(1.33396e-10 -1.35043e-10 0)
(2.07977e-10 -2.57235e-10 0)
(1.42639e-10 -2.03216e-10 0)
(2.84913e-11 -1.04811e-10 0)
(-4.52612e-11 8.65994e-12 0)
(-3.10202e-11 8.14787e-11 0)
(1.82479e-11 1.59541e-10 0)
(5.6121e-11 1.24867e-10 0)
(4.8372e-11 -6.92335e-11 0)
(-6.52378e-12 8.66844e-12 0)
(3.56802e-12 7.20215e-11 0)
(-1.88222e-10 -6.67986e-12 0)
(1.32603e-10 -3.72086e-10 0)
(-2.80967e-10 3.74568e-10 0)
(5.22787e-10 -7.82225e-10 0)
(1.62334e-10 1.47418e-12 0)
(-4.08584e-10 3.01362e-10 0)
(2.09825e-10 4.06689e-11 0)
(-2.2299e-11 1.84665e-10 0)
(-2.80169e-10 2.17383e-10 0)
(-1.24738e-10 2.18485e-11 0)
(1.03601e-10 -1.49075e-10 0)
(1.79946e-10 -1.7766e-10 0)
(1.12509e-10 -1.19819e-10 0)
(2.91813e-11 -1.66154e-11 0)
(-1.70261e-11 4.59613e-11 0)
(-3.82705e-11 1.15626e-10 0)
(-1.74379e-12 9.73567e-11 0)
(1.137e-10 -3.10254e-11 0)
(5.74202e-11 -4.84931e-11 0)
(-5.54508e-11 1.12463e-11 0)
(-2.62654e-10 -9.49995e-11 0)
(7.89598e-11 2.7425e-11 0)
(-2.72879e-10 -5.42318e-11 0)
(-4.22607e-10 -1.19548e-09 0)
(1.74089e-09 -5.65941e-10 0)
(-1.39568e-10 3.31183e-10 0)
(8.7771e-11 8.65783e-11 0)
(1.1275e-10 -8.73989e-11 0)
(-2.96439e-10 1.59137e-11 0)
(-2.91524e-10 9.00702e-11 0)
(-4.87427e-11 4.14025e-11 0)
(1.13159e-10 -4.51393e-11 0)
(1.19316e-10 -7.5394e-11 0)
(5.97031e-11 -3.40901e-11 0)
(-1.22856e-11 -5.08847e-12 0)
(-5.21688e-11 5.51863e-11 0)
(2.87964e-12 6.20865e-11 0)
(2.50559e-11 4.32765e-11 0)
(6.60131e-11 -3.31704e-11 0)
(-3.48337e-11 -2.72469e-10 0)
(-4.37605e-11 -1.82639e-10 0)
(-7.49876e-11 7.59799e-10 0)
(-9.08498e-10 -8.29595e-10 0)
(-1.17831e-09 2.80348e-09 0)
(3.75516e-09 -2.31132e-10 0)
(6.29178e-10 -6.48926e-10 0)
(-2.91821e-10 -3.41256e-10 0)
(-2.0041e-11 -4.49832e-10 0)
(3.15884e-11 -1.28216e-10 0)
(-2.83054e-11 1.99383e-10 0)
(-5.09545e-11 2.36658e-10 0)
(-1.64392e-11 9.5702e-11 0)
(2.35274e-11 -2.71795e-11 0)
(2.48405e-11 -6.04662e-11 0)
(-6.09058e-12 -5.19501e-11 0)
(-3.21996e-11 -1.68944e-11 0)
(6.20727e-12 1.22407e-11 0)
(-9.3833e-11 3.8504e-11 0)
(-6.95913e-11 1.55275e-11 0)
(-2.36398e-11 -2.19293e-10 0)
(2.7544e-10 -1.16767e-10 0)
(-3.02877e-10 5.73569e-10 0)
(1.37694e-09 -5.7215e-10 0)
(8.02103e-10 3.54391e-09 0)
(-5.20388e-09 1.78129e-10 0)
(-1.17155e-10 -7.32791e-10 0)
(2.06475e-10 -3.5429e-10 0)
(4.07839e-10 -2.81569e-10 0)
(6.35165e-10 -6.01734e-11 0)
(2.61016e-10 1.10322e-10 0)
(-1.393e-10 1.11481e-10 0)
(-2.22168e-10 2.93761e-11 0)
(-1.12624e-10 -2.97831e-11 0)
(-1.19332e-11 -2.81442e-11 0)
(1.45164e-11 -8.28129e-12 0)
(1.85728e-13 2.90943e-11 0)
(3.0182e-11 2.89188e-11 0)
)
;

boundaryField
{
    sides
    {
        type            calculated;
        value           nonuniform List<vector> 
40
(
(-9.3833e-11 0 0)
(-6.95913e-11 0 0)
(-2.36398e-11 0 0)
(2.7544e-10 0 0)
(-3.02877e-10 0 0)
(1.37694e-09 0 0)
(8.02103e-10 0 0)
(-5.20388e-09 0 0)
(-1.17155e-10 0 0)
(2.06475e-10 0 0)
(4.07839e-10 0 0)
(6.35165e-10 0 0)
(2.61016e-10 0 0)
(-1.393e-10 0 0)
(-2.22168e-10 0 0)
(-1.12624e-10 0 0)
(-1.19332e-11 0 0)
(1.45164e-11 0 0)
(1.85728e-13 0 0)
(3.0182e-11 0 0)
(-1.66976e-10 0 0)
(-1.78575e-10 0 0)
(1.67211e-11 0 0)
(2.66969e-10 0 0)
(2.70824e-10 0 0)
(-1.81241e-09 0 0)
(5.16733e-10 0 0)
(2.42046e-09 0 0)
(-1.51056e-09 0 0)
(1.64486e-10 0 0)
(4.32143e-10 0 0)
(5.18351e-10 0 0)
(1.49085e-10 0 0)
(-2.2477e-10 0 0)
(-2.84289e-10 0 0)
(-1.25315e-10 0 0)
(2.88275e-11 0 0)
(8.78045e-11 0 0)
(6.36013e-11 0 0)
(-2.5273e-11 0 0)
)
;
    }
    inlet
    {
        type            calculated;
        value           uniform (0 0 0);
    }
    outlet
    {
        type            calculated;
        value           nonuniform List<vector> 
20
(
(-2.5273e-11 3.56706e-11 0)
(-4.32465e-11 2.66374e-11 0)
(-8.68633e-11 6.62131e-11 0)
(-8.21111e-11 7.54123e-11 0)
(-5.46385e-11 6.95013e-11 0)
(1.8671e-11 9.93292e-11 0)
(9.56386e-11 1.28212e-10 0)
(7.08821e-11 1.94752e-10 0)
(4.54453e-12 2.11573e-10 0)
(-7.73361e-11 1.92626e-10 0)
(-1.14438e-10 1.53759e-10 0)
(-6.71624e-11 1.11747e-10 0)
(3.18666e-11 1.037e-10 0)
(1.10349e-10 1.22578e-10 0)
(1.25366e-10 1.6082e-10 0)
(5.6121e-11 1.24867e-10 0)
(-1.74379e-12 9.73567e-11 0)
(2.87964e-12 6.20865e-11 0)
(6.20727e-12 1.22407e-11 0)
(3.0182e-11 2.89188e-11 0)
)
;
    }
    frontAndBack
    {
        type            empty;
    }
}


// ************************************************************************* //
