/*--------------------------------*- C++ -*----------------------------------*\
  =========                 |
  \\      /  F ield         | OpenFOAM: The Open Source CFD Toolbox
   \\    /   O peration     | Website:  https://openfoam.org
    \\  /    A nd           | Version:  7
     \\/     M anipulation  |
\*---------------------------------------------------------------------------*/
FoamFile
{
    version     2.0;
    format      ascii;
    class       volScalarField;
    location    "83";
    object      ddt0(h);
}
// * * * * * * * * * * * * * * * * * * * * * * * * * * * * * * * * * * * * * //

dimensions      [0 1 -1 0 0 0 0];

internalField   nonuniform List<scalar> 
400
(
-1.08906e-09
1.01945e-09
8.36362e-10
-3.83279e-09
1.92745e-09
-1.9824e-08
-6.0366e-09
3.21404e-08
-2.13594e-09
3.64859e-10
1.33329e-09
1.61498e-09
6.49139e-10
-3.05359e-10
-6.12613e-10
-4.60885e-10
-1.55543e-10
1.39111e-10
2.24614e-10
8.58142e-11
-3.18592e-10
-4.96985e-10
-2.02213e-10
9.78803e-10
-1.51793e-09
1.81229e-08
9.59945e-09
-4.22404e-08
3.13878e-09
-2.4934e-10
-4.87535e-10
-3.05306e-10
-2.60494e-10
-2.27889e-10
-1.71783e-10
-9.62972e-12
1.66739e-10
1.72396e-10
8.47296e-11
2.59459e-11
-7.55527e-11
-1.43172e-09
-8.37294e-10
2.42105e-09
-2.61601e-09
2.85833e-09
-7.81385e-09
9.16553e-09
9.39635e-10
-5.48526e-10
-2.33817e-10
-1.04926e-09
-1.05489e-09
-4.44608e-10
4.83899e-11
4.15916e-10
5.03669e-10
1.57796e-10
-1.31724e-10
-8.22794e-11
3.94826e-11
-5.96902e-10
-8.90052e-10
5.7722e-10
-3.62108e-10
-4.0576e-10
1.17816e-09
2.89944e-09
-2.5281e-09
-2.10962e-10
-2.06925e-10
-8.82508e-10
-6.11572e-10
-2.69483e-11
3.37679e-10
4.98073e-10
3.83808e-10
-1.15862e-11
-2.99801e-10
-1.79239e-10
1.26909e-10
-2.06575e-10
-5.02009e-10
-1.14944e-09
1.37075e-09
-2.25854e-09
2.20354e-09
-1.72718e-09
-1.24823e-09
2.75019e-10
-6.72951e-10
-5.77455e-10
1.00592e-10
4.36819e-10
5.12847e-10
2.64265e-10
-8.57858e-11
-2.44268e-10
-2.81214e-10
-1.53379e-10
4.98872e-12
-5.78148e-11
1.71452e-10
-1.24057e-09
5.65054e-10
-6.90095e-10
6.78738e-10
-1.6527e-09
3.49206e-10
1.13739e-10
-8.12915e-10
1.43121e-10
6.38303e-10
4.34843e-10
2.44425e-10
-1.81015e-10
-5.686e-10
-4.21585e-10
-7.14676e-11
3.15071e-11
-7.89401e-11
-2.0782e-11
5.74667e-11
8.96237e-11
-8.86963e-10
3.49416e-10
-5.00562e-10
-4.38541e-10
5.23576e-10
-6.85331e-10
-4.93596e-11
8.05393e-10
5.49769e-10
1.36084e-10
-1.58371e-10
-5.46145e-10
-7.24643e-10
-3.61043e-10
1.37343e-10
1.66733e-10
-2.71234e-10
2.06406e-10
-5.6095e-10
6.30495e-10
-5.31211e-10
5.323e-10
-7.99506e-10
4.53285e-10
-8.06947e-11
-2.85388e-10
9.13609e-10
3.47507e-10
-1.94139e-10
2.91858e-11
-1.98048e-10
-6.02151e-10
-4.77439e-10
4.08748e-12
2.86031e-10
1.62816e-10
-3.62105e-10
3.67918e-11
-2.47945e-10
1.14237e-10
1.18209e-10
2.68888e-10
-1.95183e-10
4.44004e-10
-1.09896e-10
1.88814e-10
3.2509e-10
-4.51934e-10
-3.46526e-10
1.56366e-10
-1.6231e-11
-2.50027e-10
-5.72452e-12
3.1865e-10
3.38609e-10
1.29062e-10
-5.94608e-11
-3.61658e-10
1.94135e-10
-1.96196e-10
3.23707e-10
-2.06875e-10
3.34134e-10
-7.46086e-11
1.84318e-10
1.09954e-10
-7.02257e-10
-2.57176e-10
4.16242e-11
-3.48315e-10
-1.53947e-10
4.98163e-10
6.80673e-10
3.53215e-10
5.21165e-11
-1.76914e-11
2.16943e-10
-3.411e-10
3.42481e-10
-3.50977e-10
2.6472e-10
-4.66864e-10
3.97353e-10
-2.89451e-10
2.36162e-10
1.30663e-10
-9.08345e-10
-1.17998e-10
1.5836e-10
-5.43979e-10
-2.17723e-10
7.19164e-10
8.29862e-10
1.88507e-10
-2.65496e-10
-1.7358e-10
2.00408e-10
1.82025e-10
1.27274e-10
-2.99545e-10
8.15709e-11
-2.35418e-10
-1.66264e-11
1.15952e-10
-9.16023e-11
3.90496e-10
-1.10343e-11
-3.89398e-10
-1.34154e-10
9.25825e-13
-6.18662e-11
6.56891e-11
2.09461e-10
1.5596e-12
-2.87082e-10
-1.90561e-10
1.25585e-10
6.18182e-10
-3.66602e-10
4.18063e-10
-3.10941e-10
3.74117e-10
-6.62454e-10
5.76624e-10
-2.85342e-10
1.28459e-10
1.12934e-09
1.82217e-10
-2.50603e-10
9.01667e-11
-1.49034e-10
-4.63902e-10
-3.07096e-10
-1.39888e-10
-1.74457e-10
-1.07226e-10
9.61461e-11
3.20337e-10
-4.17024e-11
8.44265e-10
-7.74051e-10
8.91424e-10
-7.74136e-10
2.43058e-10
2.4083e-10
-7.25726e-10
6.16478e-10
9.6564e-10
4.39517e-10
1.63456e-10
-1.74677e-10
-5.21225e-10
-5.37547e-10
-2.19362e-10
1.21565e-10
1.28209e-10
-7.28939e-13
7.95023e-11
4.8868e-10
-1.90719e-10
3.86006e-10
5.85977e-10
3.32319e-10
-1.07757e-09
9.18393e-10
-3.00427e-10
-6.01072e-10
5.1716e-10
7.74219e-10
4.9457e-10
2.45605e-10
-1.66929e-10
-4.4159e-10
-1.35953e-10
3.37478e-10
2.57081e-10
1.25474e-10
-7.49586e-12
2.89599e-10
-6.54217e-10
2.03727e-09
-1.50622e-09
2.02065e-09
-1.58965e-09
-1.23539e-10
4.14831e-10
-8.17121e-10
-3.66038e-10
3.39476e-10
5.78783e-10
6.10357e-10
2.56022e-10
-1.08082e-10
8.71204e-12
2.42088e-10
1.46859e-10
5.02456e-10
-5.15759e-11
-1.34247e-10
3.57942e-10
1.10948e-09
-2.09683e-09
4.25011e-09
-3.4776e-10
-1.21072e-09
6.7252e-10
-2.86462e-10
-8.70284e-10
-4.50666e-10
1.56372e-10
5.07624e-10
4.70388e-10
2.33411e-10
6.41644e-11
-8.33856e-12
-1.56531e-11
8.22495e-10
-3.57685e-10
-2.84908e-10
2.2619e-09
-1.16564e-09
1.24285e-09
-9.93468e-10
8.34222e-09
-1.1587e-09
7.28645e-10
2.64578e-10
-9.44797e-10
-9.38608e-10
-2.97347e-10
1.70317e-10
3.8271e-10
3.39984e-10
6.04765e-11
-1.40774e-10
-7.74835e-11
4.49358e-10
1.91496e-10
-2.29842e-11
1.89401e-09
-1.13865e-09
4.14973e-09
-6.90215e-09
2.01789e-08
2.3801e-09
-2.17879e-10
2.44384e-11
-9.71152e-11
-2.10805e-10
-2.05769e-10
-1.52647e-10
1.07199e-11
1.3168e-10
2.80476e-11
-1.22398e-10
-7.7873e-11
-4.53769e-10
1.27693e-09
1.5842e-09
-2.67253e-09
1.11963e-09
-1.68534e-09
3.69968e-09
-2.51224e-08
6.06745e-11
-2.95607e-10
1.18156e-09
1.73169e-09
7.59721e-10
-2.79231e-10
-6.12297e-10
-3.81284e-10
-6.92385e-11
3.52547e-11
-4.30329e-11
-5.9503e-11
)
;

boundaryField
{
    sides
    {
        type            calculated;
        value           nonuniform List<scalar> 
40
(
-4.53769e-10
1.27693e-09
1.5842e-09
-2.67253e-09
1.11963e-09
-1.68534e-09
3.69968e-09
-2.51224e-08
6.06745e-11
-2.95607e-10
1.18156e-09
1.73169e-09
7.59721e-10
-2.79231e-10
-6.12297e-10
-3.81284e-10
-6.92385e-11
3.52547e-11
-4.30329e-11
-5.9503e-11
-1.08906e-09
1.01945e-09
8.36362e-10
-3.83279e-09
1.92745e-09
-1.9824e-08
-6.0366e-09
3.21404e-08
-2.13594e-09
3.64859e-10
1.33329e-09
1.61498e-09
6.49139e-10
-3.05359e-10
-6.12613e-10
-4.60885e-10
-1.55543e-10
1.39111e-10
2.24614e-10
8.58142e-11
)
;
    }
    inlet
    {
        type            calculated;
        value           nonuniform List<scalar> 
20
(
-1.08906e-09
-3.18592e-10
-7.55527e-11
3.94826e-11
1.26909e-10
4.98872e-12
-7.89401e-11
-2.71234e-10
-3.62105e-10
-5.94608e-11
2.16943e-10
2.00408e-10
1.25585e-10
9.61461e-11
-7.28939e-13
1.25474e-10
5.02456e-10
8.22495e-10
4.49358e-10
-4.53769e-10
)
;
    }
    outlet
    {
        type            calculated;
        value           uniform 0;
    }
    frontAndBack
    {
        type            empty;
    }
}


// ************************************************************************* //
