/*--------------------------------*- C++ -*----------------------------------*\
  =========                 |
  \\      /  F ield         | OpenFOAM: The Open Source CFD Toolbox
   \\    /   O peration     | Website:  https://openfoam.org
    \\  /    A nd           | Version:  7
     \\/     M anipulation  |
\*---------------------------------------------------------------------------*/
FoamFile
{
    version     2.0;
    format      ascii;
    class       volVectorField;
    location    "83";
    object      hU;
}
// * * * * * * * * * * * * * * * * * * * * * * * * * * * * * * * * * * * * * //

dimensions      [0 2 -1 0 0 0 0];

internalField   nonuniform List<vector> 
400
(
(0.001 -8.73739e-09 0)
(0.000999999 -2.37611e-08 0)
(0.001 -3.59613e-08 0)
(0.001 -4.66666e-08 0)
(0.00100001 -5.68947e-08 0)
(0.00100001 -6.74645e-08 0)
(0.00100002 -7.81431e-08 0)
(0.00100003 -8.92099e-08 0)
(0.00100004 -9.99035e-08 0)
(0.00100006 -1.11918e-07 0)
(0.00100007 -1.22692e-07 0)
(0.0010001 -1.36219e-07 0)
(0.00100011 -1.46575e-07 0)
(0.00100015 -1.63364e-07 0)
(0.00100017 -1.7216e-07 0)
(0.00100024 -1.96266e-07 0)
(0.00100026 -2.00761e-07 0)
(0.00100038 -2.43004e-07 0)
(0.00100038 -2.39151e-07 0)
(0.00100061 -3.31854e-07 0)
(0.001 3.95766e-09 0)
(0.001 1.20819e-08 0)
(0.00100001 2.02574e-08 0)
(0.00100001 2.79796e-08 0)
(0.00100002 3.51186e-08 0)
(0.00100002 4.16182e-08 0)
(0.00100003 4.76143e-08 0)
(0.00100004 5.30413e-08 0)
(0.00100005 5.84759e-08 0)
(0.00100007 6.23338e-08 0)
(0.00100008 6.69522e-08 0)
(0.0010001 6.85255e-08 0)
(0.00100012 7.26183e-08 0)
(0.00100016 6.98246e-08 0)
(0.00100018 7.40118e-08 0)
(0.00100023 6.16921e-08 0)
(0.00100026 6.71949e-08 0)
(0.00100035 3.17928e-08 0)
(0.00100037 3.98854e-08 0)
(0.0010005 -5.45744e-08 0)
(0.001 -3.97077e-09 0)
(0.000999999 -1.30134e-08 0)
(0.001 -2.30382e-08 0)
(0.001 -3.36205e-08 0)
(0.00100001 -4.4157e-08 0)
(0.00100001 -5.48969e-08 0)
(0.00100002 -6.55864e-08 0)
(0.00100003 -7.72857e-08 0)
(0.00100004 -8.88655e-08 0)
(0.00100005 -1.02552e-07 0)
(0.00100006 -1.15295e-07 0)
(0.00100009 -1.32464e-07 0)
(0.0010001 -1.46561e-07 0)
(0.00100014 -1.70047e-07 0)
(0.00100016 -1.85112e-07 0)
(0.00100021 -2.21077e-07 0)
(0.00100023 -2.35615e-07 0)
(0.00100031 -2.97525e-07 0)
(0.00100033 -3.06165e-07 0)
(0.00100046 -4.22173e-07 0)
(0.001 -1.30448e-10 0)
(0.001 -1.4975e-11 0)
(0.00100001 6.31014e-10 0)
(0.00100001 1.36908e-09 0)
(0.00100001 2.09745e-09 0)
(0.00100002 2.00258e-09 0)
(0.00100003 1.64648e-09 0)
(0.00100004 -2.71367e-10 0)
(0.00100004 -2.4037e-09 0)
(0.00100006 -7.10222e-09 0)
(0.00100007 -1.12701e-08 0)
(0.00100009 -2.05278e-08 0)
(0.00100011 -2.72049e-08 0)
(0.00100013 -4.4264e-08 0)
(0.00100016 -5.35074e-08 0)
(0.00100019 -8.49086e-08 0)
(0.00100022 -9.54129e-08 0)
(0.00100028 -1.54606e-07 0)
(0.0010003 -1.6091e-07 0)
(0.00100039 -2.75859e-07 0)
(0.001 -2.89072e-09 0)
(0.001 -9.21781e-09 0)
(0.001 -1.62842e-08 0)
(0.001 -2.43297e-08 0)
(0.00100001 -3.29723e-08 0)
(0.00100001 -4.26904e-08 0)
(0.00100002 -5.2768e-08 0)
(0.00100002 -6.45087e-08 0)
(0.00100003 -7.64579e-08 0)
(0.00100004 -9.12459e-08 0)
(0.00100005 -1.05656e-07 0)
(0.00100007 -1.25447e-07 0)
(0.00100009 -1.42761e-07 0)
(0.00100011 -1.70924e-07 0)
(0.00100013 -1.912e-07 0)
(0.00100016 -2.34271e-07 0)
(0.00100018 -2.55718e-07 0)
(0.00100024 -3.26486e-07 0)
(0.00100025 -3.41474e-07 0)
(0.00100033 -4.64399e-07 0)
(0.001 -2.55878e-09 0)
(0.001 -7.50595e-09 0)
(0.001 -1.21525e-08 0)
(0.00100001 -1.68666e-08 0)
(0.00100001 -2.16031e-08 0)
(0.00100001 -2.7137e-08 0)
(0.00100002 -3.30874e-08 0)
(0.00100002 -4.07767e-08 0)
(0.00100003 -4.88849e-08 0)
(0.00100004 -6.01604e-08 0)
(0.00100005 -7.1341e-08 0)
(0.00100006 -8.83012e-08 0)
(0.00100008 -1.03234e-07 0)
(0.0010001 -1.29465e-07 0)
(0.00100011 -1.48313e-07 0)
(0.00100014 -1.90205e-07 0)
(0.00100016 -2.10905e-07 0)
(0.0010002 -2.80412e-07 0)
(0.00100021 -2.94466e-07 0)
(0.00100027 -4.14999e-07 0)
(0.001 -2.90289e-09 0)
(0.001 -8.86134e-09 0)
(0.001 -1.51271e-08 0)
(0.001 -2.21344e-08 0)
(0.00100001 -2.98385e-08 0)
(0.00100001 -3.88088e-08 0)
(0.00100001 -4.86026e-08 0)
(0.00100002 -6.03793e-08 0)
(0.00100002 -7.2836e-08 0)
(0.00100003 -8.86685e-08 0)
(0.00100004 -1.0454e-07 0)
(0.00100005 -1.26435e-07 0)
(0.00100006 -1.46387e-07 0)
(0.00100007 -1.77878e-07 0)
(0.00100009 -2.01826e-07 0)
(0.00100011 -2.49136e-07 0)
(0.00100012 -2.7461e-07 0)
(0.00100015 -3.49438e-07 0)
(0.00100016 -3.67139e-07 0)
(0.00100021 -4.92187e-07 0)
(0.001 -3.20232e-09 0)
(0.001 -9.74384e-09 0)
(0.001 -1.65099e-08 0)
(0.001 -2.38479e-08 0)
(0.001 -3.16648e-08 0)
(0.00100001 -4.0537e-08 0)
(0.00100001 -5.00349e-08 0)
(0.00100001 -6.14043e-08 0)
(0.00100002 -7.34409e-08 0)
(0.00100002 -8.88463e-08 0)
(0.00100003 -1.04399e-07 0)
(0.00100004 -1.26076e-07 0)
(0.00100004 -1.45987e-07 0)
(0.00100005 -1.77491e-07 0)
(0.00100006 -2.01711e-07 0)
(0.00100008 -2.49155e-07 0)
(0.00100009 -2.751e-07 0)
(0.00100011 -3.49671e-07 0)
(0.00100012 -3.67517e-07 0)
(0.00100015 -4.90831e-07 0)
(0.001 -3.36743e-09 0)
(0.001 -1.02382e-08 0)
(0.001 -1.72902e-08 0)
(0.001 -2.49177e-08 0)
(0.001 -3.30289e-08 0)
(0.001 -4.23218e-08 0)
(0.00100001 -5.23669e-08 0)
(0.00100001 -6.44909e-08 0)
(0.00100001 -7.74537e-08 0)
(0.00100001 -9.39756e-08 0)
(0.00100002 -1.10819e-07 0)
(0.00100002 -1.33983e-07 0)
(0.00100003 -1.55448e-07 0)
(0.00100003 -1.88739e-07 0)
(0.00100004 -2.14678e-07 0)
(0.00100005 -2.64098e-07 0)
(0.00100005 -2.91618e-07 0)
(0.00100007 -3.6819e-07 0)
(0.00100007 -3.87063e-07 0)
(0.00100009 -5.12472e-07 0)
(0.001 -3.43975e-09 0)
(0.001 -1.04707e-08 0)
(0.001 -1.76803e-08 0)
(0.001 -2.54889e-08 0)
(0.001 -3.38187e-08 0)
(0.001 -4.33853e-08 0)
(0.001 -5.37614e-08 0)
(0.001 -6.62608e-08 0)
(0.001 -7.96158e-08 0)
(0.001 -9.65308e-08 0)
(0.00100001 -1.13778e-07 0)
(0.00100001 -1.37313e-07 0)
(0.00100001 -1.59179e-07 0)
(0.00100001 -1.92825e-07 0)
(0.00100001 -2.19186e-07 0)
(0.00100002 -2.68892e-07 0)
(0.00100002 -2.96819e-07 0)
(0.00100002 -3.73456e-07 0)
(0.00100002 -3.92629e-07 0)
(0.00100003 -5.17463e-07 0)
(0.001 -3.44331e-09 0)
(0.001 -1.04639e-08 0)
(0.001 -1.76831e-08 0)
(0.000999999 -2.54829e-08 0)
(0.000999999 -3.38196e-08 0)
(0.000999999 -4.33774e-08 0)
(0.000999998 -5.37613e-08 0)
(0.000999997 -6.62599e-08 0)
(0.000999996 -7.96101e-08 0)
(0.000999995 -9.65308e-08 0)
(0.000999994 -1.13765e-07 0)
(0.000999993 -1.37296e-07 0)
(0.000999991 -1.59169e-07 0)
(0.000999989 -1.9281e-07 0)
(0.000999987 -2.19173e-07 0)
(0.000999984 -2.68894e-07 0)
(0.000999982 -2.96832e-07 0)
(0.000999978 -3.73466e-07 0)
(0.000999977 -3.92635e-07 0)
(0.00099997 -5.17462e-07 0)
(0.001 -3.36803e-09 0)
(0.001 -1.02304e-08 0)
(0.000999999 -1.72935e-08 0)
(0.000999998 -2.49099e-08 0)
(0.000999997 -3.30308e-08 0)
(0.000999996 -4.231e-08 0)
(0.000999994 -5.23666e-08 0)
(0.000999992 -6.44975e-08 0)
(0.000999989 -7.74461e-08 0)
(0.000999986 -9.39791e-08 0)
(0.000999983 -1.10805e-07 0)
(0.000999978 -1.33949e-07 0)
(0.000999973 -1.55416e-07 0)
(0.000999967 -1.88696e-07 0)
(0.000999961 -2.14647e-07 0)
(0.000999952 -2.64089e-07 0)
(0.000999946 -2.91631e-07 0)
(0.000999934 -3.68185e-07 0)
(0.00099993 -3.87054e-07 0)
(0.000999911 -5.12423e-07 0)
(0.001 -3.19452e-09 0)
(0.001 -9.74467e-09 0)
(0.000999999 -1.65069e-08 0)
(0.000999997 -2.38565e-08 0)
(0.000999996 -3.16605e-08 0)
(0.000999993 -4.05392e-08 0)
(0.000999991 -5.00297e-08 0)
(0.000999987 -6.14258e-08 0)
(0.000999983 -7.34485e-08 0)
(0.000999977 -8.88544e-08 0)
(0.000999971 -1.04418e-07 0)
(0.000999964 -1.26077e-07 0)
(0.000999956 -1.45966e-07 0)
(0.000999945 -1.77458e-07 0)
(0.000999936 -2.01696e-07 0)
(0.000999921 -2.49159e-07 0)
(0.000999911 -2.75124e-07 0)
(0.000999889 -3.49688e-07 0)
(0.000999882 -3.67537e-07 0)
(0.000999852 -4.90826e-07 0)
(0.001 -2.89627e-09 0)
(0.000999999 -8.8662e-09 0)
(0.000999998 -1.51277e-08 0)
(0.000999996 -2.21463e-08 0)
(0.000999994 -2.98209e-08 0)
(0.000999991 -3.88198e-08 0)
(0.000999987 -4.85848e-08 0)
(0.000999982 -6.03853e-08 0)
(0.000999977 -7.28543e-08 0)
(0.000999969 -8.86584e-08 0)
(0.000999962 -1.04553e-07 0)
(0.000999951 -1.26452e-07 0)
(0.000999941 -1.46381e-07 0)
(0.000999925 -1.77839e-07 0)
(0.000999913 -2.01783e-07 0)
(0.000999891 -2.49073e-07 0)
(0.000999878 -2.7456e-07 0)
(0.000999847 -3.49354e-07 0)
(0.000999839 -3.67066e-07 0)
(0.000999792 -4.92048e-07 0)
(0.001 -2.55995e-09 0)
(0.000999999 -7.51499e-09 0)
(0.000999997 -1.21644e-08 0)
(0.000999995 -1.68615e-08 0)
(0.000999991 -2.16025e-08 0)
(0.000999987 -2.71448e-08 0)
(0.000999982 -3.30826e-08 0)
(0.000999975 -4.07515e-08 0)
(0.000999968 -4.89114e-08 0)
(0.000999959 -6.01689e-08 0)
(0.000999949 -7.13529e-08 0)
(0.000999935 -8.8341e-08 0)
(0.000999922 -1.03286e-07 0)
(0.000999903 -1.29496e-07 0)
(0.000999886 -1.48322e-07 0)
(0.000999859 -1.90187e-07 0)
(0.000999841 -2.10892e-07 0)
(0.000999802 -2.8039e-07 0)
(0.000999787 -2.94459e-07 0)
(0.000999731 -4.14979e-07 0)
(0.001 -2.90089e-09 0)
(0.001 -9.22157e-09 0)
(0.000999999 -1.62777e-08 0)
(0.000999997 -2.43023e-08 0)
(0.000999994 -3.29991e-08 0)
(0.00099999 -4.26554e-08 0)
(0.000999984 -5.27975e-08 0)
(0.000999977 -6.44365e-08 0)
(0.000999969 -7.6424e-08 0)
(0.000999958 -9.12297e-08 0)
(0.000999946 -1.05626e-07 0)
(0.00099993 -1.2543e-07 0)
(0.000999915 -1.42784e-07 0)
(0.000999891 -1.70937e-07 0)
(0.000999872 -1.912e-07 0)
(0.000999837 -2.34212e-07 0)
(0.000999817 -2.55662e-07 0)
(0.000999764 -3.26376e-07 0)
(0.000999752 -3.41395e-07 0)
(0.00099967 -4.64236e-07 0)
(0.001 -1.47119e-10 0)
(0.000999998 -1.94777e-11 0)
(0.000999995 6.59137e-10 0)
(0.00099999 1.39006e-09 0)
(0.000999986 2.03692e-09 0)
(0.00099998 2.02399e-09 0)
(0.000999973 1.53242e-09 0)
(0.000999965 -2.8204e-10 0)
(0.000999955 -2.33273e-09 0)
(0.000999943 -7.06737e-09 0)
(0.00099993 -1.12421e-08 0)
(0.000999912 -2.05106e-08 0)
(0.000999894 -2.72233e-08 0)
(0.000999867 -4.42937e-08 0)
(0.000999845 -5.35393e-08 0)
(0.000999805 -8.4904e-08 0)
(0.000999779 -9.53992e-08 0)
(0.00099972 -1.54559e-07 0)
(0.000999699 -1.60877e-07 0)
(0.000999611 -2.75797e-07 0)
(0.001 -3.97039e-09 0)
(0.001 -1.30119e-08 0)
(0.001 -2.30321e-08 0)
(0.000999998 -3.36253e-08 0)
(0.000999995 -4.41501e-08 0)
(0.000999989 -5.49674e-08 0)
(0.000999983 -6.56941e-08 0)
(0.000999974 -7.73765e-08 0)
(0.000999963 -8.88296e-08 0)
(0.000999949 -1.02538e-07 0)
(0.000999935 -1.15308e-07 0)
(0.000999914 -1.32449e-07 0)
(0.000999896 -1.46543e-07 0)
(0.000999864 -1.70028e-07 0)
(0.000999841 -1.85137e-07 0)
(0.000999791 -2.21083e-07 0)
(0.000999767 -2.35646e-07 0)
(0.000999687 -2.97496e-07 0)
(0.000999672 -3.0617e-07 0)
(0.000999539 -4.22096e-07 0)
(0.001 3.97529e-09 0)
(0.000999996 1.21064e-08 0)
(0.000999991 2.02076e-08 0)
(0.000999987 2.78978e-08 0)
(0.000999982 3.52174e-08 0)
(0.000999976 4.16079e-08 0)
(0.000999969 4.79305e-08 0)
(0.000999959 5.30103e-08 0)
(0.000999948 5.83212e-08 0)
(0.000999934 6.2262e-08 0)
(0.000999919 6.69334e-08 0)
(0.000999897 6.85874e-08 0)
(0.000999878 7.27062e-08 0)
(0.000999844 6.98993e-08 0)
(0.000999819 7.40304e-08 0)
(0.000999767 6.17098e-08 0)
(0.000999738 6.71933e-08 0)
(0.000999654 3.18518e-08 0)
(0.000999629 3.99334e-08 0)
(0.000999496 -5.44501e-08 0)
(0.001 -8.72805e-09 0)
(0.001 -2.37412e-08 0)
(0.001 -3.59997e-08 0)
(0.000999997 -4.67398e-08 0)
(0.000999993 -5.68467e-08 0)
(0.000999986 -6.74201e-08 0)
(0.000999979 -7.78141e-08 0)
(0.000999968 -8.92176e-08 0)
(0.000999958 -1.00081e-07 0)
(0.000999942 -1.12012e-07 0)
(0.000999928 -1.22728e-07 0)
(0.000999903 -1.36213e-07 0)
(0.000999886 -1.46571e-07 0)
(0.000999846 -1.63384e-07 0)
(0.000999826 -1.72214e-07 0)
(0.00099976 -1.96335e-07 0)
(0.000999742 -2.0084e-07 0)
(0.000999623 -2.43083e-07 0)
(0.000999618 -2.3923e-07 0)
(0.000999394 -3.31982e-07 0)
)
;

boundaryField
{
    sides
    {
        type            slip;
    }
    inlet
    {
        type            fixedValue;
        value           uniform (0.001 0 0);
    }
    outlet
    {
        type            zeroGradient;
    }
    frontAndBack
    {
        type            empty;
    }
}


// ************************************************************************* //
