/*--------------------------------*- C++ -*----------------------------------*\
  =========                 |
  \\      /  F ield         | OpenFOAM: The Open Source CFD Toolbox
   \\    /   O peration     | Website:  https://openfoam.org
    \\  /    A nd           | Version:  7
     \\/     M anipulation  |
\*---------------------------------------------------------------------------*/
FoamFile
{
    version     2.0;
    format      ascii;
    class       volVectorField;
    location    "83";
    object      hU_0;
}
// * * * * * * * * * * * * * * * * * * * * * * * * * * * * * * * * * * * * * //

dimensions      [0 2 -1 0 0 0 0];

internalField   nonuniform List<vector> 
400
(
(0.001 -8.72394e-09 0)
(0.000999999 -2.37623e-08 0)
(0.001 -3.59856e-08 0)
(0.001 -4.66543e-08 0)
(0.00100001 -5.68716e-08 0)
(0.00100001 -6.74258e-08 0)
(0.00100002 -7.81916e-08 0)
(0.00100003 -8.91896e-08 0)
(0.00100004 -9.99166e-08 0)
(0.00100006 -1.11959e-07 0)
(0.00100007 -1.22721e-07 0)
(0.0010001 -1.36226e-07 0)
(0.00100011 -1.46562e-07 0)
(0.00100015 -1.63345e-07 0)
(0.00100017 -1.72147e-07 0)
(0.00100024 -1.96262e-07 0)
(0.00100026 -2.00763e-07 0)
(0.00100038 -2.43008e-07 0)
(0.00100038 -2.39157e-07 0)
(0.00100061 -3.31858e-07 0)
(0.001 3.97889e-09 0)
(0.001 1.2075e-08 0)
(0.00100001 2.02223e-08 0)
(0.00100001 2.79906e-08 0)
(0.00100002 3.51497e-08 0)
(0.00100002 4.1633e-08 0)
(0.00100003 4.76092e-08 0)
(0.00100004 5.31222e-08 0)
(0.00100005 5.84484e-08 0)
(0.00100007 6.22918e-08 0)
(0.00100008 6.69116e-08 0)
(0.0010001 6.85061e-08 0)
(0.00100012 7.26307e-08 0)
(0.00100016 6.98493e-08 0)
(0.00100018 7.40282e-08 0)
(0.00100023 6.16969e-08 0)
(0.00100026 6.71931e-08 0)
(0.00100035 3.17888e-08 0)
(0.00100037 3.98804e-08 0)
(0.0010005 -5.45778e-08 0)
(0.001 -3.96602e-09 0)
(0.000999999 -1.30121e-08 0)
(0.001 -2.30374e-08 0)
(0.001 -3.36292e-08 0)
(0.00100001 -4.41489e-08 0)
(0.00100001 -5.4935e-08 0)
(0.00100002 -6.5526e-08 0)
(0.00100003 -7.7284e-08 0)
(0.00100004 -8.88909e-08 0)
(0.00100005 -1.02547e-07 0)
(0.00100006 -1.153e-07 0)
(0.00100009 -1.32464e-07 0)
(0.0010001 -1.46548e-07 0)
(0.00100014 -1.7003e-07 0)
(0.00100016 -1.85102e-07 0)
(0.00100021 -2.21074e-07 0)
(0.00100023 -2.35617e-07 0)
(0.00100031 -2.97529e-07 0)
(0.00100033 -3.06174e-07 0)
(0.00100046 -4.22181e-07 0)
(0.001 -1.36393e-10 0)
(0.001 -4.20091e-12 0)
(0.00100001 6.50888e-10 0)
(0.00100001 1.36106e-09 0)
(0.00100001 2.10021e-09 0)
(0.00100002 1.99808e-09 0)
(0.00100003 1.65598e-09 0)
(0.00100004 -3.38839e-10 0)
(0.00100004 -2.39481e-09 0)
(0.00100006 -7.0891e-09 0)
(0.00100007 -1.12574e-08 0)
(0.00100009 -2.05051e-08 0)
(0.00100011 -2.71867e-08 0)
(0.00100013 -4.4257e-08 0)
(0.00100016 -5.35064e-08 0)
(0.00100019 -8.49089e-08 0)
(0.00100022 -9.5416e-08 0)
(0.00100028 -1.54608e-07 0)
(0.0010003 -1.60917e-07 0)
(0.00100039 -2.75867e-07 0)
(0.001 -2.89533e-09 0)
(0.001 -9.21221e-09 0)
(0.001 -1.62707e-08 0)
(0.001 -2.43219e-08 0)
(0.00100001 -3.2978e-08 0)
(0.00100001 -4.26732e-08 0)
(0.00100002 -5.27911e-08 0)
(0.00100002 -6.45134e-08 0)
(0.00100003 -7.64354e-08 0)
(0.00100004 -9.12455e-08 0)
(0.00100005 -1.05646e-07 0)
(0.00100007 -1.25427e-07 0)
(0.00100009 -1.42754e-07 0)
(0.00100011 -1.70927e-07 0)
(0.00100013 -1.91201e-07 0)
(0.00100016 -2.34269e-07 0)
(0.00100018 -2.55719e-07 0)
(0.00100024 -3.26485e-07 0)
(0.00100025 -3.41477e-07 0)
(0.00100033 -4.64405e-07 0)
(0.001 -2.55918e-09 0)
(0.001 -7.50174e-09 0)
(0.001 -1.21459e-08 0)
(0.00100001 -1.68485e-08 0)
(0.00100001 -2.16122e-08 0)
(0.00100001 -2.71274e-08 0)
(0.00100002 -3.3108e-08 0)
(0.00100002 -4.07657e-08 0)
(0.00100003 -4.8889e-08 0)
(0.00100004 -6.01682e-08 0)
(0.00100005 -7.13307e-08 0)
(0.00100006 -8.82956e-08 0)
(0.00100008 -1.03238e-07 0)
(0.0010001 -1.29467e-07 0)
(0.00100011 -1.48308e-07 0)
(0.00100014 -1.90196e-07 0)
(0.00100016 -2.10901e-07 0)
(0.0010002 -2.8041e-07 0)
(0.00100021 -2.94472e-07 0)
(0.00100027 -4.15008e-07 0)
(0.001 -2.89917e-09 0)
(0.001 -8.85644e-09 0)
(0.001 -1.51241e-08 0)
(0.001 -2.21243e-08 0)
(0.00100001 -2.98328e-08 0)
(0.00100001 -3.88093e-08 0)
(0.00100001 -4.86084e-08 0)
(0.00100002 -6.03752e-08 0)
(0.00100002 -7.28518e-08 0)
(0.00100003 -8.86688e-08 0)
(0.00100004 -1.04537e-07 0)
(0.00100005 -1.26446e-07 0)
(0.00100006 -1.46393e-07 0)
(0.00100007 -1.7787e-07 0)
(0.00100009 -2.01812e-07 0)
(0.00100011 -2.49122e-07 0)
(0.00100012 -2.74601e-07 0)
(0.00100015 -3.49435e-07 0)
(0.00100016 -3.67148e-07 0)
(0.00100021 -4.92199e-07 0)
(0.001 -3.19839e-09 0)
(0.001 -9.74044e-09 0)
(0.001 -1.65038e-08 0)
(0.001 -2.38472e-08 0)
(0.001 -3.16535e-08 0)
(0.00100001 -4.05392e-08 0)
(0.00100001 -5.00325e-08 0)
(0.00100001 -6.14121e-08 0)
(0.00100002 -7.34516e-08 0)
(0.00100002 -8.88474e-08 0)
(0.00100003 -1.0441e-07 0)
(0.00100004 -1.26087e-07 0)
(0.00100004 -1.45977e-07 0)
(0.00100005 -1.77465e-07 0)
(0.00100006 -2.01686e-07 0)
(0.00100008 -2.49135e-07 0)
(0.00100009 -2.75091e-07 0)
(0.00100011 -3.49672e-07 0)
(0.00100012 -3.67536e-07 0)
(0.00100015 -4.9085e-07 0)
(0.001 -3.36633e-09 0)
(0.001 -1.02343e-08 0)
(0.001 -1.72815e-08 0)
(0.001 -2.49125e-08 0)
(0.001 -3.3021e-08 0)
(0.001 -4.23192e-08 0)
(0.00100001 -5.23617e-08 0)
(0.00100001 -6.45007e-08 0)
(0.00100001 -7.74554e-08 0)
(0.00100001 -9.3985e-08 0)
(0.00100002 -1.10834e-07 0)
(0.00100002 -1.33979e-07 0)
(0.00100003 -1.55431e-07 0)
(0.00100003 -1.88715e-07 0)
(0.00100004 -2.14651e-07 0)
(0.00100005 -2.64075e-07 0)
(0.00100005 -2.91609e-07 0)
(0.00100007 -3.68195e-07 0)
(0.00100007 -3.87086e-07 0)
(0.00100009 -5.12494e-07 0)
(0.001 -3.43887e-09 0)
(0.001 -1.04637e-08 0)
(0.001 -1.76714e-08 0)
(0.001 -2.54805e-08 0)
(0.001 -3.38145e-08 0)
(0.001 -4.33837e-08 0)
(0.001 -5.37612e-08 0)
(0.001 -6.62704e-08 0)
(0.001 -7.96192e-08 0)
(0.001 -9.65422e-08 0)
(0.00100001 -1.13786e-07 0)
(0.00100001 -1.37305e-07 0)
(0.00100001 -1.59166e-07 0)
(0.00100001 -1.9281e-07 0)
(0.00100001 -2.19165e-07 0)
(0.00100002 -2.68873e-07 0)
(0.00100002 -2.96814e-07 0)
(0.00100002 -3.73463e-07 0)
(0.00100002 -3.92652e-07 0)
(0.00100003 -5.17483e-07 0)
(0.001 -3.43821e-09 0)
(0.001 -1.04569e-08 0)
(0.001 -1.76742e-08 0)
(0.000999999 -2.54783e-08 0)
(0.000999999 -3.38177e-08 0)
(0.000999999 -4.33809e-08 0)
(0.000999998 -5.37674e-08 0)
(0.000999997 -6.62668e-08 0)
(0.000999996 -7.96206e-08 0)
(0.000999995 -9.65356e-08 0)
(0.000999994 -1.13766e-07 0)
(0.000999993 -1.37298e-07 0)
(0.000999991 -1.59163e-07 0)
(0.000999989 -1.928e-07 0)
(0.000999987 -2.19165e-07 0)
(0.000999984 -2.68887e-07 0)
(0.000999982 -2.9683e-07 0)
(0.000999978 -3.73468e-07 0)
(0.000999977 -3.9265e-07 0)
(0.00099997 -5.17478e-07 0)
(0.001 -3.36285e-09 0)
(0.001 -1.02221e-08 0)
(0.000999999 -1.72862e-08 0)
(0.000999998 -2.49049e-08 0)
(0.000999997 -3.30305e-08 0)
(0.000999996 -4.23138e-08 0)
(0.000999994 -5.23766e-08 0)
(0.000999992 -6.44985e-08 0)
(0.000999989 -7.74585e-08 0)
(0.000999986 -9.39785e-08 0)
(0.000999983 -1.10796e-07 0)
(0.000999978 -1.33951e-07 0)
(0.000999973 -1.55416e-07 0)
(0.000999967 -1.88692e-07 0)
(0.000999961 -2.14645e-07 0)
(0.000999952 -2.64087e-07 0)
(0.000999946 -2.91629e-07 0)
(0.000999934 -3.68181e-07 0)
(0.00099993 -3.87059e-07 0)
(0.000999911 -5.12434e-07 0)
(0.001 -3.19403e-09 0)
(0.001 -9.73672e-09 0)
(0.000999999 -1.65011e-08 0)
(0.000999997 -2.38435e-08 0)
(0.000999996 -3.16623e-08 0)
(0.000999993 -4.05356e-08 0)
(0.000999991 -5.00405e-08 0)
(0.000999987 -6.14252e-08 0)
(0.000999983 -7.34553e-08 0)
(0.000999977 -8.88605e-08 0)
(0.000999971 -1.04404e-07 0)
(0.000999964 -1.26061e-07 0)
(0.000999956 -1.45957e-07 0)
(0.000999945 -1.77453e-07 0)
(0.000999936 -2.01689e-07 0)
(0.000999921 -2.49151e-07 0)
(0.000999911 -2.75122e-07 0)
(0.000999889 -3.49687e-07 0)
(0.000999882 -3.67542e-07 0)
(0.000999852 -4.90836e-07 0)
(0.001 -2.89879e-09 0)
(0.000999999 -8.86254e-09 0)
(0.000999998 -1.51201e-08 0)
(0.000999996 -2.2136e-08 0)
(0.000999994 -2.98183e-08 0)
(0.000999991 -3.88086e-08 0)
(0.000999987 -4.85872e-08 0)
(0.000999982 -6.03916e-08 0)
(0.000999977 -7.28487e-08 0)
(0.000999969 -8.86699e-08 0)
(0.000999962 -1.04555e-07 0)
(0.000999951 -1.26432e-07 0)
(0.000999941 -1.4636e-07 0)
(0.000999925 -1.77823e-07 0)
(0.000999913 -2.01768e-07 0)
(0.000999891 -2.4906e-07 0)
(0.000999878 -2.74557e-07 0)
(0.000999847 -3.49355e-07 0)
(0.000999839 -3.67074e-07 0)
(0.000999792 -4.92059e-07 0)
(0.001 -2.56048e-09 0)
(0.000999999 -7.51283e-09 0)
(0.000999997 -1.21574e-08 0)
(0.000999995 -1.68637e-08 0)
(0.000999991 -2.15884e-08 0)
(0.000999987 -2.7148e-08 0)
(0.000999982 -3.30782e-08 0)
(0.000999975 -4.07772e-08 0)
(0.000999968 -4.89144e-08 0)
(0.000999959 -6.01776e-08 0)
(0.000999949 -7.13701e-08 0)
(0.000999935 -8.83373e-08 0)
(0.000999922 -1.03263e-07 0)
(0.000999903 -1.29468e-07 0)
(0.000999886 -1.48299e-07 0)
(0.000999859 -1.90172e-07 0)
(0.000999841 -2.1089e-07 0)
(0.000999802 -2.80395e-07 0)
(0.000999787 -2.94476e-07 0)
(0.000999731 -4.14994e-07 0)
(0.001 -2.8957e-09 0)
(0.001 -9.22063e-09 0)
(0.000999999 -1.62772e-08 0)
(0.000999997 -2.43029e-08 0)
(0.000999994 -3.29767e-08 0)
(0.00099999 -4.26751e-08 0)
(0.000999984 -5.27675e-08 0)
(0.000999977 -6.44554e-08 0)
(0.000999969 -7.64415e-08 0)
(0.000999958 -9.12313e-08 0)
(0.000999946 -1.05643e-07 0)
(0.00099993 -1.25446e-07 0)
(0.000999915 -1.42779e-07 0)
(0.000999891 -1.70917e-07 0)
(0.000999872 -1.91179e-07 0)
(0.000999837 -2.34198e-07 0)
(0.000999817 -2.55658e-07 0)
(0.000999764 -3.26381e-07 0)
(0.000999752 -3.41411e-07 0)
(0.00099967 -4.64249e-07 0)
(0.001 -1.3896e-10 0)
(0.000999998 -2.05706e-11 0)
(0.000999995 6.52365e-10 0)
(0.00099999 1.40238e-09 0)
(0.000999986 2.05424e-09 0)
(0.00099998 2.01121e-09 0)
(0.000999973 1.56988e-09 0)
(0.000999965 -2.40557e-10 0)
(0.000999955 -2.35182e-09 0)
(0.000999943 -7.07215e-09 0)
(0.00099993 -1.12539e-08 0)
(0.000999912 -2.05309e-08 0)
(0.000999894 -2.72312e-08 0)
(0.000999867 -4.42852e-08 0)
(0.000999845 -5.3525e-08 0)
(0.000999805 -8.48916e-08 0)
(0.000999779 -9.53948e-08 0)
(0.00099972 -1.54562e-07 0)
(0.000999699 -1.60889e-07 0)
(0.000999611 -2.75808e-07 0)
(0.001 -3.96804e-09 0)
(0.001 -1.30064e-08 0)
(0.001 -2.30311e-08 0)
(0.000999998 -3.36134e-08 0)
(0.000999995 -4.41568e-08 0)
(0.000999989 -5.49376e-08 0)
(0.000999983 -6.57094e-08 0)
(0.000999974 -7.72769e-08 0)
(0.000999963 -8.8831e-08 0)
(0.000999949 -1.02548e-07 0)
(0.000999935 -1.15302e-07 0)
(0.000999914 -1.32446e-07 0)
(0.000999896 -1.46548e-07 0)
(0.000999864 -1.70033e-07 0)
(0.000999841 -1.85136e-07 0)
(0.000999791 -2.21079e-07 0)
(0.000999767 -2.35643e-07 0)
(0.000999687 -2.97495e-07 0)
(0.000999672 -3.06176e-07 0)
(0.000999539 -4.22103e-07 0)
(0.001 3.96708e-09 0)
(0.000999996 1.21156e-08 0)
(0.000999991 2.02371e-08 0)
(0.000999987 2.78946e-08 0)
(0.000999982 3.51692e-08 0)
(0.000999976 4.1643e-08 0)
(0.000999969 4.78254e-08 0)
(0.000999959 5.28987e-08 0)
(0.000999948 5.83608e-08 0)
(0.000999934 6.2291e-08 0)
(0.000999919 6.69764e-08 0)
(0.000999897 6.86122e-08 0)
(0.000999878 7.26992e-08 0)
(0.000999844 6.98797e-08 0)
(0.000999819 7.40177e-08 0)
(0.000999767 6.17079e-08 0)
(0.000999738 6.71965e-08 0)
(0.000999654 3.18562e-08 0)
(0.000999629 3.99354e-08 0)
(0.000999496 -5.44511e-08 0)
(0.001 -8.73452e-09 0)
(0.001 -2.37382e-08 0)
(0.001 -3.59761e-08 0)
(0.000999997 -4.67455e-08 0)
(0.000999993 -5.68831e-08 0)
(0.000999986 -6.74179e-08 0)
(0.000999978 -7.78948e-08 0)
(0.000999968 -8.93886e-08 0)
(0.000999958 -1.00051e-07 0)
(0.000999942 -1.1198e-07 0)
(0.000999928 -1.22697e-07 0)
(0.000999903 -1.36198e-07 0)
(0.000999886 -1.46575e-07 0)
(0.000999846 -1.63393e-07 0)
(0.000999826 -1.72219e-07 0)
(0.00099976 -1.96334e-07 0)
(0.000999742 -2.00838e-07 0)
(0.000999623 -2.43082e-07 0)
(0.000999618 -2.39233e-07 0)
(0.000999394 -3.31985e-07 0)
)
;

boundaryField
{
    sides
    {
        type            slip;
    }
    inlet
    {
        type            fixedValue;
        value           uniform (0.001 0 0);
    }
    outlet
    {
        type            zeroGradient;
    }
    frontAndBack
    {
        type            empty;
    }
}


// ************************************************************************* //
