/*--------------------------------*- C++ -*----------------------------------*\
  =========                 |
  \\      /  F ield         | OpenFOAM: The Open Source CFD Toolbox
   \\    /   O peration     | Website:  https://openfoam.org
    \\  /    A nd           | Version:  7
     \\/     M anipulation  |
\*---------------------------------------------------------------------------*/
FoamFile
{
    version     2.0;
    format      ascii;
    class       surfaceScalarField;
    location    "83";
    object      phi;
}
// * * * * * * * * * * * * * * * * * * * * * * * * * * * * * * * * * * * * * //

dimensions      [0 4 -1 0 0 0 0];

internalField   nonuniform List<scalar> 
760
(
4.99999e-06
9.90944e-12
4.99999e-06
-4.3776e-12
5.00001e-06
-1.26142e-11
5.00003e-06
-1.92945e-11
5.00005e-06
-2.67729e-11
5.00009e-06
-3.7188e-11
5.00013e-06
-4.77872e-11
5.00018e-06
-5.29326e-11
5.00025e-06
-6.22943e-11
5.00032e-06
-7.80058e-11
5.00041e-06
-9.00886e-11
5.00053e-06
-1.14121e-10
5.00066e-06
-1.27105e-10
5.00082e-06
-1.67985e-10
5.001e-06
-1.78099e-10
5.00126e-06
-2.56777e-10
5.00151e-06
-2.56051e-10
5.00195e-06
-4.31618e-10
5.00236e-06
-4.14031e-10
-8.91603e-10
5.00002e-06
-1.18356e-11
5.00004e-06
-1.89939e-11
5.00005e-06
-2.9088e-11
5.00008e-06
-4.14377e-11
5.0001e-06
-5.41901e-11
5.00014e-06
-6.87551e-11
5.00018e-06
-8.48385e-11
5.00023e-06
-1.04828e-10
5.00029e-06
-1.23447e-10
5.00037e-06
-1.53257e-10
5.00045e-06
-1.77189e-10
5.00056e-06
-2.22282e-10
5.00069e-06
-2.50551e-10
5.00084e-06
-3.24263e-10
5.00102e-06
-3.53894e-10
5.00125e-06
-4.85941e-10
5.0015e-06
-5.0902e-10
5.00184e-06
-7.67729e-10
5.00218e-06
-7.59751e-10
-1.26202e-09
4.99999e-06
-4.55476e-12
4.99999e-06
-2.02878e-11
5e-06
-3.74962e-11
5.00002e-06
-5.63572e-11
5.00004e-06
-7.61755e-11
5.00007e-06
-9.86856e-11
5.00011e-06
-1.22504e-10
5.00016e-06
-1.51722e-10
5.00021e-06
-1.82584e-10
5.00029e-06
-2.24028e-10
5.00037e-06
-2.62605e-10
5.00047e-06
-3.2358e-10
5.00059e-06
-3.72119e-10
5.00074e-06
-4.67492e-10
5.00091e-06
-5.25565e-10
5.00111e-06
-6.86472e-10
5.00135e-06
-7.4764e-10
5.00162e-06
-1.04092e-09
5.00194e-06
-1.08299e-09
-1.6896e-09
5.00001e-06
-1.25469e-11
5.00002e-06
-3.31729e-11
5.00004e-06
-5.41774e-11
5.00006e-06
-7.73127e-11
5.00008e-06
-1.01443e-10
5.00012e-06
-1.3011e-10
5.00015e-06
-1.59677e-10
5.0002e-06
-1.97838e-10
5.00025e-06
-2.3638e-10
5.00032e-06
-2.8898e-10
5.00039e-06
-3.38677e-10
5.00049e-06
-4.15569e-10
5.00059e-06
-4.78455e-10
5.00072e-06
-5.96294e-10
5.00087e-06
-6.72534e-10
5.00105e-06
-8.64724e-10
5.00124e-06
-9.46565e-10
5.00148e-06
-1.2797e-09
5.00173e-06
-1.33117e-09
-1.89809e-09
5e-06
-1.15738e-11
5e-06
-3.62668e-11
5.00001e-06
-6.17672e-11
5.00002e-06
-8.97864e-11
5.00004e-06
-1.19443e-10
5.00006e-06
-1.54069e-10
5.0001e-06
-1.90914e-10
5.00013e-06
-2.36314e-10
5.00018e-06
-2.83511e-10
5.00024e-06
-3.45575e-10
5.00031e-06
-4.06967e-10
5.00039e-06
-4.95783e-10
5.00048e-06
-5.74162e-10
5.00059e-06
-7.07054e-10
5.00072e-06
-8.0322e-10
5.00087e-06
-1.01218e-09
5.00104e-06
-1.11611e-09
5.00122e-06
-1.46122e-09
5.00142e-06
-1.53251e-09
-2.16292e-09
5e-06
-1.38956e-11
5.00001e-06
-4.29976e-11
5.00002e-06
-7.25566e-11
5.00003e-06
-1.04491e-10
5.00005e-06
-1.38342e-10
5.00008e-06
-1.77329e-10
5.00011e-06
-2.19369e-10
5.00014e-06
-2.70618e-10
5.00018e-06
-3.24389e-10
5.00023e-06
-3.9466e-10
5.00029e-06
-4.64455e-10
5.00036e-06
-5.6398e-10
5.00043e-06
-6.53101e-10
5.00053e-06
-7.99846e-10
5.00063e-06
-9.08383e-10
5.00075e-06
-1.13395e-09
5.00089e-06
-1.2506e-09
5.00104e-06
-1.6154e-09
5.00121e-06
-1.69685e-09
-2.29362e-09
5e-06
-1.57157e-11
5.00001e-06
-4.74639e-11
5.00001e-06
-7.98492e-11
5.00002e-06
-1.14409e-10
5.00004e-06
-1.51551e-10
5.00005e-06
-1.94328e-10
5.00008e-06
-2.40744e-10
5.0001e-06
-2.96781e-10
5.00013e-06
-3.56351e-10
5.00017e-06
-4.32825e-10
5.00022e-06
-5.09895e-10
5.00027e-06
-6.17363e-10
5.00033e-06
-7.15842e-10
5.00041e-06
-8.72022e-10
5.00049e-06
-9.91511e-10
5.00058e-06
-1.22715e-09
5.00069e-06
-1.3549e-09
5.0008e-06
-1.72595e-09
5.00091e-06
-1.81166e-09
-2.44218e-09
5e-06
-1.67446e-11
5e-06
-5.04843e-11
5.00001e-06
-8.48675e-11
5.00002e-06
-1.21966e-10
5.00003e-06
-1.61659e-10
5.00004e-06
-2.07408e-10
5.00006e-06
-2.56965e-10
5.00008e-06
-3.1666e-10
5.0001e-06
-3.8028e-10
5.00013e-06
-4.61266e-10
5.00016e-06
-5.43438e-10
5.0002e-06
-6.56756e-10
5.00025e-06
-7.61311e-10
5.0003e-06
-9.24417e-10
5.00036e-06
-1.05069e-09
5.00042e-06
-1.29376e-09
5.0005e-06
-1.42782e-09
5.00058e-06
-1.80659e-09
5.00067e-06
-1.89988e-09
-2.51628e-09
5e-06
-1.72609e-11
5e-06
-5.23211e-11
5.00001e-06
-8.80094e-11
5.00001e-06
-1.26736e-10
5.00002e-06
-1.68038e-10
5.00002e-06
-2.15511e-10
5.00003e-06
-2.66871e-10
5.00005e-06
-3.2871e-10
5.00006e-06
-3.94681e-10
5.00008e-06
-4.78348e-10
5.0001e-06
-5.63605e-10
5.00012e-06
-6.80285e-10
5.00015e-06
-7.88477e-10
5.00018e-06
-9.55616e-10
5.00022e-06
-1.0861e-09
5.00026e-06
-1.33343e-09
5.0003e-06
-1.47156e-09
5.00035e-06
-1.85372e-09
5.00039e-06
-1.94727e-09
-2.57227e-09
5e-06
-1.74491e-11
5e-06
-5.2909e-11
5e-06
-8.9113e-11
5e-06
-1.28329e-10
5.00001e-06
-1.70198e-10
5.00001e-06
-2.18186e-10
5.00001e-06
-2.70178e-10
5.00002e-06
-3.32701e-10
5.00002e-06
-3.99443e-10
5.00003e-06
-4.84028e-10
5.00003e-06
-5.70274e-10
5.00004e-06
-6.88062e-10
5.00005e-06
-7.97546e-10
5.00006e-06
-9.65971e-10
5.00007e-06
-1.09791e-09
5.00009e-06
-1.34662e-09
5.0001e-06
-1.48613e-09
5.00012e-06
-1.86906e-09
5.00013e-06
-1.96446e-09
-2.58856e-09
5e-06
-1.72967e-11
5e-06
-5.22561e-11
5e-06
-8.80406e-11
5e-06
-1.26675e-10
4.99999e-06
-1.68046e-10
4.99999e-06
-2.1543e-10
4.99999e-06
-2.66868e-10
4.99998e-06
-3.28699e-10
4.99998e-06
-3.94625e-10
4.99997e-06
-4.78348e-10
4.99997e-06
-5.63485e-10
4.99996e-06
-6.80125e-10
4.99995e-06
-7.88379e-10
4.99994e-06
-9.55463e-10
4.99993e-06
-1.08597e-09
4.99991e-06
-1.33343e-09
4.9999e-06
-1.47168e-09
4.99988e-06
-1.85379e-09
4.99987e-06
-1.94732e-09
-2.57217e-09
5e-06
-1.67135e-11
5e-06
-5.04766e-11
4.99999e-06
-8.48727e-11
4.99999e-06
-1.2195e-10
4.99998e-06
-1.61671e-10
4.99998e-06
-2.07367e-10
4.99997e-06
-2.56957e-10
4.99995e-06
-3.1673e-10
4.99994e-06
-3.80257e-10
4.99992e-06
-4.61301e-10
4.9999e-06
-5.4343e-10
4.99988e-06
-6.56615e-10
4.99985e-06
-7.61112e-10
4.99982e-06
-9.24178e-10
4.99978e-06
-1.05055e-09
4.99974e-06
-1.29374e-09
4.9997e-06
-1.42791e-09
4.99965e-06
-1.8066e-09
4.99961e-06
-1.89988e-09
-2.51612e-09
5e-06
-1.56667e-11
5e-06
-4.74798e-11
4.99999e-06
-7.98144e-11
4.99998e-06
-1.14521e-10
4.99997e-06
-1.515e-10
4.99996e-06
-1.94385e-10
4.99994e-06
-2.4069e-10
4.99992e-06
-2.96906e-10
4.9999e-06
-3.56429e-10
4.99987e-06
-4.32834e-10
4.99984e-06
-5.10048e-10
4.9998e-06
-6.17467e-10
4.99975e-06
-7.15771e-10
4.9997e-06
-8.71831e-10
4.99964e-06
-9.91379e-10
4.99958e-06
-1.22703e-09
4.9995e-06
-1.35486e-09
4.99942e-06
-1.72583e-09
4.99933e-06
-1.81158e-09
-2.44186e-09
5e-06
-1.38761e-11
4.99999e-06
-4.30221e-11
4.99999e-06
-7.26044e-11
4.99998e-06
-1.04508e-10
4.99996e-06
-1.38231e-10
4.99995e-06
-1.77427e-10
4.99992e-06
-2.19292e-10
4.9999e-06
-2.70604e-10
4.99987e-06
-3.24561e-10
4.99983e-06
-3.94632e-10
4.99978e-06
-4.64511e-10
4.99973e-06
-5.64167e-10
4.99967e-06
-6.53255e-10
4.99959e-06
-7.99837e-10
4.99951e-06
-9.08283e-10
4.99942e-06
-1.13371e-09
4.99931e-06
-1.25041e-09
4.9992e-06
-1.6151e-09
4.99909e-06
-1.69662e-09
-2.2932e-09
5e-06
-1.16084e-11
4.99999e-06
-3.63218e-11
4.99998e-06
-6.18021e-11
4.99997e-06
-8.96342e-11
4.99995e-06
-1.19554e-10
4.99992e-06
-1.54003e-10
4.99989e-06
-1.90902e-10
4.99986e-06
-2.35982e-10
4.99982e-06
-2.83511e-10
4.99977e-06
-3.45585e-10
4.99971e-06
-4.06909e-10
4.99964e-06
-4.95851e-10
4.99957e-06
-5.74397e-10
4.99947e-06
-7.07212e-10
4.99937e-06
-8.03251e-10
4.99925e-06
-1.01197e-09
4.99911e-06
-1.11591e-09
4.99896e-06
-1.46086e-09
4.99879e-06
-1.53227e-09
-2.16245e-09
5e-06
-1.26183e-11
5e-06
-3.32004e-11
4.99999e-06
-5.40953e-11
4.99998e-06
-7.71744e-11
4.99996e-06
-1.01655e-10
4.99994e-06
-1.29842e-10
4.9999e-06
-1.60139e-10
4.99987e-06
-1.97454e-10
4.99982e-06
-2.36037e-10
4.99976e-06
-2.88868e-10
4.99969e-06
-3.38511e-10
4.99961e-06
-4.15425e-10
4.99952e-06
-4.78537e-10
4.99941e-06
-5.96426e-10
4.99928e-06
-6.72647e-10
4.99913e-06
-8.64587e-10
4.99896e-06
-9.46407e-10
4.99878e-06
-1.27932e-09
4.99858e-06
-1.33091e-09
-1.89755e-09
4.99999e-06
-4.6211e-12
4.99998e-06
-2.0251e-11
4.99996e-06
-3.73925e-11
4.99994e-06
-5.64501e-11
4.99992e-06
-7.62232e-11
4.99988e-06
-9.88906e-11
4.99985e-06
-1.2298e-10
4.9998e-06
-1.52532e-10
4.99975e-06
-1.82321e-10
4.99968e-06
-2.23876e-10
4.99961e-06
-2.6248e-10
4.99952e-06
-3.23396e-10
4.99941e-06
-3.72063e-10
4.99928e-06
-4.67527e-10
4.99913e-06
-5.25727e-10
4.99895e-06
-6.8648e-10
4.99876e-06
-7.47662e-10
4.99852e-06
-1.04069e-09
4.99827e-06
-1.08289e-09
-1.68921e-09
5.00001e-06
-1.17849e-11
5.00001e-06
-1.88782e-11
5e-06
-2.91598e-11
4.99998e-06
-4.1761e-11
4.99996e-06
-5.39773e-11
4.99993e-06
-6.92977e-11
4.99989e-06
-8.3643e-11
4.99984e-06
-1.05326e-10
4.99978e-06
-1.23822e-10
4.99971e-06
-1.53268e-10
4.99963e-06
-1.77211e-10
4.99953e-06
-2.22127e-10
4.99941e-06
-2.5033e-10
4.99926e-06
-3.2403e-10
4.99909e-06
-3.53904e-10
4.99889e-06
-4.859e-10
4.99865e-06
-5.09111e-10
4.99838e-06
-7.67523e-10
4.99806e-06
-7.59664e-10
-1.26154e-09
4.99998e-06
1.00242e-11
4.99996e-06
-4.29e-12
4.99995e-06
-1.29578e-11
4.99992e-06
-1.95563e-11
4.9999e-06
-2.6308e-11
4.99986e-06
-3.46809e-11
4.99982e-06
-3.34967e-11
4.99977e-06
-5.53446e-11
4.99971e-06
-6.29739e-11
4.99963e-06
-7.8418e-11
4.99955e-06
-9.03487e-11
4.99944e-06
-1.14098e-10
4.99931e-06
-1.26927e-10
4.99916e-06
-1.67809e-10
4.99898e-06
-1.78125e-10
4.99875e-06
-2.56875e-10
4.9985e-06
-2.56238e-10
4.99817e-06
-4.31685e-10
4.99782e-06
-4.14121e-10
-8.91608e-10
5.00001e-06
5.00001e-06
4.99999e-06
4.99997e-06
4.99995e-06
4.99991e-06
4.99987e-06
4.99982e-06
4.99975e-06
4.99968e-06
4.99959e-06
4.99947e-06
4.99934e-06
4.99918e-06
4.999e-06
4.99874e-06
4.99848e-06
4.99805e-06
4.99764e-06
)
;

boundaryField
{
    sides
    {
        type            calculated;
        value           uniform 0;
    }
    inlet
    {
        type            calculated;
        value           nonuniform List<scalar> 
20
(
-5e-06
-5e-06
-5e-06
-5e-06
-5e-06
-5e-06
-5e-06
-5e-06
-5e-06
-5e-06
-5e-06
-5e-06
-5e-06
-5e-06
-5e-06
-5e-06
-5e-06
-5e-06
-5e-06
-5e-06
)
;
    }
    outlet
    {
        type            calculated;
        value           nonuniform List<scalar> 
20
(
5.00325e-06
5.00255e-06
5.00237e-06
5.00194e-06
5.00169e-06
5.00134e-06
5.00106e-06
5.00074e-06
5.00045e-06
5.00015e-06
4.99985e-06
4.99955e-06
4.99926e-06
4.99894e-06
4.99866e-06
4.99831e-06
4.99806e-06
4.99763e-06
4.99745e-06
4.99675e-06
)
;
    }
    frontAndBack
    {
        type            empty;
        value           nonuniform 0();
    }
}


// ************************************************************************* //
