/*--------------------------------*- C++ -*----------------------------------*\
  =========                 |
  \\      /  F ield         | OpenFOAM: The Open Source CFD Toolbox
   \\    /   O peration     | Website:  https://openfoam.org
    \\  /    A nd           | Version:  7
     \\/     M anipulation  |
\*---------------------------------------------------------------------------*/
FoamFile
{
    version     2.0;
    format      ascii;
    class       surfaceScalarField;
    location    "83";
    object      phi_0;
}
// * * * * * * * * * * * * * * * * * * * * * * * * * * * * * * * * * * * * * //

dimensions      [0 4 -1 0 0 0 0];

internalField   nonuniform List<scalar> 
760
(
4.99999e-06
1.00024e-11
4.99999e-06
-4.42691e-12
5.00001e-06
-1.27505e-11
5.00003e-06
-1.91628e-11
5.00005e-06
-2.66944e-11
5.00009e-06
-2.98859e-11
5.00013e-06
-3.84604e-11
5.00018e-06
-6.30745e-11
5.00025e-06
-6.27637e-11
5.00032e-06
-7.81164e-11
5.00041e-06
-9.02412e-11
5.00053e-06
-1.1422e-10
5.00066e-06
-1.27089e-10
5.00082e-06
-1.67905e-10
5.001e-06
-1.78031e-10
5.00126e-06
-2.56744e-10
5.00151e-06
-2.56048e-10
5.00195e-06
-4.31634e-10
5.00236e-06
-4.14058e-10
-8.91622e-10
5.00002e-06
-1.17795e-11
5.00004e-06
-1.89961e-11
5.00005e-06
-2.92085e-11
5.00008e-06
-4.14678e-11
5.0001e-06
-5.40577e-11
5.00014e-06
-6.89436e-11
5.00018e-06
-8.40656e-11
5.00023e-06
-1.03346e-10
5.00029e-06
-1.23724e-10
5.00037e-06
-1.53364e-10
5.00045e-06
-1.77262e-10
5.00056e-06
-2.22313e-10
5.00069e-06
-2.50497e-10
5.00084e-06
-3.24176e-10
5.00102e-06
-3.53835e-10
5.00125e-06
-4.85913e-10
5.0015e-06
-5.09019e-10
5.00184e-06
-7.67748e-10
5.00218e-06
-7.59792e-10
-1.26205e-09
4.99999e-06
-4.55206e-12
4.99999e-06
-2.02507e-11
5e-06
-3.74797e-11
5.00002e-06
-5.64296e-11
5.00004e-06
-7.60671e-11
5.00007e-06
-9.89007e-11
5.00011e-06
-1.22071e-10
5.00016e-06
-1.52358e-10
5.00021e-06
-1.82738e-10
5.00029e-06
-2.2399e-10
5.00037e-06
-2.62589e-10
5.00047e-06
-3.23502e-10
5.00059e-06
-3.72013e-10
5.00074e-06
-4.67421e-10
5.00091e-06
-5.25539e-10
5.00111e-06
-6.86469e-10
5.00135e-06
-7.47656e-10
5.00162e-06
-1.04094e-09
5.00194e-06
-1.08303e-09
-1.68964e-09
5.00001e-06
-1.25767e-11
5.00002e-06
-3.31364e-11
5.00004e-06
-5.40854e-11
5.00006e-06
-7.73286e-11
5.00008e-06
-1.0143e-10
5.00012e-06
-1.30084e-10
5.00015e-06
-1.59844e-10
5.0002e-06
-1.98027e-10
5.00025e-06
-2.3623e-10
5.00032e-06
-2.88941e-10
5.00039e-06
-3.38632e-10
5.00049e-06
-4.15456e-10
5.00059e-06
-4.78375e-10
5.00072e-06
-5.96274e-10
5.00087e-06
-6.72531e-10
5.00105e-06
-8.64724e-10
5.00124e-06
-9.46582e-10
5.00148e-06
-1.2797e-09
5.00173e-06
-1.33119e-09
-1.89813e-09
5e-06
-1.15929e-11
5e-06
-3.62459e-11
5.00001e-06
-6.16961e-11
5.00002e-06
-8.97005e-11
5.00004e-06
-1.19531e-10
5.00006e-06
-1.53936e-10
5.0001e-06
-1.91049e-10
5.00013e-06
-2.3623e-10
5.00018e-06
-2.83434e-10
5.00024e-06
-3.456e-10
5.00031e-06
-4.06912e-10
5.00039e-06
-4.95708e-10
5.00048e-06
-5.74161e-10
5.00059e-06
-7.07084e-10
5.00072e-06
-8.03222e-10
5.00087e-06
-1.01216e-09
5.00104e-06
-1.11611e-09
5.00122e-06
-1.46121e-09
5.00142e-06
-1.53252e-09
-2.16296e-09
5e-06
-1.3882e-11
5.00001e-06
-4.29749e-11
5.00002e-06
-7.25437e-11
5.00003e-06
-1.04386e-10
5.00005e-06
-1.38365e-10
5.00008e-06
-1.77327e-10
5.00011e-06
-2.19443e-10
5.00014e-06
-2.7057e-10
5.00018e-06
-3.24474e-10
5.00023e-06
-3.94693e-10
5.00029e-06
-4.64399e-10
5.00036e-06
-5.63992e-10
5.00043e-06
-6.53142e-10
5.00053e-06
-7.99846e-10
5.00063e-06
-9.08343e-10
5.00075e-06
-1.13389e-09
5.00089e-06
-1.25057e-09
5.00104e-06
-1.61538e-09
5.00121e-06
-1.69688e-09
-2.29367e-09
5e-06
-1.5692e-11
5.00001e-06
-4.74389e-11
5.00001e-06
-7.98367e-11
5.00002e-06
-1.1441e-10
5.00004e-06
-1.51486e-10
5.00005e-06
-1.9435e-10
5.00008e-06
-2.40746e-10
5.0001e-06
-2.96799e-10
5.00013e-06
-3.5643e-10
5.00017e-06
-4.32806e-10
5.00022e-06
-5.09914e-10
5.00027e-06
-6.17452e-10
5.00033e-06
-7.15843e-10
5.00041e-06
-8.71927e-10
5.00049e-06
-9.91411e-10
5.00058e-06
-1.22706e-09
5.00069e-06
-1.35485e-09
5.0008e-06
-1.72594e-09
5.00091e-06
-1.81173e-09
-2.44226e-09
5e-06
-1.67297e-11
5e-06
-5.04783e-11
5.00001e-06
-8.48232e-11
5.00002e-06
-1.21963e-10
5.00003e-06
-1.61608e-10
5.00004e-06
-2.07402e-10
5.00006e-06
-2.56933e-10
5.00008e-06
-3.16709e-10
5.0001e-06
-3.80299e-10
5.00013e-06
-4.61295e-10
5.00016e-06
-5.43523e-10
5.0002e-06
-6.56779e-10
5.00025e-06
-7.61219e-10
5.0003e-06
-9.24268e-10
5.00036e-06
-1.05055e-09
5.00042e-06
-1.29365e-09
5.0005e-06
-1.42777e-09
5.00058e-06
-1.80661e-09
5.00067e-06
-1.89999e-09
-2.51638e-09
5e-06
-1.72641e-11
5e-06
-5.2289e-11
5.00001e-06
-8.79664e-11
5.00001e-06
-1.26687e-10
5.00002e-06
-1.6801e-10
5.00002e-06
-2.15491e-10
5.00003e-06
-2.66854e-10
5.00005e-06
-3.2876e-10
5.00006e-06
-3.94682e-10
5.00008e-06
-4.78413e-10
5.0001e-06
-5.6366e-10
5.00012e-06
-6.80229e-10
5.00015e-06
-7.88393e-10
5.00018e-06
-9.55521e-10
5.00022e-06
-1.08597e-09
5.00026e-06
-1.33331e-09
5.0003e-06
-1.47152e-09
5.00035e-06
-1.85376e-09
5.00039e-06
-1.9474e-09
-2.57237e-09
5e-06
-1.74357e-11
5e-06
-5.28694e-11
5e-06
-8.90674e-11
5e-06
-1.28293e-10
5.00001e-06
-1.70186e-10
5.00001e-06
-2.18192e-10
5.00001e-06
-2.70194e-10
5.00002e-06
-3.32745e-10
5.00002e-06
-3.99476e-10
5.00003e-06
-4.84074e-10
5.00003e-06
-5.70301e-10
5.00004e-06
-6.88041e-10
5.00005e-06
-7.97506e-10
5.00006e-06
-9.65916e-10
5.00007e-06
-1.09784e-09
5.00009e-06
-1.34654e-09
5.0001e-06
-1.48611e-09
5.00012e-06
-1.86909e-09
5.00013e-06
-1.96456e-09
-2.58865e-09
5e-06
-1.72597e-11
5e-06
-5.22238e-11
5e-06
-8.79946e-11
5e-06
-1.26666e-10
4.99999e-06
-1.6804e-10
4.99999e-06
-2.15461e-10
4.99999e-06
-2.66914e-10
4.99998e-06
-3.28723e-10
4.99998e-06
-3.94694e-10
4.99997e-06
-4.78349e-10
4.99997e-06
-5.63474e-10
4.99996e-06
-6.80156e-10
4.99995e-06
-7.88368e-10
4.99994e-06
-9.55424e-10
4.99993e-06
-1.08596e-09
4.99991e-06
-1.33343e-09
4.9999e-06
-1.47167e-09
4.99988e-06
-1.85378e-09
4.99987e-06
-1.94736e-09
-2.57223e-09
5e-06
-1.66999e-11
5e-06
-5.04249e-11
4.99999e-06
-8.48455e-11
4.99999e-06
-1.21909e-10
4.99998e-06
-1.61671e-10
4.99998e-06
-2.07374e-10
4.99997e-06
-2.57012e-10
4.99995e-06
-3.16721e-10
4.99994e-06
-3.80314e-10
4.99992e-06
-4.61297e-10
4.9999e-06
-5.43352e-10
4.99988e-06
-6.56588e-10
4.99985e-06
-7.61112e-10
4.99982e-06
-9.24169e-10
4.99978e-06
-1.05054e-09
4.99974e-06
-1.29372e-09
4.9997e-06
-1.4279e-09
4.99965e-06
-1.80659e-09
4.99961e-06
-1.8999e-09
-2.51617e-09
5e-06
-1.56749e-11
5e-06
-4.74537e-11
4.99999e-06
-7.97871e-11
4.99998e-06
-1.14432e-10
4.99997e-06
-1.51518e-10
4.99996e-06
-1.94338e-10
4.99994e-06
-2.40734e-10
4.99992e-06
-2.96904e-10
4.9999e-06
-3.56432e-10
4.99987e-06
-4.32895e-10
4.99984e-06
-5.09997e-10
4.9998e-06
-6.17339e-10
4.99975e-06
-7.15688e-10
4.9997e-06
-8.7179e-10
4.99964e-06
-9.91327e-10
4.99958e-06
-1.22697e-09
4.9995e-06
-1.35485e-09
4.99942e-06
-1.72583e-09
4.99933e-06
-1.8116e-09
-2.4419e-09
5e-06
-1.38928e-11
4.99999e-06
-4.30144e-11
4.99999e-06
-7.25533e-11
4.99998e-06
-1.04503e-10
4.99996e-06
-1.38196e-10
4.99995e-06
-1.77369e-10
4.99992e-06
-2.19285e-10
4.9999e-06
-2.70689e-10
4.99987e-06
-3.24517e-10
4.99983e-06
-3.94692e-10
4.99978e-06
-4.64581e-10
4.99973e-06
-5.64093e-10
4.99967e-06
-6.53119e-10
4.99959e-06
-7.9971e-10
4.99951e-06
-9.08173e-10
4.99942e-06
-1.13363e-09
4.99931e-06
-1.2504e-09
4.9992e-06
-1.61512e-09
4.99909e-06
-1.69668e-09
-2.29327e-09
5e-06
-1.15976e-11
4.99999e-06
-3.63139e-11
4.99998e-06
-6.17922e-11
4.99997e-06
-8.96711e-11
4.99995e-06
-1.19402e-10
4.99992e-06
-1.54097e-10
4.99989e-06
-1.90831e-10
4.99986e-06
-2.36136e-10
4.99982e-06
-2.83578e-10
4.99977e-06
-3.45598e-10
4.99971e-06
-4.0701e-10
4.99964e-06
-4.959e-10
4.99957e-06
-5.74324e-10
4.99947e-06
-7.07078e-10
4.99937e-06
-8.03132e-10
4.99925e-06
-1.01189e-09
4.99911e-06
-1.11589e-09
4.99896e-06
-1.46089e-09
4.99879e-06
-1.53236e-09
-2.16253e-09
5e-06
-1.25792e-11
5e-06
-3.31924e-11
4.99999e-06
-5.41188e-11
4.99998e-06
-7.7143e-11
4.99996e-06
-1.01562e-10
4.99994e-06
-1.29984e-10
4.9999e-06
-1.59839e-10
4.99987e-06
-1.97492e-10
4.99982e-06
-2.36166e-10
4.99976e-06
-2.88889e-10
4.99969e-06
-3.38577e-10
4.99961e-06
-4.15532e-10
4.99952e-06
-4.78561e-10
4.99941e-06
-5.96358e-10
4.99928e-06
-6.7256e-10
4.99913e-06
-8.64517e-10
4.99896e-06
-9.46384e-10
4.99878e-06
-1.27935e-09
4.99858e-06
-1.33099e-09
-1.89762e-09
4.99999e-06
-4.591e-12
4.99998e-06
-2.02474e-11
4.99996e-06
-3.73866e-11
4.99994e-06
-5.63527e-11
4.99992e-06
-7.63055e-11
4.99989e-06
-9.86834e-11
4.99985e-06
-1.2309e-10
4.9998e-06
-1.5191e-10
4.99975e-06
-1.82388e-10
4.99968e-06
-2.23878e-10
4.99961e-06
-2.62467e-10
4.99952e-06
-3.23457e-10
4.99941e-06
-3.72126e-10
4.99928e-06
-4.67535e-10
4.99913e-06
-5.25695e-10
4.99895e-06
-6.86438e-10
4.99876e-06
-7.47642e-10
4.99852e-06
-1.0407e-09
4.99827e-06
-1.08293e-09
-1.68925e-09
5.00001e-06
-1.17971e-11
5.00001e-06
-1.88415e-11
5e-06
-2.90618e-11
4.99998e-06
-4.16878e-11
4.99996e-06
-5.41679e-11
4.99993e-06
-6.90306e-11
4.99989e-06
-8.48997e-11
4.99984e-06
-1.04997e-10
4.99978e-06
-1.23549e-10
4.99971e-06
-1.53225e-10
4.99963e-06
-1.77121e-10
4.99953e-06
-2.22071e-10
4.99941e-06
-2.5035e-10
4.99926e-06
-3.24075e-10
4.99909e-06
-3.53926e-10
4.99889e-06
-4.85897e-10
4.99865e-06
-5.09103e-10
4.99838e-06
-7.67513e-10
4.99806e-06
-7.59673e-10
-1.26156e-09
4.99998e-06
9.97619e-12
4.99996e-06
-4.23345e-12
4.99995e-06
-1.28189e-11
4.99992e-06
-1.9668e-11
4.9999e-06
-2.64375e-11
4.99986e-06
-3.44793e-11
4.99982e-06
-4.35345e-11
4.99977e-06
-5.70883e-11
4.99971e-06
-6.31697e-11
4.99963e-06
-7.8337e-11
4.99955e-06
-9.02036e-11
4.99944e-06
-1.13982e-10
4.99931e-06
-1.26914e-10
4.99916e-06
-1.67859e-10
4.99898e-06
-1.78169e-10
4.99875e-06
-2.56891e-10
4.9985e-06
-2.56237e-10
4.99817e-06
-4.31673e-10
4.99782e-06
-4.14119e-10
-8.91616e-10
5.00001e-06
5.00001e-06
4.99999e-06
4.99997e-06
4.99995e-06
4.99991e-06
4.99987e-06
4.99982e-06
4.99975e-06
4.99968e-06
4.99959e-06
4.99947e-06
4.99934e-06
4.99918e-06
4.999e-06
4.99874e-06
4.99848e-06
4.99805e-06
4.99764e-06
)
;

boundaryField
{
    sides
    {
        type            calculated;
        value           uniform 0;
    }
    inlet
    {
        type            calculated;
        value           nonuniform List<scalar> 
20
(
-5e-06
-5e-06
-5e-06
-5e-06
-5e-06
-5e-06
-5e-06
-5e-06
-5e-06
-5e-06
-5e-06
-5e-06
-5e-06
-5e-06
-5e-06
-5e-06
-5e-06
-5e-06
-5e-06
-5e-06
)
;
    }
    outlet
    {
        type            calculated;
        value           nonuniform List<scalar> 
20
(
5.00325e-06
5.00255e-06
5.00237e-06
5.00194e-06
5.00169e-06
5.00134e-06
5.00106e-06
5.00074e-06
5.00045e-06
5.00015e-06
4.99985e-06
4.99955e-06
4.99926e-06
4.99894e-06
4.99866e-06
4.99831e-06
4.99806e-06
4.99763e-06
4.99745e-06
4.99675e-06
)
;
    }
    frontAndBack
    {
        type            empty;
        value           nonuniform 0();
    }
}


// ************************************************************************* //
