/*--------------------------------*- C++ -*----------------------------------*\
  =========                 |
  \\      /  F ield         | OpenFOAM: The Open Source CFD Toolbox
   \\    /   O peration     | Website:  https://openfoam.org
    \\  /    A nd           | Version:  7
     \\/     M anipulation  |
\*---------------------------------------------------------------------------*/
FoamFile
{
    version     2.0;
    format      ascii;
    class       volVectorField;
    location    "78";
    object      ddt0(hU);
}
// * * * * * * * * * * * * * * * * * * * * * * * * * * * * * * * * * * * * * //

dimensions      [0 2 -2 0 0 0 0];

internalField   nonuniform List<vector> 
400
(
(1.17558e-10 8.19801e-11 0)
(1.36021e-10 1.39427e-11 0)
(1.90991e-11 -2.45793e-10 0)
(-2.86048e-10 -1.9902e-10 0)
(-3.75555e-11 4.04732e-10 0)
(-4.24265e-10 2.82222e-10 0)
(2.72538e-10 2.11004e-10 0)
(-2.81841e-09 -1.03569e-09 0)
(1.65976e-10 -7.13676e-11 0)
(2.94218e-10 -4.6322e-10 0)
(-7.76478e-10 -2.86548e-10 0)
(-6.58149e-10 3.76418e-11 0)
(-2.07007e-10 1.56814e-10 0)
(9.14902e-11 1.05329e-10 0)
(1.45437e-10 4.045e-12 0)
(6.00506e-11 -7.89788e-11 0)
(-1.37922e-11 -7.96713e-11 0)
(-4.93004e-11 -5.09904e-11 0)
(-8.54846e-12 -1.13698e-11 0)
(-2.17425e-11 3.58151e-11 0)
(-1.21781e-11 1.40855e-10 0)
(-1.80386e-11 3.63433e-11 0)
(-8.66877e-11 -3.65677e-10 0)
(1.58749e-10 -1.12632e-10 0)
(-2.09615e-10 2.60876e-10 0)
(6.81575e-10 5.98808e-10 0)
(5.43033e-10 -4.7468e-10 0)
(1.72975e-09 -6.7443e-10 0)
(8.11026e-10 1.69973e-10 0)
(-1.13626e-10 -7.39261e-10 0)
(-2.6354e-11 -4.99814e-10 0)
(4.35499e-11 -1.31258e-11 0)
(-1.00397e-11 2.21935e-10 0)
(-3.26765e-11 2.03389e-10 0)
(-5.41073e-11 6.39286e-11 0)
(-7.13799e-11 -6.51061e-11 0)
(-5.02154e-11 -9.29644e-11 0)
(-3.61697e-11 -6.13003e-11 0)
(1.33778e-11 -4.82251e-11 0)
(6.79545e-12 -7.65465e-12 0)
(-1.00398e-10 5.71416e-12 0)
(-1.49595e-10 3.58197e-12 0)
(-5.58025e-11 -1.20822e-10 0)
(1.83699e-10 -9.69513e-12 0)
(4.72539e-11 -4.19997e-10 0)
(2.05717e-10 2.3743e-10 0)
(-1.13482e-09 -7.12413e-10 0)
(1.16405e-09 8.19352e-10 0)
(-2.89937e-10 7.40157e-11 0)
(-7.10336e-10 -1.35126e-10 0)
(2.49119e-10 5.11649e-11 0)
(3.58091e-10 1.07805e-10 0)
(1.47764e-10 9.01155e-11 0)
(-3.66559e-11 2.97185e-12 0)
(-1.6061e-10 -9.6185e-11 0)
(-1.62857e-10 -1.69713e-10 0)
(-6.43506e-11 -1.46114e-10 0)
(-1.27489e-11 -1.02134e-10 0)
(6.73947e-11 -5.43391e-11 0)
(5.13374e-11 4.71475e-11 0)
(-2.45211e-11 -7.97396e-11 0)
(-7.32365e-11 -2.62343e-12 0)
(-3.12859e-11 8.12603e-11 0)
(-1.59727e-11 -8.87321e-11 0)
(2.15595e-10 -2.25111e-10 0)
(-1.89618e-10 -3.38389e-10 0)
(1.16238e-10 1.87289e-10 0)
(5.4269e-10 2.45783e-10 0)
(-7.86158e-10 -4.01106e-10 0)
(-2.46587e-11 2.50762e-10 0)
(3.80281e-10 3.92478e-10 0)
(1.70294e-10 1.956e-10 0)
(-2.5024e-11 1.14981e-11 0)
(-1.49005e-10 -1.53061e-10 0)
(-2.1137e-10 -2.18791e-10 0)
(-1.71604e-10 -2.19001e-10 0)
(-5.2311e-11 -1.67921e-10 0)
(1.5851e-11 -1.32024e-10 0)
(7.95869e-11 -6.60297e-11 0)
(7.60207e-11 6.9527e-11 0)
(2.14536e-11 -3.68364e-11 0)
(-1.66488e-11 -4.55229e-11 0)
(3.75497e-11 5.22932e-11 0)
(-7.03704e-11 -1.22061e-10 0)
(1.53096e-10 3.45449e-11 0)
(-2.1661e-10 -4.77913e-10 0)
(2.85184e-10 2.31817e-10 0)
(-3.26673e-10 -3.38338e-10 0)
(-2.16802e-10 -7.54038e-11 0)
(4.60981e-10 3.86328e-10 0)
(2.05442e-10 2.41635e-10 0)
(-6.27507e-11 3.63011e-11 0)
(-1.47854e-10 -8.97589e-11 0)
(-2.05948e-10 -2.1517e-10 0)
(-1.72323e-10 -2.36369e-10 0)
(-8.98631e-11 -1.98107e-10 0)
(-7.0977e-12 -1.43874e-10 0)
(4.18844e-11 -1.1794e-10 0)
(9.11039e-11 -4.84247e-11 0)
(5.69819e-11 8.7655e-11 0)
(2.04065e-11 3.64769e-12 0)
(-9.86828e-12 -1.04918e-10 0)
(1.34378e-11 -6.45854e-11 0)
(-3.91524e-11 -2.0722e-10 0)
(2.98019e-11 -1.22915e-10 0)
(-4.56859e-11 -2.78816e-10 0)
(1.93883e-10 -6.99687e-11 0)
(-2.09823e-10 -2.22102e-10 0)
(3.17688e-10 2.71756e-10 0)
(3.18637e-10 2.50798e-10 0)
(-1.74344e-10 2.08747e-11 0)
(-2.06873e-10 -4.70079e-11 0)
(-2.00783e-10 -1.39039e-10 0)
(-2.34126e-10 -2.33388e-10 0)
(-1.07494e-10 -2.27291e-10 0)
(3.34601e-11 -2.18996e-10 0)
(7.45368e-11 -1.53976e-10 0)
(7.0138e-11 -1.02253e-10 0)
(1.03343e-10 -2.00641e-11 0)
(3.67297e-11 1.35947e-10 0)
(-5.86875e-12 1.2194e-11 0)
(1.19523e-12 -6.97241e-11 0)
(-3.30114e-11 -1.5908e-10 0)
(1.43794e-11 -1.34548e-10 0)
(-8.71917e-11 -2.84508e-10 0)
(6.80358e-11 -1.12973e-10 0)
(-8.2001e-12 -2.10459e-10 0)
(3.40876e-11 -9.53349e-11 0)
(2.77487e-10 1.48738e-10 0)
(-1.09965e-10 -7.93681e-11 0)
(-1.86831e-10 -6.2079e-11 0)
(-8.57626e-11 2.45231e-12 0)
(-1.43517e-10 -1.01577e-10 0)
(-1.34613e-10 -1.45022e-10 0)
(4.95263e-12 -1.11927e-10 0)
(1.13809e-10 -1.72241e-10 0)
(1.04653e-10 -1.5741e-10 0)
(3.00735e-11 -9.97848e-11 0)
(-1.44009e-11 -3.88792e-11 0)
(-5.5429e-11 1.13352e-10 0)
(-2.04113e-11 -4.93155e-11 0)
(4.60578e-12 -5.80833e-11 0)
(-6.52921e-11 -2.22534e-10 0)
(1.98067e-11 -1.50814e-10 0)
(-8.30859e-11 -2.73613e-10 0)
(8.82104e-11 -1.15368e-10 0)
(-7.9289e-11 -1.93416e-10 0)
(1.48211e-10 1.04216e-11 0)
(1.52783e-11 -8.01502e-12 0)
(-1.65408e-10 -3.78187e-11 0)
(3.78909e-11 8.18532e-11 0)
(-9.35528e-11 5.21921e-11 0)
(-1.93393e-10 -2.80967e-11 0)
(-2.13195e-11 -4.33394e-11 0)
(7.30252e-11 -5.83656e-11 0)
(7.62018e-11 -1.86966e-10 0)
(9.53586e-11 -2.05978e-10 0)
(5.76739e-11 -1.70347e-10 0)
(-1.73026e-11 -9.06714e-11 0)
(-9.17616e-11 1.19291e-10 0)
(1.9464e-11 -7.60605e-11 0)
(1.83331e-11 -1.18294e-10 0)
(-2.4756e-11 -1.41206e-10 0)
(3.89384e-12 -2.05349e-10 0)
(-2.30096e-12 -1.59711e-10 0)
(2.58544e-11 -1.6553e-10 0)
(-4.79717e-11 -1.2901e-10 0)
(4.96529e-11 -8.39018e-12 0)
(-8.81107e-11 -8.23596e-11 0)
(-3.90804e-11 9.24921e-11 0)
(6.11167e-11 8.07882e-11 0)
(-7.06117e-11 -3.30519e-12 0)
(-3.47422e-11 9.25075e-11 0)
(1.17663e-10 6.70876e-11 0)
(7.26141e-11 -7.89716e-11 0)
(-4.34321e-11 -2.22611e-10 0)
(-3.74986e-11 -2.19293e-10 0)
(6.60918e-13 -2.21966e-10 0)
(-3.03405e-11 -1.82482e-10 0)
(-7.38168e-11 7.37137e-11 0)
(2.13147e-11 -2.93539e-11 0)
(1.0815e-13 -1.37383e-10 0)
(5.41099e-11 -1.08881e-10 0)
(1.28682e-11 -2.29236e-10 0)
(6.16501e-11 -1.9152e-10 0)
(-4.08071e-11 -2.36081e-10 0)
(1.46717e-11 -1.51189e-10 0)
(-8.12982e-11 -5.86017e-11 0)
(-4.65262e-11 -5.00092e-11 0)
(2.46437e-11 1.24034e-10 0)
(-4.17118e-11 6.82065e-11 0)
(1.21522e-10 6.28967e-13 0)
(1.95608e-10 7.52781e-11 0)
(3.22758e-11 -2.29045e-11 0)
(-7.53332e-11 -1.9843e-10 0)
(-9.03605e-11 -3.02018e-10 0)
(-9.20456e-11 -2.45129e-10 0)
(-6.72526e-11 -2.27405e-10 0)
(-3.69926e-12 -1.86321e-10 0)
(3.36623e-11 7.70144e-11 0)
(9.08454e-13 7.67924e-12 0)
(-1.66639e-11 -3.99264e-11 0)
(6.4653e-11 -1.71659e-10 0)
(4.51622e-12 -2.27255e-10 0)
(8.08353e-11 -3.20631e-10 0)
(-4.80421e-11 -2.72481e-10 0)
(4.65707e-11 -2.21585e-10 0)
(-1.12294e-10 -9.94051e-11 0)
(-4.12362e-11 2.01368e-11 0)
(3.25661e-11 5.99862e-11 0)
(-8.57035e-11 1.29151e-10 0)
(1.58642e-10 8.05393e-11 0)
(2.47217e-10 -1.00483e-10 0)
(4.25287e-12 -2.35522e-10 0)
(-9.81715e-11 -2.52658e-10 0)
(-7.05933e-11 -3.06826e-10 0)
(-8.92003e-11 -2.72841e-10 0)
(-7.95291e-11 -2.14377e-10 0)
(1.92874e-12 -1.20088e-10 0)
(8.7066e-11 1.16111e-10 0)
(-4.40352e-12 2.95624e-11 0)
(-6.94269e-12 -2.60542e-11 0)
(-1.51026e-11 -1.83975e-10 0)
(-2.95057e-11 -1.97235e-10 0)
(3.9207e-11 -3.46263e-10 0)
(4.76074e-12 -2.6018e-10 0)
(9.98857e-12 -2.16689e-10 0)
(-4.99259e-12 -1.22789e-10 0)
(-9.61476e-11 1.08601e-10 0)
(2.22076e-11 4.25173e-11 0)
(1.27633e-11 1.4723e-10 0)
(-3.72188e-11 1.60652e-10 0)
(4.58015e-11 -1.34305e-10 0)
(9.69288e-11 -3.22541e-10 0)
(2.64198e-11 -2.78717e-10 0)
(-6.18353e-11 -2.86073e-10 0)
(-6.72656e-11 -2.40255e-10 0)
(-5.09848e-12 -1.55719e-10 0)
(6.21114e-11 -5.04706e-11 0)
(9.47701e-11 1.41211e-10 0)
(-3.19191e-11 -3.27768e-12 0)
(-6.53935e-12 -1.07409e-10 0)
(-7.79919e-11 -8.63909e-11 0)
(-1.42782e-11 -1.97455e-10 0)
(-4.69646e-11 -1.90909e-10 0)
(8.37586e-11 -2.48785e-10 0)
(-6.92766e-11 -9.71638e-11 0)
(1.3324e-10 -1.193e-10 0)
(-8.64718e-11 1.64636e-10 0)
(-1.04118e-10 2.01727e-10 0)
(1.20027e-10 1.37544e-10 0)
(-8.32408e-11 1.44899e-10 0)
(-1.47608e-10 1.44293e-12 0)
(6.36202e-11 -2.16704e-10 0)
(1.31659e-10 -2.84218e-10 0)
(7.58406e-11 -2.79709e-10 0)
(4.58098e-11 -1.83304e-10 0)
(2.85734e-11 -1.09163e-10 0)
(-1.49474e-11 -2.27748e-11 0)
(3.02734e-12 1.51321e-10 0)
(-8.36488e-12 -8.25716e-11 0)
(1.26244e-11 -1.18389e-10 0)
(-5.66747e-11 -4.5491e-11 0)
(1.07646e-11 -1.73639e-10 0)
(-1.24421e-10 -1.46656e-11 0)
(1.17095e-10 -2.69256e-10 0)
(-6.99215e-11 -4.14792e-11 0)
(1.53072e-10 -1.40989e-10 0)
(1.87233e-10 -7.68579e-11 0)
(-1.89604e-10 2.37675e-10 0)
(-4.3787e-11 1.57393e-10 0)
(-2.03736e-11 8.09809e-11 0)
(-1.40655e-10 1.00677e-10 0)
(-6.51306e-11 -2.86374e-11 0)
(9.26435e-11 -1.55212e-10 0)
(1.79554e-10 -2.01565e-10 0)
(1.32937e-10 -1.57453e-10 0)
(3.08872e-11 -1.34783e-10 0)
(-4.12011e-11 -7.06328e-11 0)
(-3.78991e-11 1.09308e-10 0)
(3.82475e-11 -9.4463e-11 0)
(5.19122e-11 -7.3459e-11 0)
(4.58004e-11 -1.36504e-10 0)
(8.26093e-12 -1.28354e-10 0)
(-1.01793e-10 -1.39668e-10 0)
(-3.08491e-11 -2.07124e-10 0)
(1.79555e-11 -1.28308e-10 0)
(-1.97218e-10 1.55484e-11 0)
(4.09407e-10 -2.85411e-10 0)
(1.70668e-10 8.29261e-12 0)
(-1.12353e-10 1.60176e-10 0)
(1.31641e-11 8.73901e-11 0)
(-1.98661e-12 8.53167e-11 0)
(-6.21169e-11 1.97941e-11 0)
(4.51667e-11 -8.70272e-11 0)
(1.39492e-10 -2.01757e-10 0)
(6.41269e-11 -2.03619e-10 0)
(-3.01986e-11 -1.77035e-10 0)
(-1.05547e-10 -8.74586e-11 0)
(-8.30767e-11 1.0897e-10 0)
(5.79238e-11 -2.75379e-12 0)
(5.81604e-11 -1.18513e-12 0)
(1.01315e-10 -1.57447e-10 0)
(-4.69209e-11 -4.12493e-11 0)
(3.92823e-11 -2.98134e-10 0)
(-2.28476e-10 1.5396e-10 0)
(2.1946e-10 -3.7234e-10 0)
(-4.35657e-10 2.40705e-10 0)
(2.67065e-11 -1.54562e-10 0)
(5.04324e-10 -3.25725e-10 0)
(1.45074e-10 -1.09179e-10 0)
(4.59777e-11 -2.39433e-11 0)
(3.62693e-11 2.01161e-13 0)
(-5.11336e-11 1.21086e-11 0)
(-3.20723e-11 -3.06759e-11 0)
(2.66085e-11 -1.56713e-10 0)
(1.66291e-11 -1.8589e-10 0)
(2.33506e-12 -1.47308e-10 0)
(-5.20995e-11 -9.43966e-11 0)
(-4.78743e-11 5.23521e-11 0)
(-1.40456e-11 7.11285e-11 0)
(1.33415e-11 -8.25684e-12 0)
(1.03192e-10 -2.30907e-10 0)
(-3.14506e-11 -1.37342e-10 0)
(2.04298e-10 -2.15222e-10 0)
(-3.68903e-10 3.02641e-10 0)
(3.04432e-10 -6.4428e-10 0)
(-2.39716e-10 3.78354e-10 0)
(-7.02911e-10 3.57083e-10 0)
(2.08377e-10 -2.54097e-10 0)
(3.77036e-10 -2.56487e-10 0)
(2.50872e-10 -1.37277e-10 0)
(1.86206e-10 -9.50549e-11 0)
(7.67297e-11 -6.37025e-11 0)
(-1.94332e-11 -6.40192e-11 0)
(-3.82848e-11 -1.48557e-10 0)
(-1.68778e-11 -1.56047e-10 0)
(7.12106e-12 -1.18268e-10 0)
(-4.23272e-11 -7.12575e-11 0)
(-2.91002e-11 5.63608e-11 0)
(-9.62819e-11 3.01057e-11 0)
(-6.94831e-11 -2.68973e-11 0)
(4.63582e-11 -2.32951e-11 0)
(1.05065e-10 -2.05719e-10 0)
(2.35974e-10 9.90427e-11 0)
(-2.75851e-10 -3.19397e-11 0)
(-2.32048e-10 -8.33283e-10 0)
(1.40808e-09 -1.57196e-09 0)
(-1.30537e-09 4.3149e-10 0)
(-4.79329e-10 1.65665e-10 0)
(3.66695e-10 2.19484e-12 0)
(3.99125e-10 -4.16774e-11 0)
(3.04706e-10 -1.11858e-10 0)
(1.66293e-10 -1.44135e-10 0)
(1.45667e-11 -1.20099e-10 0)
(-5.1298e-11 -1.19665e-10 0)
(-4.00907e-11 -9.70652e-11 0)
(-3.7075e-12 -7.97699e-11 0)
(-4.79807e-11 -3.66054e-11 0)
(-8.42405e-12 5.87376e-11 0)
(-2.472e-11 -1.52194e-11 0)
(1.95796e-11 -5.69486e-11 0)
(-4.95416e-11 2.43607e-10 0)
(1.20128e-10 5.40147e-11 0)
(-3.70981e-11 -3.57609e-11 0)
(1.20894e-09 -1.0141e-09 0)
(-2.68002e-09 2.07625e-09 0)
(9.5157e-10 3.15869e-10 0)
(1.21601e-09 -2.6216e-10 0)
(-5.27931e-10 7.57631e-10 0)
(8.96962e-11 4.48233e-10 0)
(1.91052e-10 6.80397e-11 0)
(1.59954e-10 -1.54962e-10 0)
(1.52418e-10 -1.99534e-10 0)
(9.87282e-11 -1.21724e-10 0)
(3.21302e-11 -4.30375e-11 0)
(-6.12604e-12 -1.86008e-11 0)
(5.5975e-12 -2.88031e-11 0)
(-1.57622e-11 -2.93419e-11 0)
(8.86254e-13 6.98141e-12 0)
(4.58617e-11 -7.59819e-12 0)
(5.13342e-11 -6.28201e-11 0)
(1.08857e-11 9.41836e-11 0)
(-1.08222e-10 9.94283e-11 0)
(-3.76697e-10 -2.14828e-10 0)
(-6.14464e-10 -8.9931e-10 0)
(2.29813e-09 2.54154e-09 0)
(-1.88771e-09 2.12644e-09 0)
(2.33484e-10 -3.03485e-10 0)
(4.28098e-10 6.05941e-10 0)
(-5.96939e-10 3.82379e-10 0)
(-4.33127e-10 6.03239e-11 0)
(-7.03313e-11 -1.11713e-10 0)
(1.91439e-10 -1.47715e-10 0)
(2.26158e-10 -1.05209e-10 0)
(1.14411e-10 -6.52819e-11 0)
(2.98672e-12 -3.41452e-11 0)
(-6.91344e-12 -2.96226e-11 0)
(-2.49172e-11 -3.2219e-12 0)
(1.78849e-12 4.13821e-11 0)
)
;

boundaryField
{
    sides
    {
        type            calculated;
        value           nonuniform List<vector> 
40
(
(4.58617e-11 0 0)
(5.13342e-11 0 0)
(1.08857e-11 0 0)
(-1.08222e-10 0 0)
(-3.76697e-10 0 0)
(-6.14464e-10 0 0)
(2.29813e-09 0 0)
(-1.88771e-09 0 0)
(2.33484e-10 0 0)
(4.28098e-10 0 0)
(-5.96939e-10 0 0)
(-4.33127e-10 0 0)
(-7.03313e-11 0 0)
(1.91439e-10 0 0)
(2.26158e-10 0 0)
(1.14411e-10 0 0)
(2.98672e-12 0 0)
(-6.91344e-12 0 0)
(-2.49172e-11 0 0)
(1.78849e-12 0 0)
(1.17558e-10 0 0)
(1.36021e-10 0 0)
(1.90991e-11 0 0)
(-2.86048e-10 0 0)
(-3.75555e-11 0 0)
(-4.24265e-10 0 0)
(2.72538e-10 0 0)
(-2.81841e-09 0 0)
(1.65976e-10 0 0)
(2.94218e-10 0 0)
(-7.76478e-10 0 0)
(-6.58149e-10 0 0)
(-2.07007e-10 0 0)
(9.14902e-11 0 0)
(1.45437e-10 0 0)
(6.00506e-11 0 0)
(-1.37922e-11 0 0)
(-4.93004e-11 0 0)
(-8.54846e-12 0 0)
(-2.17425e-11 0 0)
)
;
    }
    inlet
    {
        type            calculated;
        value           uniform (0 0 0);
    }
    outlet
    {
        type            calculated;
        value           nonuniform List<vector> 
20
(
(-2.17425e-11 3.58151e-11 0)
(6.79545e-12 -7.65465e-12 0)
(5.13374e-11 4.71475e-11 0)
(7.60207e-11 6.9527e-11 0)
(5.69819e-11 8.7655e-11 0)
(3.67297e-11 1.35947e-10 0)
(-5.5429e-11 1.13352e-10 0)
(-9.17616e-11 1.19291e-10 0)
(-7.38168e-11 7.37137e-11 0)
(3.36623e-11 7.70144e-11 0)
(8.7066e-11 1.16111e-10 0)
(9.47701e-11 1.41211e-10 0)
(3.02734e-12 1.51321e-10 0)
(-3.78991e-11 1.09308e-10 0)
(-8.30767e-11 1.0897e-10 0)
(-4.78743e-11 5.23521e-11 0)
(-2.91002e-11 5.63608e-11 0)
(-8.42405e-12 5.87376e-11 0)
(8.86254e-13 6.98141e-12 0)
(1.78849e-12 4.13821e-11 0)
)
;
    }
    frontAndBack
    {
        type            empty;
    }
}


// ************************************************************************* //
