/*--------------------------------*- C++ -*----------------------------------*\
  =========                 |
  \\      /  F ield         | OpenFOAM: The Open Source CFD Toolbox
   \\    /   O peration     | Website:  https://openfoam.org
    \\  /    A nd           | Version:  7
     \\/     M anipulation  |
\*---------------------------------------------------------------------------*/
FoamFile
{
    version     2.0;
    format      ascii;
    class       volScalarField;
    location    "78";
    object      ddt0(h);
}
// * * * * * * * * * * * * * * * * * * * * * * * * * * * * * * * * * * * * * //

dimensions      [0 1 -1 0 0 0 0];

internalField   nonuniform List<scalar> 
400
(
4.39249e-10
-1.33549e-09
-1.00243e-09
1.2042e-09
3.91905e-09
-8.21678e-09
-6.02283e-09
-2.73451e-08
1.73219e-09
7.308e-10
-2.03944e-09
-1.57537e-09
-4.23292e-10
3.20666e-10
6.24732e-10
5.81487e-10
3.24425e-10
2.38386e-11
-1.87693e-10
-1.39034e-10
-2.70811e-10
6.52067e-13
-1.16011e-10
-8.38806e-10
-2.50611e-09
5.25715e-09
9.80461e-09
2.15776e-08
2.40961e-09
-8.63992e-10
1.04315e-10
5.14006e-10
3.68454e-10
2.62559e-10
2.66536e-10
1.907e-10
1.41349e-11
-9.11936e-11
-8.29911e-11
-2.50473e-11
-5.72276e-10
8.50914e-10
-3.54826e-10
-5.78712e-10
-2.43014e-09
5.24711e-09
-7.16155e-09
6.03465e-09
-2.28638e-09
-1.94603e-09
9.77063e-10
1.30436e-09
8.28497e-10
4.36437e-10
6.04124e-11
-2.45264e-10
-3.06418e-10
-1.03678e-10
1.33617e-10
1.18099e-10
-4.81273e-10
2.50691e-10
5.70944e-11
-1.30156e-11
-5.88174e-10
-5.64448e-10
1.04765e-09
2.04831e-09
-3.12107e-09
4.75435e-10
1.44071e-09
7.57535e-10
3.49311e-10
1.52272e-10
-1.82591e-10
-4.44116e-10
-3.06951e-10
1.15247e-10
3.48468e-10
1.78365e-10
-3.6382e-10
-3.30336e-10
6.03914e-10
-4.94337e-10
1.15529e-09
-2.47668e-09
2.02992e-09
-1.79588e-09
-3.1361e-10
1.97974e-09
7.21984e-10
-3.61285e-11
-5.8643e-11
-2.12959e-10
-3.61577e-10
-3.08829e-10
-2.32945e-11
3.17415e-10
3.80397e-10
1.47531e-10
-1.66288e-10
-5.99888e-10
4.82297e-10
-5.70635e-10
8.11961e-10
-5.60684e-10
8.59795e-10
-1.06406e-09
1.58636e-09
1.18675e-09
-6.07162e-10
-3.6147e-10
-8.43695e-11
-3.97468e-10
-3.08262e-10
1.99145e-10
4.28006e-10
2.7911e-10
1.71556e-10
8.52917e-11
-9.18985e-11
-4.47369e-10
-1.67865e-10
3.30241e-10
-5.86594e-10
6.72082e-10
-1.48557e-10
1.78949e-10
1.09153e-09
-6.39652e-10
-6.85724e-10
-7.81908e-11
-1.29684e-10
-3.58329e-10
-6.09793e-11
6.5598e-10
7.5088e-10
1.28943e-10
-1.75046e-10
-6.03893e-11
-1.54802e-10
3.03059e-10
-7.10465e-10
4.65003e-10
-6.2012e-10
5.81811e-10
-6.48272e-10
5.74664e-10
-2.14637e-10
-7.16006e-10
3.3433e-10
-1.21039e-10
-4.4082e-10
1.59915e-11
3.05324e-10
5.533e-10
5.64106e-10
3.96099e-11
-3.68796e-10
-2.12735e-10
-6.12013e-11
3.82186e-10
-2.18589e-10
-1.53331e-10
-2.08733e-10
5.99121e-11
-2.84632e-10
2.21398e-10
-4.6096e-10
-2.29103e-11
4.77745e-10
-1.78951e-10
-1.72277e-10
4.82611e-10
4.67436e-10
6.71846e-12
-1.3401e-10
-1.28894e-10
-2.33651e-10
-1.54428e-10
2.3311e-10
-2.21803e-10
2.19328e-10
-2.5423e-10
2.33457e-10
-2.71559e-10
2.66568e-10
-3.20788e-10
-1.26479e-10
2.88022e-10
9.35034e-11
4.94178e-10
4.77663e-10
1.92347e-10
1.13612e-10
-2.743e-10
-5.4907e-10
-2.88501e-10
-5.41683e-11
-1.87209e-11
1.67763e-10
-4.18308e-10
4.09311e-10
-1.41398e-10
4.78049e-10
-3.07697e-10
4.50502e-10
-4.7558e-10
-9.53699e-11
2.67084e-10
-1.55061e-10
5.73478e-10
5.6026e-10
-1.80037e-11
-8.4234e-11
-3.76615e-10
-6.21657e-10
-1.87119e-10
2.15369e-10
1.35905e-10
-2.0494e-10
8.10767e-11
2.58392e-10
-4.92198e-11
3.02348e-10
-7.83449e-11
8.01872e-11
-4.03255e-11
-5.36606e-10
-8.02263e-13
-2.1059e-11
-2.92682e-10
-1.06598e-10
2.58032e-10
1.6307e-10
-3.6258e-10
-4.28913e-10
1.2636e-10
4.46878e-10
2.17271e-10
-2.13429e-10
4.86944e-10
-4.38439e-10
4.27057e-10
-2.95614e-10
4.06409e-10
-5.22799e-10
6.38573e-10
-6.06089e-10
-6.25855e-10
2.61951e-10
-5.21379e-10
-7.16909e-10
-2.67465e-11
1.87042e-10
1.29784e-10
2.12452e-10
2.68005e-10
1.96154e-10
6.95929e-11
2.67698e-10
8.92545e-11
-4.25456e-10
6.08552e-10
-1.01945e-09
8.14725e-10
-6.05499e-10
7.97824e-10
5.99094e-10
-1.04904e-09
-3.63717e-10
-1.61566e-10
-4.51506e-10
-4.44616e-10
-1.17673e-10
4.59871e-10
5.59272e-10
7.31303e-11
-1.82441e-10
-7.30359e-11
5.56888e-10
-1.57262e-10
2.64656e-10
-3.69361e-10
-1.34163e-10
2.63797e-10
2.94193e-10
-5.725e-10
2.04651e-09
4.08535e-10
-7.77652e-10
-2.27385e-10
-1.40415e-10
-5.2744e-10
-3.73508e-10
2.41113e-10
3.69979e-10
-9.79431e-11
-3.53356e-10
-1.62707e-10
4.84829e-10
-5.69352e-11
7.06737e-10
-6.19655e-10
1.39768e-09
-1.96721e-09
1.44929e-09
-1.92758e-09
5.77386e-10
1.87896e-09
1.91872e-10
-9.45744e-11
-6.53127e-12
-3.40268e-10
-4.60422e-10
-2.26801e-10
-2.22566e-11
-9.78772e-11
-2.81536e-10
-1.80928e-10
-1.72953e-10
2.2585e-10
5.7418e-10
3.59609e-13
9.37807e-10
-2.30321e-09
3.32017e-09
-2.42086e-09
-2.25225e-09
9.50164e-10
9.48246e-10
3.78922e-10
2.11117e-10
-1.85251e-11
-3.27946e-10
-4.3467e-10
-2.62658e-10
-8.12979e-11
-9.14076e-11
-7.33892e-11
-7.2864e-10
6.27113e-10
7.05561e-10
2.21425e-10
-9.66915e-10
2.09891e-09
-2.327e-09
7.29604e-09
-5.37244e-09
-1.2193e-09
8.08154e-10
7.92158e-10
5.17552e-10
2.37407e-10
-1.19276e-10
-3.37868e-10
-2.9217e-10
-1.10552e-10
3.84564e-11
5.34013e-11
1.38346e-10
4.80978e-10
2.38418e-10
1.0214e-10
-3.36524e-09
2.29911e-08
-1.02352e-08
-1.89228e-09
-5.95055e-10
-1.6448e-09
-5.0318e-11
2.6935e-10
7.60639e-11
1.76599e-11
-6.75337e-12
-1.01588e-10
-1.81222e-10
-1.05275e-10
5.30728e-11
6.86365e-11
1.19814e-09
-2.07958e-10
-1.08272e-09
7.26165e-10
3.48738e-09
-2.16454e-08
8.35402e-09
-1.51304e-09
5.93788e-09
5.62289e-10
-1.66044e-09
-1.43577e-09
-6.58155e-10
-3.17395e-11
2.15047e-10
9.46035e-11
-9.46347e-11
-7.94401e-11
2.68936e-11
2.61503e-11
)
;

boundaryField
{
    sides
    {
        type            calculated;
        value           nonuniform List<scalar> 
40
(
1.19814e-09
-2.07958e-10
-1.08272e-09
7.26165e-10
3.48738e-09
-2.16454e-08
8.35402e-09
-1.51304e-09
5.93788e-09
5.62289e-10
-1.66044e-09
-1.43577e-09
-6.58155e-10
-3.17395e-11
2.15047e-10
9.46035e-11
-9.46347e-11
-7.94401e-11
2.68936e-11
2.61503e-11
4.39249e-10
-1.33549e-09
-1.00243e-09
1.2042e-09
3.91905e-09
-8.21678e-09
-6.02283e-09
-2.73451e-08
1.73219e-09
7.308e-10
-2.03944e-09
-1.57537e-09
-4.23292e-10
3.20666e-10
6.24732e-10
5.81487e-10
3.24425e-10
2.38386e-11
-1.87693e-10
-1.39034e-10
)
;
    }
    inlet
    {
        type            calculated;
        value           nonuniform List<scalar> 
20
(
4.39249e-10
-2.70811e-10
-5.72276e-10
-4.81273e-10
-3.6382e-10
-1.66288e-10
-9.18985e-11
-1.54802e-10
-6.12013e-11
2.3311e-10
1.67763e-10
-2.0494e-10
-2.13429e-10
2.67698e-10
5.56888e-10
4.84829e-10
-1.72953e-10
-7.2864e-10
1.38346e-10
1.19814e-09
)
;
    }
    outlet
    {
        type            calculated;
        value           uniform 0;
    }
    frontAndBack
    {
        type            empty;
    }
}


// ************************************************************************* //
