/*--------------------------------*- C++ -*----------------------------------*\
  =========                 |
  \\      /  F ield         | OpenFOAM: The Open Source CFD Toolbox
   \\    /   O peration     | Website:  https://openfoam.org
    \\  /    A nd           | Version:  7
     \\/     M anipulation  |
\*---------------------------------------------------------------------------*/
FoamFile
{
    version     2.0;
    format      ascii;
    class       volVectorField;
    location    "78";
    object      hU_0;
}
// * * * * * * * * * * * * * * * * * * * * * * * * * * * * * * * * * * * * * //

dimensions      [0 2 -1 0 0 0 0];

internalField   nonuniform List<vector> 
400
(
(0.001 -8.73737e-09 0)
(0.000999999 -2.37511e-08 0)
(0.001 -3.59933e-08 0)
(0.001 -4.67374e-08 0)
(0.00100001 -5.68987e-08 0)
(0.00100001 -6.72377e-08 0)
(0.00100002 -7.8113e-08 0)
(0.00100003 -8.91901e-08 0)
(0.00100004 -9.99504e-08 0)
(0.00100006 -1.11916e-07 0)
(0.00100007 -1.22636e-07 0)
(0.0010001 -1.36165e-07 0)
(0.00100011 -1.4656e-07 0)
(0.00100015 -1.63385e-07 0)
(0.00100017 -1.722e-07 0)
(0.00100024 -1.96306e-07 0)
(0.00100026 -2.00774e-07 0)
(0.00100038 -2.42997e-07 0)
(0.00100038 -2.39103e-07 0)
(0.00100061 -3.31809e-07 0)
(0.001 3.97407e-09 0)
(0.001 1.21185e-08 0)
(0.00100001 2.02286e-08 0)
(0.00100001 2.78968e-08 0)
(0.00100002 3.51159e-08 0)
(0.00100002 4.17335e-08 0)
(0.00100003 4.7628e-08 0)
(0.00100004 5.30512e-08 0)
(0.00100005 5.83409e-08 0)
(0.00100007 6.22822e-08 0)
(0.00100008 6.69947e-08 0)
(0.0010001 6.86033e-08 0)
(0.00100012 7.26799e-08 0)
(0.00100016 6.98412e-08 0)
(0.00100018 7.39864e-08 0)
(0.00100023 6.16419e-08 0)
(0.00100026 6.71555e-08 0)
(0.00100035 3.17744e-08 0)
(0.00100037 3.98966e-08 0)
(0.0010005 -5.45472e-08 0)
(0.001 -3.97964e-09 0)
(0.000999999 -1.30407e-08 0)
(0.001 -2.30733e-08 0)
(0.001 -3.36555e-08 0)
(0.00100001 -4.41633e-08 0)
(0.00100001 -5.50031e-08 0)
(0.00100002 -6.55125e-08 0)
(0.00100003 -7.72309e-08 0)
(0.00100004 -8.88206e-08 0)
(0.00100005 -1.02499e-07 0)
(0.00100006 -1.15279e-07 0)
(0.00100009 -1.32472e-07 0)
(0.0010001 -1.46594e-07 0)
(0.00100014 -1.70108e-07 0)
(0.00100016 -1.85194e-07 0)
(0.00100021 -2.21158e-07 0)
(0.00100023 -2.35642e-07 0)
(0.00100031 -2.97517e-07 0)
(0.00100033 -3.06084e-07 0)
(0.00100046 -4.22083e-07 0)
(0.001 -1.67275e-10 0)
(0.001 -8.22531e-11 0)
(0.00100001 5.90405e-10 0)
(0.00100001 1.33007e-09 0)
(0.00100001 2.04907e-09 0)
(0.00100002 1.95885e-09 0)
(0.00100003 1.67201e-09 0)
(0.00100004 -2.566e-10 0)
(0.00100004 -2.2695e-09 0)
(0.00100006 -6.99462e-09 0)
(0.00100007 -1.12424e-08 0)
(0.00100009 -2.05625e-08 0)
(0.00100011 -2.72932e-08 0)
(0.00100013 -4.43817e-08 0)
(0.00100016 -5.36212e-08 0)
(0.00100019 -8.4998e-08 0)
(0.00100022 -9.54299e-08 0)
(0.00100028 -1.54592e-07 0)
(0.0010003 -1.60812e-07 0)
(0.00100039 -2.75742e-07 0)
(0.001 -2.91609e-09 0)
(0.001 -9.272e-09 0)
(0.001 -1.63375e-08 0)
(0.001 -2.43764e-08 0)
(0.00100001 -3.30254e-08 0)
(0.00100001 -4.26938e-08 0)
(0.00100002 -5.27688e-08 0)
(0.00100002 -6.44502e-08 0)
(0.00100003 -7.63602e-08 0)
(0.00100004 -9.11997e-08 0)
(0.00100005 -1.05662e-07 0)
(0.00100007 -1.255e-07 0)
(0.00100009 -1.42869e-07 0)
(0.00100011 -1.71056e-07 0)
(0.00100013 -1.91313e-07 0)
(0.00100016 -2.34352e-07 0)
(0.00100018 -2.55728e-07 0)
(0.00100024 -3.26476e-07 0)
(0.00100025 -3.41382e-07 0)
(0.00100033 -4.64278e-07 0)
(0.001 -2.58039e-09 0)
(0.001 -7.57738e-09 0)
(0.001 -1.22539e-08 0)
(0.00100001 -1.69421e-08 0)
(0.00100001 -2.16608e-08 0)
(0.00100001 -2.71189e-08 0)
(0.00100002 -3.30408e-08 0)
(0.00100002 -4.0661e-08 0)
(0.00100003 -4.87942e-08 0)
(0.00100004 -6.01206e-08 0)
(0.00100005 -7.13512e-08 0)
(0.00100006 -8.83753e-08 0)
(0.00100008 -1.0337e-07 0)
(0.0010001 -1.29619e-07 0)
(0.00100011 -1.48445e-07 0)
(0.00100014 -1.90304e-07 0)
(0.00100016 -2.10919e-07 0)
(0.0010002 -2.80402e-07 0)
(0.00100021 -2.94336e-07 0)
(0.00100027 -4.14833e-07 0)
(0.001 -2.9159e-09 0)
(0.001 -8.92009e-09 0)
(0.001 -1.52285e-08 0)
(0.001 -2.22398e-08 0)
(0.00100001 -2.99228e-08 0)
(0.00100001 -3.88509e-08 0)
(0.00100001 -4.85964e-08 0)
(0.00100002 -6.03285e-08 0)
(0.00100002 -7.28036e-08 0)
(0.00100003 -8.86406e-08 0)
(0.00100004 -1.04547e-07 0)
(0.00100005 -1.265e-07 0)
(0.00100006 -1.46496e-07 0)
(0.00100007 -1.78001e-07 0)
(0.00100009 -2.01945e-07 0)
(0.00100011 -2.49251e-07 0)
(0.00100012 -2.74655e-07 0)
(0.00100015 -3.49459e-07 0)
(0.00100016 -3.67036e-07 0)
(0.00100021 -4.92027e-07 0)
(0.001 -3.21533e-09 0)
(0.001 -9.8042e-09 0)
(0.001 -1.66075e-08 0)
(0.001 -2.39644e-08 0)
(0.001 -3.17408e-08 0)
(0.00100001 -4.05654e-08 0)
(0.00100001 -4.99937e-08 0)
(0.00100001 -6.13332e-08 0)
(0.00100002 -7.33668e-08 0)
(0.00100002 -8.8783e-08 0)
(0.00100003 -1.04396e-07 0)
(0.00100004 -1.26137e-07 0)
(0.00100004 -1.46099e-07 0)
(0.00100005 -1.77629e-07 0)
(0.00100006 -2.0186e-07 0)
(0.00100008 -2.4931e-07 0)
(0.00100009 -2.75169e-07 0)
(0.00100011 -3.49693e-07 0)
(0.00100012 -3.67384e-07 0)
(0.00100015 -4.90644e-07 0)
(0.001 -3.39114e-09 0)
(0.001 -1.03069e-08 0)
(0.001 -1.73859e-08 0)
(0.001 -2.50227e-08 0)
(0.001 -3.31019e-08 0)
(0.001 -4.23448e-08 0)
(0.00100001 -5.23271e-08 0)
(0.00100001 -6.44242e-08 0)
(0.00100001 -7.73657e-08 0)
(0.00100001 -9.39076e-08 0)
(0.00100002 -1.10804e-07 0)
(0.00100002 -1.34016e-07 0)
(0.00100003 -1.55544e-07 0)
(0.00100003 -1.88878e-07 0)
(0.00100004 -2.14837e-07 0)
(0.00100005 -2.64273e-07 0)
(0.00100005 -2.91708e-07 0)
(0.00100007 -3.68224e-07 0)
(0.00100007 -3.8693e-07 0)
(0.00100009 -5.12278e-07 0)
(0.001 -3.4758e-09 0)
(0.001 -1.05465e-08 0)
(0.001 -1.77793e-08 0)
(0.001 -2.55883e-08 0)
(0.001 -3.38904e-08 0)
(0.001 -4.34013e-08 0)
(0.001 -5.37139e-08 0)
(0.001 -6.61769e-08 0)
(0.001 -7.95161e-08 0)
(0.001 -9.64645e-08 0)
(0.00100001 -1.13771e-07 0)
(0.00100001 -1.37365e-07 0)
(0.00100001 -1.59304e-07 0)
(0.00100001 -1.92995e-07 0)
(0.00100001 -2.19362e-07 0)
(0.00100002 -2.69065e-07 0)
(0.00100002 -2.96891e-07 0)
(0.00100002 -3.73468e-07 0)
(0.00100002 -3.92471e-07 0)
(0.00100003 -5.17255e-07 0)
(0.001 -3.48079e-09 0)
(0.001 -1.05427e-08 0)
(0.001 -1.77832e-08 0)
(0.000999999 -2.55875e-08 0)
(0.000999999 -3.38945e-08 0)
(0.000999999 -4.33982e-08 0)
(0.000999998 -5.37177e-08 0)
(0.000999997 -6.61703e-08 0)
(0.000999996 -7.95194e-08 0)
(0.000999995 -9.64717e-08 0)
(0.000999994 -1.13775e-07 0)
(0.000999993 -1.3738e-07 0)
(0.000999991 -1.59318e-07 0)
(0.000999989 -1.92995e-07 0)
(0.000999987 -2.19357e-07 0)
(0.000999984 -2.69054e-07 0)
(0.000999982 -2.96876e-07 0)
(0.000999978 -3.73455e-07 0)
(0.000999977 -3.92465e-07 0)
(0.00099997 -5.17251e-07 0)
(0.001 -3.39822e-09 0)
(0.001 -1.03047e-08 0)
(0.000999999 -1.73969e-08 0)
(0.000999998 -2.50178e-08 0)
(0.000999997 -3.31113e-08 0)
(0.000999996 -4.23357e-08 0)
(0.000999994 -5.23327e-08 0)
(0.000999992 -6.44078e-08 0)
(0.000999989 -7.73629e-08 0)
(0.000999986 -9.3922e-08 0)
(0.000999983 -1.10813e-07 0)
(0.000999978 -1.34036e-07 0)
(0.000999973 -1.55568e-07 0)
(0.000999967 -1.88881e-07 0)
(0.000999961 -2.14825e-07 0)
(0.000999952 -2.64233e-07 0)
(0.000999946 -2.9166e-07 0)
(0.000999934 -3.68173e-07 0)
(0.00099993 -3.86898e-07 0)
(0.000999911 -5.12223e-07 0)
(0.001 -3.21483e-09 0)
(0.001 -9.81245e-09 0)
(0.000999999 -1.66126e-08 0)
(0.000999997 -2.39612e-08 0)
(0.000999996 -3.17482e-08 0)
(0.000999993 -4.05574e-08 0)
(0.000999991 -4.99897e-08 0)
(0.000999987 -6.132e-08 0)
(0.000999983 -7.33405e-08 0)
(0.000999977 -8.87867e-08 0)
(0.000999971 -1.04413e-07 0)
(0.000999964 -1.26149e-07 0)
(0.000999956 -1.46118e-07 0)
(0.000999945 -1.77652e-07 0)
(0.000999936 -2.01876e-07 0)
(0.000999921 -2.49296e-07 0)
(0.000999911 -2.7515e-07 0)
(0.000999889 -3.49678e-07 0)
(0.000999882 -3.67387e-07 0)
(0.000999852 -4.90634e-07 0)
(0.001 -2.91144e-09 0)
(0.000999999 -8.92641e-09 0)
(0.000999998 -1.52179e-08 0)
(0.000999996 -2.22468e-08 0)
(0.000999994 -2.99137e-08 0)
(0.000999991 -3.88571e-08 0)
(0.000999987 -4.85777e-08 0)
(0.000999982 -6.03306e-08 0)
(0.000999977 -7.27608e-08 0)
(0.000999969 -8.85944e-08 0)
(0.000999962 -1.04534e-07 0)
(0.000999951 -1.26478e-07 0)
(0.000999941 -1.46475e-07 0)
(0.000999925 -1.77985e-07 0)
(0.000999913 -2.01936e-07 0)
(0.000999891 -2.4921e-07 0)
(0.000999878 -2.74613e-07 0)
(0.000999847 -3.49375e-07 0)
(0.000999839 -3.66961e-07 0)
(0.000999792 -4.91888e-07 0)
(0.001 -2.57983e-09 0)
(0.000999999 -7.57326e-09 0)
(0.000999997 -1.22408e-08 0)
(0.000999995 -1.69514e-08 0)
(0.000999991 -2.16499e-08 0)
(0.000999987 -2.71559e-08 0)
(0.000999982 -3.30339e-08 0)
(0.000999975 -4.06951e-08 0)
(0.000999968 -4.88119e-08 0)
(0.000999959 -6.00829e-08 0)
(0.000999949 -7.13263e-08 0)
(0.000999935 -8.83626e-08 0)
(0.000999922 -1.03365e-07 0)
(0.000999903 -1.29622e-07 0)
(0.000999886 -1.48468e-07 0)
(0.000999859 -1.90331e-07 0)
(0.000999841 -2.10952e-07 0)
(0.000999802 -2.80405e-07 0)
(0.000999787 -2.94338e-07 0)
(0.000999731 -4.14816e-07 0)
(0.001 -2.92297e-09 0)
(0.001 -9.26094e-09 0)
(0.000999999 -1.63324e-08 0)
(0.000999997 -2.4369e-08 0)
(0.000999994 -3.30241e-08 0)
(0.00099999 -4.26982e-08 0)
(0.000999984 -5.27689e-08 0)
(0.000999977 -6.44454e-08 0)
(0.000999969 -7.6423e-08 0)
(0.000999958 -9.12029e-08 0)
(0.000999946 -1.05622e-07 0)
(0.00099993 -1.25452e-07 0)
(0.000999915 -1.4283e-07 0)
(0.000999891 -1.71007e-07 0)
(0.000999872 -1.9129e-07 0)
(0.000999837 -2.34319e-07 0)
(0.000999817 -2.55718e-07 0)
(0.000999764 -3.26397e-07 0)
(0.000999752 -3.41315e-07 0)
(0.00099967 -4.64116e-07 0)
(0.001 -1.79187e-10 0)
(0.000999998 -7.30289e-11 0)
(0.000999995 5.79412e-10 0)
(0.00099999 1.31763e-09 0)
(0.000999986 2.02087e-09 0)
(0.00099998 2.02307e-09 0)
(0.000999973 1.59322e-09 0)
(0.000999965 -2.18138e-10 0)
(0.000999955 -2.35644e-09 0)
(0.000999943 -7.07877e-09 0)
(0.00099993 -1.12553e-08 0)
(0.000999912 -2.05401e-08 0)
(0.000999894 -2.72716e-08 0)
(0.000999867 -4.43539e-08 0)
(0.000999845 -5.36077e-08 0)
(0.000999805 -8.49814e-08 0)
(0.000999779 -9.54318e-08 0)
(0.00099972 -1.54564e-07 0)
(0.000999699 -1.60788e-07 0)
(0.000999611 -2.75682e-07 0)
(0.001 -3.97458e-09 0)
(0.001 -1.30404e-08 0)
(0.001 -2.30779e-08 0)
(0.000999998 -3.36692e-08 0)
(0.000999995 -4.41989e-08 0)
(0.000999989 -5.48768e-08 0)
(0.000999983 -6.56927e-08 0)
(0.000999973 -7.72628e-08 0)
(0.000999963 -8.8814e-08 0)
(0.00099995 -1.0253e-07 0)
(0.000999936 -1.1531e-07 0)
(0.000999915 -1.32486e-07 0)
(0.000999896 -1.46613e-07 0)
(0.000999864 -1.70103e-07 0)
(0.000999841 -1.85195e-07 0)
(0.000999791 -2.21129e-07 0)
(0.000999767 -2.35652e-07 0)
(0.000999687 -2.97483e-07 0)
(0.000999672 -3.06092e-07 0)
(0.000999539 -4.22008e-07 0)
(0.001 3.99828e-09 0)
(0.000999996 1.20882e-08 0)
(0.000999991 2.02041e-08 0)
(0.000999987 2.79349e-08 0)
(0.000999982 3.51741e-08 0)
(0.000999976 4.15544e-08 0)
(0.000999969 4.78873e-08 0)
(0.000999959 5.30462e-08 0)
(0.000999948 5.85207e-08 0)
(0.000999934 6.23461e-08 0)
(0.000999919 6.69277e-08 0)
(0.000999897 6.85266e-08 0)
(0.000999878 7.26333e-08 0)
(0.000999845 6.98499e-08 0)
(0.000999819 7.40126e-08 0)
(0.000999767 6.17047e-08 0)
(0.000999738 6.7196e-08 0)
(0.000999654 3.18533e-08 0)
(0.000999629 3.9947e-08 0)
(0.000999496 -5.44248e-08 0)
(0.001 -8.723e-09 0)
(0.001 -2.3776e-08 0)
(0.001 -3.6021e-08 0)
(0.000999997 -4.67052e-08 0)
(0.000999993 -5.68335e-08 0)
(0.000999986 -6.75026e-08 0)
(0.000999979 -7.77606e-08 0)
(0.000999968 -8.91601e-08 0)
(0.000999958 -9.98476e-08 0)
(0.000999942 -1.11909e-07 0)
(0.000999928 -1.22734e-07 0)
(0.000999903 -1.36271e-07 0)
(0.000999886 -1.4664e-07 0)
(0.000999846 -1.63437e-07 0)
(0.000999826 -1.72247e-07 0)
(0.00099976 -1.96351e-07 0)
(0.000999742 -2.00831e-07 0)
(0.000999623 -2.43065e-07 0)
(0.000999618 -2.39181e-07 0)
(0.000999394 -3.31939e-07 0)
)
;

boundaryField
{
    sides
    {
        type            slip;
    }
    inlet
    {
        type            fixedValue;
        value           uniform (0.001 0 0);
    }
    outlet
    {
        type            zeroGradient;
    }
    frontAndBack
    {
        type            empty;
    }
}


// ************************************************************************* //
