/*--------------------------------*- C++ -*----------------------------------*\
  =========                 |
  \\      /  F ield         | OpenFOAM: The Open Source CFD Toolbox
   \\    /   O peration     | Website:  https://openfoam.org
    \\  /    A nd           | Version:  7
     \\/     M anipulation  |
\*---------------------------------------------------------------------------*/
FoamFile
{
    version     2.0;
    format      ascii;
    class       surfaceScalarField;
    location    "78";
    object      phi;
}
// * * * * * * * * * * * * * * * * * * * * * * * * * * * * * * * * * * * * * //

dimensions      [0 4 -1 0 0 0 0];

internalField   nonuniform List<scalar> 
760
(
4.99999e-06
1.00537e-11
4.99999e-06
-4.31531e-12
5.00001e-06
-1.3023e-11
5.00003e-06
-1.963e-11
5.00005e-06
-2.62792e-11
5.00009e-06
-3.43519e-11
5.00013e-06
-4.76112e-11
5.00018e-06
-5.83679e-11
5.00025e-06
-6.29686e-11
5.00032e-06
-7.83405e-11
5.00041e-06
-9.02447e-11
5.00053e-06
-1.14022e-10
5.00066e-06
-1.26907e-10
5.00082e-06
-1.67875e-10
5.001e-06
-1.78164e-10
5.00126e-06
-2.56976e-10
5.00151e-06
-2.562e-10
5.00195e-06
-4.31682e-10
5.00236e-06
-4.13925e-10
-8.91431e-10
5.00002e-06
-1.17607e-11
5.00004e-06
-1.89828e-11
5.00005e-06
-2.93851e-11
5.00008e-06
-4.19001e-11
5.0001e-06
-5.44212e-11
5.00014e-06
-6.86528e-11
5.00018e-06
-8.47573e-11
5.00023e-06
-1.04299e-10
5.00029e-06
-1.23459e-10
5.00037e-06
-1.53251e-10
5.00045e-06
-1.7713e-10
5.00056e-06
-2.22182e-10
5.00069e-06
-2.50499e-10
5.00084e-06
-3.24366e-10
5.00102e-06
-3.54174e-10
5.00125e-06
-4.86315e-10
5.0015e-06
-5.09229e-10
5.00184e-06
-7.67788e-10
5.00218e-06
-7.59534e-10
-1.26171e-09
4.99999e-06
-4.7291e-12
4.99999e-06
-2.04281e-11
5e-06
-3.76543e-11
5.00002e-06
-5.66464e-11
5.00004e-06
-7.64883e-11
5.00007e-06
-9.8888e-11
5.00011e-06
-1.22521e-10
5.00016e-06
-1.51589e-10
5.00021e-06
-1.82333e-10
5.00029e-06
-2.23669e-10
5.00037e-06
-2.62315e-10
5.00047e-06
-3.23492e-10
5.00059e-06
-3.72321e-10
5.00074e-06
-4.67952e-10
5.00091e-06
-5.26124e-10
5.00111e-06
-6.86989e-10
5.00135e-06
-7.47834e-10
5.00162e-06
-1.04093e-09
5.00194e-06
-1.08261e-09
-1.68908e-09
5.00001e-06
-1.27364e-11
5.00002e-06
-3.34842e-11
5.00004e-06
-5.44298e-11
5.00006e-06
-7.75707e-11
5.00008e-06
-1.01753e-10
5.00012e-06
-1.30326e-10
5.00015e-06
-1.59605e-10
5.0002e-06
-1.97503e-10
5.00025e-06
-2.35871e-10
5.00032e-06
-2.88486e-10
5.00039e-06
-3.38417e-10
5.00048e-06
-4.15664e-10
5.00059e-06
-4.78946e-10
5.00072e-06
-5.97035e-10
5.00087e-06
-6.73253e-10
5.00105e-06
-8.65286e-10
5.00124e-06
-9.46723e-10
5.00148e-06
-1.27969e-09
5.00173e-06
-1.3307e-09
-1.89744e-09
5e-06
-1.17192e-11
5e-06
-3.66406e-11
5.00001e-06
-6.21739e-11
5.00002e-06
-9.01305e-11
5.00004e-06
-1.19749e-10
5.00006e-06
-1.54232e-10
5.0001e-06
-1.90819e-10
5.00013e-06
-2.35968e-10
5.00018e-06
-2.83061e-10
5.00024e-06
-3.45225e-10
5.00031e-06
-4.06913e-10
5.00039e-06
-4.96093e-10
5.00048e-06
-5.74827e-10
5.00059e-06
-7.07878e-10
5.00072e-06
-8.03932e-10
5.00087e-06
-1.01272e-09
5.00104e-06
-1.11625e-09
5.00122e-06
-1.46124e-09
5.00142e-06
-1.53199e-09
-2.16216e-09
5e-06
-1.39656e-11
5.00001e-06
-4.33589e-11
5.00002e-06
-7.3103e-11
5.00003e-06
-1.05035e-10
5.00005e-06
-1.38766e-10
5.00008e-06
-1.77525e-10
5.00011e-06
-2.1928e-10
5.00014e-06
-2.703e-10
5.00018e-06
-3.24025e-10
5.00023e-06
-3.9443e-10
5.00029e-06
-4.64524e-10
5.00036e-06
-5.64389e-10
5.00043e-06
-6.53816e-10
5.00053e-06
-8.00672e-10
5.00063e-06
-9.09115e-10
5.00075e-06
-1.13458e-09
5.00089e-06
-1.25082e-09
5.00104e-06
-1.61546e-09
5.00121e-06
-1.69625e-09
-2.29274e-09
5e-06
-1.57692e-11
5.00001e-06
-4.77973e-11
5.00001e-06
-8.04282e-11
5.00002e-06
-1.15054e-10
5.00004e-06
-1.52066e-10
5.00005e-06
-1.94573e-10
5.00008e-06
-2.40697e-10
5.0001e-06
-2.96532e-10
5.00013e-06
-3.56053e-10
5.00017e-06
-4.3261e-10
5.00022e-06
-5.09925e-10
5.00027e-06
-6.17673e-10
5.00033e-06
-7.16401e-10
5.00041e-06
-8.72706e-10
5.00049e-06
-9.92215e-10
5.00058e-06
-1.22791e-09
5.00069e-06
-1.35527e-09
5.0008e-06
-1.72614e-09
5.00091e-06
-1.81112e-09
-2.44127e-09
5e-06
-1.68619e-11
5e-06
-5.08474e-11
5.00001e-06
-8.54378e-11
5.00002e-06
-1.2261e-10
5.00003e-06
-1.62168e-10
5.00004e-06
-2.07627e-10
5.00006e-06
-2.56866e-10
5.00008e-06
-3.16337e-10
5.0001e-06
-3.79876e-10
5.00013e-06
-4.60924e-10
5.00016e-06
-5.43344e-10
5.0002e-06
-6.56951e-10
5.00025e-06
-7.61782e-10
5.0003e-06
-9.25081e-10
5.00036e-06
-1.05148e-09
5.00042e-06
-1.29468e-09
5.0005e-06
-1.42833e-09
5.00058e-06
-1.80685e-09
5.00067e-06
-1.8993e-09
-2.51529e-09
5e-06
-1.74558e-11
5e-06
-5.27398e-11
5.00001e-06
-8.8571e-11
5.00001e-06
-1.2733e-10
5.00002e-06
-1.68492e-10
5.00002e-06
-2.15678e-10
5.00003e-06
-2.6672e-10
5.00005e-06
-3.28323e-10
5.00006e-06
-3.94214e-10
5.00008e-06
-4.77962e-10
5.0001e-06
-5.6349e-10
5.00012e-06
-6.80488e-10
5.00015e-06
-7.88997e-10
5.00018e-06
-9.56369e-10
5.00022e-06
-1.08698e-09
5.00026e-06
-1.33442e-09
5.0003e-06
-1.47207e-09
5.00035e-06
-1.85395e-09
5.00039e-06
-1.94666e-09
-2.57124e-09
5e-06
-1.76504e-11
5e-06
-5.33385e-11
5e-06
-8.96814e-11
5e-06
-1.28937e-10
5.00001e-06
-1.70683e-10
5.00001e-06
-2.18394e-10
5.00001e-06
-2.70054e-10
5.00002e-06
-3.32324e-10
5.00002e-06
-3.98991e-10
5.00003e-06
-4.83684e-10
5.00003e-06
-5.70225e-10
5.00004e-06
-6.88362e-10
5.00005e-06
-7.98224e-10
5.00006e-06
-9.6691e-10
5.00007e-06
-1.09892e-09
5.00009e-06
-1.34761e-09
5.0001e-06
-1.48657e-09
5.00012e-06
-1.86919e-09
5.00013e-06
-1.96373e-09
-2.58747e-09
5e-06
-1.74466e-11
5e-06
-5.26613e-11
5e-06
-8.86251e-11
5e-06
-1.27336e-10
4.99999e-06
-1.68605e-10
4.99999e-06
-2.15711e-10
4.99999e-06
-2.66785e-10
4.99998e-06
-3.2833e-10
4.99998e-06
-3.94181e-10
4.99997e-06
-4.78042e-10
4.99997e-06
-5.63504e-10
4.99996e-06
-6.80524e-10
4.99995e-06
-7.89201e-10
4.99994e-06
-9.56553e-10
4.99993e-06
-1.08702e-09
4.99991e-06
-1.33433e-09
4.9999e-06
-1.47197e-09
4.99988e-06
-1.85381e-09
4.99987e-06
-1.94654e-09
-2.57108e-09
5e-06
-1.68274e-11
5e-06
-5.08655e-11
4.99999e-06
-8.54485e-11
4.99999e-06
-1.22598e-10
4.99998e-06
-1.62228e-10
4.99998e-06
-2.07652e-10
4.99997e-06
-2.56871e-10
4.99995e-06
-3.16327e-10
4.99994e-06
-3.7975e-10
4.99992e-06
-4.60921e-10
4.9999e-06
-5.43375e-10
4.99988e-06
-6.56951e-10
4.99985e-06
-7.61903e-10
4.99982e-06
-9.25265e-10
4.99978e-06
-1.05159e-09
4.99974e-06
-1.29459e-09
4.9997e-06
-1.42816e-09
4.99965e-06
-1.80661e-09
4.99961e-06
-1.89912e-09
-2.51506e-09
5e-06
-1.57838e-11
5e-06
-4.78591e-11
4.99999e-06
-8.03471e-11
4.99998e-06
-1.15088e-10
4.99997e-06
-1.5197e-10
4.99996e-06
-1.94601e-10
4.99994e-06
-2.40579e-10
4.99992e-06
-2.96504e-10
4.9999e-06
-3.55894e-10
4.99987e-06
-4.32375e-10
4.99984e-06
-5.09861e-10
4.9998e-06
-6.17625e-10
4.99975e-06
-7.16348e-10
4.9997e-06
-8.72723e-10
4.99964e-06
-9.923e-10
4.99958e-06
-1.22783e-09
4.9995e-06
-1.35516e-09
4.99942e-06
-1.72593e-09
4.99933e-06
-1.81097e-09
-2.44092e-09
5e-06
-1.40088e-11
4.99999e-06
-4.3359e-11
4.99999e-06
-7.30754e-11
4.99998e-06
-1.05032e-10
4.99996e-06
-1.38648e-10
4.99995e-06
-1.77617e-10
4.99992e-06
-2.19219e-10
4.9999e-06
-2.70311e-10
4.99987e-06
-3.24137e-10
4.99983e-06
-3.94221e-10
4.99978e-06
-4.643e-10
4.99973e-06
-5.64218e-10
4.99967e-06
-6.53639e-10
4.99959e-06
-8.00517e-10
4.99951e-06
-9.09091e-10
4.99942e-06
-1.13453e-09
4.99931e-06
-1.25079e-09
4.9992e-06
-1.61528e-09
4.99909e-06
-1.69609e-09
-2.29234e-09
5e-06
-1.17459e-11
4.99999e-06
-3.65872e-11
4.99998e-06
-6.22014e-11
4.99997e-06
-9.00949e-11
4.99995e-06
-1.19888e-10
4.99992e-06
-1.54161e-10
4.99989e-06
-1.90926e-10
4.99986e-06
-2.35896e-10
4.99982e-06
-2.83385e-10
4.99977e-06
-3.45447e-10
4.99971e-06
-4.0686e-10
4.99964e-06
-4.95926e-10
4.99957e-06
-5.74643e-10
4.99947e-06
-7.07644e-10
4.99937e-06
-8.03835e-10
4.99925e-06
-1.01267e-09
4.99911e-06
-1.1163e-09
4.99896e-06
-1.46106e-09
4.99879e-06
-1.53186e-09
-2.16173e-09
5e-06
-1.27204e-11
5e-06
-3.34461e-11
4.99999e-06
-5.45149e-11
4.99998e-06
-7.7613e-11
4.99996e-06
-1.01904e-10
4.99994e-06
-1.29885e-10
4.9999e-06
-1.60061e-10
4.99987e-06
-1.97326e-10
4.99982e-06
-2.35953e-10
4.99976e-06
-2.88893e-10
4.99969e-06
-3.38661e-10
4.99961e-06
-4.15662e-10
4.99952e-06
-4.78849e-10
4.99941e-06
-5.96796e-10
4.99928e-06
-6.73089e-10
4.99913e-06
-8.65134e-10
4.99896e-06
-9.46711e-10
4.99878e-06
-1.27945e-09
4.99858e-06
-1.33051e-09
-1.89693e-09
4.99999e-06
-4.67757e-12
4.99998e-06
-2.04573e-11
4.99996e-06
-3.77439e-11
4.99994e-06
-5.67241e-11
4.99992e-06
-7.63411e-11
4.99988e-06
-9.88248e-11
4.99985e-06
-1.22795e-10
4.9998e-06
-1.5211e-10
4.99975e-06
-1.82069e-10
4.99968e-06
-2.23832e-10
4.99961e-06
-2.62651e-10
4.99952e-06
-3.23705e-10
4.99941e-06
-3.72442e-10
4.99928e-06
-4.67892e-10
4.99913e-06
-5.26053e-10
4.99895e-06
-6.86825e-10
4.99876e-06
-7.47814e-10
4.99852e-06
-1.04073e-09
4.99827e-06
-1.08252e-09
-1.6887e-09
5.00001e-06
-1.1751e-11
5.00001e-06
-1.9085e-11
5e-06
-2.93318e-11
4.99998e-06
-4.18182e-11
4.99996e-06
-5.40595e-11
4.99993e-06
-6.94593e-11
4.99989e-06
-8.32763e-11
4.99984e-06
-1.05034e-10
4.99978e-06
-1.23261e-10
4.99971e-06
-1.52909e-10
4.99963e-06
-1.77126e-10
4.99953e-06
-2.22314e-10
4.99941e-06
-2.50715e-10
4.99926e-06
-3.24436e-10
4.99909e-06
-3.54197e-10
4.99889e-06
-4.86106e-10
4.99865e-06
-5.09159e-10
4.99838e-06
-7.67508e-10
4.99806e-06
-7.59427e-10
-1.26123e-09
4.99998e-06
1.00164e-11
4.99996e-06
-4.43087e-12
4.99995e-06
-1.2827e-11
4.99992e-06
-1.94005e-11
4.9999e-06
-2.67999e-11
4.99986e-06
-2.99685e-11
4.99982e-06
-3.3729e-11
4.99977e-06
-4.82583e-11
4.99971e-06
-6.24804e-11
4.99963e-06
-7.7872e-11
4.99955e-06
-9.00487e-11
4.99944e-06
-1.1415e-10
4.99932e-06
-1.27222e-10
4.99916e-06
-1.68133e-10
4.99898e-06
-1.78327e-10
4.99875e-06
-2.56969e-10
4.9985e-06
-2.56229e-10
4.99817e-06
-4.31652e-10
4.99782e-06
-4.13986e-10
-8.91433e-10
5.00001e-06
5.00001e-06
4.99999e-06
4.99997e-06
4.99995e-06
4.99991e-06
4.99987e-06
4.99982e-06
4.99975e-06
4.99968e-06
4.99959e-06
4.99947e-06
4.99934e-06
4.99918e-06
4.999e-06
4.99874e-06
4.99848e-06
4.99805e-06
4.99764e-06
)
;

boundaryField
{
    sides
    {
        type            calculated;
        value           uniform 0;
    }
    inlet
    {
        type            calculated;
        value           nonuniform List<scalar> 
20
(
-5e-06
-5e-06
-5e-06
-5e-06
-5e-06
-5e-06
-5e-06
-5e-06
-5e-06
-5e-06
-5e-06
-5e-06
-5e-06
-5e-06
-5e-06
-5e-06
-5e-06
-5e-06
-5e-06
-5e-06
)
;
    }
    outlet
    {
        type            calculated;
        value           nonuniform List<scalar> 
20
(
5.00325e-06
5.00255e-06
5.00237e-06
5.00194e-06
5.00169e-06
5.00134e-06
5.00106e-06
5.00074e-06
5.00045e-06
5.00015e-06
4.99985e-06
4.99955e-06
4.99926e-06
4.99894e-06
4.99866e-06
4.99831e-06
4.99806e-06
4.99763e-06
4.99745e-06
4.99675e-06
)
;
    }
    frontAndBack
    {
        type            empty;
        value           nonuniform 0();
    }
}


// ************************************************************************* //
