/*--------------------------------*- C++ -*----------------------------------*\
  =========                 |
  \\      /  F ield         | OpenFOAM: The Open Source CFD Toolbox
   \\    /   O peration     | Website:  https://openfoam.org
    \\  /    A nd           | Version:  7
     \\/     M anipulation  |
\*---------------------------------------------------------------------------*/
FoamFile
{
    version     2.0;
    format      ascii;
    class       surfaceScalarField;
    location    "78";
    object      phi_0;
}
// * * * * * * * * * * * * * * * * * * * * * * * * * * * * * * * * * * * * * //

dimensions      [0 4 -1 0 0 0 0];

internalField   nonuniform List<scalar> 
760
(
4.99999e-06
9.98489e-12
4.99999e-06
-4.27103e-12
5.00001e-06
-1.28734e-11
5.00003e-06
-1.96739e-11
5.00005e-06
-2.65645e-11
5.00009e-06
-3.45683e-11
5.00013e-06
-3.81928e-11
5.00018e-06
-4.75882e-11
5.00025e-06
-6.2493e-11
5.00032e-06
-7.82412e-11
5.00041e-06
-9.00574e-11
5.00053e-06
-1.13921e-10
5.00066e-06
-1.26912e-10
5.00082e-06
-1.6792e-10
5.001e-06
-1.78193e-10
5.00126e-06
-2.56973e-10
5.00151e-06
-2.56185e-10
5.00195e-06
-4.31665e-10
5.00236e-06
-4.13905e-10
-8.91432e-10
5.00002e-06
-1.18184e-11
5.00004e-06
-1.89734e-11
5.00005e-06
-2.92507e-11
5.00008e-06
-4.18058e-11
5.0001e-06
-5.44132e-11
5.00014e-06
-6.89904e-11
5.00018e-06
-8.40735e-11
5.00023e-06
-1.03833e-10
5.00029e-06
-1.2364e-10
5.00037e-06
-1.53127e-10
5.00045e-06
-1.77011e-10
5.00056e-06
-2.2217e-10
5.00069e-06
-2.50541e-10
5.00084e-06
-3.24395e-10
5.00102e-06
-3.5417e-10
5.00125e-06
-4.8628e-10
5.0015e-06
-5.09188e-10
5.00184e-06
-7.6775e-10
5.00218e-06
-7.59497e-10
-1.26171e-09
4.99999e-06
-4.71933e-12
4.99999e-06
-2.04432e-11
5e-06
-3.76095e-11
5.00002e-06
-5.65912e-11
5.00004e-06
-7.63128e-11
5.00007e-06
-9.91399e-11
5.00011e-06
-1.22035e-10
5.00016e-06
-1.52105e-10
5.00021e-06
-1.82314e-10
5.00029e-06
-2.23538e-10
5.00037e-06
-2.62368e-10
5.00047e-06
-3.23599e-10
5.00059e-06
-3.72386e-10
5.00074e-06
-4.67942e-10
5.00091e-06
-5.26067e-10
5.00111e-06
-6.86907e-10
5.00135e-06
-7.47757e-10
5.00162e-06
-1.04086e-09
5.00194e-06
-1.08256e-09
-1.6891e-09
5.00001e-06
-1.27074e-11
5.00002e-06
-3.34912e-11
5.00004e-06
-5.44257e-11
5.00006e-06
-7.75482e-11
5.00008e-06
-1.01617e-10
5.00012e-06
-1.30189e-10
5.00015e-06
-1.59679e-10
5.0002e-06
-1.9757e-10
5.00025e-06
-2.35677e-10
5.00032e-06
-2.88546e-10
5.00039e-06
-3.38597e-10
5.00048e-06
-4.15772e-10
5.00059e-06
-4.7896e-10
5.00072e-06
-5.9697e-10
5.00087e-06
-6.73153e-10
5.00105e-06
-8.65173e-10
5.00124e-06
-9.46624e-10
5.00148e-06
-1.27961e-09
5.00173e-06
-1.33066e-09
-1.89748e-09
5e-06
-1.17023e-11
5e-06
-3.6619e-11
5.00001e-06
-6.21767e-11
5.00002e-06
-9.00676e-11
5.00004e-06
-1.19745e-10
5.00006e-06
-1.53974e-10
5.0001e-06
-1.90844e-10
5.00013e-06
-2.35819e-10
5.00018e-06
-2.83029e-10
5.00024e-06
-3.4541e-10
5.00031e-06
-4.07044e-10
5.00039e-06
-4.9611e-10
5.00048e-06
-5.74777e-10
5.00059e-06
-7.0778e-10
5.00072e-06
-8.03818e-10
5.00087e-06
-1.0126e-09
5.00104e-06
-1.11615e-09
5.00122e-06
-1.46118e-09
5.00142e-06
-1.53198e-09
-2.16222e-09
5e-06
-1.39723e-11
5.00001e-06
-4.33166e-11
5.00002e-06
-7.30831e-11
5.00003e-06
-1.04917e-10
5.00005e-06
-1.38708e-10
5.00008e-06
-1.77399e-10
5.00011e-06
-2.19237e-10
5.00014e-06
-2.70194e-10
5.00018e-06
-3.24143e-10
5.00023e-06
-3.94544e-10
5.00029e-06
-4.6452e-10
5.00036e-06
-5.64365e-10
5.00043e-06
-6.53761e-10
5.00053e-06
-8.00576e-10
5.00063e-06
-9.09014e-10
5.00075e-06
-1.13446e-09
5.00089e-06
-1.25072e-09
5.00104e-06
-1.61541e-09
5.00121e-06
-1.69625e-09
-2.2928e-09
5e-06
-1.57686e-11
5.00001e-06
-4.77378e-11
5.00001e-06
-8.03406e-11
5.00002e-06
-1.14982e-10
5.00004e-06
-1.51923e-10
5.00005e-06
-1.94509e-10
5.00008e-06
-2.40613e-10
5.0001e-06
-2.96495e-10
5.00013e-06
-3.56113e-10
5.00017e-06
-4.32581e-10
5.00022e-06
-5.09898e-10
5.00027e-06
-6.17693e-10
5.00033e-06
-7.16385e-10
5.00041e-06
-8.72645e-10
5.00049e-06
-9.92157e-10
5.00058e-06
-1.22782e-09
5.00069e-06
-1.35519e-09
5.0008e-06
-1.72608e-09
5.00091e-06
-1.81109e-09
-2.44133e-09
5e-06
-1.68223e-11
5e-06
-5.08062e-11
5.00001e-06
-8.5331e-11
5.00002e-06
-1.22537e-10
5.00003e-06
-1.62057e-10
5.00004e-06
-2.07569e-10
5.00006e-06
-2.56781e-10
5.00008e-06
-3.16341e-10
5.0001e-06
-3.79864e-10
5.00013e-06
-4.60921e-10
5.00016e-06
-5.43383e-10
5.0002e-06
-6.56966e-10
5.00025e-06
-7.61786e-10
5.0003e-06
-9.25072e-10
5.00036e-06
-1.05145e-09
5.00042e-06
-1.29461e-09
5.0005e-06
-1.42826e-09
5.00058e-06
-1.80676e-09
5.00067e-06
-1.89922e-09
-2.51533e-09
5e-06
-1.74195e-11
5e-06
-5.26899e-11
5.00001e-06
-8.85046e-11
5.00001e-06
-1.2723e-10
5.00002e-06
-1.68395e-10
5.00002e-06
-2.15588e-10
5.00003e-06
-2.66635e-10
5.00005e-06
-3.28316e-10
5.00006e-06
-3.94179e-10
5.00008e-06
-4.78003e-10
5.0001e-06
-5.63533e-10
5.00012e-06
-6.80468e-10
5.00015e-06
-7.89024e-10
5.00018e-06
-9.56396e-10
5.00022e-06
-1.08693e-09
5.00026e-06
-1.33431e-09
5.0003e-06
-1.47198e-09
5.00035e-06
-1.85384e-09
5.00039e-06
-1.94655e-09
-2.57126e-09
5e-06
-1.76518e-11
5e-06
-5.33034e-11
5e-06
-8.96095e-11
5e-06
-1.2882e-10
5.00001e-06
-1.70546e-10
5.00001e-06
-2.18263e-10
5.00001e-06
-2.69949e-10
5.00002e-06
-3.32279e-10
5.00002e-06
-3.98977e-10
5.00003e-06
-4.83724e-10
5.00003e-06
-5.7028e-10
5.00004e-06
-6.88385e-10
5.00005e-06
-7.98223e-10
5.00006e-06
-9.6686e-10
5.00007e-06
-1.09882e-09
5.00009e-06
-1.34747e-09
5.0001e-06
-1.48644e-09
5.00012e-06
-1.86907e-09
5.00013e-06
-1.96363e-09
-2.5875e-09
5e-06
-1.74718e-11
5e-06
-5.26442e-11
5e-06
-8.85385e-11
5e-06
-1.27221e-10
4.99999e-06
-1.68437e-10
4.99999e-06
-2.1556e-10
4.99999e-06
-2.66677e-10
4.99998e-06
-3.28256e-10
4.99998e-06
-3.94215e-10
4.99997e-06
-4.78079e-10
4.99997e-06
-5.63577e-10
4.99996e-06
-6.80613e-10
4.99995e-06
-7.89163e-10
4.99994e-06
-9.56404e-10
4.99993e-06
-1.08688e-09
4.99991e-06
-1.33418e-09
4.9999e-06
-1.47183e-09
4.99988e-06
-1.85369e-09
4.99987e-06
-1.94648e-09
-2.57113e-09
5e-06
-1.68421e-11
5e-06
-5.08183e-11
4.99999e-06
-8.54024e-11
4.99999e-06
-1.22494e-10
4.99998e-06
-1.62108e-10
4.99998e-06
-2.0751e-10
4.99997e-06
-2.56797e-10
4.99995e-06
-3.16244e-10
4.99994e-06
-3.79802e-10
4.99992e-06
-4.60994e-10
4.9999e-06
-5.43441e-10
4.99988e-06
-6.57042e-10
4.99985e-06
-7.61904e-10
4.99982e-06
-9.25147e-10
4.99978e-06
-1.05145e-09
4.99974e-06
-1.29442e-09
4.9997e-06
-1.42802e-09
4.99965e-06
-1.80653e-09
4.99961e-06
-1.89911e-09
-2.51514e-09
5e-06
-1.57426e-11
5e-06
-4.7812e-11
4.99999e-06
-8.03234e-11
4.99998e-06
-1.14992e-10
4.99997e-06
-1.51945e-10
4.99996e-06
-1.9448e-10
4.99994e-06
-2.40545e-10
4.99992e-06
-2.96443e-10
4.9999e-06
-3.55886e-10
4.99987e-06
-4.32495e-10
4.99984e-06
-5.09955e-10
4.9998e-06
-6.17671e-10
4.99975e-06
-7.16375e-10
4.9997e-06
-8.72693e-10
4.99964e-06
-9.92211e-10
4.99958e-06
-1.2277e-09
4.9995e-06
-1.35506e-09
4.99942e-06
-1.72587e-09
4.99933e-06
-1.81096e-09
-2.44098e-09
5e-06
-1.39524e-11
4.99999e-06
-4.33205e-11
4.99999e-06
-7.30021e-11
4.99998e-06
-1.04998e-10
4.99996e-06
-1.38594e-10
4.99995e-06
-1.77514e-10
4.99992e-06
-2.19141e-10
4.9999e-06
-2.70311e-10
4.99987e-06
-3.24e-10
4.99983e-06
-3.94228e-10
4.99978e-06
-4.64398e-10
4.99973e-06
-5.64269e-10
4.99967e-06
-6.53675e-10
4.99959e-06
-8.00523e-10
4.99951e-06
-9.0905e-10
4.99942e-06
-1.13444e-09
4.99931e-06
-1.25071e-09
4.9992e-06
-1.6152e-09
4.99909e-06
-1.69605e-09
-2.29239e-09
5e-06
-1.17271e-11
4.99999e-06
-3.65629e-11
4.99998e-06
-6.2115e-11
4.99997e-06
-9.00579e-11
4.99995e-06
-1.19712e-10
4.99992e-06
-1.54215e-10
4.99989e-06
-1.90798e-10
4.99986e-06
-2.3599e-10
4.99982e-06
-2.83334e-10
4.99977e-06
-3.45291e-10
4.99971e-06
-4.06816e-10
4.99964e-06
-4.95933e-10
4.99957e-06
-5.74659e-10
4.99947e-06
-7.07647e-10
4.99937e-06
-8.03816e-10
4.99925e-06
-1.01261e-09
4.99911e-06
-1.11622e-09
4.99896e-06
-1.46098e-09
4.99879e-06
-1.5318e-09
-2.16176e-09
5e-06
-1.27608e-11
5e-06
-3.34321e-11
4.99999e-06
-5.44387e-11
4.99998e-06
-7.75192e-11
4.99996e-06
-1.01798e-10
4.99994e-06
-1.29997e-10
4.9999e-06
-1.59776e-10
4.99987e-06
-1.97433e-10
4.99982e-06
-2.36115e-10
4.99976e-06
-2.88831e-10
4.99969e-06
-3.38544e-10
4.99961e-06
-4.15597e-10
4.99952e-06
-4.7881e-10
4.99941e-06
-5.96761e-10
4.99928e-06
-6.73052e-10
4.99913e-06
-8.65063e-10
4.99896e-06
-9.46635e-10
4.99878e-06
-1.27938e-09
4.99858e-06
-1.33046e-09
-1.89695e-09
4.99999e-06
-4.71619e-12
4.99998e-06
-2.04361e-11
4.99996e-06
-3.77129e-11
4.99994e-06
-5.6653e-11
4.99992e-06
-7.63932e-11
4.99988e-06
-9.8613e-11
4.99985e-06
-1.22943e-10
4.9998e-06
-1.51671e-10
4.99975e-06
-1.82351e-10
4.99968e-06
-2.23968e-10
4.99961e-06
-2.62626e-10
4.99952e-06
-3.23637e-10
4.99941e-06
-3.72369e-10
4.99928e-06
-4.67826e-10
4.99913e-06
-5.25996e-10
4.99895e-06
-6.86756e-10
4.99876e-06
-7.47753e-10
4.99852e-06
-1.04068e-09
4.99827e-06
-1.08249e-09
-1.68872e-09
5.00001e-06
-1.17216e-11
5.00001e-06
-1.90633e-11
5e-06
-2.93894e-11
4.99998e-06
-4.18182e-11
4.99996e-06
-5.41227e-11
4.99993e-06
-6.87972e-11
4.99989e-06
-8.45385e-11
4.99984e-06
-1.04695e-10
4.99979e-06
-1.23139e-10
4.99971e-06
-1.53129e-10
4.99963e-06
-1.77266e-10
4.99953e-06
-2.22345e-10
4.99941e-06
-2.5068e-10
4.99926e-06
-3.24371e-10
4.99909e-06
-3.54132e-10
4.99889e-06
-4.86047e-10
4.99865e-06
-5.09118e-10
4.99838e-06
-7.67477e-10
4.99806e-06
-7.59408e-10
-1.26124e-09
4.99998e-06
1.00644e-11
4.99996e-06
-4.43974e-12
4.99995e-06
-1.29397e-11
4.99992e-06
-1.93771e-11
4.9999e-06
-2.65296e-11
4.99986e-06
-3.74036e-11
4.99982e-06
-4.32882e-11
4.99977e-06
-5.18812e-11
4.99971e-06
-6.20954e-11
4.99963e-06
-7.79396e-11
4.99955e-06
-9.02185e-11
4.99944e-06
-1.14258e-10
4.99932e-06
-1.2723e-10
4.99916e-06
-1.68084e-10
4.99898e-06
-1.78272e-10
4.99875e-06
-2.5693e-10
4.9985e-06
-2.56208e-10
4.99817e-06
-4.31636e-10
4.99782e-06
-4.13979e-10
-8.91445e-10
5.00001e-06
5.00001e-06
4.99999e-06
4.99997e-06
4.99995e-06
4.99991e-06
4.99987e-06
4.99982e-06
4.99975e-06
4.99968e-06
4.99959e-06
4.99947e-06
4.99934e-06
4.99918e-06
4.999e-06
4.99874e-06
4.99848e-06
4.99805e-06
4.99764e-06
)
;

boundaryField
{
    sides
    {
        type            calculated;
        value           uniform 0;
    }
    inlet
    {
        type            calculated;
        value           nonuniform List<scalar> 
20
(
-5e-06
-5e-06
-5e-06
-5e-06
-5e-06
-5e-06
-5e-06
-5e-06
-5e-06
-5e-06
-5e-06
-5e-06
-5e-06
-5e-06
-5e-06
-5e-06
-5e-06
-5e-06
-5e-06
-5e-06
)
;
    }
    outlet
    {
        type            calculated;
        value           nonuniform List<scalar> 
20
(
5.00325e-06
5.00255e-06
5.00237e-06
5.00194e-06
5.00169e-06
5.00134e-06
5.00106e-06
5.00074e-06
5.00045e-06
5.00015e-06
4.99985e-06
4.99955e-06
4.99926e-06
4.99894e-06
4.99866e-06
4.99831e-06
4.99806e-06
4.99763e-06
4.99745e-06
4.99675e-06
)
;
    }
    frontAndBack
    {
        type            empty;
        value           nonuniform 0();
    }
}


// ************************************************************************* //
