/*--------------------------------*- C++ -*----------------------------------*\
  =========                 |
  \\      /  F ield         | OpenFOAM: The Open Source CFD Toolbox
   \\    /   O peration     | Website:  https://openfoam.org
    \\  /    A nd           | Version:  7
     \\/     M anipulation  |
\*---------------------------------------------------------------------------*/
FoamFile
{
    version     2.0;
    format      ascii;
    class       volVectorField;
    location    "87";
    object      ddtCorrDdt0(hU);
}
// * * * * * * * * * * * * * * * * * * * * * * * * * * * * * * * * * * * * * //

dimensions      [0 2 -2 0 0 0 0];

internalField   nonuniform List<vector> 
400
(
(-9.64499e-11 -7.19307e-11 0)
(-1.18254e-10 6.6636e-11 0)
(1.08663e-10 1.61694e-10 0)
(9.55474e-11 -2.43312e-10 0)
(-8.1827e-11 -2.36053e-10 0)
(7.94307e-10 7.02747e-10 0)
(1.11988e-09 -3.30225e-10 0)
(-2.34357e-09 -2.14155e-09 0)
(-1.19863e-09 -1.87241e-10 0)
(-5.63427e-10 2.50204e-11 0)
(-2.54528e-10 2.38295e-10 0)
(2.44043e-10 2.06119e-10 0)
(3.13137e-10 8.53175e-11 0)
(2.02634e-10 1.91129e-11 0)
(1.00155e-10 -5.86795e-12 0)
(4.71268e-12 -1.60968e-11 0)
(-6.684e-11 -2.05488e-11 0)
(-5.86542e-11 -1.77505e-12 0)
(-2.70485e-11 6.7047e-12 0)
(2.3211e-11 -1.07838e-11 0)
(7.05731e-12 -1.22372e-10 0)
(4.40444e-11 6.8928e-11 0)
(-9.29072e-11 1.45977e-10 0)
(4.21997e-11 -1.64827e-10 0)
(-8.43821e-11 -3.56573e-10 0)
(-5.96202e-10 9.26856e-10 0)
(-3.56931e-10 -8.29157e-10 0)
(1.54205e-09 -1.22096e-09 0)
(1.25091e-09 -2.11331e-10 0)
(1.15008e-10 -8.24066e-11 0)
(6.2543e-11 2.82842e-10 0)
(5.71427e-11 3.03313e-10 0)
(2.51658e-11 1.42543e-10 0)
(2.56215e-11 3.65764e-11 0)
(1.83001e-11 -2.71098e-11 0)
(-6.78813e-12 -7.34223e-11 0)
(-2.58496e-11 -6.87711e-11 0)
(-1.03404e-11 -9.59315e-12 0)
(-3.63922e-12 3.87061e-11 0)
(1.03138e-11 1.81318e-11 0)
(4.96627e-11 -1.0995e-11 0)
(8.81855e-11 2.71471e-11 0)
(-1.17461e-11 1.59414e-11 0)
(4.87375e-11 2.44463e-10 0)
(5.62234e-12 -1.00975e-10 0)
(9.98249e-11 1.16755e-10 0)
(-1.1345e-09 -3.82134e-10 0)
(4.03135e-10 1.09786e-09 0)
(6.17241e-11 9.26208e-11 0)
(2.475e-10 -8.84791e-11 0)
(4.02697e-10 3.45786e-11 0)
(1.02426e-10 3.14279e-11 0)
(-8.0361e-11 5.36672e-12 0)
(-8.09105e-11 1.01373e-11 0)
(-7.29038e-11 -8.28488e-12 0)
(-4.8148e-11 -2.31569e-11 0)
(5.46754e-12 -7.05154e-12 0)
(4.01423e-11 4.40595e-11 0)
(3.10267e-12 5.42815e-11 0)
(-1.72215e-11 -6.91271e-12 0)
(3.90658e-11 7.03095e-11 0)
(5.11507e-11 1.74497e-11 0)
(4.89677e-11 1.32618e-11 0)
(-7.257e-11 1.47757e-10 0)
(7.39649e-11 9.99454e-11 0)
(-1.93503e-10 -3.09122e-10 0)
(-1.09013e-10 3.38328e-10 0)
(6.41427e-10 3.36144e-10 0)
(-1.73975e-10 1.87517e-11 0)
(8.46913e-11 1.32613e-10 0)
(2.385e-10 2.42945e-11 0)
(-5.20084e-11 -1.41769e-10 0)
(-1.07402e-10 -1.14172e-10 0)
(-5.49715e-11 -5.60248e-11 0)
(-4.34697e-11 -3.13942e-11 0)
(-7.5877e-12 3.35408e-11 0)
(6.03235e-11 8.03186e-11 0)
(8.34468e-11 8.19207e-11 0)
(1.55197e-11 4.40636e-11 0)
(-4.13103e-11 -2.66276e-11 0)
(2.26411e-11 4.27781e-11 0)
(-6.73793e-12 -3.57168e-12 0)
(5.28372e-11 1.5982e-11 0)
(-1.33919e-10 -4.35666e-11 0)
(9.02138e-11 2.55575e-10 0)
(-2.32125e-10 -2.41757e-10 0)
(3.68311e-10 3.67718e-10 0)
(-8.36713e-11 -1.52764e-12 0)
(-2.1129e-10 -1.00938e-10 0)
(3.01405e-10 1.40394e-10 0)
(-6.03006e-11 -9.15625e-11 0)
(-2.10141e-10 -1.86449e-10 0)
(-6.93357e-11 -8.35799e-11 0)
(-1.60691e-11 -3.11563e-11 0)
(1.52955e-11 -3.44262e-12 0)
(6.33695e-11 1.03163e-10 0)
(8.05789e-11 1.4827e-10 0)
(6.7319e-11 8.44111e-11 0)
(5.29255e-12 5.27728e-12 0)
(-3.38104e-11 -5.06394e-11 0)
(-5.95207e-12 8.26339e-12 0)
(-1.7075e-11 9.36481e-12 0)
(2.63746e-11 7.49747e-11 0)
(-4.12198e-11 -1.56839e-11 0)
(1.01504e-11 2.03916e-10 0)
(-6.36375e-11 6.1669e-11 0)
(1.92697e-10 1.9769e-10 0)
(-2.61614e-10 -1.82088e-10 0)
(1.8109e-10 1.08064e-10 0)
(9.87589e-11 -3.98557e-11 0)
(-3.12705e-10 -2.4012e-10 0)
(-1.10423e-10 -1.15611e-10 0)
(7.79643e-11 -3.52891e-12 0)
(4.52972e-11 3.60343e-11 0)
(8.65015e-11 8.88166e-11 0)
(1.31283e-10 1.79351e-10 0)
(4.96054e-11 1.74209e-10 0)
(-3.19963e-11 8.52828e-11 0)
(-5.46647e-11 -1.88453e-11 0)
(-1.47407e-11 -8.63889e-11 0)
(-3.0906e-11 -8.28209e-12 0)
(1.58583e-12 4.40958e-11 0)
(-2.58615e-11 5.09046e-11 0)
(5.3593e-11 1.16135e-10 0)
(-3.02155e-11 2.0361e-11 0)
(1.01958e-10 1.96947e-10 0)
(-9.61387e-12 2.43619e-11 0)
(-3.14759e-11 -1.32031e-11 0)
(1.53098e-10 8.57366e-11 0)
(-2.49284e-10 -2.0601e-10 0)
(-2.09616e-10 -1.16704e-10 0)
(8.84469e-11 6.96582e-11 0)
(1.04125e-10 3.16518e-11 0)
(6.1455e-11 5.60948e-11 0)
(1.19866e-10 1.4776e-10 0)
(1.34099e-10 1.66039e-10 0)
(1.2356e-11 9.89306e-11 0)
(-9.74097e-11 5.53356e-11 0)
(-8.13656e-11 1.09339e-11 0)
(2.00091e-11 -6.3648e-11 0)
(-2.80122e-11 -2.88239e-12 0)
(3.07279e-11 8.40423e-11 0)
(-4.10338e-11 3.39427e-11 0)
(7.25303e-11 1.66264e-10 0)
(-1.97497e-11 3.89194e-11 0)
(1.17285e-10 1.47919e-10 0)
(-1.03909e-10 -2.67907e-11 0)
(8.68708e-11 4.60455e-11 0)
(-4.36605e-11 -8.16871e-11 0)
(-1.81044e-10 -1.36554e-10 0)
(1.39731e-10 7.67638e-11 0)
(9.47359e-11 1.04903e-10 0)
(-1.11779e-11 2.73839e-11 0)
(1.15792e-10 9.7791e-11 0)
(1.45446e-10 1.69053e-10 0)
(3.60196e-11 1.14388e-10 0)
(-6.24726e-11 1.523e-11 0)
(-1.01128e-10 3.12669e-11 0)
(-8.33664e-11 4.94173e-11 0)
(1.28392e-11 -4.30786e-11 0)
(1.32638e-11 3.02775e-11 0)
(2.59249e-11 2.5346e-11 0)
(-1.94666e-11 7.44134e-11 0)
(6.48168e-12 8.03479e-11 0)
(-1.55309e-12 1.31563e-10 0)
(2.3125e-11 8.17268e-11 0)
(-5.68735e-11 4.52345e-11 0)
(5.09967e-11 7.00282e-11 0)
(-6.50052e-11 -9.3204e-11 0)
(4.74729e-11 5.88835e-11 0)
(1.62679e-10 9.17535e-11 0)
(-3.1315e-11 6.59131e-12 0)
(-3.82477e-11 8.05659e-11 0)
(1.07359e-10 1.38564e-10 0)
(4.99872e-11 7.00744e-11 0)
(-8.56131e-11 6.97245e-12 0)
(-8.60855e-11 -8.88895e-12 0)
(-1.91172e-11 6.05414e-11 0)
(7.78195e-12 9.2991e-11 0)
(1.81789e-11 -2.05669e-11 0)
(1.04774e-11 2.59692e-11 0)
(-2.73409e-11 -2.36196e-11 0)
(3.17502e-11 8.96749e-11 0)
(-3.52088e-11 6.31553e-11 0)
(-6.18574e-12 1.47405e-10 0)
(-8.30664e-11 6.94444e-11 0)
(7.35078e-12 7.8373e-11 0)
(-6.02213e-11 4.92331e-11 0)
(1.65295e-11 -5.52496e-11 0)
(1.28833e-10 5.09966e-11 0)
(8.74261e-12 -1.17387e-11 0)
(3.1689e-11 -4.89947e-11 0)
(3.38838e-11 8.21186e-11 0)
(-1.06234e-10 1.0357e-10 0)
(-1.50466e-10 8.78083e-12 0)
(-6.71975e-11 6.15844e-12 0)
(2.52667e-11 4.98106e-11 0)
(6.63052e-11 1.10058e-10 0)
(4.31981e-11 1.06246e-10 0)
(-6.44238e-12 -2.44139e-11 0)
(8.60241e-12 -4.07572e-11 0)
(-3.37704e-11 4.49781e-11 0)
(6.14361e-11 4.66914e-11 0)
(-3.43632e-11 1.12162e-10 0)
(1.13999e-12 8.10898e-11 0)
(-1.12245e-10 1.06274e-10 0)
(2.88533e-11 4.93795e-11 0)
(-9.26951e-11 2.90359e-11 0)
(3.40883e-11 -4.83719e-12 0)
(1.38097e-10 -9.2837e-11 0)
(-4.66688e-11 -6.91495e-11 0)
(4.94997e-11 -4.52626e-11 0)
(4.44823e-11 -6.03614e-11 0)
(-1.83031e-10 -5.37966e-12 0)
(-2.03931e-10 7.81141e-11 0)
(-3.5736e-11 1.43426e-10 0)
(9.20837e-11 1.30095e-10 0)
(1.17917e-10 1.1367e-10 0)
(6.98165e-11 8.01401e-11 0)
(-2.68489e-11 -3.86451e-11 0)
(2.6523e-11 -2.50799e-11 0)
(2.12647e-11 5.61831e-11 0)
(2.9897e-11 1.4647e-11 0)
(-2.35634e-12 1.10014e-10 0)
(2.66976e-11 3.61379e-11 0)
(-3.10462e-11 1.2177e-10 0)
(-6.70745e-12 6.21792e-11 0)
(5.23262e-13 1.13546e-11 0)
(-6.61231e-11 8.35775e-11 0)
(9.40444e-11 -1.5479e-10 0)
(5.84818e-11 -1.33786e-10 0)
(-6.16451e-11 -2.84516e-11 0)
(-1.75596e-11 -9.20632e-11 0)
(2.62175e-11 -4.48619e-11 0)
(-3.03065e-11 1.09816e-10 0)
(-6.1014e-11 2.23221e-10 0)
(1.76483e-11 1.93774e-10 0)
(9.43456e-11 1.10006e-10 0)
(6.16432e-11 2.6971e-11 0)
(-4.21799e-11 -6.93804e-11 0)
(-2.06629e-11 5.65497e-11 0)
(2.31717e-11 2.59384e-12 0)
(-3.16281e-11 5.72665e-11 0)
(6.63051e-11 8.82317e-12 0)
(1.51788e-11 1.00235e-10 0)
(1.00547e-10 5.96491e-11 0)
(-8.85169e-11 1.52195e-10 0)
(1.1626e-10 -7.15088e-12 0)
(-1.22375e-10 1.3553e-10 0)
(-1.20117e-10 9.38654e-12 0)
(1.59354e-10 -1.69221e-10 0)
(-5.46255e-12 -8.76335e-11 0)
(-6.92867e-11 7.08296e-13 0)
(9.9988e-11 2.39965e-11 0)
(8.91415e-11 6.58935e-11 0)
(-2.59587e-11 1.81048e-10 0)
(-3.19648e-11 2.00565e-10 0)
(4.99039e-12 1.01175e-10 0)
(1.15033e-11 -2.63314e-11 0)
(-1.44694e-11 -1.033e-10 0)
(-4.80773e-11 7.26062e-11 0)
(-2.70585e-11 2.21683e-11 0)
(-7.8516e-11 8.62651e-11 0)
(7.70887e-11 -1.62518e-11 0)
(-2.89898e-11 1.80421e-10 0)
(1.64444e-10 -3.91715e-11 0)
(-9.00825e-11 1.83997e-10 0)
(6.42272e-11 2.70033e-11 0)
(5.7688e-11 1.42622e-11 0)
(-3.52973e-10 2.29072e-10 0)
(-1.08982e-10 2.85358e-11 0)
(9.11158e-11 -9.58723e-11 0)
(4.75981e-11 1.20324e-11 0)
(6.92103e-11 4.92732e-11 0)
(9.00612e-11 2.04414e-11 0)
(3.28128e-11 8.74407e-11 0)
(-5.97404e-11 1.19895e-10 0)
(-1.08663e-10 6.51873e-11 0)
(-5.11384e-11 -1.3336e-11 0)
(3.37809e-11 -7.65491e-11 0)
(-2.14177e-11 2.24039e-11 0)
(-6.26798e-11 6.94546e-11 0)
(-6.87631e-11 8.73003e-11 0)
(-1.37433e-11 1.42366e-10 0)
(-1.68157e-11 9.58323e-11 0)
(8.05906e-11 2.82252e-11 0)
(1.18861e-10 3.59385e-11 0)
(-1.67761e-10 1.74513e-10 0)
(3.055e-10 -2.00316e-10 0)
(-7.44227e-11 8.2684e-11 0)
(-3.90122e-10 2.0052e-10 0)
(-1.20399e-10 4.72568e-11 0)
(2.49061e-11 1.60683e-11 0)
(1.2385e-11 4.27097e-11 0)
(5.48992e-11 3.3657e-11 0)
(5.69517e-11 4.27608e-11 0)
(-4.40976e-11 3.96814e-11 0)
(-1.03636e-10 5.20223e-11 0)
(-1.36086e-11 3.59208e-11 0)
(6.95001e-11 -4.61171e-11 0)
(3.04239e-11 -8.47772e-11 0)
(-4.33045e-11 4.77798e-11 0)
(-1.43336e-11 6.96359e-11 0)
(-1.28445e-10 2.02143e-10 0)
(5.90089e-11 -9.858e-11 0)
(-1.55668e-10 3.17546e-10 0)
(4.09971e-10 -2.99798e-10 0)
(-3.49259e-10 2.44761e-10 0)
(1.013e-11 -5.52513e-11 0)
(3.46687e-10 -2.18418e-10 0)
(-1.8668e-10 9.68651e-11 0)
(-2.60924e-10 1.60584e-10 0)
(-1.08107e-10 7.51422e-11 0)
(-4.6086e-11 5.26736e-11 0)
(1.90432e-11 4.63183e-11 0)
(3.95167e-11 1.20976e-11 0)
(-1.27965e-11 -8.12428e-12 0)
(-4.79847e-11 4.73102e-11 0)
(-3.26114e-12 7.34838e-11 0)
(3.5206e-11 -7.84709e-12 0)
(8.3411e-11 -1.34856e-10 0)
(4.98629e-11 5.71499e-11 0)
(5.02627e-11 1.30657e-10 0)
(-1.35387e-10 1.24145e-10 0)
(1.411e-10 -7.76468e-11 0)
(-3.2671e-10 5.47308e-10 0)
(3.16196e-10 -6.30196e-10 0)
(5.34198e-10 -4.06252e-10 0)
(-4.31273e-10 -1.6592e-11 0)
(2.66194e-10 -2.99239e-10 0)
(2.33564e-10 -1.06676e-10 0)
(-1.44307e-10 1.05814e-10 0)
(-2.09042e-10 1.02866e-10 0)
(-1.40227e-10 7.90805e-11 0)
(-6.06889e-11 6.81697e-11 0)
(-3.99015e-12 4.10715e-11 0)
(2.77322e-11 1.50801e-11 0)
(1.81667e-11 4.88006e-11 0)
(1.24144e-11 6.17377e-11 0)
(6.24795e-12 -1.12924e-11 0)
(1.36782e-10 4.17907e-11 0)
(1.66582e-10 6.66263e-14 0)
(6.41859e-11 3.57982e-11 0)
(-9.99852e-11 -1.24281e-10 0)
(1.19824e-10 6.21479e-11 0)
(-2.86978e-10 8.17194e-11 0)
(-8.51801e-10 -9.49689e-10 0)
(8.24546e-10 2.40845e-10 0)
(1.63705e-10 -1.51362e-10 0)
(2.21116e-10 6.18153e-13 0)
(4.37126e-10 -1.39557e-10 0)
(5.54784e-11 -8.25598e-11 0)
(-1.83401e-10 -1.3915e-11 0)
(-1.79264e-10 3.18301e-11 0)
(-1.10364e-10 5.67814e-11 0)
(-3.19713e-11 6.62876e-11 0)
(3.97341e-11 4.62737e-11 0)
(4.24776e-11 3.5666e-11 0)
(2.86528e-11 2.65961e-11 0)
(-9.4198e-12 -1.71497e-11 0)
(-3.60757e-12 2.27208e-10 0)
(2.63593e-11 -7.56391e-11 0)
(-8.46693e-11 -2.40625e-10 0)
(1.62688e-11 -6.82432e-11 0)
(-3.42359e-11 4.40942e-10 0)
(-7.09809e-11 -1.08623e-09 0)
(-2.1153e-10 2.51322e-09 0)
(-2.6419e-09 -1.42223e-10 0)
(-5.10995e-10 3.3673e-10 0)
(1.97985e-10 1.7993e-10 0)
(7.68061e-11 -2.82565e-10 0)
(2.51946e-11 -3.41963e-10 0)
(-4.87149e-11 -1.60762e-10 0)
(-7.26154e-11 -1.61343e-11 0)
(-7.69503e-11 3.56269e-11 0)
(-4.91559e-11 4.48493e-11 0)
(4.4362e-12 3.39206e-11 0)
(2.58505e-11 1.51418e-11 0)
(2.53988e-11 1.1473e-11 0)
(-1.18443e-11 2.90225e-13 0)
(-1.72793e-10 1.28568e-10 0)
(-1.92722e-10 -2.41779e-11 0)
(-5.65054e-12 -1.63957e-10 0)
(2.18216e-10 1.05027e-10 0)
(-2.39187e-10 3.97177e-10 0)
(6.69768e-10 -8.66942e-10 0)
(4.5702e-10 3.09039e-09 0)
(1.76757e-09 -8.93036e-10 0)
(5.88442e-10 3.77739e-10 0)
(-7.46942e-10 2.85013e-11 0)
(-4.11014e-10 -2.54833e-10 0)
(1.565e-10 -2.50027e-10 0)
(2.71048e-10 -9.77801e-11 0)
(1.13209e-10 1.00667e-11 0)
(-3.98798e-11 4.01088e-11 0)
(-7.56905e-11 4.09309e-11 0)
(-2.55136e-11 2.74238e-11 0)
(1.7992e-11 1.63006e-11 0)
(3.38281e-11 -6.51188e-14 0)
(-1.0999e-11 -1.81645e-11 0)
)
;

boundaryField
{
    sides
    {
        type            calculated;
        value           nonuniform List<vector> 
40
(
(-1.72793e-10 0 0)
(-1.92722e-10 0 0)
(-5.65054e-12 0 0)
(2.18216e-10 0 0)
(-2.39187e-10 0 0)
(6.69768e-10 0 0)
(4.5702e-10 0 0)
(1.76757e-09 0 0)
(5.88442e-10 0 0)
(-7.46942e-10 0 0)
(-4.11014e-10 0 0)
(1.565e-10 0 0)
(2.71048e-10 0 0)
(1.13209e-10 0 0)
(-3.98798e-11 0 0)
(-7.56905e-11 0 0)
(-2.55136e-11 0 0)
(1.7992e-11 0 0)
(3.38281e-11 0 0)
(-1.0999e-11 0 0)
(-9.64499e-11 0 0)
(-1.18254e-10 0 0)
(1.08663e-10 0 0)
(9.55474e-11 0 0)
(-8.1827e-11 0 0)
(7.94307e-10 0 0)
(1.11988e-09 0 0)
(-2.34357e-09 0 0)
(-1.19863e-09 0 0)
(-5.63427e-10 0 0)
(-2.54528e-10 0 0)
(2.44043e-10 0 0)
(3.13137e-10 0 0)
(2.02634e-10 0 0)
(1.00155e-10 0 0)
(4.71268e-12 0 0)
(-6.684e-11 0 0)
(-5.86542e-11 0 0)
(-2.70485e-11 0 0)
(2.3211e-11 0 0)
)
;
    }
    inlet
    {
        type            calculated;
        value           uniform (0 0 0);
    }
    outlet
    {
        type            calculated;
        value           nonuniform List<vector> 
20
(
(2.3211e-11 -1.07838e-11 0)
(1.03138e-11 1.81318e-11 0)
(-1.72215e-11 -6.91271e-12 0)
(-4.13103e-11 -2.66276e-11 0)
(-3.38104e-11 -5.06394e-11 0)
(-1.47407e-11 -8.63889e-11 0)
(2.00091e-11 -6.3648e-11 0)
(1.28392e-11 -4.30786e-11 0)
(1.81789e-11 -2.05669e-11 0)
(-6.44238e-12 -2.44139e-11 0)
(-2.68489e-11 -3.86451e-11 0)
(-4.21799e-11 -6.93804e-11 0)
(-1.44694e-11 -1.033e-10 0)
(3.37809e-11 -7.65491e-11 0)
(6.95001e-11 -4.61171e-11 0)
(3.5206e-11 -7.84709e-12 0)
(6.24795e-12 -1.12924e-11 0)
(-9.4198e-12 -1.71497e-11 0)
(-1.18443e-11 2.90225e-13 0)
(-1.0999e-11 -1.81645e-11 0)
)
;
    }
    frontAndBack
    {
        type            empty;
    }
}


// ************************************************************************* //
