/*--------------------------------*- C++ -*----------------------------------*\
  =========                 |
  \\      /  F ield         | OpenFOAM: The Open Source CFD Toolbox
   \\    /   O peration     | Website:  https://openfoam.org
    \\  /    A nd           | Version:  7
     \\/     M anipulation  |
\*---------------------------------------------------------------------------*/
FoamFile
{
    version     2.0;
    format      ascii;
    class       volVectorField;
    location    "87";
    object      hU_0;
}
// * * * * * * * * * * * * * * * * * * * * * * * * * * * * * * * * * * * * * //

dimensions      [0 2 -1 0 0 0 0];

internalField   nonuniform List<vector> 
400
(
(0.001 -8.73214e-09 0)
(0.000999999 -2.37629e-08 0)
(0.001 -3.59914e-08 0)
(0.001 -4.6721e-08 0)
(0.00100001 -5.69988e-08 0)
(0.00100001 -6.74858e-08 0)
(0.00100002 -7.82475e-08 0)
(0.00100003 -8.91535e-08 0)
(0.00100004 -9.99045e-08 0)
(0.00100006 -1.11873e-07 0)
(0.00100007 -1.22621e-07 0)
(0.0010001 -1.3615e-07 0)
(0.00100011 -1.46524e-07 0)
(0.00100015 -1.63347e-07 0)
(0.00100017 -1.72173e-07 0)
(0.00100024 -1.96309e-07 0)
(0.00100026 -2.00817e-07 0)
(0.00100038 -2.43057e-07 0)
(0.00100038 -2.392e-07 0)
(0.00100061 -3.31855e-07 0)
(0.001 3.97843e-09 0)
(0.001 1.21051e-08 0)
(0.00100001 2.02578e-08 0)
(0.00100001 2.79699e-08 0)
(0.00100002 3.509e-08 0)
(0.00100002 4.16339e-08 0)
(0.00100003 4.76071e-08 0)
(0.00100004 5.3103e-08 0)
(0.00100005 5.84448e-08 0)
(0.00100007 6.23604e-08 0)
(0.00100008 6.69979e-08 0)
(0.0010001 6.85706e-08 0)
(0.00100012 7.26578e-08 0)
(0.00100016 6.98454e-08 0)
(0.00100018 7.40119e-08 0)
(0.00100023 6.16765e-08 0)
(0.00100026 6.71667e-08 0)
(0.00100035 3.17662e-08 0)
(0.00100037 3.98495e-08 0)
(0.0010005 -5.45925e-08 0)
(0.001 -3.96526e-09 0)
(0.000999999 -1.30196e-08 0)
(0.001 -2.30653e-08 0)
(0.001 -3.36758e-08 0)
(0.00100001 -4.42031e-08 0)
(0.00100001 -5.50266e-08 0)
(0.00100002 -6.56068e-08 0)
(0.00100003 -7.73921e-08 0)
(0.00100004 -8.89109e-08 0)
(0.00100005 -1.02534e-07 0)
(0.00100006 -1.1525e-07 0)
(0.00100009 -1.32401e-07 0)
(0.0010001 -1.46493e-07 0)
(0.00100014 -1.70008e-07 0)
(0.00100016 -1.85115e-07 0)
(0.00100021 -2.21132e-07 0)
(0.00100023 -2.35703e-07 0)
(0.00100031 -2.97613e-07 0)
(0.00100033 -3.06268e-07 0)
(0.00100046 -4.22195e-07 0)
(0.001 -1.41096e-10 0)
(0.001 -3.51497e-11 0)
(0.00100001 6.03144e-10 0)
(0.00100001 1.30503e-09 0)
(0.00100001 2.01623e-09 0)
(0.00100002 1.87319e-09 0)
(0.00100003 1.53369e-09 0)
(0.00100004 -3.91083e-10 0)
(0.00100004 -2.42115e-09 0)
(0.00100006 -7.09352e-09 0)
(0.00100007 -1.1238e-08 0)
(0.00100009 -2.04692e-08 0)
(0.00100011 -2.71376e-08 0)
(0.00100013 -4.42263e-08 0)
(0.00100016 -5.35063e-08 0)
(0.00100019 -8.49626e-08 0)
(0.00100022 -9.55122e-08 0)
(0.00100028 -1.54712e-07 0)
(0.0010003 -1.61047e-07 0)
(0.00100039 -2.75896e-07 0)
(0.001 -2.89572e-09 0)
(0.001 -9.22592e-09 0)
(0.001 -1.62997e-08 0)
(0.001 -2.43668e-08 0)
(0.00100001 -3.30468e-08 0)
(0.00100001 -4.27616e-08 0)
(0.00100002 -5.28836e-08 0)
(0.00100002 -6.45867e-08 0)
(0.00100003 -7.64838e-08 0)
(0.00100004 -9.12573e-08 0)
(0.00100005 -1.05624e-07 0)
(0.00100007 -1.25377e-07 0)
(0.00100009 -1.42683e-07 0)
(0.00100011 -1.70875e-07 0)
(0.00100013 -1.91184e-07 0)
(0.00100016 -2.34312e-07 0)
(0.00100018 -2.55815e-07 0)
(0.00100024 -3.26599e-07 0)
(0.00100025 -3.4163e-07 0)
(0.00100033 -4.64448e-07 0)
(0.001 -2.56406e-09 0)
(0.001 -7.53373e-09 0)
(0.001 -1.22199e-08 0)
(0.00100001 -1.69645e-08 0)
(0.00100001 -2.1763e-08 0)
(0.00100001 -2.72958e-08 0)
(0.00100002 -3.32696e-08 0)
(0.00100002 -4.08944e-08 0)
(0.00100003 -4.89632e-08 0)
(0.00100004 -6.01772e-08 0)
(0.00100005 -7.12706e-08 0)
(0.00100006 -8.8188e-08 0)
(0.00100008 -1.03114e-07 0)
(0.0010001 -1.29389e-07 0)
(0.00100011 -1.48293e-07 0)
(0.00100014 -1.90277e-07 0)
(0.00100016 -2.11058e-07 0)
(0.0010002 -2.80588e-07 0)
(0.00100021 -2.94686e-07 0)
(0.00100027 -4.15055e-07 0)
(0.001 -2.89872e-09 0)
(0.001 -8.87375e-09 0)
(0.001 -1.51735e-08 0)
(0.001 -2.22111e-08 0)
(0.00100001 -2.99562e-08 0)
(0.00100001 -3.8958e-08 0)
(0.00100001 -4.87607e-08 0)
(0.00100002 -6.05033e-08 0)
(0.00100002 -7.29348e-08 0)
(0.00100003 -8.86855e-08 0)
(0.00100004 -1.04479e-07 0)
(0.00100005 -1.26338e-07 0)
(0.00100006 -1.46269e-07 0)
(0.00100007 -1.77791e-07 0)
(0.00100009 -2.01796e-07 0)
(0.00100011 -2.492e-07 0)
(0.00100012 -2.74765e-07 0)
(0.00100015 -3.4962e-07 0)
(0.00100016 -3.67373e-07 0)
(0.00100021 -4.92261e-07 0)
(0.001 -3.18878e-09 0)
(0.001 -9.75169e-09 0)
(0.001 -1.65582e-08 0)
(0.001 -2.3958e-08 0)
(0.001 -3.18178e-08 0)
(0.00100001 -4.07336e-08 0)
(0.00100001 -5.0222e-08 0)
(0.00100001 -6.15582e-08 0)
(0.00100002 -7.3526e-08 0)
(0.00100002 -8.88293e-08 0)
(0.00100003 -1.04303e-07 0)
(0.00100004 -1.25937e-07 0)
(0.00100004 -1.45832e-07 0)
(0.00100005 -1.77393e-07 0)
(0.00100006 -2.01696e-07 0)
(0.00100008 -2.49259e-07 0)
(0.00100009 -2.75304e-07 0)
(0.00100011 -3.49893e-07 0)
(0.00100012 -3.67781e-07 0)
(0.00100015 -4.90902e-07 0)
(0.001 -3.35404e-09 0)
(0.001 -1.02459e-08 0)
(0.001 -1.734e-08 0)
(0.001 -2.50294e-08 0)
(0.001 -3.31914e-08 0)
(0.001 -4.2519e-08 0)
(0.00100001 -5.25569e-08 0)
(0.00100001 -6.46542e-08 0)
(0.00100001 -7.7539e-08 0)
(0.00100001 -9.3979e-08 0)
(0.00100002 -1.10743e-07 0)
(0.00100002 -1.33848e-07 0)
(0.00100003 -1.553e-07 0)
(0.00100003 -1.88649e-07 0)
(0.00100004 -2.14661e-07 0)
(0.00100005 -2.64195e-07 0)
(0.00100005 -2.91817e-07 0)
(0.00100007 -3.68407e-07 0)
(0.00100007 -3.87329e-07 0)
(0.00100009 -5.12551e-07 0)
(0.001 -3.43546e-09 0)
(0.001 -1.04817e-08 0)
(0.001 -1.77306e-08 0)
(0.001 -2.55923e-08 0)
(0.001 -3.39792e-08 0)
(0.001 -4.35821e-08 0)
(0.001 -5.39591e-08 0)
(0.001 -6.64258e-08 0)
(0.001 -7.97011e-08 0)
(0.001 -9.65345e-08 0)
(0.00100001 -1.13696e-07 0)
(0.00100001 -1.37173e-07 0)
(0.00100001 -1.59032e-07 0)
(0.00100001 -1.92742e-07 0)
(0.00100001 -2.19176e-07 0)
(0.00100002 -2.68996e-07 0)
(0.00100002 -2.97021e-07 0)
(0.00100002 -3.73672e-07 0)
(0.00100002 -3.92893e-07 0)
(0.00100003 -5.17535e-07 0)
(0.001 -3.44717e-09 0)
(0.001 -1.04822e-08 0)
(0.001 -1.77327e-08 0)
(0.000999999 -2.55819e-08 0)
(0.000999999 -3.3969e-08 0)
(0.000999999 -4.35661e-08 0)
(0.000999998 -5.39553e-08 0)
(0.000999997 -6.64166e-08 0)
(0.000999996 -7.97032e-08 0)
(0.000999995 -9.65372e-08 0)
(0.000999994 -1.13692e-07 0)
(0.000999993 -1.37176e-07 0)
(0.000999991 -1.59026e-07 0)
(0.000999989 -1.92718e-07 0)
(0.000999987 -2.19159e-07 0)
(0.000999984 -2.68993e-07 0)
(0.000999982 -2.97021e-07 0)
(0.000999978 -3.7367e-07 0)
(0.000999977 -3.92893e-07 0)
(0.00099997 -5.17533e-07 0)
(0.001 -3.37329e-09 0)
(0.001 -1.02486e-08 0)
(0.000999999 -1.73466e-08 0)
(0.000999998 -2.50092e-08 0)
(0.000999997 -3.31781e-08 0)
(0.000999996 -4.24896e-08 0)
(0.000999994 -5.25537e-08 0)
(0.000999992 -6.46411e-08 0)
(0.000999989 -7.75434e-08 0)
(0.000999986 -9.39942e-08 0)
(0.000999983 -1.10743e-07 0)
(0.000999978 -1.33848e-07 0)
(0.000999973 -1.55285e-07 0)
(0.000999967 -1.88602e-07 0)
(0.000999961 -2.14624e-07 0)
(0.000999952 -2.64172e-07 0)
(0.000999946 -2.91802e-07 0)
(0.000999934 -3.68376e-07 0)
(0.00099993 -3.87307e-07 0)
(0.000999911 -5.12499e-07 0)
(0.001 -3.19203e-09 0)
(0.001 -9.75602e-09 0)
(0.000999999 -1.6562e-08 0)
(0.000999997 -2.39547e-08 0)
(0.000999996 -3.18215e-08 0)
(0.000999993 -4.07224e-08 0)
(0.000999991 -5.02234e-08 0)
(0.000999987 -6.15647e-08 0)
(0.000999983 -7.35262e-08 0)
(0.000999977 -8.88568e-08 0)
(0.000999971 -1.04334e-07 0)
(0.000999964 -1.2595e-07 0)
(0.000999956 -1.45831e-07 0)
(0.000999945 -1.77378e-07 0)
(0.000999936 -2.01687e-07 0)
(0.000999921 -2.49254e-07 0)
(0.000999911 -2.75308e-07 0)
(0.000999889 -3.4989e-07 0)
(0.000999882 -3.67789e-07 0)
(0.000999852 -4.90894e-07 0)
(0.001 -2.88454e-09 0)
(0.000999999 -8.87316e-09 0)
(0.000999998 -1.51711e-08 0)
(0.000999996 -2.22326e-08 0)
(0.000999994 -2.99577e-08 0)
(0.000999991 -3.89721e-08 0)
(0.000999987 -4.87481e-08 0)
(0.000999982 -6.05192e-08 0)
(0.000999977 -7.29171e-08 0)
(0.000999969 -8.8672e-08 0)
(0.000999962 -1.04501e-07 0)
(0.000999951 -1.26348e-07 0)
(0.000999941 -1.46265e-07 0)
(0.000999925 -1.77771e-07 0)
(0.000999913 -2.01771e-07 0)
(0.000999891 -2.49148e-07 0)
(0.000999878 -2.74718e-07 0)
(0.000999847 -3.49533e-07 0)
(0.000999839 -3.67295e-07 0)
(0.000999792 -4.9212e-07 0)
(0.001 -2.54935e-09 0)
(0.000999999 -7.53169e-09 0)
(0.000999997 -1.22231e-08 0)
(0.000999995 -1.69855e-08 0)
(0.000999991 -2.17583e-08 0)
(0.000999987 -2.73362e-08 0)
(0.000999982 -3.32518e-08 0)
(0.000999975 -4.0905e-08 0)
(0.000999968 -4.89671e-08 0)
(0.000999959 -6.0143e-08 0)
(0.000999949 -7.12695e-08 0)
(0.000999935 -8.82143e-08 0)
(0.000999922 -1.03151e-07 0)
(0.000999903 -1.2942e-07 0)
(0.000999886 -1.48317e-07 0)
(0.000999859 -1.90281e-07 0)
(0.000999841 -2.11067e-07 0)
(0.000999802 -2.80579e-07 0)
(0.000999787 -2.94684e-07 0)
(0.000999731 -4.15036e-07 0)
(0.001 -2.89439e-09 0)
(0.001 -9.22286e-09 0)
(0.000999999 -1.62947e-08 0)
(0.000999997 -2.43494e-08 0)
(0.000999994 -3.30513e-08 0)
(0.00099999 -4.27685e-08 0)
(0.000999984 -5.28684e-08 0)
(0.000999977 -6.4527e-08 0)
(0.000999969 -7.64821e-08 0)
(0.000999958 -9.12103e-08 0)
(0.000999946 -1.05561e-07 0)
(0.00099993 -1.2534e-07 0)
(0.000999915 -1.42682e-07 0)
(0.000999891 -1.70869e-07 0)
(0.000999872 -1.91181e-07 0)
(0.000999837 -2.34266e-07 0)
(0.000999817 -2.5578e-07 0)
(0.000999764 -3.26509e-07 0)
(0.000999752 -3.41562e-07 0)
(0.00099967 -4.64287e-07 0)
(0.001 -1.52535e-10 0)
(0.000999998 -3.88348e-11 0)
(0.000999995 6.16166e-10 0)
(0.000999991 1.32672e-09 0)
(0.000999986 1.95584e-09 0)
(0.00099998 1.91332e-09 0)
(0.000999973 1.45681e-09 0)
(0.000999965 -3.62007e-10 0)
(0.000999955 -2.41439e-09 0)
(0.000999943 -7.07358e-09 0)
(0.00099993 -1.11853e-08 0)
(0.000999912 -2.04261e-08 0)
(0.000999894 -2.71289e-08 0)
(0.000999867 -4.42305e-08 0)
(0.000999845 -5.3522e-08 0)
(0.000999805 -8.49538e-08 0)
(0.000999779 -9.5506e-08 0)
(0.00099972 -1.54678e-07 0)
(0.000999698 -1.61023e-07 0)
(0.000999611 -2.75836e-07 0)
(0.001 -3.97485e-09 0)
(0.001 -1.30245e-08 0)
(0.001 -2.30622e-08 0)
(0.000999998 -3.3666e-08 0)
(0.000999995 -4.42414e-08 0)
(0.000999989 -5.50116e-08 0)
(0.000999983 -6.57731e-08 0)
(0.000999974 -7.74149e-08 0)
(0.000999964 -8.88711e-08 0)
(0.00099995 -1.0254e-07 0)
(0.000999935 -1.15267e-07 0)
(0.000999914 -1.32388e-07 0)
(0.000999896 -1.4648e-07 0)
(0.000999864 -1.69989e-07 0)
(0.000999841 -1.85128e-07 0)
(0.000999791 -2.21122e-07 0)
(0.000999767 -2.35724e-07 0)
(0.000999687 -2.97581e-07 0)
(0.000999671 -3.06273e-07 0)
(0.000999539 -4.22118e-07 0)
(0.001 3.97428e-09 0)
(0.000999996 1.21088e-08 0)
(0.000999991 2.0225e-08 0)
(0.000999987 2.79254e-08 0)
(0.000999982 3.52142e-08 0)
(0.000999976 4.16175e-08 0)
(0.000999969 4.78151e-08 0)
(0.000999959 5.30126e-08 0)
(0.000999948 5.83577e-08 0)
(0.000999934 6.22305e-08 0)
(0.000999919 6.6898e-08 0)
(0.000999897 6.85635e-08 0)
(0.000999878 7.26989e-08 0)
(0.000999845 6.99063e-08 0)
(0.000999819 7.40442e-08 0)
(0.000999767 6.17175e-08 0)
(0.000999738 6.7185e-08 0)
(0.000999654 3.18375e-08 0)
(0.000999629 3.99027e-08 0)
(0.000999495 -5.44674e-08 0)
(0.001 -8.73308e-09 0)
(0.001 -2.37581e-08 0)
(0.001 -3.60201e-08 0)
(0.000999997 -4.67733e-08 0)
(0.000999993 -5.68915e-08 0)
(0.000999986 -6.74978e-08 0)
(0.000999979 -7.79633e-08 0)
(0.000999968 -8.92589e-08 0)
(0.000999958 -1.00052e-07 0)
(0.000999942 -1.12021e-07 0)
(0.000999928 -1.22728e-07 0)
(0.000999903 -1.36198e-07 0)
(0.000999886 -1.46548e-07 0)
(0.000999846 -1.6337e-07 0)
(0.000999826 -1.72217e-07 0)
(0.00099976 -1.96364e-07 0)
(0.000999742 -2.00886e-07 0)
(0.000999623 -2.4313e-07 0)
(0.000999618 -2.39277e-07 0)
(0.000999394 -3.31983e-07 0)
)
;

boundaryField
{
    sides
    {
        type            slip;
    }
    inlet
    {
        type            fixedValue;
        value           uniform (0.001 0 0);
    }
    outlet
    {
        type            zeroGradient;
    }
    frontAndBack
    {
        type            empty;
    }
}


// ************************************************************************* //
