/*--------------------------------*- C++ -*----------------------------------*\
  =========                 |
  \\      /  F ield         | OpenFOAM: The Open Source CFD Toolbox
   \\    /   O peration     | Website:  https://openfoam.org
    \\  /    A nd           | Version:  7
     \\/     M anipulation  |
\*---------------------------------------------------------------------------*/
FoamFile
{
    version     2.0;
    format      ascii;
    class       volVectorField;
    location    "33";
    object      ddt0(hU);
}
// * * * * * * * * * * * * * * * * * * * * * * * * * * * * * * * * * * * * * //

dimensions      [0 2 -2 0 0 0 0];

internalField   nonuniform List<vector> 
400
(
(-2.43695e-10 6.18913e-10 0)
(8.20494e-10 1.75232e-09 0)
(1.86085e-09 3.33119e-09 0)
(3.99229e-10 4.20821e-09 0)
(-3.01653e-09 4.08542e-09 0)
(-3.71531e-09 3.98269e-09 0)
(-3.27084e-09 3.12583e-09 0)
(-3.96807e-09 2.16728e-10 0)
(-1.6963e-09 -1.0443e-09 0)
(1.47044e-09 -1.75783e-09 0)
(3.89877e-09 -1.38505e-09 0)
(5.09668e-09 -1.31908e-10 0)
(5.81795e-09 1.29401e-09 0)
(5.69023e-09 2.30215e-09 0)
(5.20787e-09 2.53208e-09 0)
(4.08255e-09 3.04079e-09 0)
(1.64293e-09 2.45214e-09 0)
(1.12238e-09 2.28158e-09 0)
(-2.2455e-09 5.64855e-10 0)
(-5.46644e-11 -2.25989e-09 0)
(-1.39128e-10 8.33286e-10 0)
(1.58644e-09 7.39863e-10 0)
(2.38057e-09 1.07902e-09 0)
(7.76411e-10 1.38763e-09 0)
(5.85228e-10 2.29116e-09 0)
(-9.30442e-10 3.30028e-09 0)
(-2.04803e-09 3.96219e-09 0)
(-2.6707e-09 2.85726e-09 0)
(-2.09484e-09 2.73685e-09 0)
(4.20048e-10 1.79871e-09 0)
(3.06671e-09 8.22089e-10 0)
(4.93821e-09 2.30642e-10 0)
(6.26996e-09 1.85386e-10 0)
(6.35411e-09 8.48512e-10 0)
(5.63062e-09 1.29096e-09 0)
(4.1371e-09 2.3528e-09 0)
(1.35202e-09 2.31511e-09 0)
(7.34446e-10 2.28394e-09 0)
(-2.41699e-09 2.24153e-09 0)
(-5.54883e-10 -8.28796e-10 0)
(-1.0803e-09 1.75623e-09 0)
(6.54901e-10 3.29592e-09 0)
(2.24542e-09 4.97727e-09 0)
(1.07709e-09 7.32119e-09 0)
(-8.31366e-10 8.48545e-09 0)
(-9.62524e-10 6.89694e-09 0)
(-1.0786e-09 3.76081e-09 0)
(-7.50523e-10 8.50322e-10 0)
(-1.09744e-10 -1.73426e-09 0)
(1.15577e-09 -3.3112e-09 0)
(3.29566e-09 -3.01311e-09 0)
(4.76334e-09 -1.34904e-09 0)
(5.54558e-09 9.59596e-10 0)
(5.29092e-09 3.42526e-09 0)
(4.76276e-09 4.55742e-09 0)
(3.81902e-09 6.53966e-09 0)
(1.76262e-09 5.63706e-09 0)
(1.38042e-09 5.21163e-09 0)
(-1.96371e-09 2.98447e-09 0)
(2.69553e-10 -3.96719e-09 0)
(-5.08403e-10 1.90817e-09 0)
(1.58669e-09 5.22454e-09 0)
(2.48035e-09 7.84019e-09 0)
(9.15353e-10 1.09954e-08 0)
(-1.43363e-09 1.23603e-08 0)
(-1.76896e-09 1.17709e-08 0)
(-2.74235e-09 8.41326e-09 0)
(-3.09656e-09 4.41543e-09 0)
(-1.97961e-09 3.25556e-10 0)
(5.30528e-11 -2.38324e-09 0)
(2.71334e-09 -2.45219e-09 0)
(4.66219e-09 -6.7418e-10 0)
(6.01696e-09 1.94465e-09 0)
(6.13661e-09 4.77276e-09 0)
(5.48226e-09 5.92607e-09 0)
(4.0106e-09 8.5532e-09 0)
(1.24829e-09 7.68048e-09 0)
(5.0193e-10 7.51361e-09 0)
(-2.64776e-09 5.01129e-09 0)
(-6.07782e-10 -4.62636e-09 0)
(-4.21053e-10 1.42872e-09 0)
(1.28445e-09 3.68178e-09 0)
(2.05724e-09 5.57529e-09 0)
(7.5662e-10 8.44282e-09 0)
(-2.48299e-10 1.07289e-08 0)
(-3.41523e-10 1.05402e-08 0)
(-9.30907e-10 7.39171e-09 0)
(-8.61803e-10 3.28539e-09 0)
(-8.41185e-10 -6.15146e-10 0)
(2.50521e-10 -2.87033e-09 0)
(1.90378e-09 -2.7257e-09 0)
(2.9046e-09 -1.05414e-09 0)
(3.74609e-09 1.66343e-09 0)
(4.1083e-09 5.20771e-09 0)
(4.11503e-09 7.02121e-09 0)
(3.71569e-09 1.04006e-08 0)
(2.24232e-09 9.29756e-09 0)
(2.03769e-09 8.6482e-09 0)
(-1.22104e-10 5.93667e-09 0)
(1.03297e-09 -5.19256e-09 0)
(-4.13947e-10 1.60237e-09 0)
(1.35103e-09 5.1035e-09 0)
(2.39073e-09 9.04909e-09 0)
(8.70893e-10 1.29056e-08 0)
(-6.67904e-10 1.49687e-08 0)
(-1.68718e-09 1.29958e-08 0)
(-2.24531e-09 8.12121e-09 0)
(-2.66183e-09 1.67926e-09 0)
(-1.99245e-09 -3.72935e-09 0)
(4.26512e-10 -6.21302e-09 0)
(2.91266e-09 -5.17087e-09 0)
(4.38965e-09 -1.8544e-09 0)
(5.27744e-09 2.52274e-09 0)
(5.08695e-09 7.18631e-09 0)
(4.45098e-09 9.3473e-09 0)
(3.11929e-09 1.34367e-08 0)
(8.0072e-10 1.19748e-08 0)
(2.29486e-11 1.13252e-08 0)
(-2.67413e-09 7.09118e-09 0)
(-2.74766e-10 -7.16027e-09 0)
(-3.28944e-10 9.02872e-10 0)
(1.00018e-09 4.30217e-09 0)
(1.61071e-09 8.38766e-09 0)
(4.29299e-10 1.215e-08 0)
(-2.60789e-10 1.45457e-08 0)
(-1.36976e-10 1.38007e-08 0)
(-2.20468e-10 1.00351e-08 0)
(-8.61907e-10 4.23105e-09 0)
(-8.51552e-10 -7.85059e-10 0)
(-1.26267e-10 -3.68833e-09 0)
(5.61089e-10 -3.44782e-09 0)
(1.1437e-09 -8.62315e-10 0)
(1.9175e-09 2.99112e-09 0)
(2.49315e-09 7.5528e-09 0)
(2.93494e-09 9.71543e-09 0)
(3.1384e-09 1.4098e-08 0)
(2.42754e-09 1.27728e-08 0)
(2.42434e-09 1.21945e-08 0)
(9.41711e-10 8.48486e-09 0)
(1.20366e-09 -6.73668e-09 0)
(-3.08987e-10 5.89865e-10 0)
(7.19173e-10 4.0307e-09 0)
(1.43491e-09 8.8941e-09 0)
(7.26351e-10 1.34885e-08 0)
(-2.47335e-10 1.57575e-08 0)
(-9.43596e-10 1.40477e-08 0)
(-1.48799e-09 8.63612e-09 0)
(-1.7005e-09 1.49275e-09 0)
(-9.42409e-10 -4.25474e-09 0)
(3.44198e-10 -7.12169e-09 0)
(1.55906e-09 -5.79139e-09 0)
(2.29923e-09 -1.55569e-09 0)
(2.64681e-09 3.93685e-09 0)
(2.54263e-09 9.77454e-09 0)
(2.39035e-09 1.2442e-08 0)
(1.87063e-09 1.71315e-08 0)
(7.26772e-10 1.49988e-08 0)
(4.57713e-10 1.38405e-08 0)
(-1.0945e-09 8.72211e-09 0)
(2.43292e-10 -8.378e-09 0)
(-2.4038e-10 3.9072e-10 0)
(5.01092e-10 4.06499e-09 0)
(8.68115e-10 9.12442e-09 0)
(1.96765e-10 1.34938e-08 0)
(-3.61245e-10 1.56381e-08 0)
(-3.40781e-10 1.43986e-08 0)
(-3.62688e-10 9.67814e-09 0)
(-5.22448e-10 3.00114e-09 0)
(-3.8849e-10 -2.75495e-09 0)
(1.4685e-12 -5.94861e-09 0)
(5.66862e-10 -5.13854e-09 0)
(7.86782e-10 -1.54503e-09 0)
(7.31397e-10 3.54453e-09 0)
(7.7686e-10 9.44525e-09 0)
(9.62077e-10 1.23611e-08 0)
(1.11277e-09 1.75635e-08 0)
(1.05885e-09 1.58902e-08 0)
(1.32026e-09 1.49181e-08 0)
(9.39724e-10 1.00624e-08 0)
(9.3898e-10 -7.89276e-09 0)
(-8.68266e-11 2.99934e-10 0)
(1.49671e-10 4.02824e-09 0)
(3.02506e-10 9.21714e-09 0)
(1.59922e-10 1.38165e-08 0)
(1.54327e-11 1.61066e-08 0)
(-8.77159e-11 1.4687e-08 0)
(-3.03335e-10 9.4627e-09 0)
(-4.15272e-10 2.33197e-09 0)
(-3.1957e-10 -3.71617e-09 0)
(-1.15537e-10 -6.7739e-09 0)
(1.65281e-10 -5.5611e-09 0)
(3.23231e-10 -1.46686e-09 0)
(5.17693e-10 4.24378e-09 0)
(7.26191e-10 1.05789e-08 0)
(8.28036e-10 1.35364e-08 0)
(6.20316e-10 1.8701e-08 0)
(1.49148e-10 1.66497e-08 0)
(-3.38971e-11 1.53771e-08 0)
(-6.57791e-10 9.89526e-09 0)
(-1.93995e-10 -8.58264e-09 0)
(1.04038e-10 3.31554e-10 0)
(-1.30468e-10 4.04239e-09 0)
(-2.80199e-10 9.23241e-09 0)
(-1.41433e-10 1.3829e-08 0)
(-3.17691e-12 1.61068e-08 0)
(8.48861e-11 1.4676e-08 0)
(2.91399e-10 9.44e-09 0)
(3.95812e-10 2.2978e-09 0)
(2.90934e-10 -3.74621e-09 0)
(9.95489e-11 -6.81166e-09 0)
(-1.85868e-10 -5.5971e-09 0)
(-3.75357e-10 -1.47771e-09 0)
(-5.90568e-10 4.256e-09 0)
(-7.80301e-10 1.05915e-08 0)
(-8.46817e-10 1.35321e-08 0)
(-6.37352e-10 1.8684e-08 0)
(-2.06571e-10 1.66421e-08 0)
(-4.15808e-11 1.5395e-08 0)
(6.32647e-10 9.92809e-09 0)
(2.47676e-10 -8.56464e-09 0)
(2.28036e-10 4.5282e-10 0)
(-4.95575e-10 4.10602e-09 0)
(-8.53874e-10 9.17442e-09 0)
(-1.77214e-10 1.35042e-08 0)
(3.69936e-10 1.56234e-08 0)
(3.48698e-10 1.43421e-08 0)
(3.5456e-10 9.61373e-09 0)
(5.33737e-10 2.90022e-09 0)
(3.88877e-10 -2.84274e-09 0)
(1.91055e-12 -6.03897e-09 0)
(-5.20919e-10 -5.24991e-09 0)
(-7.49956e-10 -1.62187e-09 0)
(-7.61536e-10 3.53765e-09 0)
(-8.52897e-10 9.4732e-09 0)
(-1.02322e-09 1.23725e-08 0)
(-1.12963e-09 1.75446e-08 0)
(-1.05849e-09 1.58783e-08 0)
(-1.32868e-09 1.49527e-08 0)
(-9.48594e-10 1.01222e-08 0)
(-9.25718e-10 -7.85864e-09 0)
(2.9113e-10 6.28778e-10 0)
(-7.30096e-10 4.09404e-09 0)
(-1.4456e-09 8.93443e-09 0)
(-7.21006e-10 1.34509e-08 0)
(2.37409e-10 1.57209e-08 0)
(9.64597e-10 1.39482e-08 0)
(1.478e-09 8.57859e-09 0)
(1.7147e-09 1.40393e-09 0)
(9.92344e-10 -4.37141e-09 0)
(-3.54321e-10 -7.19389e-09 0)
(-1.51676e-09 -5.89836e-09 0)
(-2.15512e-09 -1.7051e-09 0)
(-2.53234e-09 3.8387e-09 0)
(-2.54989e-09 9.76411e-09 0)
(-2.46576e-09 1.24745e-08 0)
(-1.90557e-09 1.71505e-08 0)
(-6.93983e-10 1.5003e-08 0)
(-4.10134e-10 1.38664e-08 0)
(1.10126e-09 8.75738e-09 0)
(-2.71953e-10 -8.35734e-09 0)
(3.38625e-10 9.02795e-10 0)
(-1.02613e-09 4.34588e-09 0)
(-1.65032e-09 8.34609e-09 0)
(-4.6312e-10 1.21082e-08 0)
(2.44326e-10 1.44893e-08 0)
(1.35924e-10 1.37725e-08 0)
(2.52264e-10 1.00032e-08 0)
(7.76352e-10 4.31291e-09 0)
(9.10208e-10 -8.2623e-10 0)
(1.57908e-10 -3.72086e-09 0)
(-6.27544e-10 -3.44516e-09 0)
(-1.07455e-09 -9.48034e-10 0)
(-1.70885e-09 2.84601e-09 0)
(-2.34892e-09 7.4604e-09 0)
(-2.93803e-09 9.71477e-09 0)
(-3.18429e-09 1.413e-08 0)
(-2.41667e-09 1.27898e-08 0)
(-2.37019e-09 1.22026e-08 0)
(-9.16591e-10 8.47869e-09 0)
(-1.23446e-09 -6.73556e-09 0)
(4.32924e-10 1.58583e-09 0)
(-1.38101e-09 5.08306e-09 0)
(-2.42819e-09 8.95954e-09 0)
(-9.41863e-10 1.2921e-08 0)
(6.9323e-10 1.49195e-08 0)
(1.59438e-09 1.31196e-08 0)
(2.36981e-09 8.11138e-09 0)
(2.56334e-09 1.85062e-09 0)
(1.80934e-09 -3.54249e-09 0)
(-3.87742e-10 -6.16708e-09 0)
(-2.98869e-09 -5.08812e-09 0)
(-4.49861e-09 -1.79555e-09 0)
(-5.17263e-09 2.46122e-09 0)
(-4.86553e-09 7.06989e-09 0)
(-4.33129e-09 9.28788e-09 0)
(-3.12164e-09 1.34399e-08 0)
(-8.19398e-10 1.19845e-08 0)
(1.3916e-12 1.13179e-08 0)
(2.6987e-09 7.04612e-09 0)
(2.52638e-10 -7.18583e-09 0)
(4.20459e-10 1.39324e-09 0)
(-1.31394e-09 3.58268e-09 0)
(-2.08056e-09 5.55163e-09 0)
(-8.14794e-10 8.53085e-09 0)
(2.83675e-10 1.07695e-08 0)
(2.85284e-10 1.072e-08 0)
(8.88019e-10 7.5133e-09 0)
(1.06673e-09 3.32208e-09 0)
(6.10253e-10 -3.77352e-10 0)
(-4.20408e-10 -2.69811e-09 0)
(-1.99234e-09 -2.58041e-09 0)
(-3.10365e-09 -8.74516e-10 0)
(-3.83083e-09 1.75617e-09 0)
(-3.9745e-09 5.16602e-09 0)
(-3.94817e-09 6.94212e-09 0)
(-3.66038e-09 1.03556e-08 0)
(-2.26383e-09 9.28469e-09 0)
(-2.05019e-09 8.6378e-09 0)
(1.32476e-10 5.90029e-09 0)
(-1.02931e-09 -5.20667e-09 0)
(4.73259e-10 1.82591e-09 0)
(-1.57353e-09 5.07325e-09 0)
(-2.45331e-09 7.92337e-09 0)
(-8.78258e-10 1.11278e-08 0)
(1.44339e-09 1.24274e-08 0)
(1.8064e-09 1.20184e-08 0)
(2.72681e-09 8.34568e-09 0)
(3.23909e-09 4.26873e-09 0)
(2.02857e-09 4.57582e-10 0)
(-1.68866e-10 -2.12571e-09 0)
(-2.78339e-09 -2.21763e-09 0)
(-4.87141e-09 -4.36344e-10 0)
(-6.26306e-09 2.13294e-09 0)
(-6.1865e-09 4.83025e-09 0)
(-5.3778e-09 5.8885e-09 0)
(-3.92248e-09 8.50134e-09 0)
(-1.24244e-09 7.65165e-09 0)
(-5.19946e-10 7.50264e-09 0)
(2.64793e-09 4.97014e-09 0)
(6.15154e-10 -4.65247e-09 0)
(1.04596e-09 1.75777e-09 0)
(-5.56697e-10 3.3162e-09 0)
(-2.16151e-09 5.08725e-09 0)
(-1.00129e-09 7.32264e-09 0)
(8.87712e-10 8.137e-09 0)
(1.06336e-09 7.18695e-09 0)
(2.61552e-10 4.12307e-09 0)
(1.42373e-09 6.54881e-10 0)
(5.73108e-10 -1.78187e-09 0)
(-1.12439e-09 -3.28851e-09 0)
(-3.36954e-09 -3.05786e-09 0)
(-5.00493e-09 -1.39112e-09 0)
(-5.8858e-09 1.02826e-09 0)
(-5.48765e-09 3.53053e-09 0)
(-4.76072e-09 4.6027e-09 0)
(-3.74679e-09 6.52626e-09 0)
(-1.73293e-09 5.61756e-09 0)
(-1.38634e-09 5.20798e-09 0)
(1.9618e-09 2.97502e-09 0)
(-2.60067e-10 -3.96693e-09 0)
(1.46127e-10 9.42293e-10 0)
(-1.54292e-09 9.82584e-10 0)
(-2.33887e-09 1.03336e-09 0)
(-1.0947e-09 1.07383e-09 0)
(1.53967e-10 2.76377e-09 0)
(1.46802e-09 2.22741e-09 0)
(3.02776e-09 3.87527e-09 0)
(2.38081e-09 3.0259e-09 0)
(2.51363e-09 2.1061e-09 0)
(-4.53961e-10 1.20443e-09 0)
(-3.19198e-09 3.58053e-10 0)
(-4.95977e-09 5.38857e-12 0)
(-6.29261e-09 2.68345e-10 0)
(-6.43711e-09 1.0578e-09 0)
(-5.69565e-09 1.43143e-09 0)
(-4.13865e-09 2.38984e-09 0)
(-1.33976e-09 2.31172e-09 0)
(-7.37087e-10 2.28487e-09 0)
(2.40618e-09 2.2352e-09 0)
(5.60441e-10 -8.30153e-10 0)
(2.89305e-10 6.71441e-10 0)
(-9.08942e-10 1.89468e-09 0)
(-1.94623e-09 3.23919e-09 0)
(-8.36092e-11 3.95708e-09 0)
(2.14343e-09 4.91705e-09 0)
(3.14432e-09 2.78786e-09 0)
(3.01536e-09 2.50103e-09 0)
(3.38678e-09 4.74301e-10 0)
(1.07092e-09 -1.55722e-09 0)
(-1.26237e-09 -2.2299e-09 0)
(-3.4994e-09 -1.67363e-09 0)
(-4.54742e-09 -2.07456e-10 0)
(-5.47893e-09 1.3943e-09 0)
(-5.74236e-09 2.44272e-09 0)
(-5.40441e-09 2.61665e-09 0)
(-4.17899e-09 3.06708e-09 0)
(-1.64901e-09 2.45557e-09 0)
(-1.11215e-09 2.28725e-09 0)
(2.24209e-09 5.62222e-10 0)
(4.53909e-11 -2.26565e-09 0)
)
;

boundaryField
{
    sides
    {
        type            calculated;
        value           nonuniform List<vector> 
40
(
(2.89305e-10 0 0)
(-9.08942e-10 0 0)
(-1.94623e-09 0 0)
(-8.36092e-11 0 0)
(2.14343e-09 0 0)
(3.14432e-09 0 0)
(3.01536e-09 0 0)
(3.38678e-09 0 0)
(1.07092e-09 0 0)
(-1.26237e-09 0 0)
(-3.4994e-09 0 0)
(-4.54742e-09 0 0)
(-5.47893e-09 0 0)
(-5.74236e-09 0 0)
(-5.40441e-09 0 0)
(-4.17899e-09 0 0)
(-1.64901e-09 0 0)
(-1.11215e-09 0 0)
(2.24209e-09 0 0)
(4.53909e-11 0 0)
(-2.43695e-10 0 0)
(8.20494e-10 0 0)
(1.86085e-09 0 0)
(3.99229e-10 0 0)
(-3.01653e-09 0 0)
(-3.71531e-09 0 0)
(-3.27084e-09 0 0)
(-3.96807e-09 0 0)
(-1.6963e-09 0 0)
(1.47044e-09 0 0)
(3.89877e-09 0 0)
(5.09668e-09 0 0)
(5.81795e-09 0 0)
(5.69023e-09 0 0)
(5.20787e-09 0 0)
(4.08255e-09 0 0)
(1.64293e-09 0 0)
(1.12238e-09 0 0)
(-2.2455e-09 0 0)
(-5.46644e-11 0 0)
)
;
    }
    inlet
    {
        type            calculated;
        value           uniform (0 0 0);
    }
    outlet
    {
        type            calculated;
        value           nonuniform List<vector> 
20
(
(-5.46644e-11 -2.25989e-09 0)
(-5.54883e-10 -8.28796e-10 0)
(2.69553e-10 -3.96719e-09 0)
(-6.07782e-10 -4.62636e-09 0)
(1.03297e-09 -5.19256e-09 0)
(-2.74766e-10 -7.16027e-09 0)
(1.20366e-09 -6.73668e-09 0)
(2.43292e-10 -8.378e-09 0)
(9.3898e-10 -7.89276e-09 0)
(-1.93995e-10 -8.58264e-09 0)
(2.47676e-10 -8.56464e-09 0)
(-9.25718e-10 -7.85864e-09 0)
(-2.71953e-10 -8.35734e-09 0)
(-1.23446e-09 -6.73556e-09 0)
(2.52638e-10 -7.18583e-09 0)
(-1.02931e-09 -5.20667e-09 0)
(6.15154e-10 -4.65247e-09 0)
(-2.60067e-10 -3.96693e-09 0)
(5.60441e-10 -8.30153e-10 0)
(4.53909e-11 -2.26565e-09 0)
)
;
    }
    frontAndBack
    {
        type            empty;
    }
}


// ************************************************************************* //
