/*--------------------------------*- C++ -*----------------------------------*\
  =========                 |
  \\      /  F ield         | OpenFOAM: The Open Source CFD Toolbox
   \\    /   O peration     | Website:  https://openfoam.org
    \\  /    A nd           | Version:  7
     \\/     M anipulation  |
\*---------------------------------------------------------------------------*/
FoamFile
{
    version     2.0;
    format      ascii;
    class       surfaceScalarField;
    location    "33";
    object      ddtCorrDdt0(phi);
}
// * * * * * * * * * * * * * * * * * * * * * * * * * * * * * * * * * * * * * //

dimensions      [0 4 -2 0 0 0 0];

internalField   nonuniform List<scalar> 
760
(
4.35954e-12
4.61549e-12
2.59133e-12
8.06444e-12
4.34127e-12
1.25404e-11
-1.42604e-12
1.15368e-10
-1.68893e-11
-5.54109e-11
-2.17779e-11
3.20742e-10
-1.43436e-11
3.92452e-10
-1.67543e-11
1.52318e-10
1.2617e-12
1.16593e-11
1.35717e-11
-6.21803e-14
2.20145e-11
-1.03453e-12
2.73273e-11
7.67764e-14
2.92969e-11
2.67037e-12
2.71766e-11
6.18672e-12
2.29675e-11
7.62349e-12
1.45258e-11
1.13062e-11
6.69393e-12
1.01936e-11
-1.70247e-12
1.02677e-11
-7.24132e-12
6.66128e-12
-7.27969e-12
8.51984e-12
4.60764e-12
7.53569e-12
1.6691e-11
5.02162e-12
2.25401e-11
3.78699e-12
3.05461e-11
3.24573e-12
3.78805e-11
-5.72312e-12
1.4166e-11
-1.73235e-11
8.81223e-12
-9.81048e-12
4.13264e-12
-3.22161e-12
1.07176e-12
8.04414e-12
-6.63712e-12
1.94398e-11
-7.7091e-12
2.81749e-11
-3.77174e-12
3.20328e-11
3.33203e-12
2.9905e-11
1.21794e-11
2.42184e-11
1.66872e-11
1.40315e-11
2.46418e-11
5.11376e-12
2.18278e-11
-2.82464e-12
2.01154e-11
-8.61116e-12
1.34197e-11
-1.26548e-11
-2.10781e-12
-7.10826e-12
7.70802e-12
1.72182e-11
5.97084e-12
2.78818e-11
3.65333e-12
4.0929e-11
-4.55301e-12
4.73307e-11
-4.93162e-12
4.83434e-11
-6.98364e-12
3.40483e-11
2.43458e-13
1.86459e-11
2.92307e-12
-2.21973e-13
1.03684e-11
-1.04462e-11
1.96948e-11
-1.10396e-11
2.5997e-11
-3.81186e-12
2.77404e-11
7.13292e-12
2.5013e-11
1.94005e-11
2.11597e-11
2.45424e-11
1.41367e-11
3.56062e-11
7.76718e-12
3.16147e-11
-4.52538e-13
3.06339e-11
-5.92671e-12
2.01142e-11
-2.05645e-11
6.52177e-12
9.46805e-12
8.65438e-12
2.28398e-11
6.40204e-12
3.41816e-11
4.31688e-13
5.03766e-11
-6.21668e-12
5.85149e-11
-1.17155e-11
5.66172e-11
-1.63676e-11
3.71011e-11
-1.1501e-11
1.48389e-11
-4.43287e-12
-4.68579e-12
6.09642e-12
-1.7986e-11
1.78255e-11
-1.69639e-11
2.68557e-11
-6.96521e-12
3.09087e-11
7.96916e-12
2.89841e-11
2.52459e-11
2.35269e-11
3.36591e-11
1.3481e-11
4.93834e-11
4.38562e-12
4.40538e-11
-3.92007e-12
4.14063e-11
-9.14585e-12
2.6851e-11
-2.55695e-11
4.69609e-12
8.06673e-12
6.32699e-12
2.30596e-11
6.60891e-12
3.73554e-11
1.88901e-12
5.35997e-11
1.4926e-12
6.48405e-11
-5.48615e-12
5.88408e-11
-5.02332e-12
4.04401e-11
-3.22001e-12
1.57696e-11
-1.68597e-12
-7.96371e-12
5.03011e-12
-1.94664e-11
1.16167e-11
-1.7077e-11
1.67162e-11
-5.93125e-12
2.01057e-11
1.02739e-11
2.05088e-11
2.95785e-11
1.93866e-11
3.88445e-11
1.51193e-11
5.7235e-11
1.07073e-11
5.14934e-11
5.56414e-12
4.90284e-11
9.43729e-13
3.3302e-11
-2.99367e-11
5.553e-12
5.18162e-12
7.52192e-12
2.15518e-11
7.12445e-12
4.14959e-11
1.66436e-12
6.07365e-11
-3.84089e-12
7.28636e-11
-1.12868e-11
6.62947e-11
-1.21835e-11
4.46106e-11
-1.18627e-11
1.26352e-11
-3.73813e-12
-1.33292e-11
8.1182e-12
-2.6239e-11
1.76277e-11
-2.22794e-11
2.40698e-11
-6.72869e-12
2.62421e-11
1.46705e-11
2.38345e-11
3.83176e-11
1.89356e-11
4.93392e-11
1.01229e-11
7.04486e-11
2.06024e-12
6.27946e-11
-5.45172e-12
5.9009e-11
-8.18076e-12
3.77775e-11
-3.56284e-11
4.38948e-12
3.51617e-12
5.40243e-12
2.09747e-11
3.85167e-12
4.39536e-11
2.06742e-12
6.45619e-11
-7.43639e-15
7.50123e-11
-1.57028e-12
6.87391e-11
-3.35351e-12
4.5705e-11
-4.43805e-12
1.38902e-11
-1.91662e-12
-1.27022e-11
9.09801e-13
-2.72497e-11
3.70206e-12
-2.36352e-11
7.54397e-12
-6.65551e-12
1.11641e-11
1.66408e-11
1.35642e-11
4.24635e-11
1.51898e-11
5.43998e-11
1.41595e-11
7.71531e-11
1.22415e-11
6.89337e-11
8.99729e-12
6.50885e-11
4.47475e-12
4.38948e-11
-3.72318e-11
2.99435e-12
2.56938e-12
4.99984e-12
2.0314e-11
4.40273e-12
4.46454e-11
2.15007e-12
6.72571e-11
-2.36463e-12
7.89813e-11
-6.41761e-12
7.21856e-11
-8.49746e-12
4.71743e-11
-6.61072e-12
1.2587e-11
-1.1043e-12
-1.62606e-11
4.46914e-12
-3.1773e-11
9.41018e-12
-2.66117e-11
1.22697e-11
-7.16563e-12
1.29157e-11
1.90241e-11
1.22872e-11
4.82475e-11
1.06673e-11
6.23455e-11
6.69284e-12
8.71751e-11
3.06007e-12
7.75601e-11
-8.70235e-13
7.21628e-11
-2.64307e-12
4.68356e-11
-4.08157e-11
1.9029e-12
1.6482e-12
3.17013e-12
2.01499e-11
2.02421e-12
4.59021e-11
2.46205e-13
6.84044e-11
-1.34533e-12
7.9363e-11
-1.84615e-12
7.24132e-11
-2.73131e-12
4.70749e-11
-2.14689e-12
1.22106e-11
-9.05753e-13
-1.73528e-11
1.22306e-12
-3.24786e-11
3.42427e-12
-2.65877e-11
3.60866e-12
-6.68815e-12
3.62576e-12
2.07379e-11
4.42563e-12
5.14065e-11
5.23587e-12
6.57383e-11
5.47894e-12
9.10445e-11
6.09151e-12
8.11904e-11
6.05702e-12
7.51929e-11
4.30159e-12
4.94526e-11
-4.13273e-11
5.0847e-13
1.57427e-12
1.09729e-12
2.04474e-11
1.00268e-12
4.60563e-11
6.55538e-13
6.87219e-11
-2.79683e-14
8.00498e-11
-1.02982e-12
7.31094e-11
-2.08343e-12
4.74792e-11
-1.80361e-12
1.25718e-11
-1.08574e-12
-1.73522e-11
1.74673e-13
-3.27894e-11
1.33709e-12
-2.75175e-11
2.00403e-12
-7.90545e-12
3.02272e-12
2.03593e-11
3.90996e-12
5.21959e-11
3.58641e-12
6.74492e-11
1.89532e-12
9.40352e-11
2.68146e-13
8.44685e-11
-1.5782e-12
7.84316e-11
-2.15105e-12
5.06269e-11
-4.25281e-11
-4.20838e-13
1.97062e-12
-1.01776e-12
2.03032e-11
-8.56458e-13
4.6064e-11
-5.86771e-13
6.85441e-11
7.95894e-14
7.93696e-11
9.65451e-13
7.2296e-11
2.02326e-12
4.68337e-11
1.66526e-12
1.18496e-11
9.66701e-13
-1.76744e-11
-2.39985e-13
-3.28653e-11
-1.51412e-12
-2.69568e-11
-2.33565e-12
-6.81443e-12
-3.36821e-12
2.08481e-11
-4.08777e-12
5.15352e-11
-3.64235e-12
6.57108e-11
-2.0711e-12
9.0886e-11
-6.46516e-13
8.11064e-11
1.25399e-12
7.53472e-11
2.25384e-12
4.97434e-11
-4.11646e-11
-1.98015e-12
2.87565e-12
-3.09849e-12
2.05984e-11
-1.88453e-12
4.50201e-11
-2.15718e-13
6.72397e-11
1.41782e-12
7.88219e-11
1.81269e-12
7.17217e-11
2.72566e-12
4.67478e-11
2.22047e-12
1.19219e-11
8.61198e-13
-1.68479e-11
-1.09871e-12
-3.23056e-11
-3.15796e-12
-2.7366e-11
-3.5718e-12
-7.8497e-12
-3.92906e-12
1.87828e-11
-4.80912e-12
4.83555e-11
-5.43172e-12
6.24773e-11
-5.49859e-12
8.71552e-11
-6.11191e-12
7.75267e-11
-6.12225e-12
7.23393e-11
-4.28054e-12
4.71301e-11
-4.06479e-11
-3.13309e-12
3.59794e-12
-4.8811e-12
2.13504e-11
-4.5613e-12
4.40089e-11
-2.09619e-12
6.4192e-11
2.29682e-12
7.47887e-11
6.56094e-12
6.8178e-11
8.35191e-12
4.55226e-11
6.90961e-12
1.36678e-11
1.19723e-12
-1.3284e-11
-4.51511e-12
-2.74599e-11
-8.89367e-12
-2.39414e-11
-1.15081e-11
-7.45703e-12
-1.26346e-11
1.58665e-11
-1.25718e-11
4.21937e-11
-1.10049e-11
5.45508e-11
-6.68739e-12
7.73442e-11
-2.81391e-12
6.90101e-11
1.0457e-12
6.51729e-11
2.57971e-12
4.3958e-11
-3.71845e-11
-4.28101e-12
5.10606e-12
-5.51646e-12
2.16129e-11
-4.3515e-12
4.09709e-11
-1.8604e-12
6.06829e-11
-4.30434e-13
7.25247e-11
2.04901e-12
6.66413e-11
3.00963e-12
4.45022e-11
4.29176e-12
1.37487e-11
2.41312e-12
-1.30647e-11
-1.1566e-12
-2.63172e-11
-3.8413e-12
-2.19118e-11
-6.72468e-12
-6.71237e-12
-1.01428e-11
1.40517e-11
-1.32349e-11
3.76742e-11
-1.54152e-11
4.91651e-11
-1.42861e-11
7.05745e-11
-1.20278e-11
6.28886e-11
-8.73408e-12
5.90002e-11
-4.50277e-12
3.76168e-11
-3.57062e-11
-5.26802e-12
7.87992e-12
-8.07925e-12
2.26058e-11
-7.25302e-12
3.696e-11
-1.84668e-12
5.39894e-11
3.75329e-12
6.48527e-11
1.11509e-11
5.99762e-11
1.28651e-11
4.05887e-11
1.04804e-11
1.64009e-11
3.62883e-12
-6.13791e-12
-8.0411e-12
-1.87088e-11
-1.83566e-11
-1.64678e-11
-2.41479e-11
-5.21497e-12
-2.52494e-11
1.04041e-11
-2.28763e-11
2.91143e-11
-1.87065e-11
3.84181e-11
-1.02573e-11
5.71081e-11
-2.0316e-12
5.14969e-11
5.62568e-12
4.8988e-11
8.18335e-12
3.30864e-11
-3.00452e-11
-4.62326e-12
9.13222e-12
-7.00835e-12
2.21978e-11
-6.17617e-12
3.43565e-11
-2.64336e-12
5.09964e-11
-6.12835e-13
5.8882e-11
4.16849e-12
5.7473e-11
6.34238e-12
3.8259e-11
2.98591e-12
1.46611e-11
2.80556e-13
-3.98882e-12
-5.33999e-12
-1.68413e-11
-1.24158e-11
-1.6071e-11
-1.76434e-11
-5.89724e-12
-1.99206e-11
8.81726e-12
-1.9586e-11
2.5386e-11
-1.88032e-11
3.33683e-11
-1.5106e-11
4.91124e-11
-1.08174e-11
4.39415e-11
-5.55785e-12
4.13556e-11
-9.05413e-13
2.66526e-11
-2.56751e-11
-6.85301e-12
-6.49286e-12
-8.64967e-12
1.71271e-11
-5.56154e-12
2.84575e-11
-1.268e-12
4.08003e-11
7.36652e-12
4.78963e-11
1.10851e-11
4.84808e-11
1.66456e-11
3.00344e-11
1.25076e-11
1.69955e-11
3.84081e-12
-5.52594e-13
-6.41332e-12
-1.02232e-11
-1.84225e-11
-1.06643e-11
-2.82196e-11
-3.07448e-12
-3.17415e-11
8.1004e-12
-2.87193e-11
2.0007e-11
-2.29454e-11
2.46103e-11
-1.326e-11
3.54167e-11
-4.45655e-12
3.14665e-11
3.84849e-12
3.05869e-11
9.17156e-12
1.9993e-11
-2.06231e-11
1.45028e-12
4.79149e-12
-6.4348e-12
1.7816e-11
-5.20353e-12
2.31901e-11
-4.87427e-12
2.90752e-11
7.72184e-12
3.37927e-11
4.83173e-14
1.38946e-11
7.66488e-12
2.13294e-11
3.33645e-12
2.48261e-12
-2.08165e-12
-1.12742e-12
-1.04718e-11
-7.85035e-12
-2.03992e-11
-8.56702e-12
-2.76282e-11
-4.27103e-12
-2.92307e-11
3.59951e-12
-2.54412e-11
1.28104e-11
-2.0861e-11
1.71083e-11
-1.38433e-11
2.47018e-11
-7.73738e-12
2.17573e-11
3.93532e-13
2.00954e-11
5.95228e-12
1.33785e-11
-1.26551e-11
-8.74735e-12
5.14897e-12
-6.6924e-12
9.00681e-12
-4.93019e-12
1.16658e-11
-6.75817e-12
1.39107e-10
4.62846e-12
1.0687e-10
9.12472e-12
2.67774e-10
1.59025e-11
3.72787e-10
1.23829e-11
1.56149e-10
3.90304e-12
9.90334e-12
-8.71003e-12
-1.99065e-12
-1.97845e-11
-2.77483e-12
-2.81719e-11
-1.01128e-12
-3.23231e-11
2.63372e-12
-3.03476e-11
6.79631e-12
-2.43706e-11
8.17398e-12
-1.39614e-11
1.1524e-11
-5.09093e-12
1.0206e-11
2.76255e-12
1.02766e-11
8.5964e-12
6.64488e-12
-7.28915e-12
-3.49093e-12
-3.6566e-12
-6.01698e-12
6.9639e-12
4.19733e-12
2.47107e-11
1.32351e-11
1.09824e-11
-1.2573e-12
-1.21818e-11
-1.94721e-11
-2.47749e-11
-2.86572e-11
-2.80514e-11
-2.37762e-11
-1.4715e-11
-6.65389e-12
1.70851e-12
7.20771e-12
)
;

boundaryField
{
    sides
    {
        type            calculated;
        value           uniform 0;
    }
    inlet
    {
        type            calculated;
        value           uniform 0;
    }
    outlet
    {
        type            calculated;
        value           nonuniform List<scalar> 
20
(
4.11056e-13
-2.93734e-12
2.44354e-12
-3.56332e-12
6.09069e-12
-1.78959e-12
6.61502e-12
1.11207e-12
4.74097e-12
-8.60594e-13
1.24513e-12
-4.64683e-12
-1.32379e-12
-6.85574e-12
1.62688e-12
-6.07085e-12
3.64125e-12
-2.35543e-12
3.00423e-12
-4.37975e-13
)
;
    }
    frontAndBack
    {
        type            empty;
        value           nonuniform 0();
    }
}


// ************************************************************************* //
