/*--------------------------------*- C++ -*----------------------------------*\
  =========                 |
  \\      /  F ield         | OpenFOAM: The Open Source CFD Toolbox
   \\    /   O peration     | Website:  https://openfoam.org
    \\  /    A nd           | Version:  7
     \\/     M anipulation  |
\*---------------------------------------------------------------------------*/
FoamFile
{
    version     2.0;
    format      ascii;
    class       volVectorField;
    location    "33";
    object      hU_0;
}
// * * * * * * * * * * * * * * * * * * * * * * * * * * * * * * * * * * * * * //

dimensions      [0 2 -1 0 0 0 0];

internalField   nonuniform List<vector> 
400
(
(0.001 -8.7228e-09 0)
(0.000999999 -2.37929e-08 0)
(0.000999997 -3.64693e-08 0)
(0.000999999 -4.82355e-08 0)
(0.001 -5.9933e-08 0)
(0.00100001 -7.17932e-08 0)
(0.00100002 -8.24714e-08 0)
(0.00100003 -9.29059e-08 0)
(0.00100004 -1.02017e-07 0)
(0.00100006 -1.11908e-07 0)
(0.00100008 -1.20715e-07 0)
(0.0010001 -1.33148e-07 0)
(0.00100012 -1.43267e-07 0)
(0.00100015 -1.60845e-07 0)
(0.00100017 -1.70602e-07 0)
(0.00100024 -1.96012e-07 0)
(0.00100026 -2.02002e-07 0)
(0.00100038 -2.44833e-07 0)
(0.00100038 -2.42655e-07 0)
(0.00100061 -3.33354e-07 0)
(0.001 4.25882e-09 0)
(0.001 1.25706e-08 0)
(0.00100001 2.10373e-08 0)
(0.00100001 2.92164e-08 0)
(0.00100001 3.63745e-08 0)
(0.00100002 4.22228e-08 0)
(0.00100003 4.7749e-08 0)
(0.00100004 5.26541e-08 0)
(0.00100006 5.79357e-08 0)
(0.00100007 6.20305e-08 0)
(0.00100009 6.7174e-08 0)
(0.00100011 6.93183e-08 0)
(0.00100012 7.40832e-08 0)
(0.00100016 7.14003e-08 0)
(0.00100018 7.53612e-08 0)
(0.00100023 6.23877e-08 0)
(0.00100026 6.63403e-08 0)
(0.00100035 3.04878e-08 0)
(0.00100037 3.63784e-08 0)
(0.00100051 -5.76271e-08 0)
(0.001 -3.42032e-09 0)
(0.000999999 -1.21559e-08 0)
(0.000999997 -2.22865e-08 0)
(0.000999998 -3.38678e-08 0)
(0.001 -4.63572e-08 0)
(0.00100001 -5.9035e-08 0)
(0.00100002 -7.0811e-08 0)
(0.00100003 -8.19184e-08 0)
(0.00100004 -9.14604e-08 0)
(0.00100005 -1.02285e-07 0)
(0.00100007 -1.12047e-07 0)
(0.00100009 -1.2725e-07 0)
(0.0010001 -1.4035e-07 0)
(0.00100014 -1.64743e-07 0)
(0.00100016 -1.8137e-07 0)
(0.00100021 -2.19853e-07 0)
(0.00100023 -2.38117e-07 0)
(0.00100031 -3.01243e-07 0)
(0.00100033 -3.14449e-07 0)
(0.00100047 -4.2735e-07 0)
(0.001 6.42399e-10 0)
(0.001 1.37735e-09 0)
(0.001 1.84509e-09 0)
(0.00100001 1.116e-09 0)
(0.00100001 -8.01958e-10 0)
(0.00100002 -3.56351e-09 0)
(0.00100003 -5.60315e-09 0)
(0.00100004 -7.3181e-09 0)
(0.00100005 -7.36446e-09 0)
(0.00100006 -8.69364e-09 0)
(0.00100007 -9.02182e-09 0)
(0.00100009 -1.56126e-08 0)
(0.00100011 -2.07521e-08 0)
(0.00100013 -3.86786e-08 0)
(0.00100015 -4.9511e-08 0)
(0.00100019 -8.37129e-08 0)
(0.00100022 -9.88664e-08 0)
(0.00100028 -1.59605e-07 0)
(0.0010003 -1.7229e-07 0)
(0.00100039 -2.83652e-07 0)
(0.001 -1.84123e-09 0)
(0.001 -7.21776e-09 0)
(0.001 -1.39993e-08 0)
(0.001 -2.2879e-08 0)
(0.001 -3.38725e-08 0)
(0.00100001 -4.65107e-08 0)
(0.00100002 -5.86112e-08 0)
(0.00100002 -7.02638e-08 0)
(0.00100003 -8.02008e-08 0)
(0.00100004 -9.16807e-08 0)
(0.00100006 -1.02285e-07 0)
(0.00100007 -1.1934e-07 0)
(0.00100009 -1.34828e-07 0)
(0.00100011 -1.63817e-07 0)
(0.00100013 -1.85937e-07 0)
(0.00100016 -2.32357e-07 0)
(0.00100018 -2.5945e-07 0)
(0.00100024 -3.31946e-07 0)
(0.00100025 -3.54278e-07 0)
(0.00100033 -4.73228e-07 0)
(0.001 -1.36587e-09 0)
(0.001 -5.31973e-09 0)
(0.001 -1.04863e-08 0)
(0.001 -1.76711e-08 0)
(0.00100001 -2.65884e-08 0)
(0.00100001 -3.6344e-08 0)
(0.00100002 -4.46661e-08 0)
(0.00100003 -5.16316e-08 0)
(0.00100003 -5.61039e-08 0)
(0.00100004 -6.18997e-08 0)
(0.00100005 -6.72453e-08 0)
(0.00100007 -8.02655e-08 0)
(0.00100008 -9.2961e-08 0)
(0.0010001 -1.20551e-07 0)
(0.00100011 -1.41947e-07 0)
(0.00100014 -1.88277e-07 0)
(0.00100016 -2.16073e-07 0)
(0.0010002 -2.87919e-07 0)
(0.00100021 -3.11209e-07 0)
(0.00100027 -4.26026e-07 0)
(0.001 -1.53511e-09 0)
(0.001 -6.04279e-09 0)
(0.001 -1.24101e-08 0)
(0.001 -2.11955e-08 0)
(0.001 -3.23745e-08 0)
(0.00100001 -4.54117e-08 0)
(0.00100001 -5.81059e-08 0)
(0.00100002 -7.0178e-08 0)
(0.00100002 -8.01409e-08 0)
(0.00100003 -9.15138e-08 0)
(0.00100004 -1.02161e-07 0)
(0.00100005 -1.20214e-07 0)
(0.00100006 -1.3753e-07 0)
(0.00100008 -1.69856e-07 0)
(0.00100009 -1.95886e-07 0)
(0.00100011 -2.4728e-07 0)
(0.00100012 -2.7999e-07 0)
(0.00100015 -3.57087e-07 0)
(0.00100016 -3.847e-07 0)
(0.00100021 -5.04479e-07 0)
(0.001 -1.69804e-09 0)
(0.001 -6.42562e-09 0)
(0.001 -1.33993e-08 0)
(0.001 -2.32773e-08 0)
(0.001 -3.56689e-08 0)
(0.00100001 -4.9429e-08 0)
(0.00100001 -6.19236e-08 0)
(0.00100001 -7.28039e-08 0)
(0.00100002 -8.09288e-08 0)
(0.00100003 -9.02857e-08 0)
(0.00100003 -9.9279e-08 0)
(0.00100004 -1.16482e-07 0)
(0.00100004 -1.33804e-07 0)
(0.00100005 -1.66971e-07 0)
(0.00100006 -1.94274e-07 0)
(0.00100008 -2.47001e-07 0)
(0.00100009 -2.81321e-07 0)
(0.00100011 -3.58469e-07 0)
(0.00100012 -3.87147e-07 0)
(0.00100015 -5.03676e-07 0)
(0.001 -1.75487e-09 0)
(0.001 -6.65795e-09 0)
(0.001 -1.40759e-08 0)
(0.001 -2.43802e-08 0)
(0.001 -3.70112e-08 0)
(0.001 -5.1169e-08 0)
(0.00100001 -6.45438e-08 0)
(0.00100001 -7.67881e-08 0)
(0.00100001 -8.65246e-08 0)
(0.00100001 -9.75433e-08 0)
(0.00100002 -1.08021e-07 0)
(0.00100002 -1.26543e-07 0)
(0.00100003 -1.44918e-07 0)
(0.00100003 -1.79246e-07 0)
(0.00100004 -2.07745e-07 0)
(0.00100005 -2.6209e-07 0)
(0.00100005 -2.98142e-07 0)
(0.00100007 -3.77437e-07 0)
(0.00100007 -4.07818e-07 0)
(0.00100009 -5.26855e-07 0)
(0.001 -1.77528e-09 0)
(0.001 -6.72879e-09 0)
(0.001 -1.42698e-08 0)
(0.001 -2.48684e-08 0)
(0.001 -3.80147e-08 0)
(0.001 -5.2765e-08 0)
(0.001 -6.65582e-08 0)
(0.001 -7.89073e-08 0)
(0.001 -8.8505e-08 0)
(0.00100001 -9.93164e-08 0)
(0.00100001 -1.09754e-07 0)
(0.00100001 -1.28511e-07 0)
(0.00100001 -1.47414e-07 0)
(0.00100001 -1.82494e-07 0)
(0.00100001 -2.11803e-07 0)
(0.00100002 -2.66833e-07 0)
(0.00100002 -3.03553e-07 0)
(0.00100002 -3.82905e-07 0)
(0.00100002 -4.13698e-07 0)
(0.00100003 -5.31559e-07 0)
(0.001 -1.77808e-09 0)
(0.001 -6.73081e-09 0)
(0.001 -1.42695e-08 0)
(0.001 -2.48644e-08 0)
(0.000999999 -3.80087e-08 0)
(0.000999999 -5.27576e-08 0)
(0.000999998 -6.65515e-08 0)
(0.000999997 -7.89012e-08 0)
(0.000999996 -8.84998e-08 0)
(0.000999995 -9.93117e-08 0)
(0.000999994 -1.09748e-07 0)
(0.000999992 -1.28503e-07 0)
(0.000999991 -1.47408e-07 0)
(0.000999989 -1.82489e-07 0)
(0.000999987 -2.11799e-07 0)
(0.000999985 -2.66828e-07 0)
(0.000999983 -3.03546e-07 0)
(0.000999978 -3.82898e-07 0)
(0.000999976 -4.13693e-07 0)
(0.00099997 -5.31555e-07 0)
(0.001 -1.75968e-09 0)
(0.001 -6.6626e-09 0)
(0.001 -1.40738e-08 0)
(0.000999999 -2.43709e-08 0)
(0.000999998 -3.69993e-08 0)
(0.000999996 -5.11552e-08 0)
(0.000999994 -6.45325e-08 0)
(0.000999992 -7.67782e-08 0)
(0.000999989 -8.65149e-08 0)
(0.000999985 -9.75331e-08 0)
(0.000999982 -1.08008e-07 0)
(0.000999978 -1.26522e-07 0)
(0.000999973 -1.44897e-07 0)
(0.000999967 -1.79225e-07 0)
(0.000999961 -2.07729e-07 0)
(0.000999952 -2.62066e-07 0)
(0.000999946 -2.98114e-07 0)
(0.000999933 -3.77394e-07 0)
(0.00099993 -4.07779e-07 0)
(0.00099991 -5.26787e-07 0)
(0.001 -1.69896e-09 0)
(0.000999999 -6.42773e-09 0)
(0.001 -1.33944e-08 0)
(0.000999999 -2.32717e-08 0)
(0.000999997 -3.56619e-08 0)
(0.000999994 -4.94254e-08 0)
(0.000999991 -6.19223e-08 0)
(0.000999986 -7.28099e-08 0)
(0.000999981 -8.09341e-08 0)
(0.000999975 -9.02899e-08 0)
(0.000999969 -9.92849e-08 0)
(0.000999962 -1.16479e-07 0)
(0.000999956 -1.33796e-07 0)
(0.000999946 -1.66961e-07 0)
(0.000999937 -1.9427e-07 0)
(0.000999922 -2.46998e-07 0)
(0.000999912 -2.81318e-07 0)
(0.00099989 -3.58459e-07 0)
(0.000999881 -3.87141e-07 0)
(0.000999849 -5.0365e-07 0)
(0.001 -1.53083e-09 0)
(0.000999999 -6.03735e-09 0)
(0.000999999 -1.24071e-08 0)
(0.000999998 -2.12021e-08 0)
(0.000999995 -3.23793e-08 0)
(0.000999992 -4.54237e-08 0)
(0.000999988 -5.8112e-08 0)
(0.000999982 -7.01894e-08 0)
(0.000999976 -8.01559e-08 0)
(0.000999968 -9.15183e-08 0)
(0.00099996 -1.02167e-07 0)
(0.00099995 -1.20213e-07 0)
(0.00099994 -1.3752e-07 0)
(0.000999925 -1.69823e-07 0)
(0.000999913 -1.95851e-07 0)
(0.000999892 -2.47228e-07 0)
(0.000999878 -2.79939e-07 0)
(0.000999847 -3.57e-07 0)
(0.000999838 -3.84617e-07 0)
(0.00099979 -5.04326e-07 0)
(0.001 -1.35831e-09 0)
(0.000999999 -5.31089e-09 0)
(0.000999999 -1.04928e-08 0)
(0.000999998 -1.76873e-08 0)
(0.000999994 -2.66079e-08 0)
(0.000999989 -3.6367e-08 0)
(0.000999982 -4.469e-08 0)
(0.000999974 -5.16469e-08 0)
(0.000999965 -5.61348e-08 0)
(0.000999955 -6.19274e-08 0)
(0.000999946 -6.72728e-08 0)
(0.000999934 -8.02966e-08 0)
(0.000999922 -9.29952e-08 0)
(0.000999905 -1.20571e-07 0)
(0.000999889 -1.41962e-07 0)
(0.000999863 -1.88287e-07 0)
(0.000999843 -2.16087e-07 0)
(0.000999803 -2.87922e-07 0)
(0.000999786 -3.11213e-07 0)
(0.000999727 -4.25991e-07 0)
(0.001 -1.84036e-09 0)
(0.001 -7.21615e-09 0)
(0.001 -1.401e-08 0)
(0.000999999 -2.28809e-08 0)
(0.000999995 -3.38756e-08 0)
(0.00099999 -4.64986e-08 0)
(0.000999985 -5.86073e-08 0)
(0.000999976 -7.02445e-08 0)
(0.000999967 -8.01861e-08 0)
(0.000999955 -9.16721e-08 0)
(0.000999944 -1.02281e-07 0)
(0.000999928 -1.19336e-07 0)
(0.000999913 -1.3484e-07 0)
(0.00099989 -1.63811e-07 0)
(0.000999872 -1.85929e-07 0)
(0.000999838 -2.32312e-07 0)
(0.000999818 -2.59413e-07 0)
(0.000999764 -3.31858e-07 0)
(0.000999751 -3.54205e-07 0)
(0.000999666 -4.73056e-07 0)
(0.000999999 6.3831e-10 0)
(0.000999998 1.36305e-09 0)
(0.000999997 1.82036e-09 0)
(0.000999994 1.11257e-09 0)
(0.000999989 -8.15082e-10 0)
(0.000999982 -3.53884e-09 0)
(0.000999974 -5.60302e-09 0)
(0.000999964 -7.28436e-09 0)
(0.000999952 -7.32265e-09 0)
(0.000999939 -8.66693e-09 0)
(0.000999926 -9.01263e-09 0)
(0.000999909 -1.56137e-08 0)
(0.000999893 -2.07744e-08 0)
(0.000999868 -3.87009e-08 0)
(0.000999847 -4.95323e-08 0)
(0.000999809 -8.3714e-08 0)
(0.000999782 -9.88644e-08 0)
(0.000999721 -1.59579e-07 0)
(0.000999697 -1.72269e-07 0)
(0.000999606 -2.83574e-07 0)
(0.001 -3.42286e-09 0)
(0.001 -1.21628e-08 0)
(0.001 -2.22821e-08 0)
(0.001 -3.38491e-08 0)
(0.000999997 -4.63221e-08 0)
(0.000999991 -5.90117e-08 0)
(0.000999983 -7.0826e-08 0)
(0.000999973 -8.19199e-08 0)
(0.000999961 -9.14588e-08 0)
(0.000999946 -1.02285e-07 0)
(0.000999933 -1.12053e-07 0)
(0.000999913 -1.27237e-07 0)
(0.000999895 -1.40346e-07 0)
(0.000999865 -1.64736e-07 0)
(0.000999843 -1.81389e-07 0)
(0.000999794 -2.19844e-07 0)
(0.000999768 -2.38131e-07 0)
(0.000999688 -3.01208e-07 0)
(0.00099967 -3.1445e-07 0)
(0.000999534 -4.27265e-07 0)
(0.000999999 4.24589e-09 0)
(0.000999996 1.25661e-08 0)
(0.000999994 2.10678e-08 0)
(0.000999991 2.9207e-08 0)
(0.000999986 3.63776e-08 0)
(0.000999978 4.2186e-08 0)
(0.000999969 4.77958e-08 0)
(0.000999958 5.25976e-08 0)
(0.000999945 5.7897e-08 0)
(0.000999929 6.20455e-08 0)
(0.000999915 6.72215e-08 0)
(0.000999894 6.9393e-08 0)
(0.000999876 7.41423e-08 0)
(0.000999845 7.1444e-08 0)
(0.000999821 7.53738e-08 0)
(0.00099977 6.24196e-08 0)
(0.00099974 6.63622e-08 0)
(0.000999655 3.05581e-08 0)
(0.000999628 3.64338e-08 0)
(0.00099949 -5.74909e-08 0)
(0.001 -8.73209e-09 0)
(0.001 -2.37982e-08 0)
(0.001 -3.64586e-08 0)
(0.001 -4.82689e-08 0)
(0.000999996 -5.99827e-08 0)
(0.000999988 -7.18483e-08 0)
(0.000999979 -8.24334e-08 0)
(0.000999967 -9.29636e-08 0)
(0.000999955 -1.02068e-07 0)
(0.000999938 -1.1192e-07 0)
(0.000999925 -1.2071e-07 0)
(0.000999901 -1.33141e-07 0)
(0.000999885 -1.43282e-07 0)
(0.000999847 -1.60881e-07 0)
(0.000999828 -1.70657e-07 0)
(0.000999763 -1.96072e-07 0)
(0.000999744 -2.02069e-07 0)
(0.000999624 -2.44909e-07 0)
(0.000999616 -2.42738e-07 0)
(0.000999388 -3.33478e-07 0)
)
;

boundaryField
{
    sides
    {
        type            slip;
    }
    inlet
    {
        type            fixedValue;
        value           uniform (0.001 0 0);
    }
    outlet
    {
        type            zeroGradient;
    }
    frontAndBack
    {
        type            empty;
    }
}


// ************************************************************************* //
