/*--------------------------------*- C++ -*----------------------------------*\
  =========                 |
  \\      /  F ield         | OpenFOAM: The Open Source CFD Toolbox
   \\    /   O peration     | Website:  https://openfoam.org
    \\  /    A nd           | Version:  7
     \\/     M anipulation  |
\*---------------------------------------------------------------------------*/
FoamFile
{
    version     2.0;
    format      ascii;
    class       surfaceScalarField;
    location    "33";
    object      phi;
}
// * * * * * * * * * * * * * * * * * * * * * * * * * * * * * * * * * * * * * //

dimensions      [0 4 -1 0 0 0 0];

internalField   nonuniform List<scalar> 
760
(
4.99999e-06
1.12429e-11
4.99998e-06
-2.13033e-12
4.99999e-06
-1.03378e-11
5.00001e-06
-1.8336e-11
5.00004e-06
-2.94303e-11
5.00008e-06
-4.31466e-11
5.00013e-06
-4.63864e-11
5.00019e-06
-6.15882e-11
5.00026e-06
-6.67847e-11
5.00034e-06
-7.83277e-11
5.00043e-06
-8.57427e-11
5.00054e-06
-1.06239e-10
5.00066e-06
-1.17012e-10
5.00082e-06
-1.58643e-10
5.00099e-06
-1.71055e-10
5.00125e-06
-2.53364e-10
5.00151e-06
-2.59357e-10
5.00195e-06
-4.37345e-10
5.00238e-06
-4.28994e-10
-9.03081e-10
5.00002e-06
-9.28288e-12
5.00003e-06
-1.34321e-11
5.00004e-06
-2.22253e-11
5.00006e-06
-3.67169e-11
5.00009e-06
-5.57975e-11
5.00013e-06
-8.0172e-11
5.00018e-06
-1.00339e-10
5.00024e-06
-1.20721e-10
5.00031e-06
-1.343e-10
5.00039e-06
-1.54922e-10
5.00048e-06
-1.68425e-10
5.00058e-06
-2.05964e-10
5.00069e-06
-2.28888e-10
5.00084e-06
-3.04366e-10
5.00101e-06
-3.38664e-10
5.00124e-06
-4.78976e-10
5.00149e-06
-5.16645e-10
5.00184e-06
-7.79908e-10
5.0022e-06
-7.90239e-10
-1.28455e-09
4.99999e-06
-2.44637e-14
4.99999e-06
-1.36807e-11
4.99999e-06
-2.97693e-11
5e-06
-5.21642e-11
5.00003e-06
-8.07808e-11
5.00006e-06
-1.13842e-10
5.00011e-06
-1.45195e-10
5.00016e-06
-1.75383e-10
5.00023e-06
-1.98839e-10
5.0003e-06
-2.27747e-10
5.00038e-06
-2.51175e-10
5.00048e-06
-3.00844e-10
5.0006e-06
-3.42333e-10
5.00073e-06
-4.40288e-10
5.0009e-06
-5.04957e-10
5.0011e-06
-6.76865e-10
5.00134e-06
-7.58078e-10
5.00162e-06
-1.05791e-09
5.00196e-06
-1.1274e-09
-1.72303e-09
5e-06
-6.30048e-12
5.00001e-06
-2.18589e-11
5.00002e-06
-4.17826e-11
5.00004e-06
-7.00284e-11
5.00007e-06
-1.0723e-10
5.00011e-06
-1.5109e-10
5.00015e-06
-1.92117e-10
5.00021e-06
-2.3069e-10
5.00027e-06
-2.59627e-10
5.00034e-06
-2.95295e-10
5.00041e-06
-3.24428e-10
5.0005e-06
-3.86081e-10
5.00059e-06
-4.38961e-10
5.00071e-06
-5.60018e-10
5.00086e-06
-6.44895e-10
5.00103e-06
-8.52128e-10
5.00124e-06
-9.61322e-10
5.00148e-06
-1.30336e-09
5.00175e-06
-1.391e-09
-1.94258e-09
5e-06
-5.45899e-12
5e-06
-2.40114e-11
5e-06
-4.88128e-11
5.00001e-06
-8.31779e-11
5.00003e-06
-1.2743e-10
5.00006e-06
-1.79555e-10
5.0001e-06
-2.29041e-10
5.00014e-06
-2.7549e-10
5.00019e-06
-3.1209e-10
5.00025e-06
-3.54783e-10
5.00032e-06
-3.92931e-10
5.0004e-06
-4.64457e-10
5.00049e-06
-5.30987e-10
5.0006e-06
-6.66595e-10
5.00072e-06
-7.71766e-10
5.00087e-06
-9.97022e-10
5.00104e-06
-1.13218e-09
5.00122e-06
-1.4872e-09
5.00144e-06
-1.6009e-09
-2.21478e-09
5e-06
-6.83187e-12
5e-06
-2.7362e-11
5.00001e-06
-5.58484e-11
5.00002e-06
-9.60898e-11
5.00004e-06
-1.48002e-10
5.00007e-06
-2.08721e-10
5.00011e-06
-2.66278e-10
5.00015e-06
-3.19326e-10
5.0002e-06
-3.59952e-10
5.00025e-06
-4.06154e-10
5.0003e-06
-4.47659e-10
5.00036e-06
-5.26291e-10
5.00043e-06
-6.01547e-10
5.00052e-06
-7.522e-10
5.00062e-06
-8.72087e-10
5.00074e-06
-1.11787e-09
5.00088e-06
-1.27165e-09
5.00104e-06
-1.64857e-09
5.00122e-06
-1.77958e-09
-2.35524e-09
5e-06
-7.96229e-12
5e-06
-3.00156e-11
5.00001e-06
-6.17429e-11
5.00002e-06
-1.06362e-10
5.00003e-06
-1.6277e-10
5.00005e-06
-2.28033e-10
5.00007e-06
-2.90877e-10
5.0001e-06
-3.49395e-10
5.00014e-06
-3.95703e-10
5.00018e-06
-4.47545e-10
5.00022e-06
-4.94935e-10
5.00028e-06
-5.79828e-10
5.00034e-06
-6.62606e-10
5.00041e-06
-8.21928e-10
5.00049e-06
-9.52682e-10
5.00058e-06
-1.20896e-09
5.00069e-06
-1.37619e-09
5.0008e-06
-1.75975e-09
5.00092e-06
-1.89931e-09
-2.50823e-09
5e-06
-8.69219e-12
5e-06
-3.15215e-11
5e-06
-6.48868e-11
5.00001e-06
-1.12553e-10
5.00002e-06
-1.73577e-10
5.00004e-06
-2.44384e-10
5.00006e-06
-3.12461e-10
5.00008e-06
-3.74929e-10
5.00011e-06
-4.23799e-10
5.00014e-06
-4.77691e-10
5.00017e-06
-5.2725e-10
5.00021e-06
-6.15896e-10
5.00025e-06
-7.03497e-10
5.00029e-06
-8.70193e-10
5.00035e-06
-1.00894e-09
5.00042e-06
-1.27496e-09
5.00049e-06
-1.45206e-09
5.00058e-06
-1.84475e-09
5.00068e-06
-1.9961e-09
-2.58821e-09
5e-06
-8.89032e-12
5e-06
-3.20923e-11
5e-06
-6.70075e-11
5.00001e-06
-1.1719e-10
5.00001e-06
-1.80849e-10
5.00002e-06
-2.5395e-10
5.00003e-06
-3.24236e-10
5.00005e-06
-3.8889e-10
5.00006e-06
-4.39826e-10
5.00008e-06
-4.95673e-10
5.0001e-06
-5.47385e-10
5.00012e-06
-6.38869e-10
5.00015e-06
-7.29857e-10
5.00018e-06
-9.00722e-10
5.00022e-06
-1.04396e-09
5.00026e-06
-1.31441e-09
5.0003e-06
-1.49638e-09
5.00035e-06
-1.89217e-09
5.0004e-06
-2.0451e-09
-2.64637e-09
5e-06
-8.92177e-12
5e-06
-3.23955e-11
5e-06
-6.77731e-11
5e-06
-1.18512e-10
5e-06
-1.82819e-10
5.00001e-06
-2.56902e-10
5.00001e-06
-3.28338e-10
5.00002e-06
-3.93974e-10
5.00002e-06
-4.45734e-10
5.00003e-06
-5.02266e-10
5.00004e-06
-5.54564e-10
5.00004e-06
-6.46504e-10
5.00005e-06
-7.37849e-10
5.00006e-06
-9.09525e-10
5.00007e-06
-1.05409e-09
5.00008e-06
-1.32659e-09
5.0001e-06
-1.51113e-09
5.00011e-06
-1.9089e-09
5.00013e-06
-2.06566e-09
-2.66362e-09
5e-06
-8.88519e-12
5e-06
-3.20909e-11
5e-06
-6.69829e-11
5e-06
-1.17143e-10
5e-06
-1.80799e-10
4.99999e-06
-2.53904e-10
4.99999e-06
-3.24208e-10
4.99998e-06
-3.88879e-10
4.99998e-06
-4.39819e-10
4.99997e-06
-4.95667e-10
4.99996e-06
-5.47371e-10
4.99996e-06
-6.38822e-10
4.99995e-06
-7.29797e-10
4.99994e-06
-9.00661e-10
4.99993e-06
-1.04392e-09
4.99992e-06
-1.31436e-09
4.9999e-06
-1.49632e-09
4.99989e-06
-1.89206e-09
4.99987e-06
-2.045e-09
-2.64619e-09
5e-06
-8.68222e-12
5e-06
-3.15081e-11
5e-06
-6.48376e-11
4.99999e-06
-1.1251e-10
4.99999e-06
-1.73538e-10
4.99998e-06
-2.44371e-10
4.99997e-06
-3.12462e-10
4.99995e-06
-3.74964e-10
4.99994e-06
-4.23837e-10
4.99992e-06
-4.77719e-10
4.9999e-06
-5.27284e-10
4.99988e-06
-6.15888e-10
4.99985e-06
-7.03447e-10
4.99982e-06
-8.70099e-10
4.99978e-06
-1.00886e-09
4.99974e-06
-1.27486e-09
4.9997e-06
-1.45196e-09
4.99965e-06
-1.84456e-09
4.9996e-06
-1.99591e-09
-2.58793e-09
5e-06
-7.94431e-12
5e-06
-2.99747e-11
5e-06
-6.17183e-11
4.99999e-06
-1.06387e-10
4.99998e-06
-1.62797e-10
4.99996e-06
-2.281e-10
4.99994e-06
-2.90929e-10
4.99992e-06
-3.49467e-10
4.99989e-06
-3.95806e-10
4.99986e-06
-4.47608e-10
4.99983e-06
-4.95004e-10
4.99979e-06
-5.79889e-10
4.99975e-06
-6.62642e-10
4.99971e-06
-8.21872e-10
4.99965e-06
-9.52602e-10
4.99958e-06
-1.20883e-09
4.99951e-06
-1.37608e-09
4.99942e-06
-1.75954e-09
4.99932e-06
-1.89914e-09
-2.50781e-09
5e-06
-6.80739e-12
5e-06
-2.73287e-11
4.99999e-06
-5.58972e-11
4.99998e-06
-9.61511e-11
4.99997e-06
-1.48089e-10
4.99995e-06
-2.08772e-10
4.99993e-06
-2.66346e-10
4.9999e-06
-3.19315e-10
4.99986e-06
-3.60014e-10
4.99982e-06
-4.06219e-10
4.99978e-06
-4.47707e-10
4.99972e-06
-5.26347e-10
4.99966e-06
-6.01644e-10
4.99959e-06
-7.52222e-10
4.99951e-06
-8.72059e-10
4.99942e-06
-1.11775e-09
4.99931e-06
-1.27154e-09
4.9992e-06
-1.64834e-09
4.99908e-06
-1.77937e-09
-2.35476e-09
5e-06
-5.45358e-12
5e-06
-2.40346e-11
4.99999e-06
-4.88926e-11
4.99998e-06
-8.3216e-11
4.99996e-06
-1.2749e-10
4.99993e-06
-1.79513e-10
4.99989e-06
-2.29055e-10
4.99985e-06
-2.75432e-10
4.9998e-06
-3.11993e-10
4.99975e-06
-3.5476e-10
4.9997e-06
-3.92941e-10
4.99964e-06
-4.64466e-10
4.99957e-06
-5.3108e-10
4.99948e-06
-6.66665e-10
4.99938e-06
-7.71824e-10
4.99926e-06
-9.96953e-10
4.99912e-06
-1.13211e-09
4.99896e-06
-1.48697e-09
4.99878e-06
-1.60073e-09
-2.21427e-09
5e-06
-6.33726e-12
5e-06
-2.19394e-11
5e-06
-4.1836e-11
4.99999e-06
-6.99976e-11
4.99997e-06
-1.07194e-10
4.99994e-06
-1.50949e-10
4.9999e-06
-1.92001e-10
4.99986e-06
-2.30598e-10
4.99981e-06
-2.59464e-10
4.99975e-06
-2.95118e-10
4.99968e-06
-3.24304e-10
4.9996e-06
-3.85956e-10
4.99951e-06
-4.38941e-10
4.9994e-06
-5.60021e-10
4.99928e-06
-6.44952e-10
4.99913e-06
-8.52063e-10
4.99896e-06
-9.61264e-10
4.99877e-06
-1.30311e-09
4.99856e-06
-1.39081e-09
-1.94198e-09
5e-06
-8.45043e-14
4.99999e-06
-1.37307e-11
4.99998e-06
-2.97465e-11
4.99996e-06
-5.21402e-11
4.99993e-06
-8.07075e-11
4.99989e-06
-1.13732e-10
4.99985e-06
-1.45254e-10
4.99979e-06
-1.75449e-10
4.99973e-06
-1.98785e-10
4.99966e-06
-2.2762e-10
4.99959e-06
-2.51063e-10
4.9995e-06
-3.00709e-10
4.99941e-06
-3.42274e-10
4.99929e-06
-4.40256e-10
4.99915e-06
-5.05026e-10
4.99897e-06
-6.76841e-10
4.99876e-06
-7.58096e-10
4.99852e-06
-1.05772e-09
4.99825e-06
-1.12732e-09
-1.72259e-09
5.00001e-06
-9.27467e-12
5.00001e-06
-1.33705e-11
5.00001e-06
-2.20805e-11
5e-06
-3.67469e-11
4.99997e-06
-5.59751e-11
4.99994e-06
-8.01314e-11
4.99989e-06
-9.96731e-11
4.99984e-06
-1.20856e-10
4.99977e-06
-1.34473e-10
4.9997e-06
-1.54965e-10
4.99962e-06
-1.68421e-10
4.99952e-06
-2.05855e-10
4.9994e-06
-2.28777e-10
4.99927e-06
-3.042e-10
4.9991e-06
-3.38636e-10
4.9989e-06
-4.78857e-10
4.99866e-06
-5.16642e-10
4.99838e-06
-7.79658e-10
4.99804e-06
-7.9012e-10
-1.28402e-09
4.99998e-06
1.12477e-11
4.99997e-06
-2.05643e-12
4.99996e-06
-1.03789e-11
4.99994e-06
-1.84844e-11
4.99991e-06
-2.90923e-11
4.99987e-06
-4.389e-11
4.99982e-06
-4.07566e-11
4.99976e-06
-6.1677e-11
4.99969e-06
-6.70793e-11
4.99961e-06
-7.85743e-11
4.99952e-06
-8.58793e-11
4.99942e-06
-1.06242e-10
4.99931e-06
-1.1696e-10
4.99916e-06
-1.58568e-10
4.99899e-06
-1.71078e-10
4.99877e-06
-2.53395e-10
4.99851e-06
-2.59455e-10
4.99816e-06
-4.37361e-10
4.9978e-06
-4.29066e-10
-9.03045e-10
5.00001e-06
5.00002e-06
5.00001e-06
4.99999e-06
4.99996e-06
4.99992e-06
4.99987e-06
4.99981e-06
4.99974e-06
4.99966e-06
4.99957e-06
4.99946e-06
4.99934e-06
4.99918e-06
4.99901e-06
4.99875e-06
4.99849e-06
4.99805e-06
4.99762e-06
)
;

boundaryField
{
    sides
    {
        type            calculated;
        value           uniform 0;
    }
    inlet
    {
        type            calculated;
        value           nonuniform List<scalar> 
20
(
-5e-06
-5e-06
-5e-06
-5e-06
-5e-06
-5e-06
-5e-06
-5e-06
-5e-06
-5e-06
-5e-06
-5e-06
-5e-06
-5e-06
-5e-06
-5e-06
-5e-06
-5e-06
-5e-06
-5e-06
)
;
    }
    outlet
    {
        type            calculated;
        value           nonuniform List<scalar> 
20
(
5.00328e-06
5.00258e-06
5.0024e-06
5.00197e-06
5.00171e-06
5.00136e-06
5.00107e-06
5.00076e-06
5.00045e-06
5.00015e-06
4.99985e-06
4.99955e-06
4.99924e-06
4.99893e-06
4.99864e-06
4.99829e-06
4.99803e-06
4.9976e-06
4.99742e-06
4.99672e-06
)
;
    }
    frontAndBack
    {
        type            empty;
        value           nonuniform 0();
    }
}


// ************************************************************************* //
