/*--------------------------------*- C++ -*----------------------------------*\
  =========                 |
  \\      /  F ield         | OpenFOAM: The Open Source CFD Toolbox
   \\    /   O peration     | Website:  https://openfoam.org
    \\  /    A nd           | Version:  7
     \\/     M anipulation  |
\*---------------------------------------------------------------------------*/
FoamFile
{
    version     2.0;
    format      ascii;
    class       surfaceScalarField;
    location    "33";
    object      phi_0;
}
// * * * * * * * * * * * * * * * * * * * * * * * * * * * * * * * * * * * * * //

dimensions      [0 4 -1 0 0 0 0];

internalField   nonuniform List<scalar> 
760
(
4.99998e-06
1.07434e-11
4.99998e-06
-2.89913e-12
4.99999e-06
-1.15131e-11
5.00001e-06
-1.96743e-11
5.00004e-06
-2.60524e-11
5.00008e-06
-3.67678e-11
5.00013e-06
-4.83368e-11
5.00019e-06
-5.61163e-11
5.00026e-06
-6.69333e-11
5.00034e-06
-7.8225e-11
5.00043e-06
-8.55477e-11
5.00054e-06
-1.06149e-10
5.00066e-06
-1.17175e-10
5.00082e-06
-1.59167e-10
5.00099e-06
-1.7174e-10
5.00125e-06
-2.54442e-10
5.00151e-06
-2.60372e-10
5.00195e-06
-4.38387e-10
5.00238e-06
-4.29746e-10
-9.02437e-10
5.00002e-06
-9.78841e-12
5.00003e-06
-1.43025e-11
5.00004e-06
-2.44861e-11
5.00006e-06
-3.95923e-11
5.00009e-06
-5.93115e-11
5.00013e-06
-8.24352e-11
5.00018e-06
-1.02741e-10
5.00024e-06
-1.21441e-10
5.00031e-06
-1.34262e-10
5.00039e-06
-1.54156e-10
5.00047e-06
-1.67502e-10
5.00057e-06
-2.05391e-10
5.00069e-06
-2.29002e-10
5.00084e-06
-3.05392e-10
5.00101e-06
-3.4018e-10
5.00123e-06
-4.81346e-10
5.00149e-06
-5.18835e-10
5.00184e-06
-7.81958e-10
5.0022e-06
-7.91753e-10
-1.28345e-09
4.99999e-06
-1.09098e-12
4.99999e-06
-1.52843e-11
4.99999e-06
-3.25074e-11
5e-06
-5.61416e-11
5.00003e-06
-8.55583e-11
5.00006e-06
-1.18132e-10
5.00011e-06
-1.4826e-10
5.00016e-06
-1.77146e-10
5.00023e-06
-1.9888e-10
5.0003e-06
-2.26644e-10
5.00038e-06
-2.49897e-10
5.00048e-06
-3.00209e-10
5.00059e-06
-3.42764e-10
5.00073e-06
-4.41988e-10
5.0009e-06
-5.07224e-10
5.0011e-06
-6.80296e-10
5.00134e-06
-7.61235e-10
5.00162e-06
-1.06101e-09
5.00196e-06
-1.12966e-09
-1.72122e-09
5e-06
-7.1569e-12
5.00001e-06
-2.40405e-11
5.00002e-06
-4.51208e-11
5.00004e-06
-7.49717e-11
5.00007e-06
-1.13045e-10
5.00011e-06
-1.56848e-10
5.00015e-06
-1.96085e-10
5.00021e-06
-2.32312e-10
5.00027e-06
-2.5925e-10
5.00034e-06
-2.9349e-10
5.00041e-06
-3.22556e-10
5.00049e-06
-3.85125e-10
5.00059e-06
-4.39462e-10
5.00071e-06
-5.62283e-10
5.00085e-06
-6.48044e-10
5.00103e-06
-8.56903e-10
5.00124e-06
-9.65717e-10
5.00148e-06
-1.30754e-09
5.00175e-06
-1.394e-09
-1.94033e-09
5e-06
-6.19813e-12
5e-06
-2.62363e-11
5e-06
-5.24242e-11
5.00001e-06
-8.84896e-11
5.00003e-06
-1.33847e-10
5.00006e-06
-1.85641e-10
5.0001e-06
-2.33254e-10
5.00014e-06
-2.77297e-10
5.00019e-06
-3.11492e-10
5.00025e-06
-3.52815e-10
5.00032e-06
-3.91068e-10
5.0004e-06
-4.63655e-10
5.00049e-06
-5.31774e-10
5.00059e-06
-6.69349e-10
5.00072e-06
-7.75472e-10
5.00087e-06
-1.00259e-09
5.00104e-06
-1.13732e-09
5.00122e-06
-1.49212e-09
5.00144e-06
-1.60456e-09
-2.21214e-09
5e-06
-7.3191e-12
5e-06
-2.94645e-11
5.00001e-06
-5.98569e-11
5.00002e-06
-1.02038e-10
5.00004e-06
-1.5528e-10
5.00007e-06
-2.15506e-10
5.00011e-06
-2.7101e-10
5.00015e-06
-3.20943e-10
5.0002e-06
-3.58816e-10
5.00025e-06
-4.03543e-10
5.0003e-06
-4.45305e-10
5.00036e-06
-5.25409e-10
5.00043e-06
-6.02772e-10
5.00052e-06
-7.55847e-10
5.00062e-06
-8.76868e-10
5.00074e-06
-1.12479e-09
5.00088e-06
-1.27796e-09
5.00104e-06
-1.65452e-09
5.00122e-06
-1.78375e-09
-2.35208e-09
5e-06
-8.29735e-12
5e-06
-3.20122e-11
5.00001e-06
-6.59838e-11
5.00002e-06
-1.12675e-10
5.00003e-06
-1.70269e-10
5.00005e-06
-2.35072e-10
5.00007e-06
-2.95773e-10
5.0001e-06
-3.51145e-10
5.00014e-06
-3.94692e-10
5.00018e-06
-4.4494e-10
5.00022e-06
-4.9251e-10
5.00028e-06
-5.78964e-10
5.00034e-06
-6.64026e-10
5.00041e-06
-8.25987e-10
5.00049e-06
-9.57972e-10
5.00058e-06
-1.21656e-09
5.00068e-06
-1.38315e-09
5.0008e-06
-1.76632e-09
5.00092e-06
-1.90414e-09
-2.50495e-09
5e-06
-8.91735e-12
5e-06
-3.33851e-11
5e-06
-6.91293e-11
5.00001e-06
-1.19107e-10
5.00002e-06
-1.81471e-10
5.00004e-06
-2.51798e-10
5.00006e-06
-3.17541e-10
5.00008e-06
-3.76597e-10
5.00011e-06
-4.22499e-10
5.00014e-06
-4.74689e-10
5.00017e-06
-5.24543e-10
5.0002e-06
-6.14993e-10
5.00024e-06
-7.05154e-10
5.00029e-06
-8.74798e-10
5.00035e-06
-1.01498e-09
5.00042e-06
-1.28355e-09
5.00049e-06
-1.45991e-09
5.00058e-06
-1.85208e-09
5.00068e-06
-2.0013e-09
-2.58462e-09
5e-06
-8.98916e-12
5e-06
-3.38837e-11
5e-06
-7.1335e-11
5.00001e-06
-1.23859e-10
5.00001e-06
-1.88782e-10
5.00002e-06
-2.61382e-10
5.00004e-06
-3.2932e-10
5.00005e-06
-3.90545e-10
5.00006e-06
-4.38443e-10
5.00008e-06
-4.92582e-10
5.0001e-06
-5.4468e-10
5.00012e-06
-6.38036e-10
5.00015e-06
-7.31674e-10
5.00018e-06
-9.05617e-10
5.00021e-06
-1.05033e-09
5.00025e-06
-1.32337e-09
5.0003e-06
-1.50458e-09
5.00035e-06
-1.89982e-09
5.0004e-06
-2.05061e-09
-2.64277e-09
5e-06
-8.99956e-12
5e-06
-3.41932e-11
5e-06
-7.21099e-11
5e-06
-1.25199e-10
5e-06
-1.908e-10
5.00001e-06
-2.64405e-10
5.00001e-06
-3.33447e-10
5.00002e-06
-3.95638e-10
5.00002e-06
-4.44338e-10
5.00003e-06
-4.99147e-10
5.00004e-06
-5.51795e-10
5.00004e-06
-6.45561e-10
5.00005e-06
-7.39606e-10
5.00006e-06
-9.14477e-10
5.00007e-06
-1.06062e-09
5.00008e-06
-1.33583e-09
5.0001e-06
-1.51964e-09
5.00011e-06
-1.91689e-09
5.00013e-06
-2.07133e-09
-2.65993e-09
5e-06
-9.01771e-12
5e-06
-3.39018e-11
5e-06
-7.133e-11
5e-06
-1.23818e-10
5e-06
-1.88721e-10
4.99999e-06
-2.61309e-10
4.99999e-06
-3.29256e-10
4.99998e-06
-3.90485e-10
4.99998e-06
-4.3839e-10
4.99997e-06
-4.92529e-10
4.99996e-06
-5.44615e-10
4.99996e-06
-6.37953e-10
4.99995e-06
-7.31606e-10
4.99994e-06
-9.05563e-10
4.99993e-06
-1.05029e-09
4.99992e-06
-1.32332e-09
4.9999e-06
-1.5045e-09
4.99989e-06
-1.89972e-09
4.99987e-06
-2.05053e-09
-2.64261e-09
5e-06
-8.93738e-12
5e-06
-3.34103e-11
5e-06
-6.91107e-11
4.99999e-06
-1.1905e-10
4.99999e-06
-1.81404e-10
4.99998e-06
-2.51728e-10
4.99996e-06
-3.17492e-10
4.99995e-06
-3.76567e-10
4.99994e-06
-4.22469e-10
4.99992e-06
-4.74661e-10
4.9999e-06
-5.24507e-10
4.99988e-06
-6.14904e-10
4.99985e-06
-7.0505e-10
4.99982e-06
-8.74691e-10
4.99978e-06
-1.01491e-09
4.99975e-06
-1.28345e-09
4.9997e-06
-1.45979e-09
4.99965e-06
-1.85189e-09
4.9996e-06
-2.00114e-09
-2.58436e-09
5e-06
-8.28749e-12
5e-06
-3.20043e-11
5e-06
-6.59489e-11
4.99999e-06
-1.12675e-10
4.99998e-06
-1.70268e-10
4.99996e-06
-2.35105e-10
4.99994e-06
-2.95803e-10
4.99992e-06
-3.5122e-10
4.99989e-06
-3.94756e-10
4.99986e-06
-4.44978e-10
4.99983e-06
-4.92565e-10
4.9998e-06
-5.7897e-10
4.99976e-06
-6.63982e-10
4.99971e-06
-8.25879e-10
4.99965e-06
-9.57885e-10
4.99958e-06
-1.21645e-09
4.99951e-06
-1.38305e-09
4.99942e-06
-1.76612e-09
4.99932e-06
-1.90396e-09
-2.50453e-09
5e-06
-7.28563e-12
5e-06
-2.94151e-11
4.99999e-06
-5.98606e-11
4.99998e-06
-1.0211e-10
4.99997e-06
-1.55343e-10
4.99995e-06
-2.15622e-10
4.99993e-06
-2.71078e-10
4.9999e-06
-3.21029e-10
4.99986e-06
-3.58957e-10
4.99982e-06
-4.03622e-10
4.99978e-06
-4.45391e-10
4.99972e-06
-5.25497e-10
4.99966e-06
-6.02842e-10
4.99959e-06
-7.5581e-10
4.99951e-06
-8.76807e-10
4.99942e-06
-1.12467e-09
4.99932e-06
-1.27786e-09
4.9992e-06
-1.6543e-09
4.99908e-06
-1.78354e-09
-2.35159e-09
5e-06
-6.17177e-12
5e-06
-2.62048e-11
4.99999e-06
-5.24899e-11
4.99998e-06
-8.85621e-11
4.99996e-06
-1.3394e-10
4.99993e-06
-1.85681e-10
4.99989e-06
-2.33343e-10
4.99985e-06
-2.7725e-10
4.9998e-06
-3.11544e-10
4.99975e-06
-3.529e-10
4.9997e-06
-3.9115e-10
4.99964e-06
-4.63747e-10
4.99957e-06
-5.31916e-10
4.99948e-06
-6.69404e-10
4.99938e-06
-7.75493e-10
4.99926e-06
-1.00251e-09
4.99912e-06
-1.13726e-09
4.99896e-06
-1.4919e-09
4.99878e-06
-1.60438e-09
-2.21161e-09
5e-06
-7.15708e-12
5e-06
-2.40682e-11
5e-06
-4.5214e-11
4.99999e-06
-7.49754e-11
4.99997e-06
-1.13051e-10
4.99994e-06
-1.56775e-10
4.9999e-06
-1.95989e-10
4.99986e-06
-2.32208e-10
4.99981e-06
-2.59099e-10
4.99975e-06
-2.93396e-10
4.99968e-06
-3.22509e-10
4.9996e-06
-3.85095e-10
4.99951e-06
-4.39541e-10
4.99941e-06
-5.62333e-10
4.99928e-06
-6.48094e-10
4.99913e-06
-8.56815e-10
4.99896e-06
-9.65646e-10
4.99878e-06
-1.30729e-09
4.99856e-06
-1.3938e-09
-1.93973e-09
5e-06
-1.12646e-12
4.99999e-06
-1.5344e-11
4.99998e-06
-3.25275e-11
4.99996e-06
-5.61005e-11
4.99993e-06
-8.54889e-11
4.99989e-06
-1.17935e-10
4.99985e-06
-1.48474e-10
4.99979e-06
-1.77041e-10
4.99973e-06
-1.98739e-10
4.99966e-06
-2.26497e-10
4.99959e-06
-2.49795e-10
4.99951e-06
-3.00117e-10
4.99941e-06
-3.42785e-10
4.99929e-06
-4.42028e-10
4.99915e-06
-5.07321e-10
4.99897e-06
-6.80265e-10
4.99876e-06
-7.61239e-10
4.99852e-06
-1.06082e-09
4.99825e-06
-1.12958e-09
-1.72077e-09
5.00001e-06
-9.80889e-12
5.00001e-06
-1.43587e-11
5.00001e-06
-2.43409e-11
5e-06
-3.94917e-11
4.99997e-06
-5.93742e-11
4.99994e-06
-8.22724e-11
4.99989e-06
-1.02445e-10
4.99984e-06
-1.21654e-10
4.99977e-06
-1.34271e-10
4.9997e-06
-1.54065e-10
4.99962e-06
-1.67399e-10
4.99952e-06
-2.05205e-10
4.99941e-06
-2.28879e-10
4.99927e-06
-3.05268e-10
4.9991e-06
-3.40197e-10
4.9989e-06
-4.81242e-10
4.99866e-06
-5.18828e-10
4.99838e-06
-7.81704e-10
4.99804e-06
-7.91629e-10
-1.28292e-09
4.99998e-06
1.06885e-11
4.99997e-06
-2.89837e-12
4.99996e-06
-1.1448e-11
4.99994e-06
-1.98598e-11
4.99991e-06
-2.68607e-11
4.99987e-06
-3.56936e-11
4.99982e-06
-5.25968e-11
4.99976e-06
-5.62949e-11
4.99969e-06
-6.7185e-11
4.99961e-06
-7.83185e-11
4.99953e-06
-8.55189e-11
4.99943e-06
-1.06018e-10
4.99931e-06
-1.17073e-10
4.99916e-06
-1.59118e-10
4.999e-06
-1.71812e-10
4.99877e-06
-2.545e-10
4.99851e-06
-2.60475e-10
4.99816e-06
-4.38402e-10
4.9978e-06
-4.29816e-10
-9.024e-10
5.00002e-06
5.00002e-06
5.00001e-06
4.99999e-06
4.99996e-06
4.99992e-06
4.99987e-06
4.99981e-06
4.99974e-06
4.99966e-06
4.99957e-06
4.99946e-06
4.99934e-06
4.99918e-06
4.99901e-06
4.99875e-06
4.99849e-06
4.99805e-06
4.99762e-06
)
;

boundaryField
{
    sides
    {
        type            calculated;
        value           uniform 0;
    }
    inlet
    {
        type            calculated;
        value           nonuniform List<scalar> 
20
(
-5e-06
-5e-06
-5e-06
-5e-06
-5e-06
-5e-06
-5e-06
-5e-06
-5e-06
-5e-06
-5e-06
-5e-06
-5e-06
-5e-06
-5e-06
-5e-06
-5e-06
-5e-06
-5e-06
-5e-06
)
;
    }
    outlet
    {
        type            calculated;
        value           nonuniform List<scalar> 
20
(
5.00328e-06
5.00258e-06
5.0024e-06
5.00197e-06
5.00171e-06
5.00136e-06
5.00107e-06
5.00076e-06
5.00045e-06
5.00015e-06
4.99985e-06
4.99955e-06
4.99924e-06
4.99893e-06
4.99864e-06
4.99829e-06
4.99803e-06
4.9976e-06
4.99742e-06
4.99672e-06
)
;
    }
    frontAndBack
    {
        type            empty;
        value           nonuniform 0();
    }
}


// ************************************************************************* //
