/*--------------------------------*- C++ -*----------------------------------*\
  =========                 |
  \\      /  F ield         | OpenFOAM: The Open Source CFD Toolbox
   \\    /   O peration     | Website:  https://openfoam.org
    \\  /    A nd           | Version:  7
     \\/     M anipulation  |
\*---------------------------------------------------------------------------*/
FoamFile
{
    version     2.0;
    format      ascii;
    class       volVectorField;
    location    "80";
    object      ddt0(hU);
}
// * * * * * * * * * * * * * * * * * * * * * * * * * * * * * * * * * * * * * //

dimensions      [0 2 -2 0 0 0 0];

internalField   nonuniform List<vector> 
400
(
(-1.6783e-10 -1.49822e-10 0)
(-2.60653e-10 -1.68847e-12 0)
(-7.33615e-11 2.36955e-10 0)
(1.45664e-10 7.02528e-11 0)
(5.13638e-11 -3.55091e-10 0)
(-1.24544e-09 2.56578e-10 0)
(6.3859e-10 -9.65099e-10 0)
(1.79124e-09 -1.34066e-09 0)
(-6.71193e-10 -2.6483e-10 0)
(-3.36768e-11 -1.15026e-10 0)
(-3.96405e-11 -4.00038e-11 0)
(1.42536e-10 1.67905e-11 0)
(1.59975e-10 3.50588e-12 0)
(8.43515e-12 -1.09176e-11 0)
(-1.27867e-10 5.83388e-12 0)
(-1.42464e-10 3.69773e-11 0)
(-3.6002e-11 3.86704e-11 0)
(7.38318e-11 2.83937e-11 0)
(7.50304e-11 -1.33319e-11 0)
(6.36955e-11 -2.68893e-11 0)
(5.38722e-12 -3.10966e-10 0)
(3.28478e-11 -2.12078e-11 0)
(-7.83756e-11 3.01877e-10 0)
(-4.03206e-11 2.721e-10 0)
(-1.60688e-10 -4.0527e-10 0)
(1.47889e-09 4.96059e-10 0)
(2.11865e-10 -1.33591e-09 0)
(-3.35683e-09 -1.17469e-09 0)
(6.32873e-10 5.74776e-11 0)
(1.48626e-10 -1.05622e-10 0)
(4.91382e-11 1.61254e-11 0)
(1.31664e-10 5.80094e-11 0)
(8.5641e-11 -3.84067e-11 0)
(1.66833e-11 -9.11195e-11 0)
(-2.50618e-11 -5.10608e-11 0)
(-2.03115e-11 3.7818e-11 0)
(2.35226e-11 9.70543e-11 0)
(5.08147e-11 1.07369e-10 0)
(9.05326e-12 6.24976e-11 0)
(-7.44871e-12 1.8622e-12 0)
(1.10758e-10 -6.30752e-11 0)
(2.613e-10 3.46096e-11 0)
(8.49552e-11 7.64416e-12 0)
(-6.78659e-11 2.25047e-10 0)
(-2.25336e-10 -2.7047e-11 0)
(-2.00385e-11 2.24736e-10 0)
(-1.43966e-09 -2.93109e-10 0)
(9.81392e-10 6.37011e-10 0)
(5.19577e-10 2.01641e-10 0)
(-1.47777e-10 -9.5016e-11 0)
(1.70928e-10 9.30028e-11 0)
(4.38809e-11 9.36074e-11 0)
(-7.75625e-11 3.6329e-11 0)
(-4.23284e-11 2.00889e-11 0)
(3.3511e-11 4.51227e-11 0)
(8.72927e-11 8.22451e-11 0)
(1.03493e-10 6.84868e-11 0)
(4.54318e-11 4.2541e-11 0)
(-5.62574e-11 -5.59381e-11 0)
(-5.51571e-11 -8.40898e-11 0)
(8.29089e-11 1.99329e-10 0)
(1.19791e-10 1.05324e-10 0)
(6.08556e-11 -7.17388e-11 0)
(-1.27604e-10 -2.374e-11 0)
(-1.39939e-12 1.44265e-10 0)
(-2.72285e-10 -1.35374e-10 0)
(-4.66319e-11 4.34667e-10 0)
(9.07004e-10 5.84121e-10 0)
(-3.92171e-10 -2.63843e-10 0)
(8.57172e-12 -2.90292e-12 0)
(2.47832e-10 6.29819e-11 0)
(-3.17457e-11 -1.37843e-11 0)
(-8.59042e-11 4.63855e-11 0)
(1.19445e-11 1.17057e-10 0)
(1.0157e-10 1.42105e-10 0)
(1.27844e-10 1.39133e-10 0)
(9.20393e-11 4.59925e-11 0)
(4.22281e-12 -5.73032e-11 0)
(-8.55389e-11 -1.89303e-10 0)
(-5.44128e-11 -1.6067e-10 0)
(6.55952e-11 1.59429e-10 0)
(-2.67483e-11 7.88295e-11 0)
(-7.71597e-12 2.03098e-11 0)
(-1.83411e-10 -1.29748e-10 0)
(7.06523e-11 1.98024e-10 0)
(-2.5536e-10 -2.60901e-10 0)
(4.14147e-10 4.12807e-10 0)
(-1.6167e-10 -1.452e-10 0)
(-2.68641e-10 -2.00447e-10 0)
(3.06647e-10 1.27638e-10 0)
(6.7919e-12 -4.37054e-11 0)
(-1.34352e-10 -7.62949e-11 0)
(-9.37864e-12 9.37535e-11 0)
(7.52915e-11 1.93056e-10 0)
(1.31493e-10 1.83816e-10 0)
(9.84338e-11 1.45026e-10 0)
(-6.9773e-12 9.65447e-12 0)
(-7.42319e-11 -1.38337e-10 0)
(-5.29949e-11 -2.77959e-10 0)
(6.58646e-11 -2.04349e-10 0)
(4.76068e-12 7.11606e-11 0)
(-8.28841e-11 3.53912e-11 0)
(-6.67299e-11 8.57035e-11 0)
(-1.13331e-10 -6.90087e-11 0)
(-6.92379e-12 9.21573e-11 0)
(-7.55785e-11 -7.29227e-11 0)
(1.78342e-10 7.66442e-11 0)
(-2.98182e-10 -3.09256e-10 0)
(1.7019e-10 5.41744e-11 0)
(1.72743e-10 -3.42073e-11 0)
(-1.89135e-10 -1.68839e-10 0)
(5.54614e-12 2.30486e-11 0)
(1.57765e-10 2.17771e-10 0)
(8.89956e-11 2.83038e-10 0)
(5.56145e-11 2.3601e-10 0)
(-2.64949e-11 1.39398e-10 0)
(-1.70878e-10 -3.40902e-11 0)
(-1.89876e-10 -1.52954e-10 0)
(-1.47311e-11 -2.91945e-10 0)
(2.22897e-10 -2.27852e-10 0)
(-4.57115e-11 -1.71988e-11 0)
(-6.75468e-11 2.88082e-11 0)
(-9.14775e-11 6.88503e-11 0)
(1.66932e-11 1.48514e-10 0)
(-3.4028e-11 1.65558e-11 0)
(1.01301e-10 1.43597e-10 0)
(-4.10836e-11 -5.58398e-11 0)
(-8.13757e-11 -7.70597e-11 0)
(1.36238e-10 6.75367e-11 0)
(-2.17332e-10 -1.99642e-10 0)
(-1.13458e-10 -7.47726e-11 0)
(1.85102e-10 1.57914e-10 0)
(1.68005e-10 1.8842e-10 0)
(5.60052e-11 2.15817e-10 0)
(-1.28059e-11 2.14421e-10 0)
(-1.02322e-10 1.23133e-10 0)
(-2.0346e-10 -2.21179e-11 0)
(-1.78183e-10 -3.65679e-11 0)
(3.12931e-11 -1.02496e-10 0)
(2.64914e-10 -1.36812e-10 0)
(-4.69577e-11 -6.53388e-11 0)
(1.15944e-12 6.23774e-11 0)
(-4.98284e-11 5.86222e-11 0)
(7.39824e-11 2.16932e-10 0)
(-2.33736e-11 5.1754e-11 0)
(1.03374e-10 1.01007e-10 0)
(-1.30883e-10 -1.21429e-10 0)
(7.09957e-11 -3.29011e-11 0)
(-5.87009e-11 -1.39364e-10 0)
(-1.53682e-10 -1.62369e-10 0)
(1.96739e-10 7.89355e-11 0)
(1.48138e-10 1.43219e-10 0)
(2.7555e-11 1.12343e-10 0)
(6.938e-11 1.52255e-10 0)
(-2.26873e-11 1.70096e-10 0)
(-1.70025e-10 1.12061e-10 0)
(-1.73273e-10 5.32341e-12 0)
(-7.8316e-11 6.75563e-11 0)
(4.19224e-11 4.45081e-11 0)
(1.54601e-10 -6.62926e-11 0)
(9.95208e-12 -1.23717e-11 0)
(4.61016e-11 4.06902e-11 0)
(1.47852e-11 1.11076e-10 0)
(3.28043e-11 9.96548e-11 0)
(3.79729e-12 1.01651e-10 0)
(1.32435e-11 -6.71027e-12 0)
(-5.23302e-11 -7.5282e-11 0)
(5.45229e-11 -5.61825e-11 0)
(-7.07426e-11 -2.0075e-10 0)
(2.57828e-11 -2.02764e-11 0)
(1.25884e-10 4.18744e-11 0)
(-4.0264e-11 -2.40869e-13 0)
(-2.97926e-11 9.75871e-11 0)
(9.19451e-11 1.23617e-10 0)
(2.92767e-11 6.5768e-11 0)
(-5.82646e-11 7.22023e-11 0)
(1.05821e-11 5.85199e-11 0)
(1.01359e-10 1.34822e-10 0)
(5.667e-11 8.31774e-11 0)
(-6.34305e-11 -6.0252e-11 0)
(1.9055e-11 5.62851e-11 0)
(9.04689e-12 2.49145e-11 0)
(6.31178e-11 1.12797e-10 0)
(-1.28005e-11 3.41513e-11 0)
(-5.28834e-13 6.54883e-11 0)
(-7.9573e-11 -5.40389e-11 0)
(2.52567e-11 -6.92193e-11 0)
(-3.73064e-11 -1.04709e-10 0)
(1.59642e-11 -1.76365e-10 0)
(7.23302e-11 -2.0653e-11 0)
(-7.13748e-11 -4.77487e-12 0)
(-2.54665e-11 2.45719e-11 0)
(8.93565e-12 1.81328e-10 0)
(-6.66159e-11 1.89495e-10 0)
(-6.37016e-12 9.74025e-11 0)
(1.47898e-10 8.9365e-11 0)
(2.33872e-10 4.29276e-11 0)
(1.89555e-10 3.69469e-11 0)
(-4.25048e-12 -8.56817e-11 0)
(-2.28732e-10 -1.5349e-10 0)
(4.06687e-12 4.08091e-11 0)
(-2.43258e-11 9.60456e-11 0)
(6.09908e-11 4.5978e-11 0)
(-3.14342e-11 6.13431e-11 0)
(7.72162e-13 -2.39415e-12 0)
(-1.0173e-10 2.10639e-12 0)
(5.16951e-11 -7.18893e-11 0)
(-5.63729e-11 -9.59739e-11 0)
(4.79357e-11 -1.00238e-10 0)
(9.55489e-11 -1.09581e-10 0)
(-1.20684e-10 2.75268e-11 0)
(-2.83056e-11 1.38912e-10 0)
(-9.04763e-12 1.85838e-10 0)
(-1.54626e-10 2.56703e-10 0)
(-6.17886e-11 2.85731e-10 0)
(1.68349e-10 2.08795e-10 0)
(2.63066e-10 -6.74699e-12 0)
(1.97617e-10 -1.4822e-10 0)
(8.83337e-12 -3.15975e-10 0)
(-2.18175e-10 -2.65566e-10 0)
(5.73121e-13 3.48936e-11 0)
(-9.27202e-12 9.04784e-11 0)
(8.8505e-12 2.07642e-11 0)
(-1.01092e-11 7.85719e-11 0)
(2.54952e-11 -2.02412e-11 0)
(-2.66218e-11 4.97523e-11 0)
(8.19803e-12 -3.45847e-11 0)
(1.94253e-11 -9.7685e-11 0)
(-4.31398e-11 -1.26672e-11 0)
(9.94824e-11 -1.73558e-10 0)
(3.73863e-11 -2.9196e-11 0)
(-9.60736e-11 1.73615e-10 0)
(-6.09927e-11 1.92737e-10 0)
(-1.58475e-11 2.77274e-10 0)
(-5.19418e-11 3.58515e-10 0)
(-6.45212e-11 2.7538e-10 0)
(1.13338e-11 9.72889e-12 0)
(8.36851e-11 -2.05944e-10 0)
(5.28408e-11 -4.22892e-10 0)
(-5.05375e-11 -3.24221e-10 0)
(-4.31243e-11 4.80615e-11 0)
(-1.90262e-11 2.50037e-11 0)
(-4.73345e-11 9.01449e-11 0)
(6.44843e-11 9.41989e-12 0)
(1.91964e-11 7.60713e-11 0)
(1.00504e-10 9.68682e-13 0)
(-8.88092e-11 5.06241e-11 0)
(1.16074e-10 -1.48796e-10 0)
(-1.08283e-10 -2.45048e-12 0)
(-6.92568e-11 -8.07314e-11 0)
(2.02097e-10 -1.44446e-10 0)
(-2.57693e-12 4.48297e-11 0)
(-1.02743e-10 2.11761e-10 0)
(1.85359e-11 2.68581e-10 0)
(-5.07482e-11 2.65022e-10 0)
(-1.84435e-10 2.38509e-10 0)
(-1.63008e-10 7.94382e-11 0)
(-4.97889e-11 -1.10596e-10 0)
(6.89621e-11 -3.6048e-10 0)
(1.26841e-10 -2.98227e-10 0)
(-4.10473e-11 1.75921e-11 0)
(-4.53495e-11 3.93691e-11 0)
(-6.92331e-11 1.19036e-10 0)
(9.69952e-11 1.34191e-11 0)
(-1.5391e-11 2.05087e-10 0)
(1.6169e-10 -5.86474e-11 0)
(-1.14537e-10 1.20536e-10 0)
(4.82393e-11 -8.32374e-11 0)
(6.66912e-11 -1.24966e-10 0)
(-2.77866e-10 8.90328e-11 0)
(2.15696e-11 -6.88833e-11 0)
(1.73043e-10 -1.08227e-10 0)
(5.27581e-11 8.17886e-11 0)
(8.12789e-12 1.57933e-10 0)
(-4.75966e-11 1.36505e-10 0)
(-1.50176e-10 1.76075e-10 0)
(-2.23753e-10 1.35309e-10 0)
(-1.89802e-10 4.67754e-11 0)
(1.23317e-11 -1.36661e-10 0)
(2.11897e-10 -1.74866e-10 0)
(8.86423e-12 -1.95964e-11 0)
(-4.4114e-11 7.89717e-11 0)
(-2.07495e-11 8.57106e-11 0)
(4.65228e-11 1.63732e-10 0)
(3.39285e-11 9.18548e-11 0)
(9.0188e-11 -4.46115e-11 0)
(1.05793e-10 -4.5659e-11 0)
(-2.22067e-10 6.12694e-11 0)
(2.41191e-10 -2.91603e-10 0)
(-9.09006e-11 -2.09818e-11 0)
(-3.10594e-10 9.00613e-11 0)
(1.29016e-12 -1.89477e-11 0)
(1.1018e-10 2.85748e-11 0)
(6.21963e-11 8.83381e-11 0)
(6.56418e-11 9.02423e-11 0)
(2.85541e-11 1.10538e-10 0)
(-1.08424e-10 8.44453e-11 0)
(-1.64439e-10 1.015e-10 0)
(-2.77123e-11 5.69366e-12 0)
(1.05678e-10 -8.77184e-11 0)
(6.14384e-11 -5.78691e-11 0)
(-2.20306e-12 7.26662e-11 0)
(4.92719e-11 8.95107e-11 0)
(-6.1837e-11 2.5627e-10 0)
(9.70011e-11 -1.40979e-10 0)
(-1.36979e-10 2.31752e-10 0)
(4.08047e-10 -3.91819e-10 0)
(-3.7247e-10 3.37895e-10 0)
(-4.71941e-11 -6.09493e-11 0)
(2.18324e-10 -1.7157e-10 0)
(-2.0452e-10 9.85048e-11 0)
(-1.56621e-10 1.15355e-10 0)
(2.49917e-11 4.65899e-11 0)
(7.47697e-11 3.95307e-11 0)
(1.21228e-10 3.87706e-11 0)
(1.13334e-10 2.64626e-11 0)
(4.48914e-12 9.21175e-12 0)
(-8.7554e-11 8.82045e-11 0)
(-8.31797e-11 7.36863e-11 0)
(-5.88975e-11 -2.9219e-11 0)
(7.20643e-11 -8.0388e-11 0)
(9.76596e-11 7.17448e-11 0)
(1.15677e-10 1.72419e-10 0)
(-8.98607e-11 1.80343e-10 0)
(1.69094e-10 -2.78422e-10 0)
(-3.10052e-10 3.21639e-10 0)
(5.75577e-10 -7.82717e-10 0)
(3.21329e-10 -2.60736e-10 0)
(-6.3146e-10 3.11428e-10 0)
(1.2437e-10 -8.29103e-11 0)
(-4.61272e-12 3.37117e-11 0)
(-2.34211e-10 1.46247e-10 0)
(-1.5604e-10 1.09817e-10 0)
(-1.75275e-11 7.8283e-11 0)
(9.40202e-11 4.98761e-11 0)
(1.57189e-10 5.63941e-12 0)
(1.37353e-10 -5.21381e-11 0)
(3.56382e-11 -1.47872e-11 0)
(-8.05822e-11 -2.62739e-11 0)
(-1.67787e-10 -6.41613e-11 0)
(9.4561e-11 9.06707e-11 0)
(2.40039e-10 1.82134e-12 0)
(1.30203e-10 5.94302e-11 0)
(-1.44492e-10 -1.02811e-10 0)
(9.2305e-11 -8.05983e-12 0)
(-3.06217e-10 7.50937e-11 0)
(-6.93863e-10 -1.03311e-09 0)
(1.85773e-09 -2.79374e-10 0)
(-8.33287e-12 2.2927e-10 0)
(-2.73658e-10 8.0573e-11 0)
(-2.7248e-12 -7.45023e-11 0)
(-2.13211e-10 4.16308e-11 0)
(-2.19126e-10 1.32406e-10 0)
(-7.84021e-11 1.53347e-10 0)
(4.13927e-11 1.17731e-10 0)
(1.38787e-10 4.70102e-11 0)
(1.67003e-10 -5.96947e-11 0)
(8.89286e-11 -1.05377e-10 0)
(-4.50941e-11 -1.30934e-10 0)
(-1.87323e-10 -9.31049e-11 0)
(-1.65728e-11 2.62209e-10 0)
(1.99058e-11 -3.9904e-11 0)
(-9.41979e-12 -2.76806e-10 0)
(2.41142e-11 -3.44921e-10 0)
(1.42291e-10 7.09855e-10 0)
(-1.03195e-09 -7.13852e-10 0)
(-8.15363e-10 2.79838e-09 0)
(6.57814e-10 -1.70795e-10 0)
(1.26658e-10 -6.21461e-10 0)
(-3.97192e-10 -7.61435e-11 0)
(-1.47701e-10 -9.70474e-11 0)
(-4.12233e-11 3.61544e-11 0)
(-6.71428e-11 1.7074e-10 0)
(-7.18615e-11 1.91028e-10 0)
(-6.09551e-11 1.28894e-10 0)
(-4.74169e-12 4.2144e-11 0)
(5.83821e-11 -4.82434e-11 0)
(6.91152e-11 -1.01594e-10 0)
(1.8037e-11 -1.04346e-10 0)
(-9.25816e-11 -5.70238e-11 0)
(-1.78795e-10 1.32301e-10 0)
(-2.45683e-10 1.97928e-12 0)
(-7.42585e-11 -2.13718e-10 0)
(3.82129e-10 -1.92227e-10 0)
(-2.37916e-10 5.46896e-10 0)
(1.81288e-09 -7.09086e-10 0)
(8.05865e-10 3.32654e-09 0)
(-2.2393e-09 -4.37286e-10 0)
(3.42718e-10 -6.63937e-10 0)
(3.89047e-10 -1.7144e-10 0)
(1.46215e-10 -2.42762e-11 0)
(1.72941e-10 8.13735e-11 0)
(2.20641e-11 1.53228e-10 0)
(-1.34967e-10 1.45707e-10 0)
(-2.05778e-10 8.8684e-11 0)
(-1.43545e-10 2.26344e-11 0)
(-1.91663e-11 -4.15604e-11 0)
(7.25041e-11 -6.79106e-11 0)
(7.56184e-11 -9.09435e-11 0)
(-3.1466e-11 -5.71114e-11 0)
)
;

boundaryField
{
    sides
    {
        type            calculated;
        value           nonuniform List<vector> 
40
(
(-1.78795e-10 0 0)
(-2.45683e-10 0 0)
(-7.42585e-11 0 0)
(3.82129e-10 0 0)
(-2.37916e-10 0 0)
(1.81288e-09 0 0)
(8.05865e-10 0 0)
(-2.2393e-09 0 0)
(3.42718e-10 0 0)
(3.89047e-10 0 0)
(1.46215e-10 0 0)
(1.72941e-10 0 0)
(2.20641e-11 0 0)
(-1.34967e-10 0 0)
(-2.05778e-10 0 0)
(-1.43545e-10 0 0)
(-1.91663e-11 0 0)
(7.25041e-11 0 0)
(7.56184e-11 0 0)
(-3.1466e-11 0 0)
(-1.6783e-10 0 0)
(-2.60653e-10 0 0)
(-7.33615e-11 0 0)
(1.45664e-10 0 0)
(5.13638e-11 0 0)
(-1.24544e-09 0 0)
(6.3859e-10 0 0)
(1.79124e-09 0 0)
(-6.71193e-10 0 0)
(-3.36768e-11 0 0)
(-3.96405e-11 0 0)
(1.42536e-10 0 0)
(1.59975e-10 0 0)
(8.43515e-12 0 0)
(-1.27867e-10 0 0)
(-1.42464e-10 0 0)
(-3.6002e-11 0 0)
(7.38318e-11 0 0)
(7.50304e-11 0 0)
(6.36955e-11 0 0)
)
;
    }
    inlet
    {
        type            calculated;
        value           uniform (0 0 0);
    }
    outlet
    {
        type            calculated;
        value           nonuniform List<vector> 
20
(
(6.36955e-11 -2.68893e-11 0)
(-7.44871e-12 1.8622e-12 0)
(-5.51571e-11 -8.40898e-11 0)
(-5.44128e-11 -1.6067e-10 0)
(6.58646e-11 -2.04349e-10 0)
(2.22897e-10 -2.27852e-10 0)
(2.64914e-10 -1.36812e-10 0)
(1.54601e-10 -6.62926e-11 0)
(-6.34305e-11 -6.0252e-11 0)
(-2.28732e-10 -1.5349e-10 0)
(-2.18175e-10 -2.65566e-10 0)
(-5.05375e-11 -3.24221e-10 0)
(1.26841e-10 -2.98227e-10 0)
(2.11897e-10 -1.74866e-10 0)
(1.05678e-10 -8.77184e-11 0)
(-5.88975e-11 -2.9219e-11 0)
(-1.67787e-10 -6.41613e-11 0)
(-1.87323e-10 -9.31049e-11 0)
(-9.25816e-11 -5.70238e-11 0)
(-3.1466e-11 -5.71114e-11 0)
)
;
    }
    frontAndBack
    {
        type            empty;
    }
}


// ************************************************************************* //
