/*--------------------------------*- C++ -*----------------------------------*\
  =========                 |
  \\      /  F ield         | OpenFOAM: The Open Source CFD Toolbox
   \\    /   O peration     | Website:  https://openfoam.org
    \\  /    A nd           | Version:  7
     \\/     M anipulation  |
\*---------------------------------------------------------------------------*/
FoamFile
{
    version     2.0;
    format      ascii;
    class       surfaceScalarField;
    location    "80";
    object      ddtCorrDdt0(phi);
}
// * * * * * * * * * * * * * * * * * * * * * * * * * * * * * * * * * * * * * //

dimensions      [0 4 -2 0 0 0 0];

internalField   nonuniform List<scalar> 
760
(
-1.32137e-12
-1.27959e-12
-1.76297e-12
1.56999e-13
-2.89058e-14
1.53011e-12
3.82258e-12
-1.11413e-14
-9.25525e-12
-9.71216e-13
5.70586e-12
1.82209e-10
3.21971e-12
2.6699e-10
1.01812e-12
-3.33743e-10
-2.5784e-13
-9.47673e-12
-5.95373e-13
-4.14373e-13
3.45144e-13
-2.84976e-14
9.37658e-13
1.96916e-13
4.80019e-13
-4.84936e-15
-3.68588e-13
-2.08577e-13
-7.80671e-13
-1.79636e-13
-5.01403e-13
2.64581e-14
1.51131e-13
2.32912e-13
4.88434e-13
3.99042e-13
3.33628e-13
2.62582e-13
1.17649e-14
-1.42997e-13
-1.83748e-12
5.77517e-13
1.10043e-14
-1.16302e-12
9.89812e-13
-1.30426e-13
1.97225e-12
3.20664e-12
-1.62042e-12
5.07502e-12
1.71465e-12
-1.02006e-11
-1.81666e-11
-4.72052e-12
-4.89159e-12
1.69896e-12
1.53538e-12
7.19619e-14
-3.9456e-13
6.15686e-13
1.56412e-13
5.57997e-13
4.45594e-13
2.4626e-13
1.3491e-13
-4.18855e-14
-5.69576e-14
-1.41154e-13
3.3624e-14
-1.75351e-14
2.25204e-13
2.1348e-13
3.28779e-13
2.78023e-13
4.17093e-13
-1.42392e-14
1.0947e-13
-1.60214e-13
1.22241e-12
3.2676e-13
1.31981e-12
2.08676e-13
1.66384e-13
-1.9156e-14
-2.68102e-12
1.09455e-12
3.1116e-12
-7.66617e-13
-7.96899e-12
2.78238e-12
2.66186e-14
-6.61474e-13
5.98697e-12
6.39531e-12
-9.21814e-13
5.1871e-13
5.11715e-13
-7.55452e-13
6.77878e-13
3.7338e-13
-2.77547e-13
1.83285e-13
-3.63288e-13
8.21416e-14
5.42904e-15
2.51739e-13
3.33737e-13
4.59418e-13
4.88191e-13
5.75038e-13
4.27063e-13
3.20975e-13
7.74393e-14
1.87046e-14
-3.376e-13
-5.59482e-13
-5.93771e-13
7.03356e-13
9.77339e-13
2.01899e-13
5.36736e-13
8.32099e-13
-1.99931e-13
-2.55507e-12
-2.79514e-13
2.86533e-12
9.71348e-13
-5.39123e-12
-1.70531e-12
5.82228e-12
3.56966e-12
2.10221e-13
9.76176e-13
-1.68177e-12
-2.28516e-12
1.48824e-12
4.42739e-13
4.06315e-13
2.61732e-13
-5.13758e-13
-2.9986e-13
-2.20892e-13
2.45839e-13
3.48284e-13
7.33662e-13
6.26817e-13
8.2669e-13
5.81243e-13
7.70226e-13
2.8181e-13
1.65012e-13
-1.90107e-13
-5.70273e-13
-4.03862e-13
-1.3085e-12
-9.76552e-13
8.07402e-14
7.16067e-13
-4.29715e-13
3.43895e-13
1.96341e-13
2.27226e-13
-1.0465e-12
-9.63179e-13
2.64746e-13
1.25932e-12
-6.38469e-13
-1.31882e-12
2.39696e-12
1.388e-12
-3.03259e-12
-2.06782e-12
1.07266e-12
-9.3525e-14
9.83694e-13
6.81943e-13
-7.19416e-13
-5.8587e-13
-3.45917e-13
-3.47025e-13
1.80407e-13
7.71148e-13
5.37766e-13
1.26056e-12
6.72489e-13
1.07013e-12
2.89789e-13
7.39813e-13
-2.74214e-13
-5.48586e-14
-4.53255e-13
-8.51807e-13
4.34746e-14
-1.60974e-12
-1.16564e-12
-3.51076e-13
1.29378e-13
-3.58923e-13
1.07245e-13
-8.5587e-13
5.68657e-13
6.82592e-13
-9.75008e-16
-1.47461e-12
2.57106e-14
1.4644e-12
4.94834e-13
-8.54428e-13
-8.2224e-14
-7.87605e-13
-8.71346e-13
1.87286e-12
8.27176e-13
-5.75334e-13
-7.27741e-13
-7.11568e-13
-9.71941e-13
7.06778e-13
4.91846e-13
6.20235e-13
1.24232e-12
2.77093e-13
1.43317e-12
2.02742e-13
1.21974e-12
-3.92222e-13
6.69476e-13
-1.08823e-12
-1.68662e-13
-7.90293e-13
-5.54024e-13
6.08726e-13
-1.13911e-12
-9.98428e-13
-5.447e-13
-2.92648e-13
-3.76588e-14
2.00379e-13
-9.66521e-13
1.63508e-13
9.2157e-13
1.35018e-12
-6.97561e-13
-4.08833e-14
1.1175e-12
7.71668e-13
-1.34355e-12
-6.77004e-13
8.98747e-13
-1.32849e-13
-2.20662e-13
-2.82268e-13
-1.42159e-12
-1.28071e-12
4.24015e-13
1.84534e-13
1.10974e-12
1.08549e-12
5.12953e-13
7.60831e-13
2.39381e-14
8.67003e-13
-2.2068e-13
1.01935e-12
-6.73564e-13
6.05348e-13
-1.12426e-12
-7.77992e-14
-6.82613e-13
1.18182e-13
8.39714e-13
-1.67446e-14
-4.35746e-13
-1.44849e-13
-3.55881e-13
-2.13271e-13
4.13192e-13
2.31286e-13
3.78458e-13
-1.22407e-13
8.30323e-13
4.46282e-13
5.55231e-13
-1.03589e-13
2.7979e-13
-4.85126e-13
-4.4464e-13
7.67737e-13
-1.24848e-13
-1.25374e-12
-1.0115e-12
1.74922e-13
-3.16822e-13
1.2166e-12
4.96901e-13
2.60367e-13
2.37059e-13
2.641e-13
2.80565e-13
2.01787e-13
5.58395e-13
-5.47191e-13
5.8661e-13
-8.84009e-13
4.79508e-13
-6.5731e-13
1.67924e-13
-2.05043e-13
6.1861e-13
5.2918e-13
5.66963e-13
-1.73328e-13
4.33443e-13
2.18432e-13
-2.63623e-13
-3.15238e-14
6.03161e-13
7.09782e-13
-3.42583e-13
1.63327e-13
4.01908e-13
5.14387e-13
-4.41525e-13
-3.10822e-13
2.08782e-13
-3.11197e-13
4.21156e-14
-4.89827e-13
-4.62641e-13
-1.02304e-12
6.71797e-13
5.18514e-14
2.44961e-13
-5.36632e-14
-3.92187e-13
-1.25405e-13
2.65107e-13
7.75653e-13
4.17563e-13
7.39251e-13
-2.01537e-13
1.26553e-13
-2.30691e-13
2.16506e-13
3.99251e-13
3.05883e-13
5.81618e-13
6.17159e-13
-6.95636e-14
1.93371e-13
-4.46477e-13
-3.24528e-14
3.36733e-13
3.47045e-13
2.51742e-13
5.59009e-14
4.20864e-13
6.59861e-14
1.50262e-13
-3.3411e-13
1.3217e-13
-1.84863e-13
-2.13898e-13
2.03815e-13
-3.54575e-13
-4.02568e-13
-5.17515e-13
5.21061e-13
-6.98935e-13
-2.3466e-14
-2.69905e-13
-4.18106e-13
3.48808e-14
1.08991e-13
3.89547e-13
-1.45762e-13
9.77096e-13
-2.98062e-13
1.13127e-12
3.03406e-13
8.9789e-13
9.33108e-13
7.05064e-13
1.253e-12
1.0079e-13
7.84146e-13
-2.66665e-13
-7.00745e-13
-1.02734e-12
-1.06792e-12
-3.05358e-13
8.32301e-14
4.2748e-13
7.32793e-13
-1.74808e-13
2.41317e-14
1.75684e-13
4.53627e-13
-5.06739e-13
-1.72617e-13
-8.30849e-14
2.19754e-13
2.36713e-13
-3.51297e-13
-5.06679e-13
-4.12752e-13
8.38156e-13
-2.63222e-13
-1.60609e-13
-7.89395e-13
-5.99253e-13
2.22691e-13
1.45072e-13
9.67545e-13
-4.509e-13
8.66623e-13
-7.01697e-13
1.40516e-12
2.51433e-13
1.92129e-12
1.07436e-12
1.39049e-12
1.32893e-12
-1.07036e-13
8.11504e-13
-1.15257e-12
-6.39836e-13
-2.08861e-12
-1.56902e-12
1.76273e-13
2.84828e-13
-3.11602e-13
1.92738e-13
3.03446e-13
1.80412e-13
-2.28936e-13
3.6455e-13
2.52733e-13
-2.56055e-14
-3.53185e-13
2.64611e-13
4.35698e-13
-2.26881e-14
-3.53952e-13
-6.05109e-13
1.34911e-13
9.18754e-14
6.38931e-13
-8.9471e-13
-2.74586e-13
-4.99592e-13
-5.4146e-13
7.75573e-13
-1.13227e-13
1.14565e-12
-6.36505e-14
1.41628e-12
-3.78201e-13
1.63583e-12
-2.72899e-13
1.34733e-12
3.19371e-13
2.28887e-13
5.18191e-13
-8.99008e-13
-1.91872e-14
-2.17808e-12
-1.68137e-12
-6.09516e-14
1.91214e-13
-5.05804e-13
4.03352e-14
5.34007e-13
7.34372e-13
-3.70954e-13
-3.13681e-13
8.99242e-13
7.95078e-13
-3.6035e-13
-1.89654e-13
1.17536e-13
6.29471e-13
4.06643e-13
-7.51283e-13
-1.15195e-12
-4.96423e-14
7.38568e-13
1.69865e-13
7.46044e-13
-9.17538e-13
-6.38356e-13
-4.43502e-13
-1.7505e-13
7.95953e-13
1.44888e-13
1.12314e-12
-6.49351e-13
9.26415e-13
-9.92487e-13
1.03049e-12
-5.85961e-13
6.43978e-13
-4.23743e-14
-1.03534e-13
5.50777e-13
-1.30323e-12
-1.23662e-12
-4.5795e-13
-2.7549e-14
5.34427e-14
3.42467e-13
-4.23045e-13
4.09709e-13
6.82404e-13
4.22551e-13
2.74303e-14
1.24359e-12
6.93174e-13
-6.19699e-13
-1.10713e-12
3.36282e-13
1.31791e-12
-2.82509e-13
-1.08706e-12
-1.45557e-12
-8.95946e-13
5.57615e-13
9.13561e-13
2.81029e-13
5.21354e-13
-5.18664e-13
6.79292e-14
1.14181e-13
-4.2517e-14
5.32153e-13
-4.32234e-13
4.84933e-13
-9.08519e-13
7.08087e-13
-1.20787e-12
6.17181e-13
-7.53347e-13
4.76223e-13
6.72172e-13
-1.94322e-13
-5.82613e-13
-2.52491e-13
-2.7333e-13
1.71544e-13
3.92321e-13
-6.7471e-13
4.43892e-13
1.55128e-12
1.53964e-12
-1.34488e-12
-4.90824e-13
2.15755e-12
4.10678e-13
-1.56313e-12
-6.80468e-13
3.60979e-13
1.24925e-12
1.0138e-12
-1.26676e-12
-1.72238e-12
-7.69527e-13
-7.5261e-13
6.64471e-13
5.62809e-13
3.59896e-13
3.76363e-13
8.39226e-14
2.35172e-13
1.85448e-13
3.59901e-13
2.35262e-13
-8.42257e-14
2.61534e-13
-8.69665e-13
2.13987e-13
-7.7385e-13
6.11199e-13
2.92164e-13
4.42913e-13
-1.71197e-13
2.1875e-13
-3.63759e-13
4.64207e-14
2.95055e-13
1.45536e-13
6.72094e-13
2.69686e-13
1.15686e-12
-9.18038e-13
-1.36566e-12
1.50083e-12
2.15383e-12
2.80275e-13
-4.34497e-12
-2.31639e-12
2.46489e-12
1.63409e-12
9.03843e-13
-2.28505e-13
-1.00412e-12
-1.26933e-12
1.69069e-13
-1.31512e-13
8.16545e-13
2.78944e-13
5.49319e-13
4.25986e-13
3.83187e-13
6.54724e-13
2.51189e-13
3.98517e-13
-3.5754e-15
-2.64757e-13
-2.17645e-13
-5.62074e-13
1.91499e-13
-3.3513e-13
1.88954e-13
-2.02887e-13
8.43919e-13
1.35746e-13
2.11481e-13
1.97655e-13
1.13954e-12
4.28121e-13
-1.98016e-12
-4.93704e-13
2.53953e-12
1.91615e-14
-3.29441e-12
-4.89246e-13
6.81537e-12
-1.35064e-12
-3.86209e-12
-9.65291e-12
-5.80953e-13
2.3968e-12
8.01438e-13
2.26297e-13
-9.49686e-13
-1.09871e-13
-1.03167e-12
6.27136e-13
-3.92571e-13
7.50602e-13
1.8854e-13
6.14633e-13
6.17498e-13
3.7795e-13
7.86748e-13
5.81223e-14
5.17257e-13
-3.52587e-13
-8.97108e-14
-3.61107e-13
-6.79675e-13
-4.14478e-13
-3.95024e-13
1.54956e-12
8.17427e-13
1.00362e-12
-6.35743e-14
8.53503e-13
-6.06424e-13
-3.73961e-12
-1.89771e-12
5.46938e-12
2.22586e-12
-9.68322e-12
7.46325e-13
7.33997e-12
2.26546e-12
4.96163e-12
1.19571e-11
-2.43123e-12
-2.08038e-12
1.15712e-13
6.0967e-13
-6.63064e-13
-1.19914e-13
-1.24992e-12
1.19815e-13
-7.28575e-13
6.22987e-13
-6.10675e-14
7.81735e-13
4.36161e-13
6.39172e-13
7.68523e-13
3.61415e-13
7.29047e-13
-1.79566e-13
2.19714e-13
-5.98894e-13
-6.36832e-13
-7.51213e-13
-4.55405e-13
-2.50782e-13
1.12716e-12
7.62842e-13
-2.92163e-13
-2.11508e-13
-1.55305e-12
-9.24347e-13
-3.3454e-13
3.12694e-12
2.82006e-12
-1.59471e-11
-3.04026e-10
1.0395e-11
4.56357e-10
-1.34578e-12
-3.0972e-10
-1.24739e-12
-1.461e-11
-1.32623e-12
-7.33636e-13
-2.69351e-13
-5.23243e-13
-3.01697e-13
2.0383e-14
-3.49589e-13
5.36105e-13
-3.22187e-13
7.2163e-13
-1.87428e-13
6.01306e-13
9.09074e-14
3.47928e-13
3.26302e-13
-8.52731e-14
3.33284e-13
-4.62395e-13
-1.81576e-13
-5.99972e-13
-3.42468e-13
-1.36285e-12
-1.23861e-12
-5.61482e-13
5.95155e-12
-8.07881e-12
2.67366e-11
-2.19432e-11
1.35774e-12
2.51143e-12
7.53067e-13
1.03724e-12
5.13656e-13
-3.52074e-13
-9.06177e-13
-9.19382e-13
-4.523e-13
1.27485e-13
4.52354e-13
1.50581e-13
)
;

boundaryField
{
    sides
    {
        type            calculated;
        value           uniform 0;
    }
    inlet
    {
        type            calculated;
        value           uniform 0;
    }
    outlet
    {
        type            calculated;
        value           nonuniform List<scalar> 
20
(
2.12681e-13
-2.22866e-13
-4.63943e-13
-3.5112e-13
4.92761e-13
1.52182e-12
1.83285e-12
1.00404e-12
-5.53178e-13
-1.66267e-12
-1.56702e-12
-4.47798e-13
8.76853e-13
1.566e-12
9.29855e-13
-1.91777e-13
-9.55084e-13
-1.15557e-12
-6.22755e-13
-2.40835e-13
)
;
    }
    frontAndBack
    {
        type            empty;
        value           nonuniform 0();
    }
}


// ************************************************************************* //
