/*--------------------------------*- C++ -*----------------------------------*\
  =========                 |
  \\      /  F ield         | OpenFOAM: The Open Source CFD Toolbox
   \\    /   O peration     | Website:  https://openfoam.org
    \\  /    A nd           | Version:  7
     \\/     M anipulation  |
\*---------------------------------------------------------------------------*/
FoamFile
{
    version     2.0;
    format      ascii;
    class       volVectorField;
    location    "80";
    object      hU;
}
// * * * * * * * * * * * * * * * * * * * * * * * * * * * * * * * * * * * * * //

dimensions      [0 2 -1 0 0 0 0];

internalField   nonuniform List<vector> 
400
(
(0.001 -8.74491e-09 0)
(0.000999999 -2.37853e-08 0)
(0.001 -3.60197e-08 0)
(0.001 -4.67522e-08 0)
(0.00100001 -5.69856e-08 0)
(0.00100001 -6.7519e-08 0)
(0.00100002 -7.82929e-08 0)
(0.00100003 -8.92685e-08 0)
(0.00100004 -9.99826e-08 0)
(0.00100006 -1.11919e-07 0)
(0.00100007 -1.22632e-07 0)
(0.0010001 -1.36138e-07 0)
(0.00100011 -1.46515e-07 0)
(0.00100015 -1.63357e-07 0)
(0.00100017 -1.72196e-07 0)
(0.00100024 -1.96343e-07 0)
(0.00100026 -2.00843e-07 0)
(0.00100038 -2.43073e-07 0)
(0.00100038 -2.39195e-07 0)
(0.00100061 -3.31828e-07 0)
(0.001 3.9572e-09 0)
(0.001 1.2096e-08 0)
(0.00100001 2.02602e-08 0)
(0.00100001 2.79833e-08 0)
(0.00100002 3.51257e-08 0)
(0.00100002 4.16251e-08 0)
(0.00100003 4.75239e-08 0)
(0.00100004 5.29769e-08 0)
(0.00100005 5.83732e-08 0)
(0.00100007 6.22731e-08 0)
(0.00100008 6.6948e-08 0)
(0.0010001 6.85662e-08 0)
(0.00100012 7.2672e-08 0)
(0.00100016 6.98578e-08 0)
(0.00100018 7.40177e-08 0)
(0.00100023 6.16711e-08 0)
(0.00100026 6.71557e-08 0)
(0.00100035 3.17538e-08 0)
(0.00100037 3.98371e-08 0)
(0.0010005 -5.45874e-08 0)
(0.001 -3.98051e-09 0)
(0.000999999 -1.30478e-08 0)
(0.001 -2.31106e-08 0)
(0.001 -3.37228e-08 0)
(0.00100001 -4.42809e-08 0)
(0.00100001 -5.50413e-08 0)
(0.00100002 -6.56673e-08 0)
(0.00100003 -7.7359e-08 0)
(0.00100004 -8.88502e-08 0)
(0.00100005 -1.02499e-07 0)
(0.00100006 -1.1521e-07 0)
(0.00100009 -1.32365e-07 0)
(0.0010001 -1.46479e-07 0)
(0.00100014 -1.70031e-07 0)
(0.00100016 -1.85162e-07 0)
(0.00100021 -2.21199e-07 0)
(0.00100023 -2.3576e-07 0)
(0.00100031 -2.97655e-07 0)
(0.00100033 -3.06278e-07 0)
(0.00100046 -4.22152e-07 0)
(0.001 -1.38025e-10 0)
(0.001 -7.28122e-11 0)
(0.00100001 5.23838e-10 0)
(0.00100001 1.20652e-09 0)
(0.00100001 1.89952e-09 0)
(0.00100002 1.80771e-09 0)
(0.00100003 1.49776e-09 0)
(0.00100004 -3.62378e-10 0)
(0.00100004 -2.41439e-09 0)
(0.00100006 -7.04382e-09 0)
(0.00100007 -1.1166e-08 0)
(0.00100009 -2.04184e-08 0)
(0.00100011 -2.71237e-08 0)
(0.00100013 -4.4262e-08 0)
(0.00100016 -5.35768e-08 0)
(0.00100019 -8.50639e-08 0)
(0.00100022 -9.56037e-08 0)
(0.00100028 -1.54785e-07 0)
(0.0010003 -1.61076e-07 0)
(0.00100039 -2.75848e-07 0)
(0.001 -2.89352e-09 0)
(0.001 -9.25542e-09 0)
(0.001 -1.63563e-08 0)
(0.001 -2.44466e-08 0)
(0.00100001 -3.31273e-08 0)
(0.00100001 -4.2859e-08 0)
(0.00100002 -5.29166e-08 0)
(0.00100002 -6.46047e-08 0)
(0.00100003 -7.64959e-08 0)
(0.00100004 -9.12108e-08 0)
(0.00100005 -1.05567e-07 0)
(0.00100007 -1.25343e-07 0)
(0.00100009 -1.42678e-07 0)
(0.00100011 -1.70915e-07 0)
(0.00100013 -1.91262e-07 0)
(0.00100016 -2.34428e-07 0)
(0.00100018 -2.55925e-07 0)
(0.00100024 -3.26688e-07 0)
(0.00100025 -3.41671e-07 0)
(0.00100033 -4.64399e-07 0)
(0.001 -2.57957e-09 0)
(0.001 -7.59338e-09 0)
(0.001 -1.23087e-08 0)
(0.00100001 -1.70892e-08 0)
(0.00100001 -2.18766e-08 0)
(0.00100001 -2.74238e-08 0)
(0.00100002 -3.33363e-08 0)
(0.00100002 -4.09451e-08 0)
(0.00100003 -4.89445e-08 0)
(0.00100004 -6.01102e-08 0)
(0.00100005 -7.12106e-08 0)
(0.00100006 -8.81482e-08 0)
(0.00100008 -1.03112e-07 0)
(0.0010001 -1.29451e-07 0)
(0.00100011 -1.48405e-07 0)
(0.00100014 -1.90438e-07 0)
(0.00100016 -2.11201e-07 0)
(0.0010002 -2.80693e-07 0)
(0.00100021 -2.94717e-07 0)
(0.00100027 -4.14973e-07 0)
(0.001 -2.91771e-09 0)
(0.001 -8.92992e-09 0)
(0.001 -1.52546e-08 0)
(0.001 -2.23177e-08 0)
(0.00100001 -3.00733e-08 0)
(0.00100001 -3.90713e-08 0)
(0.00100001 -4.8853e-08 0)
(0.00100002 -6.05695e-08 0)
(0.00100002 -7.2936e-08 0)
(0.00100003 -8.86644e-08 0)
(0.00100004 -1.04448e-07 0)
(0.00100005 -1.26304e-07 0)
(0.00100006 -1.46264e-07 0)
(0.00100007 -1.77845e-07 0)
(0.00100009 -2.01893e-07 0)
(0.00100011 -2.49348e-07 0)
(0.00100012 -2.749e-07 0)
(0.00100015 -3.49719e-07 0)
(0.00100016 -3.67405e-07 0)
(0.00100021 -4.92183e-07 0)
(0.001 -3.21405e-09 0)
(0.001 -9.81171e-09 0)
(0.001 -1.66545e-08 0)
(0.001 -2.40695e-08 0)
(0.001 -3.19485e-08 0)
(0.00100001 -4.08433e-08 0)
(0.00100001 -5.03117e-08 0)
(0.00100001 -6.15949e-08 0)
(0.00100002 -7.35143e-08 0)
(0.00100002 -8.879e-08 0)
(0.00100003 -1.04243e-07 0)
(0.00100004 -1.25889e-07 0)
(0.00100004 -1.4583e-07 0)
(0.00100005 -1.77458e-07 0)
(0.00100006 -2.0181e-07 0)
(0.00100008 -2.49423e-07 0)
(0.00100009 -2.75445e-07 0)
(0.00100011 -3.4999e-07 0)
(0.00100012 -3.67797e-07 0)
(0.00100015 -4.90801e-07 0)
(0.001 -3.3796e-09 0)
(0.001 -1.03081e-08 0)
(0.001 -1.74411e-08 0)
(0.001 -2.51502e-08 0)
(0.001 -3.33225e-08 0)
(0.001 -4.26355e-08 0)
(0.00100001 -5.26516e-08 0)
(0.00100001 -6.46959e-08 0)
(0.00100001 -7.75475e-08 0)
(0.00100001 -9.39429e-08 0)
(0.00100002 -1.10684e-07 0)
(0.00100002 -1.33807e-07 0)
(0.00100003 -1.55292e-07 0)
(0.00100003 -1.88702e-07 0)
(0.00100004 -2.14769e-07 0)
(0.00100005 -2.64357e-07 0)
(0.00100005 -2.91958e-07 0)
(0.00100007 -3.6851e-07 0)
(0.00100007 -3.87359e-07 0)
(0.00100009 -5.12457e-07 0)
(0.001 -3.45406e-09 0)
(0.001 -1.05431e-08 0)
(0.001 -1.78332e-08 0)
(0.001 -2.57271e-08 0)
(0.001 -3.41243e-08 0)
(0.001 -4.37162e-08 0)
(0.001 -5.40617e-08 0)
(0.001 -6.64729e-08 0)
(0.001 -7.97056e-08 0)
(0.001 -9.6488e-08 0)
(0.00100001 -1.13631e-07 0)
(0.00100001 -1.3713e-07 0)
(0.00100001 -1.59027e-07 0)
(0.00100001 -1.92808e-07 0)
(0.00100001 -2.19304e-07 0)
(0.00100002 -2.6918e-07 0)
(0.00100002 -2.9718e-07 0)
(0.00100002 -3.7379e-07 0)
(0.00100002 -3.92932e-07 0)
(0.00100003 -5.1744e-07 0)
(0.001 -3.45906e-09 0)
(0.001 -1.05386e-08 0)
(0.001 -1.78376e-08 0)
(0.000999999 -2.57227e-08 0)
(0.000999999 -3.4127e-08 0)
(0.000999999 -4.37096e-08 0)
(0.000999998 -5.40626e-08 0)
(0.000999997 -6.6472e-08 0)
(0.000999996 -7.97025e-08 0)
(0.000999995 -9.64932e-08 0)
(0.000999994 -1.13624e-07 0)
(0.000999993 -1.37119e-07 0)
(0.000999991 -1.59023e-07 0)
(0.000999989 -1.928e-07 0)
(0.000999987 -2.19296e-07 0)
(0.000999984 -2.69184e-07 0)
(0.000999982 -2.97196e-07 0)
(0.000999978 -3.73808e-07 0)
(0.000999976 -3.92949e-07 0)
(0.00099997 -5.17444e-07 0)
(0.001 -3.38185e-09 0)
(0.001 -1.03052e-08 0)
(0.000999999 -1.74485e-08 0)
(0.000999998 -2.51481e-08 0)
(0.000999997 -3.33308e-08 0)
(0.000999996 -4.26276e-08 0)
(0.000999994 -5.26519e-08 0)
(0.000999992 -6.46996e-08 0)
(0.000999989 -7.75401e-08 0)
(0.000999986 -9.39548e-08 0)
(0.000999983 -1.10681e-07 0)
(0.000999978 -1.33785e-07 0)
(0.000999973 -1.55275e-07 0)
(0.000999967 -1.88679e-07 0)
(0.000999961 -2.14753e-07 0)
(0.000999952 -2.64354e-07 0)
(0.000999946 -2.91974e-07 0)
(0.000999934 -3.68517e-07 0)
(0.00099993 -3.87372e-07 0)
(0.000999911 -5.1242e-07 0)
(0.001 -3.20347e-09 0)
(0.001 -9.81421e-09 0)
(0.000999999 -1.66554e-08 0)
(0.000999997 -2.40878e-08 0)
(0.000999996 -3.19542e-08 0)
(0.000999993 -4.08499e-08 0)
(0.000999991 -5.03017e-08 0)
(0.000999987 -6.16061e-08 0)
(0.000999983 -7.35096e-08 0)
(0.000999977 -8.87939e-08 0)
(0.000999971 -1.04264e-07 0)
(0.000999964 -1.25893e-07 0)
(0.000999956 -1.4582e-07 0)
(0.000999945 -1.77448e-07 0)
(0.000999936 -2.01814e-07 0)
(0.000999921 -2.49432e-07 0)
(0.000999911 -2.75465e-07 0)
(0.000999889 -3.50012e-07 0)
(0.000999882 -3.67836e-07 0)
(0.000999852 -4.90808e-07 0)
(0.001 -2.90417e-09 0)
(0.000999999 -8.92698e-09 0)
(0.000999998 -1.52546e-08 0)
(0.000999996 -2.2339e-08 0)
(0.000999994 -3.0064e-08 0)
(0.000999991 -3.90835e-08 0)
(0.000999987 -4.88268e-08 0)
(0.000999982 -6.05621e-08 0)
(0.000999977 -7.29361e-08 0)
(0.000999969 -8.86352e-08 0)
(0.000999962 -1.04446e-07 0)
(0.000999951 -1.26308e-07 0)
(0.000999941 -1.46252e-07 0)
(0.000999925 -1.77813e-07 0)
(0.000999913 -2.01861e-07 0)
(0.000999891 -2.49286e-07 0)
(0.000999878 -2.74842e-07 0)
(0.000999847 -3.4963e-07 0)
(0.000999839 -3.67336e-07 0)
(0.000999792 -4.92048e-07 0)
(0.001 -2.57552e-09 0)
(0.000999999 -7.58832e-09 0)
(0.000999997 -1.23142e-08 0)
(0.000999995 -1.70841e-08 0)
(0.000999991 -2.18748e-08 0)
(0.000999987 -2.7429e-08 0)
(0.000999982 -3.33335e-08 0)
(0.000999975 -4.09182e-08 0)
(0.000999968 -4.897e-08 0)
(0.000999959 -6.01084e-08 0)
(0.000999949 -7.12059e-08 0)
(0.000999935 -8.81669e-08 0)
(0.000999922 -1.0314e-07 0)
(0.000999903 -1.29467e-07 0)
(0.000999887 -1.48411e-07 0)
(0.000999859 -1.90421e-07 0)
(0.000999841 -2.11185e-07 0)
(0.000999802 -2.80663e-07 0)
(0.000999787 -2.94701e-07 0)
(0.000999731 -4.1495e-07 0)
(0.001 -2.91512e-09 0)
(0.001 -9.25594e-09 0)
(0.000999999 -1.63442e-08 0)
(0.000999997 -2.44017e-08 0)
(0.000999994 -3.31372e-08 0)
(0.00099999 -4.2824e-08 0)
(0.000999984 -5.29641e-08 0)
(0.000999977 -6.45563e-08 0)
(0.000999969 -7.64824e-08 0)
(0.000999958 -9.12138e-08 0)
(0.000999946 -1.05544e-07 0)
(0.00099993 -1.2532e-07 0)
(0.000999915 -1.4268e-07 0)
(0.000999891 -1.70904e-07 0)
(0.000999872 -1.91247e-07 0)
(0.000999837 -2.34367e-07 0)
(0.000999817 -2.55872e-07 0)
(0.000999764 -3.26574e-07 0)
(0.000999752 -3.4158e-07 0)
(0.00099967 -4.64229e-07 0)
(0.001 -1.79071e-10 0)
(0.000999998 -8.47488e-11 0)
(0.000999995 5.54117e-10 0)
(0.000999991 1.25188e-09 0)
(0.000999986 1.8634e-09 0)
(0.00099998 1.82469e-09 0)
(0.000999973 1.34911e-09 0)
(0.000999965 -4.17453e-10 0)
(0.000999955 -2.38772e-09 0)
(0.000999943 -7.05814e-09 0)
(0.00099993 -1.11749e-08 0)
(0.000999912 -2.04164e-08 0)
(0.000999894 -2.71373e-08 0)
(0.000999867 -4.42738e-08 0)
(0.000999845 -5.35916e-08 0)
(0.000999805 -8.50543e-08 0)
(0.000999779 -9.55947e-08 0)
(0.00099972 -1.54741e-07 0)
(0.000999698 -1.61037e-07 0)
(0.000999611 -2.75781e-07 0)
(0.001 -3.97183e-09 0)
(0.001 -1.30544e-08 0)
(0.001 -2.31089e-08 0)
(0.000999998 -3.37374e-08 0)
(0.000999995 -4.42889e-08 0)
(0.000999989 -5.50974e-08 0)
(0.000999983 -6.58083e-08 0)
(0.000999974 -7.74291e-08 0)
(0.000999963 -8.88609e-08 0)
(0.000999949 -1.02503e-07 0)
(0.000999936 -1.15231e-07 0)
(0.000999915 -1.32362e-07 0)
(0.000999896 -1.46478e-07 0)
(0.000999864 -1.70022e-07 0)
(0.000999841 -1.85185e-07 0)
(0.000999791 -2.21201e-07 0)
(0.000999767 -2.35792e-07 0)
(0.000999687 -2.9763e-07 0)
(0.000999671 -3.06284e-07 0)
(0.000999539 -4.22074e-07 0)
(0.001 4.00372e-09 0)
(0.000999996 1.21064e-08 0)
(0.000999991 2.02046e-08 0)
(0.000999987 2.78797e-08 0)
(0.000999982 3.51912e-08 0)
(0.000999976 4.1603e-08 0)
(0.000999969 4.79463e-08 0)
(0.000999959 5.30083e-08 0)
(0.000999948 5.83405e-08 0)
(0.000999934 6.22938e-08 0)
(0.000999919 6.69627e-08 0)
(0.000999897 6.86007e-08 0)
(0.000999878 7.27099e-08 0)
(0.000999845 6.98966e-08 0)
(0.000999819 7.40229e-08 0)
(0.000999767 6.16883e-08 0)
(0.000999738 6.7156e-08 0)
(0.000999654 3.18134e-08 0)
(0.000999629 3.98853e-08 0)
(0.000999495 -5.44634e-08 0)
(0.001 -8.72661e-09 0)
(0.001 -2.37746e-08 0)
(0.001 -3.60582e-08 0)
(0.000999997 -4.68269e-08 0)
(0.000999993 -5.69443e-08 0)
(0.000999986 -6.75032e-08 0)
(0.000999979 -7.78468e-08 0)
(0.000999968 -8.92595e-08 0)
(0.000999958 -1.00022e-07 0)
(0.000999942 -1.11933e-07 0)
(0.000999928 -1.22651e-07 0)
(0.000999903 -1.36159e-07 0)
(0.000999886 -1.46545e-07 0)
(0.000999846 -1.63397e-07 0)
(0.000999826 -1.72258e-07 0)
(0.00099976 -1.96413e-07 0)
(0.000999742 -2.0092e-07 0)
(0.000999623 -2.43151e-07 0)
(0.000999618 -2.39274e-07 0)
(0.000999394 -3.31956e-07 0)
)
;

boundaryField
{
    sides
    {
        type            slip;
    }
    inlet
    {
        type            fixedValue;
        value           uniform (0.001 0 0);
    }
    outlet
    {
        type            zeroGradient;
    }
    frontAndBack
    {
        type            empty;
    }
}


// ************************************************************************* //
