/*--------------------------------*- C++ -*----------------------------------*\
  =========                 |
  \\      /  F ield         | OpenFOAM: The Open Source CFD Toolbox
   \\    /   O peration     | Website:  https://openfoam.org
    \\  /    A nd           | Version:  7
     \\/     M anipulation  |
\*---------------------------------------------------------------------------*/
FoamFile
{
    version     2.0;
    format      ascii;
    class       volVectorField;
    location    "80";
    object      hU_0;
}
// * * * * * * * * * * * * * * * * * * * * * * * * * * * * * * * * * * * * * //

dimensions      [0 2 -1 0 0 0 0];

internalField   nonuniform List<vector> 
400
(
(0.001 -8.73121e-09 0)
(0.000999999 -2.37875e-08 0)
(0.001 -3.60419e-08 0)
(0.001 -4.67457e-08 0)
(0.00100001 -5.69706e-08 0)
(0.00100001 -6.75103e-08 0)
(0.00100002 -7.83006e-08 0)
(0.00100003 -8.92913e-08 0)
(0.00100004 -9.99645e-08 0)
(0.00100006 -1.11908e-07 0)
(0.00100007 -1.22627e-07 0)
(0.0010001 -1.36139e-07 0)
(0.00100011 -1.46517e-07 0)
(0.00100015 -1.63357e-07 0)
(0.00100017 -1.72196e-07 0)
(0.00100024 -1.96345e-07 0)
(0.00100026 -2.00845e-07 0)
(0.00100038 -2.43076e-07 0)
(0.00100038 -2.39195e-07 0)
(0.00100061 -3.31826e-07 0)
(0.001 3.98406e-09 0)
(0.001 1.20969e-08 0)
(0.00100001 2.02317e-08 0)
(0.00100001 2.79784e-08 0)
(0.00100002 3.51384e-08 0)
(0.00100002 4.16215e-08 0)
(0.00100003 4.75423e-08 0)
(0.00100004 5.30209e-08 0)
(0.00100005 5.83743e-08 0)
(0.00100007 6.22795e-08 0)
(0.00100008 6.69492e-08 0)
(0.0010001 6.85607e-08 0)
(0.00100012 7.26722e-08 0)
(0.00100016 6.98643e-08 0)
(0.00100018 7.40239e-08 0)
(0.00100023 6.16713e-08 0)
(0.00100026 6.71497e-08 0)
(0.00100035 3.1744e-08 0)
(0.00100037 3.98296e-08 0)
(0.0010005 -5.45883e-08 0)
(0.001 -3.97467e-09 0)
(0.000999999 -1.30491e-08 0)
(0.001 -2.31143e-08 0)
(0.001 -3.37431e-08 0)
(0.00100001 -4.42794e-08 0)
(0.00100001 -5.50639e-08 0)
(0.00100002 -6.5615e-08 0)
(0.00100003 -7.73118e-08 0)
(0.00100004 -8.88661e-08 0)
(0.00100005 -1.02493e-07 0)
(0.00100006 -1.15214e-07 0)
(0.00100009 -1.32374e-07 0)
(0.0010001 -1.46485e-07 0)
(0.00100014 -1.70034e-07 0)
(0.00100016 -1.85165e-07 0)
(0.00100021 -2.21205e-07 0)
(0.00100023 -2.35765e-07 0)
(0.00100031 -2.97659e-07 0)
(0.00100033 -3.06274e-07 0)
(0.00100046 -4.22144e-07 0)
(0.001 -1.52115e-10 0)
(0.001 -8.19992e-11 0)
(0.00100001 5.27832e-10 0)
(0.00100001 1.19432e-09 0)
(0.00100001 1.89892e-09 0)
(0.00100002 1.79538e-09 0)
(0.00100003 1.50602e-09 0)
(0.00100004 -4.12618e-10 0)
(0.00100004 -2.40515e-09 0)
(0.00100006 -7.03617e-09 0)
(0.00100007 -1.11713e-08 0)
(0.00100009 -2.04196e-08 0)
(0.00100011 -2.71277e-08 0)
(0.00100013 -4.42716e-08 0)
(0.00100016 -5.3589e-08 0)
(0.00100019 -8.50777e-08 0)
(0.00100022 -9.56104e-08 0)
(0.00100028 -1.54781e-07 0)
(0.0010003 -1.61059e-07 0)
(0.00100039 -2.75832e-07 0)
(0.001 -2.90649e-09 0)
(0.001 -9.2646e-09 0)
(0.001 -1.63566e-08 0)
(0.001 -2.44448e-08 0)
(0.00100001 -3.31385e-08 0)
(0.00100001 -4.28468e-08 0)
(0.00100002 -5.29422e-08 0)
(0.00100002 -6.46199e-08 0)
(0.00100003 -7.64747e-08 0)
(0.00100004 -9.12156e-08 0)
(0.00100005 -1.05569e-07 0)
(0.00100007 -1.25338e-07 0)
(0.00100009 -1.42684e-07 0)
(0.00100011 -1.70932e-07 0)
(0.00100013 -1.91281e-07 0)
(0.00100016 -2.34445e-07 0)
(0.00100018 -2.55931e-07 0)
(0.00100024 -3.26678e-07 0)
(0.00100025 -3.41645e-07 0)
(0.00100033 -4.64379e-07 0)
(0.001 -2.58861e-09 0)
(0.001 -7.59984e-09 0)
(0.001 -1.23157e-08 0)
(0.00100001 -1.70809e-08 0)
(0.00100001 -2.18895e-08 0)
(0.00100001 -2.74107e-08 0)
(0.00100002 -3.3352e-08 0)
(0.00100002 -4.09236e-08 0)
(0.00100003 -4.89394e-08 0)
(0.00100004 -6.01126e-08 0)
(0.00100005 -7.11991e-08 0)
(0.00100006 -8.81466e-08 0)
(0.00100008 -1.03129e-07 0)
(0.0010001 -1.29477e-07 0)
(0.00100011 -1.48431e-07 0)
(0.00100014 -1.90457e-07 0)
(0.00100016 -2.11203e-07 0)
(0.0010002 -2.80681e-07 0)
(0.00100021 -2.94689e-07 0)
(0.00100027 -4.1495e-07 0)
(0.001 -2.91945e-09 0)
(0.001 -8.93264e-09 0)
(0.001 -1.52647e-08 0)
(0.001 -2.23236e-08 0)
(0.00100001 -3.00803e-08 0)
(0.00100001 -3.90772e-08 0)
(0.00100001 -4.88573e-08 0)
(0.00100002 -6.0557e-08 0)
(0.00100002 -7.29417e-08 0)
(0.00100003 -8.86531e-08 0)
(0.00100004 -1.04435e-07 0)
(0.00100005 -1.26313e-07 0)
(0.00100006 -1.46283e-07 0)
(0.00100007 -1.77866e-07 0)
(0.00100009 -2.01915e-07 0)
(0.00100011 -2.49364e-07 0)
(0.00100012 -2.74901e-07 0)
(0.00100015 -3.49716e-07 0)
(0.00100016 -3.67394e-07 0)
(0.00100021 -4.92169e-07 0)
(0.001 -3.2101e-09 0)
(0.001 -9.81543e-09 0)
(0.001 -1.66627e-08 0)
(0.001 -2.40884e-08 0)
(0.001 -3.19536e-08 0)
(0.00100001 -4.08524e-08 0)
(0.00100001 -5.0303e-08 0)
(0.00100001 -6.15866e-08 0)
(0.00100002 -7.35043e-08 0)
(0.00100002 -8.87719e-08 0)
(0.00100003 -1.04244e-07 0)
(0.00100004 -1.25903e-07 0)
(0.00100004 -1.45844e-07 0)
(0.00100005 -1.77474e-07 0)
(0.00100006 -2.01825e-07 0)
(0.00100008 -2.49433e-07 0)
(0.00100009 -2.75443e-07 0)
(0.00100011 -3.49994e-07 0)
(0.00100012 -3.67799e-07 0)
(0.00100015 -4.90793e-07 0)
(0.001 -3.37666e-09 0)
(0.001 -1.03135e-08 0)
(0.001 -1.74493e-08 0)
(0.001 -2.51651e-08 0)
(0.001 -3.33313e-08 0)
(0.001 -4.26411e-08 0)
(0.00100001 -5.26426e-08 0)
(0.00100001 -6.46912e-08 0)
(0.00100001 -7.75293e-08 0)
(0.00100001 -9.39351e-08 0)
(0.00100002 -1.10691e-07 0)
(0.00100002 -1.33811e-07 0)
(0.00100003 -1.55302e-07 0)
(0.00100003 -1.88717e-07 0)
(0.00100004 -2.14777e-07 0)
(0.00100005 -2.6436e-07 0)
(0.00100005 -2.91957e-07 0)
(0.00100007 -3.68519e-07 0)
(0.00100007 -3.87365e-07 0)
(0.00100009 -5.1245e-07 0)
(0.001 -3.45642e-09 0)
(0.001 -1.05487e-08 0)
(0.001 -1.78418e-08 0)
(0.001 -2.57349e-08 0)
(0.001 -3.41313e-08 0)
(0.001 -4.37172e-08 0)
(0.001 -5.40546e-08 0)
(0.001 -6.64657e-08 0)
(0.001 -7.96889e-08 0)
(0.001 -9.64834e-08 0)
(0.00100001 -1.13634e-07 0)
(0.00100001 -1.37133e-07 0)
(0.00100001 -1.59043e-07 0)
(0.00100001 -1.92831e-07 0)
(0.00100001 -2.19318e-07 0)
(0.00100002 -2.69187e-07 0)
(0.00100002 -2.9718e-07 0)
(0.00100002 -3.73792e-07 0)
(0.00100002 -3.92924e-07 0)
(0.00100003 -5.17425e-07 0)
(0.001 -3.46432e-09 0)
(0.001 -1.05462e-08 0)
(0.001 -1.78437e-08 0)
(0.000999999 -2.57289e-08 0)
(0.000999999 -3.41289e-08 0)
(0.000999999 -4.371e-08 0)
(0.000999998 -5.40582e-08 0)
(0.000999997 -6.64627e-08 0)
(0.000999996 -7.96941e-08 0)
(0.000999995 -9.64834e-08 0)
(0.000999994 -1.13624e-07 0)
(0.000999993 -1.37132e-07 0)
(0.000999991 -1.59043e-07 0)
(0.000999989 -1.92825e-07 0)
(0.000999987 -2.19325e-07 0)
(0.000999984 -2.6921e-07 0)
(0.000999982 -2.97201e-07 0)
(0.000999978 -3.73797e-07 0)
(0.000999976 -3.9292e-07 0)
(0.00099997 -5.17418e-07 0)
(0.001 -3.38777e-09 0)
(0.001 -1.03113e-08 0)
(0.000999999 -1.74554e-08 0)
(0.000999998 -2.51521e-08 0)
(0.000999997 -3.33326e-08 0)
(0.000999996 -4.26279e-08 0)
(0.000999994 -5.26532e-08 0)
(0.000999992 -6.46888e-08 0)
(0.000999989 -7.75393e-08 0)
(0.000999986 -9.39431e-08 0)
(0.000999983 -1.10673e-07 0)
(0.000999978 -1.33798e-07 0)
(0.000999973 -1.55295e-07 0)
(0.000999967 -1.88704e-07 0)
(0.000999961 -2.14787e-07 0)
(0.000999952 -2.64388e-07 0)
(0.000999946 -2.91985e-07 0)
(0.000999934 -3.68503e-07 0)
(0.00099993 -3.87334e-07 0)
(0.000999911 -5.12389e-07 0)
(0.001 -3.20714e-09 0)
(0.001 -9.81873e-09 0)
(0.000999999 -1.66656e-08 0)
(0.000999997 -2.40887e-08 0)
(0.000999996 -3.19654e-08 0)
(0.000999993 -4.08479e-08 0)
(0.000999991 -5.03076e-08 0)
(0.000999987 -6.15946e-08 0)
(0.000999983 -7.35049e-08 0)
(0.000999977 -8.87913e-08 0)
(0.000999971 -1.04253e-07 0)
(0.000999964 -1.25893e-07 0)
(0.000999956 -1.45837e-07 0)
(0.000999945 -1.77473e-07 0)
(0.000999936 -2.0184e-07 0)
(0.000999921 -2.49458e-07 0)
(0.000999911 -2.75477e-07 0)
(0.000999889 -3.50005e-07 0)
(0.000999882 -3.67804e-07 0)
(0.000999852 -4.9078e-07 0)
(0.001 -2.90329e-09 0)
(0.000999999 -8.93335e-09 0)
(0.000999998 -1.52636e-08 0)
(0.000999996 -2.23487e-08 0)
(0.000999994 -3.00806e-08 0)
(0.000999991 -3.90837e-08 0)
(0.000999987 -4.88308e-08 0)
(0.000999982 -6.0562e-08 0)
(0.000999977 -7.292e-08 0)
(0.000999969 -8.86384e-08 0)
(0.000999962 -1.04447e-07 0)
(0.000999951 -1.263e-07 0)
(0.000999941 -1.46256e-07 0)
(0.000999925 -1.77826e-07 0)
(0.000999913 -2.01873e-07 0)
(0.000999891 -2.49301e-07 0)
(0.000999878 -2.74854e-07 0)
(0.000999847 -3.49636e-07 0)
(0.000999839 -3.67324e-07 0)
(0.000999792 -4.92031e-07 0)
(0.001 -2.57244e-09 0)
(0.000999999 -7.59555e-09 0)
(0.000999997 -1.23226e-08 0)
(0.000999995 -1.71062e-08 0)
(0.000999991 -2.18763e-08 0)
(0.000999987 -2.74361e-08 0)
(0.000999982 -3.33171e-08 0)
(0.000999975 -4.09274e-08 0)
(0.000999968 -4.89498e-08 0)
(0.000999959 -6.00966e-08 0)
(0.000999949 -7.12135e-08 0)
(0.000999935 -8.81706e-08 0)
(0.000999922 -1.03145e-07 0)
(0.000999903 -1.29475e-07 0)
(0.000999887 -1.48417e-07 0)
(0.000999859 -1.90427e-07 0)
(0.000999841 -2.1119e-07 0)
(0.000999802 -2.80672e-07 0)
(0.000999787 -2.94701e-07 0)
(0.000999731 -4.14941e-07 0)
(0.001 -2.91214e-09 0)
(0.001 -9.26158e-09 0)
(0.000999999 -1.63545e-08 0)
(0.000999997 -2.44194e-08 0)
(0.000999994 -3.31263e-08 0)
(0.00099999 -4.2846e-08 0)
(0.000999984 -5.29287e-08 0)
(0.000999977 -6.45658e-08 0)
(0.000999969 -7.64907e-08 0)
(0.000999958 -9.11988e-08 0)
(0.000999946 -1.05547e-07 0)
(0.00099993 -1.25332e-07 0)
(0.000999915 -1.4269e-07 0)
(0.000999891 -1.7091e-07 0)
(0.000999872 -1.9125e-07 0)
(0.000999837 -2.34368e-07 0)
(0.000999817 -2.5587e-07 0)
(0.000999764 -3.26581e-07 0)
(0.000999752 -3.41586e-07 0)
(0.00099967 -4.64226e-07 0)
(0.001 -1.76931e-10 0)
(0.000999998 -9.20766e-11 0)
(0.000999995 5.38091e-10 0)
(0.000999991 1.2491e-09 0)
(0.000999986 1.87589e-09 0)
(0.00099998 1.81311e-09 0)
(0.000999973 1.37906e-09 0)
(0.000999965 -3.6249e-10 0)
(0.000999955 -2.40709e-09 0)
(0.000999943 -7.05832e-09 0)
(0.00099993 -1.11755e-08 0)
(0.000999912 -2.0429e-08 0)
(0.000999894 -2.71513e-08 0)
(0.000999867 -4.42854e-08 0)
(0.000999845 -5.35995e-08 0)
(0.000999805 -8.5056e-08 0)
(0.000999779 -9.55886e-08 0)
(0.00099972 -1.54738e-07 0)
(0.000999698 -1.61034e-07 0)
(0.000999611 -2.75774e-07 0)
(0.001 -3.97937e-09 0)
(0.001 -1.30571e-08 0)
(0.001 -2.31148e-08 0)
(0.000999998 -3.37257e-08 0)
(0.000999995 -4.4295e-08 0)
(0.000999989 -5.50778e-08 0)
(0.000999983 -6.58299e-08 0)
(0.000999974 -7.73947e-08 0)
(0.000999963 -8.886e-08 0)
(0.000999949 -1.02514e-07 0)
(0.000999936 -1.15227e-07 0)
(0.000999915 -1.32364e-07 0)
(0.000999896 -1.46489e-07 0)
(0.000999864 -1.70038e-07 0)
(0.000999841 -1.852e-07 0)
(0.000999791 -2.2121e-07 0)
(0.000999767 -2.35788e-07 0)
(0.000999687 -2.9762e-07 0)
(0.000999671 -3.0627e-07 0)
(0.000999539 -4.22064e-07 0)
(0.001 3.98313e-09 0)
(0.000999996 1.2111e-08 0)
(0.000999991 2.02311e-08 0)
(0.000999987 2.78902e-08 0)
(0.000999982 3.51391e-08 0)
(0.000999976 4.16289e-08 0)
(0.000999969 4.78466e-08 0)
(0.000999959 5.29427e-08 0)
(0.000999948 5.83878e-08 0)
(0.000999934 6.23098e-08 0)
(0.000999919 6.69745e-08 0)
(0.000999897 6.86037e-08 0)
(0.000999878 7.26999e-08 0)
(0.000999845 6.98798e-08 0)
(0.000999819 7.4007e-08 0)
(0.000999767 6.1679e-08 0)
(0.000999738 6.7157e-08 0)
(0.000999654 3.18227e-08 0)
(0.000999629 3.98967e-08 0)
(0.000999495 -5.44571e-08 0)
(0.001 -8.73886e-09 0)
(0.001 -2.37726e-08 0)
(0.001 -3.60367e-08 0)
(0.000999997 -4.68258e-08 0)
(0.000999993 -5.69828e-08 0)
(0.000999986 -6.74916e-08 0)
(0.000999978 -7.79135e-08 0)
(0.000999968 -8.92986e-08 0)
(0.000999958 -9.99771e-08 0)
(0.000999942 -1.11909e-07 0)
(0.000999928 -1.22643e-07 0)
(0.000999903 -1.36162e-07 0)
(0.000999886 -1.46557e-07 0)
(0.000999846 -1.63411e-07 0)
(0.000999826 -1.72269e-07 0)
(0.00099976 -1.96418e-07 0)
(0.000999742 -2.00919e-07 0)
(0.000999623 -2.43144e-07 0)
(0.000999618 -2.39265e-07 0)
(0.000999394 -3.3195e-07 0)
)
;

boundaryField
{
    sides
    {
        type            slip;
    }
    inlet
    {
        type            fixedValue;
        value           uniform (0.001 0 0);
    }
    outlet
    {
        type            zeroGradient;
    }
    frontAndBack
    {
        type            empty;
    }
}


// ************************************************************************* //
