/*--------------------------------*- C++ -*----------------------------------*\
  =========                 |
  \\      /  F ield         | OpenFOAM: The Open Source CFD Toolbox
   \\    /   O peration     | Website:  https://openfoam.org
    \\  /    A nd           | Version:  7
     \\/     M anipulation  |
\*---------------------------------------------------------------------------*/
FoamFile
{
    version     2.0;
    format      ascii;
    class       surfaceScalarField;
    location    "80";
    object      phi_0;
}
// * * * * * * * * * * * * * * * * * * * * * * * * * * * * * * * * * * * * * //

dimensions      [0 4 -1 0 0 0 0];

internalField   nonuniform List<scalar> 
760
(
4.99999e-06
9.9872e-12
4.99999e-06
-4.4372e-12
5.00001e-06
-1.28906e-11
5.00003e-06
-1.94435e-11
5.00005e-06
-2.69696e-11
5.00009e-06
-3.1049e-11
5.00013e-06
-3.90434e-11
5.00018e-06
-6.12125e-11
5.00025e-06
-6.29993e-11
5.00032e-06
-7.81564e-11
5.00041e-06
-9.00559e-11
5.00053e-06
-1.13945e-10
5.00065e-06
-1.26882e-10
5.00082e-06
-1.67862e-10
5.001e-06
-1.78125e-10
5.00126e-06
-2.56973e-10
5.00151e-06
-2.56319e-10
5.00195e-06
-4.31884e-10
5.00236e-06
-4.14258e-10
-8.91571e-10
5.00002e-06
-1.17801e-11
5.00004e-06
-1.90795e-11
5.00005e-06
-2.94672e-11
5.00007e-06
-4.18992e-11
5.0001e-06
-5.45381e-11
5.00014e-06
-6.94745e-11
5.00018e-06
-8.43653e-11
5.00023e-06
-1.04291e-10
5.00029e-06
-1.2368e-10
5.00037e-06
-1.53152e-10
5.00045e-06
-1.76902e-10
5.00056e-06
-2.21935e-10
5.00069e-06
-2.50221e-10
5.00084e-06
-3.24148e-10
5.00102e-06
-3.54029e-10
5.00125e-06
-4.86355e-10
5.0015e-06
-5.09548e-10
5.00184e-06
-7.68215e-10
5.00218e-06
-7.6018e-10
-1.26198e-09
4.99999e-06
-4.63207e-12
4.99999e-06
-2.04703e-11
5e-06
-3.78871e-11
5.00002e-06
-5.70509e-11
5.00004e-06
-7.68066e-11
5.00007e-06
-9.96066e-11
5.00011e-06
-1.22627e-10
5.00016e-06
-1.52339e-10
5.00021e-06
-1.82701e-10
5.00029e-06
-2.23714e-10
5.00037e-06
-2.62145e-10
5.00047e-06
-3.23081e-10
5.00059e-06
-3.71738e-10
5.00074e-06
-4.67475e-10
5.00091e-06
-5.25882e-10
5.00111e-06
-6.87172e-10
5.00135e-06
-7.48459e-10
5.00162e-06
-1.04165e-09
5.00194e-06
-1.08361e-09
-1.68947e-09
5.00001e-06
-1.26293e-11
5.00002e-06
-3.34647e-11
5.00004e-06
-5.46343e-11
5.00006e-06
-7.81151e-11
5.00008e-06
-1.02404e-10
5.00012e-06
-1.3108e-10
5.00015e-06
-1.6063e-10
5.0002e-06
-1.98513e-10
5.00025e-06
-2.36338e-10
5.00032e-06
-2.88667e-10
5.00039e-06
-3.3815e-10
5.00048e-06
-4.14957e-10
5.00059e-06
-4.78022e-10
5.00072e-06
-5.96333e-10
5.00087e-06
-6.72971e-10
5.00105e-06
-8.65633e-10
5.00124e-06
-9.47638e-10
5.00148e-06
-1.28064e-09
5.00173e-06
-1.33198e-09
-1.89796e-09
5e-06
-1.17247e-11
5e-06
-3.66591e-11
5.00001e-06
-6.23585e-11
5.00002e-06
-9.0583e-11
5.00004e-06
-1.20612e-10
5.00006e-06
-1.55079e-10
5.0001e-06
-1.92056e-10
5.00013e-06
-2.36929e-10
5.00018e-06
-2.83705e-10
5.00024e-06
-3.45468e-10
5.00031e-06
-4.06478e-10
5.00039e-06
-4.95182e-10
5.00048e-06
-5.73752e-10
5.00059e-06
-7.07131e-10
5.00072e-06
-8.0371e-10
5.00087e-06
-1.01322e-09
5.00104e-06
-1.11735e-09
5.00122e-06
-1.46235e-09
5.00142e-06
-1.53349e-09
-2.16276e-09
5e-06
-1.39926e-11
5.00001e-06
-4.33753e-11
5.00002e-06
-7.32738e-11
5.00003e-06
-1.05413e-10
5.00005e-06
-1.39632e-10
5.00008e-06
-1.78678e-10
5.00011e-06
-2.20665e-10
5.00014e-06
-2.71404e-10
5.00018e-06
-3.24811e-10
5.00023e-06
-3.94493e-10
5.00029e-06
-4.63786e-10
5.00036e-06
-5.63261e-10
5.00043e-06
-6.52583e-10
5.00053e-06
-7.99872e-10
5.00063e-06
-9.08933e-10
5.00075e-06
-1.13518e-09
5.00089e-06
-1.2521e-09
5.00104e-06
-1.61679e-09
5.00121e-06
-1.69805e-09
-2.29345e-09
5e-06
-1.57687e-11
5.00001e-06
-4.78247e-11
5.00001e-06
-8.0616e-11
5.00002e-06
-1.15551e-10
5.00004e-06
-1.52885e-10
5.00005e-06
-1.95814e-10
5.00008e-06
-2.42042e-10
5.0001e-06
-2.97686e-10
5.00013e-06
-3.56787e-10
5.00017e-06
-4.32574e-10
5.00022e-06
-5.09239e-10
5.00027e-06
-6.16652e-10
5.00033e-06
-7.15222e-10
5.0004e-06
-8.71919e-10
5.00049e-06
-9.91992e-10
5.00058e-06
-1.22839e-09
5.00069e-06
-1.35647e-09
5.0008e-06
-1.72745e-09
5.00091e-06
-1.81302e-09
-2.44205e-09
5e-06
-1.67755e-11
5e-06
-5.08623e-11
5.00001e-06
-8.56375e-11
5.00002e-06
-1.23196e-10
5.00003e-06
-1.63138e-10
5.00004e-06
-2.09007e-10
5.00006e-06
-2.58333e-10
5.00008e-06
-3.17646e-10
5.0001e-06
-3.80632e-10
5.00013e-06
-4.60988e-10
5.00016e-06
-5.42753e-10
5.0002e-06
-6.55895e-10
5.00025e-06
-7.60557e-10
5.0003e-06
-9.24284e-10
5.00036e-06
-1.0512e-09
5.00042e-06
-1.2951e-09
5.0005e-06
-1.42953e-09
5.00058e-06
-1.80823e-09
5.00067e-06
-1.90136e-09
-2.51613e-09
5e-06
-1.73251e-11
5e-06
-5.27016e-11
5.00001e-06
-8.8818e-11
5.00001e-06
-1.27966e-10
5.00002e-06
-1.69599e-10
5.00002e-06
-2.1715e-10
5.00003e-06
-2.68302e-10
5.00005e-06
-3.29717e-10
5.00006e-06
-3.95018e-10
5.00008e-06
-4.78115e-10
5.0001e-06
-5.62904e-10
5.00012e-06
-6.79378e-10
5.00015e-06
-7.87782e-10
5.00018e-06
-9.55604e-10
5.00022e-06
-1.08668e-09
5.00026e-06
-1.33481e-09
5.0003e-06
-1.4733e-09
5.00035e-06
-1.85538e-09
5.00039e-06
-1.94875e-09
-2.5721e-09
5e-06
-1.75532e-11
5e-06
-5.33123e-11
5e-06
-8.99229e-11
5e-06
-1.29559e-10
5.00001e-06
-1.71753e-10
5.00001e-06
-2.19836e-10
5.00001e-06
-2.71643e-10
5.00002e-06
-3.33725e-10
5.00002e-06
-3.99855e-10
5.00003e-06
-4.83829e-10
5.00003e-06
-5.69592e-10
5.00004e-06
-6.87208e-10
5.00005e-06
-7.96891e-10
5.00006e-06
-9.66014e-10
5.00007e-06
-1.0986e-09
5.00009e-06
-1.34812e-09
5.0001e-06
-1.48796e-09
5.00012e-06
-1.87075e-09
5.00013e-06
-1.96593e-09
-2.58836e-09
5e-06
-1.74073e-11
5e-06
-5.26755e-11
5e-06
-8.88353e-11
5e-06
-1.27906e-10
4.99999e-06
-1.69574e-10
4.99999e-06
-2.17079e-10
4.99999e-06
-2.68337e-10
4.99998e-06
-3.29688e-10
4.99998e-06
-3.9507e-10
4.99997e-06
-4.78118e-10
4.99997e-06
-5.62803e-10
4.99996e-06
-6.7936e-10
4.99995e-06
-7.87778e-10
4.99994e-06
-9.55547e-10
4.99993e-06
-1.08675e-09
4.99991e-06
-1.33502e-09
4.9999e-06
-1.4735e-09
4.99988e-06
-1.85539e-09
4.99987e-06
-1.9487e-09
-2.57196e-09
5e-06
-1.68063e-11
5e-06
-5.08628e-11
4.99999e-06
-8.56803e-11
4.99999e-06
-1.23126e-10
4.99998e-06
-1.63176e-10
4.99998e-06
-2.08949e-10
4.99997e-06
-2.584e-10
4.99995e-06
-3.17654e-10
4.99994e-06
-3.80677e-10
4.99992e-06
-4.61069e-10
4.9999e-06
-5.4269e-10
4.99988e-06
-6.55802e-10
4.99985e-06
-7.60512e-10
4.99982e-06
-9.24246e-10
4.99978e-06
-1.05127e-09
4.99974e-06
-1.29524e-09
4.9997e-06
-1.42968e-09
4.99965e-06
-1.80819e-09
4.99961e-06
-1.90125e-09
-2.51592e-09
5e-06
-1.57048e-11
5e-06
-4.78532e-11
4.99999e-06
-8.06012e-11
4.99998e-06
-1.15628e-10
4.99997e-06
-1.52975e-10
4.99996e-06
-1.95827e-10
4.99994e-06
-2.42012e-10
4.99992e-06
-2.97742e-10
4.9999e-06
-3.56722e-10
4.99987e-06
-4.32642e-10
4.99984e-06
-5.09351e-10
4.9998e-06
-6.16593e-10
4.99975e-06
-7.15123e-10
4.9997e-06
-8.71831e-10
4.99964e-06
-9.91947e-10
4.99958e-06
-1.22832e-09
4.9995e-06
-1.35646e-09
4.99942e-06
-1.72732e-09
4.99933e-06
-1.81289e-09
-2.4417e-09
5e-06
-1.38915e-11
4.99999e-06
-4.33522e-11
4.99999e-06
-7.328e-11
4.99998e-06
-1.05611e-10
4.99996e-06
-1.3955e-10
4.99995e-06
-1.78758e-10
4.99992e-06
-2.2046e-10
4.9999e-06
-2.71449e-10
4.99987e-06
-3.24726e-10
4.99983e-06
-3.94347e-10
4.99978e-06
-4.63866e-10
4.99973e-06
-5.6331e-10
4.99967e-06
-6.52547e-10
4.99959e-06
-7.99737e-10
4.99951e-06
-9.08753e-10
4.99942e-06
-1.13491e-09
4.99931e-06
-1.25192e-09
4.9992e-06
-1.61654e-09
4.99909e-06
-1.69788e-09
-2.29306e-09
5e-06
-1.16806e-11
4.99999e-06
-3.66389e-11
4.99998e-06
-6.24098e-11
4.99997e-06
-9.05741e-11
4.99995e-06
-1.20486e-10
4.99992e-06
-1.55226e-10
4.99989e-06
-1.91831e-10
4.99986e-06
-2.36841e-10
4.99982e-06
-2.83839e-10
4.99977e-06
-3.45366e-10
4.99971e-06
-4.06429e-10
4.99964e-06
-4.95242e-10
4.99957e-06
-5.7383e-10
4.99947e-06
-7.07071e-10
4.99937e-06
-8.03576e-10
4.99925e-06
-1.01292e-09
4.99911e-06
-1.11714e-09
4.99896e-06
-1.46206e-09
4.99879e-06
-1.53336e-09
-2.16235e-09
5e-06
-1.27089e-11
5e-06
-3.34802e-11
4.99999e-06
-5.46247e-11
4.99998e-06
-7.78589e-11
4.99996e-06
-1.02442e-10
4.99994e-06
-1.30959e-10
4.9999e-06
-1.6078e-10
4.99987e-06
-1.98054e-10
4.99982e-06
-2.36447e-10
4.99976e-06
-2.88732e-10
4.99969e-06
-3.38078e-10
4.99961e-06
-4.14937e-10
4.99952e-06
-4.78104e-10
4.99941e-06
-5.96337e-10
4.99928e-06
-6.72946e-10
4.99913e-06
-8.65399e-10
4.99896e-06
-9.47449e-10
4.99878e-06
-1.28032e-09
4.99858e-06
-1.3318e-09
-1.89746e-09
4.99999e-06
-4.76441e-12
4.99998e-06
-2.0498e-11
4.99996e-06
-3.78053e-11
4.99994e-06
-5.68965e-11
4.99992e-06
-7.69835e-11
4.99988e-06
-9.94876e-11
4.99985e-06
-1.23758e-10
4.9998e-06
-1.5248e-10
4.99975e-06
-1.82513e-10
4.99968e-06
-2.23811e-10
4.99961e-06
-2.62176e-10
4.99952e-06
-3.2307e-10
4.99941e-06
-3.71816e-10
4.99928e-06
-4.67545e-10
4.99913e-06
-5.26009e-10
4.99896e-06
-6.87123e-10
4.99876e-06
-7.48437e-10
4.99852e-06
-1.04141e-09
4.99827e-06
-1.08351e-09
-1.68908e-09
5.00001e-06
-1.1798e-11
5.00001e-06
-1.90582e-11
5e-06
-2.9395e-11
4.99998e-06
-4.21075e-11
4.99996e-06
-5.47506e-11
4.99993e-06
-6.94789e-11
4.99989e-06
-8.5203e-11
4.99984e-06
-1.05412e-10
4.99978e-06
-1.23592e-10
4.99971e-06
-1.53094e-10
4.99963e-06
-1.76914e-10
4.99953e-06
-2.21839e-10
4.99941e-06
-2.50171e-10
4.99926e-06
-3.24097e-10
4.99909e-06
-3.54142e-10
4.99889e-06
-4.86339e-10
4.99865e-06
-5.0961e-10
4.99838e-06
-7.67946e-10
4.99805e-06
-7.60032e-10
-1.26148e-09
4.99998e-06
9.99757e-12
4.99996e-06
-4.35438e-12
4.99995e-06
-1.30005e-11
4.99992e-06
-1.99e-11
4.9999e-06
-2.67632e-11
4.99986e-06
-3.36336e-11
4.99982e-06
-4.33733e-11
4.99977e-06
-5.07771e-11
4.99971e-06
-6.2852e-11
4.99963e-06
-7.81411e-11
4.99955e-06
-9.0045e-11
4.99944e-06
-1.13891e-10
4.99932e-06
-1.26875e-10
4.99916e-06
-1.67906e-10
4.99898e-06
-1.78298e-10
4.99875e-06
-2.5713e-10
4.9985e-06
-2.56494e-10
4.99817e-06
-4.31888e-10
4.99782e-06
-4.14285e-10
-8.91547e-10
5.00001e-06
5.00001e-06
4.99999e-06
4.99997e-06
4.99995e-06
4.99991e-06
4.99987e-06
4.99982e-06
4.99975e-06
4.99968e-06
4.99959e-06
4.99947e-06
4.99934e-06
4.99918e-06
4.999e-06
4.99874e-06
4.99849e-06
4.99805e-06
4.99764e-06
)
;

boundaryField
{
    sides
    {
        type            calculated;
        value           uniform 0;
    }
    inlet
    {
        type            calculated;
        value           nonuniform List<scalar> 
20
(
-5e-06
-5e-06
-5e-06
-5e-06
-5e-06
-5e-06
-5e-06
-5e-06
-5e-06
-5e-06
-5e-06
-5e-06
-5e-06
-5e-06
-5e-06
-5e-06
-5e-06
-5e-06
-5e-06
-5e-06
)
;
    }
    outlet
    {
        type            calculated;
        value           nonuniform List<scalar> 
20
(
5.00325e-06
5.00255e-06
5.00237e-06
5.00194e-06
5.00169e-06
5.00134e-06
5.00106e-06
5.00074e-06
5.00045e-06
5.00015e-06
4.99985e-06
4.99955e-06
4.99926e-06
4.99894e-06
4.99866e-06
4.99831e-06
4.99806e-06
4.99763e-06
4.99745e-06
4.99675e-06
)
;
    }
    frontAndBack
    {
        type            empty;
        value           nonuniform 0();
    }
}


// ************************************************************************* //
