/*--------------------------------*- C++ -*----------------------------------*\
  =========                 |
  \\      /  F ield         | OpenFOAM: The Open Source CFD Toolbox
   \\    /   O peration     | Website:  https://openfoam.org
    \\  /    A nd           | Version:  7
     \\/     M anipulation  |
\*---------------------------------------------------------------------------*/
FoamFile
{
    version     2.0;
    format      ascii;
    class       volVectorField;
    location    "32";
    object      ddt0(hU);
}
// * * * * * * * * * * * * * * * * * * * * * * * * * * * * * * * * * * * * * //

dimensions      [0 2 -2 0 0 0 0];

internalField   nonuniform List<vector> 
400
(
(1.19875e-10 -1.48471e-10 0)
(1.5739e-09 1.01096e-09 0)
(-1.583e-11 1.60519e-09 0)
(-3.47793e-09 -2.45959e-10 0)
(-1.0986e-09 -8.60383e-10 0)
(-6.03814e-09 -6.17689e-09 0)
(-5.61922e-09 -5.73213e-09 0)
(1.82003e-09 -5.69827e-09 0)
(2.91796e-09 -4.8981e-09 0)
(5.23497e-09 -2.68629e-09 0)
(6.06627e-09 -4.23907e-10 0)
(5.60194e-09 1.18836e-09 0)
(4.80835e-09 2.22373e-09 0)
(3.31883e-09 2.66021e-09 0)
(2.19789e-09 2.86683e-09 0)
(-5.37562e-11 2.46619e-09 0)
(-1.00194e-09 6.00195e-10 0)
(-9.66107e-10 -7.66968e-10 0)
(-6.75744e-10 -4.07481e-09 0)
(5.35628e-09 -3.54301e-09 0)
(2.91288e-10 -4.22151e-10 0)
(1.91963e-09 -4.85959e-10 0)
(-2.49783e-10 5.17942e-10 0)
(-2.82482e-09 6.61127e-10 0)
(-5.2346e-09 1.93087e-09 0)
(9.37542e-10 -5.4816e-10 0)
(4.3118e-09 6.98287e-10 0)
(5.00878e-10 -5.11279e-10 0)
(3.4043e-09 -4.86297e-10 0)
(6.15855e-09 -2.47168e-10 0)
(7.211e-09 8.86048e-11 0)
(7.00805e-09 8.08246e-10 0)
(6.03725e-09 1.95862e-09 0)
(3.91993e-09 2.93354e-09 0)
(2.07456e-09 3.43004e-09 0)
(-6.20407e-10 3.62897e-09 0)
(-1.71758e-09 2.07335e-09 0)
(-1.56642e-09 1.53681e-09 0)
(-1.44538e-09 -1.66778e-09 0)
(4.36458e-09 -3.55434e-09 0)
(3.03428e-10 -6.32379e-11 0)
(1.11036e-09 1.43522e-09 0)
(-8.40104e-10 3.22765e-09 0)
(-2.50251e-09 2.95728e-09 0)
(-2.26945e-09 -3.32814e-12 0)
(4.6873e-11 -1.30943e-09 0)
(-1.65637e-10 -4.40032e-09 0)
(-1.68017e-10 -6.1611e-09 0)
(3.37339e-09 -4.85024e-09 0)
(4.96792e-09 -2.6444e-09 0)
(5.47857e-09 5.44859e-10 0)
(5.02496e-09 3.36049e-09 0)
(4.28317e-09 5.75763e-09 0)
(3.07468e-09 6.98687e-09 0)
(2.09565e-09 7.31572e-09 0)
(-1.3829e-10 6.75872e-09 0)
(-1.17538e-09 2.60877e-09 0)
(-1.3278e-09 5.18866e-10 0)
(-1.06954e-09 -7.1349e-09 0)
(4.69419e-09 -8.6442e-09 0)
(3.8059e-10 4.39527e-10 0)
(1.38383e-09 3.10613e-09 0)
(-5.08246e-10 5.29295e-09 0)
(-3.05043e-09 4.98727e-09 0)
(-3.49179e-09 1.84673e-09 0)
(-2.32243e-09 -1.29196e-09 0)
(-2.03795e-09 -5.28122e-09 0)
(8.0579e-10 -6.38331e-09 0)
(3.55878e-09 -5.94138e-09 0)
(5.6733e-09 -3.46211e-09 0)
(6.9601e-09 5.06428e-10 0)
(6.77123e-09 3.83642e-09 0)
(5.80068e-09 6.6655e-09 0)
(3.72309e-09 8.15207e-09 0)
(1.68813e-09 8.8035e-09 0)
(-1.31681e-09 8.64771e-09 0)
(-2.60331e-09 3.7046e-09 0)
(-2.54045e-09 1.20467e-09 0)
(-2.27363e-09 -9.10299e-09 0)
(3.45825e-09 -1.15542e-08 0)
(2.29984e-10 8.2239e-10 0)
(7.86923e-10 2.94266e-09 0)
(-5.74291e-10 5.38323e-09 0)
(-1.93189e-09 6.13597e-09 0)
(-1.50797e-09 3.75033e-09 0)
(-5.89214e-10 -1.77942e-10 0)
(4.33396e-12 -3.62417e-09 0)
(9.76336e-10 -5.06182e-09 0)
(2.10093e-09 -4.68471e-09 0)
(3.31435e-09 -2.33895e-09 0)
(3.97191e-09 1.384e-09 0)
(3.82616e-09 4.81927e-09 0)
(3.57154e-09 8.23604e-09 0)
(2.7719e-09 1.00497e-08 0)
(1.92727e-09 1.04233e-08 0)
(3.27688e-10 9.87268e-09 0)
(-4.82424e-10 3.83683e-09 0)
(-5.33961e-10 1.25487e-09 0)
(-1.01812e-09 -1.03083e-08 0)
(2.48413e-09 -1.35549e-08 0)
(3.12345e-10 1.65568e-09 0)
(9.45896e-10 5.67679e-09 0)
(-6.97311e-10 8.33093e-09 0)
(-2.44736e-09 7.58036e-09 0)
(-2.71289e-09 3.32201e-09 0)
(-2.12348e-09 -2.67774e-09 0)
(-1.07973e-09 -7.72587e-09 0)
(9.58039e-10 -1.01136e-08 0)
(3.43797e-09 -8.89622e-09 0)
(5.64866e-09 -4.79013e-09 0)
(6.27405e-09 7.5255e-10 0)
(5.38056e-09 5.40767e-09 0)
(4.10136e-09 9.60576e-09 0)
(2.09468e-09 1.17291e-08 0)
(2.38744e-10 1.24032e-08 0)
(-2.28723e-09 1.17945e-08 0)
(-3.16042e-09 4.1925e-09 0)
(-3.04791e-09 4.74593e-10 0)
(-2.15665e-09 -1.43604e-08 0)
(2.93468e-09 -1.72676e-08 0)
(2.86253e-10 2.39896e-09 0)
(6.50973e-10 6.87029e-09 0)
(-6.81113e-10 9.68546e-09 0)
(-1.32962e-09 9.9805e-09 0)
(-6.64054e-10 7.11457e-09 0)
(-9.94582e-11 1.895e-09 0)
(9.43571e-13 -3.25789e-09 0)
(2.69347e-10 -6.23304e-09 0)
(1.09228e-09 -5.98089e-09 0)
(2.11434e-09 -3.26973e-09 0)
(2.43787e-09 9.11434e-10 0)
(2.44664e-09 4.842e-09 0)
(2.47963e-09 8.86443e-09 0)
(1.98311e-09 1.10675e-08 0)
(1.52974e-09 1.19758e-08 0)
(6.03656e-10 1.18991e-08 0)
(-6.83437e-11 4.38952e-09 0)
(-3.57699e-10 1.08991e-09 0)
(-1.13574e-09 -1.42301e-08 0)
(9.84484e-10 -1.82012e-08 0)
(2.06089e-10 3.16496e-09 0)
(6.84556e-10 8.54741e-09 0)
(-4.11933e-10 1.15584e-08 0)
(-1.403e-09 1.10707e-08 0)
(-1.67372e-09 6.55639e-09 0)
(-1.30147e-09 -4.79764e-10 0)
(-4.07507e-10 -6.80449e-09 0)
(7.85512e-10 -9.93064e-09 0)
(2.11819e-09 -8.77215e-09 0)
(2.86069e-09 -4.74438e-09 0)
(2.88517e-09 1.06256e-09 0)
(2.54619e-09 6.22926e-09 0)
(1.92199e-09 1.08801e-08 0)
(8.35567e-10 1.3069e-08 0)
(-5.24136e-12 1.36605e-08 0)
(-1.30363e-09 1.28704e-08 0)
(-1.86031e-09 3.86243e-09 0)
(-1.86574e-09 -1.52854e-10 0)
(-1.42601e-09 -1.73785e-08 0)
(1.56309e-09 -2.07257e-08 0)
(1.27858e-10 3.80359e-09 0)
(3.72708e-10 9.49369e-09 0)
(-4.41189e-10 1.19687e-08 0)
(-8.99274e-10 1.14584e-08 0)
(-6.92136e-10 7.57667e-09 0)
(-2.39378e-10 1.1573e-09 0)
(1.70397e-10 -5.25733e-09 0)
(6.37084e-10 -8.9232e-09 0)
(1.03745e-09 -8.65372e-09 0)
(1.08001e-09 -5.46195e-09 0)
(9.66769e-10 -1.688e-10 0)
(7.23117e-10 4.73803e-09 0)
(4.78734e-10 9.56789e-09 0)
(3.65959e-10 1.23185e-08 0)
(4.57736e-10 1.3483e-08 0)
(2.49698e-10 1.32794e-08 0)
(6.14961e-12 4.45815e-09 0)
(-7.60933e-11 6.20339e-10 0)
(-2.86371e-10 -1.70211e-08 0)
(4.5543e-10 -2.12238e-08 0)
(1.95453e-11 4.02207e-09 0)
(1.4119e-10 1.00243e-08 0)
(-8.93271e-11 1.23752e-08 0)
(-2.54631e-10 1.17951e-08 0)
(-2.93605e-10 7.6204e-09 0)
(-2.61804e-10 7.16748e-10 0)
(-1.25618e-10 -6.12479e-09 0)
(1.60154e-10 -9.9605e-09 0)
(3.66089e-10 -9.61898e-09 0)
(4.29544e-10 -5.94815e-09 0)
(5.05474e-10 -5.91312e-11 0)
(5.66411e-10 5.27336e-09 0)
(5.71761e-10 1.03874e-08 0)
(4.0128e-10 1.30921e-08 0)
(1.64562e-10 1.3937e-08 0)
(-3.82793e-10 1.32568e-08 0)
(-7.26994e-10 3.89559e-09 0)
(-8.57651e-10 -9.95468e-11 0)
(-7.53224e-10 -1.82414e-08 0)
(2.79913e-10 -2.20399e-08 0)
(-1.48092e-11 4.03048e-09 0)
(-1.30986e-10 1.00344e-08 0)
(1.05711e-10 1.23862e-08 0)
(2.68441e-10 1.17963e-08 0)
(2.99304e-10 7.61177e-09 0)
(2.59356e-10 7.01813e-10 0)
(1.20471e-10 -6.14413e-09 0)
(-1.64792e-10 -9.98302e-09 0)
(-3.68676e-10 -9.64016e-09 0)
(-4.26695e-10 -5.97007e-09 0)
(-4.98508e-10 -8.23625e-11 0)
(-5.55738e-10 5.24737e-09 0)
(-5.69463e-10 1.03611e-08 0)
(-4.25959e-10 1.30764e-08 0)
(-2.09596e-10 1.3938e-08 0)
(3.47205e-10 1.32661e-08 0)
(7.1282e-10 3.90305e-09 0)
(8.55979e-10 -9.88632e-11 0)
(7.49464e-10 -1.82443e-08 0)
(-2.8799e-10 -2.204e-08 0)
(-1.25283e-10 3.82411e-09 0)
(-3.64305e-10 9.52121e-09 0)
(4.48984e-10 1.19872e-08 0)
(9.06907e-10 1.14462e-08 0)
(6.95872e-10 7.5515e-09 0)
(2.40179e-10 1.12025e-09 0)
(-1.74726e-10 -5.29615e-09 0)
(-6.36374e-10 -8.97047e-09 0)
(-1.03687e-09 -8.69368e-09 0)
(-1.07985e-09 -5.49623e-09 0)
(-9.63483e-10 -2.06239e-10 0)
(-7.11852e-10 4.69e-09 0)
(-4.53139e-10 9.5083e-09 0)
(-3.43706e-10 1.22692e-08 0)
(-4.63444e-10 1.34678e-08 0)
(-2.76726e-10 1.32881e-08 0)
(-3.14011e-11 4.47295e-09 0)
(6.68732e-11 6.21956e-10 0)
(2.85624e-10 -1.70283e-08 0)
(-4.57323e-10 -2.12185e-08 0)
(-2.07237e-10 3.18994e-09 0)
(-6.828e-10 8.57457e-09 0)
(4.04952e-10 1.15493e-08 0)
(1.40033e-09 1.10401e-08 0)
(1.67116e-09 6.53627e-09 0)
(1.30651e-09 -5.17741e-10 0)
(4.03443e-10 -6.82929e-09 0)
(-7.81027e-10 -9.97034e-09 0)
(-2.1012e-09 -8.81775e-09 0)
(-2.86194e-09 -4.76418e-09 0)
(-2.90056e-09 1.05525e-09 0)
(-2.56061e-09 6.21178e-09 0)
(-1.90457e-09 1.08348e-08 0)
(-7.80363e-10 1.30051e-08 0)
(5.37133e-11 1.3615e-08 0)
(1.31071e-09 1.28563e-08 0)
(1.83665e-09 3.87347e-09 0)
(1.84618e-09 -1.46095e-10 0)
(1.42243e-09 -1.7384e-08 0)
(-1.5594e-09 -2.07174e-08 0)
(-2.9813e-10 2.41862e-09 0)
(-6.66711e-10 6.86586e-09 0)
(6.63708e-10 9.64156e-09 0)
(1.32088e-09 9.96954e-09 0)
(6.62106e-10 7.0941e-09 0)
(1.03911e-10 1.87728e-09 0)
(2.74159e-12 -3.25303e-09 0)
(-2.98354e-10 -6.20518e-09 0)
(-1.05709e-09 -6.02446e-09 0)
(-2.06788e-09 -3.31095e-09 0)
(-2.44583e-09 9.19923e-10 0)
(-2.49825e-09 4.87567e-09 0)
(-2.51858e-09 8.87765e-09 0)
(-1.95724e-09 1.10363e-08 0)
(-1.45756e-09 1.19254e-08 0)
(-5.47011e-10 1.18616e-08 0)
(7.84682e-11 4.38821e-09 0)
(3.47217e-10 1.09637e-09 0)
(1.1305e-09 -1.42275e-08 0)
(-9.82788e-10 -1.81845e-08 0)
(-3.38177e-10 1.65335e-09 0)
(-9.78691e-10 5.63501e-09 0)
(6.85836e-10 8.3043e-09 0)
(2.42788e-09 7.60084e-09 0)
(2.72009e-09 3.28569e-09 0)
(2.09823e-09 -2.58315e-09 0)
(1.12604e-09 -7.72462e-09 0)
(-1.07554e-09 -9.94866e-09 0)
(-3.5435e-09 -8.80107e-09 0)
(-5.57455e-09 -4.8292e-09 0)
(-6.18525e-09 7.20541e-10 0)
(-5.39111e-09 5.44029e-09 0)
(-4.17748e-09 9.66672e-09 0)
(-2.13828e-09 1.17589e-08 0)
(-2.02448e-10 1.23882e-08 0)
(2.35783e-09 1.17519e-08 0)
(3.19868e-09 4.16337e-09 0)
(3.04978e-09 4.57047e-10 0)
(2.13787e-09 -1.43745e-08 0)
(-2.94748e-09 -1.72532e-08 0)
(-2.51673e-10 7.84343e-10 0)
(-8.16191e-10 2.89837e-09 0)
(5.66583e-10 5.42043e-09 0)
(1.9119e-09 6.14928e-09 0)
(1.55132e-09 3.78771e-09 0)
(5.26924e-10 -1.10308e-11 0)
(1.24927e-10 -3.67022e-09 0)
(-9.03654e-10 -5.04113e-09 0)
(-2.43963e-09 -4.42329e-09 0)
(-3.47296e-09 -2.23448e-09 0)
(-3.87316e-09 1.34941e-09 0)
(-3.73818e-09 4.79997e-09 0)
(-3.61272e-09 8.28109e-09 0)
(-2.86624e-09 1.01128e-08 0)
(-1.96544e-09 1.04549e-08 0)
(-2.96606e-10 9.85848e-09 0)
(5.2456e-10 3.81646e-09 0)
(5.53839e-10 1.23812e-09 0)
(1.01781e-09 -1.03131e-08 0)
(-2.48641e-09 -1.35371e-08 0)
(-3.73476e-10 3.58775e-10 0)
(-1.37914e-09 3.06688e-09 0)
(5.05791e-10 5.37384e-09 0)
(3.07431e-09 5.0104e-09 0)
(3.49794e-09 2.01402e-09 0)
(2.36424e-09 -1.23016e-09 0)
(1.66147e-09 -4.85676e-09 0)
(-3.02252e-10 -6.6497e-09 0)
(-3.5661e-09 -5.74505e-09 0)
(-6.06399e-09 -3.17954e-09 0)
(-7.05568e-09 5.93235e-10 0)
(-6.65609e-09 3.82335e-09 0)
(-5.74573e-09 6.67307e-09 0)
(-3.7903e-09 8.19787e-09 0)
(-1.77274e-09 8.85284e-09 0)
(1.2917e-09 8.65771e-09 0)
(2.61945e-09 3.68854e-09 0)
(2.56337e-09 1.17313e-09 0)
(2.27055e-09 -9.13424e-09 0)
(-3.46846e-09 -1.15449e-08 0)
(-2.42917e-10 -5.6741e-11 0)
(-1.04693e-09 1.46984e-09 0)
(8.67273e-10 3.22845e-09 0)
(2.59196e-09 3.00184e-09 0)
(2.21384e-09 1.14638e-10 0)
(4.80897e-10 -1.79165e-09 0)
(-3.56127e-10 -4.34973e-09 0)
(7.24156e-11 -5.78645e-09 0)
(-2.81227e-09 -4.92383e-09 0)
(-5.27804e-09 -2.58114e-09 0)
(-5.7919e-09 6.2335e-10 0)
(-5.02623e-09 3.35951e-09 0)
(-4.21059e-09 5.7068e-09 0)
(-3.09772e-09 6.95935e-09 0)
(-2.17803e-09 7.33449e-09 0)
(8.15358e-11 6.78677e-09 0)
(1.16388e-09 2.62661e-09 0)
(1.34339e-09 5.16551e-10 0)
(1.0731e-09 -7.14202e-09 0)
(-4.69652e-09 -8.63415e-09 0)
(-2.79961e-10 -3.28908e-10 0)
(-1.91439e-09 -3.55368e-10 0)
(2.91406e-10 4.16629e-10 0)
(2.80054e-09 5.72928e-10 0)
(4.7564e-09 1.65643e-09 0)
(5.0022e-10 -5.46833e-10 0)
(-2.10518e-09 8.79584e-12 0)
(-6.69364e-10 -7.78776e-10 0)
(-3.64023e-09 -1.28726e-09 0)
(-6.27376e-09 -7.11043e-10 0)
(-7.39111e-09 1.01702e-10 0)
(-7.08374e-09 8.54434e-10 0)
(-6.02031e-09 1.89735e-09 0)
(-3.89177e-09 2.87109e-09 0)
(-2.08483e-09 3.43266e-09 0)
(5.81756e-10 3.66114e-09 0)
(1.68487e-09 2.09992e-09 0)
(1.55963e-09 1.53844e-09 0)
(1.44588e-09 -1.67725e-09 0)
(-4.35352e-09 -3.54631e-09 0)
(-1.46653e-10 -1.13446e-10 0)
(-1.58592e-09 1.08436e-09 0)
(-2.27413e-11 1.54731e-09 0)
(3.42992e-09 -3.52919e-10 0)
(1.57964e-09 -1.13645e-09 0)
(4.11332e-09 -5.6934e-09 0)
(4.14316e-09 -6.00301e-09 0)
(-1.99146e-09 -6.50257e-09 0)
(-2.85287e-09 -5.58233e-09 0)
(-4.40557e-09 -3.04919e-09 0)
(-5.67893e-09 -4.11972e-10 0)
(-5.70814e-09 1.23662e-09 0)
(-4.87419e-09 2.20436e-09 0)
(-3.2367e-09 2.63598e-09 0)
(-2.12815e-09 2.87583e-09 0)
(4.38273e-11 2.48881e-09 0)
(9.55169e-10 6.164e-10 0)
(9.39957e-10 -7.64723e-10 0)
(6.5537e-10 -4.08441e-09 0)
(-5.36196e-09 -3.54358e-09 0)
)
;

boundaryField
{
    sides
    {
        type            calculated;
        value           nonuniform List<vector> 
40
(
(-1.46653e-10 0 0)
(-1.58592e-09 0 0)
(-2.27413e-11 0 0)
(3.42992e-09 0 0)
(1.57964e-09 0 0)
(4.11332e-09 0 0)
(4.14316e-09 0 0)
(-1.99146e-09 0 0)
(-2.85287e-09 0 0)
(-4.40557e-09 0 0)
(-5.67893e-09 0 0)
(-5.70814e-09 0 0)
(-4.87419e-09 0 0)
(-3.2367e-09 0 0)
(-2.12815e-09 0 0)
(4.38273e-11 0 0)
(9.55169e-10 0 0)
(9.39957e-10 0 0)
(6.5537e-10 0 0)
(-5.36196e-09 0 0)
(1.19875e-10 0 0)
(1.5739e-09 0 0)
(-1.583e-11 0 0)
(-3.47793e-09 0 0)
(-1.0986e-09 0 0)
(-6.03814e-09 0 0)
(-5.61922e-09 0 0)
(1.82003e-09 0 0)
(2.91796e-09 0 0)
(5.23497e-09 0 0)
(6.06627e-09 0 0)
(5.60194e-09 0 0)
(4.80835e-09 0 0)
(3.31883e-09 0 0)
(2.19789e-09 0 0)
(-5.37562e-11 0 0)
(-1.00194e-09 0 0)
(-9.66107e-10 0 0)
(-6.75744e-10 0 0)
(5.35628e-09 0 0)
)
;
    }
    inlet
    {
        type            calculated;
        value           uniform (0 0 0);
    }
    outlet
    {
        type            calculated;
        value           nonuniform List<vector> 
20
(
(5.35628e-09 -3.54301e-09 0)
(4.36458e-09 -3.55434e-09 0)
(4.69419e-09 -8.6442e-09 0)
(3.45825e-09 -1.15542e-08 0)
(2.48413e-09 -1.35549e-08 0)
(2.93468e-09 -1.72676e-08 0)
(9.84484e-10 -1.82012e-08 0)
(1.56309e-09 -2.07257e-08 0)
(4.5543e-10 -2.12238e-08 0)
(2.79913e-10 -2.20399e-08 0)
(-2.8799e-10 -2.204e-08 0)
(-4.57323e-10 -2.12185e-08 0)
(-1.5594e-09 -2.07174e-08 0)
(-9.82788e-10 -1.81845e-08 0)
(-2.94748e-09 -1.72532e-08 0)
(-2.48641e-09 -1.35371e-08 0)
(-3.46846e-09 -1.15449e-08 0)
(-4.69652e-09 -8.63415e-09 0)
(-4.35352e-09 -3.54631e-09 0)
(-5.36196e-09 -3.54358e-09 0)
)
;
    }
    frontAndBack
    {
        type            empty;
    }
}


// ************************************************************************* //
