/*--------------------------------*- C++ -*----------------------------------*\
  =========                 |
  \\      /  F ield         | OpenFOAM: The Open Source CFD Toolbox
   \\    /   O peration     | Website:  https://openfoam.org
    \\  /    A nd           | Version:  7
     \\/     M anipulation  |
\*---------------------------------------------------------------------------*/
FoamFile
{
    version     2.0;
    format      ascii;
    class       volScalarField;
    location    "32";
    object      ddt0(h);
}
// * * * * * * * * * * * * * * * * * * * * * * * * * * * * * * * * * * * * * //

dimensions      [0 1 -1 0 0 0 0];

internalField   nonuniform List<scalar> 
400
(
3.07409e-08
3.36079e-08
3.1497e-08
2.75228e-08
3.67528e-08
-2.31497e-08
-1.01453e-08
3.76129e-08
2.70156e-08
2.73446e-08
2.56831e-08
2.40237e-08
2.16043e-08
1.86843e-08
1.58506e-08
1.29369e-08
9.79219e-09
6.77253e-09
3.89181e-09
1.48361e-09
3.15416e-08
3.10675e-08
3.14589e-08
3.36894e-08
2.80767e-08
7.51765e-08
7.05743e-08
2.02836e-08
2.50166e-08
2.37533e-08
2.26361e-08
2.15856e-08
1.9711e-08
1.71977e-08
1.45014e-08
1.16831e-08
8.64838e-09
5.80439e-09
3.03881e-09
1.0244e-09
3.07836e-08
2.73816e-08
2.93178e-08
3.00038e-08
2.53762e-08
3.13135e-08
2.5945e-08
1.98781e-08
2.46626e-08
2.16004e-08
2.05316e-08
1.96441e-08
1.80119e-08
1.59286e-08
1.3611e-08
1.09498e-08
8.10694e-09
5.44449e-09
2.94035e-09
1.11642e-09
2.98058e-08
2.64072e-08
2.63121e-08
2.66331e-08
2.25274e-08
2.34283e-08
1.59555e-08
2.0969e-08
1.78542e-08
1.58082e-08
1.56027e-08
1.4979e-08
1.39089e-08
1.26811e-08
1.11462e-08
9.21045e-09
6.93383e-09
4.62729e-09
2.31656e-09
7.4934e-10
2.8539e-08
2.66472e-08
2.54703e-08
2.49626e-08
2.15766e-08
1.89506e-08
1.78698e-08
1.64623e-08
1.40528e-08
1.2629e-08
1.20248e-08
1.09798e-08
1.00372e-08
9.09564e-09
7.99908e-09
6.89183e-09
5.70449e-09
4.32555e-09
2.6775e-09
1.11336e-09
2.5176e-08
2.38614e-08
2.1573e-08
2.01304e-08
1.75319e-08
1.44406e-08
1.21538e-08
1.07822e-08
8.61254e-09
8.2031e-09
7.7103e-09
6.95896e-09
6.87966e-09
6.56051e-09
5.93487e-09
5.46072e-09
4.97144e-09
4.00289e-09
2.3608e-09
8.3978e-10
1.99638e-08
1.86854e-08
1.6686e-08
1.4492e-08
1.23116e-08
9.71396e-09
7.85356e-09
6.10613e-09
4.74326e-09
4.13518e-09
2.77894e-09
2.74101e-09
3.47932e-09
3.65143e-09
3.69336e-09
4.0632e-09
4.27939e-09
3.70077e-09
2.34058e-09
9.10226e-10
1.31665e-08
1.13745e-08
1.00934e-08
9.14769e-09
7.85527e-09
5.98972e-09
5.02703e-09
3.62991e-09
2.64419e-09
7.69247e-10
-4.3066e-10
1.17463e-10
9.60431e-10
1.6235e-09
2.42766e-09
3.24298e-09
3.5581e-09
2.98125e-09
1.72798e-09
5.98451e-10
6.91612e-09
5.39783e-09
5.24412e-09
4.88413e-09
4.26638e-09
3.78221e-09
3.28208e-09
2.73561e-09
1.52951e-09
-4.91059e-10
-1.37582e-09
-1.25169e-09
-6.62255e-10
4.04115e-10
1.4587e-09
2.12329e-09
2.31629e-09
1.90272e-09
1.10249e-09
3.96664e-10
2.00747e-09
1.41212e-09
1.25012e-09
1.37951e-09
1.39048e-09
1.11449e-09
7.79452e-10
9.58926e-10
8.30095e-10
1.35559e-10
-4.18046e-10
-7.15988e-10
-6.47552e-10
-1.67268e-10
3.67278e-10
7.12155e-10
8.37693e-10
7.27136e-10
4.52076e-10
1.58207e-10
-1.96033e-09
-1.40855e-09
-1.31294e-09
-1.48964e-09
-1.48124e-09
-1.17423e-09
-7.93746e-10
-9.45204e-10
-8.02419e-10
-8.5768e-11
4.78874e-10
7.80071e-10
6.53189e-10
6.66686e-11
-5.08346e-10
-7.95605e-10
-8.59463e-10
-7.49446e-10
-4.97074e-10
-1.85377e-10
-6.92738e-09
-5.46469e-09
-5.31283e-09
-4.8483e-09
-4.20678e-09
-3.70859e-09
-3.2286e-09
-2.66157e-09
-1.47533e-09
5.45532e-10
1.44968e-09
1.35441e-09
7.95345e-10
-3.05511e-10
-1.45614e-09
-2.18511e-09
-2.37203e-09
-1.92566e-09
-1.10212e-09
-3.9354e-10
-1.32767e-08
-1.14902e-08
-1.00176e-08
-8.95743e-09
-7.75576e-09
-5.84072e-09
-4.95827e-09
-3.52797e-09
-2.54046e-09
-7.65396e-10
4.02371e-10
-1.16686e-10
-8.35831e-10
-1.37561e-09
-2.21736e-09
-3.17796e-09
-3.58093e-09
-2.98992e-09
-1.69393e-09
-5.73877e-10
-2.01416e-08
-1.8673e-08
-1.64438e-08
-1.44698e-08
-1.22105e-08
-9.57542e-09
-7.78019e-09
-6.16609e-09
-4.52979e-09
-3.96565e-09
-2.81999e-09
-2.8993e-09
-3.55807e-09
-3.49806e-09
-3.40199e-09
-3.8422e-09
-4.19403e-09
-3.67126e-09
-2.30332e-09
-8.87729e-10
-2.52591e-08
-2.36175e-08
-2.14982e-08
-2.03275e-08
-1.7208e-08
-1.48542e-08
-1.21031e-08
-1.14659e-08
-8.98409e-09
-7.90926e-09
-7.44694e-09
-7.03031e-09
-7.13125e-09
-6.67033e-09
-5.78527e-09
-5.21502e-09
-4.80335e-09
-3.92865e-09
-2.3306e-09
-8.30942e-10
-2.83952e-08
-2.63888e-08
-2.57478e-08
-2.4929e-08
-2.16851e-08
-1.99427e-08
-1.72674e-08
-1.65669e-08
-1.54981e-08
-1.31577e-08
-1.17173e-08
-1.07308e-08
-1.01879e-08
-9.38432e-09
-8.09858e-09
-6.7812e-09
-5.55008e-09
-4.23279e-09
-2.64798e-09
-1.11079e-09
-2.95158e-08
-2.65048e-08
-2.67378e-08
-2.63222e-08
-2.36774e-08
-2.24207e-08
-1.86813e-08
-1.86327e-08
-1.81865e-08
-1.70996e-08
-1.58898e-08
-1.46311e-08
-1.37562e-08
-1.2886e-08
-1.13956e-08
-9.28532e-09
-6.87575e-09
-4.55805e-09
-2.28681e-09
-7.4445e-10
-3.02659e-08
-2.78784e-08
-2.98504e-08
-2.96713e-08
-2.69044e-08
-2.89286e-08
-2.88063e-08
-1.90692e-08
-2.2731e-08
-2.24739e-08
-2.13274e-08
-1.95683e-08
-1.7751e-08
-1.59689e-08
-1.38458e-08
-1.11221e-08
-8.14412e-09
-5.42014e-09
-2.91944e-09
-1.1101e-09
-3.1502e-08
-3.12132e-08
-3.15105e-08
-3.49719e-08
-2.88732e-08
-5.93618e-08
-5.63043e-08
-2.35997e-08
-2.4405e-08
-2.39115e-08
-2.31078e-08
-2.18185e-08
-1.96581e-08
-1.70928e-08
-1.45097e-08
-1.17646e-08
-8.70454e-09
-5.81279e-09
-3.02767e-09
-1.01704e-09
-3.14539e-08
-3.32613e-08
-3.05276e-08
-2.69039e-08
-3.36891e-08
5.04342e-09
6.43412e-10
-3.67513e-08
-2.77583e-08
-2.4991e-08
-2.46684e-08
-2.42822e-08
-2.17118e-08
-1.83802e-08
-1.55885e-08
-1.29073e-08
-9.86259e-09
-6.81419e-09
-3.89426e-09
-1.47905e-09
)
;

boundaryField
{
    sides
    {
        type            calculated;
        value           nonuniform List<scalar> 
40
(
-3.14539e-08
-3.32613e-08
-3.05276e-08
-2.69039e-08
-3.36891e-08
5.04342e-09
6.43412e-10
-3.67513e-08
-2.77583e-08
-2.4991e-08
-2.46684e-08
-2.42822e-08
-2.17118e-08
-1.83802e-08
-1.55885e-08
-1.29073e-08
-9.86259e-09
-6.81419e-09
-3.89426e-09
-1.47905e-09
3.07409e-08
3.36079e-08
3.1497e-08
2.75228e-08
3.67528e-08
-2.31497e-08
-1.01453e-08
3.76129e-08
2.70156e-08
2.73446e-08
2.56831e-08
2.40237e-08
2.16043e-08
1.86843e-08
1.58506e-08
1.29369e-08
9.79219e-09
6.77253e-09
3.89181e-09
1.48361e-09
)
;
    }
    inlet
    {
        type            calculated;
        value           nonuniform List<scalar> 
20
(
3.07409e-08
3.15416e-08
3.07836e-08
2.98058e-08
2.8539e-08
2.5176e-08
1.99638e-08
1.31665e-08
6.91612e-09
2.00747e-09
-1.96033e-09
-6.92738e-09
-1.32767e-08
-2.01416e-08
-2.52591e-08
-2.83952e-08
-2.95158e-08
-3.02659e-08
-3.1502e-08
-3.14539e-08
)
;
    }
    outlet
    {
        type            calculated;
        value           uniform 0;
    }
    frontAndBack
    {
        type            empty;
    }
}


// ************************************************************************* //
