/*--------------------------------*- C++ -*----------------------------------*\
  =========                 |
  \\      /  F ield         | OpenFOAM: The Open Source CFD Toolbox
   \\    /   O peration     | Website:  https://openfoam.org
    \\  /    A nd           | Version:  7
     \\/     M anipulation  |
\*---------------------------------------------------------------------------*/
FoamFile
{
    version     2.0;
    format      ascii;
    class       volVectorField;
    location    "32";
    object      hU;
}
// * * * * * * * * * * * * * * * * * * * * * * * * * * * * * * * * * * * * * //

dimensions      [0 2 -1 0 0 0 0];

internalField   nonuniform List<vector> 
400
(
(0.001 -8.92886e-09 0)
(0.000999998 -2.47934e-08 0)
(0.000999996 -3.8553e-08 0)
(0.001 -5.08474e-08 0)
(0.00100001 -6.18602e-08 0)
(0.00100001 -7.23065e-08 0)
(0.00100002 -8.14311e-08 0)
(0.00100003 -9.06549e-08 0)
(0.00100004 -9.93582e-08 0)
(0.00100006 -1.09823e-07 0)
(0.00100007 -1.20102e-07 0)
(0.00100009 -1.3405e-07 0)
(0.00100011 -1.45318e-07 0)
(0.00100015 -1.63433e-07 0)
(0.00100017 -1.73289e-07 0)
(0.00100023 -1.98842e-07 0)
(0.00100026 -2.03773e-07 0)
(0.00100038 -2.45953e-07 0)
(0.00100039 -2.4125e-07 0)
(0.00100061 -3.30495e-07 0)
(0.001 3.86117e-09 0)
(0.001 1.20307e-08 0)
(0.001 2.01879e-08 0)
(0.00100001 2.73293e-08 0)
(0.00100002 3.35905e-08 0)
(0.00100002 3.90892e-08 0)
(0.00100003 4.49193e-08 0)
(0.00100004 5.0213e-08 0)
(0.00100005 5.59744e-08 0)
(0.00100007 6.05087e-08 0)
(0.00100008 6.58422e-08 0)
(0.0010001 6.7995e-08 0)
(0.00100012 7.24057e-08 0)
(0.00100015 6.91382e-08 0)
(0.00100017 7.28513e-08 0)
(0.00100023 5.93229e-08 0)
(0.00100026 6.40635e-08 0)
(0.00100035 2.84462e-08 0)
(0.00100037 3.57142e-08 0)
(0.00100051 -5.56323e-08 0)
(0.001 -4.32486e-09 0)
(0.000999998 -1.43523e-08 0)
(0.000999996 -2.63108e-08 0)
(0.000999999 -3.93454e-08 0)
(0.001 -5.15674e-08 0)
(0.00100001 -6.23521e-08 0)
(0.00100002 -7.15824e-08 0)
(0.00100003 -8.05847e-08 0)
(0.00100004 -8.90671e-08 0)
(0.00100005 -1.00227e-07 0)
(0.00100006 -1.11693e-07 0)
(0.00100008 -1.29006e-07 0)
(0.0010001 -1.44234e-07 0)
(0.00100013 -1.70209e-07 0)
(0.00100015 -1.87342e-07 0)
(0.0010002 -2.26611e-07 0)
(0.00100023 -2.42544e-07 0)
(0.00100031 -3.04618e-07 0)
(0.00100033 -3.13211e-07 0)
(0.00100046 -4.21334e-07 0)
(0.001 -5.74045e-10 0)
(0.001 -2.09981e-09 0)
(0.001 -4.39485e-09 0)
(0.00100001 -6.97445e-09 0)
(0.00100001 -8.70893e-09 0)
(0.00100002 -9.35239e-09 0)
(0.00100003 -8.43019e-09 0)
(0.00100004 -7.15888e-09 0)
(0.00100005 -5.43258e-09 0)
(0.00100006 -6.71137e-09 0)
(0.00100007 -8.88296e-09 0)
(0.00100009 -1.79388e-08 0)
(0.0010001 -2.56089e-08 0)
(0.00100013 -4.54198e-08 0)
(0.00100015 -5.69245e-08 0)
(0.00100019 -9.2492e-08 0)
(0.00100022 -1.05026e-07 0)
(0.00100028 -1.64739e-07 0)
(0.00100031 -1.71452e-07 0)
(0.00100039 -2.75979e-07 0)
(0.001 -3.15028e-09 0)
(0.000999999 -1.05081e-08 0)
(0.000999999 -1.97043e-08 0)
(0.001 -3.08203e-08 0)
(0.00100001 -4.22812e-08 0)
(0.00100001 -5.29508e-08 0)
(0.00100002 -6.17559e-08 0)
(0.00100002 -7.02621e-08 0)
(0.00100003 -7.85078e-08 0)
(0.00100004 -8.9906e-08 0)
(0.00100005 -1.02179e-07 0)
(0.00100007 -1.21644e-07 0)
(0.00100008 -1.4005e-07 0)
(0.00100011 -1.71617e-07 0)
(0.00100012 -1.94754e-07 0)
(0.00100016 -2.42782e-07 0)
(0.00100018 -2.66574e-07 0)
(0.00100023 -3.37743e-07 0)
(0.00100025 -3.53527e-07 0)
(0.00100033 -4.64416e-07 0)
(0.001 -3.06404e-09 0)
(0.001 -1.04823e-08 0)
(0.000999999 -1.92598e-08 0)
(0.001 -2.86723e-08 0)
(0.00100001 -3.68516e-08 0)
(0.00100001 -4.28769e-08 0)
(0.00100002 -4.60009e-08 0)
(0.00100003 -4.82904e-08 0)
(0.00100003 -5.0444e-08 0)
(0.00100004 -5.6657e-08 0)
(0.00100005 -6.51296e-08 0)
(0.00100006 -8.21378e-08 0)
(0.00100007 -9.90085e-08 0)
(0.00100009 -1.2991e-07 0)
(0.00100011 -1.52702e-07 0)
(0.00100014 -2.01151e-07 0)
(0.00100016 -2.24909e-07 0)
(0.0010002 -2.95028e-07 0)
(0.00100022 -3.09383e-07 0)
(0.00100027 -4.14431e-07 0)
(0.001 -3.26953e-09 0)
(0.001 -1.16285e-08 0)
(0.001 -2.14406e-08 0)
(0.001 -3.25655e-08 0)
(0.00100001 -4.3799e-08 0)
(0.00100001 -5.40944e-08 0)
(0.00100001 -6.21604e-08 0)
(0.00100002 -6.95898e-08 0)
(0.00100002 -7.67887e-08 0)
(0.00100003 -8.77832e-08 0)
(0.00100004 -1.00665e-07 0)
(0.00100005 -1.2198e-07 0)
(0.00100006 -1.43152e-07 0)
(0.00100007 -1.78886e-07 0)
(0.00100008 -2.0648e-07 0)
(0.00100011 -2.60431e-07 0)
(0.00100012 -2.89263e-07 0)
(0.00100015 -3.64922e-07 0)
(0.00100016 -3.83744e-07 0)
(0.00100021 -4.92718e-07 0)
(0.001 -3.36524e-09 0)
(0.001 -1.25615e-08 0)
(0.001 -2.35793e-08 0)
(0.001 -3.58305e-08 0)
(0.001 -4.74771e-08 0)
(0.00100001 -5.70584e-08 0)
(0.00100001 -6.34472e-08 0)
(0.00100001 -6.87501e-08 0)
(0.00100002 -7.40288e-08 0)
(0.00100002 -8.37547e-08 0)
(0.00100003 -9.63155e-08 0)
(0.00100003 -1.18173e-07 0)
(0.00100004 -1.40526e-07 0)
(0.00100005 -1.77762e-07 0)
(0.00100006 -2.06748e-07 0)
(0.00100008 -2.61987e-07 0)
(0.00100009 -2.91471e-07 0)
(0.00100011 -3.66658e-07 0)
(0.00100012 -3.8493e-07 0)
(0.00100015 -4.89857e-07 0)
(0.001 -3.37706e-09 0)
(0.001 -1.32021e-08 0)
(0.001 -2.46801e-08 0)
(0.001 -3.71211e-08 0)
(0.001 -4.91655e-08 0)
(0.001 -5.96203e-08 0)
(0.00100001 -6.72419e-08 0)
(0.00100001 -7.38983e-08 0)
(0.00100001 -8.04607e-08 0)
(0.00100001 -9.12838e-08 0)
(0.00100002 -1.04696e-07 0)
(0.00100002 -1.27396e-07 0)
(0.00100003 -1.50631e-07 0)
(0.00100003 -1.89219e-07 0)
(0.00100004 -2.19769e-07 0)
(0.00100005 -2.77228e-07 0)
(0.00100005 -3.08842e-07 0)
(0.00100007 -3.86424e-07 0)
(0.00100007 -4.06445e-07 0)
(0.00100009 -5.13069e-07 0)
(0.001 -3.34232e-09 0)
(0.001 -1.34085e-08 0)
(0.001 -2.52274e-08 0)
(0.001 -3.81036e-08 0)
(0.001 -5.05746e-08 0)
(0.001 -6.12294e-08 0)
(0.001 -6.87595e-08 0)
(0.001 -7.51551e-08 0)
(0.001 -8.15353e-08 0)
(0.001 -9.24118e-08 0)
(0.00100001 -1.0625e-07 0)
(0.00100001 -1.2966e-07 0)
(0.00100001 -1.53775e-07 0)
(0.00100001 -1.93217e-07 0)
(0.00100001 -2.24481e-07 0)
(0.00100002 -2.82458e-07 0)
(0.00100002 -3.14308e-07 0)
(0.00100002 -3.91735e-07 0)
(0.00100002 -4.11647e-07 0)
(0.00100003 -5.17014e-07 0)
(0.001 -3.34219e-09 0)
(0.001 -1.34079e-08 0)
(0.001 -2.52254e-08 0)
(0.001 -3.81014e-08 0)
(0.000999999 -5.05733e-08 0)
(0.000999999 -6.12297e-08 0)
(0.000999998 -6.87613e-08 0)
(0.000999997 -7.5158e-08 0)
(0.000999996 -8.15383e-08 0)
(0.000999995 -9.24146e-08 0)
(0.000999994 -1.06253e-07 0)
(0.000999993 -1.29662e-07 0)
(0.000999992 -1.53776e-07 0)
(0.00099999 -1.93215e-07 0)
(0.000999988 -2.24477e-07 0)
(0.000999985 -2.82453e-07 0)
(0.000999982 -3.14305e-07 0)
(0.000999978 -3.91733e-07 0)
(0.000999976 -4.11644e-07 0)
(0.00099997 -5.17011e-07 0)
(0.001 -3.37618e-09 0)
(0.001 -1.31995e-08 0)
(0.001 -2.4676e-08 0)
(0.000999999 -3.71183e-08 0)
(0.000999998 -4.91647e-08 0)
(0.000999996 -5.96225e-08 0)
(0.000999994 -6.72464e-08 0)
(0.000999992 -7.39037e-08 0)
(0.000999989 -8.04654e-08 0)
(0.000999986 -9.12864e-08 0)
(0.000999983 -1.047e-07 0)
(0.000999979 -1.27398e-07 0)
(0.000999974 -1.50633e-07 0)
(0.000999968 -1.89211e-07 0)
(0.000999962 -2.19758e-07 0)
(0.000999953 -2.77205e-07 0)
(0.000999947 -3.08818e-07 0)
(0.000999934 -3.86387e-07 0)
(0.00099993 -4.06404e-07 0)
(0.000999911 -5.13004e-07 0)
(0.001 -3.3625e-09 0)
(0.001 -1.25575e-08 0)
(0.001 -2.35772e-08 0)
(0.000999999 -3.58314e-08 0)
(0.000999996 -4.74797e-08 0)
(0.000999993 -5.70662e-08 0)
(0.00099999 -6.3457e-08 0)
(0.000999985 -6.8762e-08 0)
(0.000999981 -7.40409e-08 0)
(0.000999977 -8.37633e-08 0)
(0.000999972 -9.6325e-08 0)
(0.000999965 -1.18183e-07 0)
(0.000999958 -1.40541e-07 0)
(0.000999948 -1.77771e-07 0)
(0.000999938 -2.06757e-07 0)
(0.000999923 -2.61987e-07 0)
(0.000999911 -2.9147e-07 0)
(0.000999889 -3.66651e-07 0)
(0.00099988 -3.84918e-07 0)
(0.00099985 -4.89833e-07 0)
(0.001 -3.2649e-09 0)
(0.001 -1.16267e-08 0)
(0.001 -2.14452e-08 0)
(0.000999998 -3.25689e-08 0)
(0.000999995 -4.38037e-08 0)
(0.000999992 -5.41009e-08 0)
(0.000999988 -6.21658e-08 0)
(0.000999982 -6.95922e-08 0)
(0.000999976 -7.67946e-08 0)
(0.000999969 -8.77828e-08 0)
(0.000999962 -1.0066e-07 0)
(0.000999952 -1.21967e-07 0)
(0.000999942 -1.43143e-07 0)
(0.000999927 -1.78863e-07 0)
(0.000999915 -2.06459e-07 0)
(0.000999893 -2.60382e-07 0)
(0.00099988 -2.89213e-07 0)
(0.000999848 -3.64837e-07 0)
(0.000999839 -3.83655e-07 0)
(0.000999791 -4.9257e-07 0)
(0.000999999 -3.06053e-09 0)
(0.001 -1.04853e-08 0)
(0.001 -1.92675e-08 0)
(0.000999997 -2.86781e-08 0)
(0.000999993 -3.68644e-08 0)
(0.000999987 -4.28822e-08 0)
(0.000999981 -4.60119e-08 0)
(0.000999973 -4.82891e-08 0)
(0.000999966 -5.04511e-08 0)
(0.000999958 -5.66731e-08 0)
(0.00099995 -6.51467e-08 0)
(0.000999939 -8.2148e-08 0)
(0.000999927 -9.90234e-08 0)
(0.000999908 -1.29923e-07 0)
(0.000999892 -1.52724e-07 0)
(0.000999864 -2.01165e-07 0)
(0.000999843 -2.2492e-07 0)
(0.000999802 -2.95026e-07 0)
(0.000999784 -3.09367e-07 0)
(0.000999728 -4.14394e-07 0)
(0.000999999 -3.15247e-09 0)
(0.001 -1.05144e-08 0)
(0.001 -1.9705e-08 0)
(0.000999999 -3.08175e-08 0)
(0.000999995 -4.22761e-08 0)
(0.00099999 -5.29279e-08 0)
(0.000999984 -6.17473e-08 0)
(0.000999976 -7.02447e-08 0)
(0.000999968 -7.84777e-08 0)
(0.000999957 -8.98875e-08 0)
(0.000999947 -1.02174e-07 0)
(0.000999931 -1.21628e-07 0)
(0.000999917 -1.40035e-07 0)
(0.000999894 -1.71584e-07 0)
(0.000999875 -1.94734e-07 0)
(0.00099984 -2.42733e-07 0)
(0.000999819 -2.66538e-07 0)
(0.000999765 -3.37658e-07 0)
(0.000999751 -3.53449e-07 0)
(0.000999668 -4.64252e-07 0)
(0.000999999 -5.8511e-10 0)
(0.000999999 -2.11343e-09 0)
(0.000999998 -4.39844e-09 0)
(0.000999994 -6.97575e-09 0)
(0.000999987 -8.69411e-09 0)
(0.00099998 -9.33563e-09 0)
(0.000999972 -8.395e-09 0)
(0.000999962 -7.14741e-09 0)
(0.000999953 -5.39365e-09 0)
(0.000999941 -6.68033e-09 0)
(0.000999931 -8.88034e-09 0)
(0.000999915 -1.79434e-08 0)
(0.000999899 -2.56183e-08 0)
(0.000999873 -4.54168e-08 0)
(0.000999851 -5.69295e-08 0)
(0.000999811 -9.24843e-08 0)
(0.000999782 -1.05021e-07 0)
(0.000999721 -1.6471e-07 0)
(0.000999695 -1.71408e-07 0)
(0.000999607 -2.75896e-07 0)
(0.000999999 -4.32629e-09 0)
(0.001 -1.43489e-08 0)
(0.001 -2.63077e-08 0)
(0.001 -3.93365e-08 0)
(0.000999996 -5.15423e-08 0)
(0.00099999 -6.23507e-08 0)
(0.000999983 -7.14954e-08 0)
(0.000999973 -8.05374e-08 0)
(0.000999962 -8.90683e-08 0)
(0.000999949 -1.00223e-07 0)
(0.000999937 -1.11695e-07 0)
(0.000999918 -1.29007e-07 0)
(0.0009999 -1.44247e-07 0)
(0.000999869 -1.70201e-07 0)
(0.000999846 -1.8735e-07 0)
(0.000999796 -2.26591e-07 0)
(0.000999769 -2.42558e-07 0)
(0.000999689 -3.04587e-07 0)
(0.000999669 -3.13209e-07 0)
(0.000999537 -4.21256e-07 0)
(0.000999999 3.86179e-09 0)
(0.000999997 1.20462e-08 0)
(0.000999995 2.01941e-08 0)
(0.00099999 2.73258e-08 0)
(0.000999983 3.35567e-08 0)
(0.000999975 3.90212e-08 0)
(0.000999967 4.47518e-08 0)
(0.000999956 5.00995e-08 0)
(0.000999945 5.58772e-08 0)
(0.000999932 6.04881e-08 0)
(0.000999919 6.5862e-08 0)
(0.0009999 6.80166e-08 0)
(0.000999882 7.24107e-08 0)
(0.000999851 6.91609e-08 0)
(0.000999825 7.28685e-08 0)
(0.000999773 5.93688e-08 0)
(0.00099974 6.40939e-08 0)
(0.000999655 2.85211e-08 0)
(0.000999626 3.57805e-08 0)
(0.000999491 -5.54977e-08 0)
(0.000999999 -8.93319e-09 0)
(0.001 -2.47871e-08 0)
(0.001 -3.85508e-08 0)
(0.001 -5.08614e-08 0)
(0.000999994 -6.19154e-08 0)
(0.000999986 -7.23862e-08 0)
(0.000999978 -8.16788e-08 0)
(0.000999967 -9.08373e-08 0)
(0.000999956 -9.94714e-08 0)
(0.000999941 -1.0987e-07 0)
(0.000999929 -1.20122e-07 0)
(0.000999906 -1.34078e-07 0)
(0.00099989 -1.45362e-07 0)
(0.000999852 -1.63477e-07 0)
(0.000999832 -1.73341e-07 0)
(0.000999765 -1.98897e-07 0)
(0.000999744 -2.03838e-07 0)
(0.000999624 -2.46029e-07 0)
(0.000999615 -2.41325e-07 0)
(0.00099939 -3.30615e-07 0)
)
;

boundaryField
{
    sides
    {
        type            slip;
    }
    inlet
    {
        type            fixedValue;
        value           uniform (0.001 0 0);
    }
    outlet
    {
        type            zeroGradient;
    }
    frontAndBack
    {
        type            empty;
    }
}


// ************************************************************************* //
