/*--------------------------------*- C++ -*----------------------------------*\
  =========                 |
  \\      /  F ield         | OpenFOAM: The Open Source CFD Toolbox
   \\    /   O peration     | Website:  https://openfoam.org
    \\  /    A nd           | Version:  7
     \\/     M anipulation  |
\*---------------------------------------------------------------------------*/
FoamFile
{
    version     2.0;
    format      ascii;
    class       volVectorField;
    location    "32";
    object      hU_0;
}
// * * * * * * * * * * * * * * * * * * * * * * * * * * * * * * * * * * * * * //

dimensions      [0 2 -1 0 0 0 0];

internalField   nonuniform List<vector> 
400
(
(0.001 -8.9101e-09 0)
(0.000999998 -2.48965e-08 0)
(0.000999996 -3.87132e-08 0)
(0.001 -5.08673e-08 0)
(0.00100001 -6.178e-08 0)
(0.00100001 -7.1718e-08 0)
(0.00100002 -8.08391e-08 0)
(0.00100003 -9.0179e-08 0)
(0.00100004 -9.88881e-08 0)
(0.00100006 -1.09552e-07 0)
(0.00100007 -1.20057e-07 0)
(0.00100009 -1.34169e-07 0)
(0.00100011 -1.45544e-07 0)
(0.00100015 -1.63704e-07 0)
(0.00100017 -1.73581e-07 0)
(0.00100023 -1.99104e-07 0)
(0.00100026 -2.03855e-07 0)
(0.00100038 -2.45903e-07 0)
(0.00100039 -2.40866e-07 0)
(0.00100061 -3.30139e-07 0)
(0.001 3.89465e-09 0)
(0.001 1.20525e-08 0)
(0.001 2.01368e-08 0)
(0.00100001 2.72397e-08 0)
(0.00100002 3.33813e-08 0)
(0.00100003 3.91492e-08 0)
(0.00100003 4.48786e-08 0)
(0.00100004 5.01648e-08 0)
(0.00100005 5.59911e-08 0)
(0.00100007 6.0507e-08 0)
(0.00100008 6.58097e-08 0)
(0.0010001 6.78992e-08 0)
(0.00100012 7.22018e-08 0)
(0.00100015 6.88396e-08 0)
(0.00100017 7.25041e-08 0)
(0.00100023 5.89486e-08 0)
(0.00100026 6.38385e-08 0)
(0.00100035 2.82714e-08 0)
(0.00100037 3.58484e-08 0)
(0.00100051 -5.52881e-08 0)
(0.001 -4.32357e-09 0)
(0.000999998 -1.45041e-08 0)
(0.000999996 -2.66504e-08 0)
(0.000999999 -3.96703e-08 0)
(0.001 -5.16509e-08 0)
(0.00100001 -6.22631e-08 0)
(0.00100002 -7.12283e-08 0)
(0.00100003 -7.99837e-08 0)
(0.00100004 -8.85906e-08 0)
(0.00100005 -9.9974e-08 0)
(0.00100006 -1.11752e-07 0)
(0.00100008 -1.29347e-07 0)
(0.0010001 -1.44818e-07 0)
(0.00100013 -1.70919e-07 0)
(0.00100015 -1.88087e-07 0)
(0.0010002 -2.27317e-07 0)
(0.00100023 -2.42846e-07 0)
(0.00100031 -3.04719e-07 0)
(0.00100033 -3.12556e-07 0)
(0.00100046 -4.20477e-07 0)
(0.001 -6.12812e-10 0)
(0.001 -2.39293e-09 0)
(0.001 -4.93547e-09 0)
(0.00100001 -7.51053e-09 0)
(0.00100001 -8.96019e-09 0)
(0.00100002 -9.31515e-09 0)
(0.00100003 -8.00665e-09 0)
(0.00100004 -6.55189e-09 0)
(0.00100005 -4.87268e-09 0)
(0.00100006 -6.38067e-09 0)
(0.00100007 -8.93684e-09 0)
(0.00100008 -1.83302e-08 0)
(0.0010001 -2.6288e-08 0)
(0.00100013 -4.62536e-08 0)
(0.00100015 -5.78253e-08 0)
(0.00100019 -9.33964e-08 0)
(0.00100022 -1.05449e-07 0)
(0.00100028 -1.64923e-07 0)
(0.00100031 -1.70621e-07 0)
(0.00100039 -2.74835e-07 0)
(0.001 -3.23572e-09 0)
(0.000999999 -1.07955e-08 0)
(0.000999999 -2.02524e-08 0)
(0.001 -3.14721e-08 0)
(0.00100001 -4.2718e-08 0)
(0.00100001 -5.30209e-08 0)
(0.00100002 -6.14522e-08 0)
(0.00100002 -6.98041e-08 0)
(0.00100003 -7.80758e-08 0)
(0.00100004 -8.96823e-08 0)
(0.00100005 -1.02316e-07 0)
(0.00100007 -1.22126e-07 0)
(0.00100008 -1.40876e-07 0)
(0.00100011 -1.72636e-07 0)
(0.00100012 -1.95819e-07 0)
(0.00100016 -2.43815e-07 0)
(0.00100018 -2.67016e-07 0)
(0.00100023 -3.37936e-07 0)
(0.00100025 -3.52587e-07 0)
(0.00100033 -4.63076e-07 0)
(0.001 -3.23668e-09 0)
(0.000999999 -1.10543e-08 0)
(0.001 -2.01252e-08 0)
(0.001 -2.9507e-08 0)
(0.00100001 -3.72845e-08 0)
(0.00100001 -4.2719e-08 0)
(0.00100002 -4.53179e-08 0)
(0.00100003 -4.73404e-08 0)
(0.00100003 -4.95775e-08 0)
(0.00100004 -5.61696e-08 0)
(0.00100005 -6.51922e-08 0)
(0.00100006 -8.26716e-08 0)
(0.00100007 -9.99659e-08 0)
(0.00100009 -1.31094e-07 0)
(0.00100011 -1.53962e-07 0)
(0.00100014 -2.02381e-07 0)
(0.00100016 -2.25399e-07 0)
(0.0010002 -2.95163e-07 0)
(0.00100022 -3.0806e-07 0)
(0.00100027 -4.12719e-07 0)
(0.001 -3.52215e-09 0)
(0.001 -1.23349e-08 0)
(0.001 -2.24448e-08 0)
(0.001 -3.36263e-08 0)
(0.00100001 -4.45967e-08 0)
(0.00100001 -5.43806e-08 0)
(0.00100001 -6.19153e-08 0)
(0.00100002 -6.90178e-08 0)
(0.00100002 -7.62046e-08 0)
(0.00100003 -8.74502e-08 0)
(0.00100004 -1.00749e-07 0)
(0.00100005 -1.22456e-07 0)
(0.00100006 -1.44034e-07 0)
(0.00100007 -1.80002e-07 0)
(0.00100008 -2.07692e-07 0)
(0.00100011 -2.61666e-07 0)
(0.00100012 -2.89771e-07 0)
(0.00100015 -3.65121e-07 0)
(0.00100016 -3.82444e-07 0)
(0.00100021 -4.90918e-07 0)
(0.001 -3.68364e-09 0)
(0.001 -1.34314e-08 0)
(0.001 -2.47698e-08 0)
(0.001 -3.70032e-08 0)
(0.001 -4.82275e-08 0)
(0.00100001 -5.71122e-08 0)
(0.00100001 -6.28428e-08 0)
(0.00100001 -6.77888e-08 0)
(0.00100002 -7.31376e-08 0)
(0.00100002 -8.32462e-08 0)
(0.00100003 -9.63816e-08 0)
(0.00100003 -1.18762e-07 0)
(0.00100004 -1.41596e-07 0)
(0.00100005 -1.79072e-07 0)
(0.00100006 -2.08128e-07 0)
(0.00100008 -2.63329e-07 0)
(0.00100009 -2.91942e-07 0)
(0.00100011 -3.6675e-07 0)
(0.00100012 -3.83328e-07 0)
(0.00100015 -4.87802e-07 0)
(0.001 -3.74078e-09 0)
(0.001 -1.41534e-08 0)
(0.001 -2.5905e-08 0)
(0.001 -3.83232e-08 0)
(0.001 -5.00063e-08 0)
(0.001 -5.98276e-08 0)
(0.00100001 -6.67929e-08 0)
(0.00100001 -7.30427e-08 0)
(0.00100001 -7.95898e-08 0)
(0.00100001 -9.07003e-08 0)
(0.00100002 -1.04626e-07 0)
(0.00100002 -1.27822e-07 0)
(0.00100003 -1.51554e-07 0)
(0.00100003 -1.90439e-07 0)
(0.00100004 -2.21122e-07 0)
(0.00100005 -2.78608e-07 0)
(0.00100005 -3.09375e-07 0)
(0.00100007 -3.86597e-07 0)
(0.00100007 -4.04887e-07 0)
(0.00100009 -5.1097e-07 0)
(0.001 -3.71493e-09 0)
(0.001 -1.43975e-08 0)
(0.001 -2.64866e-08 0)
(0.001 -3.93376e-08 0)
(0.001 -5.1422e-08 0)
(0.001 -6.13978e-08 0)
(0.001 -6.8226e-08 0)
(0.001 -7.41993e-08 0)
(0.001 -8.05707e-08 0)
(0.001 -9.17735e-08 0)
(0.00100001 -1.06181e-07 0)
(0.00100001 -1.30127e-07 0)
(0.00100001 -1.54766e-07 0)
(0.00100001 -1.94507e-07 0)
(0.00100001 -2.25879e-07 0)
(0.00100002 -2.83843e-07 0)
(0.00100002 -3.14793e-07 0)
(0.00100002 -3.91841e-07 0)
(0.00100002 -4.09969e-07 0)
(0.00100003 -5.14831e-07 0)
(0.001 -3.71578e-09 0)
(0.001 -1.43981e-08 0)
(0.001 -2.64855e-08 0)
(0.001 -3.93349e-08 0)
(0.000999999 -5.14193e-08 0)
(0.000999999 -6.13961e-08 0)
(0.000999998 -6.82258e-08 0)
(0.000999997 -7.41998e-08 0)
(0.000999996 -8.05716e-08 0)
(0.000999995 -9.17744e-08 0)
(0.000999994 -1.06182e-07 0)
(0.000999993 -1.30127e-07 0)
(0.000999992 -1.54764e-07 0)
(0.00099999 -1.94502e-07 0)
(0.000999988 -2.25874e-07 0)
(0.000999985 -2.83838e-07 0)
(0.000999982 -3.1479e-07 0)
(0.000999978 -3.91839e-07 0)
(0.000999976 -4.09966e-07 0)
(0.00099997 -5.14828e-07 0)
(0.001 -3.74235e-09 0)
(0.001 -1.41539e-08 0)
(0.001 -2.59018e-08 0)
(0.000999999 -3.83182e-08 0)
(0.000999998 -5.00024e-08 0)
(0.000999996 -5.98255e-08 0)
(0.000999994 -6.67933e-08 0)
(0.000999992 -7.30435e-08 0)
(0.000999989 -7.95902e-08 0)
(0.000999986 -9.06998e-08 0)
(0.000999983 -1.04627e-07 0)
(0.000999979 -1.2782e-07 0)
(0.000999974 -1.51551e-07 0)
(0.000999968 -1.90425e-07 0)
(0.000999962 -2.21107e-07 0)
(0.000999953 -2.78584e-07 0)
(0.000999947 -3.09353e-07 0)
(0.000999934 -3.8656e-07 0)
(0.00099993 -4.04845e-07 0)
(0.000999911 -5.10905e-07 0)
(0.001 -3.68367e-09 0)
(0.001 -1.34294e-08 0)
(0.001 -2.4766e-08 0)
(0.000999999 -3.70015e-08 0)
(0.000999996 -4.82277e-08 0)
(0.000999993 -5.71166e-08 0)
(0.00099999 -6.28501e-08 0)
(0.000999986 -6.77981e-08 0)
(0.000999982 -7.31453e-08 0)
(0.000999977 -8.32519e-08 0)
(0.000999972 -9.63903e-08 0)
(0.000999965 -1.18771e-07 0)
(0.000999959 -1.41607e-07 0)
(0.000999948 -1.79076e-07 0)
(0.000999938 -2.08131e-07 0)
(0.000999923 -2.63325e-07 0)
(0.000999911 -2.91941e-07 0)
(0.000999889 -3.66743e-07 0)
(0.00099988 -3.83315e-07 0)
(0.00099985 -4.87779e-07 0)
(0.001 -3.51879e-09 0)
(0.001 -1.23314e-08 0)
(0.001 -2.24459e-08 0)
(0.000999998 -3.36297e-08 0)
(0.000999995 -4.4599e-08 0)
(0.000999992 -5.43883e-08 0)
(0.000999988 -6.19214e-08 0)
(0.000999982 -6.90254e-08 0)
(0.000999976 -7.62105e-08 0)
(0.000999969 -8.74461e-08 0)
(0.000999962 -1.00743e-07 0)
(0.000999952 -1.22446e-07 0)
(0.000999942 -1.44027e-07 0)
(0.000999927 -1.79978e-07 0)
(0.000999915 -2.07667e-07 0)
(0.000999894 -2.61613e-07 0)
(0.00099988 -2.8972e-07 0)
(0.000999848 -3.65036e-07 0)
(0.000999838 -3.82355e-07 0)
(0.000999791 -4.90773e-07 0)
(0.000999999 -3.23134e-09 0)
(0.001 -1.10529e-08 0)
(0.001 -2.01323e-08 0)
(0.000999997 -2.9514e-08 0)
(0.000999992 -3.72967e-08 0)
(0.000999987 -4.27353e-08 0)
(0.000999981 -4.53303e-08 0)
(0.000999973 -4.7351e-08 0)
(0.000999966 -4.95997e-08 0)
(0.000999959 -5.61882e-08 0)
(0.000999951 -6.52064e-08 0)
(0.000999939 -8.26827e-08 0)
(0.000999927 -9.99859e-08 0)
(0.000999909 -1.31111e-07 0)
(0.000999892 -1.53984e-07 0)
(0.000999863 -2.02392e-07 0)
(0.000999842 -2.25408e-07 0)
(0.000999802 -2.95159e-07 0)
(0.000999784 -3.08042e-07 0)
(0.000999728 -4.12683e-07 0)
(0.000999999 -3.23331e-09 0)
(0.001 -1.07993e-08 0)
(0.001 -2.02574e-08 0)
(0.000999998 -3.14694e-08 0)
(0.000999994 -4.27223e-08 0)
(0.00099999 -5.30062e-08 0)
(0.000999984 -6.14546e-08 0)
(0.000999976 -6.97805e-08 0)
(0.000999968 -7.80636e-08 0)
(0.000999957 -8.96798e-08 0)
(0.000999947 -1.02313e-07 0)
(0.000999932 -1.22108e-07 0)
(0.000999917 -1.40863e-07 0)
(0.000999894 -1.72609e-07 0)
(0.000999875 -1.95804e-07 0)
(0.00099984 -2.43767e-07 0)
(0.000999819 -2.66979e-07 0)
(0.000999765 -3.37849e-07 0)
(0.000999751 -3.52508e-07 0)
(0.000999668 -4.62914e-07 0)
(0.000999999 -6.15925e-10 0)
(0.001 -2.40558e-09 0)
(0.000999998 -4.94627e-09 0)
(0.000999994 -7.51427e-09 0)
(0.000999987 -8.96389e-09 0)
(0.00099998 -9.28918e-09 0)
(0.000999972 -8.0002e-09 0)
(0.000999962 -6.52131e-09 0)
(0.000999953 -4.83454e-09 0)
(0.000999942 -6.37256e-09 0)
(0.000999931 -8.94783e-09 0)
(0.000999915 -1.83365e-08 0)
(0.000999899 -2.62971e-08 0)
(0.000999874 -4.62533e-08 0)
(0.000999851 -5.7835e-08 0)
(0.000999811 -9.3391e-08 0)
(0.000999781 -1.05444e-07 0)
(0.000999721 -1.64892e-07 0)
(0.000999695 -1.70574e-07 0)
(0.000999608 -2.74753e-07 0)
(0.000999999 -4.32666e-09 0)
(0.001 -1.45036e-08 0)
(0.001 -2.66463e-08 0)
(0.001 -3.96652e-08 0)
(0.000999996 -5.16417e-08 0)
(0.00099999 -6.22027e-08 0)
(0.000999983 -7.10994e-08 0)
(0.000999973 -7.99739e-08 0)
(0.000999962 -8.85885e-08 0)
(0.00099995 -9.99695e-08 0)
(0.000999938 -1.1176e-07 0)
(0.000999918 -1.2935e-07 0)
(0.000999901 -1.44827e-07 0)
(0.000999869 -1.70908e-07 0)
(0.000999846 -1.88095e-07 0)
(0.000999796 -2.27299e-07 0)
(0.000999769 -2.42862e-07 0)
(0.000999689 -3.04688e-07 0)
(0.000999669 -3.12554e-07 0)
(0.000999537 -4.204e-07 0)
(0.000999999 3.88241e-09 0)
(0.000999997 1.20599e-08 0)
(0.000999995 2.01558e-08 0)
(0.00099999 2.72414e-08 0)
(0.000999983 3.33976e-08 0)
(0.000999975 3.90333e-08 0)
(0.000999967 4.47375e-08 0)
(0.000999956 5.00728e-08 0)
(0.000999945 5.59509e-08 0)
(0.000999932 6.05424e-08 0)
(0.00099992 6.58422e-08 0)
(0.000999901 6.79178e-08 0)
(0.000999883 7.22102e-08 0)
(0.000999851 6.88689e-08 0)
(0.000999826 7.25236e-08 0)
(0.000999773 5.89931e-08 0)
(0.00099974 6.38665e-08 0)
(0.000999655 2.83458e-08 0)
(0.000999626 3.59154e-08 0)
(0.000999492 -5.51543e-08 0)
(0.000999999 -8.92047e-09 0)
(0.001 -2.48946e-08 0)
(0.001 -3.87032e-08 0)
(0.001 -5.08752e-08 0)
(0.000999993 -6.178e-08 0)
(0.000999986 -7.18968e-08 0)
(0.000999978 -8.1121e-08 0)
(0.000999967 -9.02962e-08 0)
(0.000999957 -9.89429e-08 0)
(0.000999942 -1.09553e-07 0)
(0.00099993 -1.20067e-07 0)
(0.000999907 -1.342e-07 0)
(0.000999891 -1.45587e-07 0)
(0.000999852 -1.63745e-07 0)
(0.000999832 -1.73633e-07 0)
(0.000999765 -1.9916e-07 0)
(0.000999744 -2.03921e-07 0)
(0.000999624 -2.45979e-07 0)
(0.000999615 -2.4094e-07 0)
(0.000999391 -3.30259e-07 0)
)
;

boundaryField
{
    sides
    {
        type            slip;
    }
    inlet
    {
        type            fixedValue;
        value           uniform (0.001 0 0);
    }
    outlet
    {
        type            zeroGradient;
    }
    frontAndBack
    {
        type            empty;
    }
}


// ************************************************************************* //
