/*--------------------------------*- C++ -*----------------------------------*\
  =========                 |
  \\      /  F ield         | OpenFOAM: The Open Source CFD Toolbox
   \\    /   O peration     | Website:  https://openfoam.org
    \\  /    A nd           | Version:  7
     \\/     M anipulation  |
\*---------------------------------------------------------------------------*/
FoamFile
{
    version     2.0;
    format      ascii;
    class       surfaceScalarField;
    location    "32";
    object      phi;
}
// * * * * * * * * * * * * * * * * * * * * * * * * * * * * * * * * * * * * * //

dimensions      [0 4 -1 0 0 0 0];

internalField   nonuniform List<scalar> 
760
(
4.99998e-06
8.75346e-12
4.99998e-06
-7.61072e-12
5e-06
-1.99351e-11
5.00002e-06
-3.15827e-11
5.00005e-06
-3.72095e-11
5.00009e-06
-5.67255e-11
5.00014e-06
-6.40026e-11
5.00019e-06
-6.43763e-11
5.00025e-06
-6.66711e-11
5.00032e-06
-7.78874e-11
5.0004e-06
-8.75197e-11
5.00051e-06
-1.11047e-10
5.00063e-06
-1.25027e-10
5.00079e-06
-1.69496e-10
5.00097e-06
-1.82733e-10
5.00124e-06
-2.67266e-10
5.00151e-06
-2.6925e-10
5.00195e-06
-4.45653e-10
5.00238e-06
-4.28374e-10
-8.9094e-10
5.00001e-06
-1.31605e-11
5.00002e-06
-2.40891e-11
5.00004e-06
-4.10186e-11
5.00006e-06
-6.29323e-11
5.0001e-06
-8.32707e-11
5.00014e-06
-9.88801e-11
5.00019e-06
-1.09577e-10
5.00025e-06
-1.21965e-10
5.0003e-06
-1.30089e-10
5.00037e-06
-1.50122e-10
5.00045e-06
-1.68531e-10
5.00054e-06
-2.12883e-10
5.00066e-06
-2.43988e-10
5.00081e-06
-3.26378e-10
5.00099e-06
-3.63422e-10
5.00123e-06
-5.07802e-10
5.00149e-06
-5.36645e-10
5.00184e-06
-7.95854e-10
5.0022e-06
-7.89297e-10
-1.26237e-09
4.99999e-06
-6.58419e-12
4.99998e-06
-2.76205e-11
4.99999e-06
-5.53468e-11
5.00001e-06
-8.7125e-11
5.00003e-06
-1.16584e-10
5.00007e-06
-1.41223e-10
5.00011e-06
-1.5985e-10
5.00016e-06
-1.76882e-10
5.00022e-06
-1.91915e-10
5.00028e-06
-2.19933e-10
5.00036e-06
-2.50725e-10
5.00045e-06
-3.11138e-10
5.00057e-06
-3.64055e-10
5.00071e-06
-4.71229e-10
5.00088e-06
-5.38969e-10
5.00109e-06
-7.17344e-10
5.00134e-06
-7.86715e-10
5.00162e-06
-1.082e-09
5.00196e-06
-1.12578e-09
-1.6882e-09
5e-06
-1.37569e-11
5.00001e-06
-4.15796e-11
5.00002e-06
-7.6313e-11
5.00005e-06
-1.16607e-10
5.00008e-06
-1.54752e-10
5.00012e-06
-1.86837e-10
5.00016e-06
-2.0869e-10
5.00021e-06
-2.28408e-10
5.00026e-06
-2.46384e-10
5.00032e-06
-2.80798e-10
5.00038e-06
-3.19896e-10
5.00047e-06
-3.9599e-10
5.00056e-06
-4.65268e-10
5.00069e-06
-6.00053e-10
5.00084e-06
-6.90461e-10
5.00103e-06
-9.06735e-10
5.00124e-06
-9.99802e-10
5.00149e-06
-1.33489e-09
5.00175e-06
-1.38835e-09
-1.89784e-09
4.99999e-06
-1.43072e-11
4.99999e-06
-4.81089e-11
5e-06
-8.93226e-11
5.00002e-06
-1.36215e-10
5.00004e-06
-1.80895e-10
5.00006e-06
-2.19178e-10
5.0001e-06
-2.46623e-10
5.00014e-06
-2.71847e-10
5.00019e-06
-2.96057e-10
5.00024e-06
-3.37616e-10
5.0003e-06
-3.867e-10
5.00038e-06
-4.74074e-10
5.00047e-06
-5.5882e-10
5.00058e-06
-7.10443e-10
5.00071e-06
-8.22363e-10
5.00086e-06
-1.05905e-09
5.00103e-06
-1.1764e-09
5.00122e-06
-1.52452e-09
5.00143e-06
-1.59981e-09
-2.16226e-09
5e-06
-1.57304e-11
5e-06
-5.55034e-11
5.00001e-06
-1.03409e-10
5.00002e-06
-1.57649e-10
5.00005e-06
-2.09623e-10
5.00008e-06
-2.53413e-10
5.00011e-06
-2.83622e-10
5.00015e-06
-3.09779e-10
5.00019e-06
-3.35035e-10
5.00023e-06
-3.80378e-10
5.00028e-06
-4.36363e-10
5.00034e-06
-5.35411e-10
5.00041e-06
-6.33501e-10
5.0005e-06
-8.03661e-10
5.00061e-06
-9.3203e-10
5.00074e-06
-1.19117e-09
5.00088e-06
-1.32363e-09
5.00105e-06
-1.69143e-09
5.00123e-06
-1.77517e-09
-2.29277e-09
5e-06
-1.69915e-11
5e-06
-6.17972e-11
5.00001e-06
-1.14293e-10
5.00002e-06
-1.71732e-10
5.00003e-06
-2.26879e-10
5.00005e-06
-2.74461e-10
5.00008e-06
-3.08747e-10
5.0001e-06
-3.38901e-10
5.00014e-06
-3.68451e-10
5.00017e-06
-4.18542e-10
5.00022e-06
-4.80465e-10
5.00027e-06
-5.86586e-10
5.00033e-06
-6.93797e-10
5.0004e-06
-8.7454e-10
5.00048e-06
-1.01484e-09
5.00057e-06
-1.28651e-09
5.00068e-06
-1.43184e-09
5.00079e-06
-1.80697e-09
5.00091e-06
-1.89738e-09
-2.4416e-09
5e-06
-1.73092e-11
5e-06
-6.50915e-11
5e-06
-1.20877e-10
5.00001e-06
-1.82489e-10
5.00003e-06
-2.42193e-10
5.00004e-06
-2.9318e-10
5.00006e-06
-3.29236e-10
5.00008e-06
-3.60178e-10
5.0001e-06
-3.9082e-10
5.00013e-06
-4.43243e-10
5.00016e-06
-5.09109e-10
5.00019e-06
-6.21381e-10
5.00023e-06
-7.36152e-10
5.00028e-06
-9.26629e-10
5.00035e-06
-1.07628e-09
5.00042e-06
-1.359e-09
5.0005e-06
-1.51217e-09
5.00058e-06
-1.89509e-09
5.00068e-06
-1.99204e-09
-2.5154e-09
5e-06
-1.70289e-11
5e-06
-6.71469e-11
5e-06
-1.25619e-10
5.00001e-06
-1.8916e-10
5.00002e-06
-2.5058e-10
5.00002e-06
-3.03181e-10
5.00004e-06
-3.40715e-10
5.00005e-06
-3.7296e-10
5.00006e-06
-4.05031e-10
5.00008e-06
-4.59289e-10
5.0001e-06
-5.27826e-10
5.00012e-06
-6.43771e-10
5.00014e-06
-7.62749e-10
5.00018e-06
-9.57999e-10
5.00021e-06
-1.11223e-09
5.00025e-06
-1.39993e-09
5.0003e-06
-1.55758e-09
5.00034e-06
-1.94371e-09
5.00039e-06
-2.04179e-09
-2.57195e-09
5e-06
-1.69231e-11
5e-06
-6.77791e-11
5e-06
-1.26889e-10
5e-06
-1.91177e-10
5e-06
-2.53454e-10
5.00001e-06
-3.06868e-10
5.00001e-06
-3.44929e-10
5.00002e-06
-3.77575e-10
5.00002e-06
-4.10157e-10
5.00003e-06
-4.64865e-10
5.00003e-06
-5.33812e-10
5.00004e-06
-6.50241e-10
5.00005e-06
-7.70207e-10
5.00006e-06
-9.67276e-10
5.00007e-06
-1.12389e-09
5.00008e-06
-1.41453e-09
5.0001e-06
-1.5744e-09
5.00012e-06
-1.96207e-09
5.00014e-06
-2.06161e-09
-2.58729e-09
5e-06
-1.7028e-11
5e-06
-6.71393e-11
5e-06
-1.25597e-10
5e-06
-1.89138e-10
5e-06
-2.50569e-10
4.99999e-06
-3.03186e-10
4.99999e-06
-3.40733e-10
4.99998e-06
-3.72985e-10
4.99998e-06
-4.05055e-10
4.99997e-06
-4.5931e-10
4.99997e-06
-5.27851e-10
4.99996e-06
-6.43789e-10
4.99995e-06
-7.62764e-10
4.99994e-06
-9.57983e-10
4.99993e-06
-1.1122e-09
4.99992e-06
-1.39987e-09
4.9999e-06
-1.55753e-09
4.99988e-06
-1.94363e-09
4.99986e-06
-2.04171e-09
-2.57179e-09
5e-06
-1.73018e-11
5e-06
-6.50719e-11
5e-06
-1.20853e-10
4.99999e-06
-1.8248e-10
4.99998e-06
-2.42195e-10
4.99998e-06
-2.93202e-10
4.99996e-06
-3.2927e-10
4.99995e-06
-3.6022e-10
4.99994e-06
-3.90857e-10
4.99992e-06
-4.43268e-10
4.9999e-06
-5.09141e-10
4.99988e-06
-6.21407e-10
4.99986e-06
-7.36185e-10
4.99982e-06
-9.26615e-10
4.99979e-06
-1.07624e-09
4.99975e-06
-1.35891e-09
4.9997e-06
-1.51207e-09
4.99966e-06
-1.89494e-09
4.99961e-06
-1.99186e-09
-2.51515e-09
5e-06
-1.69706e-11
5e-06
-6.17746e-11
5e-06
-1.14299e-10
4.99999e-06
-1.71753e-10
4.99997e-06
-2.269e-10
4.99996e-06
-2.74508e-10
4.99994e-06
-3.08797e-10
4.99992e-06
-3.38957e-10
4.9999e-06
-3.68509e-10
4.99987e-06
-4.18566e-10
4.99984e-06
-4.80481e-10
4.99981e-06
-5.8659e-10
4.99977e-06
-6.93829e-10
4.99972e-06
-8.74533e-10
4.99965e-06
-1.01484e-09
4.99958e-06
-1.28641e-09
4.9995e-06
-1.43174e-09
4.99942e-06
-1.80678e-09
4.99932e-06
-1.89717e-09
-2.4412e-09
5e-06
-1.57037e-11
5e-06
-5.55048e-11
4.99999e-06
-1.03449e-10
4.99998e-06
-1.57668e-10
4.99997e-06
-2.09667e-10
4.99995e-06
-2.5346e-10
4.99992e-06
-2.83657e-10
4.9999e-06
-3.09784e-10
4.99986e-06
-3.35084e-10
4.99983e-06
-3.80421e-10
4.99978e-06
-4.3638e-10
4.99973e-06
-5.35387e-10
4.99967e-06
-6.33503e-10
4.9996e-06
-8.0363e-10
4.99952e-06
-9.32027e-10
4.99943e-06
-1.19107e-09
4.99932e-06
-1.32352e-09
4.99921e-06
-1.6912e-09
4.99909e-06
-1.77489e-09
-2.29229e-09
5e-06
-1.43008e-11
5e-06
-4.81424e-11
4.99999e-06
-8.93557e-11
4.99998e-06
-1.36231e-10
4.99995e-06
-1.80947e-10
4.99992e-06
-2.19117e-10
4.99989e-06
-2.46636e-10
4.99985e-06
-2.71749e-10
4.99981e-06
-2.95985e-10
4.99977e-06
-3.37632e-10
4.99972e-06
-3.86748e-10
4.99966e-06
-4.74064e-10
4.99959e-06
-5.58817e-10
4.9995e-06
-7.10391e-10
4.99939e-06
-8.22369e-10
4.99926e-06
-1.05896e-09
4.99912e-06
-1.17634e-09
4.99895e-06
-1.52429e-09
4.99877e-06
-1.59957e-09
-2.16175e-09
5.00001e-06
-1.37844e-11
5.00001e-06
-4.16209e-11
5e-06
-7.63144e-11
4.99998e-06
-1.16608e-10
4.99996e-06
-1.54686e-10
4.99994e-06
-1.86715e-10
4.9999e-06
-2.08623e-10
4.99986e-06
-2.28356e-10
4.99981e-06
-2.46185e-10
4.99976e-06
-2.8066e-10
4.9997e-06
-3.19884e-10
4.99962e-06
-3.95969e-10
4.99953e-06
-4.65255e-10
4.99942e-06
-5.99958e-10
4.99929e-06
-6.90428e-10
4.99914e-06
-9.06608e-10
4.99897e-06
-9.99728e-10
4.99878e-06
-1.33464e-09
4.99857e-06
-1.38807e-09
-1.89725e-09
5e-06
-6.61301e-12
4.99999e-06
-2.76379e-11
4.99998e-06
-5.53309e-11
4.99995e-06
-8.71046e-11
4.99992e-06
-1.16472e-10
4.99988e-06
-1.41142e-10
4.99984e-06
-1.59249e-10
4.99979e-06
-1.7688e-10
4.99974e-06
-1.91875e-10
4.99968e-06
-2.19796e-10
4.99962e-06
-2.5068e-10
4.99953e-06
-3.11136e-10
4.99944e-06
-3.64097e-10
4.99931e-06
-4.71187e-10
4.99916e-06
-5.3898e-10
4.99897e-06
-7.17253e-10
4.99876e-06
-7.86707e-10
4.99851e-06
-1.08181e-09
4.99825e-06
-1.12563e-09
-1.68776e-09
5.00001e-06
-1.317e-11
5.00002e-06
-2.40283e-11
5.00001e-06
-4.09736e-11
4.99999e-06
-6.28948e-11
4.99997e-06
-8.31178e-11
4.99993e-06
-9.95578e-11
4.99989e-06
-1.10428e-10
4.99984e-06
-1.21902e-10
4.99978e-06
-1.30227e-10
4.99972e-06
-1.50099e-10
4.99964e-06
-1.68479e-10
4.99955e-06
-2.12828e-10
4.99943e-06
-2.44014e-10
4.99929e-06
-3.26307e-10
4.99912e-06
-3.63415e-10
4.99891e-06
-5.07643e-10
4.99866e-06
-5.36617e-10
4.99838e-06
-7.95599e-10
4.99804e-06
-7.89138e-10
-1.26186e-09
4.99999e-06
8.7517e-12
4.99998e-06
-7.55207e-12
4.99996e-06
-1.99374e-11
4.99994e-06
-3.20368e-11
4.9999e-06
-3.65966e-11
4.99986e-06
-5.6705e-11
4.99981e-06
-6.29346e-11
4.99975e-06
-6.51862e-11
4.9997e-06
-6.713e-11
4.99963e-06
-7.81293e-11
4.99955e-06
-8.75787e-11
4.99946e-06
-1.11067e-10
4.99934e-06
-1.2511e-10
4.99919e-06
-1.69553e-10
4.99901e-06
-1.82815e-10
4.99877e-06
-2.67287e-10
4.99851e-06
-2.69326e-10
4.99816e-06
-4.45657e-10
4.9978e-06
-4.28401e-10
-8.90899e-10
5.00002e-06
5.00002e-06
5e-06
4.99998e-06
4.99995e-06
4.99991e-06
4.99986e-06
4.99981e-06
4.99975e-06
4.99968e-06
4.9996e-06
4.99949e-06
4.99937e-06
4.99921e-06
4.99903e-06
4.99876e-06
4.99849e-06
4.99805e-06
4.99762e-06
)
;

boundaryField
{
    sides
    {
        type            calculated;
        value           uniform 0;
    }
    inlet
    {
        type            calculated;
        value           nonuniform List<scalar> 
20
(
-5e-06
-5e-06
-5e-06
-5e-06
-5e-06
-5e-06
-5e-06
-5e-06
-5e-06
-5e-06
-5e-06
-5e-06
-5e-06
-5e-06
-5e-06
-5e-06
-5e-06
-5e-06
-5e-06
-5e-06
)
;
    }
    outlet
    {
        type            calculated;
        value           nonuniform List<scalar> 
20
(
5.00327e-06
5.00257e-06
5.00238e-06
5.00196e-06
5.0017e-06
5.00136e-06
5.00106e-06
5.00075e-06
5.00045e-06
5.00015e-06
4.99985e-06
4.99955e-06
4.99925e-06
4.99894e-06
4.99864e-06
4.9983e-06
4.99804e-06
4.99761e-06
4.99743e-06
4.99673e-06
)
;
    }
    frontAndBack
    {
        type            empty;
        value           nonuniform 0();
    }
}


// ************************************************************************* //
