/*--------------------------------*- C++ -*----------------------------------*\
  =========                 |
  \\      /  F ield         | OpenFOAM: The Open Source CFD Toolbox
   \\    /   O peration     | Website:  https://openfoam.org
    \\  /    A nd           | Version:  7
     \\/     M anipulation  |
\*---------------------------------------------------------------------------*/
FoamFile
{
    version     2.0;
    format      ascii;
    class       volVectorField;
    location    "98";
    object      ddtCorrDdt0(hU);
}
// * * * * * * * * * * * * * * * * * * * * * * * * * * * * * * * * * * * * * //

dimensions      [0 2 -2 0 0 0 0];

internalField   nonuniform List<vector> 
400
(
(2.14807e-10 1.51069e-10 0)
(2.162e-10 4.26097e-11 0)
(6.25549e-11 -2.60912e-10 0)
(-2.83358e-10 -2.10521e-10 0)
(-9.04346e-11 3.74725e-10 0)
(-6.64939e-10 3.38218e-10 0)
(-2.99764e-10 5.41623e-10 0)
(-2.03364e-09 1.0519e-12 0)
(2.40303e-10 1.68247e-11 0)
(1.98284e-10 -1.45429e-10 0)
(-3.75285e-10 -1.0736e-10 0)
(-3.31207e-10 6.12674e-11 0)
(-7.99627e-11 1.47801e-10 0)
(1.72286e-10 1.33066e-10 0)
(2.55522e-10 5.24974e-11 0)
(1.27381e-10 -2.55159e-11 0)
(-4.1744e-11 -5.54022e-11 0)
(-9.75057e-11 -4.48127e-11 0)
(-5.47051e-11 -3.5062e-11 0)
(5.1459e-12 -1.78774e-11 0)
(-4.51116e-12 3.07004e-10 0)
(-4.8227e-12 5.07369e-11 0)
(-7.84214e-11 -4.65812e-10 0)
(1.55721e-10 -1.89185e-10 0)
(-2.32275e-10 1.77408e-10 0)
(8.01665e-10 6.86162e-10 0)
(1.06899e-09 -1.49311e-10 0)
(1.1069e-09 -2.24087e-10 0)
(3.0117e-10 2.62799e-10 0)
(-1.22931e-11 -3.26414e-10 0)
(-4.76326e-11 -2.35243e-10 0)
(4.4661e-11 4.36692e-11 0)
(3.95941e-11 2.05366e-10 0)
(5.62337e-11 2.19164e-10 0)
(3.89842e-11 9.87833e-11 0)
(-2.57204e-11 -4.44311e-11 0)
(-7.14153e-11 -1.0192e-10 0)
(-5.71627e-11 -8.25631e-11 0)
(2.49591e-12 -5.44431e-11 0)
(5.56045e-11 -2.39029e-11 0)
(-2.00135e-10 6.44562e-11 0)
(-2.54072e-10 3.38133e-11 0)
(-8.76174e-11 -7.07343e-11 0)
(1.93978e-10 9.27065e-11 0)
(8.37282e-11 -3.32743e-10 0)
(2.38446e-10 3.05423e-10 0)
(-1.15158e-09 -7.45385e-10 0)
(7.53495e-10 2.49336e-10 0)
(8.03498e-11 9.09198e-11 0)
(-4.97994e-10 -2.25999e-10 0)
(1.99014e-10 -3.71888e-11 0)
(3.00794e-10 4.43227e-11 0)
(1.89705e-10 8.8871e-11 0)
(5.54611e-11 9.35892e-11 0)
(-1.06279e-10 2.93191e-11 0)
(-1.74335e-10 -4.70608e-11 0)
(-1.14362e-10 -7.36875e-11 0)
(-2.57882e-11 -4.56928e-11 0)
(5.10707e-11 -2.59714e-11 0)
(1.05367e-10 -1.68919e-11 0)
(-9.04939e-11 -1.72491e-10 0)
(-1.04932e-10 3.49869e-11 0)
(-9.23811e-12 2.38856e-10 0)
(-9.21308e-12 1.03218e-10 0)
(1.92734e-10 -5.08991e-11 0)
(-2.00219e-10 -2.77927e-10 0)
(1.14203e-11 1.66182e-10 0)
(6.5632e-10 3.74755e-10 0)
(-7.26353e-10 -3.76444e-10 0)
(-1.05182e-10 7.01301e-11 0)
(3.28863e-10 2.12786e-10 0)
(1.83098e-10 9.17417e-11 0)
(8.8321e-11 2.13234e-11 0)
(-2.40082e-11 -4.08246e-11 0)
(-1.59693e-10 -8.02301e-11 0)
(-1.7173e-10 -5.62379e-11 0)
(-5.81276e-11 -1.30043e-11 0)
(3.97352e-11 3.60799e-11 0)
(6.91077e-11 5.60683e-11 0)
(7.67816e-11 1.94376e-11 0)
(-3.12202e-12 -1.07435e-10 0)
(1.93837e-11 -1.51808e-11 0)
(7.75117e-11 1.6639e-10 0)
(-7.31105e-11 2.21926e-11 0)
(1.27063e-10 2.04586e-10 0)
(-2.45726e-10 -3.4352e-10 0)
(2.96609e-10 2.92993e-10 0)
(-3.18512e-10 -2.72432e-10 0)
(-2.90357e-10 -1.7799e-10 0)
(4.00265e-10 2.60131e-10 0)
(1.75122e-10 1.32745e-10 0)
(-1.39667e-11 -7.90031e-12 0)
(-2.52958e-11 -4.15082e-11 0)
(-1.17396e-10 -9.4982e-11 0)
(-1.47321e-10 -1.00538e-10 0)
(-5.9925e-11 -1.20915e-11 0)
(5.41583e-11 6.57956e-11 0)
(1.03705e-10 1.06206e-10 0)
(5.13393e-11 1.0674e-10 0)
(-1.89345e-11 3.97804e-11 0)
(3.61384e-11 -1.66649e-11 0)
(6.24337e-11 -4.3223e-11 0)
(7.30896e-11 8.26571e-11 0)
(-3.48544e-11 -1.1583e-11 0)
(-7.73287e-12 1.14222e-10 0)
(-1.01744e-10 -5.41782e-11 0)
(1.58516e-10 9.60881e-11 0)
(-2.73885e-10 -2.07e-10 0)
(2.48211e-10 1.91927e-10 0)
(3.01522e-10 1.36089e-10 0)
(-1.43476e-10 -8.17985e-11 0)
(-8.8313e-11 -6.878e-11 0)
(-4.04669e-11 -7.14237e-11 0)
(-1.34198e-10 -9.44957e-11 0)
(-5.08033e-11 -4.49934e-11 0)
(1.14347e-10 5.05149e-11 0)
(1.62776e-10 1.03129e-10 0)
(1.06186e-10 1.12625e-10 0)
(-1.36733e-11 6.60166e-11 0)
(-1.24037e-10 4.59447e-12 0)
(3.4441e-11 3.61446e-11 0)
(6.86427e-11 2.03681e-12 0)
(7.52003e-12 -3.51421e-11 0)
(1.79532e-11 3.02678e-11 0)
(-1.00007e-10 -8.00015e-11 0)
(5.83405e-11 1.05351e-10 0)
(-8.6526e-12 -3.1362e-11 0)
(-2.29712e-12 -2.66644e-11 0)
(2.68345e-10 1.51132e-10 0)
(-1.25483e-10 -1.32583e-10 0)
(-1.76701e-10 -1.11743e-10 0)
(-5.59821e-12 9.25789e-12 0)
(-6.95796e-11 -5.53626e-11 0)
(-9.0545e-11 -4.29654e-11 0)
(7.64826e-11 5.75848e-11 0)
(2.3463e-10 8.94813e-11 0)
(2.17226e-10 5.10896e-11 0)
(7.83143e-11 1.6608e-11 0)
(-7.6304e-11 -4.13228e-11 0)
(-1.71987e-10 -5.044e-11 0)
(9.34255e-12 3.24284e-11 0)
(4.16849e-11 5.85402e-11 0)
(-5.00334e-11 -8.09177e-11 0)
(2.06231e-11 2.21645e-11 0)
(-8.63285e-11 -8.81784e-11 0)
(8.99354e-11 6.70917e-11 0)
(-1.02495e-10 -8.2597e-11 0)
(1.18589e-10 3.40834e-11 0)
(6.43992e-12 -5.69407e-11 0)
(-1.65757e-10 -1.3831e-10 0)
(8.90086e-11 1.92275e-11 0)
(-2.84559e-11 4.42849e-11 0)
(-1.58453e-10 1.60007e-11 0)
(2.36865e-11 9.73416e-11 0)
(1.57628e-10 1.64341e-10 0)
(1.51239e-10 9.97959e-11 0)
(1.08312e-10 -3.71356e-11 0)
(3.07264e-11 -1.3131e-10 0)
(-6.66326e-11 -1.84629e-10 0)
(-1.10165e-10 -1.1136e-10 0)
(1.34808e-11 2.6282e-11 0)
(1.02345e-11 1.88605e-11 0)
(-4.25173e-11 1.05348e-11 0)
(-1.20812e-11 -2.80747e-11 0)
(-3.56334e-12 2.58178e-11 0)
(3.4317e-11 5.14362e-12 0)
(-5.37121e-11 -1.91849e-11 0)
(5.11403e-11 3.63823e-11 0)
(-8.14921e-11 -1.07246e-10 0)
(-3.49127e-12 2.97694e-11 0)
(9.84187e-11 3.08311e-11 0)
(-8.00345e-11 -1.96599e-11 0)
(-6.31579e-11 1.41092e-10 0)
(1.1397e-10 2.25112e-10 0)
(8.38912e-11 1.47746e-10 0)
(-6.31948e-11 5.36777e-11 0)
(-1.01261e-10 -5.07199e-11 0)
(-4.59695e-11 -1.61237e-10 0)
(1.54858e-11 -2.36916e-10 0)
(5.50414e-11 -1.38474e-10 0)
(-9.88247e-12 2.674e-11 0)
(-4.20733e-11 -2.17173e-11 0)
(1.60702e-11 5.76181e-11 0)
(-1.25774e-11 -9.34018e-12 0)
(5.70763e-11 5.76688e-11 0)
(-3.05947e-11 -1.7464e-11 0)
(2.69985e-11 1.66996e-12 0)
(-6.65032e-11 3.79895e-12 0)
(-2.27162e-11 -7.0446e-11 0)
(5.83628e-11 4.83626e-11 0)
(-3.27678e-11 -2.09939e-11 0)
(8.34336e-11 -4.32138e-11 0)
(1.44129e-10 1.29921e-10 0)
(-4.04953e-12 1.58815e-10 0)
(-1.10496e-10 5.23943e-11 0)
(-1.60205e-10 1.63332e-11 0)
(-2.00295e-10 4.48573e-12 0)
(-1.4527e-10 -5.19808e-11 0)
(3.34662e-11 -1.33712e-10 0)
(1.99095e-10 -9.6237e-11 0)
(-1.07061e-11 -1.63313e-11 0)
(-5.393e-11 4.00048e-11 0)
(3.52546e-11 1.03534e-11 0)
(-1.79373e-11 4.9285e-11 0)
(6.70449e-11 -1.02951e-11 0)
(-5.1109e-11 6.48083e-12 0)
(6.064e-11 -3.41246e-11 0)
(-9.02555e-11 -1.75677e-11 0)
(-6.06904e-12 -6.42163e-12 0)
(6.05195e-11 -4.84144e-11 0)
(-9.17341e-11 1.97862e-12 0)
(1.19215e-10 -3.61296e-12 0)
(1.993e-10 -7.37184e-11 0)
(-2.9844e-11 -6.48194e-11 0)
(-1.26292e-10 -7.55673e-12 0)
(-1.20121e-10 2.94292e-11 0)
(-1.72325e-10 4.86936e-11 0)
(-1.61879e-10 8.13326e-11 0)
(8.65398e-12 5.97317e-11 0)
(1.99401e-10 1.2807e-12 0)
(3.18516e-11 -2.87996e-11 0)
(1.23879e-12 3.81859e-11 0)
(-1.27546e-11 3.69667e-12 0)
(-3.70029e-11 8.41386e-11 0)
(2.55715e-11 -3.32187e-11 0)
(-7.47549e-12 2.0574e-11 0)
(1.62932e-11 -2.85389e-11 0)
(1.9641e-11 -4.84076e-11 0)
(-8.39395e-11 7.73414e-11 0)
(3.56753e-11 -8.49292e-11 0)
(-6.24652e-12 7.10743e-12 0)
(-8.04604e-11 7.65062e-11 0)
(3.01882e-11 -1.11523e-10 0)
(1.18013e-10 -1.70274e-10 0)
(6.90844e-11 -7.18279e-11 0)
(-2.17719e-11 2.6926e-13 0)
(-6.86304e-11 5.49207e-11 0)
(-6.78893e-11 1.59381e-10 0)
(-2.40759e-11 1.86355e-10 0)
(5.22669e-11 6.70629e-11 0)
(2.46652e-11 -1.67039e-11 0)
(5.38009e-11 -2.98685e-11 0)
(-4.37024e-11 8.29956e-11 0)
(1.09606e-12 2.33973e-11 0)
(-5.95771e-11 6.59229e-11 0)
(7.42892e-11 -3.87516e-11 0)
(-7.99033e-11 4.97566e-11 0)
(1.64509e-10 -1.02365e-10 0)
(-7.84232e-11 8.86262e-11 0)
(-1.06139e-10 4.93236e-11 0)
(1.24884e-10 -2.81583e-11 0)
(-1.10626e-10 7.16412e-11 0)
(-1.88452e-10 6.09791e-11 0)
(5.23481e-11 -3.94943e-11 0)
(1.63243e-10 -8.42946e-11 0)
(1.50517e-10 -4.96174e-11 0)
(1.37602e-10 1.53348e-11 0)
(6.06817e-11 1.1033e-10 0)
(-7.33455e-11 1.39993e-10 0)
(-1.33347e-10 5.08395e-11 0)
(1.6287e-11 -6.46012e-12 0)
(8.34901e-11 -2.03764e-11 0)
(-1.36369e-11 7.14674e-11 0)
(4.48952e-11 -4.22795e-11 0)
(-1.22044e-10 1.40722e-10 0)
(1.06169e-10 -1.27394e-10 0)
(-9.88735e-11 7.96915e-11 0)
(1.25168e-10 -8.43504e-11 0)
(1.88208e-10 -1.095e-10 0)
(-2.26157e-10 1.59225e-10 0)
(-3.07046e-11 4.71258e-11 0)
(2.77607e-11 1.07787e-11 0)
(-1.48501e-10 1.383e-10 0)
(-1.20944e-10 1.20365e-10 0)
(4.8338e-11 1.37495e-11 0)
(2.02718e-10 -2.93126e-11 0)
(2.39627e-10 -4.93118e-11 0)
(1.23182e-10 -3.64898e-11 0)
(-7.07094e-11 -8.69492e-12 0)
(-2.03878e-10 -7.82434e-12 0)
(-4.01359e-12 3.71903e-11 0)
(5.95446e-11 3.02741e-11 0)
(4.82271e-11 -3.93491e-11 0)
(3.10674e-11 -9.28092e-12 0)
(-6.05509e-11 -1.31109e-11 0)
(-9.16529e-13 -5.64508e-11 0)
(5.47688e-11 -1.11791e-11 0)
(-2.07686e-10 9.38135e-11 0)
(3.83107e-10 -2.93079e-10 0)
(1.03682e-10 -4.34898e-11 0)
(-1.97484e-10 9.22888e-11 0)
(-1.39922e-11 2.62994e-11 0)
(-4.27304e-11 1.02168e-10 0)
(-1.72268e-10 1.63686e-10 0)
(-9.24483e-11 1.21976e-10 0)
(8.61767e-11 3.28325e-11 0)
(1.69064e-10 -7.80251e-11 0)
(1.36869e-10 -1.39499e-10 0)
(7.76254e-12 -1.43514e-10 0)
(-1.52856e-10 -7.43528e-11 0)
(-3.71272e-11 9.81821e-11 0)
(-8.58175e-12 4.02874e-11 0)
(7.29587e-11 -1.22454e-10 0)
(-3.44547e-11 2.99364e-11 0)
(9.36293e-11 -1.94114e-10 0)
(-1.93886e-10 3.29883e-10 0)
(2.62073e-10 -2.3831e-10 0)
(-4.86364e-10 4.1031e-10 0)
(-1.97397e-11 -4.7399e-11 0)
(4.02345e-10 -2.65992e-10 0)
(7.59888e-12 -5.2275e-11 0)
(-2.58256e-11 4.23694e-12 0)
(1.44762e-11 2.89024e-11 0)
(-1.13687e-10 1.12065e-10 0)
(-1.6401e-10 1.45649e-10 0)
(-9.45177e-11 7.78495e-11 0)
(1.07481e-11 -3.13027e-11 0)
(9.11821e-11 -1.11665e-10 0)
(7.03686e-11 -1.64028e-10 0)
(-3.15759e-11 -9.78645e-11 0)
(-6.96785e-11 1.33671e-10 0)
(-1.33845e-10 1.07583e-11 0)
(1.80762e-11 -1.71213e-10 0)
(-4.14643e-11 -6.06246e-12 0)
(2.69351e-10 -3.18151e-11 0)
(-2.71656e-10 5.34392e-10 0)
(3.78504e-10 -4.3584e-10 0)
(3.69434e-11 5.25933e-11 0)
(-7.59803e-10 3.38251e-10 0)
(1.5906e-10 -2.03965e-10 0)
(2.14629e-10 -1.73226e-10 0)
(6.37096e-11 -5.2808e-11 0)
(7.82848e-11 -1.90637e-11 0)
(5.23897e-13 4.61738e-11 0)
(-1.36596e-10 1.0159e-10 0)
(-1.84539e-10 8.92734e-11 0)
(-1.02845e-10 3.8092e-11 0)
(1.59215e-11 -2.15114e-11 0)
(8.1925e-11 -9.65827e-11 0)
(7.62605e-11 -7.32426e-11 0)
(-1.29281e-10 -5.22814e-11 0)
(-2.51192e-10 6.69526e-12 0)
(-3.8489e-11 7.79258e-11 0)
(1.07753e-10 -5.49926e-11 0)
(3.04801e-10 2.62598e-10 0)
(-1.68485e-10 1.68832e-10 0)
(-4.65319e-10 -6.55576e-10 0)
(1.46199e-09 -2.19577e-09 0)
(-5.58182e-10 6.85979e-11 0)
(-3.50893e-10 1.47918e-10 0)
(2.44513e-10 -2.08077e-11 0)
(1.79397e-10 -2.15874e-11 0)
(1.35601e-10 -5.56232e-11 0)
(7.56015e-11 -7.09166e-11 0)
(-6.77005e-11 -2.7049e-11 0)
(-1.58254e-10 4.01775e-11 0)
(-1.29259e-10 7.49235e-11 0)
(-4.34084e-11 6.04902e-11 0)
(5.24837e-11 7.95055e-12 0)
(9.86109e-11 -1.54163e-11 0)
(-7.4128e-12 -2.64611e-10 0)
(-5.12859e-12 5.95425e-13 0)
(-7.65479e-11 4.00103e-10 0)
(1.37767e-10 1.50349e-10 0)
(1.12922e-10 -1.17502e-11 0)
(1.41815e-09 -1.31342e-09 0)
(-2.80154e-09 1.66543e-09 0)
(6.96984e-10 1.39529e-09 0)
(2.2853e-09 -1.30812e-10 0)
(-1.05994e-10 3.63397e-10 0)
(-2.52248e-11 1.42019e-10 0)
(2.50039e-11 -4.33353e-11 0)
(-7.53754e-15 -1.57046e-10 0)
(3.77215e-11 -1.93232e-10 0)
(4.40993e-11 -1.15893e-10 0)
(8.39761e-13 1.52452e-11 0)
(-4.97985e-11 9.39354e-11 0)
(-5.88201e-11 9.61499e-11 0)
(-3.449e-12 6.63111e-11 0)
(4.35514e-11 2.30159e-11 0)
(1.85354e-10 -1.43925e-10 0)
(2.41916e-10 -1.02135e-11 0)
(4.17159e-11 2.2999e-10 0)
(-1.54778e-10 1.82182e-10 0)
(-5.71361e-10 -1.94868e-10 0)
(-8.84578e-10 -1.25262e-09 0)
(2.72701e-09 2.08344e-09 0)
(-1.71251e-09 3.34605e-09 0)
(-1.37434e-09 3.02876e-11 0)
(-2.0362e-11 1.56653e-10 0)
(-3.5484e-10 6.70373e-11 0)
(-2.48624e-10 -5.21841e-11 0)
(-1.0301e-10 -1.07051e-10 0)
(1.01074e-10 -1.05118e-10 0)
(2.24338e-10 -4.83925e-11 0)
(1.66461e-10 2.07031e-11 0)
(1.05162e-11 5.03592e-11 0)
(-8.27688e-11 4.33493e-11 0)
(-6.12851e-11 2.25814e-11 0)
(-2.03353e-11 5.17597e-12 0)
)
;

boundaryField
{
    sides
    {
        type            calculated;
        value           nonuniform List<vector> 
40
(
(1.85354e-10 0 0)
(2.41916e-10 0 0)
(4.17159e-11 0 0)
(-1.54778e-10 0 0)
(-5.71361e-10 0 0)
(-8.84578e-10 0 0)
(2.72701e-09 0 0)
(-1.71251e-09 0 0)
(-1.37434e-09 0 0)
(-2.0362e-11 0 0)
(-3.5484e-10 0 0)
(-2.48624e-10 0 0)
(-1.0301e-10 0 0)
(1.01074e-10 0 0)
(2.24338e-10 0 0)
(1.66461e-10 0 0)
(1.05162e-11 0 0)
(-8.27688e-11 0 0)
(-6.12851e-11 0 0)
(-2.03353e-11 0 0)
(2.14807e-10 0 0)
(2.162e-10 0 0)
(6.25549e-11 0 0)
(-2.83358e-10 0 0)
(-9.04346e-11 0 0)
(-6.64939e-10 0 0)
(-2.99764e-10 0 0)
(-2.03364e-09 0 0)
(2.40303e-10 0 0)
(1.98284e-10 0 0)
(-3.75285e-10 0 0)
(-3.31207e-10 0 0)
(-7.99627e-11 0 0)
(1.72286e-10 0 0)
(2.55522e-10 0 0)
(1.27381e-10 0 0)
(-4.1744e-11 0 0)
(-9.75057e-11 0 0)
(-5.47051e-11 0 0)
(5.1459e-12 0 0)
)
;
    }
    inlet
    {
        type            calculated;
        value           uniform (0 0 0);
    }
    outlet
    {
        type            calculated;
        value           nonuniform List<vector> 
20
(
(5.1459e-12 -1.78774e-11 0)
(5.56045e-11 -2.39029e-11 0)
(1.05367e-10 -1.68919e-11 0)
(7.67816e-11 1.94376e-11 0)
(-1.89345e-11 3.97804e-11 0)
(-1.24037e-10 4.59447e-12 0)
(-1.71987e-10 -5.044e-11 0)
(-1.10165e-10 -1.1136e-10 0)
(5.50414e-11 -1.38474e-10 0)
(1.99095e-10 -9.6237e-11 0)
(1.99401e-10 1.2807e-12 0)
(5.22669e-11 6.70629e-11 0)
(-1.33347e-10 5.08395e-11 0)
(-2.03878e-10 -7.82434e-12 0)
(-1.52856e-10 -7.43528e-11 0)
(-3.15759e-11 -9.78645e-11 0)
(7.62605e-11 -7.32426e-11 0)
(9.86109e-11 -1.54163e-11 0)
(4.35514e-11 2.30159e-11 0)
(-2.03353e-11 5.17597e-12 0)
)
;
    }
    frontAndBack
    {
        type            empty;
    }
}


// ************************************************************************* //
