/*--------------------------------*- C++ -*----------------------------------*\
  =========                 |
  \\      /  F ield         | OpenFOAM: The Open Source CFD Toolbox
   \\    /   O peration     | Website:  https://openfoam.org
    \\  /    A nd           | Version:  7
     \\/     M anipulation  |
\*---------------------------------------------------------------------------*/
FoamFile
{
    version     2.0;
    format      ascii;
    class       volVectorField;
    location    "98";
    object      hU;
}
// * * * * * * * * * * * * * * * * * * * * * * * * * * * * * * * * * * * * * //

dimensions      [0 2 -1 0 0 0 0];

internalField   nonuniform List<vector> 
400
(
(0.001 -8.72582e-09 0)
(0.000999999 -2.37508e-08 0)
(0.001 -3.60239e-08 0)
(0.001 -4.67782e-08 0)
(0.00100001 -5.69089e-08 0)
(0.00100001 -6.7339e-08 0)
(0.00100002 -7.80516e-08 0)
(0.00100003 -8.92646e-08 0)
(0.00100004 -9.99527e-08 0)
(0.00100006 -1.11924e-07 0)
(0.00100007 -1.22642e-07 0)
(0.0010001 -1.36142e-07 0)
(0.00100011 -1.46511e-07 0)
(0.00100015 -1.63344e-07 0)
(0.00100017 -1.72181e-07 0)
(0.00100024 -1.96321e-07 0)
(0.00100026 -2.00818e-07 0)
(0.00100038 -2.43048e-07 0)
(0.00100038 -2.39176e-07 0)
(0.00100061 -3.3184e-07 0)
(0.001 4.00039e-09 0)
(0.001 1.21249e-08 0)
(0.00100001 2.02045e-08 0)
(0.00100001 2.78989e-08 0)
(0.00100002 3.51547e-08 0)
(0.00100002 4.17287e-08 0)
(0.00100003 4.77087e-08 0)
(0.00100004 5.30091e-08 0)
(0.00100005 5.84001e-08 0)
(0.00100007 6.22771e-08 0)
(0.00100008 6.69583e-08 0)
(0.0010001 6.85909e-08 0)
(0.00100012 7.27006e-08 0)
(0.00100016 6.98747e-08 0)
(0.00100018 7.40126e-08 0)
(0.00100023 6.16556e-08 0)
(0.00100026 6.71493e-08 0)
(0.00100035 3.17607e-08 0)
(0.00100037 3.98582e-08 0)
(0.0010005 -5.45803e-08 0)
(0.001 -3.97109e-09 0)
(0.000999999 -1.30303e-08 0)
(0.001 -2.30789e-08 0)
(0.001 -3.36737e-08 0)
(0.00100001 -4.42422e-08 0)
(0.00100001 -5.5042e-08 0)
(0.00100002 -6.56958e-08 0)
(0.00100003 -7.73133e-08 0)
(0.00100004 -8.88686e-08 0)
(0.00100005 -1.02536e-07 0)
(0.00100006 -1.15255e-07 0)
(0.00100009 -1.32402e-07 0)
(0.0010001 -1.46498e-07 0)
(0.00100014 -1.70026e-07 0)
(0.00100016 -1.85144e-07 0)
(0.00100021 -2.21159e-07 0)
(0.00100023 -2.35705e-07 0)
(0.00100031 -2.976e-07 0)
(0.00100033 -3.06224e-07 0)
(0.00100046 -4.22159e-07 0)
(0.001 -1.77566e-10 0)
(0.001 -6.23891e-11 0)
(0.00100001 6.12689e-10 0)
(0.00100001 1.31996e-09 0)
(0.00100001 1.97969e-09 0)
(0.00100002 1.87283e-09 0)
(0.00100003 1.52166e-09 0)
(0.00100004 -3.3755e-10 0)
(0.00100004 -2.40036e-09 0)
(0.00100006 -7.05067e-09 0)
(0.00100007 -1.11999e-08 0)
(0.00100009 -2.04687e-08 0)
(0.00100011 -2.71741e-08 0)
(0.00100013 -4.42821e-08 0)
(0.00100016 -5.35595e-08 0)
(0.00100019 -8.49936e-08 0)
(0.00100022 -9.55056e-08 0)
(0.00100028 -1.54691e-07 0)
(0.0010003 -1.60989e-07 0)
(0.00100039 -2.75847e-07 0)
(0.001 -2.91322e-09 0)
(0.001 -9.24751e-09 0)
(0.001 -1.6307e-08 0)
(0.001 -2.43699e-08 0)
(0.00100001 -3.30476e-08 0)
(0.00100001 -4.27838e-08 0)
(0.00100002 -5.28504e-08 0)
(0.00100002 -6.4554e-08 0)
(0.00100003 -7.64634e-08 0)
(0.00100004 -9.12103e-08 0)
(0.00100005 -1.05601e-07 0)
(0.00100007 -1.254e-07 0)
(0.00100009 -1.42741e-07 0)
(0.00100011 -1.70945e-07 0)
(0.00100013 -1.91241e-07 0)
(0.00100016 -2.34338e-07 0)
(0.00100018 -2.55801e-07 0)
(0.00100024 -3.26573e-07 0)
(0.00100025 -3.41566e-07 0)
(0.00100033 -4.64392e-07 0)
(0.001 -2.56304e-09 0)
(0.001 -7.55604e-09 0)
(0.001 -1.22445e-08 0)
(0.00100001 -1.69889e-08 0)
(0.00100001 -2.17509e-08 0)
(0.00100001 -2.72885e-08 0)
(0.00100002 -3.32113e-08 0)
(0.00100002 -4.08522e-08 0)
(0.00100003 -4.89064e-08 0)
(0.00100004 -6.01338e-08 0)
(0.00100005 -7.12845e-08 0)
(0.00100006 -8.82427e-08 0)
(0.00100008 -1.03196e-07 0)
(0.0010001 -1.29473e-07 0)
(0.00100011 -1.48354e-07 0)
(0.00100014 -1.90303e-07 0)
(0.00100016 -2.11035e-07 0)
(0.0010002 -2.80548e-07 0)
(0.00100021 -2.94596e-07 0)
(0.00100027 -4.14981e-07 0)
(0.001 -2.89402e-09 0)
(0.001 -8.89305e-09 0)
(0.001 -1.52076e-08 0)
(0.001 -2.22505e-08 0)
(0.00100001 -2.99791e-08 0)
(0.00100001 -3.89554e-08 0)
(0.00100001 -4.87344e-08 0)
(0.00100002 -6.04791e-08 0)
(0.00100002 -7.28933e-08 0)
(0.00100003 -8.86785e-08 0)
(0.00100004 -1.0451e-07 0)
(0.00100005 -1.26385e-07 0)
(0.00100006 -1.46335e-07 0)
(0.00100007 -1.7786e-07 0)
(0.00100009 -2.01848e-07 0)
(0.00100011 -2.49234e-07 0)
(0.00100012 -2.74759e-07 0)
(0.00100015 -3.49597e-07 0)
(0.00100016 -3.67296e-07 0)
(0.00100021 -4.9219e-07 0)
(0.001 -3.19511e-09 0)
(0.001 -9.77193e-09 0)
(0.001 -1.65943e-08 0)
(0.001 -2.39841e-08 0)
(0.001 -3.18335e-08 0)
(0.00100001 -4.07099e-08 0)
(0.00100001 -5.01877e-08 0)
(0.00100001 -6.1513e-08 0)
(0.00100002 -7.34901e-08 0)
(0.00100002 -8.88272e-08 0)
(0.00100003 -1.04325e-07 0)
(0.00100004 -1.25979e-07 0)
(0.00100004 -1.45895e-07 0)
(0.00100005 -1.77454e-07 0)
(0.00100006 -2.0175e-07 0)
(0.00100008 -2.49306e-07 0)
(0.00100009 -2.7531e-07 0)
(0.00100011 -3.49879e-07 0)
(0.00100012 -3.67704e-07 0)
(0.00100015 -4.90827e-07 0)
(0.001 -3.37173e-09 0)
(0.001 -1.02716e-08 0)
(0.001 -1.73703e-08 0)
(0.001 -2.50461e-08 0)
(0.001 -3.31896e-08 0)
(0.001 -4.24893e-08 0)
(0.00100001 -5.25184e-08 0)
(0.00100001 -6.46016e-08 0)
(0.00100001 -7.75057e-08 0)
(0.00100001 -9.39573e-08 0)
(0.00100002 -1.10743e-07 0)
(0.00100002 -1.33879e-07 0)
(0.00100003 -1.55343e-07 0)
(0.00100003 -1.88691e-07 0)
(0.00100004 -2.14715e-07 0)
(0.00100005 -2.64255e-07 0)
(0.00100005 -2.91837e-07 0)
(0.00100007 -3.68406e-07 0)
(0.00100007 -3.87263e-07 0)
(0.00100009 -5.12478e-07 0)
(0.001 -3.45141e-09 0)
(0.001 -1.05105e-08 0)
(0.001 -1.776e-08 0)
(0.001 -2.56126e-08 0)
(0.001 -3.39766e-08 0)
(0.001 -4.35545e-08 0)
(0.001 -5.39134e-08 0)
(0.001 -6.63664e-08 0)
(0.001 -7.96577e-08 0)
(0.001 -9.65032e-08 0)
(0.00100001 -1.13696e-07 0)
(0.00100001 -1.3721e-07 0)
(0.00100001 -1.59084e-07 0)
(0.00100001 -1.92795e-07 0)
(0.00100001 -2.19238e-07 0)
(0.00100002 -2.69052e-07 0)
(0.00100002 -2.97028e-07 0)
(0.00100002 -3.73657e-07 0)
(0.00100002 -3.92813e-07 0)
(0.00100003 -5.17457e-07 0)
(0.001 -3.45421e-09 0)
(0.001 -1.05064e-08 0)
(0.001 -1.77668e-08 0)
(0.000999999 -2.56102e-08 0)
(0.000999999 -3.39818e-08 0)
(0.000999999 -4.35501e-08 0)
(0.000999998 -5.39137e-08 0)
(0.000999997 -6.6362e-08 0)
(0.000999996 -7.96515e-08 0)
(0.000999995 -9.65108e-08 0)
(0.000999994 -1.13697e-07 0)
(0.000999993 -1.37213e-07 0)
(0.000999991 -1.591e-07 0)
(0.000999989 -1.92805e-07 0)
(0.000999987 -2.1923e-07 0)
(0.000999984 -2.69033e-07 0)
(0.000999982 -2.97008e-07 0)
(0.000999978 -3.73634e-07 0)
(0.000999977 -3.92793e-07 0)
(0.00099997 -5.17445e-07 0)
(0.001 -3.37658e-09 0)
(0.001 -1.02726e-08 0)
(0.000999999 -1.73781e-08 0)
(0.000999998 -2.50384e-08 0)
(0.000999997 -3.31933e-08 0)
(0.000999996 -4.24806e-08 0)
(0.000999994 -5.2514e-08 0)
(0.000999992 -6.4594e-08 0)
(0.000999989 -7.74857e-08 0)
(0.000999986 -9.39658e-08 0)
(0.000999983 -1.10748e-07 0)
(0.000999978 -1.33878e-07 0)
(0.000999973 -1.55364e-07 0)
(0.000999967 -1.88705e-07 0)
(0.000999961 -2.14702e-07 0)
(0.000999952 -2.64207e-07 0)
(0.000999946 -2.91779e-07 0)
(0.000999934 -3.6833e-07 0)
(0.00099993 -3.87196e-07 0)
(0.000999911 -5.12406e-07 0)
(0.001 -3.2035e-09 0)
(0.001 -9.78395e-09 0)
(0.000999999 -1.65843e-08 0)
(0.000999997 -2.39777e-08 0)
(0.000999996 -3.18189e-08 0)
(0.000999993 -4.07098e-08 0)
(0.000999991 -5.01752e-08 0)
(0.000999987 -6.15148e-08 0)
(0.000999983 -7.34691e-08 0)
(0.000999977 -8.88148e-08 0)
(0.000999971 -1.04335e-07 0)
(0.000999964 -1.25984e-07 0)
(0.000999956 -1.45903e-07 0)
(0.000999945 -1.77472e-07 0)
(0.000999936 -2.01767e-07 0)
(0.000999921 -2.49295e-07 0)
(0.000999911 -2.75287e-07 0)
(0.000999889 -3.49843e-07 0)
(0.000999882 -3.67677e-07 0)
(0.000999852 -4.90804e-07 0)
(0.001 -2.90606e-09 0)
(0.000999999 -8.89946e-09 0)
(0.000999998 -1.51911e-08 0)
(0.000999996 -2.22477e-08 0)
(0.000999994 -2.99553e-08 0)
(0.000999991 -3.89711e-08 0)
(0.000999987 -4.87248e-08 0)
(0.000999982 -6.04854e-08 0)
(0.000999977 -7.28956e-08 0)
(0.000999969 -8.86381e-08 0)
(0.000999962 -1.04487e-07 0)
(0.000999951 -1.26365e-07 0)
(0.000999941 -1.46306e-07 0)
(0.000999925 -1.7783e-07 0)
(0.000999913 -2.01838e-07 0)
(0.000999891 -2.492e-07 0)
(0.000999878 -2.74722e-07 0)
(0.000999847 -3.49513e-07 0)
(0.000999839 -3.67214e-07 0)
(0.000999792 -4.92045e-07 0)
(0.001 -2.56856e-09 0)
(0.000999999 -7.55211e-09 0)
(0.000999997 -1.22447e-08 0)
(0.000999995 -1.69904e-08 0)
(0.000999991 -2.17616e-08 0)
(0.000999987 -2.73089e-08 0)
(0.000999982 -3.32318e-08 0)
(0.000999975 -4.0857e-08 0)
(0.000999968 -4.8956e-08 0)
(0.000999959 -6.01415e-08 0)
(0.000999949 -7.12705e-08 0)
(0.000999935 -8.82344e-08 0)
(0.000999922 -1.03188e-07 0)
(0.000999903 -1.29466e-07 0)
(0.000999886 -1.48373e-07 0)
(0.000999859 -1.90334e-07 0)
(0.000999841 -2.11079e-07 0)
(0.000999802 -2.80568e-07 0)
(0.000999787 -2.94612e-07 0)
(0.000999731 -4.14968e-07 0)
(0.001 -2.89332e-09 0)
(0.001 -9.23641e-09 0)
(0.000999999 -1.63296e-08 0)
(0.000999997 -2.43786e-08 0)
(0.000999994 -3.30814e-08 0)
(0.00099999 -4.27408e-08 0)
(0.000999984 -5.2882e-08 0)
(0.000999977 -6.45054e-08 0)
(0.000999969 -7.64691e-08 0)
(0.000999958 -9.12389e-08 0)
(0.000999946 -1.05593e-07 0)
(0.00099993 -1.25368e-07 0)
(0.000999915 -1.42708e-07 0)
(0.000999891 -1.70893e-07 0)
(0.000999872 -1.91212e-07 0)
(0.000999837 -2.34305e-07 0)
(0.000999817 -2.55798e-07 0)
(0.000999764 -3.2651e-07 0)
(0.000999752 -3.41518e-07 0)
(0.00099967 -4.6424e-07 0)
(0.001 -1.38073e-10 0)
(0.000999998 -5.12252e-11 0)
(0.000999995 5.63051e-10 0)
(0.000999991 1.2765e-09 0)
(0.000999986 1.95886e-09 0)
(0.00099998 1.95243e-09 0)
(0.000999973 1.4846e-09 0)
(0.000999965 -3.48075e-10 0)
(0.000999955 -2.38191e-09 0)
(0.000999943 -7.09302e-09 0)
(0.00099993 -1.12293e-08 0)
(0.000999912 -2.04671e-08 0)
(0.000999894 -2.71656e-08 0)
(0.000999867 -4.42569e-08 0)
(0.000999845 -5.35419e-08 0)
(0.000999805 -8.49745e-08 0)
(0.000999779 -9.55083e-08 0)
(0.00099972 -1.54669e-07 0)
(0.000999699 -1.60977e-07 0)
(0.000999611 -2.75792e-07 0)
(0.001 -3.97667e-09 0)
(0.001 -1.30317e-08 0)
(0.001 -2.30706e-08 0)
(0.000999998 -3.36928e-08 0)
(0.000999995 -4.42143e-08 0)
(0.000999989 -5.49668e-08 0)
(0.000999983 -6.56982e-08 0)
(0.000999974 -7.74545e-08 0)
(0.000999963 -8.88526e-08 0)
(0.00099995 -1.02511e-07 0)
(0.000999936 -1.15265e-07 0)
(0.000999915 -1.32414e-07 0)
(0.000999896 -1.46525e-07 0)
(0.000999864 -1.7003e-07 0)
(0.000999841 -1.85149e-07 0)
(0.000999791 -2.21125e-07 0)
(0.000999767 -2.35708e-07 0)
(0.000999687 -2.97561e-07 0)
(0.000999671 -3.0623e-07 0)
(0.000999539 -4.22084e-07 0)
(0.001 3.95697e-09 0)
(0.000999996 1.20887e-08 0)
(0.000999991 2.02619e-08 0)
(0.000999987 2.79802e-08 0)
(0.000999982 3.51825e-08 0)
(0.000999976 4.14901e-08 0)
(0.000999968 4.78251e-08 0)
(0.000999959 5.31019e-08 0)
(0.000999948 5.84104e-08 0)
(0.000999934 6.23248e-08 0)
(0.000999919 6.6948e-08 0)
(0.000999897 6.85527e-08 0)
(0.000999878 7.26559e-08 0)
(0.000999845 6.98688e-08 0)
(0.000999819 7.4033e-08 0)
(0.000999767 6.17268e-08 0)
(0.000999738 6.72016e-08 0)
(0.000999654 3.18469e-08 0)
(0.000999629 3.9913e-08 0)
(0.000999495 -5.44558e-08 0)
(0.001 -8.74234e-09 0)
(0.001 -2.37782e-08 0)
(0.001 -3.60035e-08 0)
(0.000999997 -4.67123e-08 0)
(0.000999993 -5.69159e-08 0)
(0.000999986 -6.76245e-08 0)
(0.000999979 -7.79631e-08 0)
(0.000999968 -8.90952e-08 0)
(0.000999958 -9.99804e-08 0)
(0.000999942 -1.11952e-07 0)
(0.000999928 -1.22704e-07 0)
(0.000999903 -1.36219e-07 0)
(0.000999886 -1.46589e-07 0)
(0.000999846 -1.63403e-07 0)
(0.000999826 -1.7223e-07 0)
(0.00099976 -1.9636e-07 0)
(0.000999742 -2.00869e-07 0)
(0.000999623 -2.43114e-07 0)
(0.000999618 -2.39253e-07 0)
(0.000999394 -3.31967e-07 0)
)
;

boundaryField
{
    sides
    {
        type            slip;
    }
    inlet
    {
        type            fixedValue;
        value           uniform (0.001 0 0);
    }
    outlet
    {
        type            zeroGradient;
    }
    frontAndBack
    {
        type            empty;
    }
}


// ************************************************************************* //
