/*--------------------------------*- C++ -*----------------------------------*\
  =========                 |
  \\      /  F ield         | OpenFOAM: The Open Source CFD Toolbox
   \\    /   O peration     | Website:  https://openfoam.org
    \\  /    A nd           | Version:  7
     \\/     M anipulation  |
\*---------------------------------------------------------------------------*/
FoamFile
{
    version     2.0;
    format      ascii;
    class       surfaceScalarField;
    location    "98";
    object      phi;
}
// * * * * * * * * * * * * * * * * * * * * * * * * * * * * * * * * * * * * * //

dimensions      [0 4 -1 0 0 0 0];

internalField   nonuniform List<scalar> 
760
(
4.99999e-06
1.0097e-11
4.99999e-06
-4.27357e-12
5.00001e-06
-1.30284e-11
5.00003e-06
-1.97087e-11
5.00005e-06
-2.64539e-11
5.00009e-06
-3.45908e-11
5.00013e-06
-4.70139e-11
5.00018e-06
-5.39713e-11
5.00025e-06
-6.27886e-11
5.00032e-06
-7.81919e-11
5.00041e-06
-9.00944e-11
5.00053e-06
-1.13908e-10
5.00066e-06
-1.26794e-10
5.00082e-06
-1.67769e-10
5.001e-06
-1.78086e-10
5.00126e-06
-2.56958e-10
5.00151e-06
-2.56285e-10
5.00195e-06
-4.31811e-10
5.00236e-06
-4.14169e-10
-8.91588e-10
5.00002e-06
-1.17095e-11
5.00004e-06
-1.89003e-11
5.00005e-06
-2.93426e-11
5.00008e-06
-4.19274e-11
5.0001e-06
-5.45859e-11
5.00014e-06
-6.89114e-11
5.00018e-06
-8.50386e-11
5.00023e-06
-1.04728e-10
5.00029e-06
-1.23608e-10
5.00037e-06
-1.5327e-10
5.00045e-06
-1.77039e-10
5.00056e-06
-2.21989e-10
5.00069e-06
-2.50215e-10
5.00084e-06
-3.24089e-10
5.00102e-06
-3.53967e-10
5.00125e-06
-4.86245e-10
5.0015e-06
-5.09384e-10
5.00184e-06
-7.68029e-10
5.00218e-06
-7.59996e-10
-1.262e-09
4.99999e-06
-4.73236e-12
4.99999e-06
-2.03612e-11
5e-06
-3.75827e-11
5.00002e-06
-5.66481e-11
5.00004e-06
-7.66428e-11
5.00007e-06
-9.92456e-11
5.00011e-06
-1.22955e-10
5.00016e-06
-1.52098e-10
5.00021e-06
-1.82625e-10
5.00029e-06
-2.23859e-10
5.00037e-06
-2.62264e-10
5.00047e-06
-3.23216e-10
5.00059e-06
-3.71872e-10
5.00074e-06
-4.67508e-10
5.00091e-06
-5.25797e-10
5.00111e-06
-6.86887e-10
5.00135e-06
-7.48078e-10
5.00162e-06
-1.0413e-09
5.00194e-06
-1.08332e-09
-1.68954e-09
5.00001e-06
-1.27237e-11
5.00002e-06
-3.33701e-11
5.00004e-06
-5.43064e-11
5.00006e-06
-7.75511e-11
5.00008e-06
-1.0192e-10
5.00011e-06
-1.30733e-10
5.00015e-06
-1.60231e-10
5.0002e-06
-1.98077e-10
5.00025e-06
-2.36395e-10
5.00032e-06
-2.88737e-10
5.00039e-06
-3.38297e-10
5.00048e-06
-4.15232e-10
5.00059e-06
-4.78291e-10
5.00072e-06
-5.96406e-10
5.00087e-06
-6.72801e-10
5.00105e-06
-8.65136e-10
5.00124e-06
-9.47024e-10
5.00148e-06
-1.28013e-09
5.00173e-06
-1.33159e-09
-1.89803e-09
5e-06
-1.16571e-11
5e-06
-3.65129e-11
5.00001e-06
-6.20739e-11
5.00002e-06
-9.01572e-11
5.00004e-06
-1.19965e-10
5.00006e-06
-1.5466e-10
5.0001e-06
-1.91413e-10
5.00013e-06
-2.36612e-10
5.00018e-06
-2.8357e-10
5.00024e-06
-3.45432e-10
5.00031e-06
-4.06722e-10
5.00039e-06
-4.95569e-10
5.00048e-06
-5.74067e-10
5.00059e-06
-7.07161e-10
5.00072e-06
-8.03422e-10
5.00087e-06
-1.01256e-09
5.00104e-06
-1.1166e-09
5.00122e-06
-1.46174e-09
5.00142e-06
-1.53304e-09
-2.16286e-09
5e-06
-1.38584e-11
5.00001e-06
-4.31875e-11
5.00002e-06
-7.29785e-11
5.00003e-06
-1.05066e-10
5.00005e-06
-1.39039e-10
5.00008e-06
-1.78052e-10
5.00011e-06
-2.19985e-10
5.00014e-06
-2.71036e-10
5.00018e-06
-3.24571e-10
5.00023e-06
-3.94614e-10
5.00029e-06
-4.64243e-10
5.00036e-06
-5.63723e-10
5.00043e-06
-6.52897e-10
5.00053e-06
-7.99838e-10
5.00063e-06
-9.08543e-10
5.00075e-06
-1.13443e-09
5.00089e-06
-1.25129e-09
5.00104e-06
-1.61613e-09
5.00121e-06
-1.69756e-09
-2.29358e-09
5e-06
-1.56517e-11
5.00001e-06
-4.76056e-11
5.00001e-06
-8.02934e-11
5.00002e-06
-1.15094e-10
5.00004e-06
-1.52372e-10
5.00005e-06
-1.95156e-10
5.00008e-06
-2.41477e-10
5.0001e-06
-2.97327e-10
5.00013e-06
-3.56645e-10
5.00017e-06
-4.32832e-10
5.00022e-06
-5.09655e-10
5.00027e-06
-6.17009e-10
5.00033e-06
-7.1548e-10
5.00041e-06
-8.71868e-10
5.00049e-06
-9.91643e-10
5.00058e-06
-1.22776e-09
5.00069e-06
-1.35579e-09
5.0008e-06
-1.72688e-09
5.00091e-06
-1.81253e-09
-2.44219e-09
5e-06
-1.67356e-11
5e-06
-5.06294e-11
5.00001e-06
-8.52725e-11
5.00002e-06
-1.22629e-10
5.00003e-06
-1.62492e-10
5.00004e-06
-2.08273e-10
5.00006e-06
-2.57749e-10
5.00008e-06
-3.17234e-10
5.0001e-06
-3.80552e-10
5.00013e-06
-4.61176e-10
5.00016e-06
-5.43054e-10
5.0002e-06
-6.56239e-10
5.00025e-06
-7.60787e-10
5.0003e-06
-9.24176e-10
5.00036e-06
-1.05087e-09
5.00042e-06
-1.29455e-09
5.0005e-06
-1.42893e-09
5.00058e-06
-1.80769e-09
5.00067e-06
-1.90088e-09
-2.5163e-09
5e-06
-1.73151e-11
5e-06
-5.25085e-11
5.00001e-06
-8.83971e-11
5.00001e-06
-1.27351e-10
5.00002e-06
-1.68823e-10
5.00002e-06
-2.16347e-10
5.00003e-06
-2.67625e-10
5.00005e-06
-3.29239e-10
5.00006e-06
-3.94891e-10
5.00008e-06
-4.78198e-10
5.0001e-06
-5.63177e-10
5.00012e-06
-6.79739e-10
5.00015e-06
-7.8795e-10
5.00018e-06
-9.5541e-10
5.00022e-06
-1.08633e-09
5.00026e-06
-1.33426e-09
5.0003e-06
-1.47266e-09
5.00035e-06
-1.85478e-09
5.00039e-06
-1.94824e-09
-2.57227e-09
5e-06
-1.75149e-11
5e-06
-5.31225e-11
5e-06
-8.95214e-11
5e-06
-1.2895e-10
5.00001e-06
-1.70986e-10
5.00001e-06
-2.19026e-10
5.00001e-06
-2.70924e-10
5.00002e-06
-3.33216e-10
5.00002e-06
-3.99658e-10
5.00003e-06
-4.83924e-10
5.00003e-06
-5.69916e-10
5.00004e-06
-6.87601e-10
5.00005e-06
-7.9713e-10
5.00006e-06
-9.6587e-10
5.00007e-06
-1.09817e-09
5.00009e-06
-1.34736e-09
5.0001e-06
-1.48709e-09
5.00012e-06
-1.86999e-09
5.00013e-06
-1.96533e-09
-2.58851e-09
5e-06
-1.73422e-11
5e-06
-5.24684e-11
5e-06
-8.84697e-11
5e-06
-1.27325e-10
4.99999e-06
-1.68873e-10
4.99999e-06
-2.16302e-10
4.99999e-06
-2.67627e-10
4.99998e-06
-3.29198e-10
4.99998e-06
-3.94833e-10
4.99997e-06
-4.78274e-10
4.99997e-06
-5.63188e-10
4.99996e-06
-6.79763e-10
4.99995e-06
-7.88113e-10
4.99994e-06
-9.55507e-10
4.99993e-06
-1.08626e-09
4.99991e-06
-1.33407e-09
4.9999e-06
-1.47246e-09
4.99988e-06
-1.85454e-09
4.99987e-06
-1.94803e-09
-2.57206e-09
5e-06
-1.67559e-11
5e-06
-5.06865e-11
4.99999e-06
-8.52828e-11
4.99999e-06
-1.22573e-10
4.99998e-06
-1.62473e-10
4.99998e-06
-2.08226e-10
4.99997e-06
-2.57698e-10
4.99995e-06
-3.172e-10
4.99994e-06
-3.80417e-10
4.99992e-06
-4.61188e-10
4.9999e-06
-5.43101e-10
4.99988e-06
-6.56225e-10
4.99985e-06
-7.60854e-10
4.99982e-06
-9.24262e-10
4.99978e-06
-1.05087e-09
4.99974e-06
-1.29435e-09
4.9997e-06
-1.42865e-09
4.99965e-06
-1.80732e-09
4.99961e-06
-1.90056e-09
-2.51601e-09
5e-06
-1.57189e-11
5e-06
-4.76771e-11
4.99999e-06
-8.01816e-11
4.99998e-06
-1.15088e-10
4.99997e-06
-1.52239e-10
4.99996e-06
-1.95195e-10
4.99994e-06
-2.41393e-10
4.99992e-06
-2.97359e-10
4.9999e-06
-3.56553e-10
4.99987e-06
-4.32658e-10
4.99984e-06
-5.09657e-10
4.9998e-06
-6.16999e-10
4.99975e-06
-7.15421e-10
4.9997e-06
-8.7185e-10
4.99964e-06
-9.91697e-10
4.99958e-06
-1.22768e-09
4.9995e-06
-1.35566e-09
4.99942e-06
-1.7266e-09
4.99933e-06
-1.8123e-09
-2.44179e-09
5e-06
-1.39147e-11
4.99999e-06
-4.31758e-11
4.99999e-06
-7.2931e-11
4.99998e-06
-1.05059e-10
4.99996e-06
-1.38952e-10
4.99995e-06
-1.78214e-10
4.99992e-06
-2.20015e-10
4.9999e-06
-2.71111e-10
4.99987e-06
-3.24752e-10
4.99983e-06
-3.94469e-10
4.99978e-06
-4.64088e-10
4.99973e-06
-5.63633e-10
4.99967e-06
-6.52784e-10
4.99959e-06
-7.99727e-10
4.99951e-06
-9.08563e-10
4.99942e-06
-1.13443e-09
4.99931e-06
-1.25132e-09
4.9992e-06
-1.61598e-09
4.99909e-06
-1.69739e-09
-2.29317e-09
5e-06
-1.16201e-11
4.99999e-06
-3.64452e-11
4.99998e-06
-6.21357e-11
4.99997e-06
-9.01797e-11
4.99995e-06
-1.20185e-10
4.99992e-06
-1.54638e-10
4.99989e-06
-1.91523e-10
4.99986e-06
-2.3647e-10
4.99982e-06
-2.83807e-10
4.99977e-06
-3.45595e-10
4.99971e-06
-4.06657e-10
4.99964e-06
-4.95443e-10
4.99957e-06
-5.73954e-10
4.99947e-06
-7.07002e-10
4.99937e-06
-8.03391e-10
4.99925e-06
-1.01257e-09
4.99911e-06
-1.11672e-09
4.99896e-06
-1.46165e-09
4.99879e-06
-1.53298e-09
-2.16245e-09
5e-06
-1.25635e-11
5e-06
-3.33109e-11
4.99999e-06
-5.44636e-11
4.99998e-06
-7.76917e-11
4.99996e-06
-1.02144e-10
4.99994e-06
-1.30253e-10
4.9999e-06
-1.60507e-10
4.99987e-06
-1.97772e-10
4.99982e-06
-2.36248e-10
4.99976e-06
-2.88941e-10
4.99969e-06
-3.38395e-10
4.99961e-06
-4.15168e-10
4.99952e-06
-4.78199e-10
4.99941e-06
-5.96204e-10
4.99928e-06
-6.72674e-10
4.99913e-06
-8.6501e-10
4.99896e-06
-9.47047e-10
4.99878e-06
-1.27996e-09
4.99858e-06
-1.33148e-09
-1.89755e-09
4.99999e-06
-4.60358e-12
4.99998e-06
-2.03919e-11
4.99996e-06
-3.77011e-11
4.99994e-06
-5.67603e-11
4.99992e-06
-7.6481e-11
4.99988e-06
-9.90546e-11
4.99985e-06
-1.23078e-10
4.9998e-06
-1.52893e-10
4.99975e-06
-1.82404e-10
4.99968e-06
-2.23876e-10
4.99961e-06
-2.62441e-10
4.99952e-06
-3.23304e-10
4.99941e-06
-3.71925e-10
4.99928e-06
-4.67425e-10
4.99913e-06
-5.25722e-10
4.99896e-06
-6.86717e-10
4.99876e-06
-7.48052e-10
4.99852e-06
-1.0411e-09
4.99827e-06
-1.08327e-09
-1.68917e-09
5.00001e-06
-1.18397e-11
5.00001e-06
-1.90371e-11
5e-06
-2.9203e-11
4.99998e-06
-4.1724e-11
4.99996e-06
-5.40861e-11
4.99993e-06
-6.97071e-11
4.99989e-06
-8.38483e-11
4.99984e-06
-1.05108e-10
4.99978e-06
-1.23802e-10
4.99971e-06
-1.53109e-10
4.99963e-06
-1.77065e-10
4.99953e-06
-2.22072e-10
4.99941e-06
-2.50362e-10
4.99926e-06
-3.24107e-10
4.99909e-06
-3.53957e-10
4.99889e-06
-4.86005e-10
4.99865e-06
-5.09277e-10
4.99838e-06
-7.67707e-10
4.99805e-06
-7.59861e-10
-1.26152e-09
4.99998e-06
9.88664e-12
4.99996e-06
-4.41334e-12
4.99995e-06
-1.27202e-11
4.99993e-06
-1.93304e-11
4.9999e-06
-2.686e-11
4.99986e-06
-3.12414e-11
4.99982e-06
-3.3965e-11
4.99977e-06
-4.47961e-11
4.99971e-06
-6.24067e-11
4.99963e-06
-7.81132e-11
4.99955e-06
-9.01663e-11
4.99944e-06
-1.14106e-10
4.99932e-06
-1.27063e-10
4.99916e-06
-1.67964e-10
4.99898e-06
-1.782e-10
4.99875e-06
-2.56909e-10
4.9985e-06
-2.56276e-10
4.99817e-06
-4.31744e-10
4.99782e-06
-4.142e-10
-8.91581e-10
5.00001e-06
5.00001e-06
4.99999e-06
4.99997e-06
4.99995e-06
4.99991e-06
4.99987e-06
4.99982e-06
4.99975e-06
4.99968e-06
4.99959e-06
4.99947e-06
4.99934e-06
4.99918e-06
4.999e-06
4.99874e-06
4.99848e-06
4.99805e-06
4.99764e-06
)
;

boundaryField
{
    sides
    {
        type            calculated;
        value           uniform 0;
    }
    inlet
    {
        type            calculated;
        value           nonuniform List<scalar> 
20
(
-5e-06
-5e-06
-5e-06
-5e-06
-5e-06
-5e-06
-5e-06
-5e-06
-5e-06
-5e-06
-5e-06
-5e-06
-5e-06
-5e-06
-5e-06
-5e-06
-5e-06
-5e-06
-5e-06
-5e-06
)
;
    }
    outlet
    {
        type            calculated;
        value           nonuniform List<scalar> 
20
(
5.00325e-06
5.00255e-06
5.00237e-06
5.00194e-06
5.00169e-06
5.00134e-06
5.00106e-06
5.00074e-06
5.00045e-06
5.00015e-06
4.99985e-06
4.99955e-06
4.99926e-06
4.99894e-06
4.99866e-06
4.99831e-06
4.99806e-06
4.99763e-06
4.99745e-06
4.99675e-06
)
;
    }
    frontAndBack
    {
        type            empty;
        value           nonuniform 0();
    }
}


// ************************************************************************* //
