/*--------------------------------*- C++ -*----------------------------------*\
  =========                 |
  \\      /  F ield         | OpenFOAM: The Open Source CFD Toolbox
   \\    /   O peration     | Website:  https://openfoam.org
    \\  /    A nd           | Version:  7
     \\/     M anipulation  |
\*---------------------------------------------------------------------------*/
FoamFile
{
    version     2.0;
    format      ascii;
    class       surfaceScalarField;
    location    "98";
    object      phi_0;
}
// * * * * * * * * * * * * * * * * * * * * * * * * * * * * * * * * * * * * * //

dimensions      [0 4 -1 0 0 0 0];

internalField   nonuniform List<scalar> 
760
(
4.99999e-06
9.96227e-12
4.99999e-06
-4.23099e-12
5.00001e-06
-1.28496e-11
5.00003e-06
-1.97301e-11
5.00005e-06
-2.67444e-11
5.00009e-06
-3.45013e-11
5.00013e-06
-3.84676e-11
5.00018e-06
-4.95501e-11
5.00025e-06
-6.24048e-11
5.00032e-06
-7.81423e-11
5.00041e-06
-8.99996e-11
5.00053e-06
-1.13865e-10
5.00066e-06
-1.26817e-10
5.00082e-06
-1.67831e-10
5.001e-06
-1.78144e-10
5.00126e-06
-2.5698e-10
5.00151e-06
-2.56271e-10
5.00195e-06
-4.31779e-10
5.00236e-06
-4.14135e-10
-8.9157e-10
5.00002e-06
-1.18518e-11
5.00004e-06
-1.89045e-11
5.00005e-06
-2.91975e-11
5.00007e-06
-4.18428e-11
5.0001e-06
-5.45886e-11
5.00014e-06
-6.93008e-11
5.00018e-06
-8.44339e-11
5.00023e-06
-1.04412e-10
5.00029e-06
-1.23777e-10
5.00037e-06
-1.53218e-10
5.00045e-06
-1.76954e-10
5.00056e-06
-2.21977e-10
5.00069e-06
-2.50255e-10
5.00084e-06
-3.24147e-10
5.00102e-06
-3.54013e-10
5.00125e-06
-4.86256e-10
5.0015e-06
-5.0936e-10
5.00184e-06
-7.67994e-10
5.00218e-06
-7.59963e-10
-1.26198e-09
4.99999e-06
-4.72798e-12
4.99999e-06
-2.03962e-11
5e-06
-3.75745e-11
5.00002e-06
-5.66474e-11
5.00004e-06
-7.65025e-11
5.00007e-06
-9.95114e-11
5.00011e-06
-1.22583e-10
5.00016e-06
-1.5242e-10
5.00021e-06
-1.82716e-10
5.00029e-06
-2.23738e-10
5.00037e-06
-2.62273e-10
5.00047e-06
-3.23277e-10
5.00059e-06
-3.71927e-10
5.00074e-06
-4.67539e-10
5.00091e-06
-5.25798e-10
5.00111e-06
-6.86864e-10
5.00135e-06
-7.48048e-10
5.00162e-06
-1.04128e-09
5.00194e-06
-1.08332e-09
-1.68954e-09
5.00001e-06
-1.26593e-11
5.00002e-06
-3.33928e-11
5.00004e-06
-5.43605e-11
5.00006e-06
-7.76116e-11
5.00008e-06
-1.01866e-10
5.00012e-06
-1.30645e-10
5.00015e-06
-1.60303e-10
5.0002e-06
-1.98248e-10
5.00025e-06
-2.36187e-10
5.00032e-06
-2.88727e-10
5.00039e-06
-3.38401e-10
5.00048e-06
-4.15291e-10
5.00059e-06
-4.78311e-10
5.00072e-06
-5.96396e-10
5.00087e-06
-6.72763e-10
5.00105e-06
-8.65101e-10
5.00124e-06
-9.47014e-10
5.00148e-06
-1.28016e-09
5.00173e-06
-1.33164e-09
-1.89805e-09
5e-06
-1.16067e-11
5e-06
-3.65061e-11
5.00001e-06
-6.21404e-11
5.00002e-06
-9.01847e-11
5.00004e-06
-1.20072e-10
5.00006e-06
-1.54497e-10
5.0001e-06
-1.9149e-10
5.00013e-06
-2.36471e-10
5.00018e-06
-2.83491e-10
5.00024e-06
-3.45552e-10
5.00031e-06
-4.06797e-10
5.00039e-06
-4.95562e-10
5.00048e-06
-5.74037e-10
5.00059e-06
-7.07117e-10
5.00072e-06
-8.0337e-10
5.00087e-06
-1.01253e-09
5.00104e-06
-1.11661e-09
5.00122e-06
-1.4618e-09
5.00142e-06
-1.5331e-09
-2.16288e-09
5e-06
-1.38504e-11
5.00001e-06
-4.31686e-11
5.00002e-06
-7.30276e-11
5.00003e-06
-1.05045e-10
5.00005e-06
-1.39101e-10
5.00008e-06
-1.78044e-10
5.00011e-06
-2.20028e-10
5.00014e-06
-2.70949e-10
5.00018e-06
-3.24658e-10
5.00023e-06
-3.94681e-10
5.00029e-06
-4.64191e-10
5.00036e-06
-5.63684e-10
5.00043e-06
-6.52864e-10
5.00053e-06
-7.99795e-10
5.00063e-06
-9.08521e-10
5.00075e-06
-1.13444e-09
5.00089e-06
-1.25132e-09
5.00104e-06
-1.61618e-09
5.00121e-06
-1.69758e-09
-2.29357e-09
5e-06
-1.56775e-11
5.00001e-06
-4.75966e-11
5.00001e-06
-8.02774e-11
5.00002e-06
-1.15108e-10
5.00004e-06
-1.52329e-10
5.00005e-06
-1.95191e-10
5.00008e-06
-2.41467e-10
5.0001e-06
-2.9731e-10
5.00013e-06
-3.56695e-10
5.00017e-06
-4.32761e-10
5.00022e-06
-5.09592e-10
5.00027e-06
-6.17027e-10
5.00033e-06
-7.15482e-10
5.00041e-06
-8.71862e-10
5.00049e-06
-9.91682e-10
5.00058e-06
-1.22782e-09
5.00069e-06
-1.35582e-09
5.0008e-06
-1.72686e-09
5.00091e-06
-1.81248e-09
-2.44215e-09
5e-06
-1.6753e-11
5e-06
-5.06577e-11
5.00001e-06
-8.52346e-11
5.00002e-06
-1.22634e-10
5.00003e-06
-1.62466e-10
5.00004e-06
-2.08302e-10
5.00006e-06
-2.57723e-10
5.00008e-06
-3.17263e-10
5.0001e-06
-3.8053e-10
5.00013e-06
-4.61135e-10
5.00016e-06
-5.43068e-10
5.0002e-06
-6.56253e-10
5.00025e-06
-7.60814e-10
5.0003e-06
-9.24248e-10
5.00036e-06
-1.05097e-09
5.00042e-06
-1.29463e-09
5.0005e-06
-1.42894e-09
5.00058e-06
-1.80762e-09
5.00067e-06
-1.90076e-09
-2.51623e-09
5e-06
-1.73258e-11
5e-06
-5.25227e-11
5.00001e-06
-8.84034e-11
5.00001e-06
-1.27343e-10
5.00002e-06
-1.68833e-10
5.00002e-06
-2.16358e-10
5.00003e-06
-2.67612e-10
5.00005e-06
-3.29268e-10
5.00006e-06
-3.94852e-10
5.00008e-06
-4.7821e-10
5.0001e-06
-5.63189e-10
5.00012e-06
-6.79707e-10
5.00015e-06
-7.88006e-10
5.00018e-06
-9.55531e-10
5.00022e-06
-1.08641e-09
5.00026e-06
-1.3343e-09
5.0003e-06
-1.47267e-09
5.00035e-06
-1.85474e-09
5.00039e-06
-1.94814e-09
-2.57221e-09
5e-06
-1.75157e-11
5e-06
-5.31305e-11
5e-06
-8.95376e-11
5e-06
-1.28963e-10
5.00001e-06
-1.70995e-10
5.00001e-06
-2.19025e-10
5.00001e-06
-2.7091e-10
5.00002e-06
-3.33213e-10
5.00002e-06
-3.99637e-10
5.00003e-06
-4.83921e-10
5.00003e-06
-5.69913e-10
5.00004e-06
-6.87582e-10
5.00005e-06
-7.97136e-10
5.00006e-06
-9.65892e-10
5.00007e-06
-1.09817e-09
5.00009e-06
-1.34736e-09
5.0001e-06
-1.4871e-09
5.00012e-06
-1.87e-09
5.00013e-06
-1.96531e-09
-2.58848e-09
5e-06
-1.73312e-11
5e-06
-5.24791e-11
5e-06
-8.84809e-11
5e-06
-1.27362e-10
4.99999e-06
-1.68869e-10
4.99999e-06
-2.163e-10
4.99999e-06
-2.67617e-10
4.99998e-06
-3.29163e-10
4.99998e-06
-3.9485e-10
4.99997e-06
-4.78246e-10
4.99997e-06
-5.63185e-10
4.99996e-06
-6.79798e-10
4.99995e-06
-7.8807e-10
4.99994e-06
-9.55416e-10
4.99993e-06
-1.08621e-09
4.99991e-06
-1.33405e-09
4.9999e-06
-1.47246e-09
4.99988e-06
-1.85458e-09
4.99987e-06
-1.9481e-09
-2.57209e-09
5e-06
-1.67505e-11
5e-06
-5.06704e-11
4.99999e-06
-8.53254e-11
4.99999e-06
-1.22593e-10
4.99998e-06
-1.62497e-10
4.99998e-06
-2.08209e-10
4.99997e-06
-2.57717e-10
4.99995e-06
-3.17146e-10
4.99994e-06
-3.80447e-10
4.99992e-06
-4.61192e-10
4.9999e-06
-5.43083e-10
4.99988e-06
-6.56269e-10
4.99985e-06
-7.60868e-10
4.99982e-06
-9.24215e-10
4.99978e-06
-1.05081e-09
4.99974e-06
-1.29431e-09
4.9997e-06
-1.42864e-09
4.99965e-06
-1.80738e-09
4.99961e-06
-1.90065e-09
-2.51605e-09
5e-06
-1.5708e-11
5e-06
-4.76789e-11
4.99999e-06
-8.02217e-11
4.99998e-06
-1.15067e-10
4.99997e-06
-1.52304e-10
4.99996e-06
-1.95154e-10
4.99994e-06
-2.41427e-10
4.99992e-06
-2.97326e-10
4.9999e-06
-3.56522e-10
4.99987e-06
-4.3273e-10
4.99984e-06
-5.09682e-10
4.9998e-06
-6.17e-10
4.99975e-06
-7.1547e-10
4.9997e-06
-8.71905e-10
4.99964e-06
-9.91703e-10
4.99958e-06
-1.22765e-09
4.9995e-06
-1.35564e-09
4.99942e-06
-1.72662e-09
4.99933e-06
-1.81233e-09
-2.4418e-09
5e-06
-1.39291e-11
4.99999e-06
-4.31927e-11
4.99999e-06
-7.28991e-11
4.99998e-06
-1.05073e-10
4.99996e-06
-1.38953e-10
4.99995e-06
-1.78185e-10
4.99992e-06
-2.2e-10
4.9999e-06
-2.71161e-10
4.99987e-06
-3.24622e-10
4.99983e-06
-3.94452e-10
4.99978e-06
-4.64156e-10
4.99973e-06
-5.63654e-10
4.99967e-06
-6.5283e-10
4.99959e-06
-7.99812e-10
4.99951e-06
-9.08633e-10
4.99942e-06
-1.13446e-09
4.99931e-06
-1.25131e-09
4.9992e-06
-1.61594e-09
4.99909e-06
-1.69734e-09
-2.29315e-09
5e-06
-1.1665e-11
4.99999e-06
-3.64631e-11
4.99998e-06
-6.20828e-11
4.99997e-06
-9.01911e-11
4.99995e-06
-1.20072e-10
4.99992e-06
-1.54786e-10
4.99989e-06
-1.91472e-10
4.99986e-06
-2.36635e-10
4.99982e-06
-2.83796e-10
4.99977e-06
-3.4546e-10
4.99971e-06
-4.06627e-10
4.99964e-06
-4.95458e-10
4.99957e-06
-5.73981e-10
4.99947e-06
-7.07061e-10
4.99937e-06
-8.03472e-10
4.99925e-06
-1.01263e-09
4.99911e-06
-1.11672e-09
4.99896e-06
-1.46159e-09
4.99879e-06
-1.53289e-09
-2.1624e-09
5e-06
-1.26109e-11
5e-06
-3.33136e-11
4.99999e-06
-5.4432e-11
4.99998e-06
-7.76724e-11
4.99996e-06
-1.02145e-10
4.99994e-06
-1.30465e-10
4.9999e-06
-1.60323e-10
4.99987e-06
-1.97825e-10
4.99982e-06
-2.36422e-10
4.99976e-06
-2.88878e-10
4.99969e-06
-3.38301e-10
4.99961e-06
-4.15133e-10
4.99952e-06
-4.78186e-10
4.99941e-06
-5.96216e-10
4.99928e-06
-6.72722e-10
4.99913e-06
-8.65068e-10
4.99896e-06
-9.47074e-10
4.99878e-06
-1.27993e-09
4.99858e-06
-1.33141e-09
-1.8975e-09
4.99999e-06
-4.60678e-12
4.99998e-06
-2.03808e-11
4.99996e-06
-3.77255e-11
4.99994e-06
-5.67696e-11
4.99992e-06
-7.66247e-11
4.99988e-06
-9.89267e-11
4.99985e-06
-1.23204e-10
4.9998e-06
-1.52154e-10
4.99975e-06
-1.82468e-10
4.99968e-06
-2.23957e-10
4.99961e-06
-2.62396e-10
4.99952e-06
-3.23255e-10
4.99941e-06
-3.71886e-10
4.99928e-06
-4.674e-10
4.99913e-06
-5.25722e-10
4.99896e-06
-6.86741e-10
4.99876e-06
-7.48085e-10
4.99852e-06
-1.04112e-09
4.99827e-06
-1.08325e-09
-1.68915e-09
5.00001e-06
-1.17768e-11
5.00001e-06
-1.90488e-11
5e-06
-2.93335e-11
4.99998e-06
-4.17896e-11
4.99996e-06
-5.4188e-11
4.99993e-06
-6.89602e-11
4.99989e-06
-8.48289e-11
4.99984e-06
-1.05655e-10
4.99979e-06
-1.23541e-10
4.99971e-06
-1.53187e-10
4.99963e-06
-1.77118e-10
4.99953e-06
-2.22072e-10
4.99941e-06
-2.50336e-10
4.99926e-06
-3.24065e-10
4.99909e-06
-3.53913e-10
4.99889e-06
-4.85985e-10
4.99865e-06
-5.09294e-10
4.99838e-06
-7.67744e-10
4.99805e-06
-7.59891e-10
-1.26153e-09
4.99998e-06
9.98808e-12
4.99996e-06
-4.45427e-12
4.99995e-06
-1.28717e-11
4.99992e-06
-1.93279e-11
4.9999e-06
-2.65577e-11
4.99986e-06
-3.77703e-11
4.99982e-06
-4.3862e-11
4.99977e-06
-5.41419e-11
4.99971e-06
-6.2573e-11
4.99963e-06
-7.8193e-11
4.99955e-06
-9.0245e-11
4.99944e-06
-1.14136e-10
4.99932e-06
-1.27048e-10
4.99916e-06
-1.67916e-10
4.99898e-06
-1.78147e-10
4.99875e-06
-2.56879e-10
4.9985e-06
-2.56282e-10
4.99817e-06
-4.31775e-10
4.99782e-06
-4.14235e-10
-8.91597e-10
5.00001e-06
5.00001e-06
4.99999e-06
4.99997e-06
4.99995e-06
4.99991e-06
4.99987e-06
4.99982e-06
4.99975e-06
4.99968e-06
4.99959e-06
4.99947e-06
4.99934e-06
4.99918e-06
4.999e-06
4.99874e-06
4.99848e-06
4.99805e-06
4.99764e-06
)
;

boundaryField
{
    sides
    {
        type            calculated;
        value           uniform 0;
    }
    inlet
    {
        type            calculated;
        value           nonuniform List<scalar> 
20
(
-5e-06
-5e-06
-5e-06
-5e-06
-5e-06
-5e-06
-5e-06
-5e-06
-5e-06
-5e-06
-5e-06
-5e-06
-5e-06
-5e-06
-5e-06
-5e-06
-5e-06
-5e-06
-5e-06
-5e-06
)
;
    }
    outlet
    {
        type            calculated;
        value           nonuniform List<scalar> 
20
(
5.00325e-06
5.00255e-06
5.00237e-06
5.00194e-06
5.00169e-06
5.00134e-06
5.00106e-06
5.00074e-06
5.00045e-06
5.00015e-06
4.99985e-06
4.99955e-06
4.99926e-06
4.99894e-06
4.99866e-06
4.99831e-06
4.99806e-06
4.99763e-06
4.99745e-06
4.99675e-06
)
;
    }
    frontAndBack
    {
        type            empty;
        value           nonuniform 0();
    }
}


// ************************************************************************* //
