/*--------------------------------*- C++ -*----------------------------------*\
  =========                 |
  \\      /  F ield         | OpenFOAM: The Open Source CFD Toolbox
   \\    /   O peration     | Website:  https://openfoam.org
    \\  /    A nd           | Version:  7
     \\/     M anipulation  |
\*---------------------------------------------------------------------------*/
FoamFile
{
    version     2.0;
    format      ascii;
    class       volVectorField;
    location    "98";
    object      U;
}
// * * * * * * * * * * * * * * * * * * * * * * * * * * * * * * * * * * * * * //

dimensions      [0 1 -1 0 0 0 0];

internalField   nonuniform List<vector> 
400
(
(0.0999931 -8.72522e-07 0)
(0.099993 -2.37492e-06 0)
(0.0999931 -3.60214e-06 0)
(0.0999934 -4.6775e-06 0)
(0.0999939 -5.6905e-06 0)
(0.0999947 -6.73344e-06 0)
(0.0999955 -7.80464e-06 0)
(0.0999966 -8.92588e-06 0)
(0.0999978 -9.99464e-06 0)
(0.0999996 -1.11917e-05 0)
(0.100001 -1.22635e-05 0)
(0.100004 -1.36134e-05 0)
(0.100006 -1.46503e-05 0)
(0.10001 -1.63335e-05 0)
(0.100013 -1.72173e-05 0)
(0.10002 -1.96313e-05 0)
(0.100022 -2.00811e-05 0)
(0.100035 -2.4304e-05 0)
(0.100036 -2.39171e-05 0)
(0.10006 -3.31837e-05 0)
(0.0999943 4.00016e-07 0)
(0.0999947 1.21242e-06 0)
(0.0999952 2.02033e-06 0)
(0.0999958 2.78974e-06 0)
(0.0999963 3.51527e-06 0)
(0.099997 4.17265e-06 0)
(0.0999978 4.77061e-06 0)
(0.0999988 5.30063e-06 0)
(0.1 5.83971e-06 0)
(0.100002 6.2274e-06 0)
(0.100003 6.69551e-06 0)
(0.100006 6.85878e-06 0)
(0.100008 7.26975e-06 0)
(0.100012 6.98719e-06 0)
(0.100014 7.40099e-06 0)
(0.10002 6.16536e-06 0)
(0.100024 6.71475e-06 0)
(0.100033 3.17601e-06 0)
(0.100036 3.98577e-06 0)
(0.10005 -5.45801e-06 0)
(0.0999948 -3.97088e-07 0)
(0.0999947 -1.30296e-06 0)
(0.0999947 -2.30777e-06 0)
(0.099995 -3.36719e-06 0)
(0.0999953 -4.42399e-06 0)
(0.099996 -5.50392e-06 0)
(0.0999967 -6.56925e-06 0)
(0.0999977 -7.73095e-06 0)
(0.0999988 -8.88644e-06 0)
(0.1 -1.02531e-05 0)
(0.100002 -1.1525e-05 0)
(0.100004 -1.32396e-05 0)
(0.100006 -1.46492e-05 0)
(0.10001 -1.70019e-05 0)
(0.100013 -1.85138e-05 0)
(0.100018 -2.21152e-05 0)
(0.100021 -2.357e-05 0)
(0.100029 -2.97594e-05 0)
(0.100032 -3.06221e-05 0)
(0.100046 -4.22157e-05 0)
(0.0999956 -1.77558e-08 0)
(0.0999958 -6.23864e-09 0)
(0.0999962 6.12663e-08 0)
(0.0999966 1.3199e-07 0)
(0.0999972 1.9796e-07 0)
(0.0999978 1.87275e-07 0)
(0.0999986 1.5216e-07 0)
(0.0999995 -3.37537e-08 0)
(0.100001 -2.40027e-07 0)
(0.100002 -7.0504e-07 0)
(0.100003 -1.11995e-06 0)
(0.100005 -2.0468e-06 0)
(0.100007 -2.71732e-06 0)
(0.10001 -4.42808e-06 0)
(0.100013 -5.35581e-06 0)
(0.100017 -8.49917e-06 0)
(0.10002 -9.55038e-06 0)
(0.100027 -1.54689e-05 0)
(0.100029 -1.60988e-05 0)
(0.100039 -2.75846e-05 0)
(0.0999963 -2.91311e-07 0)
(0.0999963 -9.24716e-07 0)
(0.0999964 -1.63064e-06 0)
(0.0999966 -2.4369e-06 0)
(0.0999969 -3.30464e-06 0)
(0.0999974 -4.27822e-06 0)
(0.099998 -5.28486e-06 0)
(0.0999988 -6.45518e-06 0)
(0.0999997 -7.64608e-06 0)
(0.100001 -9.12073e-06 0)
(0.100002 -1.05598e-05 0)
(0.100004 -1.25396e-05 0)
(0.100006 -1.42737e-05 0)
(0.100008 -1.70941e-05 0)
(0.100011 -1.91236e-05 0)
(0.100014 -2.34334e-05 0)
(0.100017 -2.55797e-05 0)
(0.100022 -3.26569e-05 0)
(0.100024 -3.41563e-05 0)
(0.100033 -4.64391e-05 0)
(0.099997 -2.56296e-07 0)
(0.099997 -7.55581e-07 0)
(0.0999972 -1.22441e-06 0)
(0.0999975 -1.69884e-06 0)
(0.0999979 -2.17503e-06 0)
(0.0999984 -2.72877e-06 0)
(0.099999 -3.32103e-06 0)
(0.0999997 -4.0851e-06 0)
(0.1 -4.8905e-06 0)
(0.100002 -6.01323e-06 0)
(0.100003 -7.12827e-06 0)
(0.100004 -8.82406e-06 0)
(0.100006 -1.03193e-05 0)
(0.100008 -1.2947e-05 0)
(0.10001 -1.48351e-05 0)
(0.100013 -1.903e-05 0)
(0.100015 -2.11033e-05 0)
(0.100019 -2.80546e-05 0)
(0.100021 -2.94594e-05 0)
(0.100027 -4.14981e-05 0)
(0.0999976 -2.89395e-07 0)
(0.0999977 -8.89284e-07 0)
(0.0999978 -1.52072e-06 0)
(0.099998 -2.225e-06 0)
(0.0999983 -2.99784e-06 0)
(0.0999986 -3.89545e-06 0)
(0.0999991 -4.87333e-06 0)
(0.0999996 -6.04777e-06 0)
(0.1 -7.28917e-06 0)
(0.100001 -8.86767e-06 0)
(0.100002 -1.04508e-05 0)
(0.100003 -1.26383e-05 0)
(0.100004 -1.46333e-05 0)
(0.100006 -1.77857e-05 0)
(0.100007 -2.01845e-05 0)
(0.10001 -2.49231e-05 0)
(0.100011 -2.74757e-05 0)
(0.100015 -3.49595e-05 0)
(0.100016 -3.67295e-05 0)
(0.100021 -4.92189e-05 0)
(0.0999983 -3.19506e-07 0)
(0.0999984 -9.77176e-07 0)
(0.0999985 -1.6594e-06 0)
(0.0999986 -2.39837e-06 0)
(0.0999988 -3.1833e-06 0)
(0.099999 -4.07092e-06 0)
(0.0999994 -5.01869e-06 0)
(0.0999998 -6.15121e-06 0)
(0.1 -7.3489e-06 0)
(0.100001 -8.8826e-06 0)
(0.100002 -1.04323e-05 0)
(0.100002 -1.25978e-05 0)
(0.100003 -1.45893e-05 0)
(0.100004 -1.77452e-05 0)
(0.100005 -2.01748e-05 0)
(0.100007 -2.49304e-05 0)
(0.100008 -2.75309e-05 0)
(0.100011 -3.49878e-05 0)
(0.100012 -3.67703e-05 0)
(0.100015 -4.90827e-05 0)
(0.099999 -3.3717e-07 0)
(0.099999 -1.02715e-06 0)
(0.0999991 -1.73702e-06 0)
(0.0999992 -2.50458e-06 0)
(0.0999993 -3.31893e-06 0)
(0.0999994 -4.24889e-06 0)
(0.0999996 -5.25179e-06 0)
(0.0999999 -6.46011e-06 0)
(0.1 -7.7505e-06 0)
(0.100001 -9.39565e-06 0)
(0.100001 -1.10742e-05 0)
(0.100001 -1.33878e-05 0)
(0.100002 -1.55342e-05 0)
(0.100003 -1.8869e-05 0)
(0.100003 -2.14714e-05 0)
(0.100004 -2.64254e-05 0)
(0.100005 -2.91836e-05 0)
(0.100006 -3.68405e-05 0)
(0.100007 -3.87262e-05 0)
(0.100009 -5.12478e-05 0)
(0.0999997 -3.4514e-07 0)
(0.0999997 -1.05105e-06 0)
(0.0999997 -1.77599e-06 0)
(0.0999997 -2.56125e-06 0)
(0.0999998 -3.39765e-06 0)
(0.0999998 -4.35544e-06 0)
(0.0999999 -5.39132e-06 0)
(0.1 -6.63662e-06 0)
(0.1 -7.96575e-06 0)
(0.1 -9.6503e-06 0)
(0.1 -1.13696e-05 0)
(0.1 -1.3721e-05 0)
(0.100001 -1.59083e-05 0)
(0.100001 -1.92795e-05 0)
(0.100001 -2.19237e-05 0)
(0.100001 -2.69052e-05 0)
(0.100002 -2.97028e-05 0)
(0.100002 -3.73656e-05 0)
(0.100002 -3.92812e-05 0)
(0.100003 -5.17457e-05 0)
(0.1 -3.45422e-07 0)
(0.1 -1.05064e-06 0)
(0.1 -1.77669e-06 0)
(0.1 -2.56103e-06 0)
(0.1 -3.39819e-06 0)
(0.1 -4.35503e-06 0)
(0.1 -5.39138e-06 0)
(0.1 -6.63622e-06 0)
(0.0999999 -7.96517e-06 0)
(0.0999998 -9.65111e-06 0)
(0.0999997 -1.13697e-05 0)
(0.0999995 -1.37213e-05 0)
(0.0999993 -1.59101e-05 0)
(0.0999991 -1.92805e-05 0)
(0.0999989 -2.1923e-05 0)
(0.0999986 -2.69034e-05 0)
(0.0999983 -2.97008e-05 0)
(0.0999979 -3.73635e-05 0)
(0.0999977 -3.92793e-05 0)
(0.0999971 -5.17445e-05 0)
(0.100001 -3.37661e-07 0)
(0.100001 -1.02727e-06 0)
(0.100001 -1.73783e-06 0)
(0.100001 -2.50386e-06 0)
(0.100001 -3.31937e-06 0)
(0.100001 -4.2481e-06 0)
(0.1 -5.25145e-06 0)
(0.1 -6.45946e-06 0)
(0.0999998 -7.74864e-06 0)
(0.0999995 -9.39666e-06 0)
(0.0999991 -1.10749e-05 0)
(0.0999985 -1.33879e-05 0)
(0.099998 -1.55365e-05 0)
(0.0999973 -1.88706e-05 0)
(0.0999967 -2.14703e-05 0)
(0.0999957 -2.64208e-05 0)
(0.099995 -2.9178e-05 0)
(0.0999936 -3.68331e-05 0)
(0.0999932 -3.87196e-05 0)
(0.0999912 -5.12406e-05 0)
(0.100002 -3.20356e-07 0)
(0.100002 -9.78411e-07 0)
(0.100002 -1.65845e-06 0)
(0.100001 -2.39781e-06 0)
(0.100001 -3.18194e-06 0)
(0.100001 -4.07105e-06 0)
(0.100001 -5.0176e-06 0)
(0.1 -6.15157e-06 0)
(0.0999997 -7.34702e-06 0)
(0.0999991 -8.88161e-06 0)
(0.0999985 -1.04337e-05 0)
(0.0999976 -1.25985e-05 0)
(0.0999968 -1.45905e-05 0)
(0.0999956 -1.77474e-05 0)
(0.0999945 -2.01769e-05 0)
(0.0999929 -2.49297e-05 0)
(0.0999917 -2.75289e-05 0)
(0.0999894 -3.49844e-05 0)
(0.0999885 -3.67678e-05 0)
(0.0999853 -4.90804e-05 0)
(0.100002 -2.90613e-07 0)
(0.100002 -8.89967e-07 0)
(0.100002 -1.51914e-06 0)
(0.100002 -2.22482e-06 0)
(0.100002 -2.9956e-06 0)
(0.100001 -3.8972e-06 0)
(0.100001 -4.87258e-06 0)
(0.1 -6.04867e-06 0)
(0.0999998 -7.28971e-06 0)
(0.099999 -8.86399e-06 0)
(0.0999981 -1.04489e-05 0)
(0.0999969 -1.26367e-05 0)
(0.0999957 -1.46309e-05 0)
(0.0999941 -1.77833e-05 0)
(0.0999926 -2.0184e-05 0)
(0.0999903 -2.49203e-05 0)
(0.0999887 -2.74724e-05 0)
(0.0999853 -3.49515e-05 0)
(0.0999843 -3.67216e-05 0)
(0.0999793 -4.92046e-05 0)
(0.100003 -2.56864e-07 0)
(0.100003 -7.55234e-07 0)
(0.100003 -1.2245e-06 0)
(0.100002 -1.69909e-06 0)
(0.100002 -2.17623e-06 0)
(0.100002 -2.73097e-06 0)
(0.100001 -3.32328e-06 0)
(0.1 -4.08582e-06 0)
(0.0999995 -4.89573e-06 0)
(0.0999985 -6.0143e-06 0)
(0.0999973 -7.12722e-06 0)
(0.0999959 -8.82365e-06 0)
(0.0999944 -1.0319e-05 0)
(0.0999923 -1.29469e-05 0)
(0.0999904 -1.48376e-05 0)
(0.0999874 -1.90337e-05 0)
(0.0999853 -2.11082e-05 0)
(0.0999811 -2.8057e-05 0)
(0.0999793 -2.94613e-05 0)
(0.0999733 -4.14969e-05 0)
(0.100004 -2.89342e-07 0)
(0.100004 -9.23676e-07 0)
(0.100004 -1.63302e-06 0)
(0.100003 -2.43795e-06 0)
(0.100003 -3.30826e-06 0)
(0.100003 -4.27424e-06 0)
(0.100002 -5.28838e-06 0)
(0.100001 -6.45077e-06 0)
(0.1 -7.64717e-06 0)
(0.0999991 -9.12418e-06 0)
(0.0999978 -1.05597e-05 0)
(0.099996 -1.25371e-05 0)
(0.0999942 -1.42712e-05 0)
(0.0999916 -1.70897e-05 0)
(0.0999895 -1.91216e-05 0)
(0.0999856 -2.34309e-05 0)
(0.0999833 -2.55802e-05 0)
(0.0999776 -3.26514e-05 0)
(0.099976 -3.4152e-05 0)
(0.0999673 -4.64241e-05 0)
(0.100004 -1.38079e-08 0)
(0.100004 -5.12274e-09 0)
(0.100004 5.63075e-08 0)
(0.100003 1.27655e-07 0)
(0.100003 1.95894e-07 0)
(0.100002 1.95251e-07 0)
(0.100001 1.48466e-07 0)
(0.100001 -3.48089e-08 0)
(0.0999994 -2.382e-07 0)
(0.0999981 -7.09329e-07 0)
(0.0999966 -1.12297e-06 0)
(0.0999946 -2.04678e-06 0)
(0.0999926 -2.71664e-06 0)
(0.0999897 -4.42582e-06 0)
(0.0999871 -5.35433e-06 0)
(0.0999828 -8.49764e-06 0)
(0.0999798 -9.551e-06 0)
(0.0999734 -1.54671e-05 0)
(0.0999707 -1.60978e-05 0)
(0.0999614 -2.75793e-05 0)
(0.100005 -3.97687e-07 0)
(0.100005 -1.30324e-06 0)
(0.100005 -2.30718e-06 0)
(0.100005 -3.36946e-06 0)
(0.100005 -4.42166e-06 0)
(0.100004 -5.49697e-06 0)
(0.100003 -6.57015e-06 0)
(0.100002 -7.74583e-06 0)
(0.100001 -8.88569e-06 0)
(0.0999996 -1.02516e-05 0)
(0.099998 -1.15271e-05 0)
(0.0999957 -1.3242e-05 0)
(0.0999936 -1.46531e-05 0)
(0.0999901 -1.70036e-05 0)
(0.0999875 -1.85155e-05 0)
(0.0999821 -2.21132e-05 0)
(0.0999791 -2.35714e-05 0)
(0.0999706 -2.97566e-05 0)
(0.0999684 -3.06234e-05 0)
(0.0999544 -4.22086e-05 0)
(0.100006 3.9572e-07 0)
(0.100005 1.20894e-06 0)
(0.100005 2.02631e-06 0)
(0.100004 2.79818e-06 0)
(0.100004 3.51845e-06 0)
(0.100003 4.14924e-06 0)
(0.100002 4.78276e-06 0)
(0.100001 5.31047e-06 0)
(0.1 5.84134e-06 0)
(0.0999984 6.23279e-06 0)
(0.0999967 6.69512e-06 0)
(0.0999943 6.85558e-06 0)
(0.0999921 7.2659e-06 0)
(0.0999885 6.98716e-06 0)
(0.0999855 7.40357e-06 0)
(0.0999799 6.17288e-06 0)
(0.0999764 6.72034e-06 0)
(0.0999674 3.18476e-06 0)
(0.0999642 3.99135e-06 0)
(0.09995 -5.4456e-06 0)
(0.100007 -8.74294e-07 0)
(0.100007 -2.37798e-06 0)
(0.100007 -3.6006e-06 0)
(0.100007 -4.67155e-06 0)
(0.100006 -5.69197e-06 0)
(0.100005 -6.7629e-06 0)
(0.100005 -7.79683e-06 0)
(0.100003 -8.9101e-06 0)
(0.100002 -9.99868e-06 0)
(0.1 -1.11959e-05 0)
(0.0999988 -1.22711e-05 0)
(0.0999961 -1.36227e-05 0)
(0.0999941 -1.46597e-05 0)
(0.0999898 -1.63411e-05 0)
(0.0999874 -1.72238e-05 0)
(0.0999803 -1.96368e-05 0)
(0.0999779 -2.00877e-05 0)
(0.0999653 -2.43122e-05 0)
(0.0999638 -2.39258e-05 0)
(0.0999402 -3.3197e-05 0)
)
;

boundaryField
{
    sides
    {
        type            calculated;
        value           nonuniform List<vector> 
40
(
(0.100007 0 0)
(0.100007 0 0)
(0.100007 0 0)
(0.100007 0 0)
(0.100006 0 0)
(0.100005 0 0)
(0.100005 0 0)
(0.100003 0 0)
(0.100002 0 0)
(0.1 0 0)
(0.0999988 0 0)
(0.0999961 0 0)
(0.0999941 0 0)
(0.0999898 0 0)
(0.0999874 0 0)
(0.0999803 0 0)
(0.0999779 0 0)
(0.0999653 0 0)
(0.0999638 0 0)
(0.0999402 0 0)
(0.0999931 0 0)
(0.099993 0 0)
(0.0999931 0 0)
(0.0999934 0 0)
(0.0999939 0 0)
(0.0999947 0 0)
(0.0999955 0 0)
(0.0999966 0 0)
(0.0999978 0 0)
(0.0999996 0 0)
(0.100001 0 0)
(0.100004 0 0)
(0.100006 0 0)
(0.10001 0 0)
(0.100013 0 0)
(0.10002 0 0)
(0.100022 0 0)
(0.100035 0 0)
(0.100036 0 0)
(0.10006 0 0)
)
;
    }
    inlet
    {
        type            calculated;
        value           nonuniform List<vector> 
20
(
(0.0999931 0 0)
(0.0999943 0 0)
(0.0999948 0 0)
(0.0999956 0 0)
(0.0999963 0 0)
(0.0999969 0 0)
(0.0999976 0 0)
(0.0999983 0 0)
(0.099999 0 0)
(0.0999997 0 0)
(0.1 0 0)
(0.100001 0 0)
(0.100002 0 0)
(0.100002 0 0)
(0.100003 0 0)
(0.100004 0 0)
(0.100004 0 0)
(0.100005 0 0)
(0.100006 0 0)
(0.100007 0 0)
)
;
    }
    outlet
    {
        type            calculated;
        value           nonuniform List<vector> 
20
(
(0.100061 -3.3184e-05 0)
(0.10005 -5.45803e-06 0)
(0.100046 -4.22159e-05 0)
(0.100039 -2.75847e-05 0)
(0.100033 -4.64392e-05 0)
(0.100027 -4.14981e-05 0)
(0.100021 -4.9219e-05 0)
(0.100015 -4.90827e-05 0)
(0.100009 -5.12478e-05 0)
(0.100003 -5.17457e-05 0)
(0.099997 -5.17445e-05 0)
(0.0999911 -5.12406e-05 0)
(0.0999852 -4.90804e-05 0)
(0.0999792 -4.92045e-05 0)
(0.0999731 -4.14968e-05 0)
(0.099967 -4.6424e-05 0)
(0.0999611 -2.75792e-05 0)
(0.0999539 -4.22084e-05 0)
(0.0999495 -5.44558e-06 0)
(0.0999394 -3.31967e-05 0)
)
;
    }
    frontAndBack
    {
        type            empty;
    }
}


// ************************************************************************* //
