/*--------------------------------*- C++ -*----------------------------------*\
  =========                 |
  \\      /  F ield         | OpenFOAM: The Open Source CFD Toolbox
   \\    /   O peration     | Website:  https://openfoam.org
    \\  /    A nd           | Version:  7
     \\/     M anipulation  |
\*---------------------------------------------------------------------------*/
FoamFile
{
    version     2.0;
    format      ascii;
    class       volVectorField;
    location    "57";
    object      ddt0(hU);
}
// * * * * * * * * * * * * * * * * * * * * * * * * * * * * * * * * * * * * * //

dimensions      [0 2 -2 0 0 0 0];

internalField   nonuniform List<vector> 
400
(
(-2.17653e-10 -1.15253e-10 0)
(1.34281e-12 7.01117e-11 0)
(1.80438e-10 4.17269e-10 0)
(1.2848e-10 2.69264e-10 0)
(-3.03755e-10 1.48044e-10 0)
(-1.34354e-09 9.974e-10 0)
(7.05117e-10 1.8727e-10 0)
(1.93672e-09 -1.4012e-09 0)
(-8.81931e-10 -7.05971e-10 0)
(-2.89219e-10 -4.72532e-10 0)
(1.94392e-10 -3.10226e-10 0)
(5.77595e-10 -1.35596e-10 0)
(6.74817e-10 5.81541e-11 0)
(5.57077e-10 2.80199e-10 0)
(4.27645e-10 4.05193e-10 0)
(3.21105e-10 4.96598e-10 0)
(1.06102e-10 3.71629e-10 0)
(6.92259e-11 2.61926e-10 0)
(-2.40144e-10 4.09358e-11 0)
(-5.9768e-11 -2.7367e-10 0)
(-7.50214e-12 -1.85168e-10 0)
(1.74517e-10 1.8877e-11 0)
(1.48552e-10 2.71138e-10 0)
(4.24058e-11 1.15907e-10 0)
(-2.02107e-11 -1.12613e-10 0)
(1.04332e-09 7.62569e-10 0)
(-2.72719e-10 -2.6933e-10 0)
(-3.36589e-09 -9.48169e-10 0)
(2.08865e-10 -5.82524e-11 0)
(1.48857e-10 -3.34891e-11 0)
(3.16062e-10 8.64476e-11 0)
(5.67249e-10 9.71928e-11 0)
(6.75072e-10 5.16323e-11 0)
(6.5469e-10 1.18449e-10 0)
(5.55045e-10 2.17847e-10 0)
(4.11974e-10 3.34828e-10 0)
(1.36297e-10 3.54747e-10 0)
(4.50551e-11 2.79103e-10 0)
(-2.51719e-10 2.40459e-10 0)
(-1.43214e-10 9.05631e-12 0)
(1.62817e-10 3.49174e-11 0)
(1.98644e-10 1.63249e-10 0)
(1.42246e-10 3.32206e-10 0)
(-2.31521e-11 6.98143e-10 0)
(-3.16384e-10 5.97339e-10 0)
(-5.7624e-11 5.21844e-10 0)
(-1.42484e-09 -1.22006e-10 0)
(1.48043e-10 7.82267e-10 0)
(2.72571e-10 1.85221e-10 0)
(3.83289e-11 -2.92218e-10 0)
(4.62281e-10 -2.01434e-10 0)
(5.12188e-10 -7.00481e-11 0)
(5.75273e-10 1.71604e-10 0)
(6.24138e-10 5.31926e-10 0)
(5.84761e-10 7.40645e-10 0)
(4.13476e-10 9.41357e-10 0)
(5.23705e-11 7.64281e-10 0)
(-8.33585e-11 5.4658e-10 0)
(-5.01331e-10 2.43719e-10 0)
(-2.43599e-10 -3.97415e-10 0)
(6.88386e-11 2.02197e-10 0)
(1.44843e-10 1.89335e-10 0)
(2.32991e-10 3.75497e-10 0)
(-2.01068e-11 7.54562e-10 0)
(-9.1417e-11 9.63996e-10 0)
(-4.18315e-10 8.35984e-10 0)
(-4.23961e-10 9.59032e-10 0)
(3.92338e-10 9.41459e-10 0)
(-5.37593e-10 -4.46692e-11 0)
(-1.20925e-11 -1.67713e-10 0)
(4.11365e-10 -2.32469e-10 0)
(4.0192e-10 -1.36232e-10 0)
(5.43133e-10 2.51273e-10 0)
(6.61334e-10 7.49003e-10 0)
(6.21931e-10 9.90926e-10 0)
(4.32996e-10 1.22167e-09 0)
(8.67262e-11 9.8215e-10 0)
(-6.70986e-11 6.72687e-10 0)
(-3.40245e-10 3.02199e-10 0)
(-1.9939e-10 -5.08243e-10 0)
(-2.15435e-11 1.70832e-10 0)
(-1.65226e-11 2.14465e-10 0)
(7.8162e-11 3.97516e-10 0)
(-1.18065e-10 5.46258e-10 0)
(3.51194e-11 9.88943e-10 0)
(-2.57806e-10 6.83589e-10 0)
(3.15153e-10 1.14118e-09 0)
(-1.84798e-10 4.21144e-10 0)
(-2.43328e-10 1.28425e-12 0)
(3.16729e-10 -6.34061e-11 0)
(1.66628e-10 -3.42273e-10 0)
(1.88333e-10 -2.12952e-10 0)
(4.04731e-10 2.42384e-10 0)
(4.80868e-10 7.78e-10 0)
(4.35473e-10 1.03112e-09 0)
(2.58015e-10 1.27542e-09 0)
(-3.37363e-11 1.03309e-09 0)
(-7.8877e-11 6.83455e-10 0)
(-2.15629e-10 3.16723e-10 0)
(-7.14997e-12 -5.31299e-10 0)
(-6.17023e-11 1.17083e-10 0)
(4.74379e-11 4.47942e-10 0)
(1.28353e-10 8.73018e-10 0)
(1.00731e-12 1.10091e-09 0)
(-7.06507e-11 1.44139e-09 0)
(-2.30846e-10 1.26649e-09 0)
(-9.40717e-11 1.10278e-09 0)
(-5.63275e-10 2.10402e-10 0)
(-4.8736e-11 -3.98819e-11 0)
(1.114e-10 -5.91998e-10 0)
(8.38396e-11 -8.06836e-10 0)
(4.86016e-10 -3.73044e-10 0)
(7.22569e-10 2.733e-10 0)
(6.27789e-10 9.98778e-10 0)
(4.3571e-10 1.34176e-09 0)
(1.46286e-10 1.65142e-09 0)
(-2.38725e-10 1.29991e-09 0)
(-3.06809e-10 9.18569e-10 0)
(-4.00979e-10 3.91397e-10 0)
(-2.41041e-11 -8.05695e-10 0)
(-6.17208e-11 7.82004e-11 0)
(5.34587e-11 4.71778e-10 0)
(1.26489e-11 8.07972e-10 0)
(5.52802e-11 1.17614e-09 0)
(-4.91702e-11 1.30576e-09 0)
(8.64034e-11 1.48848e-09 0)
(-6.97869e-11 1.08544e-09 0)
(-1.05898e-10 6.14499e-10 0)
(7.85716e-11 1.89128e-10 0)
(-2.20548e-10 -5.16137e-10 0)
(-7.90962e-12 -5.67677e-10 0)
(2.8708e-10 -2.23399e-10 0)
(2.73788e-10 1.89758e-10 0)
(2.31624e-10 8.48407e-10 0)
(1.73352e-10 1.2184e-09 0)
(9.08266e-11 1.56297e-09 0)
(-2.54082e-11 1.3227e-09 0)
(-1.89614e-11 1.0377e-09 0)
(1.14725e-11 6.57078e-10 0)
(1.91058e-10 -6.16599e-10 0)
(-2.54735e-11 1.01938e-10 0)
(1.00643e-10 5.84153e-10 0)
(2.95227e-11 9.32717e-10 0)
(1.07581e-10 1.41991e-09 0)
(-7.95474e-12 1.5328e-09 0)
(4.27904e-11 1.57012e-09 0)
(-2.27347e-10 1.02523e-09 0)
(-8.42088e-11 5.02997e-10 0)
(-1.71092e-10 -2.7059e-10 0)
(-1.38737e-10 -8.12307e-10 0)
(3.10604e-10 -7.60495e-10 0)
(3.20594e-10 -4.71231e-10 0)
(2.43805e-10 1.02202e-10 0)
(2.925e-10 9.86557e-10 0)
(1.74429e-10 1.4552e-09 0)
(-1.00223e-11 1.87179e-09 0)
(-1.09863e-10 1.55292e-09 0)
(-8.07026e-11 1.21231e-09 0)
(-2.03483e-10 7.30696e-10 0)
(-2.49181e-11 -7.52619e-10 0)
(2.25032e-11 1.93898e-10 0)
(8.60338e-11 6.35609e-10 0)
(5.15291e-11 1.0406e-09 0)
(3.76175e-11 1.3673e-09 0)
(-1.23033e-11 1.59282e-09 0)
(-3.31894e-11 1.48904e-09 0)
(-9.02863e-11 1.11211e-09 0)
(1.6967e-12 5.59015e-10 0)
(-8.08771e-11 -2.10198e-10 0)
(5.10318e-11 -6.15042e-10 0)
(1.70259e-10 -7.88922e-10 0)
(5.17762e-11 -6.44044e-10 0)
(7.86736e-11 1.39451e-11 0)
(1.64163e-10 8.88279e-10 0)
(8.30186e-11 1.30999e-09 0)
(2.68378e-12 1.82874e-09 0)
(3.41103e-11 1.62978e-09 0)
(9.36689e-11 1.29736e-09 0)
(3.28361e-11 8.42623e-10 0)
(-4.31422e-11 -6.92338e-10 0)
(7.77868e-12 2.47425e-10 0)
(3.41947e-12 6.52282e-10 0)
(6.0932e-11 1.076e-09 0)
(-1.33761e-11 1.34648e-09 0)
(-1.5024e-11 1.61321e-09 0)
(-6.87437e-11 1.51653e-09 0)
(2.43626e-11 1.15747e-09 0)
(-2.32748e-11 4.97829e-10 0)
(-1.6814e-11 -2.63604e-10 0)
(1.78954e-11 -7.17478e-10 0)
(-8.80375e-11 -9.0218e-10 0)
(2.04819e-11 -6.36135e-10 0)
(1.36155e-10 1.10992e-10 0)
(6.95046e-11 9.93449e-10 0)
(1.05593e-10 1.40072e-09 0)
(2.06477e-10 1.9086e-09 0)
(1.66337e-10 1.64243e-09 0)
(7.43119e-11 1.22623e-09 0)
(-1.25021e-10 6.78849e-10 0)
(-2.48052e-10 -8.32823e-10 0)
(-6.61029e-12 1.97662e-10 0)
(-5.797e-11 6.96149e-10 0)
(3.59864e-11 1.02338e-09 0)
(-3.63908e-11 1.36553e-09 0)
(-1.5697e-11 1.57802e-09 0)
(-9.29422e-11 1.59058e-09 0)
(4.90399e-11 1.18873e-09 0)
(-1.22439e-11 5.30619e-10 0)
(6.24905e-11 -1.84898e-10 0)
(8.70652e-11 -7.5566e-10 0)
(-1.30543e-10 -8.09061e-10 0)
(-2.71823e-11 -4.63803e-10 0)
(1.56568e-11 1.3751e-10 0)
(-1.56989e-10 1.00644e-09 0)
(-9.79961e-11 1.48712e-09 0)
(1.00703e-10 1.92488e-09 0)
(1.56966e-10 1.54377e-09 0)
(9.7233e-11 1.07968e-09 0)
(7.70014e-11 5.27785e-10 0)
(-1.04933e-10 -9.06582e-10 0)
(1.86867e-11 1.59263e-10 0)
(-5.96541e-11 6.56697e-10 0)
(-3.96774e-11 9.68566e-10 0)
(-3.85481e-11 1.34654e-09 0)
(2.96519e-11 1.51437e-09 0)
(5.31921e-13 1.58054e-09 0)
(5.8478e-11 1.19393e-09 0)
(7.26481e-11 5.51279e-10 0)
(1.13865e-12 -3.69326e-11 0)
(8.25294e-11 -7.17269e-10 0)
(-6.79684e-11 -7.59661e-10 0)
(-2.14273e-10 -3.53437e-10 0)
(-1.78119e-10 1.40175e-10 0)
(-1.58165e-10 9.37096e-10 0)
(-1.35085e-10 1.43688e-09 0)
(-5.61935e-11 1.85412e-09 0)
(4.17214e-11 1.48043e-09 0)
(7.78872e-11 1.02702e-09 0)
(4.53713e-11 4.94805e-10 0)
(-8.36572e-11 -8.7913e-10 0)
(1.17505e-12 1.64554e-10 0)
(-5.02545e-11 5.29359e-10 0)
(-1.11177e-10 9.49515e-10 0)
(2.2734e-12 1.2456e-09 0)
(2.0101e-11 1.55389e-09 0)
(1.19265e-10 1.4931e-09 0)
(1.3896e-11 1.19021e-09 0)
(2.39298e-10 3.89725e-10 0)
(3.9035e-11 -1.55309e-10 0)
(2.90409e-12 -7.85648e-10 0)
(7.32971e-11 -9.75444e-10 0)
(-2.64102e-10 -4.93306e-10 0)
(-4.636e-10 2.23511e-10 0)
(-3.75948e-10 1.06818e-09 0)
(-3.41291e-10 1.52512e-09 0)
(-2.6022e-10 1.94218e-09 0)
(8.26326e-13 1.56029e-09 0)
(1.42446e-10 1.06184e-09 0)
(3.19681e-10 4.16239e-10 0)
(1.9128e-10 -9.40036e-10 0)
(-1.92644e-11 1.59164e-10 0)
(-6.34635e-11 4.29826e-10 0)
(-1.2625e-10 8.25425e-10 0)
(7.90345e-11 1.05713e-09 0)
(1.6658e-11 1.45639e-09 0)
(1.60569e-10 1.28196e-09 0)
(-1.1514e-10 1.22628e-09 0)
(7.17853e-11 5.9461e-10 0)
(1.01354e-10 2.02639e-11 0)
(-2.14471e-10 -3.13122e-10 0)
(2.36963e-12 -6.59943e-10 0)
(3.62305e-11 -5.1025e-10 0)
(-1.67242e-10 1.08574e-10 0)
(-2.66966e-10 8.6928e-10 0)
(-3.35064e-10 1.27236e-09 0)
(-3.491e-10 1.71556e-09 0)
(-2.05787e-10 1.48627e-09 0)
(-1.22787e-10 1.07944e-09 0)
(6.51062e-11 5.82869e-10 0)
(1.69455e-10 -6.70518e-10 0)
(-1.9209e-11 1.2784e-10 0)
(-1.40059e-10 4.26605e-10 0)
(-1.68033e-10 8.4987e-10 0)
(-4.61675e-12 1.26505e-09 0)
(1.06993e-10 1.41024e-09 0)
(2.6451e-10 1.25304e-09 0)
(3.48022e-10 9.20275e-10 0)
(1.1388e-10 5.03351e-10 0)
(4.07106e-10 -3.34296e-10 0)
(-9.25427e-11 -5.81445e-10 0)
(-4.988e-10 -6.437e-10 0)
(-4.08417e-10 -4.99312e-10 0)
(-4.11373e-10 9.37372e-11 0)
(-4.26739e-10 9.06998e-10 0)
(-3.80459e-10 1.34793e-09 0)
(-2.65018e-10 1.77205e-09 0)
(-2.78987e-11 1.47365e-09 0)
(5.94567e-11 1.09853e-09 0)
(4.12137e-10 5.75701e-10 0)
(3.19881e-10 -7.12431e-10 0)
(4.96489e-12 3.44735e-11 0)
(-9.19737e-11 2.44043e-10 0)
(-3.3893e-11 4.93585e-10 0)
(-5.0454e-11 8.16163e-10 0)
(1.25888e-10 7.02931e-10 0)
(-7.32456e-11 1.03735e-09 0)
(3.80715e-10 4.03455e-10 0)
(-1.62634e-10 7.08364e-10 0)
(1.11764e-11 1.00532e-10 0)
(7.21036e-11 -2.69791e-10 0)
(-3.73576e-10 -1.93135e-10 0)
(-3.80291e-10 -9.46049e-11 0)
(-2.44508e-10 1.55845e-10 0)
(-1.85568e-10 6.40767e-10 0)
(-1.84935e-10 9.35732e-10 0)
(-2.09124e-10 1.2422e-09 0)
(-1.25578e-10 1.09423e-09 0)
(-1.23011e-10 8.67867e-10 0)
(1.32727e-10 5.747e-10 0)
(6.07161e-11 -3.97205e-10 0)
(8.6735e-11 -2.6368e-11 0)
(-9.74992e-11 2.60626e-10 0)
(-1.50056e-10 6.66957e-10 0)
(-1.93534e-10 8.47603e-10 0)
(1.94672e-10 6.59901e-10 0)
(-4.38672e-11 1.17176e-09 0)
(6.97237e-10 2.49562e-10 0)
(6.98765e-10 1.09973e-10 0)
(-1.00207e-10 3.17954e-10 0)
(1.53553e-10 -2.06142e-10 0)
(-2.95175e-10 -1.89516e-10 0)
(-6.71996e-10 -6.50438e-13 0)
(-6.77976e-10 2.42692e-10 0)
(-5.14426e-10 6.33658e-10 0)
(-3.51691e-10 8.39369e-10 0)
(-2.48493e-10 1.07681e-09 0)
(-5.61719e-11 9.15561e-10 0)
(-1.33543e-11 7.29764e-10 0)
(1.97578e-10 4.37889e-10 0)
(5.16767e-11 -4.33535e-10 0)
(1.64771e-10 5.48073e-11 0)
(2.79669e-11 1.35794e-10 0)
(-1.00596e-10 3.43124e-10 0)
(-2.36172e-10 4.50524e-10 0)
(1.41639e-10 5.53891e-10 0)
(8.09695e-12 1.02804e-09 0)
(-7.07391e-10 -1.73176e-10 0)
(1.60769e-09 7.28876e-11 0)
(3.91081e-10 5.86594e-11 0)
(-2.17003e-10 -2.10347e-10 0)
(-4.0382e-10 -3.32526e-10 0)
(-7.81914e-10 -8.02189e-11 0)
(-8.50058e-10 2.55497e-10 0)
(-6.30591e-10 5.84249e-10 0)
(-3.8865e-10 6.94757e-10 0)
(-1.85808e-10 8.13865e-10 0)
(9.34261e-11 6.20042e-10 0)
(1.03507e-10 4.41882e-10 0)
(3.86902e-10 2.03177e-10 0)
(5.86185e-11 -4.00242e-10 0)
(3.24826e-11 1.64901e-10 0)
(-5.79798e-11 1.83628e-11 0)
(-2.06515e-10 -3.46857e-10 0)
(-9.72516e-11 -1.23504e-10 0)
(4.91486e-10 8.45154e-10 0)
(-1.19704e-09 -6.28148e-10 0)
(-6.30653e-10 2.25859e-09 0)
(-7.8269e-11 4.05187e-10 0)
(4.3827e-10 -2.59936e-10 0)
(-1.62828e-10 -4.3495e-11 0)
(-3.62833e-10 -2.46159e-11 0)
(-5.12636e-10 1.88891e-10 0)
(-7.11328e-10 3.47961e-10 0)
(-7.5042e-10 3.54806e-10 0)
(-6.0134e-10 2.57183e-10 0)
(-3.61012e-10 2.25161e-10 0)
(-3.53796e-11 1.87363e-10 0)
(3.81533e-11 1.20146e-10 0)
(2.49946e-10 1.31354e-10 0)
(6.30942e-11 -2.85318e-11 0)
(-1.30185e-10 1.00003e-10 0)
(-2.04004e-10 1.27325e-10 0)
(-1.66706e-10 -2.0714e-11 0)
(3.76359e-10 2.49167e-10 0)
(-2.61714e-10 1.01366e-09 0)
(2.08872e-09 -8.18866e-10 0)
(1.46036e-09 2.58619e-09 0)
(-7.06799e-10 -2.16332e-10 0)
(6.43953e-11 -6.21719e-10 0)
(2.59962e-10 -4.97736e-10 0)
(3.24807e-11 -2.92337e-10 0)
(-1.9359e-10 2.73911e-12 0)
(-6.44031e-10 2.70164e-10 0)
(-9.00965e-10 4.17428e-10 0)
(-7.84107e-10 4.14536e-10 0)
(-4.40198e-10 4.31114e-10 0)
(-1.76534e-11 2.89196e-10 0)
(9.46273e-11 1.92475e-10 0)
(3.49356e-10 -7.82083e-12 0)
(7.65033e-11 -2.93024e-10 0)
)
;

boundaryField
{
    sides
    {
        type            calculated;
        value           nonuniform List<vector> 
40
(
(-1.30185e-10 0 0)
(-2.04004e-10 0 0)
(-1.66706e-10 0 0)
(3.76359e-10 0 0)
(-2.61714e-10 0 0)
(2.08872e-09 0 0)
(1.46036e-09 0 0)
(-7.06799e-10 0 0)
(6.43953e-11 0 0)
(2.59962e-10 0 0)
(3.24807e-11 0 0)
(-1.9359e-10 0 0)
(-6.44031e-10 0 0)
(-9.00965e-10 0 0)
(-7.84107e-10 0 0)
(-4.40198e-10 0 0)
(-1.76534e-11 0 0)
(9.46273e-11 0 0)
(3.49356e-10 0 0)
(7.65033e-11 0 0)
(-2.17653e-10 0 0)
(1.34281e-12 0 0)
(1.80438e-10 0 0)
(1.2848e-10 0 0)
(-3.03755e-10 0 0)
(-1.34354e-09 0 0)
(7.05117e-10 0 0)
(1.93672e-09 0 0)
(-8.81931e-10 0 0)
(-2.89219e-10 0 0)
(1.94392e-10 0 0)
(5.77595e-10 0 0)
(6.74817e-10 0 0)
(5.57077e-10 0 0)
(4.27645e-10 0 0)
(3.21105e-10 0 0)
(1.06102e-10 0 0)
(6.92259e-11 0 0)
(-2.40144e-10 0 0)
(-5.9768e-11 0 0)
)
;
    }
    inlet
    {
        type            calculated;
        value           uniform (0 0 0);
    }
    outlet
    {
        type            calculated;
        value           nonuniform List<vector> 
20
(
(-5.9768e-11 -2.7367e-10 0)
(-1.43214e-10 9.05631e-12 0)
(-2.43599e-10 -3.97415e-10 0)
(-1.9939e-10 -5.08243e-10 0)
(-7.14997e-12 -5.31299e-10 0)
(-2.41041e-11 -8.05695e-10 0)
(1.91058e-10 -6.16599e-10 0)
(-2.49181e-11 -7.52619e-10 0)
(-4.31422e-11 -6.92338e-10 0)
(-2.48052e-10 -8.32823e-10 0)
(-1.04933e-10 -9.06582e-10 0)
(-8.36572e-11 -8.7913e-10 0)
(1.9128e-10 -9.40036e-10 0)
(1.69455e-10 -6.70518e-10 0)
(3.19881e-10 -7.12431e-10 0)
(6.07161e-11 -3.97205e-10 0)
(5.16767e-11 -4.33535e-10 0)
(5.86185e-11 -4.00242e-10 0)
(6.30942e-11 -2.85318e-11 0)
(7.65033e-11 -2.93024e-10 0)
)
;
    }
    frontAndBack
    {
        type            empty;
    }
}


// ************************************************************************* //
