/*--------------------------------*- C++ -*----------------------------------*\
  =========                 |
  \\      /  F ield         | OpenFOAM: The Open Source CFD Toolbox
   \\    /   O peration     | Website:  https://openfoam.org
    \\  /    A nd           | Version:  7
     \\/     M anipulation  |
\*---------------------------------------------------------------------------*/
FoamFile
{
    version     2.0;
    format      ascii;
    class       volVectorField;
    location    "57";
    object      hU_0;
}
// * * * * * * * * * * * * * * * * * * * * * * * * * * * * * * * * * * * * * //

dimensions      [0 2 -1 0 0 0 0];

internalField   nonuniform List<vector> 
400
(
(0.001 -8.71263e-09 0)
(0.000999999 -2.37571e-08 0)
(0.001 -3.60434e-08 0)
(0.001 -4.68724e-08 0)
(0.00100001 -5.72394e-08 0)
(0.00100001 -6.78844e-08 0)
(0.00100002 -7.87604e-08 0)
(0.00100003 -8.97918e-08 0)
(0.00100004 -1.00303e-07 0)
(0.00100006 -1.1203e-07 0)
(0.00100007 -1.22535e-07 0)
(0.0010001 -1.3589e-07 0)
(0.00100011 -1.4618e-07 0)
(0.00100015 -1.63074e-07 0)
(0.00100017 -1.72031e-07 0)
(0.00100024 -1.96355e-07 0)
(0.00100026 -2.01061e-07 0)
(0.00100038 -2.43347e-07 0)
(0.00100038 -2.39643e-07 0)
(0.00100061 -3.32061e-07 0)
(0.001 4.00235e-09 0)
(0.001 1.21043e-08 0)
(0.00100001 2.02725e-08 0)
(0.00100001 2.80331e-08 0)
(0.00100002 3.52115e-08 0)
(0.00100002 4.16921e-08 0)
(0.00100003 4.7566e-08 0)
(0.00100004 5.29369e-08 0)
(0.00100005 5.83088e-08 0)
(0.00100007 6.22387e-08 0)
(0.00100008 6.69524e-08 0)
(0.0010001 6.86275e-08 0)
(0.00100012 7.28127e-08 0)
(0.00100016 7.00417e-08 0)
(0.00100018 7.41843e-08 0)
(0.00100023 6.17941e-08 0)
(0.00100026 6.7151e-08 0)
(0.00100035 3.17047e-08 0)
(0.00100037 3.9662e-08 0)
(0.00100051 -5.47812e-08 0)
(0.001 -3.94595e-09 0)
(0.000999999 -1.29744e-08 0)
(0.000999999 -2.30487e-08 0)
(0.001 -3.37775e-08 0)
(0.001 -4.44824e-08 0)
(0.00100001 -5.54548e-08 0)
(0.00100002 -6.61429e-08 0)
(0.00100003 -7.78434e-08 0)
(0.00100004 -8.92761e-08 0)
(0.00100005 -1.02667e-07 0)
(0.00100006 -1.15067e-07 0)
(0.00100009 -1.31956e-07 0)
(0.0010001 -1.45875e-07 0)
(0.00100014 -1.69454e-07 0)
(0.00100016 -1.84758e-07 0)
(0.00100021 -2.2107e-07 0)
(0.00100023 -2.36037e-07 0)
(0.00100031 -2.98049e-07 0)
(0.00100033 -3.07062e-07 0)
(0.00100046 -4.22684e-07 0)
(0.001 -1.15996e-10 0)
(0.001 6.99209e-11 0)
(0.00100001 6.80317e-10 0)
(0.00100001 1.22174e-09 0)
(0.00100001 1.69301e-09 0)
(0.00100002 1.34117e-09 0)
(0.00100003 8.426e-10 0)
(0.00100004 -1.10879e-09 0)
(0.00100004 -2.98089e-09 0)
(0.00100006 -7.32195e-09 0)
(0.00100007 -1.10433e-08 0)
(0.00100009 -1.99365e-08 0)
(0.00100011 -2.63795e-08 0)
(0.00100013 -4.35397e-08 0)
(0.00100016 -5.30562e-08 0)
(0.00100019 -8.48624e-08 0)
(0.00100022 -9.59221e-08 0)
(0.00100028 -1.55256e-07 0)
(0.0010003 -1.6208e-07 0)
(0.00100039 -2.76577e-07 0)
(0.001 -2.85325e-09 0)
(0.001 -9.10833e-09 0)
(0.001 -1.61756e-08 0)
(0.001 -2.43243e-08 0)
(0.00100001 -3.31918e-08 0)
(0.00100001 -4.31333e-08 0)
(0.00100002 -5.34365e-08 0)
(0.00100002 -6.51927e-08 0)
(0.00100003 -7.69601e-08 0)
(0.00100004 -9.14324e-08 0)
(0.00100005 -1.05375e-07 0)
(0.00100007 -1.24779e-07 0)
(0.00100009 -1.41843e-07 0)
(0.00100011 -1.70095e-07 0)
(0.00100013 -1.90652e-07 0)
(0.00100016 -2.34146e-07 0)
(0.00100018 -2.56213e-07 0)
(0.00100024 -3.27147e-07 0)
(0.00100025 -3.4271e-07 0)
(0.00100033 -4.65195e-07 0)
(0.001 -2.48466e-09 0)
(0.001 -7.38084e-09 0)
(0.001 -1.21359e-08 0)
(0.001 -1.71061e-08 0)
(0.00100001 -2.22523e-08 0)
(0.00100001 -2.81528e-08 0)
(0.00100002 -3.43759e-08 0)
(0.00100002 -4.20035e-08 0)
(0.00100003 -4.9792e-08 0)
(0.00100004 -6.04827e-08 0)
(0.00100005 -7.09253e-08 0)
(0.00100006 -8.73372e-08 0)
(0.00100008 -1.01941e-07 0)
(0.0010001 -1.28344e-07 0)
(0.00100011 -1.47621e-07 0)
(0.00100014 -1.90156e-07 0)
(0.00100016 -2.11706e-07 0)
(0.0010002 -2.81427e-07 0)
(0.00100021 -2.96239e-07 0)
(0.00100027 -4.16042e-07 0)
(0.001 -2.78878e-09 0)
(0.001 -8.67204e-09 0)
(0.001 -1.49893e-08 0)
(0.001 -2.21525e-08 0)
(0.00100001 -3.01517e-08 0)
(0.00100001 -3.9488e-08 0)
(0.00100001 -4.95752e-08 0)
(0.00100002 -6.1407e-08 0)
(0.00100002 -7.36649e-08 0)
(0.00100003 -8.90012e-08 0)
(0.00100004 -1.04221e-07 0)
(0.00100005 -1.25598e-07 0)
(0.00100006 -1.45178e-07 0)
(0.00100007 -1.76761e-07 0)
(0.00100009 -2.01076e-07 0)
(0.00100011 -2.48968e-07 0)
(0.00100012 -2.75306e-07 0)
(0.00100015 -3.50376e-07 0)
(0.00100016 -3.68881e-07 0)
(0.00100021 -4.93309e-07 0)
(0.001 -3.0578e-09 0)
(0.001 -9.52111e-09 0)
(0.001 -1.6372e-08 0)
(0.001 -2.39591e-08 0)
(0.001 -3.21626e-08 0)
(0.00100001 -4.14881e-08 0)
(0.00100001 -5.12881e-08 0)
(0.00100001 -6.26696e-08 0)
(0.00100002 -7.43594e-08 0)
(0.00100002 -8.91093e-08 0)
(0.00100003 -1.03866e-07 0)
(0.00100004 -1.2492e-07 0)
(0.00100004 -1.44435e-07 0)
(0.00100005 -1.76133e-07 0)
(0.00100006 -2.00867e-07 0)
(0.00100008 -2.49068e-07 0)
(0.00100009 -2.76024e-07 0)
(0.00100011 -3.50861e-07 0)
(0.00100012 -3.6958e-07 0)
(0.00100015 -4.92062e-07 0)
(0.001 -3.21403e-09 0)
(0.001 -1.00044e-08 0)
(0.001 -1.71534e-08 0)
(0.001 -2.50338e-08 0)
(0.001 -3.35246e-08 0)
(0.001 -4.32324e-08 0)
(0.00100001 -5.35717e-08 0)
(0.00100001 -6.57314e-08 0)
(0.00100001 -7.83865e-08 0)
(0.00100001 -9.43284e-08 0)
(0.00100002 -1.10403e-07 0)
(0.00100002 -1.32925e-07 0)
(0.00100003 -1.5396e-07 0)
(0.00100003 -1.8739e-07 0)
(0.00100004 -2.13785e-07 0)
(0.00100005 -2.63921e-07 0)
(0.00100005 -2.92473e-07 0)
(0.00100007 -3.69337e-07 0)
(0.00100007 -3.89146e-07 0)
(0.00100009 -5.13784e-07 0)
(0.001 -3.28486e-09 0)
(0.001 -1.02266e-08 0)
(0.001 -1.75299e-08 0)
(0.001 -2.55791e-08 0)
(0.001 -3.43081e-08 0)
(0.001 -4.43272e-08 0)
(0.001 -5.50407e-08 0)
(0.001 -6.75715e-08 0)
(0.001 -8.05817e-08 0)
(0.001 -9.6859e-08 0)
(0.00100001 -1.13278e-07 0)
(0.00100001 -1.3615e-07 0)
(0.00100001 -1.57602e-07 0)
(0.00100001 -1.91438e-07 0)
(0.00100001 -2.1831e-07 0)
(0.00100002 -2.68782e-07 0)
(0.00100002 -2.97766e-07 0)
(0.00100002 -3.74682e-07 0)
(0.00100002 -3.94787e-07 0)
(0.00100003 -5.1878e-07 0)
(0.001 -3.28615e-09 0)
(0.001 -1.0221e-08 0)
(0.001 -1.75313e-08 0)
(0.001 -2.55754e-08 0)
(0.000999999 -3.43072e-08 0)
(0.000999999 -4.43234e-08 0)
(0.000999998 -5.50453e-08 0)
(0.000999997 -6.757e-08 0)
(0.000999996 -8.05856e-08 0)
(0.000999995 -9.68593e-08 0)
(0.000999994 -1.13272e-07 0)
(0.000999993 -1.36155e-07 0)
(0.000999991 -1.57609e-07 0)
(0.000999989 -1.91441e-07 0)
(0.000999987 -2.18323e-07 0)
(0.000999984 -2.68802e-07 0)
(0.000999982 -2.97776e-07 0)
(0.000999978 -3.74676e-07 0)
(0.000999977 -3.94777e-07 0)
(0.00099997 -5.18773e-07 0)
(0.001 -3.21613e-09 0)
(0.001 -9.99437e-09 0)
(0.000999999 -1.71559e-08 0)
(0.000999999 -2.50217e-08 0)
(0.000999997 -3.35254e-08 0)
(0.000999996 -4.32238e-08 0)
(0.000999994 -5.35841e-08 0)
(0.000999992 -6.57311e-08 0)
(0.000999989 -7.8394e-08 0)
(0.000999986 -9.43359e-08 0)
(0.000999983 -1.10393e-07 0)
(0.000999978 -1.32923e-07 0)
(0.000999973 -1.53965e-07 0)
(0.000999967 -1.87389e-07 0)
(0.000999961 -2.13807e-07 0)
(0.000999952 -2.63946e-07 0)
(0.000999946 -2.92481e-07 0)
(0.000999933 -3.69299e-07 0)
(0.00099993 -3.89103e-07 0)
(0.000999911 -5.1372e-07 0)
(0.001 -3.05749e-09 0)
(0.001 -9.51792e-09 0)
(0.000999999 -1.63704e-08 0)
(0.000999998 -2.39525e-08 0)
(0.000999996 -3.21679e-08 0)
(0.000999994 -4.14817e-08 0)
(0.000999991 -5.12948e-08 0)
(0.000999987 -6.26772e-08 0)
(0.000999982 -7.43585e-08 0)
(0.000999977 -8.91271e-08 0)
(0.000999971 -1.03876e-07 0)
(0.000999963 -1.24914e-07 0)
(0.000999956 -1.44428e-07 0)
(0.000999945 -1.76132e-07 0)
(0.000999936 -2.00889e-07 0)
(0.000999921 -2.49097e-07 0)
(0.000999911 -2.7605e-07 0)
(0.00099989 -3.5086e-07 0)
(0.000999882 -3.69575e-07 0)
(0.000999851 -4.92045e-07 0)
(0.001 -2.78423e-09 0)
(0.000999999 -8.67622e-09 0)
(0.000999998 -1.49898e-08 0)
(0.000999997 -2.21687e-08 0)
(0.000999994 -3.01463e-08 0)
(0.000999991 -3.94884e-08 0)
(0.000999987 -4.95518e-08 0)
(0.000999982 -6.14111e-08 0)
(0.000999977 -7.36434e-08 0)
(0.000999969 -8.89869e-08 0)
(0.000999962 -1.04229e-07 0)
(0.000999951 -1.25579e-07 0)
(0.000999941 -1.45139e-07 0)
(0.000999925 -1.76707e-07 0)
(0.000999913 -2.01033e-07 0)
(0.000999891 -2.48916e-07 0)
(0.000999878 -2.7527e-07 0)
(0.000999847 -3.50301e-07 0)
(0.000999839 -3.6881e-07 0)
(0.000999792 -4.93167e-07 0)
(0.001 -2.47714e-09 0)
(0.000999999 -7.38854e-09 0)
(0.000999998 -1.2149e-08 0)
(0.000999995 -1.71291e-08 0)
(0.000999992 -2.22406e-08 0)
(0.000999987 -2.81736e-08 0)
(0.000999982 -3.43497e-08 0)
(0.000999975 -4.20099e-08 0)
(0.000999968 -4.98015e-08 0)
(0.000999958 -6.04679e-08 0)
(0.000999948 -7.09386e-08 0)
(0.000999935 -8.73566e-08 0)
(0.000999922 -1.01947e-07 0)
(0.000999903 -1.2833e-07 0)
(0.000999887 -1.47603e-07 0)
(0.00099986 -1.90137e-07 0)
(0.000999841 -2.11713e-07 0)
(0.000999802 -2.81435e-07 0)
(0.000999787 -2.96257e-07 0)
(0.000999731 -4.16031e-07 0)
(0.001 -2.84807e-09 0)
(0.001 -9.11594e-09 0)
(0.000999999 -1.61803e-08 0)
(0.000999997 -2.43112e-08 0)
(0.000999994 -3.31881e-08 0)
(0.00099999 -4.31347e-08 0)
(0.000999984 -5.34364e-08 0)
(0.000999977 -6.51543e-08 0)
(0.000999969 -7.69745e-08 0)
(0.000999958 -9.14166e-08 0)
(0.000999946 -1.05358e-07 0)
(0.00099993 -1.24777e-07 0)
(0.000999915 -1.41852e-07 0)
(0.000999891 -1.7007e-07 0)
(0.000999872 -1.90614e-07 0)
(0.000999837 -2.3407e-07 0)
(0.000999817 -2.56164e-07 0)
(0.000999764 -3.27063e-07 0)
(0.000999752 -3.42658e-07 0)
(0.000999669 -4.65043e-07 0)
(0.001 -1.18515e-10 0)
(0.000999998 4.87148e-11 0)
(0.000999995 6.80558e-10 0)
(0.000999991 1.25142e-09 0)
(0.000999986 1.65298e-09 0)
(0.00099998 1.34808e-09 0)
(0.000999974 7.10989e-10 0)
(0.000999965 -1.1016e-09 0)
(0.000999955 -2.99619e-09 0)
(0.000999943 -7.34621e-09 0)
(0.000999929 -1.10531e-08 0)
(0.000999911 -1.99531e-08 0)
(0.000999894 -2.64129e-08 0)
(0.000999867 -4.35604e-08 0)
(0.000999845 -5.30627e-08 0)
(0.000999806 -8.48341e-08 0)
(0.000999779 -9.58996e-08 0)
(0.00099972 -1.55217e-07 0)
(0.000999698 -1.62059e-07 0)
(0.000999611 -2.76519e-07 0)
(0.001 -3.95334e-09 0)
(0.001 -1.29674e-08 0)
(0.001 -2.30383e-08 0)
(0.000999999 -3.37582e-08 0)
(0.000999995 -4.45034e-08 0)
(0.00099999 -5.54746e-08 0)
(0.000999983 -6.63444e-08 0)
(0.000999974 -7.7947e-08 0)
(0.000999963 -8.9285e-08 0)
(0.000999949 -1.02687e-07 0)
(0.000999935 -1.15075e-07 0)
(0.000999914 -1.31944e-07 0)
(0.000999896 -1.45885e-07 0)
(0.000999864 -1.69471e-07 0)
(0.000999841 -1.84796e-07 0)
(0.000999792 -2.21065e-07 0)
(0.000999767 -2.36047e-07 0)
(0.000999687 -2.98002e-07 0)
(0.000999671 -3.07056e-07 0)
(0.000999538 -4.22604e-07 0)
(0.001 3.97426e-09 0)
(0.000999996 1.21451e-08 0)
(0.000999992 2.02891e-08 0)
(0.000999987 2.79774e-08 0)
(0.000999982 3.52566e-08 0)
(0.000999976 4.17104e-08 0)
(0.000999969 4.79131e-08 0)
(0.000999959 5.29731e-08 0)
(0.000999948 5.83372e-08 0)
(0.000999933 6.22685e-08 0)
(0.000999919 6.6987e-08 0)
(0.000999897 6.8678e-08 0)
(0.000999877 7.2836e-08 0)
(0.000999845 7.00443e-08 0)
(0.000999819 7.41617e-08 0)
(0.000999768 6.18115e-08 0)
(0.000999738 6.71752e-08 0)
(0.000999654 3.17943e-08 0)
(0.000999629 3.97327e-08 0)
(0.000999495 -5.46489e-08 0)
(0.001 -8.73538e-09 0)
(0.001 -2.37378e-08 0)
(0.001 -3.6038e-08 0)
(0.000999998 -4.69355e-08 0)
(0.000999993 -5.72123e-08 0)
(0.000999986 -6.78556e-08 0)
(0.000999979 -7.83417e-08 0)
(0.000999968 -8.96938e-08 0)
(0.000999958 -1.003e-07 0)
(0.000999942 -1.12033e-07 0)
(0.000999928 -1.22548e-07 0)
(0.000999903 -1.35911e-07 0)
(0.000999886 -1.46224e-07 0)
(0.000999846 -1.63136e-07 0)
(0.000999826 -1.72108e-07 0)
(0.00099976 -1.96424e-07 0)
(0.000999742 -2.01126e-07 0)
(0.000999623 -2.4341e-07 0)
(0.000999618 -2.39712e-07 0)
(0.000999393 -3.32184e-07 0)
)
;

boundaryField
{
    sides
    {
        type            slip;
    }
    inlet
    {
        type            fixedValue;
        value           uniform (0.001 0 0);
    }
    outlet
    {
        type            zeroGradient;
    }
    frontAndBack
    {
        type            empty;
    }
}


// ************************************************************************* //
