/*--------------------------------*- C++ -*----------------------------------*\
  =========                 |
  \\      /  F ield         | OpenFOAM: The Open Source CFD Toolbox
   \\    /   O peration     | Website:  https://openfoam.org
    \\  /    A nd           | Version:  7
     \\/     M anipulation  |
\*---------------------------------------------------------------------------*/
FoamFile
{
    version     2.0;
    format      ascii;
    class       surfaceScalarField;
    location    "57";
    object      phi_0;
}
// * * * * * * * * * * * * * * * * * * * * * * * * * * * * * * * * * * * * * //

dimensions      [0 4 -1 0 0 0 0];

internalField   nonuniform List<scalar> 
760
(
4.99999e-06
1.0092e-11
4.99999e-06
-4.32873e-12
5.00001e-06
-1.27842e-11
5.00003e-06
-1.96372e-11
5.00005e-06
-2.7403e-11
5.00009e-06
-3.32484e-11
5.00013e-06
-4.02548e-11
5.00018e-06
-6.01904e-11
5.00025e-06
-6.3817e-11
5.00033e-06
-7.84785e-11
5.00042e-06
-8.98602e-11
5.00053e-06
-1.13297e-10
5.00066e-06
-1.2589e-10
5.00082e-06
-1.66866e-10
5.001e-06
-1.77402e-10
5.00126e-06
-2.56689e-10
5.00151e-06
-2.56756e-10
5.00195e-06
-4.32555e-10
5.00236e-06
-4.15637e-10
-8.92587e-10
5.00002e-06
-1.16721e-11
5.00004e-06
-1.8762e-11
5.00005e-06
-2.91197e-11
5.00007e-06
-4.18965e-11
5.0001e-06
-5.51261e-11
5.00014e-06
-7.07566e-11
5.00018e-06
-8.63473e-11
5.00023e-06
-1.06399e-10
5.00029e-06
-1.25186e-10
5.00037e-06
-1.53845e-10
5.00046e-06
-1.76493e-10
5.00056e-06
-2.20565e-10
5.00069e-06
-2.4811e-10
5.00084e-06
-3.22069e-10
5.00102e-06
-3.52499e-10
5.00125e-06
-4.85716e-10
5.0015e-06
-5.10361e-10
5.00184e-06
-7.69444e-10
5.00218e-06
-7.62792e-10
-1.2639e-09
4.99999e-06
-4.45265e-12
4.99999e-06
-2.00059e-11
5e-06
-3.73839e-11
5.00002e-06
-5.69776e-11
5.00004e-06
-7.7601e-11
5.00007e-06
-1.01283e-10
5.00011e-06
-1.25191e-10
5.00016e-06
-1.54945e-10
5.00022e-06
-1.84795e-10
5.00029e-06
-2.24697e-10
5.00037e-06
-2.61496e-10
5.00047e-06
-3.20996e-10
5.00059e-06
-3.68575e-10
5.00074e-06
-4.64383e-10
5.00091e-06
-5.23636e-10
5.00111e-06
-6.8628e-10
5.00135e-06
-7.49772e-10
5.00162e-06
-1.04363e-09
5.00195e-06
-1.08789e-09
-1.69259e-09
5.00001e-06
-1.23896e-11
5.00002e-06
-3.2651e-11
5.00004e-06
-5.37836e-11
5.00006e-06
-7.78096e-11
5.00008e-06
-1.03262e-10
5.00011e-06
-1.33259e-10
5.00015e-06
-1.6389e-10
5.0002e-06
-2.02031e-10
5.00025e-06
-2.39245e-10
5.00032e-06
-2.89999e-10
5.00039e-06
-3.37226e-10
5.00049e-06
-4.12103e-10
5.00059e-06
-4.73752e-10
5.00072e-06
-5.92178e-10
5.00087e-06
-6.69941e-10
5.00104e-06
-8.64347e-10
5.00124e-06
-9.49247e-10
5.00148e-06
-1.28317e-09
5.00173e-06
-1.33742e-09
-1.90194e-09
5e-06
-1.13331e-11
5e-06
-3.57244e-11
5.00001e-06
-6.14616e-11
5.00002e-06
-9.0321e-11
5.00004e-06
-1.21549e-10
5.00006e-06
-1.57485e-10
5.00009e-06
-1.95627e-10
5.00013e-06
-2.40886e-10
5.00018e-06
-2.86961e-10
5.00024e-06
-3.4697e-10
5.00031e-06
-4.05466e-10
5.00039e-06
-4.92e-10
5.00048e-06
-5.68941e-10
5.00059e-06
-7.02404e-10
5.00072e-06
-8.00217e-10
5.00087e-06
-1.01169e-09
5.00104e-06
-1.11919e-09
5.00122e-06
-1.46522e-09
5.00143e-06
-1.53983e-09
-2.16747e-09
5e-06
-1.33748e-11
5.00001e-06
-4.21133e-11
5.00002e-06
-7.20421e-11
5.00003e-06
-1.04943e-10
5.00005e-06
-1.40618e-10
5.00008e-06
-1.815e-10
5.00011e-06
-2.25004e-10
5.00014e-06
-2.76212e-10
5.00018e-06
-3.28697e-10
5.00023e-06
-3.96162e-10
5.00029e-06
-4.62372e-10
5.00036e-06
-5.59226e-10
5.00043e-06
-6.46641e-10
5.00053e-06
-7.94132e-10
5.00063e-06
-9.04744e-10
5.00075e-06
-1.13347e-09
5.00089e-06
-1.25446e-09
5.00104e-06
-1.62042e-09
5.00121e-06
-1.70577e-09
-2.29907e-09
5e-06
-1.50292e-11
5.00001e-06
-4.64432e-11
5.00001e-06
-7.93058e-11
5.00002e-06
-1.15069e-10
5.00004e-06
-1.53881e-10
5.00005e-06
-1.98687e-10
5.00007e-06
-2.46473e-10
5.0001e-06
-3.02626e-10
5.00013e-06
-3.60795e-10
5.00017e-06
-4.34343e-10
5.00022e-06
-5.07826e-10
5.00027e-06
-6.12478e-10
5.00033e-06
-7.08999e-10
5.00041e-06
-8.65834e-10
5.00049e-06
-9.87497e-10
5.00058e-06
-1.22645e-09
5.00069e-06
-1.35888e-09
5.0008e-06
-1.7312e-09
5.00091e-06
-1.82112e-09
-2.44804e-09
5e-06
-1.59865e-11
5e-06
-4.93808e-11
5.00001e-06
-8.41968e-11
5.00002e-06
-1.22514e-10
5.00003e-06
-1.6404e-10
5.00004e-06
-2.11949e-10
5.00006e-06
-2.63043e-10
5.00008e-06
-3.22943e-10
5.0001e-06
-3.84944e-10
5.00013e-06
-4.62866e-10
5.00016e-06
-5.41141e-10
5.0002e-06
-6.51269e-10
5.00025e-06
-7.5371e-10
5.0003e-06
-9.1762e-10
5.00036e-06
-1.0463e-09
5.00042e-06
-1.29306e-09
5.0005e-06
-1.43224e-09
5.00058e-06
-1.81244e-09
5.00067e-06
-1.91029e-09
-2.52267e-09
5e-06
-1.64972e-11
5e-06
-5.11159e-11
5.00001e-06
-8.7269e-11
5.00001e-06
-1.27204e-10
5.00002e-06
-1.70505e-10
5.00002e-06
-2.20177e-10
5.00003e-06
-2.73142e-10
5.00005e-06
-3.35109e-10
5.00006e-06
-3.9937e-10
5.00008e-06
-4.79947e-10
5.0001e-06
-5.61156e-10
5.00012e-06
-6.74568e-10
5.00015e-06
-7.80729e-10
5.00018e-06
-9.48775e-10
5.00022e-06
-1.08173e-09
5.00026e-06
-1.33281e-09
5.0003e-06
-1.47616e-09
5.00035e-06
-1.8597e-09
5.00039e-06
-1.95782e-09
-2.57878e-09
5e-06
-1.66687e-11
5e-06
-5.1682e-11
5e-06
-8.83568e-11
5e-06
-1.28803e-10
5.00001e-06
-1.72662e-10
5.00001e-06
-2.22864e-10
5.00001e-06
-2.76476e-10
5.00002e-06
-3.39139e-10
5.00002e-06
-4.04258e-10
5.00003e-06
-4.85743e-10
5.00003e-06
-5.67925e-10
5.00004e-06
-6.82424e-10
5.00005e-06
-7.89774e-10
5.00006e-06
-9.59065e-10
5.00007e-06
-1.09349e-09
5.00008e-06
-1.34596e-09
5.0001e-06
-1.49074e-09
5.00011e-06
-1.87511e-09
5.00013e-06
-1.97529e-09
-2.59519e-09
5e-06
-1.65116e-11
5e-06
-5.10619e-11
5e-06
-8.72827e-11
5e-06
-1.27167e-10
4.99999e-06
-1.70497e-10
4.99999e-06
-2.2014e-10
4.99999e-06
-2.73186e-10
4.99998e-06
-3.35095e-10
4.99998e-06
-3.99408e-10
4.99997e-06
-4.79952e-10
4.99997e-06
-5.61105e-10
4.99996e-06
-6.74611e-10
4.99995e-06
-7.80796e-10
4.99994e-06
-9.48804e-10
4.99993e-06
-1.08186e-09
4.99991e-06
-1.33299e-09
4.9999e-06
-1.47626e-09
4.99988e-06
-1.85961e-09
4.99987e-06
-1.95771e-09
-2.57863e-09
5e-06
-1.59937e-11
5e-06
-4.93354e-11
4.99999e-06
-8.42089e-11
4.99999e-06
-1.22431e-10
4.99998e-06
-1.64058e-10
4.99998e-06
-2.11901e-10
4.99997e-06
-2.63117e-10
4.99995e-06
-3.22955e-10
4.99994e-06
-3.84978e-10
4.99992e-06
-4.62941e-10
4.9999e-06
-5.4111e-10
4.99988e-06
-6.51224e-10
4.99985e-06
-7.53705e-10
4.99982e-06
-9.17629e-10
4.99978e-06
-1.04643e-09
4.99974e-06
-1.2932e-09
4.9997e-06
-1.43231e-09
4.99965e-06
-1.8123e-09
4.99961e-06
-1.91012e-09
-2.52244e-09
5e-06
-1.50168e-11
5e-06
-4.64549e-11
4.99999e-06
-7.9277e-11
4.99998e-06
-1.15091e-10
4.99997e-06
-1.53926e-10
4.99996e-06
-1.98671e-10
4.99994e-06
-2.46455e-10
4.99992e-06
-3.02673e-10
4.9999e-06
-3.60729e-10
4.99987e-06
-4.34406e-10
4.99984e-06
-5.07924e-10
4.9998e-06
-6.12403e-10
4.99975e-06
-7.08855e-10
4.9997e-06
-8.657e-10
4.99964e-06
-9.87464e-10
4.99958e-06
-1.22642e-09
4.9995e-06
-1.35888e-09
4.99942e-06
-1.73105e-09
4.99933e-06
-1.82097e-09
-2.44768e-09
5e-06
-1.33398e-11
4.99999e-06
-4.21387e-11
4.99999e-06
-7.20759e-11
4.99998e-06
-1.05101e-10
4.99996e-06
-1.40522e-10
4.99995e-06
-1.81552e-10
4.99993e-06
-2.24819e-10
4.9999e-06
-2.76257e-10
4.99987e-06
-3.28612e-10
4.99983e-06
-3.96025e-10
4.99978e-06
-4.6244e-10
4.99973e-06
-5.59239e-10
4.99967e-06
-6.46528e-10
4.99959e-06
-7.9391e-10
4.99951e-06
-9.0454e-10
4.99942e-06
-1.13325e-09
4.99931e-06
-1.25437e-09
4.9992e-06
-1.62024e-09
4.99909e-06
-1.70561e-09
-2.29866e-09
5e-06
-1.12901e-11
4.99999e-06
-3.57799e-11
4.99998e-06
-6.15604e-11
4.99997e-06
-9.03416e-11
4.99995e-06
-1.2147e-10
4.99992e-06
-1.57615e-10
4.99989e-06
-1.95482e-10
4.99986e-06
-2.40829e-10
4.99982e-06
-2.87086e-10
4.99977e-06
-3.46878e-10
4.99971e-06
-4.05433e-10
4.99964e-06
-4.9206e-10
4.99957e-06
-5.68995e-10
4.99947e-06
-7.02293e-10
4.99937e-06
-8.0004e-10
4.99925e-06
-1.01143e-09
4.99911e-06
-1.11907e-09
4.99896e-06
-1.46502e-09
4.99879e-06
-1.53974e-09
-2.16705e-09
5e-06
-1.2378e-11
5e-06
-3.27091e-11
4.99999e-06
-5.38048e-11
4.99998e-06
-7.76573e-11
4.99996e-06
-1.03355e-10
4.99994e-06
-1.33198e-10
4.9999e-06
-1.64162e-10
4.99987e-06
-2.01747e-10
4.99982e-06
-2.39356e-10
4.99976e-06
-2.90048e-10
4.99969e-06
-3.37174e-10
4.99961e-06
-4.12123e-10
4.99952e-06
-4.73882e-10
4.99941e-06
-5.922e-10
4.99928e-06
-6.69882e-10
4.99913e-06
-8.64096e-10
4.99896e-06
-9.49089e-10
4.99878e-06
-1.28289e-09
4.99857e-06
-1.33727e-09
-1.90145e-09
4.99999e-06
-4.51525e-12
4.99998e-06
-2.00115e-11
4.99996e-06
-3.72927e-11
4.99994e-06
-5.68985e-11
4.99992e-06
-7.77801e-11
4.99989e-06
-1.01295e-10
4.99985e-06
-1.26169e-10
4.9998e-06
-1.55263e-10
4.99975e-06
-1.84721e-10
4.99968e-06
-2.24789e-10
4.99961e-06
-2.61525e-10
4.99951e-06
-3.21014e-10
4.99941e-06
-3.6872e-10
4.99928e-06
-4.64517e-10
4.99913e-06
-5.2376e-10
4.99896e-06
-6.8618e-10
4.99876e-06
-7.49708e-10
4.99852e-06
-1.04338e-09
4.99827e-06
-1.08779e-09
-1.6922e-09
5.00001e-06
-1.17314e-11
5.00001e-06
-1.85996e-11
5e-06
-2.89539e-11
4.99998e-06
-4.20227e-11
4.99996e-06
-5.52475e-11
4.99993e-06
-7.04946e-11
4.99989e-06
-8.65445e-11
4.99984e-06
-1.0726e-10
4.99978e-06
-1.2517e-10
4.99971e-06
-1.53807e-10
4.99963e-06
-1.76476e-10
4.99953e-06
-2.20444e-10
4.99941e-06
-2.48082e-10
4.99926e-06
-3.22081e-10
4.99909e-06
-3.52643e-10
4.99889e-06
-4.85658e-10
4.99865e-06
-5.10346e-10
4.99838e-06
-7.69122e-10
4.99805e-06
-7.62624e-10
-1.26339e-09
4.99998e-06
9.99504e-12
4.99996e-06
-4.14851e-12
4.99995e-06
-1.28374e-11
4.99993e-06
-1.99132e-11
4.9999e-06
-2.6979e-11
4.99986e-06
-3.20352e-11
4.99982e-06
-4.41657e-11
4.99977e-06
-5.06571e-11
4.99971e-06
-6.35391e-11
4.99963e-06
-7.84485e-11
4.99954e-06
-8.98246e-11
4.99944e-06
-1.13209e-10
4.99931e-06
-1.25884e-10
4.99916e-06
-1.66956e-10
4.99898e-06
-1.77612e-10
4.99876e-06
-2.56827e-10
4.9985e-06
-2.56872e-10
4.99816e-06
-4.32511e-10
4.99782e-06
-4.15644e-10
-8.92555e-10
5.00001e-06
5.00001e-06
4.99999e-06
4.99998e-06
4.99995e-06
4.99991e-06
4.99987e-06
4.99982e-06
4.99975e-06
4.99967e-06
4.99958e-06
4.99947e-06
4.99934e-06
4.99918e-06
4.999e-06
4.99874e-06
4.99849e-06
4.99805e-06
4.99764e-06
)
;

boundaryField
{
    sides
    {
        type            calculated;
        value           uniform 0;
    }
    inlet
    {
        type            calculated;
        value           nonuniform List<scalar> 
20
(
-5e-06
-5e-06
-5e-06
-5e-06
-5e-06
-5e-06
-5e-06
-5e-06
-5e-06
-5e-06
-5e-06
-5e-06
-5e-06
-5e-06
-5e-06
-5e-06
-5e-06
-5e-06
-5e-06
-5e-06
)
;
    }
    outlet
    {
        type            calculated;
        value           nonuniform List<scalar> 
20
(
5.00326e-06
5.00256e-06
5.00238e-06
5.00194e-06
5.00169e-06
5.00134e-06
5.00106e-06
5.00074e-06
5.00045e-06
5.00015e-06
4.99985e-06
4.99955e-06
4.99926e-06
4.99894e-06
4.99866e-06
4.99831e-06
4.99806e-06
4.99762e-06
4.99745e-06
4.99674e-06
)
;
    }
    frontAndBack
    {
        type            empty;
        value           nonuniform 0();
    }
}


// ************************************************************************* //
