/*--------------------------------*- C++ -*----------------------------------*\
  =========                 |
  \\      /  F ield         | OpenFOAM: The Open Source CFD Toolbox
   \\    /   O peration     | Website:  https://openfoam.org
    \\  /    A nd           | Version:  7
     \\/     M anipulation  |
\*---------------------------------------------------------------------------*/
FoamFile
{
    version     2.0;
    format      ascii;
    class       volVectorField;
    location    "57";
    object      U;
}
// * * * * * * * * * * * * * * * * * * * * * * * * * * * * * * * * * * * * * //

dimensions      [0 1 -1 0 0 0 0];

internalField   nonuniform List<vector> 
400
(
(0.0999931 -8.72531e-07 0)
(0.099993 -2.37446e-06 0)
(0.099993 -3.60028e-06 0)
(0.0999934 -4.6849e-06 0)
(0.0999939 -5.71985e-06 0)
(0.0999946 -6.78214e-06 0)
(0.0999954 -7.86746e-06 0)
(0.0999966 -8.97669e-06 0)
(0.0999978 -1.00351e-05 0)
(0.0999996 -1.12072e-05 0)
(0.100001 -1.22561e-05 0)
(0.100004 -1.35897e-05 0)
(0.100006 -1.46167e-05 0)
(0.10001 -1.63039e-05 0)
(0.100013 -1.71985e-05 0)
(0.10002 -1.96299e-05 0)
(0.100022 -2.01016e-05 0)
(0.100035 -2.43311e-05 0)
(0.100036 -2.39631e-05 0)
(0.10006 -3.32083e-05 0)
(0.0999943 3.98114e-07 0)
(0.0999947 1.21125e-06 0)
(0.0999952 2.02964e-06 0)
(0.0999957 2.80321e-06 0)
(0.0999962 3.5224e-06 0)
(0.0999969 4.17227e-06 0)
(0.0999977 4.76177e-06 0)
(0.0999988 5.29277e-06 0)
(0.1 5.83019e-06 0)
(0.100002 6.22319e-06 0)
(0.100003 6.69541e-06 0)
(0.100006 6.86342e-06 0)
(0.100008 7.28165e-06 0)
(0.100012 7.00493e-06 0)
(0.100014 7.41989e-06 0)
(0.10002 6.18211e-06 0)
(0.100024 6.71828e-06 0)
(0.100033 3.17325e-06 0)
(0.100036 3.96877e-06 0)
(0.10005 -5.47784e-06 0)
(0.0999947 -3.94355e-07 0)
(0.0999947 -1.29563e-06 0)
(0.0999947 -2.30107e-06 0)
(0.0999949 -3.37067e-06 0)
(0.0999953 -4.44197e-06 0)
(0.0999959 -5.53896e-06 0)
(0.0999966 -6.61505e-06 0)
(0.0999977 -7.78548e-06 0)
(0.0999988 -8.92577e-06 0)
(0.1 -1.02688e-05 0)
(0.100002 -1.15085e-05 0)
(0.100004 -1.31959e-05 0)
(0.100006 -1.45854e-05 0)
(0.10001 -1.694e-05 0)
(0.100012 -1.84683e-05 0)
(0.100018 -2.20972e-05 0)
(0.100021 -2.35954e-05 0)
(0.100029 -2.97986e-05 0)
(0.100032 -3.07029e-05 0)
(0.100046 -4.22718e-05 0)
(0.0999956 -9.66765e-09 0)
(0.0999958 8.76174e-09 0)
(0.0999961 7.20369e-08 0)
(0.0999966 1.30582e-07 0)
(0.0999971 1.77891e-07 0)
(0.0999978 1.44732e-07 0)
(0.0999985 9.01765e-08 0)
(0.0999995 -1.02575e-07 0)
(0.100001 -2.97095e-07 0)
(0.100002 -7.34188e-07 0)
(0.100003 -1.10661e-06 0)
(0.100005 -1.99502e-06 0)
(0.100007 -2.63605e-06 0)
(0.10001 -4.34717e-06 0)
(0.100013 -5.29609e-06 0)
(0.100017 -8.47394e-06 0)
(0.10002 -9.58189e-06 0)
(0.100027 -1.55184e-05 0)
(0.100029 -1.62043e-05 0)
(0.100039 -2.76622e-05 0)
(0.0999962 -2.83506e-07 0)
(0.0999963 -9.08612e-07 0)
(0.0999963 -1.61373e-06 0)
(0.0999965 -2.42615e-06 0)
(0.0999969 -3.30986e-06 0)
(0.0999974 -4.30495e-06 0)
(0.099998 -5.33336e-06 0)
(0.0999988 -6.51217e-06 0)
(0.0999997 -7.69546e-06 0)
(0.100001 -9.14389e-06 0)
(0.100002 -1.054e-05 0)
(0.100004 -1.24798e-05 0)
(0.100006 -1.41825e-05 0)
(0.100008 -1.70021e-05 0)
(0.100011 -1.90549e-05 0)
(0.100014 -2.34014e-05 0)
(0.100017 -2.56101e-05 0)
(0.100022 -3.27072e-05 0)
(0.100024 -3.42671e-05 0)
(0.100033 -4.65242e-05 0)
(0.0999969 -2.47037e-07 0)
(0.099997 -7.33688e-07 0)
(0.0999972 -1.2052e-06 0)
(0.0999975 -1.69979e-06 0)
(0.0999979 -2.21036e-06 0)
(0.0999983 -2.8027e-06 0)
(0.0999989 -3.42526e-06 0)
(0.0999997 -4.19656e-06 0)
(0.100001 -4.97968e-06 0)
(0.100002 -6.05303e-06 0)
(0.100003 -7.10008e-06 0)
(0.100004 -8.73812e-06 0)
(0.100006 -1.01922e-05 0)
(0.100008 -1.28249e-05 0)
(0.10001 -1.47487e-05 0)
(0.100013 -1.89987e-05 0)
(0.100015 -2.11569e-05 0)
(0.100019 -2.8133e-05 0)
(0.100021 -2.96191e-05 0)
(0.100027 -4.16115e-05 0)
(0.0999976 -2.77931e-07 0)
(0.0999977 -8.62769e-07 0)
(0.0999978 -1.49078e-06 0)
(0.099998 -2.20436e-06 0)
(0.0999983 -3.00168e-06 0)
(0.0999986 -3.93452e-06 0)
(0.099999 -4.94534e-06 0)
(0.0999996 -6.13435e-06 0)
(0.1 -7.36392e-06 0)
(0.100001 -8.90405e-06 0)
(0.100002 -1.04282e-05 0)
(0.100003 -1.25628e-05 0)
(0.100004 -1.45162e-05 0)
(0.100006 -1.76679e-05 0)
(0.100007 -2.00956e-05 0)
(0.10001 -2.48811e-05 0)
(0.100011 -2.75169e-05 0)
(0.100015 -3.50269e-05 0)
(0.100016 -3.68808e-05 0)
(0.100021 -4.93363e-05 0)
(0.0999983 -3.04786e-07 0)
(0.0999984 -9.46652e-07 0)
(0.0999984 -1.62788e-06 0)
(0.0999986 -2.3821e-06 0)
(0.0999988 -3.20105e-06 0)
(0.099999 -4.13302e-06 0)
(0.0999993 -5.11785e-06 0)
(0.0999998 -6.26172e-06 0)
(0.1 -7.43759e-06 0)
(0.100001 -8.9189e-06 0)
(0.100002 -1.03949e-05 0)
(0.100002 -1.24971e-05 0)
(0.100003 -1.44429e-05 0)
(0.100004 -1.76041e-05 0)
(0.100005 -2.00729e-05 0)
(0.100007 -2.48884e-05 0)
(0.100008 -2.75866e-05 0)
(0.100011 -3.50736e-05 0)
(0.100012 -3.69498e-05 0)
(0.100015 -4.9213e-05 0)
(0.099999 -3.19787e-07 0)
(0.099999 -9.94152e-07 0)
(0.0999991 -1.70547e-06 0)
(0.0999991 -2.48961e-06 0)
(0.0999993 -3.33682e-06 0)
(0.0999994 -4.30777e-06 0)
(0.0999996 -5.34585e-06 0)
(0.0999999 -6.56698e-06 0)
(0.1 -7.84006e-06 0)
(0.100001 -9.43913e-06 0)
(0.100001 -1.10481e-05 0)
(0.100001 -1.32991e-05 0)
(0.100002 -1.53968e-05 0)
(0.100003 -1.87309e-05 0)
(0.100003 -2.13661e-05 0)
(0.100004 -2.63746e-05 0)
(0.100005 -2.92311e-05 0)
(0.100006 -3.69203e-05 0)
(0.100007 -3.89053e-05 0)
(0.100009 -5.13845e-05 0)
(0.0999997 -3.26435e-07 0)
(0.0999997 -1.01615e-06 0)
(0.0999997 -1.74283e-06 0)
(0.0999997 -2.54451e-06 0)
(0.0999998 -3.41485e-06 0)
(0.0999998 -4.41697e-06 0)
(0.0999999 -5.49216e-06 0)
(0.1 -6.75141e-06 0)
(0.1 -8.06022e-06 0)
(0.1 -9.69296e-06 0)
(0.1 -1.13366e-05 0)
(0.1 -1.36219e-05 0)
(0.100001 -1.57603e-05 0)
(0.100001 -1.91346e-05 0)
(0.100001 -2.18174e-05 0)
(0.100001 -2.68597e-05 0)
(0.100002 -2.97602e-05 0)
(0.100002 -3.74555e-05 0)
(0.100002 -3.94708e-05 0)
(0.100003 -5.18855e-05 0)
(0.1 -3.26781e-07 0)
(0.1 -1.01564e-06 0)
(0.1 -1.74315e-06 0)
(0.1 -2.54421e-06 0)
(0.1 -3.41501e-06 0)
(0.1 -4.41635e-06 0)
(0.1 -5.49211e-06 0)
(0.1 -6.75122e-06 0)
(0.0999999 -8.05986e-06 0)
(0.0999998 -9.69325e-06 0)
(0.0999997 -1.13358e-05 0)
(0.0999995 -1.36208e-05 0)
(0.0999993 -1.57603e-05 0)
(0.0999991 -1.91348e-05 0)
(0.0999989 -2.18179e-05 0)
(0.0999986 -2.6861e-05 0)
(0.0999983 -2.97616e-05 0)
(0.0999979 -3.74563e-05 0)
(0.0999977 -3.94714e-05 0)
(0.099997 -5.18855e-05 0)
(0.100001 -3.2002e-07 0)
(0.100001 -9.9355e-07 0)
(0.100001 -1.70587e-06 0)
(0.100001 -2.48934e-06 0)
(0.100001 -3.33735e-06 0)
(0.100001 -4.30697e-06 0)
(0.1 -5.34581e-06 0)
(0.1 -6.56728e-06 0)
(0.0999998 -7.83939e-06 0)
(0.0999995 -9.4402e-06 0)
(0.0999991 -1.10478e-05 0)
(0.0999985 -1.32969e-05 0)
(0.099998 -1.53958e-05 0)
(0.0999973 -1.87305e-05 0)
(0.0999967 -2.13668e-05 0)
(0.0999957 -2.63758e-05 0)
(0.099995 -2.92326e-05 0)
(0.0999936 -3.69194e-05 0)
(0.0999931 -3.89045e-05 0)
(0.0999912 -5.13799e-05 0)
(0.100002 -3.04242e-07 0)
(0.100002 -9.4676e-07 0)
(0.100002 -1.62777e-06 0)
(0.100001 -2.38325e-06 0)
(0.100001 -3.20124e-06 0)
(0.100001 -4.13349e-06 0)
(0.100001 -5.11716e-06 0)
(0.1 -6.26301e-06 0)
(0.0999997 -7.43737e-06 0)
(0.0999991 -8.9199e-06 0)
(0.0999985 -1.03974e-05 0)
(0.0999976 -1.24976e-05 0)
(0.0999968 -1.44421e-05 0)
(0.0999956 -1.76038e-05 0)
(0.0999945 -2.00744e-05 0)
(0.0999929 -2.48904e-05 0)
(0.0999917 -2.75891e-05 0)
(0.0999894 -3.50751e-05 0)
(0.0999885 -3.69525e-05 0)
(0.0999852 -4.92131e-05 0)
(0.100002 -2.77057e-07 0)
(0.100002 -8.6327e-07 0)
(0.100002 -1.49118e-06 0)
(0.100002 -2.20602e-06 0)
(0.100002 -3.00071e-06 0)
(0.100001 -3.93567e-06 0)
(0.100001 -4.94345e-06 0)
(0.1 -6.13411e-06 0)
(0.0999998 -7.3641e-06 0)
(0.099999 -8.90209e-06 0)
(0.0999981 -1.04291e-05 0)
(0.0999969 -1.25635e-05 0)
(0.0999957 -1.45144e-05 0)
(0.0999941 -1.76636e-05 0)
(0.0999926 -2.00919e-05 0)
(0.0999903 -2.48753e-05 0)
(0.0999887 -2.75122e-05 0)
(0.0999853 -3.50191e-05 0)
(0.0999843 -3.68745e-05 0)
(0.0999793 -4.93228e-05 0)
(0.100003 -2.46596e-07 0)
(0.100003 -7.34519e-07 0)
(0.100003 -1.20652e-06 0)
(0.100003 -1.69994e-06 0)
(0.100002 -2.21062e-06 0)
(0.100002 -2.80373e-06 0)
(0.100001 -3.4263e-06 0)
(0.1 -4.19527e-06 0)
(0.0999995 -4.98233e-06 0)
(0.0999984 -6.05319e-06 0)
(0.0999973 -7.10054e-06 0)
(0.0999958 -8.74075e-06 0)
(0.0999944 -1.01947e-05 0)
(0.0999923 -1.28254e-05 0)
(0.0999904 -1.47483e-05 0)
(0.0999874 -1.89971e-05 0)
(0.0999853 -2.11568e-05 0)
(0.0999811 -2.81323e-05 0)
(0.0999793 -2.96192e-05 0)
(0.0999732 -4.16096e-05 0)
(0.100004 -2.84426e-07 0)
(0.100004 -9.08985e-07 0)
(0.100004 -1.61306e-06 0)
(0.100003 -2.42356e-06 0)
(0.100003 -3.31147e-06 0)
(0.100003 -4.30315e-06 0)
(0.100002 -5.33884e-06 0)
(0.100001 -6.51012e-06 0)
(0.1 -7.69538e-06 0)
(0.0999991 -9.14442e-06 0)
(0.0999978 -1.05387e-05 0)
(0.099996 -1.24791e-05 0)
(0.0999942 -1.4184e-05 0)
(0.0999916 -1.70014e-05 0)
(0.0999895 -1.90532e-05 0)
(0.0999856 -2.33957e-05 0)
(0.0999833 -2.5606e-05 0)
(0.0999776 -3.26979e-05 0)
(0.0999759 -3.42597e-05 0)
(0.0999672 -4.65078e-05 0)
(0.100004 -1.19179e-08 0)
(0.100004 7.82404e-09 0)
(0.100004 7.44726e-08 0)
(0.100003 1.32594e-07 0)
(0.100003 1.73659e-07 0)
(0.100002 1.45376e-07 0)
(0.100001 7.84879e-08 0)
(0.100001 -1.09991e-07 0)
(0.0999994 -2.97141e-07 0)
(0.099998 -7.36022e-07 0)
(0.0999966 -1.10754e-06 0)
(0.0999946 -1.99566e-06 0)
(0.0999926 -2.63885e-06 0)
(0.0999897 -4.34972e-06 0)
(0.0999871 -5.29814e-06 0)
(0.0999828 -8.47313e-06 0)
(0.0999798 -9.5811e-06 0)
(0.0999734 -1.55146e-05 0)
(0.0999707 -1.62012e-05 0)
(0.0999613 -2.76558e-05 0)
(0.100005 -3.94613e-07 0)
(0.100005 -1.29552e-06 0)
(0.100005 -2.30062e-06 0)
(0.100005 -3.37171e-06 0)
(0.100005 -4.44399e-06 0)
(0.100004 -5.54031e-06 0)
(0.100003 -6.62533e-06 0)
(0.100002 -7.79379e-06 0)
(0.100001 -8.9296e-06 0)
(0.0999996 -1.02709e-05 0)
(0.099998 -1.15112e-05 0)
(0.0999957 -1.31964e-05 0)
(0.0999936 -1.45871e-05 0)
(0.0999901 -1.6942e-05 0)
(0.0999875 -1.84731e-05 0)
(0.0999821 -2.20989e-05 0)
(0.0999791 -2.35991e-05 0)
(0.0999706 -2.97963e-05 0)
(0.0999683 -3.07037e-05 0)
(0.0999543 -4.22642e-05 0)
(0.100006 3.99456e-07 0)
(0.100005 1.21388e-06 0)
(0.100005 2.02573e-06 0)
(0.100004 2.79869e-06 0)
(0.100004 3.53185e-06 0)
(0.100003 4.16964e-06 0)
(0.100002 4.79719e-06 0)
(0.100001 5.30636e-06 0)
(0.1 5.83347e-06 0)
(0.0999983 6.22658e-06 0)
(0.0999967 6.69837e-06 0)
(0.0999943 6.86887e-06 0)
(0.0999921 7.28642e-06 0)
(0.0999885 7.00816e-06 0)
(0.0999856 7.4195e-06 0)
(0.0999799 6.18399e-06 0)
(0.0999764 6.71965e-06 0)
(0.0999674 3.18055e-06 0)
(0.0999641 3.97451e-06 0)
(0.0999499 -5.46517e-06 0)
(0.100007 -8.72327e-07 0)
(0.100007 -2.3733e-06 0)
(0.100007 -3.60427e-06 0)
(0.100007 -4.68964e-06 0)
(0.100006 -5.7137e-06 0)
(0.100005 -6.78718e-06 0)
(0.100005 -7.83293e-06 0)
(0.100003 -8.96706e-06 0)
(0.100002 -1.00344e-05 0)
(0.1 -1.12091e-05 0)
(0.0999988 -1.22591e-05 0)
(0.0999961 -1.35927e-05 0)
(0.0999941 -1.46212e-05 0)
(0.0999898 -1.63104e-05 0)
(0.0999874 -1.72073e-05 0)
(0.0999803 -1.96387e-05 0)
(0.0999779 -2.01103e-05 0)
(0.0999653 -2.43398e-05 0)
(0.0999638 -2.39716e-05 0)
(0.0999402 -3.32215e-05 0)
)
;

boundaryField
{
    sides
    {
        type            calculated;
        value           nonuniform List<vector> 
40
(
(0.100007 0 0)
(0.100007 0 0)
(0.100007 0 0)
(0.100007 0 0)
(0.100006 0 0)
(0.100005 0 0)
(0.100005 0 0)
(0.100003 0 0)
(0.100002 0 0)
(0.1 0 0)
(0.0999988 0 0)
(0.0999961 0 0)
(0.0999941 0 0)
(0.0999898 0 0)
(0.0999874 0 0)
(0.0999803 0 0)
(0.0999779 0 0)
(0.0999653 0 0)
(0.0999638 0 0)
(0.0999402 0 0)
(0.0999931 0 0)
(0.099993 0 0)
(0.099993 0 0)
(0.0999934 0 0)
(0.0999939 0 0)
(0.0999946 0 0)
(0.0999954 0 0)
(0.0999966 0 0)
(0.0999978 0 0)
(0.0999996 0 0)
(0.100001 0 0)
(0.100004 0 0)
(0.100006 0 0)
(0.10001 0 0)
(0.100013 0 0)
(0.10002 0 0)
(0.100022 0 0)
(0.100035 0 0)
(0.100036 0 0)
(0.10006 0 0)
)
;
    }
    inlet
    {
        type            calculated;
        value           nonuniform List<vector> 
20
(
(0.0999931 0 0)
(0.0999942 0 0)
(0.0999947 0 0)
(0.0999956 0 0)
(0.0999962 0 0)
(0.0999969 0 0)
(0.0999976 0 0)
(0.0999983 0 0)
(0.099999 0 0)
(0.0999997 0 0)
(0.1 0 0)
(0.100001 0 0)
(0.100002 0 0)
(0.100002 0 0)
(0.100003 0 0)
(0.100004 0 0)
(0.100004 0 0)
(0.100005 0 0)
(0.100006 0 0)
(0.100007 0 0)
)
;
    }
    outlet
    {
        type            calculated;
        value           nonuniform List<vector> 
20
(
(0.100061 -3.32086e-05 0)
(0.100051 -5.47786e-06 0)
(0.100046 -4.2272e-05 0)
(0.100039 -2.76623e-05 0)
(0.100033 -4.65243e-05 0)
(0.100027 -4.16116e-05 0)
(0.100021 -4.93364e-05 0)
(0.100015 -4.9213e-05 0)
(0.100009 -5.13846e-05 0)
(0.100003 -5.18855e-05 0)
(0.099997 -5.18855e-05 0)
(0.0999911 -5.13799e-05 0)
(0.0999851 -4.9213e-05 0)
(0.0999792 -4.93227e-05 0)
(0.0999731 -4.16095e-05 0)
(0.0999669 -4.65077e-05 0)
(0.0999611 -2.76558e-05 0)
(0.0999538 -4.2264e-05 0)
(0.0999495 -5.46514e-06 0)
(0.0999393 -3.32212e-05 0)
)
;
    }
    frontAndBack
    {
        type            empty;
    }
}


// ************************************************************************* //
