/*--------------------------------*- C++ -*----------------------------------*\
  =========                 |
  \\      /  F ield         | OpenFOAM: The Open Source CFD Toolbox
   \\    /   O peration     | Website:  https://openfoam.org
    \\  /    A nd           | Version:  7
     \\/     M anipulation  |
\*---------------------------------------------------------------------------*/
FoamFile
{
    version     2.0;
    format      ascii;
    class       volVectorField;
    location    "39";
    object      ddt0(hU);
}
// * * * * * * * * * * * * * * * * * * * * * * * * * * * * * * * * * * * * * //

dimensions      [0 2 -2 0 0 0 0];

internalField   nonuniform List<vector> 
400
(
(-4.17719e-11 -1.18679e-11 0)
(1.12308e-09 4.89548e-10 0)
(1.28608e-09 1.24651e-09 0)
(-1.47128e-10 1.23991e-09 0)
(1.79404e-10 2.15464e-09 0)
(-2.48307e-09 -4.82498e-10 0)
(-3.46527e-09 6.78749e-10 0)
(4.11076e-09 -8.4726e-10 0)
(4.7902e-11 -1.47168e-09 0)
(3.45898e-10 -1.54868e-09 0)
(1.82236e-09 -1.25231e-09 0)
(3.20096e-09 -6.28803e-10 0)
(4.10187e-09 2.62284e-10 0)
(3.94154e-09 1.37921e-09 0)
(3.01152e-09 2.18727e-09 0)
(1.61792e-09 2.68507e-09 0)
(-3.71972e-10 2.04001e-09 0)
(-1.38119e-09 1.07984e-09 0)
(-3.00177e-09 -7.88155e-10 0)
(-1.29389e-09 -1.905e-09 0)
(-1.10431e-11 -1.48112e-11 0)
(1.07929e-09 -1.49786e-10 0)
(1.22893e-09 2.70581e-11 0)
(5.85563e-10 -8.26757e-11 0)
(-3.89179e-10 1.37386e-09 0)
(1.6208e-09 2.10085e-10 0)
(2.88689e-09 1.99437e-09 0)
(-3.84412e-09 1.23437e-09 0)
(-1.03459e-10 6.91089e-10 0)
(8.53217e-10 7.70256e-10 0)
(2.08771e-09 8.01046e-10 0)
(3.15739e-09 6.3992e-10 0)
(4.03882e-09 3.71363e-10 0)
(4.12326e-09 5.07494e-10 0)
(3.32344e-09 8.94925e-10 0)
(1.82602e-09 1.60007e-09 0)
(-3.57416e-10 1.76559e-09 0)
(-1.44967e-09 1.51677e-09 0)
(-3.10809e-09 1.04789e-09 0)
(-1.66247e-09 -3.6631e-10 0)
(3.95662e-11 5.90872e-11 0)
(8.70675e-10 7.81186e-10 0)
(1.04097e-09 2.19099e-09 0)
(6.57766e-10 3.03947e-09 0)
(-1.07229e-10 2.89712e-09 0)
(1.03588e-10 3.28539e-09 0)
(6.18406e-10 2.32354e-09 0)
(-3.08964e-10 1.12496e-09 0)
(1.11057e-11 -5.84304e-11 0)
(1.4952e-09 -9.9491e-10 0)
(2.6748e-09 -1.52448e-09 0)
(3.27032e-09 -1.21767e-09 0)
(3.55968e-09 -3.77735e-11 0)
(3.36794e-09 2.05993e-09 0)
(2.72592e-09 3.87583e-09 0)
(1.38603e-09 5.40298e-09 0)
(-7.38389e-10 4.57467e-09 0)
(-1.82993e-09 3.03322e-09 0)
(-3.3991e-09 -3.77851e-11 0)
(-1.24884e-09 -3.20458e-09 0)
(4.26768e-11 1.41718e-10 0)
(1.19925e-09 1.34342e-09 0)
(1.19954e-09 3.44617e-09 0)
(4.93051e-10 4.85544e-09 0)
(-3.29039e-10 4.46258e-09 0)
(-9.08642e-11 4.17576e-09 0)
(-4.07316e-10 2.90236e-09 0)
(-1.16905e-09 1.74544e-09 0)
(1.11777e-10 9.53359e-10 0)
(9.54696e-10 -4.92322e-10 0)
(1.9413e-09 -1.46582e-09 0)
(2.78599e-09 -1.38032e-09 0)
(3.40361e-09 -1.5028e-10 0)
(3.57181e-09 2.38766e-09 0)
(3.09663e-09 4.64027e-09 0)
(1.79775e-09 6.68448e-09 0)
(-2.87423e-10 6.03647e-09 0)
(-1.26159e-09 4.37387e-09 0)
(-2.61106e-09 8.20209e-10 0)
(-1.47697e-09 -3.48378e-09 0)
(1.41398e-11 4.36185e-10 0)
(8.16568e-10 1.54998e-09 0)
(7.09585e-10 3.04738e-09 0)
(4.66786e-10 4.39645e-09 0)
(3.40904e-10 4.59252e-09 0)
(6.80546e-10 4.53751e-09 0)
(1.80707e-10 3.25152e-09 0)
(7.20418e-10 2.50391e-09 0)
(9.1158e-10 1.18807e-09 0)
(9.71233e-10 -4.95266e-10 0)
(1.47358e-09 -1.56472e-09 0)
(1.74997e-09 -1.67652e-09 0)
(2.07447e-09 -4.599e-10 0)
(2.28313e-09 2.45202e-09 0)
(2.01362e-09 5.05286e-09 0)
(9.7305e-10 7.35777e-09 0)
(-6.80006e-10 6.57146e-09 0)
(-1.26758e-09 4.77317e-09 0)
(-2.17734e-09 1.12201e-09 0)
(-9.15007e-10 -3.82573e-09 0)
(7.53867e-11 8.42029e-10 0)
(1.16018e-09 3.28873e-09 0)
(1.00926e-09 5.60585e-09 0)
(3.17944e-10 6.97809e-09 0)
(-4.68593e-12 7.06351e-09 0)
(-2.18125e-10 5.99642e-09 0)
(-3.42238e-10 4.23601e-09 0)
(-2.23259e-10 2.11714e-09 0)
(-2.74626e-10 -4.48689e-10 0)
(5.90749e-10 -2.57754e-09 0)
(1.77539e-09 -3.71069e-09 0)
(2.60821e-09 -3.25999e-09 0)
(3.27816e-09 -9.2232e-10 0)
(3.32163e-09 3.40236e-09 0)
(2.57659e-09 6.99089e-09 0)
(1.01248e-09 9.91001e-09 0)
(-9.5776e-10 8.62705e-09 0)
(-1.7591e-09 5.9858e-09 0)
(-2.83342e-09 4.51025e-10 0)
(-1.38564e-09 -5.76059e-09 0)
(9.86069e-11 1.16352e-09 0)
(8.64385e-10 3.75452e-09 0)
(6.81513e-10 5.79689e-09 0)
(2.97837e-10 6.94184e-09 0)
(3.57815e-10 7.34888e-09 0)
(4.18104e-10 6.53969e-09 0)
(6.45386e-10 5.30022e-09 0)
(4.69946e-10 3.13615e-09 0)
(3.50327e-10 8.75224e-10 0)
(5.72452e-10 -1.36597e-09 0)
(6.98223e-10 -2.93751e-09 0)
(8.88928e-10 -2.92787e-09 0)
(1.25591e-09 -1.16767e-09 0)
(1.46429e-09 2.64633e-09 0)
(1.27444e-09 5.9925e-09 0)
(8.24138e-10 9.16773e-09 0)
(1.34065e-10 8.5408e-09 0)
(-9.39382e-11 6.43321e-09 0)
(-9.09334e-10 1.54849e-09 0)
(-7.87732e-10 -5.0901e-09 0)
(1.10401e-10 1.56302e-09 0)
(6.83404e-10 4.60752e-09 0)
(5.39956e-10 6.80256e-09 0)
(4.04379e-10 8.01303e-09 0)
(3.17915e-10 8.17562e-09 0)
(1.22914e-10 6.94853e-09 0)
(-2.47416e-11 4.86841e-09 0)
(-2.6884e-10 2.05357e-09 0)
(-5.29309e-11 -5.51181e-10 0)
(2.92332e-10 -3.15625e-09 0)
(9.1698e-10 -4.6576e-09 0)
(1.60115e-09 -4.15929e-09 0)
(2.00701e-09 -1.58743e-09 0)
(1.87349e-09 3.25449e-09 0)
(1.22409e-09 7.36911e-09 0)
(2.40705e-10 1.09494e-08 0)
(-7.24361e-10 9.71195e-09 0)
(-1.06197e-09 6.78101e-09 0)
(-1.92214e-09 4.74173e-10 0)
(-1.03611e-09 -6.74288e-09 0)
(6.32205e-11 1.87628e-09 0)
(4.50678e-10 5.31222e-09 0)
(3.02276e-10 7.41611e-09 0)
(2.10803e-10 8.50891e-09 0)
(6.50245e-11 8.42148e-09 0)
(4.37904e-11 7.23348e-09 0)
(2.40113e-11 5.15118e-09 0)
(8.13172e-11 2.62019e-09 0)
(2.91122e-10 3.79106e-11 0)
(4.02746e-10 -2.67577e-09 0)
(6.80212e-10 -4.39489e-09 0)
(7.65836e-10 -4.37451e-09 0)
(6.4567e-10 -2.26029e-09 0)
(5.44711e-10 2.38083e-09 0)
(3.48739e-10 6.59101e-09 0)
(1.81141e-10 1.06347e-08 0)
(7.87957e-11 9.94702e-09 0)
(5.9258e-11 7.26125e-09 0)
(-2.75618e-10 1.15973e-09 0)
(-3.26571e-10 -6.39798e-09 0)
(2.46068e-11 2.00979e-09 0)
(1.47191e-10 5.68329e-09 0)
(9.51079e-11 7.74658e-09 0)
(7.18865e-11 8.84281e-09 0)
(1.44482e-11 8.81359e-09 0)
(3.19306e-11 7.61849e-09 0)
(5.93584e-11 5.30923e-09 0)
(8.57343e-11 2.50706e-09 0)
(-1.58337e-11 -3.98617e-10 0)
(-6.24049e-11 -3.19467e-09 0)
(7.10155e-11 -4.90448e-09 0)
(2.37047e-10 -4.76371e-09 0)
(4.54524e-10 -2.34511e-09 0)
(5.44046e-10 2.60041e-09 0)
(4.67908e-10 6.98958e-09 0)
(2.36849e-10 1.11067e-08 0)
(-1.38747e-10 1.01643e-08 0)
(-4.10372e-10 7.20283e-09 0)
(-7.91591e-10 6.79798e-10 0)
(-3.26207e-10 -6.96491e-09 0)
(-1.10775e-11 2.01122e-09 0)
(-1.61593e-10 5.6638e-09 0)
(-6.6399e-11 7.75283e-09 0)
(-4.04811e-11 8.81057e-09 0)
(-5.59862e-11 8.80291e-09 0)
(-1.63923e-10 7.62071e-09 0)
(-1.48738e-10 5.36879e-09 0)
(-2.84799e-11 2.52612e-09 0)
(6.10586e-11 -3.80798e-10 0)
(1.38783e-10 -3.19372e-09 0)
(-2.63096e-11 -4.94502e-09 0)
(-2.64938e-10 -4.76617e-09 0)
(-4.96651e-10 -2.31291e-09 0)
(-5.96126e-10 2.6257e-09 0)
(-4.30399e-10 7.00376e-09 0)
(-6.73493e-11 1.10888e-08 0)
(2.08268e-10 1.0108e-08 0)
(2.43204e-10 7.19045e-09 0)
(6.82429e-10 7.74618e-10 0)
(5.27839e-10 -6.89066e-09 0)
(-8.36075e-11 1.86464e-09 0)
(-4.58434e-10 5.29023e-09 0)
(-3.11181e-10 7.42917e-09 0)
(-1.7049e-10 8.43577e-09 0)
(-4.85752e-11 8.39795e-09 0)
(-5.32031e-11 7.23147e-09 0)
(-8.85378e-11 5.28245e-09 0)
(-9.98411e-11 2.68614e-09 0)
(-2.75005e-10 8.50977e-11 0)
(-4.31609e-10 -2.63087e-09 0)
(-6.34318e-10 -4.44745e-09 0)
(-6.66233e-10 -4.42621e-09 0)
(-6.41997e-10 -2.25068e-09 0)
(-6.39264e-10 2.43955e-09 0)
(-4.0395e-10 6.66407e-09 0)
(-1.11922e-10 1.06264e-08 0)
(2.70099e-11 9.83005e-09 0)
(-4.20828e-11 7.21835e-09 0)
(2.41128e-10 1.33591e-09 0)
(3.51676e-10 -6.25259e-09 0)
(-1.27278e-10 1.54423e-09 0)
(-6.90447e-10 4.62206e-09 0)
(-5.88404e-10 6.80345e-09 0)
(-3.86366e-10 7.9891e-09 0)
(-2.42093e-10 8.1418e-09 0)
(-1.27445e-11 6.93562e-09 0)
(2.81835e-11 4.94938e-09 0)
(1.53e-10 2.17799e-09 0)
(4.87993e-11 -5.10823e-10 0)
(-4.15356e-10 -3.04726e-09 0)
(-1.02959e-09 -4.56731e-09 0)
(-1.50846e-09 -4.20634e-09 0)
(-1.85844e-09 -1.67407e-09 0)
(-1.84578e-09 3.27143e-09 0)
(-1.34391e-09 7.47886e-09 0)
(-3.43944e-10 1.10074e-08 0)
(8.06568e-10 9.63987e-09 0)
(1.24527e-09 6.70817e-09 0)
(1.95281e-09 5.43147e-10 0)
(8.73646e-10 -6.66275e-09 0)
(-8.99295e-11 1.17048e-09 0)
(-8.72548e-10 3.78915e-09 0)
(-7.20725e-10 5.81192e-09 0)
(-3.50334e-10 6.99802e-09 0)
(-2.64771e-10 7.25692e-09 0)
(-3.28221e-10 6.56865e-09 0)
(-4.96615e-10 5.20375e-09 0)
(-6.11194e-10 3.26533e-09 0)
(-3.81333e-10 9.27781e-10 0)
(-5.45476e-10 -1.32191e-09 0)
(-9.22646e-10 -2.7474e-09 0)
(-1.0614e-09 -2.82667e-09 0)
(-1.12612e-09 -1.23287e-09 0)
(-1.25931e-09 2.57706e-09 0)
(-1.31364e-09 6.02903e-09 0)
(-1.02634e-09 9.24792e-09 0)
(-1.7988e-10 8.5451e-09 0)
(2.51115e-10 6.34948e-09 0)
(9.7145e-10 1.45654e-09 0)
(6.19514e-10 -5.11998e-09 0)
(-5.08909e-11 8.6859e-10 0)
(-1.14269e-09 3.32085e-09 0)
(-1.02905e-09 5.64131e-09 0)
(-4.23135e-10 7.0032e-09 0)
(3.44834e-11 7.05555e-09 0)
(2.2773e-10 5.97524e-09 0)
(5.13883e-10 4.0783e-09 0)
(3.54511e-10 1.96939e-09 0)
(1.00606e-10 -3.74051e-10 0)
(-4.7401e-10 -2.60945e-09 0)
(-1.80516e-09 -3.62853e-09 0)
(-2.92418e-09 -3.07832e-09 0)
(-3.38231e-09 -8.62412e-10 0)
(-3.13295e-09 3.31931e-09 0)
(-2.4797e-09 6.92499e-09 0)
(-1.16418e-09 9.93924e-09 0)
(7.97229e-10 8.67184e-09 0)
(1.79238e-09 5.94782e-09 0)
(2.92299e-09 3.19984e-10 0)
(1.34688e-09 -5.83469e-09 0)
(3.04537e-12 4.3974e-10 0)
(-7.86987e-10 1.53768e-09 0)
(-7.24495e-10 3.02907e-09 0)
(-5.16002e-10 4.42595e-09 0)
(-4.79522e-10 4.74852e-09 0)
(-5.66867e-10 4.32093e-09 0)
(-3.84751e-10 3.46272e-09 0)
(-3.02187e-10 2.17942e-09 0)
(-7.42005e-10 1.00323e-09 0)
(-9.03297e-10 -6.11487e-10 0)
(-1.34029e-09 -1.66701e-09 0)
(-1.95639e-09 -1.58718e-09 0)
(-2.3554e-09 -3.30973e-10 0)
(-2.26603e-09 2.43419e-09 0)
(-1.85856e-09 4.95551e-09 0)
(-9.94996e-10 7.32425e-09 0)
(5.20181e-10 6.62901e-09 0)
(1.21528e-09 4.82569e-09 0)
(2.27082e-09 1.08187e-09 0)
(9.93487e-10 -3.86457e-09 0)
(-5.84249e-11 1.21012e-10 0)
(-1.17749e-09 1.26114e-09 0)
(-1.13928e-09 3.34521e-09 0)
(-4.49238e-10 4.97397e-09 0)
(1.48525e-10 4.59099e-09 0)
(8.10858e-11 4.30362e-09 0)
(4.13872e-10 2.73638e-09 0)
(6.27366e-10 1.90813e-09 0)
(1.81537e-10 5.26199e-10 0)
(-6.99944e-10 -8.33295e-10 0)
(-1.628e-09 -1.69842e-09 0)
(-2.73152e-09 -1.41227e-09 0)
(-3.6665e-09 -3.56268e-11 0)
(-3.70974e-09 2.45824e-09 0)
(-2.97864e-09 4.607e-09 0)
(-1.69787e-09 6.64755e-09 0)
(2.31013e-10 6.0856e-09 0)
(1.19532e-09 4.46136e-09 0)
(2.65609e-09 8.36889e-10 0)
(1.56478e-09 -3.49812e-09 0)
(-9.88471e-11 4.86497e-11 0)
(-8.71292e-10 7.5256e-10 0)
(-8.7424e-10 2.1253e-09 0)
(-5.63854e-10 2.97613e-09 0)
(1.44502e-10 2.97467e-09 0)
(-8.48278e-10 3.23133e-09 0)
(8.19064e-11 3.82663e-10 0)
(3.36517e-11 1.16869e-09 0)
(-5.51195e-10 -8.30104e-11 0)
(-1.16446e-09 -1.03143e-09 0)
(-2.09644e-09 -1.57915e-09 0)
(-2.94314e-09 -1.3475e-09 0)
(-3.67601e-09 -5.61943e-11 0)
(-3.55791e-09 2.14232e-09 0)
(-2.70232e-09 3.90374e-09 0)
(-1.26256e-09 5.36893e-09 0)
(7.67823e-10 4.58306e-09 0)
(1.77473e-09 3.09247e-09 0)
(3.37849e-09 2.83706e-12 0)
(1.28998e-09 -3.19215e-09 0)
(9.60109e-13 -6.70788e-12 0)
(-1.13426e-09 -9.64807e-11 0)
(-1.2627e-09 2.19372e-10 0)
(-4.52632e-10 -2.73386e-10 0)
(1.17008e-09 1.05102e-09 0)
(9.99775e-10 3.99635e-10 0)
(-1.06414e-09 4.12882e-09 0)
(6.43368e-09 1.29657e-09 0)
(1.65481e-11 1.51758e-09 0)
(-6.84484e-10 1.38106e-09 0)
(-1.94127e-09 7.84552e-10 0)
(-3.03081e-09 2.78362e-10 0)
(-3.96478e-09 1.89739e-10 0)
(-4.18989e-09 5.5342e-10 0)
(-3.39357e-09 9.25149e-10 0)
(-1.78092e-09 1.54945e-09 0)
(4.16622e-10 1.72809e-09 0)
(1.41998e-09 1.52471e-09 0)
(3.0498e-09 1.06651e-09 0)
(1.66282e-09 -3.55421e-10 0)
(9.80163e-11 -3.74975e-12 0)
(-1.10672e-09 5.15887e-10 0)
(-1.38425e-09 1.43641e-09 0)
(-1.225e-11 1.18744e-09 0)
(-8.61104e-10 1.7896e-09 0)
(4.20864e-10 4.72961e-11 0)
(9.53135e-10 4.32683e-09 0)
(-6.23126e-09 -5.37203e-10 0)
(2.49373e-10 -8.26005e-10 0)
(-1.25084e-09 -1.13374e-09 0)
(-2.72916e-09 -1.34965e-09 0)
(-3.1863e-09 -9.02923e-10 0)
(-3.65497e-09 1.36987e-10 0)
(-3.83216e-09 1.38856e-09 0)
(-3.15097e-09 2.19065e-09 0)
(-1.62367e-09 2.6548e-09 0)
(4.70104e-10 2.0163e-09 0)
(1.39393e-09 1.07422e-09 0)
(2.93646e-09 -7.89591e-10 0)
(1.26197e-09 -1.9042e-09 0)
)
;

boundaryField
{
    sides
    {
        type            calculated;
        value           nonuniform List<vector> 
40
(
(9.80163e-11 0 0)
(-1.10672e-09 0 0)
(-1.38425e-09 0 0)
(-1.225e-11 0 0)
(-8.61104e-10 0 0)
(4.20864e-10 0 0)
(9.53135e-10 0 0)
(-6.23126e-09 0 0)
(2.49373e-10 0 0)
(-1.25084e-09 0 0)
(-2.72916e-09 0 0)
(-3.1863e-09 0 0)
(-3.65497e-09 0 0)
(-3.83216e-09 0 0)
(-3.15097e-09 0 0)
(-1.62367e-09 0 0)
(4.70104e-10 0 0)
(1.39393e-09 0 0)
(2.93646e-09 0 0)
(1.26197e-09 0 0)
(-4.17719e-11 0 0)
(1.12308e-09 0 0)
(1.28608e-09 0 0)
(-1.47128e-10 0 0)
(1.79404e-10 0 0)
(-2.48307e-09 0 0)
(-3.46527e-09 0 0)
(4.11076e-09 0 0)
(4.7902e-11 0 0)
(3.45898e-10 0 0)
(1.82236e-09 0 0)
(3.20096e-09 0 0)
(4.10187e-09 0 0)
(3.94154e-09 0 0)
(3.01152e-09 0 0)
(1.61792e-09 0 0)
(-3.71972e-10 0 0)
(-1.38119e-09 0 0)
(-3.00177e-09 0 0)
(-1.29389e-09 0 0)
)
;
    }
    inlet
    {
        type            calculated;
        value           uniform (0 0 0);
    }
    outlet
    {
        type            calculated;
        value           nonuniform List<vector> 
20
(
(-1.29389e-09 -1.905e-09 0)
(-1.66247e-09 -3.6631e-10 0)
(-1.24884e-09 -3.20458e-09 0)
(-1.47697e-09 -3.48378e-09 0)
(-9.15007e-10 -3.82573e-09 0)
(-1.38564e-09 -5.76059e-09 0)
(-7.87732e-10 -5.0901e-09 0)
(-1.03611e-09 -6.74288e-09 0)
(-3.26571e-10 -6.39798e-09 0)
(-3.26207e-10 -6.96491e-09 0)
(5.27839e-10 -6.89066e-09 0)
(3.51676e-10 -6.25259e-09 0)
(8.73646e-10 -6.66275e-09 0)
(6.19514e-10 -5.11998e-09 0)
(1.34688e-09 -5.83469e-09 0)
(9.93487e-10 -3.86457e-09 0)
(1.56478e-09 -3.49812e-09 0)
(1.28998e-09 -3.19215e-09 0)
(1.66282e-09 -3.55421e-10 0)
(1.26197e-09 -1.9042e-09 0)
)
;
    }
    frontAndBack
    {
        type            empty;
    }
}


// ************************************************************************* //
