/*--------------------------------*- C++ -*----------------------------------*\
  =========                 |
  \\      /  F ield         | OpenFOAM: The Open Source CFD Toolbox
   \\    /   O peration     | Website:  https://openfoam.org
    \\  /    A nd           | Version:  7
     \\/     M anipulation  |
\*---------------------------------------------------------------------------*/
FoamFile
{
    version     2.0;
    format      ascii;
    class       volVectorField;
    location    "39";
    object      hU_0;
}
// * * * * * * * * * * * * * * * * * * * * * * * * * * * * * * * * * * * * * //

dimensions      [0 2 -1 0 0 0 0];

internalField   nonuniform List<vector> 
400
(
(0.001 -8.68172e-09 0)
(0.000999999 -2.37164e-08 0)
(0.000999998 -3.63891e-08 0)
(0.001 -4.79027e-08 0)
(0.001 -5.8912e-08 0)
(0.00100001 -6.98756e-08 0)
(0.00100002 -8.06755e-08 0)
(0.00100003 -9.16472e-08 0)
(0.00100004 -1.01578e-07 0)
(0.00100006 -1.12501e-07 0)
(0.00100007 -1.22098e-07 0)
(0.0010001 -1.34728e-07 0)
(0.00100011 -1.44585e-07 0)
(0.00100015 -1.61647e-07 0)
(0.00100017 -1.71211e-07 0)
(0.00100024 -1.96514e-07 0)
(0.00100026 -2.02235e-07 0)
(0.00100038 -2.4494e-07 0)
(0.00100038 -2.41555e-07 0)
(0.00100061 -3.32506e-07 0)
(0.001 4.01156e-09 0)
(0.001 1.22332e-08 0)
(0.00100001 2.04949e-08 0)
(0.00100001 2.82206e-08 0)
(0.00100002 3.53152e-08 0)
(0.00100002 4.16737e-08 0)
(0.00100003 4.75518e-08 0)
(0.00100004 5.25853e-08 0)
(0.00100005 5.79564e-08 0)
(0.00100007 6.19403e-08 0)
(0.00100008 6.68245e-08 0)
(0.0010001 6.87585e-08 0)
(0.00100012 7.33412e-08 0)
(0.00100016 7.08481e-08 0)
(0.00100018 7.50252e-08 0)
(0.00100023 6.23841e-08 0)
(0.00100026 6.70302e-08 0)
(0.00100035 3.11682e-08 0)
(0.00100037 3.82565e-08 0)
(0.00100051 -5.59999e-08 0)
(0.001 -3.87345e-09 0)
(0.000999999 -1.27857e-08 0)
(0.000999998 -2.31764e-08 0)
(0.000999999 -3.45806e-08 0)
(0.001 -4.60362e-08 0)
(0.00100001 -5.75743e-08 0)
(0.00100002 -6.85718e-08 0)
(0.00100003 -8.00918e-08 0)
(0.00100004 -9.09188e-08 0)
(0.00100005 -1.03392e-07 0)
(0.00100007 -1.14481e-07 0)
(0.00100009 -1.30092e-07 0)
(0.0010001 -1.42948e-07 0)
(0.00100014 -1.66443e-07 0)
(0.00100016 -1.82575e-07 0)
(0.00100021 -2.20598e-07 0)
(0.00100023 -2.37787e-07 0)
(0.00100031 -3.00853e-07 0)
(0.00100033 -3.11344e-07 0)
(0.00100046 -4.24623e-07 0)
(0.001 3.84593e-11 0)
(0.001 4.77424e-10 0)
(0.001 6.35036e-10 0)
(0.00100001 1.91166e-10 0)
(0.00100001 -4.3033e-10 0)
(0.00100002 -1.46396e-09 0)
(0.00100003 -2.40255e-09 0)
(0.00100003 -4.13043e-09 0)
(0.00100005 -5.41969e-09 0)
(0.00100006 -8.71758e-09 0)
(0.00100007 -1.08198e-08 0)
(0.00100009 -1.81071e-08 0)
(0.00100011 -2.31185e-08 0)
(0.00100013 -3.99652e-08 0)
(0.00100015 -5.02731e-08 0)
(0.00100019 -8.39716e-08 0)
(0.00100022 -9.78139e-08 0)
(0.00100028 -1.58635e-07 0)
(0.0010003 -1.67589e-07 0)
(0.00100039 -2.79573e-07 0)
(0.001 -2.61332e-09 0)
(0.001 -8.60968e-09 0)
(0.001 -1.58955e-08 0)
(0.001 -2.46996e-08 0)
(0.001 -3.44338e-08 0)
(0.00100001 -4.51141e-08 0)
(0.00100001 -5.58558e-08 0)
(0.00100002 -6.75434e-08 0)
(0.00100003 -7.88861e-08 0)
(0.00100004 -9.24169e-08 0)
(0.00100005 -1.04812e-07 0)
(0.00100007 -1.22575e-07 0)
(0.00100009 -1.38036e-07 0)
(0.00100011 -1.65889e-07 0)
(0.00100013 -1.87312e-07 0)
(0.00100016 -2.3293e-07 0)
(0.00100018 -2.58168e-07 0)
(0.00100024 -3.30683e-07 0)
(0.00100025 -3.48775e-07 0)
(0.00100033 -4.68507e-07 0)
(0.001 -2.06086e-09 0)
(0.001 -6.85833e-09 0)
(0.001 -1.24022e-08 0)
(0.001 -1.87564e-08 0)
(0.00100001 -2.53426e-08 0)
(0.00100001 -3.23537e-08 0)
(0.00100002 -3.90128e-08 0)
(0.00100002 -4.63694e-08 0)
(0.00100003 -5.31136e-08 0)
(0.00100004 -6.20516e-08 0)
(0.00100005 -7.00286e-08 0)
(0.00100007 -8.40152e-08 0)
(0.00100008 -9.6516e-08 0)
(0.0010001 -1.2264e-07 0)
(0.00100011 -1.434e-07 0)
(0.00100014 -1.89111e-07 0)
(0.00100016 -2.14994e-07 0)
(0.0010002 -2.86864e-07 0)
(0.00100021 -3.04657e-07 0)
(0.00100027 -4.20241e-07 0)
(0.001 -2.209e-09 0)
(0.001 -7.89386e-09 0)
(0.001 -1.47359e-08 0)
(0.001 -2.289e-08 0)
(0.001 -3.20489e-08 0)
(0.00100001 -4.23949e-08 0)
(0.00100001 -5.30846e-08 0)
(0.00100002 -6.49714e-08 0)
(0.00100002 -7.65912e-08 0)
(0.00100003 -9.06527e-08 0)
(0.00100004 -1.03765e-07 0)
(0.00100005 -1.22898e-07 0)
(0.00100006 -1.40333e-07 0)
(0.00100007 -1.71358e-07 0)
(0.00100009 -1.96763e-07 0)
(0.00100011 -2.47418e-07 0)
(0.00100012 -2.7799e-07 0)
(0.00100015 -3.55276e-07 0)
(0.00100016 -3.77203e-07 0)
(0.00100021 -4.98015e-07 0)
(0.001 -2.33135e-09 0)
(0.001 -8.59069e-09 0)
(0.001 -1.61187e-08 0)
(0.001 -2.49514e-08 0)
(0.001 -3.46952e-08 0)
(0.00100001 -4.52798e-08 0)
(0.00100001 -5.57336e-08 0)
(0.00100001 -6.68938e-08 0)
(0.00100002 -7.75159e-08 0)
(0.00100002 -9.04558e-08 0)
(0.00100003 -1.02492e-07 0)
(0.00100004 -1.20843e-07 0)
(0.00100004 -1.38001e-07 0)
(0.00100005 -1.69419e-07 0)
(0.00100006 -1.9588e-07 0)
(0.00100008 -2.47739e-07 0)
(0.00100009 -2.79698e-07 0)
(0.00100011 -3.56955e-07 0)
(0.00100012 -3.79194e-07 0)
(0.00100015 -4.96837e-07 0)
(0.001 -2.39977e-09 0)
(0.001 -9.01749e-09 0)
(0.001 -1.69208e-08 0)
(0.001 -2.60549e-08 0)
(0.001 -3.60225e-08 0)
(0.001 -4.69008e-08 0)
(0.00100001 -5.78726e-08 0)
(0.00100001 -6.98993e-08 0)
(0.00100001 -8.17116e-08 0)
(0.00100001 -9.60745e-08 0)
(0.00100002 -1.09604e-07 0)
(0.00100002 -1.29495e-07 0)
(0.00100003 -1.48058e-07 0)
(0.00100003 -1.8095e-07 0)
(0.00100004 -2.08821e-07 0)
(0.00100005 -2.62427e-07 0)
(0.00100005 -2.96064e-07 0)
(0.00100007 -3.75514e-07 0)
(0.00100007 -3.99192e-07 0)
(0.00100009 -5.19316e-07 0)
(0.001 -2.42727e-09 0)
(0.001 -9.20979e-09 0)
(0.001 -1.72536e-08 0)
(0.001 -2.65378e-08 0)
(0.001 -3.67916e-08 0)
(0.001 -4.81327e-08 0)
(0.001 -5.95919e-08 0)
(0.001 -7.19834e-08 0)
(0.001 -8.40036e-08 0)
(0.001 -9.84752e-08 0)
(0.00100001 -1.12135e-07 0)
(0.00100001 -1.3223e-07 0)
(0.00100001 -1.51158e-07 0)
(0.00100001 -1.84568e-07 0)
(0.00100001 -2.13113e-07 0)
(0.00100002 -2.67309e-07 0)
(0.00100002 -3.01551e-07 0)
(0.00100002 -3.8106e-07 0)
(0.00100002 -4.04985e-07 0)
(0.00100003 -5.24067e-07 0)
(0.001 -2.43075e-09 0)
(0.001 -9.21227e-09 0)
(0.001 -1.72555e-08 0)
(0.001 -2.65354e-08 0)
(0.000999999 -3.67873e-08 0)
(0.000999999 -4.81272e-08 0)
(0.000999998 -5.95907e-08 0)
(0.000999997 -7.19872e-08 0)
(0.000999996 -8.4008e-08 0)
(0.000999995 -9.84811e-08 0)
(0.000999994 -1.12137e-07 0)
(0.000999992 -1.32227e-07 0)
(0.000999991 -1.51156e-07 0)
(0.000999989 -1.84568e-07 0)
(0.000999987 -2.13118e-07 0)
(0.000999984 -2.67311e-07 0)
(0.000999982 -3.01549e-07 0)
(0.000999978 -3.81057e-07 0)
(0.000999976 -4.04986e-07 0)
(0.00099997 -5.24067e-07 0)
(0.001 -2.40626e-09 0)
(0.001 -9.0235e-09 0)
(0.001 -1.69242e-08 0)
(0.000999999 -2.6052e-08 0)
(0.000999998 -3.60144e-08 0)
(0.000999996 -4.68912e-08 0)
(0.000999994 -5.78703e-08 0)
(0.000999992 -6.99085e-08 0)
(0.000999989 -8.1721e-08 0)
(0.000999986 -9.60857e-08 0)
(0.000999982 -1.09612e-07 0)
(0.000999978 -1.2949e-07 0)
(0.000999973 -1.48049e-07 0)
(0.000999967 -1.80942e-07 0)
(0.000999961 -2.08825e-07 0)
(0.000999952 -2.62422e-07 0)
(0.000999947 -2.96051e-07 0)
(0.000999934 -3.75485e-07 0)
(0.00099993 -3.9917e-07 0)
(0.000999911 -5.1926e-07 0)
(0.001 -2.3339e-09 0)
(0.001 -8.59499e-09 0)
(0.001 -1.61209e-08 0)
(0.000999999 -2.49536e-08 0)
(0.000999997 -3.46896e-08 0)
(0.000999994 -4.52772e-08 0)
(0.000999991 -5.57298e-08 0)
(0.000999987 -6.69008e-08 0)
(0.000999982 -7.75247e-08 0)
(0.000999976 -9.04626e-08 0)
(0.00099997 -1.02507e-07 0)
(0.000999963 -1.20856e-07 0)
(0.000999956 -1.38005e-07 0)
(0.000999945 -1.69418e-07 0)
(0.000999937 -1.95893e-07 0)
(0.000999922 -2.47755e-07 0)
(0.000999911 -2.79714e-07 0)
(0.00099989 -3.56962e-07 0)
(0.000999881 -3.79204e-07 0)
(0.00099985 -4.96825e-07 0)
(0.001 -2.20549e-09 0)
(0.001 -7.89244e-09 0)
(0.000999999 -1.47365e-08 0)
(0.000999998 -2.28926e-08 0)
(0.000999995 -3.20515e-08 0)
(0.000999992 -4.23963e-08 0)
(0.000999988 -5.30765e-08 0)
(0.000999983 -6.49555e-08 0)
(0.000999977 -7.65822e-08 0)
(0.000999969 -9.06319e-08 0)
(0.000999961 -1.03752e-07 0)
(0.000999951 -1.22894e-07 0)
(0.00099994 -1.40328e-07 0)
(0.000999925 -1.7133e-07 0)
(0.000999913 -1.96735e-07 0)
(0.000999891 -2.47375e-07 0)
(0.000999878 -2.77956e-07 0)
(0.000999847 -3.55201e-07 0)
(0.000999838 -3.77126e-07 0)
(0.000999791 -4.97867e-07 0)
(0.001 -2.05739e-09 0)
(0.001 -6.85583e-09 0)
(0.000999999 -1.24025e-08 0)
(0.000999997 -1.87603e-08 0)
(0.000999993 -2.53581e-08 0)
(0.000999988 -3.23554e-08 0)
(0.000999983 -3.9025e-08 0)
(0.000999975 -4.63538e-08 0)
(0.000999967 -5.31018e-08 0)
(0.000999957 -6.20378e-08 0)
(0.000999947 -7.00158e-08 0)
(0.000999934 -8.40192e-08 0)
(0.000999922 -9.65384e-08 0)
(0.000999904 -1.22654e-07 0)
(0.000999888 -1.43406e-07 0)
(0.000999862 -1.89112e-07 0)
(0.000999843 -2.1501e-07 0)
(0.000999803 -2.86865e-07 0)
(0.000999787 -3.0465e-07 0)
(0.000999729 -4.20208e-07 0)
(0.001 -2.6125e-09 0)
(0.001 -8.60618e-09 0)
(0.001 -1.58936e-08 0)
(0.000999999 -2.46999e-08 0)
(0.000999996 -3.44337e-08 0)
(0.000999991 -4.51157e-08 0)
(0.000999985 -5.58564e-08 0)
(0.000999978 -6.75462e-08 0)
(0.000999969 -7.8866e-08 0)
(0.000999957 -9.23921e-08 0)
(0.000999946 -1.0478e-07 0)
(0.000999929 -1.2254e-07 0)
(0.000999914 -1.38025e-07 0)
(0.000999891 -1.65868e-07 0)
(0.000999872 -1.87286e-07 0)
(0.000999838 -2.32866e-07 0)
(0.000999817 -2.58122e-07 0)
(0.000999764 -3.30586e-07 0)
(0.000999751 -3.48692e-07 0)
(0.000999667 -4.68334e-07 0)
(0.000999999 3.91102e-11 0)
(0.000999998 4.79103e-10 0)
(0.000999997 6.25361e-10 0)
(0.000999993 1.74952e-10 0)
(0.000999988 -4.31791e-10 0)
(0.000999982 -1.49727e-09 0)
(0.000999975 -2.40482e-09 0)
(0.000999965 -4.18244e-09 0)
(0.000999955 -5.45333e-09 0)
(0.000999941 -8.71828e-09 0)
(0.000999928 -1.08043e-08 0)
(0.00099991 -1.8082e-08 0)
(0.000999893 -2.31105e-08 0)
(0.000999868 -3.99632e-08 0)
(0.000999846 -5.02751e-08 0)
(0.000999807 -8.39528e-08 0)
(0.000999781 -9.78022e-08 0)
(0.000999721 -1.586e-07 0)
(0.000999698 -1.6756e-07 0)
(0.000999609 -2.79501e-07 0)
(0.001 -3.87245e-09 0)
(0.001 -1.27872e-08 0)
(0.001 -2.31841e-08 0)
(0.001 -3.4594e-08 0)
(0.000999997 -4.60618e-08 0)
(0.000999991 -5.75451e-08 0)
(0.000999984 -6.86253e-08 0)
(0.000999974 -8.00921e-08 0)
(0.000999963 -9.09373e-08 0)
(0.000999948 -1.034e-07 0)
(0.000999934 -1.145e-07 0)
(0.000999914 -1.30094e-07 0)
(0.000999896 -1.4295e-07 0)
(0.000999865 -1.66438e-07 0)
(0.000999842 -1.82594e-07 0)
(0.000999793 -2.20586e-07 0)
(0.000999768 -2.37799e-07 0)
(0.000999688 -3.00817e-07 0)
(0.00099967 -3.11349e-07 0)
(0.000999536 -4.24544e-07 0)
(0.000999999 4.00481e-09 0)
(0.000999996 1.22129e-08 0)
(0.000999994 2.04977e-08 0)
(0.00099999 2.82554e-08 0)
(0.000999984 3.53427e-08 0)
(0.000999978 4.16842e-08 0)
(0.00099997 4.75841e-08 0)
(0.000999959 5.26297e-08 0)
(0.000999948 5.7958e-08 0)
(0.000999932 6.18723e-08 0)
(0.000999917 6.67434e-08 0)
(0.000999896 6.87326e-08 0)
(0.000999877 7.33499e-08 0)
(0.000999845 7.08705e-08 0)
(0.000999821 7.50261e-08 0)
(0.000999769 6.24133e-08 0)
(0.000999739 6.70518e-08 0)
(0.000999654 3.12395e-08 0)
(0.000999628 3.83075e-08 0)
(0.000999492 -5.58726e-08 0)
(0.001 -8.68764e-09 0)
(0.001 -2.37325e-08 0)
(0.001 -3.63862e-08 0)
(0.001 -4.78699e-08 0)
(0.000999995 -5.88684e-08 0)
(0.000999988 -6.99247e-08 0)
(0.00099998 -8.06089e-08 0)
(0.000999969 -9.16548e-08 0)
(0.000999958 -1.0162e-07 0)
(0.000999941 -1.12602e-07 0)
(0.000999927 -1.22201e-07 0)
(0.000999902 -1.34792e-07 0)
(0.000999885 -1.44629e-07 0)
(0.000999847 -1.61691e-07 0)
(0.000999827 -1.7127e-07 0)
(0.000999762 -1.96575e-07 0)
(0.000999743 -2.02303e-07 0)
(0.000999623 -2.45016e-07 0)
(0.000999616 -2.41635e-07 0)
(0.00099939 -3.32631e-07 0)
)
;

boundaryField
{
    sides
    {
        type            slip;
    }
    inlet
    {
        type            fixedValue;
        value           uniform (0.001 0 0);
    }
    outlet
    {
        type            zeroGradient;
    }
    frontAndBack
    {
        type            empty;
    }
}


// ************************************************************************* //
