/*--------------------------------*- C++ -*----------------------------------*\
  =========                 |
  \\      /  F ield         | OpenFOAM: The Open Source CFD Toolbox
   \\    /   O peration     | Website:  https://openfoam.org
    \\  /    A nd           | Version:  7
     \\/     M anipulation  |
\*---------------------------------------------------------------------------*/
FoamFile
{
    version     2.0;
    format      ascii;
    class       surfaceScalarField;
    location    "39";
    object      phi;
}
// * * * * * * * * * * * * * * * * * * * * * * * * * * * * * * * * * * * * * //

dimensions      [0 4 -1 0 0 0 0];

internalField   nonuniform List<scalar> 
760
(
4.99999e-06
1.02062e-11
4.99999e-06
-3.76535e-12
5e-06
-1.28895e-11
5.00002e-06
-2.1348e-11
5.00004e-06
-3.00768e-11
5.00008e-06
-4.29837e-11
5.00013e-06
-5.43865e-11
5.00018e-06
-5.47495e-11
5.00025e-06
-6.64335e-11
5.00033e-06
-8.00503e-11
5.00042e-06
-8.93293e-11
5.00053e-06
-1.10639e-10
5.00066e-06
-1.21353e-10
5.00082e-06
-1.61718e-10
5.00099e-06
-1.73186e-10
5.00125e-06
-2.54721e-10
5.00151e-06
-2.58597e-10
5.00195e-06
-4.36589e-10
5.00237e-06
-4.22979e-10
-8.97052e-10
5.00002e-06
-1.14891e-11
5.00003e-06
-1.72199e-11
5.00004e-06
-2.81996e-11
5.00006e-06
-4.34005e-11
5.00009e-06
-5.92568e-11
5.00013e-06
-7.63098e-11
5.00018e-06
-9.34629e-11
5.00023e-06
-1.14286e-10
5.0003e-06
-1.31422e-10
5.00038e-06
-1.57277e-10
5.00046e-06
-1.75631e-10
5.00057e-06
-2.15147e-10
5.00069e-06
-2.38215e-10
5.00084e-06
-3.10763e-10
5.00101e-06
-3.42988e-10
5.00124e-06
-4.81246e-10
5.00149e-06
-5.14067e-10
5.00184e-06
-7.77475e-10
5.00219e-06
-7.77818e-10
-1.27298e-09
4.99999e-06
-3.75655e-12
4.99999e-06
-1.82937e-11
4.99999e-06
-3.62664e-11
5.00001e-06
-5.88265e-11
5.00003e-06
-8.34439e-11
5.00006e-06
-1.10027e-10
5.0001e-06
-1.35974e-10
5.00016e-06
-1.65976e-10
5.00022e-06
-1.93415e-10
5.00029e-06
-2.29544e-10
5.00038e-06
-2.60226e-10
5.00048e-06
-3.13189e-10
5.00059e-06
-3.54506e-10
5.00073e-06
-4.48138e-10
5.0009e-06
-5.09998e-10
5.0011e-06
-6.79969e-10
5.00134e-06
-7.55494e-10
5.00162e-06
-1.05618e-09
5.00196e-06
-1.11084e-09
-1.70616e-09
5e-06
-1.10371e-11
5.00001e-06
-2.93818e-11
5.00003e-06
-5.15886e-11
5.00005e-06
-7.95056e-11
5.00007e-06
-1.10373e-10
5.00011e-06
-1.44266e-10
5.00015e-06
-1.77809e-10
5.0002e-06
-2.15444e-10
5.00026e-06
-2.50342e-10
5.00033e-06
-2.96379e-10
5.0004e-06
-3.35511e-10
5.00049e-06
-4.01747e-10
5.00059e-06
-4.54919e-10
5.00072e-06
-5.70396e-10
5.00086e-06
-6.5153e-10
5.00104e-06
-8.55529e-10
5.00124e-06
-9.5625e-10
5.00148e-06
-1.29889e-09
5.00174e-06
-1.36668e-09
-1.91967e-09
5e-06
-9.41926e-12
5e-06
-3.2097e-11
5e-06
-5.93466e-11
5.00001e-06
-9.23646e-11
5.00003e-06
-1.29037e-10
5.00006e-06
-1.69686e-10
5.00009e-06
-2.10609e-10
5.00013e-06
-2.55904e-10
5.00018e-06
-2.99595e-10
5.00024e-06
-3.54223e-10
5.00031e-06
-4.03772e-10
5.00039e-06
-4.80583e-10
5.00048e-06
-5.47713e-10
5.00059e-06
-6.77533e-10
5.00072e-06
-7.79169e-10
5.00087e-06
-1.00186e-09
5.00104e-06
-1.12796e-09
5.00123e-06
-1.48418e-09
5.00143e-06
-1.57469e-09
-2.18838e-09
5e-06
-1.02686e-11
5e-06
-3.67049e-11
5.00001e-06
-6.8591e-11
5.00002e-06
-1.06671e-10
5.00004e-06
-1.48679e-10
5.00007e-06
-1.9548e-10
5.0001e-06
-2.42456e-10
5.00014e-06
-2.94291e-10
5.00019e-06
-3.43689e-10
5.00024e-06
-4.04484e-10
5.0003e-06
-4.59764e-10
5.00036e-06
-5.44723e-10
5.00043e-06
-6.20522e-10
5.00052e-06
-7.64163e-10
5.00062e-06
-8.79846e-10
5.00074e-06
-1.1223e-09
5.00088e-06
-1.26539e-09
5.00104e-06
-1.6434e-09
5.00121e-06
-1.74713e-09
-2.32383e-09
5e-06
-1.10026e-11
5e-06
-4.01236e-11
5.00001e-06
-7.5223e-11
5.00002e-06
-1.16674e-10
5.00003e-06
-1.62267e-10
5.00005e-06
-2.13006e-10
5.00007e-06
-2.64446e-10
5.0001e-06
-3.21124e-10
5.00013e-06
-3.76077e-10
5.00017e-06
-4.43143e-10
5.00022e-06
-5.0546e-10
5.00027e-06
-5.97742e-10
5.00034e-06
-6.82027e-10
5.00041e-06
-8.34581e-10
5.00049e-06
-9.61266e-10
5.00058e-06
-1.21431e-09
5.00068e-06
-1.37006e-09
5.0008e-06
-1.75514e-09
5.00091e-06
-1.86513e-09
-2.47456e-09
5e-06
-1.1295e-11
5e-06
-4.22385e-11
5e-06
-7.94968e-11
5.00001e-06
-1.23297e-10
5.00002e-06
-1.72155e-10
5.00004e-06
-2.26673e-10
5.00005e-06
-2.82189e-10
5.00008e-06
-3.42763e-10
5.0001e-06
-4.01506e-10
5.00013e-06
-4.72421e-10
5.00017e-06
-5.38393e-10
5.0002e-06
-6.35058e-10
5.00025e-06
-7.24229e-10
5.0003e-06
-8.83654e-10
5.00035e-06
-1.01811e-09
5.00042e-06
-1.28063e-09
5.00049e-06
-1.44532e-09
5.00058e-06
-1.8394e-09
5.00067e-06
-1.95876e-09
-2.55161e-09
5e-06
-1.13716e-11
5e-06
-4.33758e-11
5e-06
-8.21477e-11
5.00001e-06
-1.27711e-10
5.00001e-06
-1.78604e-10
5.00002e-06
-2.35213e-10
5.00003e-06
-2.92762e-10
5.00005e-06
-3.55247e-10
5.00006e-06
-4.16011e-10
5.00008e-06
-4.89204e-10
5.0001e-06
-5.57922e-10
5.00012e-06
-6.57957e-10
5.00015e-06
-7.5085e-10
5.00018e-06
-9.14412e-10
5.00022e-06
-1.05329e-09
5.00025e-06
-1.32025e-09
5.0003e-06
-1.48952e-09
5.00035e-06
-1.88699e-09
5.00039e-06
-2.00704e-09
-2.60863e-09
5e-06
-1.13907e-11
5e-06
-4.38064e-11
5e-06
-8.31421e-11
5e-06
-1.29282e-10
5e-06
-1.80677e-10
5.00001e-06
-2.37783e-10
5.00001e-06
-2.95923e-10
5.00002e-06
-3.59282e-10
5.00002e-06
-4.21175e-10
5.00003e-06
-4.95485e-10
5.00003e-06
-5.65097e-10
5.00004e-06
-6.65731e-10
5.00005e-06
-7.59194e-10
5.00006e-06
-9.23722e-10
5.00007e-06
-1.06408e-09
5.00008e-06
-1.33295e-09
5.0001e-06
-1.50444e-09
5.00011e-06
-1.90348e-09
5.00013e-06
-2.02634e-09
-2.62535e-09
5e-06
-1.1399e-11
5e-06
-4.34108e-11
5e-06
-8.21547e-11
5e-06
-1.27718e-10
5e-06
-1.78583e-10
4.99999e-06
-2.3518e-10
4.99999e-06
-2.92714e-10
4.99998e-06
-3.55253e-10
4.99998e-06
-4.16032e-10
4.99997e-06
-4.89236e-10
4.99997e-06
-5.57966e-10
4.99996e-06
-6.5795e-10
4.99995e-06
-7.50818e-10
4.99994e-06
-9.1439e-10
4.99993e-06
-1.0533e-09
4.99992e-06
-1.32026e-09
4.9999e-06
-1.48955e-09
4.99989e-06
-1.88696e-09
4.99987e-06
-2.00695e-09
-2.60845e-09
5e-06
-1.13308e-11
5e-06
-4.22669e-11
5e-06
-7.95058e-11
4.99999e-06
-1.23321e-10
4.99999e-06
-1.7214e-10
4.99998e-06
-2.26649e-10
4.99997e-06
-2.8213e-10
4.99995e-06
-3.42748e-10
4.99994e-06
-4.01517e-10
4.99992e-06
-4.72424e-10
4.9999e-06
-5.38433e-10
4.99988e-06
-6.35093e-10
4.99985e-06
-7.24232e-10
4.99982e-06
-8.83607e-10
4.99978e-06
-1.01809e-09
4.99975e-06
-1.28061e-09
4.9997e-06
-1.44534e-09
4.99965e-06
-1.83933e-09
4.99961e-06
-1.95862e-09
-2.55135e-09
5e-06
-1.1004e-11
5e-06
-4.01183e-11
5e-06
-7.52353e-11
4.99999e-06
-1.16676e-10
4.99998e-06
-1.62284e-10
4.99996e-06
-2.13014e-10
4.99995e-06
-2.64425e-10
4.99992e-06
-3.21057e-10
4.9999e-06
-3.76054e-10
4.99987e-06
-4.43074e-10
4.99983e-06
-5.05399e-10
4.9998e-06
-5.9775e-10
4.99975e-06
-6.82076e-10
4.9997e-06
-8.34551e-10
4.99965e-06
-9.61216e-10
4.99958e-06
-1.21422e-09
4.99951e-06
-1.37005e-09
4.99942e-06
-1.75504e-09
4.99933e-06
-1.86503e-09
-2.47418e-09
5e-06
-1.02337e-11
5e-06
-3.66767e-11
4.99999e-06
-6.85714e-11
4.99998e-06
-1.06656e-10
4.99997e-06
-1.48757e-10
4.99995e-06
-1.95468e-10
4.99993e-06
-2.42517e-10
4.9999e-06
-2.94204e-10
4.99987e-06
-3.436e-10
4.99983e-06
-4.044e-10
4.99978e-06
-4.59636e-10
4.99973e-06
-5.44626e-10
4.99966e-06
-6.20534e-10
4.99959e-06
-7.64153e-10
4.99951e-06
-8.79805e-10
4.99942e-06
-1.12217e-09
4.99932e-06
-1.26531e-09
4.9992e-06
-1.64322e-09
4.99909e-06
-1.74697e-09
-2.3234e-09
5e-06
-9.39597e-12
5e-06
-3.20714e-11
4.99999e-06
-5.93387e-11
4.99998e-06
-9.23962e-11
4.99996e-06
-1.29011e-10
4.99993e-06
-1.69759e-10
4.9999e-06
-2.10675e-10
4.99986e-06
-2.5603e-10
4.99981e-06
-2.99544e-10
4.99976e-06
-3.54157e-10
4.9997e-06
-4.03692e-10
4.99964e-06
-4.80458e-10
4.99957e-06
-5.47679e-10
4.99948e-06
-6.77518e-10
4.99938e-06
-7.79165e-10
4.99926e-06
-1.00172e-09
4.99912e-06
-1.12785e-09
4.99896e-06
-1.48391e-09
4.99879e-06
-1.5745e-09
-2.1879e-09
5e-06
-1.10343e-11
5e-06
-2.93886e-11
5e-06
-5.1631e-11
4.99999e-06
-7.95049e-11
4.99997e-06
-1.10341e-10
4.99994e-06
-1.44392e-10
4.99991e-06
-1.7769e-10
4.99987e-06
-2.15601e-10
4.99982e-06
-2.50533e-10
4.99976e-06
-2.96429e-10
4.99969e-06
-3.35506e-10
4.99961e-06
-4.0163e-10
4.99952e-06
-4.54825e-10
4.99941e-06
-5.70307e-10
4.99928e-06
-6.51503e-10
4.99913e-06
-8.55365e-10
4.99896e-06
-9.5611e-10
4.99877e-06
-1.29854e-09
4.99857e-06
-1.36642e-09
-1.91909e-09
5e-06
-3.76531e-12
4.99999e-06
-1.8336e-11
4.99997e-06
-3.63294e-11
4.99995e-06
-5.88378e-11
4.99993e-06
-8.3488e-11
4.99989e-06
-1.09743e-10
4.99985e-06
-1.36597e-10
4.9998e-06
-1.65906e-10
4.99974e-06
-1.93598e-10
4.99967e-06
-2.29758e-10
4.9996e-06
-2.60393e-10
4.99951e-06
-3.13219e-10
4.99941e-06
-3.54485e-10
4.99928e-06
-4.4807e-10
4.99914e-06
-5.10022e-10
4.99896e-06
-6.79885e-10
4.99876e-06
-7.55457e-10
4.99852e-06
-1.05593e-09
4.99826e-06
-1.11072e-09
-1.70574e-09
5.00001e-06
-1.15047e-11
5.00001e-06
-1.72828e-11
5.00001e-06
-2.82004e-11
4.99999e-06
-4.34027e-11
4.99997e-06
-5.91653e-11
4.99994e-06
-7.6666e-11
4.9999e-06
-9.35374e-11
4.99984e-06
-1.14624e-10
4.99978e-06
-1.31385e-10
4.99971e-06
-1.57336e-10
4.99962e-06
-1.75793e-10
4.99952e-06
-2.15254e-10
4.99941e-06
-2.38267e-10
4.99927e-06
-3.1068e-10
4.9991e-06
-3.43007e-10
4.9989e-06
-4.81145e-10
4.99866e-06
-5.14071e-10
4.99838e-06
-7.7721e-10
4.99804e-06
-7.77694e-10
-1.27248e-09
4.99998e-06
1.01677e-11
4.99997e-06
-3.78421e-12
4.99996e-06
-1.27549e-11
4.99994e-06
-2.13115e-11
4.99991e-06
-2.80106e-11
4.99987e-06
-3.17019e-11
4.99983e-06
-4.00767e-11
4.99977e-06
-5.612e-11
4.9997e-06
-6.62346e-11
4.99962e-06
-8.00163e-11
4.99954e-06
-8.95426e-11
4.99943e-06
-1.10906e-10
4.99931e-06
-1.21544e-10
4.99916e-06
-1.61795e-10
4.99899e-06
-1.73299e-10
4.99876e-06
-2.54802e-10
4.99851e-06
-2.58723e-10
4.99816e-06
-4.36612e-10
4.99781e-06
-4.23048e-10
-8.97032e-10
5.00001e-06
5.00001e-06
5e-06
4.99998e-06
4.99996e-06
4.99992e-06
4.99987e-06
4.99982e-06
4.99975e-06
4.99967e-06
4.99958e-06
4.99947e-06
4.99934e-06
4.99918e-06
4.999e-06
4.99875e-06
4.99849e-06
4.99805e-06
4.99763e-06
)
;

boundaryField
{
    sides
    {
        type            calculated;
        value           uniform 0;
    }
    inlet
    {
        type            calculated;
        value           nonuniform List<scalar> 
20
(
-5e-06
-5e-06
-5e-06
-5e-06
-5e-06
-5e-06
-5e-06
-5e-06
-5e-06
-5e-06
-5e-06
-5e-06
-5e-06
-5e-06
-5e-06
-5e-06
-5e-06
-5e-06
-5e-06
-5e-06
)
;
    }
    outlet
    {
        type            calculated;
        value           nonuniform List<scalar> 
20
(
5.00327e-06
5.00257e-06
5.00239e-06
5.00195e-06
5.0017e-06
5.00135e-06
5.00107e-06
5.00075e-06
5.00045e-06
5.00015e-06
4.99985e-06
4.99955e-06
4.99925e-06
4.99893e-06
4.99865e-06
4.9983e-06
4.99805e-06
4.99761e-06
4.99743e-06
4.99673e-06
)
;
    }
    frontAndBack
    {
        type            empty;
        value           nonuniform 0();
    }
}


// ************************************************************************* //
