/*--------------------------------*- C++ -*----------------------------------*\
  =========                 |
  \\      /  F ield         | OpenFOAM: The Open Source CFD Toolbox
   \\    /   O peration     | Website:  https://openfoam.org
    \\  /    A nd           | Version:  7
     \\/     M anipulation  |
\*---------------------------------------------------------------------------*/
FoamFile
{
    version     2.0;
    format      ascii;
    class       volVectorField;
    location    "39";
    object      U;
}
// * * * * * * * * * * * * * * * * * * * * * * * * * * * * * * * * * * * * * //

dimensions      [0 1 -1 0 0 0 0];

internalField   nonuniform List<vector> 
400
(
(0.099993 -8.68486e-07 0)
(0.0999929 -2.36678e-06 0)
(0.0999927 -3.62699e-06 0)
(0.099993 -4.77555e-06 0)
(0.0999935 -5.86733e-06 0)
(0.0999943 -6.98748e-06 0)
(0.0999952 -8.05911e-06 0)
(0.0999964 -9.16084e-06 0)
(0.0999977 -1.01687e-05 0)
(0.0999996 -1.12648e-05 0)
(0.100001 -1.22226e-05 0)
(0.100004 -1.34794e-05 0)
(0.100006 -1.44559e-05 0)
(0.10001 -1.61508e-05 0)
(0.100012 -1.70991e-05 0)
(0.100019 -1.96239e-05 0)
(0.100022 -2.02016e-05 0)
(0.100035 -2.44811e-05 0)
(0.100036 -2.41613e-05 0)
(0.10006 -3.32688e-05 0)
(0.0999942 4.00887e-07 0)
(0.0999946 1.22265e-06 0)
(0.0999949 2.04907e-06 0)
(0.0999953 2.82275e-06 0)
(0.0999959 3.54644e-06 0)
(0.0999966 4.17124e-06 0)
(0.0999975 4.77288e-06 0)
(0.0999987 5.27734e-06 0)
(0.1 5.80477e-06 0)
(0.100002 6.20078e-06 0)
(0.100003 6.68854e-06 0)
(0.100006 6.8809e-06 0)
(0.100008 7.33725e-06 0)
(0.100012 7.08931e-06 0)
(0.100014 7.51044e-06 0)
(0.10002 6.25338e-06 0)
(0.100023 6.72029e-06 0)
(0.100033 3.13209e-06 0)
(0.100036 3.83677e-06 0)
(0.10005 -5.60293e-06 0)
(0.0999947 -3.86036e-07 0)
(0.0999945 -1.26994e-06 0)
(0.0999944 -2.29524e-06 0)
(0.0999945 -3.42712e-06 0)
(0.099995 -4.57242e-06 0)
(0.0999956 -5.7234e-06 0)
(0.0999964 -6.8326e-06 0)
(0.0999975 -7.99829e-06 0)
(0.0999987 -9.09101e-06 0)
(0.1 -1.03481e-05 0)
(0.100002 -1.14629e-05 0)
(0.100004 -1.30219e-05 0)
(0.100006 -1.42966e-05 0)
(0.10001 -1.66256e-05 0)
(0.100012 -1.82205e-05 0)
(0.100018 -2.20064e-05 0)
(0.100021 -2.37316e-05 0)
(0.100029 -3.00525e-05 0)
(0.100032 -3.11314e-05 0)
(0.100046 -4.24926e-05 0)
(0.0999955 6.39554e-09 0)
(0.0999957 6.132e-08 0)
(0.0999958 9.84663e-08 0)
(0.0999962 6.79845e-08 0)
(0.0999968 4.05513e-09 0)
(0.0999975 -1.02615e-07 0)
(0.0999983 -2.06238e-07 0)
(0.0999993 -3.9338e-07 0)
(0.100001 -5.31861e-07 0)
(0.100002 -8.75e-07 0)
(0.100004 -1.09544e-06 0)
(0.100006 -1.82469e-06 0)
(0.100007 -2.31533e-06 0)
(0.10001 -3.9758e-06 0)
(0.100013 -4.98411e-06 0)
(0.100017 -8.33225e-06 0)
(0.10002 -9.72049e-06 0)
(0.100027 -1.58175e-05 0)
(0.100029 -1.67469e-05 0)
(0.100039 -2.79899e-05 0)
(0.0999962 -2.56144e-07 0)
(0.0999961 -8.45112e-07 0)
(0.0999961 -1.55841e-06 0)
(0.0999963 -2.42513e-06 0)
(0.0999966 -3.39594e-06 0)
(0.0999972 -4.46464e-06 0)
(0.0999978 -5.55003e-06 0)
(0.0999986 -6.72936e-06 0)
(0.0999996 -7.87486e-06 0)
(0.100001 -9.24437e-06 0)
(0.100002 -1.04957e-05 0)
(0.100004 -1.22746e-05 0)
(0.100006 -1.38106e-05 0)
(0.100008 -1.65681e-05 0)
(0.10001 -1.86842e-05 0)
(0.100014 -2.32214e-05 0)
(0.100017 -2.57503e-05 0)
(0.100022 -3.30182e-05 0)
(0.100024 -3.4862e-05 0)
(0.100033 -4.68862e-05 0)
(0.0999969 -1.97528e-07 0)
(0.0999969 -6.53338e-07 0)
(0.099997 -1.18407e-06 0)
(0.0999972 -1.80419e-06 0)
(0.0999976 -2.46201e-06 0)
(0.0999981 -3.17217e-06 0)
(0.0999988 -3.85688e-06 0)
(0.0999996 -4.61285e-06 0)
(0.100001 -5.31203e-06 0)
(0.100002 -6.22864e-06 0)
(0.100003 -7.0393e-06 0)
(0.100004 -8.43566e-06 0)
(0.100006 -9.66493e-06 0)
(0.100008 -1.22353e-05 0)
(0.100009 -1.42745e-05 0)
(0.100012 -1.88141e-05 0)
(0.100015 -2.14118e-05 0)
(0.100019 -2.86232e-05 0)
(0.100021 -3.04551e-05 0)
(0.100027 -4.20782e-05 0)
(0.0999976 -2.09905e-07 0)
(0.0999976 -7.52626e-07 0)
(0.0999976 -1.41615e-06 0)
(0.0999978 -2.21902e-06 0)
(0.0999981 -3.13077e-06 0)
(0.0999985 -4.17245e-06 0)
(0.0999989 -5.25411e-06 0)
(0.0999995 -6.46291e-06 0)
(0.1 -7.64822e-06 0)
(0.100001 -9.0773e-06 0)
(0.100002 -1.04053e-05 0)
(0.100003 -1.23208e-05 0)
(0.100004 -1.40487e-05 0)
(0.100006 -1.7114e-05 0)
(0.100007 -1.96205e-05 0)
(0.10001 -2.46523e-05 0)
(0.100011 -2.77128e-05 0)
(0.100015 -3.54604e-05 0)
(0.100016 -3.76988e-05 0)
(0.100021 -4.98484e-05 0)
(0.0999983 -2.18845e-07 0)
(0.0999983 -8.1443e-07 0)
(0.0999983 -1.54459e-06 0)
(0.0999984 -2.41521e-06 0)
(0.0999986 -3.38685e-06 0)
(0.0999989 -4.45697e-06 0)
(0.0999993 -5.52244e-06 0)
(0.0999997 -6.66633e-06 0)
(0.1 -7.75539e-06 0)
(0.100001 -9.07554e-06 0)
(0.100002 -1.02959e-05 0)
(0.100002 -1.21283e-05 0)
(0.100003 -1.38203e-05 0)
(0.100004 -1.69146e-05 0)
(0.100005 -1.95188e-05 0)
(0.100007 -2.46664e-05 0)
(0.100008 -2.78708e-05 0)
(0.100011 -3.56234e-05 0)
(0.100012 -3.79073e-05 0)
(0.100015 -4.97469e-05 0)
(0.099999 -2.22791e-07 0)
(0.099999 -8.50462e-07 0)
(0.099999 -1.61898e-06 0)
(0.0999991 -2.52111e-06 0)
(0.0999992 -3.51763e-06 0)
(0.0999994 -4.61676e-06 0)
(0.0999996 -5.73395e-06 0)
(0.0999999 -6.96222e-06 0)
(0.1 -8.16918e-06 0)
(0.100001 -9.6329e-06 0)
(0.100001 -1.10045e-05 0)
(0.100001 -1.29949e-05 0)
(0.100002 -1.48321e-05 0)
(0.100003 -1.80762e-05 0)
(0.100003 -2.08208e-05 0)
(0.100004 -2.61387e-05 0)
(0.100005 -2.95052e-05 0)
(0.100006 -3.74743e-05 0)
(0.100007 -3.99002e-05 0)
(0.100009 -5.19912e-05 0)
(0.0999997 -2.24167e-07 0)
(0.0999997 -8.65959e-07 0)
(0.0999997 -1.64935e-06 0)
(0.0999997 -2.56635e-06 0)
(0.0999997 -3.59129e-06 0)
(0.0999998 -4.73636e-06 0)
(0.0999999 -5.9046e-06 0)
(0.0999999 -7.1718e-06 0)
(0.1 -8.40257e-06 0)
(0.1 -9.8784e-06 0)
(0.1 -1.12627e-05 0)
(0.100001 -1.32724e-05 0)
(0.100001 -1.51434e-05 0)
(0.100001 -1.84361e-05 0)
(0.100001 -2.1246e-05 0)
(0.100001 -2.66221e-05 0)
(0.100002 -3.00513e-05 0)
(0.100002 -3.80289e-05 0)
(0.100002 -4.04839e-05 0)
(0.100003 -5.24721e-05 0)
(0.1 -2.24441e-07 0)
(0.1 -8.66317e-07 0)
(0.1 -1.64945e-06 0)
(0.1 -2.56646e-06 0)
(0.1 -3.5911e-06 0)
(0.1 -4.73603e-06 0)
(0.1 -5.9041e-06 0)
(0.1 -7.17187e-06 0)
(0.0999999 -8.40281e-06 0)
(0.0999998 -9.87882e-06 0)
(0.0999997 -1.12632e-05 0)
(0.0999995 -1.32724e-05 0)
(0.0999993 -1.51432e-05 0)
(0.0999991 -1.8436e-05 0)
(0.0999989 -2.12462e-05 0)
(0.0999986 -2.66224e-05 0)
(0.0999984 -3.00517e-05 0)
(0.0999979 -3.80289e-05 0)
(0.0999977 -4.04832e-05 0)
(0.099997 -5.24714e-05 0)
(0.100001 -2.23416e-07 0)
(0.100001 -8.51114e-07 0)
(0.100001 -1.61919e-06 0)
(0.100001 -2.52148e-06 0)
(0.100001 -3.51735e-06 0)
(0.100001 -4.61626e-06 0)
(0.1 -5.73296e-06 0)
(0.1 -6.96226e-06 0)
(0.0999998 -8.16963e-06 0)
(0.0999994 -9.63337e-06 0)
(0.0999991 -1.10055e-05 0)
(0.0999985 -1.29951e-05 0)
(0.099998 -1.48317e-05 0)
(0.0999973 -1.80753e-05 0)
(0.0999967 -2.08204e-05 0)
(0.0999957 -2.61382e-05 0)
(0.099995 -2.95051e-05 0)
(0.0999936 -3.74722e-05 0)
(0.0999931 -3.98966e-05 0)
(0.0999911 -5.19844e-05 0)
(0.100002 -2.19212e-07 0)
(0.100002 -8.14691e-07 0)
(0.100002 -1.54483e-06 0)
(0.100002 -2.41551e-06 0)
(0.100001 -3.38696e-06 0)
(0.100001 -4.45694e-06 0)
(0.100001 -5.52189e-06 0)
(0.1 -6.66592e-06 0)
(0.0999997 -7.75581e-06 0)
(0.0999991 -9.07555e-06 0)
(0.0999984 -1.02965e-05 0)
(0.0999976 -1.21298e-05 0)
(0.0999967 -1.38219e-05 0)
(0.0999956 -1.69153e-05 0)
(0.0999946 -1.95196e-05 0)
(0.099993 -2.46675e-05 0)
(0.0999918 -2.78732e-05 0)
(0.0999895 -3.5625e-05 0)
(0.0999884 -3.79079e-05 0)
(0.0999851 -4.97451e-05 0)
(0.100002 -2.09589e-07 0)
(0.100002 -7.52319e-07 0)
(0.100002 -1.41614e-06 0)
(0.100002 -2.21894e-06 0)
(0.100002 -3.13169e-06 0)
(0.100002 -4.17241e-06 0)
(0.100001 -5.25438e-06 0)
(0.100001 -6.46118e-06 0)
(0.0999998 -7.64692e-06 0)
(0.099999 -9.07548e-06 0)
(0.0999981 -1.04031e-05 0)
(0.0999969 -1.23194e-05 0)
(0.0999957 -1.40486e-05 0)
(0.099994 -1.71124e-05 0)
(0.0999926 -1.96182e-05 0)
(0.0999903 -2.46478e-05 0)
(0.0999888 -2.77095e-05 0)
(0.0999854 -3.54538e-05 0)
(0.0999843 -3.76922e-05 0)
(0.0999792 -4.98342e-05 0)
(0.100003 -1.97027e-07 0)
(0.100003 -6.52976e-07 0)
(0.100003 -1.18401e-06 0)
(0.100003 -1.8046e-06 0)
(0.100002 -2.46314e-06 0)
(0.100002 -3.17325e-06 0)
(0.100001 -3.85879e-06 0)
(0.1 -4.61377e-06 0)
(0.0999995 -5.31131e-06 0)
(0.0999984 -6.22809e-06 0)
(0.0999972 -7.03832e-06 0)
(0.0999958 -8.435e-06 0)
(0.0999943 -9.66641e-06 0)
(0.0999923 -1.22374e-05 0)
(0.0999906 -1.42764e-05 0)
(0.0999877 -1.88148e-05 0)
(0.0999855 -2.14134e-05 0)
(0.0999812 -2.86239e-05 0)
(0.0999792 -3.0456e-05 0)
(0.0999731 -4.20759e-05 0)
(0.100004 -2.55996e-07 0)
(0.100004 -8.45032e-07 0)
(0.100004 -1.5586e-06 0)
(0.100004 -2.42499e-06 0)
(0.100003 -3.39514e-06 0)
(0.100003 -4.46608e-06 0)
(0.100002 -5.54952e-06 0)
(0.100001 -6.73151e-06 0)
(0.1 -7.8758e-06 0)
(0.0999991 -9.24403e-06 0)
(0.0999977 -1.04948e-05 0)
(0.0999959 -1.22718e-05 0)
(0.0999942 -1.38091e-05 0)
(0.0999916 -1.65664e-05 0)
(0.0999895 -1.86833e-05 0)
(0.0999857 -2.32166e-05 0)
(0.0999833 -2.57463e-05 0)
(0.0999776 -3.30088e-05 0)
(0.0999758 -3.48547e-05 0)
(0.099967 -4.68697e-05 0)
(0.100004 6.29315e-09 0)
(0.100004 6.05686e-08 0)
(0.100004 9.67432e-08 0)
(0.100004 6.75669e-08 0)
(0.100003 4.55881e-09 0)
(0.100002 -1.03726e-07 0)
(0.100002 -2.09549e-07 0)
(0.100001 -3.96778e-07 0)
(0.0999995 -5.37697e-07 0)
(0.099998 -8.78342e-07 0)
(0.0999965 -1.09672e-06 0)
(0.0999945 -1.82359e-06 0)
(0.0999925 -2.31418e-06 0)
(0.0999897 -3.97503e-06 0)
(0.0999872 -4.98466e-06 0)
(0.099983 -8.33124e-06 0)
(0.0999799 -9.71953e-06 0)
(0.0999735 -1.58138e-05 0)
(0.0999706 -1.6744e-05 0)
(0.0999612 -2.79829e-05 0)
(0.100005 -3.86148e-07 0)
(0.100005 -1.2704e-06 0)
(0.100006 -2.29664e-06 0)
(0.100005 -3.42917e-06 0)
(0.100005 -4.57443e-06 0)
(0.100004 -5.72224e-06 0)
(0.100004 -6.84352e-06 0)
(0.100002 -8.0034e-06 0)
(0.100001 -9.09379e-06 0)
(0.0999996 -1.03499e-05 0)
(0.099998 -1.14659e-05 0)
(0.0999957 -1.30243e-05 0)
(0.0999936 -1.42987e-05 0)
(0.0999902 -1.66258e-05 0)
(0.0999876 -1.82232e-05 0)
(0.0999823 -2.20067e-05 0)
(0.0999793 -2.37341e-05 0)
(0.0999707 -3.00496e-05 0)
(0.0999682 -3.11321e-05 0)
(0.099954 -4.24848e-05 0)
(0.100006 4.00213e-07 0)
(0.100005 1.22194e-06 0)
(0.100005 2.05126e-06 0)
(0.100005 2.82416e-06 0)
(0.100004 3.54677e-06 0)
(0.100003 4.17282e-06 0)
(0.100003 4.78683e-06 0)
(0.100001 5.28668e-06 0)
(0.1 5.81208e-06 0)
(0.0999983 6.20171e-06 0)
(0.0999966 6.68361e-06 0)
(0.0999942 6.8769e-06 0)
(0.099992 7.33656e-06 0)
(0.0999885 7.09193e-06 0)
(0.0999857 7.51155e-06 0)
(0.0999801 6.25658e-06 0)
(0.0999766 6.72248e-06 0)
(0.0999675 3.13936e-06 0)
(0.0999641 3.84226e-06 0)
(0.0999497 -5.59006e-06 0)
(0.100007 -8.69196e-07 0)
(0.100007 -2.36801e-06 0)
(0.100007 -3.62565e-06 0)
(0.100007 -4.77422e-06 0)
(0.100006 -5.86726e-06 0)
(0.100006 -6.98995e-06 0)
(0.100005 -8.04227e-06 0)
(0.100004 -9.15294e-06 0)
(0.100002 -1.01682e-05 0)
(0.1 -1.12712e-05 0)
(0.0999988 -1.22334e-05 0)
(0.0999961 -1.34892e-05 0)
(0.0999941 -1.44635e-05 0)
(0.0999899 -1.61573e-05 0)
(0.0999876 -1.71066e-05 0)
(0.0999805 -1.96318e-05 0)
(0.099978 -2.02102e-05 0)
(0.0999653 -2.44903e-05 0)
(0.0999637 -2.41703e-05 0)
(0.0999399 -3.32818e-05 0)
)
;

boundaryField
{
    sides
    {
        type            calculated;
        value           nonuniform List<vector> 
40
(
(0.100007 0 0)
(0.100007 0 0)
(0.100007 0 0)
(0.100007 0 0)
(0.100006 0 0)
(0.100006 0 0)
(0.100005 0 0)
(0.100004 0 0)
(0.100002 0 0)
(0.1 0 0)
(0.0999988 0 0)
(0.0999961 0 0)
(0.0999941 0 0)
(0.0999899 0 0)
(0.0999876 0 0)
(0.0999805 0 0)
(0.099978 0 0)
(0.0999653 0 0)
(0.0999637 0 0)
(0.0999399 0 0)
(0.099993 0 0)
(0.0999929 0 0)
(0.0999927 0 0)
(0.099993 0 0)
(0.0999935 0 0)
(0.0999943 0 0)
(0.0999952 0 0)
(0.0999964 0 0)
(0.0999977 0 0)
(0.0999996 0 0)
(0.100001 0 0)
(0.100004 0 0)
(0.100006 0 0)
(0.10001 0 0)
(0.100012 0 0)
(0.100019 0 0)
(0.100022 0 0)
(0.100035 0 0)
(0.100036 0 0)
(0.10006 0 0)
)
;
    }
    inlet
    {
        type            calculated;
        value           nonuniform List<vector> 
20
(
(0.099993 0 0)
(0.0999941 0 0)
(0.0999946 0 0)
(0.0999955 0 0)
(0.0999961 0 0)
(0.0999969 0 0)
(0.0999976 0 0)
(0.0999983 0 0)
(0.099999 0 0)
(0.0999996 0 0)
(0.1 0 0)
(0.100001 0 0)
(0.100002 0 0)
(0.100002 0 0)
(0.100003 0 0)
(0.100004 0 0)
(0.100005 0 0)
(0.100005 0 0)
(0.100006 0 0)
(0.100007 0 0)
)
;
    }
    outlet
    {
        type            calculated;
        value           nonuniform List<vector> 
20
(
(0.100061 -3.32691e-05 0)
(0.100051 -5.60296e-06 0)
(0.100046 -4.24928e-05 0)
(0.100039 -2.799e-05 0)
(0.100033 -4.68864e-05 0)
(0.100027 -4.20783e-05 0)
(0.100021 -4.98485e-05 0)
(0.100015 -4.97469e-05 0)
(0.100009 -5.19912e-05 0)
(0.100003 -5.24721e-05 0)
(0.099997 -5.24714e-05 0)
(0.0999911 -5.19844e-05 0)
(0.099985 -4.9745e-05 0)
(0.0999791 -4.98341e-05 0)
(0.0999729 -4.20758e-05 0)
(0.0999667 -4.68696e-05 0)
(0.0999609 -2.79829e-05 0)
(0.0999536 -4.24846e-05 0)
(0.0999492 -5.59003e-06 0)
(0.099939 -3.32815e-05 0)
)
;
    }
    frontAndBack
    {
        type            empty;
    }
}


// ************************************************************************* //
