/*--------------------------------*- C++ -*----------------------------------*\
  =========                 |
  \\      /  F ield         | OpenFOAM: The Open Source CFD Toolbox
   \\    /   O peration     | Website:  https://openfoam.org
    \\  /    A nd           | Version:  7
     \\/     M anipulation  |
\*---------------------------------------------------------------------------*/
FoamFile
{
    version     2.0;
    format      ascii;
    class       volScalarField;
    location    "30";
    object      ddt0(h);
}
// * * * * * * * * * * * * * * * * * * * * * * * * * * * * * * * * * * * * * //

dimensions      [0 1 -1 0 0 0 0];

internalField   nonuniform List<scalar> 
400
(
-2.87832e-08
-2.08712e-08
-1.12398e-08
-8.29775e-09
-3.36148e-09
3.91182e-09
-3.77302e-09
1.30298e-08
6.24244e-09
8.58353e-09
9.47309e-09
7.38553e-09
4.93136e-09
3.25385e-09
2.09353e-09
7.81967e-10
-4.33917e-10
-1.21402e-09
-1.08774e-09
-5.7188e-10
-2.54454e-08
-1.33736e-08
-2.48397e-09
-2.75543e-09
1.57142e-10
3.24684e-09
1.52098e-08
6.67424e-09
6.52156e-09
8.73489e-09
6.95793e-09
5.35848e-09
3.9652e-09
2.89595e-09
1.77246e-09
5.36201e-10
-3.76846e-10
-1.02991e-09
-9.67172e-10
-5.18903e-10
-4.31934e-08
-3.17481e-08
-2.07736e-08
-1.26921e-08
-4.99924e-09
-1.99834e-09
3.43504e-09
-3.70873e-09
7.18558e-09
5.27501e-09
4.13959e-09
4.17105e-09
4.19188e-09
3.69707e-09
2.95108e-09
2.13801e-09
1.31155e-09
2.32688e-10
-3.3977e-10
-3.85615e-10
-2.17601e-08
-1.83481e-08
-1.83766e-08
-8.42413e-09
-5.60641e-09
-2.21702e-09
-1.43774e-10
3.85392e-09
5.08937e-09
3.52814e-09
3.38396e-09
3.57222e-09
3.50264e-09
2.95561e-09
2.36558e-09
1.88918e-09
1.21846e-09
3.75262e-10
1.74756e-10
2.09905e-11
-2.18722e-08
-2.37545e-08
-2.02332e-08
-1.88257e-08
-1.31521e-08
-8.10347e-09
-5.84672e-09
-2.92529e-09
-2.86133e-09
-1.86956e-09
-4.62829e-10
4.99587e-10
1.29446e-09
1.81533e-09
2.25806e-09
2.31969e-09
1.83632e-09
1.20832e-09
7.3157e-10
9.10028e-11
-1.89061e-08
-1.78525e-08
-1.49715e-08
-1.31112e-08
-1.07365e-08
-6.65787e-09
-3.70038e-09
-2.7206e-09
-3.05992e-09
-2.14736e-09
-1.31313e-09
-8.03591e-10
-9.85623e-11
7.93155e-10
1.46614e-09
1.45205e-09
1.2975e-09
1.30154e-09
1.13353e-09
3.57399e-10
-1.88891e-08
-1.48953e-08
-1.48608e-08
-1.1162e-08
-9.70231e-09
-8.22419e-09
-6.58475e-09
-6.1577e-09
-5.85882e-09
-4.8045e-09
-3.56318e-09
-2.62024e-09
-1.66961e-09
-2.49388e-10
9.48876e-10
1.26697e-09
1.51795e-09
1.81825e-09
1.55698e-09
5.0433e-10
-1.6176e-08
-1.23915e-08
-9.73042e-09
-9.74965e-09
-8.97178e-09
-7.32813e-09
-6.01359e-09
-5.65038e-09
-5.51722e-09
-5.03603e-09
-4.02302e-09
-3.2241e-09
-2.62328e-09
-1.43723e-09
-1.67913e-10
5.30255e-10
1.20861e-09
1.71557e-09
1.63238e-09
6.59203e-10
-7.38271e-09
-8.69594e-09
-8.94365e-09
-8.53812e-09
-7.127e-09
-5.14222e-09
-3.95828e-09
-3.54819e-09
-3.33691e-09
-3.26357e-09
-2.83637e-09
-2.50596e-09
-2.31863e-09
-1.621e-09
-6.62046e-10
1.60991e-10
9.81361e-10
1.42315e-09
1.28376e-09
5.12957e-10
-1.69692e-09
-2.34068e-09
-2.34958e-09
-1.99178e-09
-1.90508e-09
-1.83516e-09
-1.49346e-09
-1.30264e-09
-1.24392e-09
-1.22409e-09
-1.08797e-09
-1.03012e-09
-9.46926e-10
-6.28558e-10
-2.58588e-10
5.37673e-11
3.83551e-10
5.51926e-10
4.5707e-10
1.48557e-10
1.67141e-09
2.3249e-09
2.34009e-09
1.98413e-09
1.9045e-09
1.83704e-09
1.50749e-09
1.32404e-09
1.254e-09
1.22799e-09
1.0859e-09
1.04172e-09
9.61384e-10
6.26409e-10
2.47174e-10
-7.6282e-11
-4.16962e-10
-5.83895e-10
-4.85166e-10
-1.6217e-10
7.40052e-09
8.67662e-09
8.92685e-09
8.52761e-09
7.1188e-09
5.15009e-09
3.97036e-09
3.56456e-09
3.34654e-09
3.26614e-09
2.83832e-09
2.50501e-09
2.31441e-09
1.61652e-09
6.60656e-10
-1.62868e-10
-9.87891e-10
-1.43481e-09
-1.30209e-09
-5.24255e-10
1.61702e-08
1.24124e-08
9.72503e-09
9.74621e-09
8.96643e-09
7.31989e-09
5.99258e-09
5.62856e-09
5.49739e-09
5.01182e-09
4.00896e-09
3.21442e-09
2.61838e-09
1.43954e-09
1.77399e-10
-5.09158e-10
-1.18633e-09
-1.70819e-09
-1.63917e-09
-6.64568e-10
1.88893e-08
1.49027e-08
1.48874e-08
1.12121e-08
9.71272e-09
8.17289e-09
6.52337e-09
6.10016e-09
5.82084e-09
4.74742e-09
3.50529e-09
2.58611e-09
1.66663e-09
2.6464e-10
-9.30299e-10
-1.23896e-09
-1.4878e-09
-1.80353e-09
-1.55377e-09
-5.03603e-10
1.88976e-08
1.78525e-08
1.50159e-08
1.31469e-08
1.07183e-08
6.60425e-09
3.6737e-09
2.67624e-09
3.07158e-09
2.15107e-09
1.2512e-09
7.31968e-10
6.92624e-11
-7.86925e-10
-1.45461e-09
-1.43996e-09
-1.28278e-09
-1.29207e-09
-1.12834e-09
-3.54583e-10
2.19053e-08
2.37555e-08
2.02772e-08
1.87874e-08
1.3082e-08
8.09162e-09
5.9035e-09
2.83064e-09
2.84608e-09
1.97789e-09
5.01816e-10
-5.54496e-10
-1.35829e-09
-1.84623e-09
-2.27184e-09
-2.33166e-09
-1.84273e-09
-1.20731e-09
-7.28396e-10
-8.97295e-11
2.17874e-08
1.84284e-08
1.83823e-08
8.38509e-09
5.57868e-09
2.31029e-09
8.80432e-11
-3.85383e-09
-5.35174e-09
-3.49782e-09
-3.23835e-09
-3.52272e-09
-3.541e-09
-3.0068e-09
-2.40102e-09
-1.91671e-09
-1.23938e-09
-3.83429e-10
-1.75429e-10
-2.14754e-11
4.32054e-08
3.17231e-08
2.06096e-08
1.24682e-08
5.12038e-09
2.25365e-09
-3.65939e-09
4.45286e-09
-7.40653e-09
-5.4608e-09
-4.01788e-09
-4.03797e-09
-4.16562e-09
-3.73077e-09
-2.98916e-09
-2.16938e-09
-1.33666e-09
-2.45397e-10
3.37196e-10
3.85829e-10
2.54596e-08
1.34067e-08
2.47568e-09
2.72222e-09
-7.96202e-11
-3.08066e-09
-2.07714e-08
-5.70177e-09
-6.52445e-09
-8.94862e-09
-7.00758e-09
-5.32337e-09
-3.93871e-09
-2.89571e-09
-1.78109e-09
-5.45679e-10
3.65491e-10
1.02009e-09
9.61584e-10
5.15989e-10
2.87868e-08
2.08361e-08
1.13438e-08
8.5612e-09
3.24393e-09
-4.3831e-09
9.54432e-09
-1.46713e-08
-5.82091e-09
-8.35569e-09
-9.69282e-09
-7.52629e-09
-4.91655e-09
-3.19657e-09
-2.0513e-09
-7.62563e-10
4.35135e-10
1.20598e-09
1.0785e-09
5.67792e-10
)
;

boundaryField
{
    sides
    {
        type            calculated;
        value           nonuniform List<scalar> 
40
(
2.87868e-08
2.08361e-08
1.13438e-08
8.5612e-09
3.24393e-09
-4.3831e-09
9.54432e-09
-1.46713e-08
-5.82091e-09
-8.35569e-09
-9.69282e-09
-7.52629e-09
-4.91655e-09
-3.19657e-09
-2.0513e-09
-7.62563e-10
4.35135e-10
1.20598e-09
1.0785e-09
5.67792e-10
-2.87832e-08
-2.08712e-08
-1.12398e-08
-8.29775e-09
-3.36148e-09
3.91182e-09
-3.77302e-09
1.30298e-08
6.24244e-09
8.58353e-09
9.47309e-09
7.38553e-09
4.93136e-09
3.25385e-09
2.09353e-09
7.81967e-10
-4.33917e-10
-1.21402e-09
-1.08774e-09
-5.7188e-10
)
;
    }
    inlet
    {
        type            calculated;
        value           nonuniform List<scalar> 
20
(
-2.87832e-08
-2.54454e-08
-4.31934e-08
-2.17601e-08
-2.18722e-08
-1.89061e-08
-1.88891e-08
-1.6176e-08
-7.38271e-09
-1.69692e-09
1.67141e-09
7.40052e-09
1.61702e-08
1.88893e-08
1.88976e-08
2.19053e-08
2.17874e-08
4.32054e-08
2.54596e-08
2.87868e-08
)
;
    }
    outlet
    {
        type            calculated;
        value           uniform 0;
    }
    frontAndBack
    {
        type            empty;
    }
}


// ************************************************************************* //
