/*--------------------------------*- C++ -*----------------------------------*\
  =========                 |
  \\      /  F ield         | OpenFOAM: The Open Source CFD Toolbox
   \\    /   O peration     | Website:  https://openfoam.org
    \\  /    A nd           | Version:  7
     \\/     M anipulation  |
\*---------------------------------------------------------------------------*/
FoamFile
{
    version     2.0;
    format      ascii;
    class       volVectorField;
    location    "30";
    object      ddt0(hU);
}
// * * * * * * * * * * * * * * * * * * * * * * * * * * * * * * * * * * * * * //

dimensions      [0 2 -2 0 0 0 0];

internalField   nonuniform List<vector> 
400
(
(2.66001e-10 -1.11223e-09 0)
(-4.22372e-09 -3.649e-09 0)
(-4.3401e-09 -5.34569e-09 0)
(-2.08891e-09 -6.22138e-09 0)
(-9.79272e-10 -6.19994e-09 0)
(-6.4298e-10 -4.31556e-09 0)
(-2.29208e-09 -2.36122e-09 0)
(-4.54712e-10 1.97196e-09 0)
(-1.93695e-09 1.19881e-09 0)
(-4.22806e-09 2.61568e-09 0)
(-5.55862e-09 2.52614e-09 0)
(-7.23829e-09 2.21187e-09 0)
(-8.41423e-09 1.23177e-09 0)
(-8.42533e-09 -8.93998e-10 0)
(-7.324e-09 -3.07967e-09 0)
(-4.35516e-09 -4.75818e-09 0)
(4.04643e-10 -3.92718e-09 0)
(2.7256e-09 -2.53114e-09 0)
(7.17839e-09 7.2972e-10 0)
(3.16774e-09 3.25578e-09 0)
(-6.14164e-10 1.51193e-09 0)
(-5.87767e-09 1.47169e-09 0)
(-5.27054e-09 1.63311e-09 0)
(-2.27959e-09 1.8763e-09 0)
(-2.40349e-10 6.93321e-10 0)
(-8.74134e-11 4.15606e-11 0)
(2.59109e-09 -1.00782e-09 0)
(1.02352e-09 -8.07007e-10 0)
(-1.17883e-09 -1.00169e-09 0)
(-2.11254e-09 8.34768e-10 0)
(-5.6634e-09 1.52425e-09 0)
(-7.81848e-09 1.92965e-09 0)
(-9.23889e-09 1.84025e-09 0)
(-9.33048e-09 8.37437e-10 0)
(-8.13753e-09 -3.29965e-10 0)
(-5.09073e-09 -2.38272e-09 0)
(-1.26391e-10 -3.09861e-09 0)
(2.53729e-09 -3.63379e-09 0)
(7.55884e-09 -1.9205e-09 0)
(3.87609e-09 2.59873e-09 0)
(4.9945e-10 -2.43136e-09 0)
(-1.36879e-09 -6.54157e-09 0)
(-2.69541e-09 -8.01615e-09 0)
(-2.58022e-09 -8.72022e-09 0)
(-2.70337e-09 -8.60588e-09 0)
(-3.23004e-09 -6.25393e-09 0)
(-3.41364e-09 -2.12349e-09 0)
(-3.77421e-09 -5.15191e-11 0)
(-2.43909e-09 3.82511e-09 0)
(-3.92186e-09 4.94089e-09 0)
(-5.56192e-09 5.37882e-09 0)
(-6.20868e-09 4.92557e-09 0)
(-7.09457e-09 3.04303e-09 0)
(-7.40214e-09 -7.1159e-10 0)
(-6.63717e-09 -4.48992e-09 0)
(-4.06253e-09 -8.82752e-09 0)
(9.21551e-11 -8.59409e-09 0)
(2.16117e-09 -7.53507e-09 0)
(6.14383e-09 -1.4294e-09 0)
(2.25778e-09 7.17444e-09 0)
(8.84083e-10 -4.58894e-09 0)
(-3.23602e-09 -1.12437e-08 0)
(-5.29246e-09 -1.44831e-08 0)
(-2.7606e-09 -1.60589e-08 0)
(-3.514e-10 -1.54144e-08 0)
(1.03317e-09 -1.25198e-08 0)
(1.14397e-09 -7.49602e-09 0)
(1.39971e-09 -2.0503e-09 0)
(4.70569e-10 1.35595e-09 0)
(-2.41574e-09 3.32628e-09 0)
(-5.31112e-09 4.73684e-09 0)
(-7.35881e-09 5.02491e-09 0)
(-9.0386e-09 3.47815e-09 0)
(-9.30211e-09 -8.80751e-10 0)
(-8.06543e-09 -5.83536e-09 0)
(-4.93528e-09 -1.19409e-08 0)
(-4.17531e-11 -1.19724e-08 0)
(2.62076e-09 -1.06146e-08 0)
(7.49013e-09 -2.52053e-09 0)
(3.63443e-09 9.22052e-09 0)
(6.44482e-10 -1.45084e-09 0)
(-2.53731e-09 -7.71616e-09 0)
(-2.57568e-09 -1.19613e-08 0)
(-1.29657e-09 -1.35594e-08 0)
(-1.38302e-09 -1.28596e-08 0)
(-2.61885e-09 -1.02712e-08 0)
(-3.02821e-09 -6.35668e-09 0)
(-2.31385e-09 -1.66833e-09 0)
(-2.22849e-09 1.62526e-09 0)
(-2.67206e-09 4.3112e-09 0)
(-3.33424e-09 5.71394e-09 0)
(-3.98844e-09 5.24992e-09 0)
(-4.81811e-09 2.88132e-09 0)
(-5.26705e-09 -2.07338e-09 0)
(-5.20119e-09 -7.23044e-09 0)
(-4.1663e-09 -1.40312e-08 0)
(-1.72727e-09 -1.4152e-08 0)
(-4.45468e-10 -1.30408e-08 0)
(2.95754e-09 -4.03337e-09 0)
(1.13144e-09 1.05544e-08 0)
(3.23154e-10 -3.09282e-09 0)
(-2.99258e-09 -1.09844e-08 0)
(-4.06932e-09 -1.69528e-08 0)
(-1.65158e-09 -2.02567e-08 0)
(9.28021e-10 -1.9888e-08 0)
(1.96915e-09 -1.55758e-08 0)
(2.04889e-09 -8.88546e-09 0)
(1.2345e-09 -2.05534e-09 0)
(-6.0564e-10 2.84511e-09 0)
(-2.67345e-09 6.20796e-09 0)
(-4.84066e-09 7.54269e-09 0)
(-6.5149e-09 6.72773e-09 0)
(-7.75845e-09 3.36507e-09 0)
(-7.80352e-09 -3.64305e-09 0)
(-6.6633e-09 -1.09592e-08 0)
(-3.727e-09 -1.94873e-08 0)
(4.8886e-10 -1.88584e-08 0)
(2.72565e-09 -1.63621e-08 0)
(6.12709e-09 -3.91981e-09 0)
(2.16109e-09 1.3676e-08 0)
(1.97328e-10 -2.6218e-09 0)
(-1.19601e-09 -8.34045e-09 0)
(-2.13206e-09 -1.34869e-08 0)
(-8.2163e-10 -1.7116e-08 0)
(-8.09888e-10 -1.7766e-08 0)
(-1.63417e-09 -1.51012e-08 0)
(-1.51809e-09 -1.03776e-08 0)
(-9.49616e-10 -5.11704e-09 0)
(-8.38827e-10 -6.3904e-10 0)
(-1.28788e-09 3.01299e-09 0)
(-2.06244e-09 4.97114e-09 0)
(-2.58198e-09 4.87346e-09 0)
(-3.09055e-09 2.18369e-09 0)
(-3.57508e-09 -4.41505e-09 0)
(-3.9746e-09 -1.14825e-08 0)
(-3.69487e-09 -2.04035e-08 0)
(-2.10563e-09 -2.02581e-08 0)
(-1.07793e-09 -1.82904e-08 0)
(1.49741e-09 -5.72647e-09 0)
(3.96028e-10 1.38639e-08 0)
(-6.10016e-11 -3.00224e-09 0)
(-1.12028e-09 -1.00405e-08 0)
(-1.77437e-09 -1.69045e-08 0)
(-6.73177e-10 -2.13638e-08 0)
(3.90575e-10 -2.14127e-08 0)
(4.01074e-10 -1.68133e-08 0)
(2.1228e-10 -9.7928e-09 0)
(6.1398e-11 -2.71054e-09 0)
(-4.42882e-10 2.5065e-09 0)
(-1.46743e-09 5.91174e-09 0)
(-2.75642e-09 7.00211e-09 0)
(-3.71975e-09 5.71509e-09 0)
(-4.4369e-09 1.52147e-09 0)
(-4.48932e-09 -6.81915e-09 0)
(-3.89705e-09 -1.51988e-08 0)
(-2.32187e-09 -2.49443e-08 0)
(7.82954e-11 -2.38517e-08 0)
(1.31834e-09 -2.0742e-08 0)
(3.33532e-09 -5.59848e-09 0)
(9.66606e-10 1.61571e-08 0)
(3.15948e-10 -2.42033e-09 0)
(-3.57567e-10 -8.88309e-09 0)
(-1.04475e-09 -1.62426e-08 0)
(-6.88908e-10 -2.11421e-08 0)
(-2.69561e-10 -2.15427e-08 0)
(-1.18706e-10 -1.77247e-08 0)
(-6.41374e-11 -1.16011e-08 0)
(-9.29711e-11 -5.0259e-09 0)
(-3.65102e-10 1.02249e-10 0)
(-9.39541e-10 3.87181e-09 0)
(-1.45813e-09 5.71333e-09 0)
(-1.63266e-09 5.2529e-09 0)
(-1.71531e-09 1.74238e-09 0)
(-1.77053e-09 -6.32719e-09 0)
(-1.74171e-09 -1.48057e-08 0)
(-1.42371e-09 -2.51718e-08 0)
(-7.33219e-10 -2.47924e-08 0)
(-3.78728e-10 -2.21559e-08 0)
(3.741e-10 -7.16051e-09 0)
(-2.53319e-10 1.58476e-08 0)
(8.7372e-11 -1.8471e-09 0)
(-2.58005e-10 -8.44138e-09 0)
(-3.52395e-10 -1.63036e-08 0)
(-1.92726e-11 -2.15984e-08 0)
(1.27666e-10 -2.19425e-08 0)
(-5.10355e-11 -1.77491e-08 0)
(-1.32026e-10 -1.12426e-08 0)
(-2.39711e-11 -4.32071e-09 0)
(1.29498e-10 9.00949e-10 0)
(1.02116e-10 4.45917e-09 0)
(-2.05161e-10 5.85776e-09 0)
(-6.47985e-10 4.86875e-09 0)
(-1.11808e-09 8.27852e-10 0)
(-1.32807e-09 -7.69625e-09 0)
(-1.26371e-09 -1.64141e-08 0)
(-8.32622e-10 -2.68398e-08 0)
(-4.81672e-11 -2.59548e-08 0)
(4.12611e-10 -2.28604e-08 0)
(1.19413e-09 -6.89995e-09 0)
(5.1479e-10 1.6742e-08 0)
(-8.94622e-11 -1.8478e-09 0)
(2.59934e-10 -8.43991e-09 0)
(3.5249e-10 -1.63036e-08 0)
(1.71614e-11 -2.15995e-08 0)
(-1.27512e-10 -2.19449e-08 0)
(5.37976e-11 -1.77527e-08 0)
(1.37021e-10 -1.12455e-08 0)
(2.8159e-11 -4.32441e-09 0)
(-1.28581e-10 8.97686e-10 0)
(-9.91751e-11 4.45565e-09 0)
(2.10093e-10 5.85491e-09 0)
(6.56192e-10 4.86765e-09 0)
(1.12691e-09 8.26467e-10 0)
(1.33129e-09 -7.69841e-09 0)
(1.26502e-09 -1.64173e-08 0)
(8.28591e-10 -2.68432e-08 0)
(3.76175e-11 -2.5957e-08 0)
(-4.26569e-10 -2.28592e-08 0)
(-1.21124e-09 -6.89598e-09 0)
(-5.29605e-10 1.67426e-08 0)
(-3.13466e-10 -2.41955e-09 0)
(3.57829e-10 -8.87799e-09 0)
(1.04271e-09 -1.62379e-08 0)
(6.85758e-10 -2.1142e-08 0)
(2.66661e-10 -2.15461e-08 0)
(1.20175e-10 -1.77306e-08 0)
(6.75945e-11 -1.1605e-08 0)
(9.61057e-11 -5.03037e-09 0)
(3.66764e-10 9.81544e-11 0)
(9.43149e-10 3.86551e-09 0)
(1.46528e-09 5.70499e-09 0)
(1.64014e-09 5.24635e-09 0)
(1.72109e-09 1.73571e-09 0)
(1.77331e-09 -6.334e-09 0)
(1.74441e-09 -1.48147e-08 0)
(1.42268e-09 -2.51791e-08 0)
(7.28137e-10 -2.47942e-08 0)
(3.68902e-10 -2.21476e-08 0)
(-3.89986e-10 -7.14067e-09 0)
(2.36783e-10 1.58511e-08 0)
(6.09895e-11 -2.99733e-09 0)
(1.12556e-09 -1.0033e-08 0)
(1.77268e-09 -1.68975e-08 0)
(6.67342e-10 -2.13633e-08 0)
(-3.96396e-10 -2.14148e-08 0)
(-4.02949e-10 -1.68146e-08 0)
(-2.11736e-10 -9.79101e-09 0)
(-6.03864e-11 -2.70863e-09 0)
(4.42928e-10 2.5081e-09 0)
(1.46618e-09 5.91174e-09 0)
(2.75835e-09 6.99681e-09 0)
(3.72336e-09 5.70824e-09 0)
(4.43967e-09 1.51506e-09 0)
(4.48975e-09 -6.82381e-09 0)
(3.89878e-09 -1.5206e-08 0)
(2.32493e-09 -2.49503e-08 0)
(-7.28363e-11 -2.38522e-08 0)
(-1.31774e-09 -2.07337e-08 0)
(-3.34608e-09 -5.57301e-09 0)
(-9.83067e-10 1.61637e-08 0)
(-1.98979e-10 -2.61925e-09 0)
(1.19609e-09 -8.33598e-09 0)
(2.13304e-09 -1.34861e-08 0)
(8.22467e-10 -1.71206e-08 0)
(8.07938e-10 -1.77674e-08 0)
(1.62806e-09 -1.50917e-08 0)
(1.51139e-09 -1.03636e-08 0)
(9.44125e-10 -5.10346e-09 0)
(8.36639e-10 -6.30209e-10 0)
(1.2809e-09 3.024e-09 0)
(2.05416e-09 4.98044e-09 0)
(2.58037e-09 4.87894e-09 0)
(3.09617e-09 2.18756e-09 0)
(3.58201e-09 -4.40884e-09 0)
(3.98175e-09 -1.14797e-08 0)
(3.70121e-09 -2.04001e-08 0)
(2.11298e-09 -2.0256e-08 0)
(1.07819e-09 -1.82829e-08 0)
(-1.50942e-09 -5.70484e-09 0)
(-4.14585e-10 1.38601e-08 0)
(-3.25907e-10 -3.09287e-09 0)
(2.98738e-09 -1.09795e-08 0)
(4.06782e-09 -1.69538e-08 0)
(1.65556e-09 -2.02634e-08 0)
(-9.20339e-10 -1.98864e-08 0)
(-1.96716e-09 -1.55614e-08 0)
(-2.05066e-09 -8.87087e-09 0)
(-1.23844e-09 -2.03499e-09 0)
(6.14087e-10 2.84967e-09 0)
(2.68171e-09 6.21356e-09 0)
(4.8296e-09 7.55892e-09 0)
(6.49907e-09 6.74537e-09 0)
(7.75307e-09 3.37452e-09 0)
(7.80397e-09 -3.63904e-09 0)
(6.66265e-09 -1.0961e-08 0)
(3.7209e-09 -1.94873e-08 0)
(-4.90876e-10 -1.88543e-08 0)
(-2.72862e-09 -1.63545e-08 0)
(-6.12934e-09 -3.89063e-09 0)
(-2.16551e-09 1.36821e-08 0)
(-6.44776e-10 -1.45298e-09 0)
(2.52893e-09 -7.71123e-09 0)
(2.57451e-09 -1.19601e-08 0)
(1.30084e-09 -1.35522e-08 0)
(1.39556e-09 -1.2854e-08 0)
(2.62335e-09 -1.02743e-08 0)
(3.03256e-09 -6.36348e-09 0)
(2.29532e-09 -1.64449e-09 0)
(2.21834e-09 1.63009e-09 0)
(2.69739e-09 4.28977e-09 0)
(3.3456e-09 5.70698e-09 0)
(3.97263e-09 5.26399e-09 0)
(4.80017e-09 2.90037e-09 0)
(5.25929e-09 -2.05607e-09 0)
(5.20014e-09 -7.22084e-09 0)
(4.16484e-09 -1.40228e-08 0)
(1.72845e-09 -1.41487e-08 0)
(4.45306e-10 -1.30374e-08 0)
(-2.96116e-09 -4.01931e-09 0)
(-1.141e-09 1.05435e-08 0)
(-8.83015e-10 -4.59346e-09 0)
(3.23441e-09 -1.12406e-08 0)
(5.29511e-09 -1.44739e-08 0)
(2.77364e-09 -1.60358e-08 0)
(3.51701e-10 -1.54034e-08 0)
(-1.03634e-09 -1.25459e-08 0)
(-1.13097e-09 -7.51048e-09 0)
(-1.38793e-09 -2.05918e-09 0)
(-5.30873e-10 1.39463e-09 0)
(2.41799e-09 3.30561e-09 0)
(5.35243e-09 4.70523e-09 0)
(7.37075e-09 5.01751e-09 0)
(9.02444e-09 3.48328e-09 0)
(9.28531e-09 -8.77537e-10 0)
(8.05416e-09 -5.84162e-09 0)
(4.92106e-09 -1.19448e-08 0)
(3.17002e-11 -1.19674e-08 0)
(-2.63076e-09 -1.06027e-08 0)
(-7.48835e-09 -2.48644e-09 0)
(-3.62648e-09 9.22719e-09 0)
(-4.9418e-10 -2.4301e-09 0)
(1.3725e-09 -6.53756e-09 0)
(2.69662e-09 -8.00482e-09 0)
(2.57318e-09 -8.71305e-09 0)
(2.68418e-09 -8.60166e-09 0)
(3.22649e-09 -6.25752e-09 0)
(3.40197e-09 -2.10978e-09 0)
(3.89653e-09 -8.18657e-11 0)
(2.40882e-09 3.87592e-09 0)
(3.85348e-09 4.95737e-09 0)
(5.59478e-09 5.36631e-09 0)
(6.24645e-09 4.90946e-09 0)
(7.09749e-09 3.03658e-09 0)
(7.38804e-09 -7.09686e-10 0)
(6.62471e-09 -4.48962e-09 0)
(4.04927e-09 -8.82611e-09 0)
(-1.01717e-10 -8.59391e-09 0)
(-2.17175e-09 -7.53361e-09 0)
(-6.14513e-09 -1.41912e-09 0)
(-2.25201e-09 7.16664e-09 0)
(6.12568e-10 1.51433e-09 0)
(5.8794e-09 1.47451e-09 0)
(5.28088e-09 1.64297e-09 0)
(2.29416e-09 1.84327e-09 0)
(2.4576e-10 6.38776e-10 0)
(9.74671e-11 5.36843e-11 0)
(-3.16303e-09 -9.90244e-10 0)
(-8.83832e-10 -8.12432e-10 0)
(1.19344e-09 -1.12084e-09 0)
(2.02269e-09 8.66841e-10 0)
(5.64512e-09 1.5406e-09 0)
(7.82519e-09 1.90081e-09 0)
(9.23989e-09 1.8053e-09 0)
(9.32533e-09 8.16403e-10 0)
(8.13532e-09 -3.42928e-10 0)
(5.09011e-09 -2.38522e-09 0)
(1.30077e-10 -3.0922e-09 0)
(-2.53842e-09 -3.62114e-09 0)
(-7.55056e-09 -1.89746e-09 0)
(-3.87107e-09 2.59977e-09 0)
(-2.65437e-10 -1.11236e-09 0)
(4.22995e-09 -3.64621e-09 0)
(4.33544e-09 -5.33627e-09 0)
(2.06947e-09 -6.24715e-09 0)
(9.78842e-10 -6.25334e-09 0)
(6.3662e-10 -4.3215e-09 0)
(2.86121e-09 -2.36805e-09 0)
(2.03243e-10 1.96727e-09 0)
(2.01026e-09 1.05699e-09 0)
(4.3515e-09 2.62827e-09 0)
(5.49803e-09 2.54021e-09 0)
(7.19631e-09 2.19702e-09 0)
(8.42291e-09 1.21335e-09 0)
(8.44133e-09 -9.03878e-10 0)
(7.33002e-09 -3.08543e-09 0)
(4.34759e-09 -4.76194e-09 0)
(-4.12888e-10 -3.92645e-09 0)
(-2.73846e-09 -2.52937e-09 0)
(-7.17606e-09 7.39785e-10 0)
(-3.15429e-09 3.26211e-09 0)
)
;

boundaryField
{
    sides
    {
        type            calculated;
        value           nonuniform List<vector> 
40
(
(-2.65437e-10 0 0)
(4.22995e-09 0 0)
(4.33544e-09 0 0)
(2.06947e-09 0 0)
(9.78842e-10 0 0)
(6.3662e-10 0 0)
(2.86121e-09 0 0)
(2.03243e-10 0 0)
(2.01026e-09 0 0)
(4.3515e-09 0 0)
(5.49803e-09 0 0)
(7.19631e-09 0 0)
(8.42291e-09 0 0)
(8.44133e-09 0 0)
(7.33002e-09 0 0)
(4.34759e-09 0 0)
(-4.12888e-10 0 0)
(-2.73846e-09 0 0)
(-7.17606e-09 0 0)
(-3.15429e-09 0 0)
(2.66001e-10 0 0)
(-4.22372e-09 0 0)
(-4.3401e-09 0 0)
(-2.08891e-09 0 0)
(-9.79272e-10 0 0)
(-6.4298e-10 0 0)
(-2.29208e-09 0 0)
(-4.54712e-10 0 0)
(-1.93695e-09 0 0)
(-4.22806e-09 0 0)
(-5.55862e-09 0 0)
(-7.23829e-09 0 0)
(-8.41423e-09 0 0)
(-8.42533e-09 0 0)
(-7.324e-09 0 0)
(-4.35516e-09 0 0)
(4.04643e-10 0 0)
(2.7256e-09 0 0)
(7.17839e-09 0 0)
(3.16774e-09 0 0)
)
;
    }
    inlet
    {
        type            calculated;
        value           uniform (0 0 0);
    }
    outlet
    {
        type            calculated;
        value           nonuniform List<vector> 
20
(
(3.16774e-09 3.25578e-09 0)
(3.87609e-09 2.59873e-09 0)
(2.25778e-09 7.17444e-09 0)
(3.63443e-09 9.22052e-09 0)
(1.13144e-09 1.05544e-08 0)
(2.16109e-09 1.3676e-08 0)
(3.96028e-10 1.38639e-08 0)
(9.66606e-10 1.61571e-08 0)
(-2.53319e-10 1.58476e-08 0)
(5.1479e-10 1.6742e-08 0)
(-5.29605e-10 1.67426e-08 0)
(2.36783e-10 1.58511e-08 0)
(-9.83067e-10 1.61637e-08 0)
(-4.14585e-10 1.38601e-08 0)
(-2.16551e-09 1.36821e-08 0)
(-1.141e-09 1.05435e-08 0)
(-3.62648e-09 9.22719e-09 0)
(-2.25201e-09 7.16664e-09 0)
(-3.87107e-09 2.59977e-09 0)
(-3.15429e-09 3.26211e-09 0)
)
;
    }
    frontAndBack
    {
        type            empty;
    }
}


// ************************************************************************* //
