/*--------------------------------*- C++ -*----------------------------------*\
  =========                 |
  \\      /  F ield         | OpenFOAM: The Open Source CFD Toolbox
   \\    /   O peration     | Website:  https://openfoam.org
    \\  /    A nd           | Version:  7
     \\/     M anipulation  |
\*---------------------------------------------------------------------------*/
FoamFile
{
    version     2.0;
    format      ascii;
    class       surfaceScalarField;
    location    "30";
    object      ddtCorrDdt0(phi);
}
// * * * * * * * * * * * * * * * * * * * * * * * * * * * * * * * * * * * * * //

dimensions      [0 4 -2 0 0 0 0];

internalField   nonuniform List<scalar> 
760
(
-1.3593e-11
-1.95893e-12
-1.63436e-11
-9.64217e-12
-1.64546e-11
-1.231e-11
-9.876e-12
-3.91301e-12
-8.48576e-12
-4.20031e-12
-1.92101e-12
3.79123e-11
-1.28508e-11
-1.73247e-10
-2.52545e-13
3.63571e-10
-2.0965e-11
-1.04128e-12
-2.28529e-11
5.88123e-12
-3.16189e-11
8.46659e-12
-3.93035e-11
9.00751e-12
-4.25361e-11
6.76457e-12
-3.91773e-11
2.7153e-13
-2.87571e-11
-6.78905e-12
-9.77008e-12
-1.50807e-11
8.45886e-12
-1.51189e-11
2.38634e-11
-1.39273e-11
2.76055e-11
-3.02804e-12
1.39758e-11
-2.28606e-11
3.32282e-12
-2.47137e-11
-1.42628e-11
-1.83413e-11
-2.11299e-11
-8.73062e-12
-2.43131e-11
-1.58782e-12
-2.58763e-11
1.55175e-12
-2.10105e-11
2.02226e-11
-3.598e-12
-1.09942e-11
-2.49495e-11
-4.71924e-12
1.08216e-11
-1.96434e-11
1.80459e-11
-3.33952e-11
2.03409e-11
-4.27273e-11
1.92251e-11
-4.69475e-11
1.28065e-11
-4.34225e-11
-1.06205e-12
-3.26419e-11
-1.49922e-11
-1.31989e-11
-3.21361e-11
6.3571e-12
-3.28709e-11
2.40371e-11
-3.02931e-11
3.0052e-11
-8.24623e-12
2.54877e-11
2.94974e-12
-3.5708e-11
-6.3458e-12
-4.0822e-11
-1.14633e-11
-3.53228e-11
-2.10298e-11
-5.4457e-11
-1.61127e-11
-5.30943e-11
-1.49973e-11
-4.15231e-11
-1.93845e-11
-2.24417e-11
-1.54535e-11
-3.06671e-12
-1.62355e-11
1.09852e-11
-2.41277e-11
1.70654e-11
-2.85319e-11
2.17111e-11
-3.31786e-11
2.2465e-11
-3.70708e-11
1.55806e-11
-3.50201e-11
-2.63612e-12
-2.60494e-11
-2.2736e-11
-9.84458e-12
-4.78096e-11
5.89181e-12
-4.8092e-11
2.01464e-11
-4.34778e-11
2.31144e-11
-1.06391e-11
3.96037e-11
-9.81433e-12
-1.09969e-11
-1.57234e-11
-4.73839e-11
-1.90817e-11
-7.06945e-11
-1.22616e-11
-7.78685e-11
-3.29931e-13
-7.58625e-11
7.22012e-12
-6.00349e-11
5.51471e-12
-3.47604e-11
5.47551e-12
-4.32258e-12
-6.23818e-12
1.27599e-11
-1.9237e-11
2.46222e-11
-3.05718e-11
3.10065e-11
-4.09504e-11
2.91282e-11
-4.66956e-11
1.73335e-11
-4.32666e-11
-8.09557e-12
-3.20166e-11
-3.52347e-11
-1.27617e-11
-6.85943e-11
6.5265e-12
-6.81948e-11
2.39313e-11
-6.05051e-11
2.92107e-11
-1.51843e-11
5.08535e-11
-6.98078e-12
-1.17915e-11
-8.26601e-12
-4.71808e-11
-8.75816e-12
-7.1899e-11
-9.80944e-12
-8.3757e-11
-1.16464e-11
-8.07e-11
-1.31693e-11
-6.49029e-11
-1.31227e-11
-4.10623e-11
-1.21628e-11
-1.44118e-11
-1.37696e-11
5.63463e-12
-1.44996e-11
2.16043e-11
-1.73232e-11
2.96476e-11
-2.2046e-11
2.7811e-11
-2.58136e-11
1.53255e-11
-2.60552e-11
-1.25388e-11
-2.30862e-11
-4.23027e-11
-1.48178e-11
-8.01333e-11
-5.30672e-12
-7.98915e-11
5.60145e-12
-7.23845e-11
1.20152e-11
-2.11971e-11
5.9276e-11
-9.95413e-12
-1.29652e-11
-1.48255e-11
-4.49027e-11
-1.24166e-11
-7.45277e-11
-4.08599e-12
-9.38632e-11
5.43469e-12
-9.41014e-11
1.0593e-11
-7.45411e-11
9.33955e-12
-4.3971e-11
6.79142e-13
-1.34184e-11
-9.14299e-12
9.51542e-12
-1.83372e-11
2.6064e-11
-2.78713e-11
3.2999e-11
-3.57059e-11
2.94447e-11
-3.91507e-11
1.303e-11
-3.60127e-11
-2.21962e-11
-2.59765e-11
-5.88675e-11
-8.3748e-12
-1.02451e-10
8.12389e-12
-9.94456e-11
2.09373e-11
-8.6958e-11
2.18284e-11
-2.24915e-11
7.00289e-11
-1.81977e-12
-1.56211e-11
-7.3392e-12
-4.91394e-11
-6.83961e-12
-7.66667e-11
-5.30724e-12
-9.55896e-11
-7.22169e-12
-9.85005e-11
-7.61732e-12
-8.16948e-11
-5.85151e-12
-5.25206e-11
-5.09614e-12
-2.06427e-11
-5.66491e-12
4.71458e-12
-8.04596e-12
2.27907e-11
-1.13691e-11
3.05342e-11
-1.41905e-11
2.73198e-11
-1.67027e-11
1.04968e-11
-1.88205e-11
-2.65849e-11
-1.92081e-11
-6.51364e-11
-1.46381e-11
-1.1204e-10
-7.9149e-12
-1.09611e-10
5.11874e-13
-9.76528e-11
5.97713e-12
-2.94235e-11
7.43462e-11
-3.68643e-12
-1.50065e-11
-5.39538e-12
-4.71987e-11
-5.36767e-12
-8.34257e-11
-2.1499e-12
-1.07153e-10
1.17564e-12
-1.08133e-10
2.03979e-12
-8.74902e-11
8.11711e-13
-5.55594e-11
-1.3922e-12
-2.20333e-11
-5.0213e-12
4.04721e-12
-1.045e-11
2.27397e-11
-1.60659e-11
3.08322e-11
-2.02908e-11
2.69378e-11
-2.22941e-11
7.76559e-12
-2.09544e-11
-3.33762e-11
-1.55844e-11
-7.56457e-11
-5.7536e-12
-1.25919e-10
3.54287e-12
-1.2205e-10
1.10225e-11
-1.07498e-10
1.14611e-11
-3.16736e-11
8.02155e-11
4.09808e-13
-8.83886e-12
-2.51368e-12
-4.3967e-11
-3.99958e-12
-8.25047e-11
-3.32772e-12
-1.07802e-10
-1.58219e-12
-1.08788e-10
-1.99978e-13
-8.82706e-11
-3.99992e-13
-5.63405e-11
-1.24573e-12
-2.22517e-11
-3.21915e-12
3.49337e-12
-5.91921e-12
2.11332e-11
-7.69099e-12
2.83376e-11
-8.341e-12
2.38835e-11
-8.74543e-12
4.53859e-12
-8.82285e-12
-3.68486e-11
-7.93896e-12
-7.93139e-11
-5.44823e-12
-1.3061e-10
-2.7965e-12
-1.26848e-10
-2.99388e-13
-1.12059e-10
8.33114e-13
-3.46867e-11
8.16364e-11
-8.7999e-13
-9.85444e-12
-1.08451e-12
-4.08237e-11
-7.1312e-13
-7.98708e-11
1.30528e-13
-1.06853e-10
-1.31855e-13
-1.09575e-10
-3.90165e-13
-8.888e-11
-2.99243e-13
-5.67244e-11
2.91309e-13
-2.2959e-11
5.64699e-13
2.57246e-12
-3.00655e-13
2.05939e-11
-2.19339e-12
2.83888e-11
-4.45652e-12
2.43827e-11
-6.1103e-12
4.86084e-12
-6.4542e-12
-3.76214e-11
-5.18698e-12
-8.15768e-11
-2.19173e-12
-1.34389e-10
9.69967e-13
-1.30648e-10
3.94627e-12
-1.15689e-10
4.33488e-12
-3.57578e-11
8.32636e-11
8.83191e-13
-8.84666e-12
1.08939e-12
-4.39565e-11
7.11807e-13
-8.25067e-11
-1.37796e-13
-1.07814e-10
1.42435e-13
-1.08811e-10
4.05292e-13
-8.83062e-11
3.25213e-13
-5.6368e-11
-2.85614e-13
-2.22828e-11
-5.54824e-13
3.46835e-12
3.2286e-13
2.11034e-11
2.22318e-12
2.83085e-11
4.50146e-12
2.38656e-11
6.14424e-12
4.51244e-12
6.46606e-12
-3.68834e-11
5.19003e-12
-7.93569e-11
2.16076e-12
-1.30647e-10
-1.04336e-12
-1.26862e-10
-4.02522e-12
-1.1203e-10
-4.42055e-12
-3.4616e-11
8.16525e-11
-3.97013e-13
-1.49895e-11
2.50494e-12
-4.71568e-11
3.99279e-12
-8.33764e-11
3.31143e-12
-1.07141e-10
1.57549e-12
-1.08147e-10
2.13758e-13
-8.75196e-11
4.14741e-13
-5.55783e-11
1.25707e-12
-2.2054e-11
3.22954e-12
4.02631e-12
5.94811e-12
2.27062e-11
7.72923e-12
3.07814e-11
8.37241e-12
2.68942e-11
8.76849e-12
7.72983e-12
8.83791e-12
-3.34054e-11
7.95012e-12
-7.56883e-11
5.4389e-12
-1.25955e-10
2.75444e-12
-1.22058e-10
2.37898e-13
-1.07456e-10
-9.23262e-13
-3.15644e-11
8.02371e-11
3.70272e-12
-1.55917e-11
5.4094e-12
-4.91136e-11
5.34618e-12
-7.66533e-11
2.12092e-12
-9.56007e-11
-1.20244e-12
-9.85101e-11
-2.03626e-12
-8.16727e-11
-8.1323e-13
-5.24723e-11
1.39986e-12
-2.05919e-11
5.01505e-12
4.76024e-12
1.04486e-11
2.28303e-11
1.60832e-11
3.05387e-11
2.0307e-11
2.73035e-11
2.23042e-11
1.0481e-11
2.09595e-11
-2.65868e-11
1.55993e-11
-6.51527e-11
5.78065e-12
-1.12053e-10
-3.52368e-12
-1.09612e-10
-1.10451e-11
-9.76143e-11
-1.15435e-11
-2.92999e-11
7.43581e-11
1.80804e-12
-1.29583e-11
7.34947e-12
-4.48628e-11
6.83708e-12
-7.45255e-11
5.30724e-12
-9.39017e-11
7.20076e-12
-9.41115e-11
7.59097e-12
-7.44659e-11
5.81131e-12
-4.38752e-11
5.08421e-12
-1.33317e-11
5.6474e-12
9.55789e-12
7.9963e-12
2.61373e-11
1.13413e-11
3.30912e-11
1.42036e-11
2.95123e-11
1.674e-11
1.30642e-11
1.88556e-11
-2.21675e-11
1.92417e-11
-5.88574e-11
1.46764e-11
-1.02433e-10
7.94103e-12
-9.94238e-11
-5.32833e-13
-8.69182e-11
-6.06606e-12
-2.23653e-11
7.00329e-11
9.93395e-12
-1.18193e-11
1.48035e-11
-4.71897e-11
1.24042e-11
-7.19099e-11
4.12749e-12
-8.37679e-11
-5.38365e-12
-8.06577e-11
-1.06052e-11
-6.48493e-11
-9.36312e-12
-4.10619e-11
-6.80008e-13
-1.43272e-11
9.21351e-12
5.59865e-12
1.83262e-11
2.15473e-11
2.77862e-11
2.9698e-11
3.56501e-11
2.79241e-11
3.91479e-11
1.54164e-11
3.60162e-11
-1.24759e-11
2.59603e-11
-4.22759e-11
8.35481e-12
-8.01075e-11
-8.13014e-12
-7.9872e-11
-2.09433e-11
-7.23624e-11
-2.1856e-11
-2.10979e-11
5.926e-11
6.94939e-12
-1.09936e-11
8.23074e-12
-4.73542e-11
8.74061e-12
-7.06996e-11
9.89319e-12
-7.7782e-11
1.17258e-11
-7.57945e-11
1.31267e-11
-6.00931e-11
1.31401e-11
-3.48694e-11
1.20214e-11
-4.08345e-12
1.38392e-11
1.28797e-11
1.46239e-11
2.44672e-11
1.72942e-11
3.08739e-11
2.19437e-11
2.91393e-11
2.57535e-11
1.74011e-11
2.60407e-11
-8.03907e-12
2.30823e-11
-3.52258e-11
1.48166e-11
-6.85831e-11
5.31195e-12
-6.81729e-11
-5.60631e-12
-6.04638e-11
-1.20539e-11
-1.506e-11
5.08453e-11
9.81948e-12
-3.58248e-11
1.56679e-11
-4.09859e-11
1.917e-11
-3.50129e-11
1.23218e-11
-5.44422e-11
3.03376e-13
-5.31429e-11
-7.29101e-12
-4.16661e-11
-5.26061e-12
-2.2304e-11
-5.7157e-12
-3.49598e-12
6.04033e-12
1.13065e-11
1.94202e-11
1.71249e-11
3.07196e-11
2.15536e-11
4.09229e-11
2.23518e-11
4.66089e-11
1.55589e-11
4.32008e-11
-2.62023e-12
3.19571e-11
-2.27426e-11
1.27018e-11
-4.78093e-11
-6.57396e-12
-4.80762e-11
-2.39503e-11
-4.34449e-11
-2.91891e-11
-1.05326e-11
3.95964e-11
-2.92366e-12
3.32634e-12
6.31667e-12
-1.42545e-11
1.1546e-11
-2.11072e-11
2.10066e-11
-2.43902e-11
1.58522e-11
-2.60529e-11
1.5065e-11
-2.10495e-11
1.96034e-11
-3.16473e-12
1.59214e-11
-2.57384e-11
1.5707e-11
1.07489e-11
2.41126e-11
1.82487e-11
2.87644e-11
2.03502e-11
3.32739e-11
1.91157e-11
3.70256e-11
1.27099e-11
3.49503e-11
-1.10915e-12
2.59889e-11
-1.50299e-11
9.78751e-12
-3.21467e-11
-5.93893e-12
-3.28591e-11
-2.01788e-11
-3.02569e-11
-2.31042e-11
-8.15639e-12
2.54758e-11
2.28494e-11
-1.94995e-12
2.47225e-11
-9.6032e-12
1.84301e-11
-1.22531e-11
8.82555e-12
-4.12785e-12
1.54206e-12
7.31004e-14
-2.8182e-12
3.82486e-11
-2.16319e-11
-3.80679e-11
1.18465e-11
3.66634e-10
4.23427e-12
-1.88182e-12
1.94007e-11
5.81688e-12
3.33968e-11
8.54488e-12
4.27571e-11
8.97581e-12
4.69289e-11
6.66383e-12
4.34004e-11
1.86843e-13
3.26372e-11
-6.84618e-12
1.32106e-11
-1.51045e-11
-6.3459e-12
-1.51073e-11
-2.4021e-11
-1.38944e-11
-3.00161e-11
-2.95006e-12
1.39933e-11
1.36061e-11
1.64618e-11
1.62668e-11
9.68091e-12
8.73744e-12
3.2409e-12
1.37903e-11
-7.02316e-13
2.20353e-11
2.28108e-11
3.12892e-11
3.9249e-11
4.26227e-11
3.92304e-11
2.87514e-11
9.73031e-12
-8.50619e-12
-2.38935e-11
-2.75633e-11
)
;

boundaryField
{
    sides
    {
        type            calculated;
        value           uniform 0;
    }
    inlet
    {
        type            calculated;
        value           uniform 0;
    }
    outlet
    {
        type            calculated;
        value           nonuniform List<scalar> 
20
(
1.40023e-11
1.87392e-11
8.86323e-12
1.82166e-11
4.08081e-12
1.11637e-11
1.01568e-12
4.75199e-12
-1.49861e-12
2.3698e-12
-2.44208e-12
1.40922e-12
-4.83978e-12
-1.12457e-12
-1.11993e-11
-4.1369e-12
-1.81848e-11
-8.83397e-12
-1.87271e-11
-1.39438e-11
)
;
    }
    frontAndBack
    {
        type            empty;
        value           nonuniform 0();
    }
}


// ************************************************************************* //
