/*--------------------------------*- C++ -*----------------------------------*\
  =========                 |
  \\      /  F ield         | OpenFOAM: The Open Source CFD Toolbox
   \\    /   O peration     | Website:  https://openfoam.org
    \\  /    A nd           | Version:  7
     \\/     M anipulation  |
\*---------------------------------------------------------------------------*/
FoamFile
{
    version     2.0;
    format      ascii;
    class       volVectorField;
    location    "30";
    object      hU;
}
// * * * * * * * * * * * * * * * * * * * * * * * * * * * * * * * * * * * * * //

dimensions      [0 2 -1 0 0 0 0];

internalField   nonuniform List<vector> 
400
(
(0.000999999 -8.99201e-09 0)
(0.001 -2.35709e-08 0)
(0.001 -3.47134e-08 0)
(0.00100001 -4.38861e-08 0)
(0.00100001 -5.22308e-08 0)
(0.00100002 -6.12342e-08 0)
(0.00100002 -7.14872e-08 0)
(0.00100003 -8.37215e-08 0)
(0.00100004 -9.63613e-08 0)
(0.00100005 -1.10258e-07 0)
(0.00100007 -1.22806e-07 0)
(0.00100009 -1.37752e-07 0)
(0.00100011 -1.49306e-07 0)
(0.00100015 -1.66268e-07 0)
(0.00100018 -1.74186e-07 0)
(0.00100024 -1.96194e-07 0)
(0.00100026 -1.98062e-07 0)
(0.00100038 -2.38996e-07 0)
(0.00100038 -2.33463e-07 0)
(0.0010006 -3.28807e-07 0)
(0.000999999 3.14994e-09 0)
(0.00100001 1.03598e-08 0)
(0.00100001 1.8076e-08 0)
(0.00100002 2.55181e-08 0)
(0.00100002 3.26053e-08 0)
(0.00100003 3.93329e-08 0)
(0.00100003 4.60483e-08 0)
(0.00100004 5.19647e-08 0)
(0.00100005 5.77863e-08 0)
(0.00100006 6.17929e-08 0)
(0.00100008 6.59515e-08 0)
(0.0010001 6.69102e-08 0)
(0.00100012 7.01744e-08 0)
(0.00100016 6.69747e-08 0)
(0.00100018 7.11571e-08 0)
(0.00100024 5.95748e-08 0)
(0.00100027 6.72025e-08 0)
(0.00100035 3.30196e-08 0)
(0.00100037 4.44626e-08 0)
(0.0010005 -5.13214e-08 0)
(0.000999999 -5.67736e-09 0)
(0.001 -1.54461e-08 0)
(0.001 -2.4312e-08 0)
(0.00100001 -3.27713e-08 0)
(0.00100001 -4.06178e-08 0)
(0.00100001 -4.91416e-08 0)
(0.00100002 -5.87734e-08 0)
(0.00100003 -7.10657e-08 0)
(0.00100003 -8.43913e-08 0)
(0.00100005 -1.00637e-07 0)
(0.00100006 -1.16425e-07 0)
(0.00100008 -1.36212e-07 0)
(0.0010001 -1.5261e-07 0)
(0.00100014 -1.76575e-07 0)
(0.00100016 -1.90524e-07 0)
(0.00100021 -2.23105e-07 0)
(0.00100024 -2.32012e-07 0)
(0.00100031 -2.90862e-07 0)
(0.00100033 -2.93362e-07 0)
(0.00100045 -4.14171e-07 0)
(0.000999999 -2.19953e-09 0)
(0.001 -3.39487e-09 0)
(0.00100001 -2.19425e-09 0)
(0.00100002 2.63231e-10 0)
(0.00100002 3.91061e-09 0)
(0.00100002 6.97674e-09 0)
(0.00100003 8.42511e-09 0)
(0.00100003 6.32582e-09 0)
(0.00100004 2.33337e-09 0)
(0.00100005 -5.15483e-09 0)
(0.00100006 -1.27801e-08 0)
(0.00100008 -2.52687e-08 0)
(0.0010001 -3.52155e-08 0)
(0.00100013 -5.34031e-08 0)
(0.00100016 -6.16591e-08 0)
(0.0010002 -8.89421e-08 0)
(0.00100023 -9.20194e-08 0)
(0.00100028 -1.47034e-07 0)
(0.0010003 -1.44922e-07 0)
(0.00100038 -2.65935e-07 0)
(0.000999999 -5.16241e-09 0)
(0.001 -1.34397e-08 0)
(0.001 -2.01753e-08 0)
(0.00100001 -2.63004e-08 0)
(0.00100001 -3.20052e-08 0)
(0.00100001 -3.87535e-08 0)
(0.00100002 -4.6967e-08 0)
(0.00100002 -5.85206e-08 0)
(0.00100003 -7.20858e-08 0)
(0.00100004 -8.96565e-08 0)
(0.00100005 -1.07955e-07 0)
(0.00100007 -1.31433e-07 0)
(0.00100008 -1.52294e-07 0)
(0.00100011 -1.8141e-07 0)
(0.00100013 -2.00379e-07 0)
(0.00100017 -2.38848e-07 0)
(0.00100019 -2.5174e-07 0)
(0.00100024 -3.17746e-07 0)
(0.00100025 -3.22303e-07 0)
(0.00100033 -4.51919e-07 0)
(0.000999999 -5.04823e-09 0)
(0.001 -1.13391e-08 0)
(0.00100001 -1.43302e-08 0)
(0.00100001 -1.52288e-08 0)
(0.00100001 -1.48258e-08 0)
(0.00100002 -1.58066e-08 0)
(0.00100002 -1.95677e-08 0)
(0.00100002 -2.81948e-08 0)
(0.00100003 -3.98228e-08 0)
(0.00100004 -5.59339e-08 0)
(0.00100005 -7.30347e-08 0)
(0.00100006 -9.54146e-08 0)
(0.00100008 -1.15398e-07 0)
(0.0010001 -1.43116e-07 0)
(0.00100012 -1.60164e-07 0)
(0.00100015 -1.95663e-07 0)
(0.00100016 -2.05285e-07 0)
(0.0010002 -2.68619e-07 0)
(0.00100021 -2.70249e-07 0)
(0.00100026 -3.99857e-07 0)
(0.001 -5.31479e-09 0)
(0.001 -1.36987e-08 0)
(0.001 -1.9902e-08 0)
(0.00100001 -2.45833e-08 0)
(0.00100001 -2.82533e-08 0)
(0.00100001 -3.31465e-08 0)
(0.00100001 -4.02755e-08 0)
(0.00100002 -5.18166e-08 0)
(0.00100002 -6.62841e-08 0)
(0.00100003 -8.56493e-08 0)
(0.00100004 -1.06646e-07 0)
(0.00100005 -1.33566e-07 0)
(0.00100006 -1.58593e-07 0)
(0.00100007 -1.91888e-07 0)
(0.00100009 -2.14536e-07 0)
(0.00100011 -2.55919e-07 0)
(0.00100012 -2.70089e-07 0)
(0.00100015 -3.38489e-07 0)
(0.00100016 -3.42366e-07 0)
(0.00100021 -4.76227e-07 0)
(0.001 -5.58705e-09 0)
(0.001 -1.43223e-08 0)
(0.001 -1.99158e-08 0)
(0.00100001 -2.29787e-08 0)
(0.00100001 -2.47492e-08 0)
(0.00100001 -2.83756e-08 0)
(0.00100001 -3.52689e-08 0)
(0.00100001 -4.75473e-08 0)
(0.00100002 -6.33837e-08 0)
(0.00100002 -8.42927e-08 0)
(0.00100003 -1.06707e-07 0)
(0.00100003 -1.34569e-07 0)
(0.00100004 -1.60204e-07 0)
(0.00100006 -1.93276e-07 0)
(0.00100007 -2.15326e-07 0)
(0.00100008 -2.55253e-07 0)
(0.00100009 -2.68084e-07 0)
(0.00100011 -3.35374e-07 0)
(0.00100012 -3.38168e-07 0)
(0.00100014 -4.72278e-07 0)
(0.001 -5.52273e-09 0)
(0.001 -1.47464e-08 0)
(0.001 -2.1152e-08 0)
(0.001 -2.51202e-08 0)
(0.001 -2.7746e-08 0)
(0.001 -3.20401e-08 0)
(0.00100001 -3.93302e-08 0)
(0.00100001 -5.18017e-08 0)
(0.00100001 -6.78434e-08 0)
(0.00100001 -8.92321e-08 0)
(0.00100002 -1.12603e-07 0)
(0.00100002 -1.4203e-07 0)
(0.00100003 -1.69742e-07 0)
(0.00100003 -2.05358e-07 0)
(0.00100004 -2.29852e-07 0)
(0.00100005 -2.72306e-07 0)
(0.00100005 -2.86607e-07 0)
(0.00100007 -3.55604e-07 0)
(0.00100007 -3.58462e-07 0)
(0.00100009 -4.94106e-07 0)
(0.001 -5.55185e-09 0)
(0.001 -1.50135e-08 0)
(0.001 -2.15097e-08 0)
(0.001 -2.53003e-08 0)
(0.001 -2.77076e-08 0)
(0.001 -3.1951e-08 0)
(0.001 -3.94431e-08 0)
(0.001 -5.24427e-08 0)
(0.001 -6.93213e-08 0)
(0.001 -9.1667e-08 0)
(0.00100001 -1.15915e-07 0)
(0.00100001 -1.4593e-07 0)
(0.00100001 -1.73995e-07 0)
(0.00100001 -2.09594e-07 0)
(0.00100001 -2.33997e-07 0)
(0.00100002 -2.76087e-07 0)
(0.00100002 -2.90238e-07 0)
(0.00100002 -3.59131e-07 0)
(0.00100002 -3.62048e-07 0)
(0.00100003 -4.97981e-07 0)
(0.001 -5.55131e-09 0)
(0.001 -1.5013e-08 0)
(0.000999999 -2.15099e-08 0)
(0.000999999 -2.53008e-08 0)
(0.000999999 -2.77081e-08 0)
(0.000999998 -3.19515e-08 0)
(0.000999998 -3.94438e-08 0)
(0.000999997 -5.24434e-08 0)
(0.000999997 -6.93216e-08 0)
(0.000999996 -9.16666e-08 0)
(0.000999995 -1.15914e-07 0)
(0.000999993 -1.45928e-07 0)
(0.000999992 -1.73994e-07 0)
(0.000999989 -2.09593e-07 0)
(0.000999987 -2.33997e-07 0)
(0.000999983 -2.76086e-07 0)
(0.000999981 -2.90238e-07 0)
(0.000999977 -3.59129e-07 0)
(0.000999976 -3.62047e-07 0)
(0.000999971 -4.9798e-07 0)
(0.001 -5.52148e-09 0)
(0.001 -1.47451e-08 0)
(0.000999998 -2.11519e-08 0)
(0.000999997 -2.51206e-08 0)
(0.000999996 -2.77464e-08 0)
(0.000999995 -3.20401e-08 0)
(0.000999994 -3.93306e-08 0)
(0.000999992 -5.18027e-08 0)
(0.00099999 -6.7845e-08 0)
(0.000999987 -8.92324e-08 0)
(0.000999983 -1.12602e-07 0)
(0.000999979 -1.42025e-07 0)
(0.000999974 -1.69737e-07 0)
(0.000999967 -2.05347e-07 0)
(0.000999961 -2.29842e-07 0)
(0.000999952 -2.72284e-07 0)
(0.000999946 -2.86589e-07 0)
(0.000999933 -3.55566e-07 0)
(0.00099993 -3.58435e-07 0)
(0.000999912 -4.94059e-07 0)
(0.001 -5.58534e-09 0)
(0.000999999 -1.43213e-08 0)
(0.000999997 -1.99172e-08 0)
(0.000999995 -2.29815e-08 0)
(0.000999993 -2.47516e-08 0)
(0.000999992 -2.83768e-08 0)
(0.00099999 -3.52704e-08 0)
(0.000999987 -4.755e-08 0)
(0.000999984 -6.33877e-08 0)
(0.000999979 -8.42965e-08 0)
(0.000999974 -1.06711e-07 0)
(0.000999965 -1.34571e-07 0)
(0.000999957 -1.60208e-07 0)
(0.000999944 -1.93277e-07 0)
(0.000999934 -2.15331e-07 0)
(0.000999918 -2.55248e-07 0)
(0.000999908 -2.68086e-07 0)
(0.000999888 -3.35363e-07 0)
(0.000999883 -3.38172e-07 0)
(0.000999855 -4.72282e-07 0)
(0.001 -5.31308e-09 0)
(0.000999999 -1.36966e-08 0)
(0.000999997 -1.99019e-08 0)
(0.000999994 -2.4584e-08 0)
(0.000999992 -2.82524e-08 0)
(0.000999989 -3.31417e-08 0)
(0.000999986 -4.02695e-08 0)
(0.000999981 -5.18101e-08 0)
(0.000999977 -6.6278e-08 0)
(0.000999971 -8.56387e-08 0)
(0.000999963 -1.06632e-07 0)
(0.000999953 -1.33545e-07 0)
(0.000999942 -1.58574e-07 0)
(0.000999926 -1.91858e-07 0)
(0.000999913 -2.14511e-07 0)
(0.00099989 -2.55868e-07 0)
(0.000999877 -2.7005e-07 0)
(0.000999846 -3.38403e-07 0)
(0.000999839 -3.42305e-07 0)
(0.000999794 -4.76111e-07 0)
(0.001 -5.04686e-09 0)
(0.000999999 -1.134e-08 0)
(0.000999994 -1.43356e-08 0)
(0.00099999 -1.52362e-08 0)
(0.000999987 -1.48312e-08 0)
(0.000999985 -1.58083e-08 0)
(0.000999982 -1.95698e-08 0)
(0.000999978 -2.81988e-08 0)
(0.000999972 -3.9831e-08 0)
(0.000999964 -5.59417e-08 0)
(0.000999954 -7.30417e-08 0)
(0.000999939 -9.54191e-08 0)
(0.000999924 -1.15406e-07 0)
(0.000999902 -1.4312e-07 0)
(0.000999884 -1.60173e-07 0)
(0.000999854 -1.95656e-07 0)
(0.000999837 -2.05288e-07 0)
(0.0009998 -2.68602e-07 0)
(0.000999789 -2.70256e-07 0)
(0.000999737 -3.99864e-07 0)
(0.001 -5.16083e-09 0)
(0.000999999 -1.34379e-08 0)
(0.000999996 -2.01764e-08 0)
(0.000999993 -2.63012e-08 0)
(0.000999991 -3.20031e-08 0)
(0.000999987 -3.87474e-08 0)
(0.000999982 -4.69599e-08 0)
(0.000999975 -5.85101e-08 0)
(0.000999969 -7.20784e-08 0)
(0.000999959 -8.96461e-08 0)
(0.000999948 -1.07941e-07 0)
(0.000999932 -1.31409e-07 0)
(0.000999916 -1.52275e-07 0)
(0.000999891 -1.81378e-07 0)
(0.000999871 -2.00362e-07 0)
(0.000999835 -2.388e-07 0)
(0.000999815 -2.51715e-07 0)
(0.000999763 -3.1766e-07 0)
(0.000999752 -3.22254e-07 0)
(0.000999674 -4.51785e-07 0)
(0.001 -2.20116e-09 0)
(0.000999997 -3.39857e-09 0)
(0.00099999 -2.20075e-09 0)
(0.000999984 2.59066e-10 0)
(0.000999981 3.90955e-09 0)
(0.000999977 6.97514e-09 0)
(0.000999973 8.42062e-09 0)
(0.000999967 6.32168e-09 0)
(0.00099996 2.3277e-09 0)
(0.000999949 -5.16406e-09 0)
(0.000999936 -1.27888e-08 0)
(0.000999916 -2.52696e-08 0)
(0.000999897 -3.52182e-08 0)
(0.000999867 -5.33956e-08 0)
(0.000999842 -6.16566e-08 0)
(0.0009998 -8.89132e-08 0)
(0.000999775 -9.20027e-08 0)
(0.000999717 -1.46984e-07 0)
(0.000999699 -1.449e-07 0)
(0.000999617 -2.659e-07 0)
(0.001 -5.67684e-09 0)
(0.001 -1.54462e-08 0)
(0.000999997 -2.43139e-08 0)
(0.000999994 -3.27744e-08 0)
(0.000999992 -4.06203e-08 0)
(0.000999987 -4.91405e-08 0)
(0.000999981 -5.87689e-08 0)
(0.000999973 -7.10591e-08 0)
(0.000999965 -8.43897e-08 0)
(0.000999953 -1.00636e-07 0)
(0.000999939 -1.1643e-07 0)
(0.000999917 -1.3621e-07 0)
(0.000999898 -1.52617e-07 0)
(0.000999864 -1.76571e-07 0)
(0.000999839 -1.90542e-07 0)
(0.000999788 -2.23095e-07 0)
(0.000999764 -2.32037e-07 0)
(0.000999685 -2.9083e-07 0)
(0.000999673 -2.93378e-07 0)
(0.000999546 -4.14111e-07 0)
(0.001 3.15025e-09 0)
(0.000999995 1.0361e-08 0)
(0.000999986 1.80796e-08 0)
(0.00099998 2.55185e-08 0)
(0.000999976 3.25975e-08 0)
(0.000999972 3.93259e-08 0)
(0.000999967 4.60414e-08 0)
(0.00099996 5.1948e-08 0)
(0.000999952 5.77731e-08 0)
(0.000999939 6.17955e-08 0)
(0.000999925 6.59514e-08 0)
(0.000999902 6.69168e-08 0)
(0.00099988 7.01801e-08 0)
(0.000999844 6.7e-08 0)
(0.000999816 7.11759e-08 0)
(0.000999762 5.96264e-08 0)
(0.000999733 6.72324e-08 0)
(0.00099965 3.30997e-08 0)
(0.000999629 4.45082e-08 0)
(0.000999501 -5.12134e-08 0)
(0.001 -8.9933e-09 0)
(0.001 -2.35748e-08 0)
(0.000999996 -3.47193e-08 0)
(0.000999991 -4.38973e-08 0)
(0.000999988 -5.22538e-08 0)
(0.000999983 -6.12639e-08 0)
(0.000999977 -7.15258e-08 0)
(0.000999968 -8.37734e-08 0)
(0.00099996 -9.64068e-08 0)
(0.000999946 -1.10292e-07 0)
(0.000999932 -1.22846e-07 0)
(0.000999907 -1.37795e-07 0)
(0.000999888 -1.49355e-07 0)
(0.000999846 -1.66315e-07 0)
(0.000999824 -1.74242e-07 0)
(0.000999755 -1.96247e-07 0)
(0.000999738 -1.98124e-07 0)
(0.00099962 -2.39063e-07 0)
(0.000999619 -2.33537e-07 0)
(0.0009994 -3.28939e-07 0)
)
;

boundaryField
{
    sides
    {
        type            slip;
    }
    inlet
    {
        type            fixedValue;
        value           uniform (0.001 0 0);
    }
    outlet
    {
        type            zeroGradient;
    }
    frontAndBack
    {
        type            empty;
    }
}


// ************************************************************************* //
