/*--------------------------------*- C++ -*----------------------------------*\
  =========                 |
  \\      /  F ield         | OpenFOAM: The Open Source CFD Toolbox
   \\    /   O peration     | Website:  https://openfoam.org
    \\  /    A nd           | Version:  7
     \\/     M anipulation  |
\*---------------------------------------------------------------------------*/
FoamFile
{
    version     2.0;
    format      ascii;
    class       volVectorField;
    location    "30";
    object      hU_0;
}
// * * * * * * * * * * * * * * * * * * * * * * * * * * * * * * * * * * * * * //

dimensions      [0 2 -1 0 0 0 0];

internalField   nonuniform List<vector> 
400
(
(0.000999999 -8.88506e-09 0)
(0.001 -2.31964e-08 0)
(0.001 -3.41611e-08 0)
(0.00100001 -4.32461e-08 0)
(0.00100001 -5.15924e-08 0)
(0.00100002 -6.07679e-08 0)
(0.00100002 -7.12196e-08 0)
(0.00100003 -8.38417e-08 0)
(0.00100004 -9.64919e-08 0)
(0.00100005 -1.10508e-07 0)
(0.00100007 -1.2307e-07 0)
(0.00100009 -1.37989e-07 0)
(0.00100011 -1.49448e-07 0)
(0.00100015 -1.66202e-07 0)
(0.00100018 -1.739e-07 0)
(0.00100025 -1.95726e-07 0)
(0.00100026 -1.97657e-07 0)
(0.00100038 -2.38719e-07 0)
(0.00100038 -2.33502e-07 0)
(0.0010006 -3.29118e-07 0)
(0.000999999 2.95685e-09 0)
(0.00100001 1.0178e-08 0)
(0.00100001 1.78809e-08 0)
(0.00100002 2.53338e-08 0)
(0.00100002 3.25256e-08 0)
(0.00100003 3.93154e-08 0)
(0.00100003 4.6144e-08 0)
(0.00100004 5.20072e-08 0)
(0.00100005 5.78767e-08 0)
(0.00100006 6.17166e-08 0)
(0.00100008 6.5784e-08 0)
(0.0010001 6.67058e-08 0)
(0.00100012 6.99848e-08 0)
(0.00100016 6.68845e-08 0)
(0.00100018 7.11807e-08 0)
(0.00100024 5.98064e-08 0)
(0.00100027 6.75167e-08 0)
(0.00100035 3.33942e-08 0)
(0.00100037 4.46901e-08 0)
(0.0010005 -5.15537e-08 0)
(0.000999999 -5.47471e-09 0)
(0.001 -1.48482e-08 0)
(0.001 -2.35656e-08 0)
(0.00100001 -3.19217e-08 0)
(0.00100001 -3.97687e-08 0)
(0.00100001 -4.85134e-08 0)
(0.00100002 -5.85421e-08 0)
(0.00100003 -7.10961e-08 0)
(0.00100004 -8.47466e-08 0)
(0.00100005 -1.01141e-07 0)
(0.00100006 -1.16979e-07 0)
(0.00100008 -1.36721e-07 0)
(0.0010001 -1.5294e-07 0)
(0.00100014 -1.7654e-07 0)
(0.00100016 -1.90111e-07 0)
(0.00100021 -2.2224e-07 0)
(0.00100024 -2.31135e-07 0)
(0.00100031 -2.90068e-07 0)
(0.00100033 -2.93135e-07 0)
(0.00100045 -4.14837e-07 0)
(0.000999999 -1.73582e-09 0)
(0.001 -2.31046e-09 0)
(0.00100001 -7.89682e-10 0)
(0.00100002 1.80444e-09 0)
(0.00100002 5.41343e-09 0)
(0.00100002 8.2225e-09 0)
(0.00100003 9.1767e-09 0)
(0.00100003 6.58024e-09 0)
(0.00100004 2.19345e-09 0)
(0.00100005 -5.50752e-09 0)
(0.00100006 -1.3268e-08 0)
(0.00100008 -2.57911e-08 0)
(0.0010001 -3.56018e-08 0)
(0.00100013 -5.33686e-08 0)
(0.00100016 -6.11324e-08 0)
(0.0010002 -8.77837e-08 0)
(0.00100023 -9.08109e-08 0)
(0.00100028 -1.45924e-07 0)
(0.0010003 -1.4456e-07 0)
(0.00100038 -2.66788e-07 0)
(0.000999999 -5.03835e-09 0)
(0.001 -1.27266e-08 0)
(0.001 -1.90292e-08 0)
(0.00100001 -2.49869e-08 0)
(0.00100001 -3.07375e-08 0)
(0.00100001 -3.7723e-08 0)
(0.00100002 -4.63161e-08 0)
(0.00100002 -5.83344e-08 0)
(0.00100003 -7.22558e-08 0)
(0.00100004 -9.00957e-08 0)
(0.00100005 -1.08541e-07 0)
(0.00100007 -1.3199e-07 0)
(0.00100008 -1.52634e-07 0)
(0.00100011 -1.81263e-07 0)
(0.00100013 -1.99718e-07 0)
(0.00100017 -2.37489e-07 0)
(0.00100019 -2.50318e-07 0)
(0.00100024 -3.16393e-07 0)
(0.00100025 -3.21771e-07 0)
(0.00100033 -4.52889e-07 0)
(0.000999999 -4.78908e-09 0)
(0.001 -1.02722e-08 0)
(0.00100001 -1.26579e-08 0)
(0.00100001 -1.31951e-08 0)
(0.00100001 -1.28018e-08 0)
(0.00100001 -1.41925e-08 0)
(0.00100002 -1.86121e-08 0)
(0.00100002 -2.7941e-08 0)
(0.00100003 -4.00805e-08 0)
(0.00100004 -5.65417e-08 0)
(0.00100005 -7.37974e-08 0)
(0.00100006 -9.61219e-08 0)
(0.00100008 -1.158e-07 0)
(0.0010001 -1.42837e-07 0)
(0.00100012 -1.59156e-07 0)
(0.00100015 -1.93772e-07 0)
(0.00100016 -2.03385e-07 0)
(0.0010002 -2.66913e-07 0)
(0.00100021 -2.69693e-07 0)
(0.00100026 -4.01121e-07 0)
(0.000999999 -5.09384e-09 0)
(0.001 -1.28995e-08 0)
(0.001 -1.85723e-08 0)
(0.00100001 -2.2875e-08 0)
(0.00100001 -2.64578e-08 0)
(0.00100001 -3.16005e-08 0)
(0.00100001 -3.91952e-08 0)
(0.00100002 -5.12698e-08 0)
(0.00100002 -6.61915e-08 0)
(0.00100003 -8.59329e-08 0)
(0.00100004 -1.07145e-07 0)
(0.00100005 -1.34078e-07 0)
(0.00100006 -1.5887e-07 0)
(0.00100007 -1.91531e-07 0)
(0.00100009 -2.13481e-07 0)
(0.00100011 -2.53942e-07 0)
(0.00100012 -2.68055e-07 0)
(0.00100015 -3.36595e-07 0)
(0.00100016 -3.41622e-07 0)
(0.00100021 -4.77499e-07 0)
(0.001 -5.30509e-09 0)
(0.001 -1.33655e-08 0)
(0.001 -1.82602e-08 0)
(0.00100001 -2.08539e-08 0)
(0.00100001 -2.25786e-08 0)
(0.00100001 -2.66259e-08 0)
(0.00100001 -3.42065e-08 0)
(0.00100001 -4.72013e-08 0)
(0.00100002 -6.3578e-08 0)
(0.00100002 -8.48515e-08 0)
(0.00100003 -1.07403e-07 0)
(0.00100004 -1.35166e-07 0)
(0.00100004 -1.60422e-07 0)
(0.00100006 -1.92692e-07 0)
(0.00100007 -2.13914e-07 0)
(0.00100008 -2.52827e-07 0)
(0.00100009 -2.65683e-07 0)
(0.00100011 -3.33222e-07 0)
(0.00100012 -3.37415e-07 0)
(0.00100014 -4.7377e-07 0)
(0.001 -5.27034e-09 0)
(0.001 -1.38805e-08 0)
(0.001 -1.95636e-08 0)
(0.001 -2.30093e-08 0)
(0.001 -2.55484e-08 0)
(0.001 -3.01932e-08 0)
(0.00100001 -3.80838e-08 0)
(0.00100001 -5.12171e-08 0)
(0.00100001 -6.77876e-08 0)
(0.00100001 -8.95726e-08 0)
(0.00100002 -1.13153e-07 0)
(0.00100002 -1.42564e-07 0)
(0.00100003 -1.69967e-07 0)
(0.00100003 -2.04813e-07 0)
(0.00100004 -2.28475e-07 0)
(0.00100005 -2.69862e-07 0)
(0.00100005 -2.84122e-07 0)
(0.00100007 -3.5332e-07 0)
(0.00100007 -3.57555e-07 0)
(0.00100009 -4.95562e-07 0)
(0.001 -5.36547e-09 0)
(0.001 -1.41862e-08 0)
(0.001 -1.9895e-08 0)
(0.001 -2.31224e-08 0)
(0.001 -2.54517e-08 0)
(0.001 -3.00856e-08 0)
(0.001 -3.82205e-08 0)
(0.001 -5.19204e-08 0)
(0.001 -6.93425e-08 0)
(0.001 -9.20669e-08 0)
(0.00100001 -1.16482e-07 0)
(0.00100001 -1.46427e-07 0)
(0.00100001 -1.74128e-07 0)
(0.00100001 -2.0891e-07 0)
(0.00100001 -2.32456e-07 0)
(0.00100002 -2.73472e-07 0)
(0.00100002 -2.87634e-07 0)
(0.00100002 -3.56774e-07 0)
(0.00100002 -3.61162e-07 0)
(0.00100003 -4.99525e-07 0)
(0.001 -5.36473e-09 0)
(0.001 -1.41859e-08 0)
(0.000999999 -1.98952e-08 0)
(0.000999999 -2.31228e-08 0)
(0.000999999 -2.54521e-08 0)
(0.000999998 -3.00858e-08 0)
(0.000999998 -3.82209e-08 0)
(0.000999997 -5.19208e-08 0)
(0.000999997 -6.93426e-08 0)
(0.000999996 -9.20662e-08 0)
(0.000999995 -1.16481e-07 0)
(0.000999993 -1.46425e-07 0)
(0.000999992 -1.74127e-07 0)
(0.000999989 -2.08909e-07 0)
(0.000999987 -2.32456e-07 0)
(0.000999983 -2.73471e-07 0)
(0.000999981 -2.87633e-07 0)
(0.000999977 -3.56771e-07 0)
(0.000999976 -3.61161e-07 0)
(0.000999971 -4.99524e-07 0)
(0.001 -5.26908e-09 0)
(0.001 -1.38795e-08 0)
(0.000999998 -1.95639e-08 0)
(0.000999997 -2.30098e-08 0)
(0.000999996 -2.55486e-08 0)
(0.000999995 -3.01927e-08 0)
(0.000999994 -3.8084e-08 0)
(0.000999992 -5.12181e-08 0)
(0.00099999 -6.7789e-08 0)
(0.000999987 -8.95725e-08 0)
(0.000999983 -1.13152e-07 0)
(0.000999978 -1.42559e-07 0)
(0.000999974 -1.69962e-07 0)
(0.000999967 -2.04802e-07 0)
(0.000999961 -2.28464e-07 0)
(0.000999952 -2.69838e-07 0)
(0.000999946 -2.84102e-07 0)
(0.000999933 -3.53281e-07 0)
(0.00099993 -3.5753e-07 0)
(0.000999912 -4.95516e-07 0)
(0.001 -5.30381e-09 0)
(0.000999999 -1.33651e-08 0)
(0.000999997 -1.82621e-08 0)
(0.000999995 -2.08565e-08 0)
(0.000999994 -2.25807e-08 0)
(0.000999992 -2.66272e-08 0)
(0.00099999 -3.42084e-08 0)
(0.000999987 -4.72046e-08 0)
(0.000999984 -6.35825e-08 0)
(0.000999979 -8.48555e-08 0)
(0.000999973 -1.07407e-07 0)
(0.000999965 -1.35168e-07 0)
(0.000999956 -1.60426e-07 0)
(0.000999944 -1.92693e-07 0)
(0.000999934 -2.13918e-07 0)
(0.000999917 -2.52821e-07 0)
(0.000999908 -2.65685e-07 0)
(0.000999888 -3.33211e-07 0)
(0.000999883 -3.37422e-07 0)
(0.000999855 -4.73774e-07 0)
(0.001 -5.09231e-09 0)
(0.000999999 -1.28979e-08 0)
(0.000999996 -1.85722e-08 0)
(0.000999994 -2.28752e-08 0)
(0.000999992 -2.64568e-08 0)
(0.000999989 -3.15966e-08 0)
(0.000999986 -3.91905e-08 0)
(0.000999981 -5.12648e-08 0)
(0.000999977 -6.61862e-08 0)
(0.00099997 -8.59231e-08 0)
(0.000999963 -1.07132e-07 0)
(0.000999952 -1.34059e-07 0)
(0.000999942 -1.58851e-07 0)
(0.000999926 -1.91501e-07 0)
(0.000999913 -2.13456e-07 0)
(0.00099989 -2.53892e-07 0)
(0.000999877 -2.68016e-07 0)
(0.000999846 -3.3651e-07 0)
(0.000999839 -3.41564e-07 0)
(0.000999794 -4.77383e-07 0)
(0.001 -4.78757e-09 0)
(0.000999999 -1.02735e-08 0)
(0.000999994 -1.26634e-08 0)
(0.00099999 -1.32024e-08 0)
(0.000999987 -1.28076e-08 0)
(0.000999985 -1.41952e-08 0)
(0.000999982 -1.86151e-08 0)
(0.000999978 -2.7947e-08 0)
(0.000999972 -4.00894e-08 0)
(0.000999964 -5.65495e-08 0)
(0.000999953 -7.38052e-08 0)
(0.000999938 -9.6128e-08 0)
(0.000999923 -1.1581e-07 0)
(0.000999901 -1.42841e-07 0)
(0.000999883 -1.59165e-07 0)
(0.000999854 -1.93764e-07 0)
(0.000999837 -2.03389e-07 0)
(0.0009998 -2.66897e-07 0)
(0.000999789 -2.69703e-07 0)
(0.000999737 -4.01129e-07 0)
(0.001 -5.03644e-09 0)
(0.000999999 -1.2725e-08 0)
(0.000999996 -1.90309e-08 0)
(0.000999993 -2.49887e-08 0)
(0.000999991 -3.07359e-08 0)
(0.000999987 -3.77161e-08 0)
(0.000999982 -4.63087e-08 0)
(0.000999975 -5.83252e-08 0)
(0.000999968 -7.225e-08 0)
(0.000999959 -9.00838e-08 0)
(0.000999948 -1.08526e-07 0)
(0.000999931 -1.31966e-07 0)
(0.000999916 -1.52617e-07 0)
(0.000999891 -1.81234e-07 0)
(0.000999871 -1.99702e-07 0)
(0.000999834 -2.37442e-07 0)
(0.000999815 -2.50293e-07 0)
(0.000999763 -3.16307e-07 0)
(0.000999752 -3.21724e-07 0)
(0.000999674 -4.52754e-07 0)
(0.001 -1.73716e-09 0)
(0.000999997 -2.31448e-09 0)
(0.00099999 -7.97783e-10 0)
(0.000999984 1.79765e-09 0)
(0.000999981 5.41215e-09 0)
(0.000999977 8.22392e-09 0)
(0.000999973 9.17281e-09 0)
(0.000999967 6.57983e-09 0)
(0.00099996 2.18489e-09 0)
(0.000999949 -5.51653e-09 0)
(0.000999935 -1.32739e-08 0)
(0.000999916 -2.57904e-08 0)
(0.000999896 -3.56044e-08 0)
(0.000999866 -5.33612e-08 0)
(0.000999841 -6.11293e-08 0)
(0.000999799 -8.77544e-08 0)
(0.000999775 -9.07947e-08 0)
(0.000999717 -1.45876e-07 0)
(0.0009997 -1.44541e-07 0)
(0.000999618 -2.66754e-07 0)
(0.001 -5.47436e-09 0)
(0.001 -1.48489e-08 0)
(0.000999997 -2.35684e-08 0)
(0.000999994 -3.19254e-08 0)
(0.000999991 -3.97713e-08 0)
(0.000999987 -4.85128e-08 0)
(0.000999981 -5.85357e-08 0)
(0.000999973 -7.10872e-08 0)
(0.000999965 -8.47476e-08 0)
(0.000999952 -1.01143e-07 0)
(0.000999938 -1.16984e-07 0)
(0.000999917 -1.36718e-07 0)
(0.000999897 -1.52946e-07 0)
(0.000999863 -1.76535e-07 0)
(0.000999839 -1.90129e-07 0)
(0.000999787 -2.22229e-07 0)
(0.000999764 -2.3116e-07 0)
(0.000999686 -2.90036e-07 0)
(0.000999674 -2.93152e-07 0)
(0.000999546 -4.14777e-07 0)
(0.001 2.95694e-09 0)
(0.000999994 1.01788e-08 0)
(0.000999985 1.78848e-08 0)
(0.000999979 2.53387e-08 0)
(0.000999976 3.25217e-08 0)
(0.000999972 3.93063e-08 0)
(0.000999967 4.61342e-08 0)
(0.00099996 5.19851e-08 0)
(0.000999952 5.78742e-08 0)
(0.000999939 6.17196e-08 0)
(0.000999924 6.57815e-08 0)
(0.000999901 6.67134e-08 0)
(0.000999879 6.99935e-08 0)
(0.000999843 6.69121e-08 0)
(0.000999816 7.12012e-08 0)
(0.000999761 5.98586e-08 0)
(0.000999733 6.75462e-08 0)
(0.00099965 3.34731e-08 0)
(0.00099963 4.47333e-08 0)
(0.000999501 -5.14459e-08 0)
(0.001 -8.8864e-09 0)
(0.001 -2.32009e-08 0)
(0.000999995 -3.41673e-08 0)
(0.000999991 -4.3254e-08 0)
(0.000999988 -5.16114e-08 0)
(0.000999983 -6.07971e-08 0)
(0.000999977 -7.12622e-08 0)
(0.000999968 -8.38966e-08 0)
(0.00099996 -9.65253e-08 0)
(0.000999946 -1.1054e-07 0)
(0.000999932 -1.23112e-07 0)
(0.000999906 -1.38031e-07 0)
(0.000999887 -1.49496e-07 0)
(0.000999845 -1.66249e-07 0)
(0.000999823 -1.73955e-07 0)
(0.000999755 -1.95778e-07 0)
(0.000999738 -1.97719e-07 0)
(0.000999621 -2.38786e-07 0)
(0.000999619 -2.33577e-07 0)
(0.000999401 -3.29251e-07 0)
)
;

boundaryField
{
    sides
    {
        type            slip;
    }
    inlet
    {
        type            fixedValue;
        value           uniform (0.001 0 0);
    }
    outlet
    {
        type            zeroGradient;
    }
    frontAndBack
    {
        type            empty;
    }
}


// ************************************************************************* //
