/*--------------------------------*- C++ -*----------------------------------*\
  =========                 |
  \\      /  F ield         | OpenFOAM: The Open Source CFD Toolbox
   \\    /   O peration     | Website:  https://openfoam.org
    \\  /    A nd           | Version:  7
     \\/     M anipulation  |
\*---------------------------------------------------------------------------*/
FoamFile
{
    version     2.0;
    format      ascii;
    class       surfaceScalarField;
    location    "30";
    object      phi_0;
}
// * * * * * * * * * * * * * * * * * * * * * * * * * * * * * * * * * * * * * //

dimensions      [0 4 -1 0 0 0 0];

internalField   nonuniform List<scalar> 
760
(
5e-06
6.94773e-12
5.00001e-06
-8.38581e-12
5.00003e-06
-1.51665e-11
5.00005e-06
-1.85466e-11
5.00007e-06
-2.12041e-11
5.0001e-06
-2.71679e-11
5.00013e-06
-3.24307e-11
5.00018e-06
-4.45153e-11
5.00023e-06
-5.78129e-11
5.00031e-06
-7.67722e-11
5.0004e-06
-9.33197e-11
5.00052e-06
-1.21469e-10
5.00065e-06
-1.38364e-10
5.00083e-06
-1.80088e-10
5.00102e-06
-1.8781e-10
5.00128e-06
-2.59921e-10
5.00153e-06
-2.48901e-10
5.00195e-06
-4.18776e-10
5.00234e-06
-3.90574e-10
-8.77945e-10
5.00003e-06
-2.1499e-11
5.00006e-06
-3.11767e-11
5.00008e-06
-3.66425e-11
5.00011e-06
-4.12125e-11
5.00013e-06
-4.43105e-11
5.00015e-06
-5.16106e-11
5.00018e-06
-6.28575e-11
5.00022e-06
-8.56678e-11
5.00027e-06
-1.10642e-10
5.00034e-06
-1.49678e-10
5.00043e-06
-1.84974e-10
5.00055e-06
-2.39558e-10
5.00068e-06
-2.76173e-10
5.00085e-06
-3.50526e-10
5.00104e-06
-3.75311e-10
5.00127e-06
-4.93443e-10
5.00152e-06
-4.94885e-10
5.00184e-06
-7.42221e-10
5.00217e-06
-7.11386e-10
-1.23492e-09
5e-06
-1.12949e-11
5.00001e-06
-3.01755e-11
5.00002e-06
-4.46459e-11
5.00004e-06
-5.4795e-11
5.00006e-06
-6.30589e-11
5.00008e-06
-7.51331e-11
5.00011e-06
-9.38994e-11
5.00015e-06
-1.25717e-10
5.00021e-06
-1.64892e-10
5.00027e-06
-2.18285e-10
5.00036e-06
-2.71375e-10
5.00046e-06
-3.45435e-10
5.00059e-06
-4.06158e-10
5.00074e-06
-5.03924e-10
5.00092e-06
-5.55549e-10
5.00113e-06
-6.96958e-10
5.00136e-06
-7.27283e-10
5.00162e-06
-1.00381e-09
5.00192e-06
-1.01344e-09
-1.64993e-09
5.00002e-06
-2.28805e-11
5.00004e-06
-4.79867e-11
5.00006e-06
-6.34955e-11
5.00009e-06
-7.48736e-11
5.00011e-06
-8.19065e-11
5.00013e-06
-9.46046e-11
5.00015e-06
-1.17326e-10
5.00018e-06
-1.59495e-10
5.00023e-06
-2.11062e-10
5.00029e-06
-2.81219e-10
5.00037e-06
-3.52033e-10
5.00047e-06
-4.4756e-10
5.00059e-06
-5.27316e-10
5.00073e-06
-6.47519e-10
5.00089e-06
-7.14249e-10
5.00107e-06
-8.7918e-10
5.00126e-06
-9.1886e-10
5.00149e-06
-1.22917e-09
5.00171e-06
-1.23703e-09
-1.8453e-09
5e-06
-2.20092e-11
5.00001e-06
-5.15563e-11
5.00003e-06
-7.02694e-11
5.00004e-06
-8.39222e-11
5.00006e-06
-9.56087e-11
5.00008e-06
-1.14234e-10
5.00011e-06
-1.43306e-10
5.00014e-06
-1.91996e-10
5.00018e-06
-2.52337e-10
5.00023e-06
-3.33167e-10
5.0003e-06
-4.18342e-10
5.00038e-06
-5.2886e-10
5.00048e-06
-6.27206e-10
5.0006e-06
-7.64037e-10
5.00073e-06
-8.50643e-10
5.00088e-06
-1.03012e-09
5.00105e-06
-1.08636e-09
5.00123e-06
-1.40556e-09
5.00141e-06
-1.42469e-09
-2.10062e-09
5.00001e-06
-2.58039e-11
5.00002e-06
-6.1086e-11
5.00004e-06
-8.34779e-11
5.00006e-06
-9.73989e-11
5.00007e-06
-1.06779e-10
5.00008e-06
-1.25267e-10
5.0001e-06
-1.58423e-10
5.00012e-06
-2.15748e-10
5.00016e-06
-2.86865e-10
5.00021e-06
-3.80705e-10
5.00027e-06
-4.79623e-10
5.00034e-06
-6.05383e-10
5.00044e-06
-7.18206e-10
5.00054e-06
-8.68871e-10
5.00065e-06
-9.64764e-10
5.00078e-06
-1.15336e-09
5.0009e-06
-1.21281e-09
5.00104e-06
-1.54651e-09
5.00119e-06
-1.56842e-09
-2.22129e-09
5.00001e-06
-2.61542e-11
5.00001e-06
-6.47862e-11
5.00002e-06
-8.96877e-11
5.00003e-06
-1.05636e-10
5.00005e-06
-1.1772e-10
5.00006e-06
-1.39075e-10
5.00008e-06
-1.75204e-10
5.0001e-06
-2.36269e-10
5.00013e-06
-3.13306e-10
5.00017e-06
-4.14604e-10
5.00021e-06
-5.22771e-10
5.00026e-06
-6.58269e-10
5.00033e-06
-7.82558e-10
5.0004e-06
-9.44251e-10
5.00049e-06
-1.05198e-09
5.00059e-06
-1.24993e-09
5.00069e-06
-1.31691e-09
5.0008e-06
-1.65472e-09
5.0009e-06
-1.67421e-09
-2.36336e-09
5e-06
-2.63907e-11
5.00001e-06
-6.87046e-11
5.00002e-06
-9.59854e-11
5.00003e-06
-1.11932e-10
5.00004e-06
-1.23317e-10
5.00004e-06
-1.45592e-10
5.00006e-06
-1.84451e-10
5.00007e-06
-2.49718e-10
5.00009e-06
-3.32218e-10
5.00012e-06
-4.40457e-10
5.00015e-06
-5.56772e-10
5.0002e-06
-7.00943e-10
5.00025e-06
-8.3379e-10
5.00031e-06
-1.00275e-09
5.00037e-06
-1.11583e-09
5.00044e-06
-1.31738e-09
5.00051e-06
-1.38545e-09
5.00058e-06
-1.72804e-09
5.00066e-06
-1.75049e-09
-2.43118e-09
5e-06
-2.6853e-11
5.00001e-06
-7.03129e-11
5.00001e-06
-9.86585e-11
5.00002e-06
-1.14939e-10
5.00002e-06
-1.27048e-10
5.00003e-06
-1.50291e-10
5.00003e-06
-1.90716e-10
5.00004e-06
-2.58579e-10
5.00006e-06
-3.44504e-10
5.00007e-06
-4.56531e-10
5.0001e-06
-5.76762e-10
5.00012e-06
-7.24774e-10
5.00015e-06
-8.61743e-10
5.00018e-06
-1.03488e-09
5.00022e-06
-1.15212e-09
5.00026e-06
-1.35752e-09
5.0003e-06
-1.42835e-09
5.00035e-06
-1.77386e-09
5.00039e-06
-1.79448e-09
-2.48515e-09
5e-06
-2.7076e-11
5e-06
-7.12403e-11
5e-06
-9.97859e-11
5.00001e-06
-1.16254e-10
5.00001e-06
-1.28316e-10
5.00001e-06
-1.52019e-10
5.00001e-06
-1.93102e-10
5.00002e-06
-2.61438e-10
5.00002e-06
-3.47797e-10
5.00002e-06
-4.60665e-10
5.00003e-06
-5.82549e-10
5.00004e-06
-7.32834e-10
5.00005e-06
-8.72396e-10
5.00006e-06
-1.04751e-09
5.00008e-06
-1.16618e-09
5.00009e-06
-1.37179e-09
5.0001e-06
-1.44229e-09
5.00012e-06
-1.78716e-09
5.00013e-06
-1.80783e-09
-2.49899e-09
5e-06
-2.68458e-11
5e-06
-7.03102e-11
5e-06
-9.86605e-11
4.99999e-06
-1.14942e-10
4.99999e-06
-1.2705e-10
4.99999e-06
-1.5029e-10
4.99999e-06
-1.90716e-10
4.99998e-06
-2.58582e-10
4.99998e-06
-3.44509e-10
4.99998e-06
-4.56532e-10
4.99997e-06
-5.7676e-10
4.99996e-06
-7.24765e-10
4.99995e-06
-8.61735e-10
4.99994e-06
-1.03486e-09
4.99992e-06
-1.1521e-09
4.99991e-06
-1.35747e-09
4.9999e-06
-1.42831e-09
4.99988e-06
-1.77378e-09
4.99987e-06
-1.79444e-09
-2.48505e-09
5e-06
-2.6385e-11
4.99999e-06
-6.86989e-11
4.99999e-06
-9.59879e-11
4.99998e-06
-1.11937e-10
4.99998e-06
-1.23321e-10
4.99997e-06
-1.45593e-10
4.99997e-06
-1.84455e-10
4.99996e-06
-2.49726e-10
4.99994e-06
-3.32227e-10
4.99993e-06
-4.40458e-10
4.9999e-06
-5.56765e-10
4.99988e-06
-7.00919e-10
4.99985e-06
-8.33769e-10
4.99982e-06
-1.0027e-09
4.99978e-06
-1.1158e-09
4.99974e-06
-1.31729e-09
4.9997e-06
-1.38538e-09
4.99965e-06
-1.72788e-09
4.99961e-06
-1.7504e-09
-2.43105e-09
5e-06
-2.61481e-11
4.99999e-06
-6.47837e-11
4.99998e-06
-8.96932e-11
4.99997e-06
-1.05643e-10
4.99996e-06
-1.17726e-10
4.99996e-06
-1.39075e-10
4.99994e-06
-1.75204e-10
4.99993e-06
-2.36273e-10
4.99991e-06
-3.13314e-10
4.99988e-06
-4.14603e-10
4.99985e-06
-5.22764e-10
4.9998e-06
-6.58242e-10
4.99975e-06
-7.82537e-10
4.99969e-06
-9.44199e-10
4.99963e-06
-1.05195e-09
4.99956e-06
-1.24982e-09
4.99949e-06
-1.31684e-09
4.99942e-06
-1.65451e-09
4.99934e-06
-1.67411e-09
-2.3631e-09
4.99999e-06
-2.57965e-11
4.99999e-06
-6.10844e-11
4.99998e-06
-8.34891e-11
4.99997e-06
-9.74153e-11
4.99995e-06
-1.06787e-10
4.99994e-06
-1.25258e-10
4.99992e-06
-1.58411e-10
4.9999e-06
-2.15742e-10
4.99987e-06
-2.86863e-10
4.99983e-06
-3.80688e-10
4.99979e-06
-4.796e-10
4.99974e-06
-6.05338e-10
4.99967e-06
-7.18172e-10
4.9996e-06
-8.68797e-10
4.99951e-06
-9.64713e-10
4.99941e-06
-1.15321e-09
4.99931e-06
-1.21271e-09
4.9992e-06
-1.54624e-09
4.9991e-06
-1.56828e-09
-2.22101e-09
4.99999e-06
-2.20006e-11
4.99998e-06
-5.15588e-11
4.99996e-06
-7.02913e-11
4.99994e-06
-8.39516e-11
4.99993e-06
-9.56236e-11
4.99992e-06
-1.14223e-10
4.9999e-06
-1.43294e-10
4.99988e-06
-1.91993e-10
4.99984e-06
-2.52347e-10
4.99979e-06
-3.33156e-10
4.99973e-06
-4.18324e-10
4.99966e-06
-5.28818e-10
4.99956e-06
-6.27189e-10
4.99946e-06
-7.63977e-10
4.99935e-06
-8.50626e-10
4.99922e-06
-1.02999e-09
4.9991e-06
-1.0863e-09
4.99896e-06
-1.4053e-09
4.99881e-06
-1.42458e-09
-2.1003e-09
5e-06
-2.28752e-11
4.99999e-06
-4.79867e-11
4.99997e-06
-6.35174e-11
4.99996e-06
-7.48919e-11
4.99994e-06
-8.1904e-11
4.99992e-06
-9.45776e-11
4.99989e-06
-1.17312e-10
4.99986e-06
-1.59471e-10
4.99982e-06
-2.11073e-10
4.99977e-06
-2.81212e-10
4.9997e-06
-3.52007e-10
4.99962e-06
-4.47494e-10
4.99952e-06
-5.27278e-10
4.9994e-06
-6.4743e-10
4.99927e-06
-7.14211e-10
4.99912e-06
-8.78998e-10
4.99895e-06
-9.18776e-10
4.99877e-06
-1.22886e-09
4.99859e-06
-1.23689e-09
-1.8449e-09
4.99998e-06
-1.13004e-11
4.99996e-06
-3.01973e-11
4.99994e-06
-4.46775e-11
4.99991e-06
-5.48212e-11
4.99989e-06
-6.30685e-11
4.99987e-06
-7.51439e-11
4.99985e-06
-9.39023e-11
4.99982e-06
-1.25698e-10
4.99977e-06
-1.64909e-10
4.99971e-06
-2.18319e-10
4.99963e-06
-2.71407e-10
4.99953e-06
-3.45424e-10
4.99941e-06
-4.06173e-10
4.99927e-06
-5.03885e-10
4.99911e-06
-5.55571e-10
4.99893e-06
-6.96843e-10
4.99874e-06
-7.27282e-10
4.99851e-06
-1.00358e-09
4.99829e-06
-1.0134e-09
-1.64965e-09
5e-06
-2.14914e-11
4.99999e-06
-3.1174e-11
4.99998e-06
-3.66422e-11
4.99996e-06
-4.12037e-11
4.99994e-06
-4.43167e-11
4.99992e-06
-5.162e-11
4.99989e-06
-6.28683e-11
4.99985e-06
-8.5695e-11
4.99979e-06
-1.10623e-10
4.99973e-06
-1.49668e-10
4.99964e-06
-1.84989e-10
4.99954e-06
-2.39523e-10
4.99941e-06
-2.76168e-10
4.99926e-06
-3.50442e-10
4.99908e-06
-3.75312e-10
4.99887e-06
-4.93284e-10
4.99864e-06
-4.94886e-10
4.99838e-06
-7.41947e-10
4.99808e-06
-7.11332e-10
-1.23452e-09
4.99997e-06
6.9409e-12
4.99994e-06
-8.39711e-12
4.99992e-06
-1.51719e-11
4.99989e-06
-1.85633e-11
4.99987e-06
-2.12818e-11
4.99985e-06
-2.72761e-11
4.99982e-06
-3.1052e-11
4.99978e-06
-4.47812e-11
4.99973e-06
-5.78967e-11
4.99966e-06
-7.68332e-11
4.99957e-06
-9.34054e-11
4.99945e-06
-1.21544e-10
4.99932e-06
-1.38453e-10
4.99915e-06
-1.80135e-10
4.99896e-06
-1.87889e-10
4.99873e-06
-2.59926e-10
4.99848e-06
-2.48977e-10
4.99816e-06
-4.18757e-10
4.99784e-06
-3.90655e-10
-8.78e-10
5e-06
4.99999e-06
4.99997e-06
4.99995e-06
4.99993e-06
4.9999e-06
4.99987e-06
4.99982e-06
4.99977e-06
4.99969e-06
4.9996e-06
4.99948e-06
4.99935e-06
4.99917e-06
4.99898e-06
4.99872e-06
4.99847e-06
4.99805e-06
4.99766e-06
)
;

boundaryField
{
    sides
    {
        type            calculated;
        value           uniform 0;
    }
    inlet
    {
        type            calculated;
        value           nonuniform List<scalar> 
20
(
-5e-06
-5e-06
-5e-06
-5e-06
-5e-06
-5e-06
-5e-06
-5e-06
-5e-06
-5e-06
-5e-06
-5e-06
-5e-06
-5e-06
-5e-06
-5e-06
-5e-06
-5e-06
-5e-06
-5e-06
)
;
    }
    outlet
    {
        type            calculated;
        value           nonuniform List<scalar> 
20
(
5.00322e-06
5.00252e-06
5.00234e-06
5.00191e-06
5.00167e-06
5.00131e-06
5.00105e-06
5.00072e-06
5.00044e-06
5.00014e-06
4.99986e-06
4.99956e-06
4.99928e-06
4.99895e-06
4.99869e-06
4.99833e-06
4.99809e-06
4.99766e-06
4.99748e-06
4.99678e-06
)
;
    }
    frontAndBack
    {
        type            empty;
        value           nonuniform 0();
    }
}


// ************************************************************************* //
