/*--------------------------------*- C++ -*----------------------------------*\
  =========                 |
  \\      /  F ield         | OpenFOAM: The Open Source CFD Toolbox
   \\    /   O peration     | Website:  https://openfoam.org
    \\  /    A nd           | Version:  7
     \\/     M anipulation  |
\*---------------------------------------------------------------------------*/
FoamFile
{
    version     2.0;
    format      ascii;
    class       volScalarField;
    location    "10";
    object      ddt0(h);
}
// * * * * * * * * * * * * * * * * * * * * * * * * * * * * * * * * * * * * * //

dimensions      [0 1 -1 0 0 0 0];

internalField   nonuniform List<scalar> 
400
(
-1.80309e-07
-1.59812e-07
-1.53529e-07
-1.35096e-07
-9.2818e-08
-1.04012e-07
-1.15236e-07
-1.19092e-07
-1.29061e-07
-1.37782e-07
-1.54504e-07
-1.6409e-07
-1.74534e-07
-1.67278e-07
-1.51829e-07
-1.31158e-07
-1.09679e-07
-8.51189e-08
-5.39812e-08
-1.87368e-08
-1.98897e-07
-1.91227e-07
-1.80859e-07
-1.56339e-07
-1.76019e-07
-1.66738e-07
-1.59166e-07
-1.45843e-07
-1.413e-07
-1.41141e-07
-1.49968e-07
-1.61516e-07
-1.6359e-07
-1.57153e-07
-1.43276e-07
-1.26869e-07
-1.06351e-07
-8.10115e-08
-5.14826e-08
-1.80057e-08
-1.44548e-07
-1.5212e-07
-1.93181e-07
-1.60899e-07
-1.62285e-07
-1.23953e-07
-1.28225e-07
-1.24159e-07
-1.07655e-07
-1.01275e-07
-1.04991e-07
-1.14473e-07
-1.21506e-07
-1.21719e-07
-1.16701e-07
-1.06754e-07
-8.94445e-08
-6.78173e-08
-4.35831e-08
-1.5731e-08
-1.30933e-07
-1.8087e-07
-1.72523e-07
-2.13037e-07
-2.35496e-07
-2.08766e-07
-1.69005e-07
-1.41525e-07
-1.18158e-07
-1.07588e-07
-9.70219e-08
-1.04248e-07
-1.06236e-07
-1.04687e-07
-1.00001e-07
-8.82856e-08
-6.99861e-08
-4.97295e-08
-3.08533e-08
-1.0967e-08
-1.1706e-07
-1.38722e-07
-2.23957e-07
-2.46615e-07
-1.69743e-07
-1.91858e-07
-1.84593e-07
-1.57657e-07
-1.16192e-07
-8.85716e-08
-7.0068e-08
-5.97268e-08
-5.1204e-08
-5.07913e-08
-5.23659e-08
-4.82681e-08
-3.68814e-08
-2.39342e-08
-1.36217e-08
-4.75047e-09
-8.54994e-08
-1.49999e-07
-1.71739e-07
-2.17336e-07
-2.54272e-07
-2.42053e-07
-1.99285e-07
-1.65033e-07
-1.29913e-07
-7.99009e-08
-5.19613e-08
-3.13815e-08
-1.86793e-08
-1.60817e-08
-1.48477e-08
-1.05216e-08
-4.74536e-09
-4.88458e-10
9.45839e-11
-3.33479e-10
-7.27103e-08
-1.1282e-07
-1.61227e-07
-1.8327e-07
-1.97939e-07
-1.96657e-07
-1.96136e-07
-1.62851e-07
-1.10247e-07
-7.34294e-08
-3.67718e-08
-2.10921e-09
1.48781e-08
1.91584e-08
2.05211e-08
2.17524e-08
2.12399e-08
1.68914e-08
8.85511e-09
2.17235e-09
-5.14625e-08
-8.74666e-08
-1.26084e-07
-1.55072e-07
-1.63268e-07
-1.72307e-07
-1.70261e-07
-1.37276e-07
-1.01205e-07
-5.56916e-08
-1.48094e-08
1.38102e-08
3.09998e-08
3.98999e-08
4.20453e-08
3.91484e-08
3.31716e-08
2.36554e-08
1.1271e-08
2.37432e-09
-2.99685e-08
-5.53509e-08
-7.33164e-08
-9.99497e-08
-1.07562e-07
-1.1743e-07
-1.10264e-07
-9.81536e-08
-6.75432e-08
-3.75656e-08
-9.18405e-09
1.50337e-08
3.0779e-08
3.88001e-08
3.78986e-08
3.26473e-08
2.80743e-08
2.13419e-08
1.11389e-08
2.84037e-09
-1.20536e-08
-1.76393e-08
-2.28318e-08
-2.68349e-08
-4.36364e-08
-4.14747e-08
-4.47095e-08
-3.55726e-08
-2.32585e-08
-1.55333e-08
-1.99941e-09
9.12957e-09
1.33321e-08
1.37983e-08
1.21268e-08
1.07122e-08
1.04629e-08
8.97892e-09
5.33605e-09
1.56046e-09
1.21017e-08
1.76537e-08
2.28444e-08
2.68409e-08
4.36942e-08
4.15261e-08
4.48116e-08
3.56907e-08
2.34092e-08
1.56974e-08
2.09926e-09
-9.08413e-09
-1.33194e-08
-1.38496e-08
-1.2234e-08
-1.08223e-08
-1.05446e-08
-9.03411e-09
-5.36304e-09
-1.56481e-09
2.99539e-08
5.53249e-08
7.33027e-08
9.99323e-08
1.07579e-07
1.17511e-07
1.10373e-07
9.83003e-08
6.77289e-08
3.77254e-08
9.31947e-09
-1.49609e-08
-3.07787e-08
-3.88494e-08
-3.79784e-08
-3.27389e-08
-2.81578e-08
-2.1405e-08
-1.11735e-08
-2.84868e-09
5.1322e-08
8.74327e-08
1.26046e-07
1.54981e-07
1.63228e-07
1.72382e-07
1.70405e-07
1.37469e-07
1.01405e-07
5.58823e-08
1.49616e-08
-1.3732e-08
-3.09848e-08
-3.99098e-08
-4.20819e-08
-3.92209e-08
-3.32572e-08
-2.37242e-08
-1.13112e-08
-2.38667e-09
7.26261e-08
1.12687e-07
1.61101e-07
1.83226e-07
1.97842e-07
1.96714e-07
1.96269e-07
1.63062e-07
1.10466e-07
7.36192e-08
3.69254e-08
2.20204e-09
-1.48489e-08
-1.91703e-08
-2.05654e-08
-2.18164e-08
-2.13062e-08
-1.695e-08
-8.90017e-09
-2.19016e-09
8.53065e-08
1.49799e-07
1.71536e-07
2.17257e-07
2.54182e-07
2.42097e-07
1.99413e-07
1.65195e-07
1.30078e-07
8.00677e-08
5.20657e-08
3.14487e-08
1.87043e-08
1.60552e-08
1.47967e-08
1.04701e-08
4.69721e-09
4.46208e-10
-1.22533e-10
3.2512e-10
1.16832e-07
1.38524e-07
2.23789e-07
2.46545e-07
1.69847e-07
1.91848e-07
1.84673e-07
1.57782e-07
1.16323e-07
8.86856e-08
7.01395e-08
5.97735e-08
5.12217e-08
5.07621e-08
5.23142e-08
4.82124e-08
3.68308e-08
2.38956e-08
1.35991e-08
4.74369e-09
1.30727e-07
1.80637e-07
1.72453e-07
2.12877e-07
2.35576e-07
2.08811e-07
1.69034e-07
1.4158e-07
1.18209e-07
1.07628e-07
9.70617e-08
1.0425e-07
1.06222e-07
1.04646e-07
9.9934e-08
8.8205e-08
6.99087e-08
4.96715e-08
3.08131e-08
1.09506e-08
1.44385e-07
1.51997e-07
1.93084e-07
1.60862e-07
1.62202e-07
1.23954e-07
1.28232e-07
1.24166e-07
1.07652e-07
1.01256e-07
1.04972e-07
1.14433e-07
1.21457e-07
1.21657e-07
1.16616e-07
1.06653e-07
8.93458e-08
6.77393e-08
4.35327e-08
1.57106e-08
1.98764e-07
1.91146e-07
1.80811e-07
1.56244e-07
1.75874e-07
1.66735e-07
1.59068e-07
1.4574e-07
1.41215e-07
1.41034e-07
1.49932e-07
1.61456e-07
1.63523e-07
1.57065e-07
1.43169e-07
1.26749e-07
1.06227e-07
8.09033e-08
5.14096e-08
1.79808e-08
1.80225e-07
1.59798e-07
1.53442e-07
1.35082e-07
9.27303e-08
1.03786e-07
1.15104e-07
1.18968e-07
1.28957e-07
1.37724e-07
1.54399e-07
1.64035e-07
1.74442e-07
1.67182e-07
1.51732e-07
1.31051e-07
1.09568e-07
8.5013e-08
5.39048e-08
1.87081e-08
)
;

boundaryField
{
    sides
    {
        type            calculated;
        value           nonuniform List<scalar> 
40
(
1.80225e-07
1.59798e-07
1.53442e-07
1.35082e-07
9.27303e-08
1.03786e-07
1.15104e-07
1.18968e-07
1.28957e-07
1.37724e-07
1.54399e-07
1.64035e-07
1.74442e-07
1.67182e-07
1.51732e-07
1.31051e-07
1.09568e-07
8.5013e-08
5.39048e-08
1.87081e-08
-1.80309e-07
-1.59812e-07
-1.53529e-07
-1.35096e-07
-9.2818e-08
-1.04012e-07
-1.15236e-07
-1.19092e-07
-1.29061e-07
-1.37782e-07
-1.54504e-07
-1.6409e-07
-1.74534e-07
-1.67278e-07
-1.51829e-07
-1.31158e-07
-1.09679e-07
-8.51189e-08
-5.39812e-08
-1.87368e-08
)
;
    }
    inlet
    {
        type            calculated;
        value           nonuniform List<scalar> 
20
(
-1.80309e-07
-1.98897e-07
-1.44548e-07
-1.30933e-07
-1.1706e-07
-8.54994e-08
-7.27103e-08
-5.14625e-08
-2.99685e-08
-1.20536e-08
1.21017e-08
2.99539e-08
5.1322e-08
7.26261e-08
8.53065e-08
1.16832e-07
1.30727e-07
1.44385e-07
1.98764e-07
1.80225e-07
)
;
    }
    outlet
    {
        type            calculated;
        value           uniform 0;
    }
    frontAndBack
    {
        type            empty;
    }
}


// ************************************************************************* //
