/*--------------------------------*- C++ -*----------------------------------*\
  =========                 |
  \\      /  F ield         | OpenFOAM: The Open Source CFD Toolbox
   \\    /   O peration     | Website:  https://openfoam.org
    \\  /    A nd           | Version:  7
     \\/     M anipulation  |
\*---------------------------------------------------------------------------*/
FoamFile
{
    version     2.0;
    format      ascii;
    class       volVectorField;
    location    "10";
    object      ddt0(hU);
}
// * * * * * * * * * * * * * * * * * * * * * * * * * * * * * * * * * * * * * //

dimensions      [0 2 -2 0 0 0 0];

internalField   nonuniform List<vector> 
400
(
(-1.38637e-08 -4.64896e-10 0)
(2.70098e-09 -4.33527e-09 0)
(3.32142e-08 -7.94033e-09 0)
(2.88029e-08 5.31493e-09 0)
(1.0239e-08 1.00023e-08 0)
(-8.9266e-09 2.32757e-08 0)
(-1.81864e-08 2.61671e-08 0)
(-2.92958e-08 2.23435e-08 0)
(-3.71543e-08 1.74916e-08 0)
(-3.34255e-08 1.21307e-08 0)
(-2.12679e-08 4.66676e-09 0)
(-4.3359e-09 -3.41285e-09 0)
(1.2148e-08 -5.46112e-09 0)
(2.95194e-08 6.39591e-10 0)
(3.99091e-08 1.27277e-08 0)
(4.26209e-08 2.29452e-08 0)
(3.31042e-08 2.61967e-08 0)
(2.14595e-08 2.01539e-08 0)
(5.47412e-09 1.18686e-08 0)
(-2.26899e-09 -4.89879e-09 0)
(-1.24179e-08 -1.7391e-08 0)
(-6.07408e-09 -2.31027e-08 0)
(2.60951e-08 -1.42744e-08 0)
(2.98683e-08 1.48404e-08 0)
(1.41792e-08 3.34309e-08 0)
(5.47212e-09 3.70756e-08 0)
(-1.60428e-08 4.14747e-08 0)
(-3.61406e-08 3.95704e-08 0)
(-4.66683e-08 3.01896e-08 0)
(-4.16719e-08 2.00957e-08 0)
(-2.56767e-08 1.26531e-08 0)
(-3.90543e-09 6.09468e-09 0)
(1.69911e-08 7.92455e-10 0)
(3.35808e-08 -6.38685e-11 0)
(4.1022e-08 5.70058e-09 0)
(4.0196e-08 1.5075e-08 0)
(3.16347e-08 2.27455e-08 0)
(2.26574e-08 2.50577e-08 0)
(1.20771e-08 2.4852e-08 0)
(5.57112e-09 1.66222e-08 0)
(-7.78148e-09 -2.90534e-08 0)
(6.46803e-09 -4.27448e-08 0)
(3.84244e-08 -1.57846e-08 0)
(4.42471e-08 6.67962e-09 0)
(4.22128e-09 3.97962e-08 0)
(-1.09399e-08 6.34091e-08 0)
(-6.83036e-09 7.00515e-08 0)
(-1.69927e-08 6.09227e-08 0)
(-2.86618e-08 4.23982e-08 0)
(-2.88414e-08 2.15331e-08 0)
(-1.96284e-08 3.92657e-09 0)
(-6.5226e-09 -9.09177e-09 0)
(7.74576e-09 -1.25848e-08 0)
(2.32327e-08 -2.22556e-09 0)
(3.24808e-08 1.75874e-08 0)
(3.38173e-08 3.63668e-08 0)
(2.53441e-08 4.62045e-08 0)
(1.72147e-08 4.10948e-08 0)
(6.36123e-09 3.26427e-08 0)
(1.34342e-09 5.0452e-09 0)
(-7.50463e-09 -2.49722e-08 0)
(5.85023e-09 -4.09766e-08 0)
(3.08881e-08 -1.86921e-08 0)
(3.08216e-08 1.86266e-08 0)
(2.98028e-08 5.75643e-08 0)
(1.77158e-08 8.40628e-08 0)
(-5.45781e-09 8.9613e-08 0)
(-2.63167e-08 7.52465e-08 0)
(-3.95157e-08 5.37258e-08 0)
(-3.95807e-08 3.02512e-08 0)
(-2.73232e-08 9.32217e-09 0)
(-8.69929e-09 -6.63194e-09 0)
(1.41369e-08 -1.03056e-08 0)
(3.32076e-08 1.51737e-09 0)
(3.96953e-08 2.46538e-08 0)
(3.63189e-08 4.75501e-08 0)
(2.64676e-08 6.15138e-08 0)
(1.76641e-08 5.88936e-08 0)
(9.17743e-09 5.1525e-08 0)
(4.62966e-09 2.37051e-08 0)
(-4.31918e-09 -2.20331e-08 0)
(1.03682e-08 -3.26156e-08 0)
(3.15805e-08 -1.31965e-08 0)
(4.04999e-08 3.37169e-08 0)
(2.08106e-08 7.24867e-08 0)
(1.74752e-09 9.58256e-08 0)
(2.26382e-09 9.6173e-08 0)
(-8.36219e-09 7.84684e-08 0)
(-1.94561e-08 5.18434e-08 0)
(-2.22849e-08 2.51522e-08 0)
(-1.64735e-08 1.41503e-10 0)
(-7.24101e-09 -1.79489e-08 0)
(4.05195e-09 -2.01446e-08 0)
(1.48815e-08 -4.06726e-09 0)
(2.08412e-08 2.44002e-08 0)
(2.25264e-08 5.10908e-08 0)
(1.80938e-08 6.57367e-08 0)
(1.38814e-08 5.93933e-08 0)
(7.98058e-09 4.86471e-08 0)
(5.3721e-09 1.29524e-08 0)
(-1.92721e-09 -1.52725e-08 0)
(8.51354e-09 -2.58071e-08 0)
(2.8272e-08 -1.97123e-09 0)
(3.22233e-08 3.51234e-08 0)
(2.67168e-08 7.85703e-08 0)
(1.81214e-08 1.16935e-07 0)
(2.07473e-09 1.16732e-07 0)
(-1.25259e-08 8.81852e-08 0)
(-2.40246e-08 5.10392e-08 0)
(-2.56709e-08 1.46939e-08 0)
(-2.1595e-08 -1.94379e-08 0)
(-8.76952e-09 -4.06881e-08 0)
(9.02411e-09 -3.9322e-08 0)
(2.25473e-08 -1.4524e-08 0)
(2.67729e-08 2.51301e-08 0)
(2.45737e-08 6.10538e-08 0)
(1.76989e-08 8.08247e-08 0)
(1.18139e-08 7.51041e-08 0)
(7.32043e-09 6.34206e-08 0)
(5.61759e-09 2.49942e-08 0)
(-2.4259e-09 -9.67065e-09 0)
(1.02455e-08 -1.32994e-08 0)
(2.38616e-08 7.08767e-09 0)
(3.01319e-08 4.98946e-08 0)
(2.46076e-08 9.80478e-08 0)
(1.72011e-08 1.19078e-07 0)
(5.75448e-09 1.12131e-07 0)
(-5.33807e-09 8.28597e-08 0)
(-1.16991e-08 4.47268e-08 0)
(-1.62039e-08 5.11238e-09 0)
(-1.39098e-08 -3.05615e-08 0)
(-5.52398e-09 -5.20223e-08 0)
(2.20217e-09 -4.9937e-08 0)
(8.95213e-09 -2.24645e-08 0)
(1.40564e-08 2.08088e-08 0)
(1.65078e-08 5.93198e-08 0)
(1.34316e-08 7.98e-08 0)
(9.88003e-09 7.28159e-08 0)
(6.7877e-09 6.00668e-08 0)
(6.66454e-09 1.88452e-08 0)
(-7.21842e-10 -4.04407e-09 0)
(8.16581e-09 -1.457e-09 0)
(1.77009e-08 1.53749e-08 0)
(2.23842e-08 5.64992e-08 0)
(1.93731e-08 1.05421e-07 0)
(1.36493e-08 1.30052e-07 0)
(6.72427e-09 1.16737e-07 0)
(-3.35399e-10 7.96536e-08 0)
(-9.28948e-09 3.31603e-08 0)
(-1.32558e-08 -1.34099e-08 0)
(-1.18883e-08 -5.45626e-08 0)
(-6.00188e-09 -7.89856e-08 0)
(2.13683e-09 -7.29421e-08 0)
(9.70516e-09 -3.50825e-08 0)
(1.37146e-08 1.95906e-08 0)
(1.39626e-08 6.52387e-08 0)
(1.0451e-08 8.84736e-08 0)
(7.09108e-09 8.12387e-08 0)
(5.25454e-09 6.76487e-08 0)
(5.36664e-09 2.40602e-08 0)
(-3.764e-10 1.0973e-09 0)
(5.15081e-09 7.36207e-09 0)
(1.11217e-08 2.37269e-08 0)
(1.41246e-08 6.25543e-08 0)
(1.2632e-08 1.12995e-07 0)
(8.73447e-09 1.35932e-07 0)
(5.61043e-09 1.18998e-07 0)
(1.44648e-10 7.3879e-08 0)
(-4.2107e-09 2.31507e-08 0)
(-7.0813e-09 -2.60659e-08 0)
(-6.73165e-09 -6.90815e-08 0)
(-3.17934e-09 -9.26826e-08 0)
(8.8116e-10 -8.3658e-08 0)
(4.8919e-09 -4.22961e-08 0)
(7.255e-09 1.55348e-08 0)
(7.5749e-09 6.35917e-08 0)
(5.99171e-09 8.83311e-08 0)
(4.77831e-09 8.1298e-08 0)
(3.85012e-09 6.72612e-08 0)
(3.97618e-09 2.2499e-08 0)
(-3.0496e-10 3.84255e-09 0)
(2.12378e-09 1.28791e-08 0)
(3.64733e-09 2.78259e-08 0)
(5.24403e-09 6.79203e-08 0)
(3.95073e-09 1.1729e-07 0)
(3.39588e-09 1.40309e-07 0)
(1.61973e-09 1.19402e-07 0)
(3.7963e-10 7.18726e-08 0)
(-6.39372e-10 1.709e-08 0)
(-2.67016e-09 -3.53968e-08 0)
(-2.41471e-09 -8.01121e-08 0)
(-9.77383e-10 -1.04732e-07 0)
(1.09661e-10 -9.41241e-08 0)
(1.20338e-09 -4.8653e-08 0)
(1.95416e-09 1.35293e-08 0)
(2.26606e-09 6.47438e-08 0)
(2.14008e-09 9.11308e-08 0)
(1.99418e-09 8.39633e-08 0)
(1.71034e-09 6.899e-08 0)
(1.47911e-09 2.32781e-08 0)
(3.16475e-10 3.84635e-09 0)
(-2.135e-09 1.28811e-08 0)
(-3.66074e-09 2.78249e-08 0)
(-5.22625e-09 6.79142e-08 0)
(-3.91677e-09 1.17288e-07 0)
(-3.38047e-09 1.40311e-07 0)
(-1.61807e-09 1.19409e-07 0)
(-3.88453e-10 7.18741e-08 0)
(6.31308e-10 1.7092e-08 0)
(2.67122e-09 -3.5395e-08 0)
(2.42004e-09 -8.01078e-08 0)
(9.93509e-10 -1.04724e-07 0)
(-8.07499e-11 -9.41195e-08 0)
(-1.17475e-09 -4.86534e-08 0)
(-1.92268e-09 1.35277e-08 0)
(-2.22595e-09 6.47421e-08 0)
(-2.08258e-09 9.11273e-08 0)
(-1.92697e-09 8.39585e-08 0)
(-1.6291e-09 6.89827e-08 0)
(-1.39051e-09 2.32718e-08 0)
(3.81436e-10 1.12097e-09 0)
(-5.16083e-09 7.37705e-09 0)
(-1.11345e-08 2.37284e-08 0)
(-1.41115e-08 6.2553e-08 0)
(-1.26035e-08 1.12995e-07 0)
(-8.71321e-09 1.35944e-07 0)
(-5.60731e-09 1.19015e-07 0)
(-1.51095e-10 7.38869e-08 0)
(4.20786e-09 2.31494e-08 0)
(7.08042e-09 -2.60699e-08 0)
(6.74261e-09 -6.90769e-08 0)
(3.19801e-09 -9.26678e-08 0)
(-8.59548e-10 -8.36458e-08 0)
(-4.86511e-09 -4.22912e-08 0)
(-7.21731e-09 1.55343e-08 0)
(-7.52957e-09 6.35857e-08 0)
(-5.93439e-09 8.83171e-08 0)
(-4.71306e-09 8.12829e-08 0)
(-3.77193e-09 6.72411e-08 0)
(-3.88877e-09 2.24908e-08 0)
(7.11736e-10 -4.00726e-09 0)
(-8.17675e-09 -1.42408e-09 0)
(-1.7703e-08 1.53782e-08 0)
(-2.23799e-08 5.65041e-08 0)
(-1.93643e-08 1.05435e-07 0)
(-1.36359e-08 1.30079e-07 0)
(-6.71944e-09 1.16764e-07 0)
(3.31634e-10 7.9667e-08 0)
(9.28072e-09 3.31594e-08 0)
(1.32559e-08 -1.34115e-08 0)
(1.1903e-08 -5.4555e-08 0)
(6.02224e-09 -7.8971e-08 0)
(-2.11262e-09 -7.29284e-08 0)
(-9.67076e-09 -3.50734e-08 0)
(-1.36683e-08 1.9592e-08 0)
(-1.39139e-08 6.52314e-08 0)
(-1.0393e-08 8.84567e-08 0)
(-7.02583e-09 8.12176e-08 0)
(-5.17353e-09 6.76168e-08 0)
(-5.27594e-09 2.40342e-08 0)
(2.426e-09 -9.63844e-09 0)
(-1.02619e-08 -1.32554e-08 0)
(-2.38636e-08 7.10073e-09 0)
(-3.01143e-08 4.98874e-08 0)
(-2.46138e-08 9.80673e-08 0)
(-1.72047e-08 1.19117e-07 0)
(-5.7599e-09 1.12166e-07 0)
(5.33327e-09 8.28704e-08 0)
(1.16955e-08 4.47201e-08 0)
(1.62056e-08 5.11166e-09 0)
(1.39241e-08 -3.05464e-08 0)
(5.54546e-09 -5.19967e-08 0)
(-2.1781e-09 -4.99099e-08 0)
(-8.92211e-09 -2.24469e-08 0)
(-1.40159e-08 2.08044e-08 0)
(-1.64589e-08 5.92957e-08 0)
(-1.33722e-08 7.97601e-08 0)
(-9.81778e-09 7.27783e-08 0)
(-6.7173e-09 6.00222e-08 0)
(-6.58613e-09 1.88288e-08 0)
(1.9281e-09 -1.52398e-08 0)
(-8.51581e-09 -2.57587e-08 0)
(-2.82823e-08 -1.95763e-09 0)
(-3.22202e-08 3.51035e-08 0)
(-2.67253e-08 7.85832e-08 0)
(-1.8139e-08 1.16976e-07 0)
(-2.09497e-09 1.16769e-07 0)
(1.25052e-08 8.8197e-08 0)
(2.40102e-08 5.10289e-08 0)
(2.56704e-08 1.46838e-08 0)
(2.16009e-08 -1.94336e-08 0)
(8.78673e-09 -4.06726e-08 0)
(-8.99599e-09 -3.93012e-08 0)
(-2.2514e-08 -1.45044e-08 0)
(-2.67288e-08 2.51419e-08 0)
(-2.45169e-08 6.10556e-08 0)
(-1.76293e-08 8.08138e-08 0)
(-1.174e-08 7.50851e-08 0)
(-7.23758e-09 6.3385e-08 0)
(-5.52699e-09 2.49617e-08 0)
(4.31999e-09 -2.19994e-08 0)
(-1.03661e-08 -3.25805e-08 0)
(-3.15896e-08 -1.31982e-08 0)
(-4.04965e-08 3.36829e-08 0)
(-2.08058e-08 7.24651e-08 0)
(-1.78839e-09 9.58379e-08 0)
(-2.29922e-09 9.61936e-08 0)
(8.34178e-09 7.84774e-08 0)
(1.94456e-08 5.18449e-08 0)
(2.22845e-08 2.51546e-08 0)
(1.64813e-08 1.60281e-10 0)
(7.25858e-09 -1.79163e-08 0)
(-4.02461e-09 -2.01137e-08 0)
(-1.48514e-08 -4.04431e-09 0)
(-2.0804e-08 2.44054e-08 0)
(-2.24801e-08 5.10731e-08 0)
(-1.80365e-08 6.56927e-08 0)
(-1.3823e-08 5.93438e-08 0)
(-7.91732e-09 4.85844e-08 0)
(-5.31518e-09 1.29229e-08 0)
(7.49644e-09 -2.49499e-08 0)
(-5.86053e-09 -4.09591e-08 0)
(-3.08901e-08 -1.87137e-08 0)
(-3.08499e-08 1.85942e-08 0)
(-2.98091e-08 5.75329e-08 0)
(-1.77415e-08 8.40495e-08 0)
(5.42161e-09 8.96228e-08 0)
(2.62906e-08 7.52477e-08 0)
(3.94942e-08 5.37126e-08 0)
(3.95653e-08 3.02391e-08 0)
(2.73194e-08 9.32308e-09 0)
(8.70542e-09 -6.61579e-09 0)
(-1.41105e-08 -1.02847e-08 0)
(-3.31638e-08 1.53885e-09 0)
(-3.96435e-08 2.4671e-08 0)
(-3.6263e-08 4.75595e-08 0)
(-2.64069e-08 6.15102e-08 0)
(-1.75985e-08 5.888e-08 0)
(-9.11208e-09 5.14908e-08 0)
(-4.55869e-09 2.36777e-08 0)
(7.77362e-09 -2.90352e-08 0)
(-6.47681e-09 -4.2727e-08 0)
(-3.84277e-08 -1.58098e-08 0)
(-4.42742e-08 6.6416e-09 0)
(-4.28948e-09 3.97473e-08 0)
(1.08899e-08 6.33884e-08 0)
(6.80784e-09 7.00567e-08 0)
(1.69763e-08 6.09305e-08 0)
(2.86502e-08 4.24001e-08 0)
(2.88356e-08 2.15379e-08 0)
(1.96319e-08 3.9345e-09 0)
(6.53285e-09 -9.07691e-09 0)
(-7.72458e-09 -1.25726e-08 0)
(-2.32021e-08 -2.2219e-09 0)
(-3.24454e-08 1.75822e-08 0)
(-3.37777e-08 3.63547e-08 0)
(-2.52939e-08 4.6178e-08 0)
(-1.71641e-08 4.10572e-08 0)
(-6.30539e-09 3.25832e-08 0)
(-1.30703e-09 5.00121e-09 0)
(1.24045e-08 -1.73848e-08 0)
(6.04175e-09 -2.30949e-08 0)
(-2.61131e-08 -1.42897e-08 0)
(-2.99162e-08 1.48051e-08 0)
(-1.42355e-08 3.34079e-08 0)
(-5.49308e-09 3.70812e-08 0)
(1.60085e-08 4.14696e-08 0)
(3.6109e-08 3.9557e-08 0)
(4.66451e-08 3.01748e-08 0)
(4.16464e-08 2.00898e-08 0)
(2.56629e-08 1.2655e-08 0)
(3.90737e-09 6.10805e-09 0)
(-1.69686e-08 8.15493e-10 0)
(-3.35367e-08 -4.29046e-11 0)
(-4.09656e-08 5.71218e-09 0)
(-4.01405e-08 1.50766e-08 0)
(-3.1593e-08 2.27362e-08 0)
(-2.26228e-08 2.50442e-08 0)
(-1.20546e-08 2.48332e-08 0)
(-5.53283e-09 1.66239e-08 0)
(1.38583e-08 -4.72576e-10 0)
(-2.72124e-09 -4.33965e-09 0)
(-3.32554e-08 -7.95017e-09 0)
(-2.88562e-08 5.29487e-09 0)
(-1.02946e-08 1.00006e-08 0)
(8.86479e-09 2.32753e-08 0)
(1.81437e-08 2.6159e-08 0)
(2.9274e-08 2.23336e-08 0)
(3.71421e-08 1.7479e-08 0)
(3.34142e-08 1.21172e-08 0)
(2.12512e-08 4.65171e-09 0)
(4.33411e-09 -3.43023e-09 0)
(-1.21453e-08 -5.48028e-09 0)
(-2.9502e-08 6.21209e-10 0)
(-3.98686e-08 1.2718e-08 0)
(-4.25652e-08 2.29494e-08 0)
(-3.30383e-08 2.62023e-08 0)
(-2.13975e-08 2.01449e-08 0)
(-5.41167e-09 1.18288e-08 0)
(2.28837e-09 -4.96068e-09 0)
)
;

boundaryField
{
    sides
    {
        type            calculated;
        value           nonuniform List<vector> 
40
(
(1.38583e-08 0 0)
(-2.72124e-09 0 0)
(-3.32554e-08 0 0)
(-2.88562e-08 0 0)
(-1.02946e-08 0 0)
(8.86479e-09 0 0)
(1.81437e-08 0 0)
(2.9274e-08 0 0)
(3.71421e-08 0 0)
(3.34142e-08 0 0)
(2.12512e-08 0 0)
(4.33411e-09 0 0)
(-1.21453e-08 0 0)
(-2.9502e-08 0 0)
(-3.98686e-08 0 0)
(-4.25652e-08 0 0)
(-3.30383e-08 0 0)
(-2.13975e-08 0 0)
(-5.41167e-09 0 0)
(2.28837e-09 0 0)
(-1.38637e-08 0 0)
(2.70098e-09 0 0)
(3.32142e-08 0 0)
(2.88029e-08 0 0)
(1.0239e-08 0 0)
(-8.9266e-09 0 0)
(-1.81864e-08 0 0)
(-2.92958e-08 0 0)
(-3.71543e-08 0 0)
(-3.34255e-08 0 0)
(-2.12679e-08 0 0)
(-4.3359e-09 0 0)
(1.2148e-08 0 0)
(2.95194e-08 0 0)
(3.99091e-08 0 0)
(4.26209e-08 0 0)
(3.31042e-08 0 0)
(2.14595e-08 0 0)
(5.47412e-09 0 0)
(-2.26899e-09 0 0)
)
;
    }
    inlet
    {
        type            calculated;
        value           uniform (0 0 0);
    }
    outlet
    {
        type            calculated;
        value           nonuniform List<vector> 
20
(
(-2.26899e-09 -4.89879e-09 0)
(5.57112e-09 1.66222e-08 0)
(1.34342e-09 5.0452e-09 0)
(4.62966e-09 2.37051e-08 0)
(5.3721e-09 1.29524e-08 0)
(5.61759e-09 2.49942e-08 0)
(6.66454e-09 1.88452e-08 0)
(5.36664e-09 2.40602e-08 0)
(3.97618e-09 2.2499e-08 0)
(1.47911e-09 2.32781e-08 0)
(-1.39051e-09 2.32718e-08 0)
(-3.88877e-09 2.24908e-08 0)
(-5.27594e-09 2.40342e-08 0)
(-6.58613e-09 1.88288e-08 0)
(-5.52699e-09 2.49617e-08 0)
(-5.31518e-09 1.29229e-08 0)
(-4.55869e-09 2.36777e-08 0)
(-1.30703e-09 5.00121e-09 0)
(-5.53283e-09 1.66239e-08 0)
(2.28837e-09 -4.96068e-09 0)
)
;
    }
    frontAndBack
    {
        type            empty;
    }
}


// ************************************************************************* //
