/*--------------------------------*- C++ -*----------------------------------*\
  =========                 |
  \\      /  F ield         | OpenFOAM: The Open Source CFD Toolbox
   \\    /   O peration     | Website:  https://openfoam.org
    \\  /    A nd           | Version:  7
     \\/     M anipulation  |
\*---------------------------------------------------------------------------*/
FoamFile
{
    version     2.0;
    format      ascii;
    class       surfaceScalarField;
    location    "10";
    object      ddtCorrDdt0(phi);
}
// * * * * * * * * * * * * * * * * * * * * * * * * * * * * * * * * * * * * * //

dimensions      [0 4 -2 0 0 0 0];

internalField   nonuniform List<scalar> 
760
(
3.81445e-11
-2.51462e-11
1.41463e-10
-9.2139e-11
8.52982e-11
-6.89988e-11
1.07082e-10
7.71012e-11
1.87266e-11
1.21169e-10
-6.50976e-11
1.29029e-10
-1.35088e-10
1.35496e-10
-1.71967e-10
1.30395e-10
-1.71159e-10
9.76075e-11
-1.40598e-10
8.24134e-11
-6.45448e-11
4.86511e-11
2.11741e-11
-2.1777e-11
1.08407e-10
-1.12473e-11
1.75136e-10
-6.22597e-13
2.05769e-10
3.32086e-11
1.90099e-10
7.84992e-11
1.38527e-10
1.04809e-10
7.11956e-11
1.03314e-10
4.50457e-12
8.55324e-11
2.91357e-11
3.80633e-11
-6.78516e-11
5.42073e-11
-1.63083e-10
1.26126e-10
-5.75878e-11
7.69651e-11
2.21024e-11
9.73981e-11
9.90042e-11
-4.16941e-11
3.32433e-10
-1.41562e-10
3.10655e-10
-2.12532e-10
2.71318e-10
-2.1758e-10
1.84903e-10
-1.68333e-10
9.83831e-11
-7.44284e-11
3.18699e-11
3.3848e-11
-1.92285e-11
1.2545e-10
-4.04729e-11
1.89725e-10
-6.76465e-12
2.01689e-10
7.43663e-11
1.81948e-10
1.44651e-10
1.35897e-10
1.89329e-10
9.17515e-11
1.75433e-10
4.17864e-11
1.50711e-10
5.45164e-11
7.69675e-11
-1.31593e-10
1.10117e-10
-2.15512e-10
2.00011e-10
-4.34554e-11
1.29357e-10
2.36375e-11
-3.57255e-11
3.04047e-10
-1.75592e-11
3.11436e-10
-7.10517e-11
3.72681e-10
-1.24186e-10
3.22093e-10
-1.41803e-10
2.40317e-10
-1.2588e-10
1.37543e-10
-7.26678e-11
4.63412e-11
2.11179e-12
-1.94018e-11
8.26169e-11
-4.1069e-11
1.43545e-10
5.00107e-12
1.69699e-10
1.00463e-10
1.47467e-10
2.01135e-10
1.06474e-10
2.5802e-10
6.09509e-11
2.42745e-10
1.68571e-11
2.0616e-10
7.26077e-11
4.35412e-11
-1.24402e-10
1.46127e-10
-1.72425e-10
9.03271e-11
-1.15637e-10
1.59034e-10
1.95455e-10
1.65829e-10
3.30188e-10
1.3976e-11
5.73072e-10
-8.65767e-11
5.05326e-10
-1.70249e-10
3.99096e-10
-2.02227e-10
2.65621e-10
-1.65829e-10
1.31898e-10
-9.32066e-11
8.04987e-12
9.03427e-12
-8.78548e-11
1.18992e-10
-1.00196e-10
1.86945e-10
-1.90271e-11
1.90665e-10
1.23315e-10
1.58386e-10
2.50672e-10
1.09883e-10
3.23302e-10
7.04005e-11
2.9745e-10
3.39559e-11
2.50172e-10
8.94217e-11
7.90361e-11
-9.53475e-11
9.69162e-11
-1.53853e-10
1.82403e-10
-2.74394e-11
1.73476e-10
1.3772e-10
3.3913e-11
3.42566e-10
4.07691e-11
4.23745e-10
-3.05781e-11
5.21056e-10
-7.13559e-11
4.25968e-10
-1.06407e-10
2.64494e-10
-9.81677e-11
1.07676e-10
-7.01606e-11
-3.53546e-11
-1.24452e-11
-1.29897e-10
5.03708e-11
-1.34608e-10
9.26183e-11
-4.30735e-11
1.10189e-10
1.15264e-10
1.02057e-10
2.69253e-10
7.9655e-11
3.58125e-10
5.5358e-11
3.33199e-10
3.25076e-11
2.79899e-10
9.64695e-11
6.6625e-11
-5.95271e-11
9.88657e-11
-9.97179e-11
1.42636e-10
1.72225e-11
1.3236e-10
2.22927e-10
1.6379e-10
4.66287e-10
3.8142e-11
6.24219e-10
-3.24975e-11
5.72508e-10
-9.64908e-11
4.23709e-10
-1.22631e-10
2.42609e-10
-1.18983e-10
5.6531e-11
-8.52162e-11
-1.26379e-10
-4.0108e-12
-2.37754e-10
7.87301e-11
-2.28898e-10
1.24017e-10
-9.3561e-11
1.28985e-10
1.17315e-10
1.08066e-10
3.02163e-10
7.35906e-11
4.00564e-10
4.83171e-11
3.66109e-10
3.37815e-11
3.0392e-10
1.06451e-10
5.31224e-11
-3.59206e-11
9.82391e-11
-3.05554e-11
1.22477e-10
5.28325e-11
1.37742e-10
2.69759e-10
1.21607e-10
5.04486e-10
7.23779e-11
6.35393e-10
-1.09951e-11
5.63376e-10
-4.31667e-11
4.05739e-10
-6.66767e-11
1.92792e-10
-8.22184e-11
-2.6549e-11
-5.59411e-11
-2.12354e-10
-1.17096e-11
-3.24146e-10
2.54953e-11
-3.06295e-10
5.63926e-11
-1.4679e-10
7.78912e-11
9.82281e-11
7.75566e-11
3.11824e-10
5.79616e-11
4.22816e-10
4.06316e-11
3.88124e-10
3.39694e-11
3.22858e-10
1.09406e-10
4.90979e-11
-2.97101e-12
6.48193e-11
1.68585e-11
9.97788e-11
1.01187e-10
9.92862e-11
2.94145e-10
1.02107e-10
5.46215e-10
5.32281e-11
6.5134e-10
1.64384e-11
5.84878e-10
-2.57385e-11
3.76465e-10
-5.6707e-11
1.3578e-10
-6.61789e-11
-9.81389e-11
-4.99108e-11
-3.09852e-10
-1.35463e-11
-4.3158e-10
2.61897e-11
-3.93764e-10
5.70379e-11
-1.94525e-10
7.06439e-11
8.72333e-11
6.33432e-11
3.20274e-10
4.30331e-11
4.39111e-10
3.01591e-11
4.03544e-10
2.88987e-11
3.3515e-10
1.15392e-10
3.01271e-11
1.69691e-11
4.1961e-11
5.73265e-11
5.87563e-11
1.36142e-10
6.97942e-11
3.2804e-10
5.99146e-11
5.74657e-10
4.0848e-11
6.85229e-10
1.35273e-11
5.93623e-10
-9.62122e-12
3.57893e-10
-2.64036e-11
9.43511e-11
-3.81699e-11
-1.64449e-10
-2.85422e-11
-3.8547e-10
-8.91639e-12
-5.02959e-10
1.13639e-11
-4.4925e-10
2.96637e-11
-2.28603e-10
3.82184e-11
7.2808e-11
3.48756e-11
3.21348e-10
2.64741e-11
4.49786e-10
2.16972e-11
4.14973e-10
2.04854e-11
3.42687e-10
1.15675e-10
1.05285e-11
2.48266e-11
1.69477e-11
7.06175e-11
1.68931e-11
1.41797e-10
2.62898e-11
3.49839e-10
1.93399e-11
5.91116e-10
1.65743e-11
6.98641e-10
2.12065e-12
5.86273e-10
2.25943e-12
3.4834e-10
-8.58379e-12
6.61902e-11
-1.50616e-11
-1.9541e-10
-9.24751e-12
-4.1444e-10
-2.94783e-12
-5.36163e-10
2.198e-12
-4.81463e-10
7.44787e-12
-2.50696e-10
1.07131e-11
6.41891e-11
1.11994e-11
3.23663e-10
1.03272e-11
4.57711e-10
9.52996e-12
4.21828e-10
8.57065e-12
3.45639e-10
1.16352e-10
-1.05271e-11
1.7005e-11
-1.69925e-11
5.73496e-11
-1.68821e-11
1.36135e-10
-2.61793e-11
3.2798e-10
-1.92189e-11
5.74635e-10
-1.65336e-11
6.85249e-10
-2.13825e-12
5.93699e-10
-2.32442e-12
3.57919e-10
8.56984e-12
9.43767e-11
1.50807e-11
-1.64445e-10
9.30269e-12
-3.85451e-10
3.07926e-12
-5.02892e-10
-2.04495e-12
-4.49201e-10
-7.31146e-12
-2.28596e-10
-1.05419e-11
7.27967e-11
-1.09619e-11
3.21328e-10
-1.00158e-11
4.49743e-10
-9.15548e-12
4.14921e-10
-8.14356e-12
3.42613e-10
1.15635e-10
-3.01383e-11
-2.77072e-12
-4.19836e-11
1.69941e-11
-5.87792e-11
1.01218e-10
-6.96983e-11
2.94198e-10
-5.98031e-11
5.46236e-10
-4.07657e-11
6.5146e-10
-1.35621e-11
5.84961e-10
9.60026e-12
3.76514e-10
2.63815e-11
1.35755e-10
3.81917e-11
-9.81599e-11
2.86371e-11
-3.09818e-10
9.02948e-12
-4.31512e-10
-1.12446e-11
-3.93714e-10
-2.95107e-11
-1.94504e-10
-3.8014e-11
8.72293e-11
-3.46259e-11
3.20237e-10
-2.61697e-11
4.39025e-10
-2.13371e-11
4.03447e-10
-2.00725e-11
3.35017e-10
1.15308e-10
-4.91651e-11
-3.57478e-11
-6.48237e-11
-3.03685e-11
-9.97403e-11
5.28394e-11
-9.93215e-11
2.69775e-10
-1.02039e-10
5.0462e-10
-5.31799e-11
6.35597e-10
-1.64395e-11
5.6356e-10
2.56908e-11
4.058e-10
5.6676e-11
1.92774e-10
6.62235e-11
-2.65627e-11
5.00177e-11
-2.1231e-10
1.36619e-11
-3.2405e-10
-2.60454e-11
-3.0619e-10
-5.6838e-11
-1.46716e-10
-7.04097e-11
9.82232e-11
-6.30861e-11
3.11746e-10
-4.2726e-11
4.22679e-10
-2.97944e-11
3.87984e-10
-2.84654e-11
3.22671e-10
1.09299e-10
-5.31506e-11
-5.93819e-11
-9.82932e-11
-9.94319e-11
-1.22373e-10
1.73672e-11
-1.37765e-10
2.22824e-10
-1.21655e-10
4.66348e-10
-7.23831e-11
6.24307e-10
1.09529e-11
5.72668e-10
4.31325e-11
4.23773e-10
6.66625e-11
2.42562e-10
8.22693e-11
5.65146e-11
5.60493e-11
-1.26316e-10
1.18293e-11
-2.37649e-10
-2.53605e-11
-2.28776e-10
-5.62215e-11
-9.34702e-11
-7.76748e-11
1.1732e-10
-7.72897e-11
3.02089e-10
-5.76574e-11
4.00419e-10
-4.03032e-11
3.6595e-10
-3.35983e-11
3.03705e-10
1.06324e-10
-6.6566e-11
-9.51681e-11
-9.88686e-11
-1.53625e-10
-1.42689e-10
-2.7427e-11
-1.32364e-10
1.37566e-10
-1.63877e-10
3.42602e-10
-3.82498e-11
4.23761e-10
3.23962e-11
5.21236e-10
9.63785e-11
4.26015e-10
1.22599e-10
2.64476e-10
1.19009e-10
1.07652e-10
8.5279e-11
-3.53076e-11
4.13645e-12
-1.29787e-10
-7.85736e-11
-1.34486e-10
-1.23834e-10
-4.29686e-11
-1.2874e-10
1.15312e-10
-1.07751e-10
2.69218e-10
-7.32308e-11
3.5799e-10
-4.79291e-11
3.33034e-10
-3.33491e-11
2.79665e-10
9.63231e-11
-7.89366e-11
-1.24237e-10
-9.69233e-11
-1.72334e-10
-1.82479e-10
-1.15672e-10
-1.7339e-10
1.95304e-10
-3.40501e-11
3.30008e-10
-4.09892e-11
5.73132e-10
3.04357e-11
5.05409e-10
7.12775e-11
3.99146e-10
1.06375e-10
2.65614e-10
9.82021e-11
1.31883e-10
7.02249e-11
8.11477e-12
1.25673e-11
-8.77113e-11
-5.02207e-11
-1.00057e-10
-9.24574e-11
-1.89093e-11
-1.09985e-10
1.23381e-10
-1.01802e-10
2.50672e-10
-7.9363e-11
3.232e-10
-5.50526e-11
2.97305e-10
-3.22064e-11
2.49933e-10
8.92767e-11
-4.35604e-11
-1.31517e-10
-1.46092e-10
-2.15424e-10
-9.04699e-11
-4.36385e-11
-1.59115e-10
2.34686e-11
-1.65918e-10
3.03773e-10
-1.41403e-11
3.11455e-10
8.64115e-11
3.72709e-10
1.70128e-10
3.22115e-10
2.02116e-10
2.4029e-10
1.65805e-10
1.37545e-10
9.32162e-11
4.63735e-11
-8.95342e-12
-1.93207e-11
-1.18807e-10
-4.09827e-11
-1.867e-10
5.06916e-12
-1.90408e-10
1.00506e-10
-1.58098e-10
2.01127e-10
-1.0957e-10
2.57942e-10
-7.007e-11
2.42608e-10
-3.36215e-11
2.05916e-10
7.2428e-11
-7.69792e-11
-6.78896e-11
-1.10147e-10
-1.63009e-10
-2.00077e-10
-5.76309e-11
-1.2959e-10
2.20231e-11
3.53449e-11
9.81507e-11
1.74127e-11
3.32258e-10
7.09586e-11
3.10648e-10
1.24115e-10
2.71307e-10
1.41753e-10
1.84873e-10
1.25877e-10
9.83799e-11
7.27061e-11
3.18952e-11
-2.03989e-12
-1.91442e-11
-8.24759e-11
-4.03775e-11
-1.43378e-10
-6.69454e-12
-1.69506e-10
7.43687e-11
-1.47251e-10
1.44627e-10
-1.06215e-10
1.89239e-10
-6.06901e-11
1.75319e-10
-1.66251e-11
1.50525e-10
5.44139e-11
-3.82105e-11
-2.51237e-11
-5.43215e-11
-9.21529e-11
-1.26247e-10
-6.90745e-11
-7.73405e-11
7.68737e-11
-9.75311e-11
1.2117e-10
4.15591e-11
1.28647e-10
1.41386e-10
1.35526e-10
2.12386e-10
1.30366e-10
2.17461e-10
9.75511e-11
1.68226e-10
8.20795e-11
7.44085e-11
4.8529e-11
-3.37856e-11
-2.19437e-11
-1.25284e-10
-1.12504e-11
-1.89461e-10
-6.10886e-13
-2.01411e-10
3.32219e-11
-1.81699e-10
7.85136e-11
-1.35719e-10
1.04807e-10
-9.16012e-11
1.03259e-10
-4.16507e-11
8.53975e-11
2.89905e-11
-3.82169e-11
-1.41615e-10
-8.55619e-11
-1.07355e-10
-1.89937e-11
6.47886e-11
1.34949e-10
1.71886e-10
1.71103e-10
1.40506e-10
6.45066e-11
-2.11634e-11
-1.08369e-10
-1.74986e-10
-2.0551e-10
-1.89792e-10
-1.38206e-10
-7.08876e-11
-4.2951e-12
)
;

boundaryField
{
    sides
    {
        type            calculated;
        value           uniform 0;
    }
    inlet
    {
        type            calculated;
        value           uniform 0;
    }
    outlet
    {
        type            calculated;
        value           nonuniform List<scalar> 
20
(
-1.86677e-11
2.08891e-11
1.5067e-12
1.83792e-11
2.73462e-11
2.86167e-11
3.86338e-11
2.96737e-11
2.26359e-11
7.80201e-12
-7.35654e-12
-2.21882e-11
-2.92119e-11
-3.82275e-11
-2.81498e-11
-2.70615e-11
-1.80164e-11
-1.33055e-12
-2.06906e-11
1.87391e-11
)
;
    }
    frontAndBack
    {
        type            empty;
        value           nonuniform 0();
    }
}


// ************************************************************************* //
