/*--------------------------------*- C++ -*----------------------------------*\
  =========                 |
  \\      /  F ield         | OpenFOAM: The Open Source CFD Toolbox
   \\    /   O peration     | Website:  https://openfoam.org
    \\  /    A nd           | Version:  7
     \\/     M anipulation  |
\*---------------------------------------------------------------------------*/
FoamFile
{
    version     2.0;
    format      ascii;
    class       volVectorField;
    location    "10";
    object      hU;
}
// * * * * * * * * * * * * * * * * * * * * * * * * * * * * * * * * * * * * * //

dimensions      [0 2 -1 0 0 0 0];

internalField   nonuniform List<vector> 
400
(
(0.000999998 -1.01093e-08 0)
(0.00100002 -2.50545e-08 0)
(0.00100001 -3.60987e-08 0)
(0.000999993 -4.55751e-08 0)
(0.000999989 -5.64724e-08 0)
(0.001 -6.97431e-08 0)
(0.00100001 -8.70875e-08 0)
(0.00100003 -1.03262e-07 0)
(0.00100005 -1.15361e-07 0)
(0.00100009 -1.25606e-07 0)
(0.00100011 -1.31714e-07 0)
(0.00100015 -1.36056e-07 0)
(0.00100016 -1.3555e-07 0)
(0.0010002 -1.42364e-07 0)
(0.00100021 -1.48745e-07 0)
(0.00100026 -1.75601e-07 0)
(0.00100026 -1.92062e-07 0)
(0.00100038 -2.41641e-07 0)
(0.00100038 -2.49923e-07 0)
(0.00100062 -3.40406e-07 0)
(0.000999998 5.1858e-09 0)
(0.00100002 2.58537e-08 0)
(0.00100002 4.40304e-08 0)
(0.00100001 5.59688e-08 0)
(0.00100001 5.94145e-08 0)
(0.00100001 5.63032e-08 0)
(0.00100002 5.39215e-08 0)
(0.00100004 5.24506e-08 0)
(0.00100007 5.51235e-08 0)
(0.0010001 6.0947e-08 0)
(0.00100014 7.05826e-08 0)
(0.00100017 7.80619e-08 0)
(0.00100018 8.88925e-08 0)
(0.00100021 9.29551e-08 0)
(0.00100022 1.02477e-07 0)
(0.00100025 9.03638e-08 0)
(0.00100027 9.17605e-08 0)
(0.00100035 4.58684e-08 0)
(0.00100037 4.53875e-08 0)
(0.00100051 -6.50533e-08 0)
(0.000999999 -2.40288e-09 0)
(0.00100001 7.09012e-09 0)
(0.00100001 1.30001e-08 0)
(0.000999989 7.64748e-09 0)
(0.000999983 -7.76753e-09 0)
(0.000999997 -3.33898e-08 0)
(0.00100001 -6.38855e-08 0)
(0.00100002 -9.16713e-08 0)
(0.00100004 -1.10657e-07 0)
(0.00100007 -1.21595e-07 0)
(0.00100009 -1.23408e-07 0)
(0.00100012 -1.22409e-07 0)
(0.00100014 -1.16809e-07 0)
(0.00100017 -1.22225e-07 0)
(0.00100019 -1.31252e-07 0)
(0.00100023 -1.70041e-07 0)
(0.00100024 -2.02555e-07 0)
(0.00100032 -2.80021e-07 0)
(0.00100033 -3.10414e-07 0)
(0.00100048 -4.35266e-07 0)
(0.000999999 2.63699e-09 0)
(0.00100001 2.50038e-08 0)
(0.00100002 4.64765e-08 0)
(0.00100001 5.61578e-08 0)
(0.00100001 5.0442e-08 0)
(0.00100001 3.00529e-08 0)
(0.00100002 2.9485e-09 0)
(0.00100003 -2.06872e-08 0)
(0.00100006 -3.24577e-08 0)
(0.00100009 -3.36677e-08 0)
(0.00100012 -2.2846e-08 0)
(0.00100015 -7.86941e-09 0)
(0.00100016 1.29348e-08 0)
(0.00100018 1.97454e-08 0)
(0.00100018 2.12915e-08 0)
(0.00100021 -1.45613e-08 0)
(0.00100022 -4.50872e-08 0)
(0.00100028 -1.30019e-07 0)
(0.0010003 -1.61762e-07 0)
(0.00100039 -3.0225e-07 0)
(0.001 5.88681e-09 0)
(0.00100001 3.11599e-08 0)
(0.00100001 5.1218e-08 0)
(0.000999997 5.5476e-08 0)
(0.000999994 3.73618e-08 0)
(0.001 6.45295e-10 0)
(0.00100002 -4.15816e-08 0)
(0.00100003 -7.94047e-08 0)
(0.00100004 -1.04633e-07 0)
(0.00100006 -1.17324e-07 0)
(0.00100008 -1.16428e-07 0)
(0.0010001 -1.09106e-07 0)
(0.00100012 -9.57564e-08 0)
(0.00100014 -9.62317e-08 0)
(0.00100015 -1.06424e-07 0)
(0.00100018 -1.54364e-07 0)
(0.00100019 -2.01237e-07 0)
(0.00100024 -2.9688e-07 0)
(0.00100025 -3.41979e-07 0)
(0.00100034 -4.82825e-07 0)
(0.001 9.69444e-09 0)
(0.00100001 3.85231e-08 0)
(0.00100001 6.35642e-08 0)
(0.000999999 7.27353e-08 0)
(0.000999998 5.86075e-08 0)
(0.001 2.1453e-08 0)
(0.00100001 -2.78121e-08 0)
(0.00100002 -7.04747e-08 0)
(0.00100004 -9.57396e-08 0)
(0.00100006 -1.04341e-07 0)
(0.00100009 -9.49292e-08 0)
(0.00100011 -7.52402e-08 0)
(0.00100012 -4.84739e-08 0)
(0.00100013 -3.92878e-08 0)
(0.00100013 -4.47334e-08 0)
(0.00100015 -9.4809e-08 0)
(0.00100016 -1.4631e-07 0)
(0.00100019 -2.50291e-07 0)
(0.00100021 -2.99369e-07 0)
(0.00100027 -4.4885e-07 0)
(0.001 1.39574e-08 0)
(0.00100001 4.65121e-08 0)
(0.00100001 7.40472e-08 0)
(0.000999999 8.49526e-08 0)
(0.000999998 6.77142e-08 0)
(0.001 2.29141e-08 0)
(0.00100001 -3.13495e-08 0)
(0.00100002 -7.95912e-08 0)
(0.00100003 -1.11934e-07 0)
(0.00100005 -1.28139e-07 0)
(0.00100006 -1.25885e-07 0)
(0.00100007 -1.12396e-07 0)
(0.00100008 -9.12094e-08 0)
(0.00100009 -8.65238e-08 0)
(0.0010001 -9.72348e-08 0)
(0.00100012 -1.51872e-07 0)
(0.00100012 -2.09353e-07 0)
(0.00100015 -3.16708e-07 0)
(0.00100016 -3.70225e-07 0)
(0.00100021 -5.19077e-07 0)
(0.001 1.79036e-08 0)
(0.001 5.29113e-08 0)
(0.001 8.20324e-08 0)
(0.000999999 9.45127e-08 0)
(0.000999998 7.69839e-08 0)
(0.001 2.88878e-08 0)
(0.00100001 -3.20135e-08 0)
(0.00100001 -8.62276e-08 0)
(0.00100002 -1.22334e-07 0)
(0.00100004 -1.39606e-07 0)
(0.00100005 -1.34861e-07 0)
(0.00100006 -1.15207e-07 0)
(0.00100007 -8.64343e-08 0)
(0.00100007 -7.62531e-08 0)
(0.00100007 -8.5724e-08 0)
(0.00100008 -1.43113e-07 0)
(0.00100009 -2.05162e-07 0)
(0.00100011 -3.17401e-07 0)
(0.00100012 -3.73903e-07 0)
(0.00100015 -5.25671e-07 0)
(0.001 2.09113e-08 0)
(0.001 5.75121e-08 0)
(0.001 8.78258e-08 0)
(0.000999999 1.0157e-07 0)
(0.000999999 8.37036e-08 0)
(0.001 3.28528e-08 0)
(0.001 -3.13554e-08 0)
(0.00100001 -8.83005e-08 0)
(0.00100002 -1.26578e-07 0)
(0.00100002 -1.45847e-07 0)
(0.00100003 -1.42882e-07 0)
(0.00100003 -1.24762e-07 0)
(0.00100004 -9.76446e-08 0)
(0.00100004 -8.89625e-08 0)
(0.00100004 -1.00127e-07 0)
(0.00100005 -1.59237e-07 0)
(0.00100005 -2.23426e-07 0)
(0.00100007 -3.37127e-07 0)
(0.00100007 -3.94822e-07 0)
(0.00100009 -5.46778e-07 0)
(0.001 2.25342e-08 0)
(0.001 5.99188e-08 0)
(0.001 9.07248e-08 0)
(0.001 1.05398e-07 0)
(0.001 8.75123e-08 0)
(0.001 3.55821e-08 0)
(0.001 -3.03996e-08 0)
(0.001 -8.93301e-08 0)
(0.00100001 -1.29883e-07 0)
(0.00100001 -1.51062e-07 0)
(0.00100001 -1.48879e-07 0)
(0.00100001 -1.29987e-07 0)
(0.00100001 -1.01061e-07 0)
(0.00100001 -9.08056e-08 0)
(0.00100001 -1.01625e-07 0)
(0.00100002 -1.61432e-07 0)
(0.00100002 -2.2695e-07 0)
(0.00100002 -3.41865e-07 0)
(0.00100002 -4.00464e-07 0)
(0.00100003 -5.52752e-07 0)
(0.001 2.25325e-08 0)
(0.000999999 5.99136e-08 0)
(0.000999999 9.07194e-08 0)
(0.001 1.05396e-07 0)
(0.001 8.75131e-08 0)
(0.000999999 3.55842e-08 0)
(0.000999998 -3.0399e-08 0)
(0.000999997 -8.93308e-08 0)
(0.000999995 -1.29883e-07 0)
(0.000999993 -1.5106e-07 0)
(0.00099999 -1.48877e-07 0)
(0.000999988 -1.29987e-07 0)
(0.000999987 -1.01062e-07 0)
(0.000999986 -9.08063e-08 0)
(0.000999985 -1.01627e-07 0)
(0.000999983 -1.61433e-07 0)
(0.000999982 -2.26952e-07 0)
(0.000999978 -3.41863e-07 0)
(0.000999977 -4.00464e-07 0)
(0.00099997 -5.52744e-07 0)
(0.000999999 2.09079e-08 0)
(0.000999998 5.74979e-08 0)
(0.000999998 8.78103e-08 0)
(0.001 1.01564e-07 0)
(0.001 8.37075e-08 0)
(0.000999999 3.28594e-08 0)
(0.000999995 -3.13541e-08 0)
(0.000999991 -8.83049e-08 0)
(0.000999985 -1.26583e-07 0)
(0.000999977 -1.45848e-07 0)
(0.000999971 -1.42879e-07 0)
(0.000999965 -1.24757e-07 0)
(0.000999962 -9.7642e-08 0)
(0.000999958 -8.89599e-08 0)
(0.000999956 -1.00128e-07 0)
(0.00099995 -1.59232e-07 0)
(0.000999947 -2.23421e-07 0)
(0.000999934 -3.37105e-07 0)
(0.000999931 -3.94798e-07 0)
(0.00099991 -5.4672e-07 0)
(0.000999999 1.79002e-08 0)
(0.000999996 5.28915e-08 0)
(0.000999997 8.2009e-08 0)
(0.001 9.45043e-08 0)
(0.001 7.69919e-08 0)
(0.000999997 2.88995e-08 0)
(0.000999992 -3.20098e-08 0)
(0.000999986 -8.62327e-08 0)
(0.000999977 -1.22343e-07 0)
(0.000999964 -1.39613e-07 0)
(0.000999952 -1.34866e-07 0)
(0.000999942 -1.15211e-07 0)
(0.000999935 -8.64401e-08 0)
(0.000999928 -7.62579e-08 0)
(0.000999926 -8.57345e-08 0)
(0.000999917 -1.4312e-07 0)
(0.000999911 -2.05177e-07 0)
(0.000999891 -3.174e-07 0)
(0.000999884 -3.7391e-07 0)
(0.000999851 -5.25639e-07 0)
(0.000999999 1.39536e-08 0)
(0.000999994 4.64904e-08 0)
(0.000999995 7.40234e-08 0)
(0.001 8.49435e-08 0)
(0.001 6.77237e-08 0)
(0.000999996 2.29275e-08 0)
(0.000999989 -3.13474e-08 0)
(0.00099998 -7.95979e-08 0)
(0.000999967 -1.1194e-07 0)
(0.000999951 -1.28136e-07 0)
(0.000999938 -1.25877e-07 0)
(0.000999925 -1.12387e-07 0)
(0.000999916 -9.12071e-08 0)
(0.000999905 -8.65207e-08 0)
(0.000999899 -9.7238e-08 0)
(0.000999883 -1.51858e-07 0)
(0.000999875 -2.09336e-07 0)
(0.000999845 -3.16644e-07 0)
(0.000999838 -3.70157e-07 0)
(0.000999788 -5.18925e-07 0)
(0.000999999 9.69221e-09 0)
(0.000999992 3.85018e-08 0)
(0.000999993 6.35404e-08 0)
(0.001 7.2726e-08 0)
(0.001 5.86168e-08 0)
(0.000999996 2.14634e-08 0)
(0.00099999 -2.78203e-08 0)
(0.000999978 -7.0501e-08 0)
(0.000999959 -9.57705e-08 0)
(0.000999936 -1.04364e-07 0)
(0.000999914 -9.49448e-08 0)
(0.000999895 -7.52495e-08 0)
(0.000999883 -4.84853e-08 0)
(0.000999873 -3.92959e-08 0)
(0.000999869 -4.47505e-08 0)
(0.000999853 -9.48214e-08 0)
(0.000999843 -1.46339e-07 0)
(0.000999806 -2.50301e-07 0)
(0.000999793 -2.99394e-07 0)
(0.000999731 -4.48825e-07 0)
(0.001 5.88762e-09 0)
(0.000999989 3.11414e-08 0)
(0.000999991 5.11936e-08 0)
(0.001 5.54679e-08 0)
(0.00100001 3.73742e-08 0)
(0.000999996 6.6142e-10 0)
(0.000999984 -4.15765e-08 0)
(0.000999975 -7.94092e-08 0)
(0.000999959 -1.0464e-07 0)
(0.000999937 -1.17324e-07 0)
(0.000999917 -1.16426e-07 0)
(0.000999898 -1.09102e-07 0)
(0.000999883 -9.57653e-08 0)
(0.000999862 -9.62364e-08 0)
(0.000999849 -1.06441e-07 0)
(0.000999822 -1.54353e-07 0)
(0.000999809 -2.01234e-07 0)
(0.000999758 -2.96806e-07 0)
(0.000999747 -3.41912e-07 0)
(0.000999658 -4.82624e-07 0)
(0.001 2.6386e-09 0)
(0.000999985 2.49885e-08 0)
(0.000999984 4.64558e-08 0)
(0.000999994 5.61488e-08 0)
(0.000999994 5.0443e-08 0)
(0.000999991 3.0051e-08 0)
(0.000999985 2.92919e-09 0)
(0.000999968 -2.07209e-08 0)
(0.000999942 -3.24927e-08 0)
(0.00099991 -3.36912e-08 0)
(0.000999881 -2.28606e-08 0)
(0.000999854 -7.87516e-09 0)
(0.000999838 1.29263e-08 0)
(0.000999822 1.97418e-08 0)
(0.000999816 2.12781e-08 0)
(0.000999792 -1.45639e-08 0)
(0.000999779 -4.51044e-08 0)
(0.000999724 -1.3001e-07 0)
(0.000999705 -1.61767e-07 0)
(0.00099961 -3.02202e-07 0)
(0.001 -2.39747e-09 0)
(0.000999985 7.08493e-09 0)
(0.000999991 1.29889e-08 0)
(0.00100001 7.64377e-09 0)
(0.00100002 -7.76455e-09 0)
(0.001 -3.33846e-08 0)
(0.000999988 -6.38884e-08 0)
(0.000999976 -9.16837e-08 0)
(0.000999957 -1.10677e-07 0)
(0.00099993 -1.21611e-07 0)
(0.000999905 -1.23427e-07 0)
(0.000999879 -1.22425e-07 0)
(0.000999858 -1.16838e-07 0)
(0.000999829 -1.22243e-07 0)
(0.000999814 -1.31288e-07 0)
(0.000999774 -1.70048e-07 0)
(0.000999759 -2.02594e-07 0)
(0.000999681 -2.79993e-07 0)
(0.000999668 -3.10423e-07 0)
(0.000999523 -4.35139e-07 0)
(0.001 5.18686e-09 0)
(0.00099998 2.58473e-08 0)
(0.000999976 4.40201e-08 0)
(0.000999988 5.5962e-08 0)
(0.000999991 5.94108e-08 0)
(0.000999986 5.6296e-08 0)
(0.00099998 5.39055e-08 0)
(0.000999963 5.24335e-08 0)
(0.000999933 5.51122e-08 0)
(0.000999896 6.09483e-08 0)
(0.000999864 7.05904e-08 0)
(0.000999834 7.8079e-08 0)
(0.000999816 8.89045e-08 0)
(0.000999793 9.29709e-08 0)
(0.000999783 1.02477e-07 0)
(0.000999747 9.03813e-08 0)
(0.000999731 9.17646e-08 0)
(0.000999652 4.59186e-08 0)
(0.000999632 4.54257e-08 0)
(0.000999489 -6.49455e-08 0)
(0.001 -1.01105e-08 0)
(0.000999982 -2.50554e-08 0)
(0.000999987 -3.61004e-08 0)
(0.00100001 -4.55795e-08 0)
(0.00100001 -5.64801e-08 0)
(0.001 -6.97561e-08 0)
(0.000999989 -8.71128e-08 0)
(0.000999972 -1.03298e-07 0)
(0.000999948 -1.15405e-07 0)
(0.000999915 -1.25653e-07 0)
(0.000999887 -1.31768e-07 0)
(0.000999855 -1.36108e-07 0)
(0.000999835 -1.35606e-07 0)
(0.0009998 -1.4241e-07 0)
(0.000999792 -1.48799e-07 0)
(0.00099974 -1.75651e-07 0)
(0.000999736 -1.92141e-07 0)
(0.00099962 -2.4172e-07 0)
(0.000999619 -2.5003e-07 0)
(0.000999377 -3.40509e-07 0)
)
;

boundaryField
{
    sides
    {
        type            slip;
    }
    inlet
    {
        type            fixedValue;
        value           uniform (0.001 0 0);
    }
    outlet
    {
        type            zeroGradient;
    }
    frontAndBack
    {
        type            empty;
    }
}


// ************************************************************************* //
