/*--------------------------------*- C++ -*----------------------------------*\
  =========                 |
  \\      /  F ield         | OpenFOAM: The Open Source CFD Toolbox
   \\    /   O peration     | Website:  https://openfoam.org
    \\  /    A nd           | Version:  7
     \\/     M anipulation  |
\*---------------------------------------------------------------------------*/
FoamFile
{
    version     2.0;
    format      ascii;
    class       surfaceScalarField;
    location    "10";
    object      phi;
}
// * * * * * * * * * * * * * * * * * * * * * * * * * * * * * * * * * * * * * //

dimensions      [0 4 -1 0 0 0 0];

internalField   nonuniform List<scalar> 
760
(
5.00004e-06
9.00997e-12
5.00004e-06
3.3264e-11
5.00001e-06
6.0532e-11
4.99998e-06
6.75833e-11
4.99998e-06
3.62923e-11
5.00001e-06
-2.39631e-12
5.00009e-06
-4.27304e-11
5.00021e-06
-7.57834e-11
5.00034e-06
-9.43902e-11
5.00049e-06
-1.03152e-10
5.00064e-06
-9.66971e-11
5.00078e-06
-9.15272e-11
5.0009e-06
-7.04627e-11
5.00102e-06
-7.62555e-11
5.00114e-06
-7.04348e-11
5.00132e-06
-1.48696e-10
5.00154e-06
-1.81512e-10
5.00196e-06
-3.94159e-10
5.00239e-06
-4.23921e-10
-9.3648e-10
5.00006e-06
-3.68659e-12
5.00008e-06
5.20915e-11
5.00009e-06
1.02628e-10
5.00008e-06
1.15758e-10
5.00006e-06
9.01761e-11
5.00006e-06
3.37877e-11
5.00014e-06
-7.1947e-11
5.00027e-06
-1.61223e-10
5.00043e-06
-2.09794e-10
5.00059e-06
-2.24741e-10
5.00074e-06
-2.01811e-10
5.00087e-06
-1.75512e-10
5.00097e-06
-1.2256e-10
5.00107e-06
-1.25191e-10
5.00116e-06
-1.23162e-10
5.00132e-06
-2.7155e-10
5.00152e-06
-3.56903e-10
5.00184e-06
-6.88139e-10
5.00219e-06
-7.60433e-10
-1.32417e-09
5.00003e-06
7.74e-12
5.00002e-06
1.00641e-10
4.99999e-06
1.83382e-10
4.99995e-06
1.92981e-10
4.99995e-06
1.35372e-10
5.00001e-06
8.75192e-12
5.00008e-06
-1.06635e-10
5.00017e-06
-2.21021e-10
5.00028e-06
-2.89857e-10
5.00041e-06
-3.17514e-10
5.00054e-06
-2.96589e-10
5.00066e-06
-2.60894e-10
5.00078e-06
-2.03745e-10
5.00089e-06
-2.02328e-10
5.00102e-06
-2.19925e-10
5.00117e-06
-3.93134e-10
5.00138e-06
-5.43044e-10
5.00165e-06
-9.34268e-10
5.00199e-06
-1.09077e-09
-1.78523e-09
5.00003e-06
1.94066e-11
5.00005e-06
1.3091e-10
5.00005e-06
2.21957e-10
5.00006e-06
2.57618e-10
5.00004e-06
2.03184e-10
5.00004e-06
6.53756e-11
5.00012e-06
-1.34727e-10
5.00023e-06
-3.0045e-10
5.00037e-06
-3.98302e-10
5.00052e-06
-4.34632e-10
5.00065e-06
-4.04293e-10
5.00077e-06
-3.45e-10
5.00085e-06
-2.51746e-10
5.00091e-06
-2.33522e-10
5.00097e-06
-2.57293e-10
5.00108e-06
-4.78882e-10
5.00124e-06
-6.80433e-10
5.00146e-06
-1.14433e-09
5.00172e-06
-1.33776e-09
-2.01164e-09
5.00002e-06
3.76178e-11
5.00002e-06
1.73935e-10
5.00001e-06
2.93784e-10
5e-06
3.29895e-10
5e-06
2.45949e-10
5.00005e-06
6.26312e-11
5.0001e-06
-1.46268e-10
5.00017e-06
-3.40235e-10
5.00026e-06
-4.61695e-10
5.00036e-06
-5.11398e-10
5.00046e-06
-4.84432e-10
5.00055e-06
-4.18777e-10
5.00063e-06
-3.23588e-10
5.00072e-06
-3.03593e-10
5.00082e-06
-3.40852e-10
5.00093e-06
-5.78274e-10
5.00108e-06
-8.19073e-10
5.00125e-06
-1.31121e-09
5.00146e-06
-1.54443e-09
-2.29381e-09
5.00001e-06
6.01971e-11
5.00001e-06
2.14881e-10
5.00001e-06
3.46342e-10
5.00001e-06
3.93619e-10
5.00001e-06
3.12252e-10
5.00003e-06
1.04991e-10
5.00008e-06
-1.56681e-10
5.00016e-06
-3.86617e-10
5.00026e-06
-5.35446e-10
5.00037e-06
-6.02921e-10
5.00047e-06
-5.77481e-10
5.00055e-06
-4.95035e-10
5.00061e-06
-3.73108e-10
5.00065e-06
-3.38812e-10
5.00069e-06
-3.8192e-10
5.00077e-06
-6.48945e-10
5.00087e-06
-9.24513e-10
5.00102e-06
-1.45659e-09
5.00119e-06
-1.71524e-09
-2.44354e-09
5.00001e-06
8.10119e-11
5.00001e-06
2.50521e-10
5.00001e-06
3.91144e-10
5.00001e-06
4.4934e-10
5.00001e-06
3.62097e-10
5.00003e-06
1.3053e-10
5.00008e-06
-1.59945e-10
5.00014e-06
-4.15519e-10
5.00021e-06
-5.83424e-10
5.00027e-06
-6.62017e-10
5.00034e-06
-6.39526e-10
5.0004e-06
-5.53733e-10
5.00044e-06
-4.28119e-10
5.00049e-06
-3.90059e-10
5.00054e-06
-4.394e-10
5.00061e-06
-7.18329e-10
5.0007e-06
-1.01706e-09
5.0008e-06
-1.56575e-09
5.00092e-06
-1.83913e-09
-2.59922e-09
5e-06
9.91071e-11
5e-06
2.7822e-10
5.00001e-06
4.2727e-10
5e-06
4.92166e-10
5.00001e-06
4.03524e-10
5.00002e-06
1.5553e-10
5.00005e-06
-1.54849e-10
5.0001e-06
-4.32782e-10
5.00015e-06
-6.19777e-10
5.00021e-06
-7.13923e-10
5.00026e-06
-6.9881e-10
5.00031e-06
-6.08254e-10
5.00034e-06
-4.70673e-10
5.00036e-06
-4.24686e-10
5.00039e-06
-4.76823e-10
5.00043e-06
-7.68244e-10
5.00049e-06
-1.08338e-09
5.00057e-06
-1.64747e-09
5.00066e-06
-1.93257e-09
-2.68716e-09
5e-06
1.10876e-10
5e-06
2.96426e-10
5e-06
4.50137e-10
5e-06
5.2106e-10
5e-06
4.31392e-10
5.00001e-06
1.73551e-10
5.00003e-06
-1.50936e-10
5.00006e-06
-4.42433e-10
5.0001e-06
-6.4214e-10
5.00013e-06
-7.45224e-10
5.00016e-06
-7.3297e-10
5.00018e-06
-6.39772e-10
5.0002e-06
-4.98374e-10
5.00022e-06
-4.50008e-10
5.00023e-06
-5.04655e-10
5.00026e-06
-8.01965e-10
5.0003e-06
-1.12604e-09
5.00034e-06
-1.69709e-09
5.00039e-06
-1.9868e-09
-2.74699e-09
5e-06
1.15164e-10
5e-06
3.02525e-10
5e-06
4.57226e-10
5e-06
5.3132e-10
5e-06
4.41458e-10
5e-06
1.80354e-10
5.00001e-06
-1.4956e-10
5.00002e-06
-4.45287e-10
5.00003e-06
-6.49287e-10
5.00004e-06
-7.55448e-10
5.00005e-06
-7.45125e-10
5.00006e-06
-6.52485e-10
5.00007e-06
-5.10015e-10
5.00007e-06
-4.60006e-10
5.00008e-06
-5.14358e-10
5.00009e-06
-8.12974e-10
5.0001e-06
-1.13971e-09
5.00011e-06
-1.7133e-09
5.00013e-06
-2.00526e-09
-2.7651e-09
5e-06
1.10859e-10
5e-06
2.96374e-10
5e-06
4.50081e-10
5e-06
5.21034e-10
5e-06
4.31402e-10
5e-06
1.73573e-10
4.99999e-06
-1.50926e-10
4.99998e-06
-4.42442e-10
4.99997e-06
-6.42151e-10
4.99996e-06
-7.45225e-10
4.99995e-06
-7.32964e-10
4.99994e-06
-6.39759e-10
4.99993e-06
-4.98372e-10
4.99993e-06
-4.50007e-10
4.99992e-06
-5.04665e-10
4.99991e-06
-8.01961e-10
4.9999e-06
-1.12604e-09
4.99989e-06
-1.69705e-09
4.99987e-06
-1.98676e-09
-2.74685e-09
5e-06
9.90886e-11
5e-06
2.78134e-10
5e-06
4.27174e-10
5e-06
4.92132e-10
5e-06
4.0355e-10
4.99999e-06
1.55574e-10
4.99997e-06
-1.5484e-10
4.99994e-06
-4.32802e-10
4.9999e-06
-6.19804e-10
4.99987e-06
-7.13929e-10
4.99984e-06
-6.98803e-10
4.99982e-06
-6.08242e-10
4.9998e-06
-4.70677e-10
4.99978e-06
-4.24686e-10
4.99977e-06
-4.76842e-10
4.99974e-06
-7.68234e-10
4.9997e-06
-1.08339e-09
4.99966e-06
-1.64738e-09
4.99961e-06
-1.93249e-09
-2.68691e-09
5e-06
8.09914e-11
5e-06
2.50404e-10
4.99999e-06
3.91021e-10
5e-06
4.49308e-10
4.99999e-06
3.62147e-10
4.99998e-06
1.30593e-10
4.99995e-06
-1.59936e-10
4.9999e-06
-4.15561e-10
4.99985e-06
-5.83479e-10
4.99979e-06
-6.62042e-10
4.99974e-06
-6.39529e-10
4.99969e-06
-5.53724e-10
4.99966e-06
-4.28131e-10
4.99964e-06
-3.90066e-10
4.99961e-06
-4.39439e-10
4.99957e-06
-7.18325e-10
4.99951e-06
-1.01707e-09
4.99943e-06
-1.56563e-09
4.99934e-06
-1.83903e-09
-2.59879e-09
4.99999e-06
6.01798e-11
4.99999e-06
2.14755e-10
4.99999e-06
3.46214e-10
4.99999e-06
3.93592e-10
4.99999e-06
3.12305e-10
4.99997e-06
1.05057e-10
4.99992e-06
-1.56677e-10
4.99986e-06
-3.86677e-10
4.99979e-06
-5.35519e-10
4.99973e-06
-6.02957e-10
4.99966e-06
-5.77492e-10
4.9996e-06
-4.9503e-10
4.99956e-06
-3.73128e-10
4.99951e-06
-3.38822e-10
4.99946e-06
-3.8197e-10
4.99939e-06
-6.48935e-10
4.9993e-06
-9.24532e-10
4.9992e-06
-1.45644e-09
4.99908e-06
-1.71511e-09
-2.44307e-09
4.99999e-06
3.76121e-11
4.99999e-06
1.73835e-10
4.99999e-06
2.93659e-10
4.99999e-06
3.29859e-10
4.99999e-06
2.46003e-10
4.99997e-06
6.27062e-11
4.99992e-06
-1.46285e-10
4.99984e-06
-3.40325e-10
4.99974e-06
-4.61799e-10
4.99963e-06
-5.11462e-10
4.99953e-06
-4.84472e-10
4.99945e-06
-4.18797e-10
4.99939e-06
-3.2364e-10
4.99935e-06
-3.03626e-10
4.99931e-06
-3.40934e-10
4.99923e-06
-5.78276e-10
4.99913e-06
-8.19126e-10
4.99898e-06
-1.31104e-09
4.99881e-06
-1.54432e-09
-2.29324e-09
4.99998e-06
1.94162e-11
4.99998e-06
1.30833e-10
4.99999e-06
2.21856e-10
5e-06
2.57581e-10
5e-06
2.03212e-10
4.99995e-06
6.53847e-11
4.9999e-06
-1.34755e-10
4.99983e-06
-3.00539e-10
4.99974e-06
-3.98402e-10
4.99964e-06
-4.34685e-10
4.99954e-06
-4.04318e-10
4.99945e-06
-3.44998e-10
4.99936e-06
-2.51786e-10
4.99928e-06
-2.33539e-10
4.99918e-06
-2.5737e-10
4.99907e-06
-4.78866e-10
4.99892e-06
-6.80483e-10
4.99875e-06
-1.14414e-09
4.99854e-06
-1.33763e-09
-2.01104e-09
4.99997e-06
7.75337e-12
4.99995e-06
1.00577e-10
4.99995e-06
1.83285e-10
4.99994e-06
1.92939e-10
4.99996e-06
1.35382e-10
4.99996e-06
8.75092e-12
4.99988e-06
-1.06695e-10
4.99977e-06
-2.21137e-10
4.99963e-06
-2.8999e-10
4.99948e-06
-3.1761e-10
4.99935e-06
-2.96672e-10
4.99923e-06
-2.6095e-10
4.99915e-06
-2.03834e-10
4.99909e-06
-2.02381e-10
4.99903e-06
-2.2004e-10
4.99892e-06
-3.93151e-10
4.99876e-06
-5.43161e-10
4.99854e-06
-9.34141e-10
4.99828e-06
-1.09077e-09
-1.78474e-09
4.99997e-06
-3.66565e-12
4.99998e-06
5.20724e-11
5.00001e-06
1.02586e-10
5.00005e-06
1.15738e-10
5.00005e-06
9.01553e-11
4.99999e-06
3.3788e-11
4.99992e-06
-7.19942e-11
4.99983e-06
-1.61296e-10
4.99972e-06
-2.09872e-10
4.99959e-06
-2.24773e-10
4.99946e-06
-2.01833e-10
4.99934e-06
-1.75498e-10
4.99922e-06
-1.22605e-10
4.99911e-06
-1.25189e-10
4.99898e-06
-1.23267e-10
4.99883e-06
-2.71518e-10
4.99862e-06
-3.57002e-10
4.99835e-06
-6.8795e-10
4.99801e-06
-7.60374e-10
-1.32362e-09
4.99994e-06
9.00438e-12
4.99992e-06
3.32302e-11
4.99991e-06
6.0487e-11
4.99992e-06
6.75413e-11
4.99994e-06
3.62595e-11
4.99994e-06
-2.4482e-12
4.99986e-06
-4.28063e-11
4.99973e-06
-7.58895e-11
4.99957e-06
-9.45058e-11
4.99941e-06
-1.03257e-10
4.99926e-06
-9.67914e-11
4.99913e-06
-9.16058e-11
4.99903e-06
-7.05505e-11
4.99894e-06
-7.63193e-11
4.99884e-06
-7.05442e-11
4.99868e-06
-1.48771e-10
4.99848e-06
-1.81678e-10
4.99816e-06
-3.94232e-10
4.99781e-06
-4.24088e-10
-9.36458e-10
4.99996e-06
4.99996e-06
4.99999e-06
5.00002e-06
5.00002e-06
4.99999e-06
4.99991e-06
4.99979e-06
4.99966e-06
4.99951e-06
4.99936e-06
4.99922e-06
4.9991e-06
4.99898e-06
4.99886e-06
4.99868e-06
4.99846e-06
4.99804e-06
4.9976e-06
)
;

boundaryField
{
    sides
    {
        type            calculated;
        value           uniform 0;
    }
    inlet
    {
        type            calculated;
        value           nonuniform List<scalar> 
20
(
-5e-06
-5e-06
-5e-06
-5e-06
-5e-06
-5e-06
-5e-06
-5e-06
-5e-06
-5e-06
-5e-06
-5e-06
-5e-06
-5e-06
-5e-06
-5e-06
-5e-06
-5e-06
-5e-06
-5e-06
)
;
    }
    outlet
    {
        type            calculated;
        value           nonuniform List<scalar> 
20
(
5.00334e-06
5.00258e-06
5.00245e-06
5.00195e-06
5.00175e-06
5.00134e-06
5.00108e-06
5.00075e-06
5.00045e-06
5.00015e-06
4.99985e-06
4.99955e-06
4.99925e-06
4.99892e-06
4.99866e-06
4.99825e-06
4.99806e-06
4.99754e-06
4.99742e-06
4.99666e-06
)
;
    }
    frontAndBack
    {
        type            empty;
        value           nonuniform 0();
    }
}


// ************************************************************************* //
