/*--------------------------------*- C++ -*----------------------------------*\
  =========                 |
  \\      /  F ield         | OpenFOAM: The Open Source CFD Toolbox
   \\    /   O peration     | Website:  https://openfoam.org
    \\  /    A nd           | Version:  7
     \\/     M anipulation  |
\*---------------------------------------------------------------------------*/
FoamFile
{
    version     2.0;
    format      ascii;
    class       volVectorField;
    location    "10";
    object      U;
}
// * * * * * * * * * * * * * * * * * * * * * * * * * * * * * * * * * * * * * //

dimensions      [0 1 -1 0 0 0 0];

internalField   nonuniform List<vector> 
400
(
(0.0999909 -1.01084e-06 0)
(0.0999931 -2.50523e-06 0)
(0.0999928 -3.60957e-06 0)
(0.0999909 -4.55712e-06 0)
(0.0999905 -5.64677e-06 0)
(0.0999918 -6.97375e-06 0)
(0.0999932 -8.70806e-06 0)
(0.0999949 -1.03254e-05 0)
(0.0999975 -1.15352e-05 0)
(0.100001 -1.25596e-05 0)
(0.100004 -1.31705e-05 0)
(0.100008 -1.36047e-05 0)
(0.10001 -1.35541e-05 0)
(0.100014 -1.42356e-05 0)
(0.100015 -1.48737e-05 0)
(0.100021 -1.75592e-05 0)
(0.100022 -1.92054e-05 0)
(0.100035 -2.41633e-05 0)
(0.100036 -2.49918e-05 0)
(0.100061 -3.40403e-05 0)
(0.0999921 5.1854e-07 0)
(0.0999946 2.58518e-06 0)
(0.0999952 4.40272e-06 0)
(0.099994 5.59648e-06 0)
(0.099994 5.94104e-06 0)
(0.0999947 5.62994e-06 0)
(0.0999954 5.3918e-06 0)
(0.0999973 5.24472e-06 0)
(0.1 5.51201e-06 0)
(0.100004 6.09434e-06 0)
(0.100008 7.05786e-06 0)
(0.100011 7.80577e-06 0)
(0.100013 8.8888e-06 0)
(0.100016 9.29508e-06 0)
(0.100018 1.02473e-05 0)
(0.100022 9.03605e-06 0)
(0.100024 9.17578e-06 0)
(0.100033 4.58674e-06 0)
(0.100036 4.53869e-06 0)
(0.100051 -6.5053e-06 0)
(0.0999927 -2.40271e-07 0)
(0.0999944 7.08962e-07 0)
(0.0999941 1.29992e-06 0)
(0.0999922 7.64696e-07 0)
(0.0999918 -7.76703e-07 0)
(0.0999934 -3.33877e-06 0)
(0.099995 -6.38816e-06 0)
(0.0999964 -9.16659e-06 0)
(0.0999985 -1.10651e-05 0)
(0.100001 -1.21589e-05 0)
(0.100004 -1.23401e-05 0)
(0.100007 -1.22402e-05 0)
(0.100009 -1.16803e-05 0)
(0.100013 -1.2222e-05 0)
(0.100015 -1.31247e-05 0)
(0.100019 -1.70035e-05 0)
(0.100021 -2.02549e-05 0)
(0.10003 -2.80015e-05 0)
(0.100032 -3.1041e-05 0)
(0.100047 -4.35264e-05 0)
(0.0999935 2.63682e-07 0)
(0.0999953 2.50022e-06 0)
(0.0999956 4.64738e-06 0)
(0.0999949 5.61546e-06 0)
(0.0999951 5.04393e-06 0)
(0.0999958 3.00513e-06 0)
(0.0999966 2.94835e-07 0)
(0.0999984 -2.06862e-06 0)
(0.100001 -3.24562e-06 0)
(0.100005 -3.36662e-06 0)
(0.100008 -2.2845e-06 0)
(0.100011 -7.86909e-07 0)
(0.100012 1.29343e-06 0)
(0.100014 1.97447e-06 0)
(0.100015 2.12908e-06 0)
(0.100018 -1.45609e-06 0)
(0.10002 -4.50862e-06 0)
(0.100026 -1.30017e-05 0)
(0.100029 -1.61761e-05 0)
(0.100039 -3.02249e-05 0)
(0.0999943 5.88648e-07 0)
(0.0999956 3.11582e-06 0)
(0.0999957 5.12153e-06 0)
(0.0999947 5.54733e-06 0)
(0.0999946 3.736e-06 0)
(0.099996 6.45266e-08 0)
(0.0999974 -4.15798e-06 0)
(0.0999985 -7.94015e-06 0)
(0.1 -1.04629e-05 0)
(0.100003 -1.1732e-05 0)
(0.100005 -1.16424e-05 0)
(0.100007 -1.09102e-05 0)
(0.100008 -9.57533e-06 0)
(0.100011 -9.62288e-06 0)
(0.100012 -1.06422e-05 0)
(0.100016 -1.5436e-05 0)
(0.100017 -2.01233e-05 0)
(0.100023 -2.96876e-05 0)
(0.100024 -3.41977e-05 0)
(0.100034 -4.82824e-05 0)
(0.0999952 9.69397e-07 0)
(0.0999962 3.85213e-06 0)
(0.0999963 6.35614e-06 0)
(0.0999957 7.27322e-06 0)
(0.099996 5.86052e-06 0)
(0.0999969 2.14522e-06 0)
(0.0999978 -2.78111e-06 0)
(0.0999991 -7.04725e-06 0)
(0.100001 -9.57368e-06 0)
(0.100004 -1.04338e-05 0)
(0.100006 -9.49266e-06 0)
(0.100008 -7.52382e-06 0)
(0.100009 -4.84728e-06 0)
(0.10001 -3.92869e-06 0)
(0.100011 -4.47325e-06 0)
(0.100013 -9.48074e-06 0)
(0.100014 -1.46308e-05 0)
(0.100018 -2.50288e-05 0)
(0.10002 -2.99367e-05 0)
(0.100027 -4.48849e-05 0)
(0.0999962 1.39569e-06 0)
(0.0999969 4.65103e-06 0)
(0.099997 7.40446e-06 0)
(0.0999966 8.49498e-06 0)
(0.0999968 6.77121e-06 0)
(0.0999977 2.29135e-06 0)
(0.0999986 -3.13488e-06 0)
(0.0999997 -7.95894e-06 0)
(0.100001 -1.11931e-05 0)
(0.100003 -1.28136e-05 0)
(0.100004 -1.25882e-05 0)
(0.100006 -1.12394e-05 0)
(0.100007 -9.12078e-06 0)
(0.100008 -8.65223e-06 0)
(0.100009 -9.72332e-06 0)
(0.10001 -1.5187e-05 0)
(0.100011 -2.0935e-05 0)
(0.100015 -3.16706e-05 0)
(0.100016 -3.70223e-05 0)
(0.100021 -5.19076e-05 0)
(0.0999972 1.79031e-06 0)
(0.0999977 5.29099e-06 0)
(0.0999978 8.20303e-06 0)
(0.0999975 9.45104e-06 0)
(0.0999977 7.69823e-06 0)
(0.0999984 2.88872e-06 0)
(0.0999991 -3.2013e-06 0)
(0.0999998 -8.62263e-06 0)
(0.100001 -1.22332e-05 0)
(0.100002 -1.39605e-05 0)
(0.100003 -1.34859e-05 0)
(0.100005 -1.15206e-05 0)
(0.100005 -8.64332e-06 0)
(0.100006 -7.62522e-06 0)
(0.100006 -8.57231e-06 0)
(0.100007 -1.43112e-05 0)
(0.100008 -2.05161e-05 0)
(0.10001 -3.17399e-05 0)
(0.100011 -3.73902e-05 0)
(0.100015 -5.2567e-05 0)
(0.0999983 2.0911e-06 0)
(0.0999986 5.75112e-06 0)
(0.0999986 8.78244e-06 0)
(0.0999985 1.01568e-05 0)
(0.0999986 8.37025e-06 0)
(0.099999 3.28524e-06 0)
(0.0999995 -3.13551e-06 0)
(0.1 -8.82997e-06 0)
(0.100001 -1.26577e-05 0)
(0.100002 -1.45846e-05 0)
(0.100002 -1.42881e-05 0)
(0.100003 -1.24761e-05 0)
(0.100003 -9.76439e-06 0)
(0.100003 -8.89619e-06 0)
(0.100004 -1.00127e-05 0)
(0.100004 -1.59237e-05 0)
(0.100005 -2.23425e-05 0)
(0.100006 -3.37126e-05 0)
(0.100007 -3.94821e-05 0)
(0.100009 -5.46777e-05 0)
(0.0999994 2.2534e-06 0)
(0.0999995 5.99184e-06 0)
(0.0999995 9.07243e-06 0)
(0.0999995 1.05398e-05 0)
(0.0999995 8.75119e-06 0)
(0.0999997 3.55819e-06 0)
(0.0999998 -3.03995e-06 0)
(0.1 -8.93299e-06 0)
(0.1 -1.29883e-05 0)
(0.1 -1.51062e-05 0)
(0.100001 -1.48878e-05 0)
(0.100001 -1.29987e-05 0)
(0.100001 -1.01061e-05 0)
(0.100001 -9.08054e-06 0)
(0.100001 -1.01625e-05 0)
(0.100001 -1.61432e-05 0)
(0.100002 -2.2695e-05 0)
(0.100002 -3.41864e-05 0)
(0.100002 -4.00464e-05 0)
(0.100003 -5.52752e-05 0)
(0.100001 2.25326e-06 0)
(0.1 5.99139e-06 0)
(0.1 9.07198e-06 0)
(0.100001 1.05396e-05 0)
(0.1 8.75135e-06 0)
(0.1 3.55843e-06 0)
(0.1 -3.0399e-06 0)
(0.1 -8.9331e-06 0)
(0.0999997 -1.29883e-05 0)
(0.0999995 -1.51061e-05 0)
(0.0999993 -1.48878e-05 0)
(0.0999991 -1.29987e-05 0)
(0.0999989 -1.01062e-05 0)
(0.0999988 -9.08065e-06 0)
(0.0999987 -1.01627e-05 0)
(0.0999985 -1.61433e-05 0)
(0.0999984 -2.26952e-05 0)
(0.0999979 -3.41864e-05 0)
(0.0999978 -4.00464e-05 0)
(0.0999971 -5.52744e-05 0)
(0.100002 2.09082e-06 0)
(0.100001 5.74988e-06 0)
(0.100001 8.78117e-06 0)
(0.100002 1.01565e-05 0)
(0.100001 8.37086e-06 0)
(0.100001 3.28598e-06 0)
(0.100001 -3.13544e-06 0)
(0.1 -8.83057e-06 0)
(0.0999993 -1.26584e-05 0)
(0.0999985 -1.45849e-05 0)
(0.0999978 -1.4288e-05 0)
(0.0999972 -1.24758e-05 0)
(0.0999969 -9.76427e-06 0)
(0.0999965 -8.89606e-06 0)
(0.0999962 -1.00128e-05 0)
(0.0999956 -1.59233e-05 0)
(0.0999951 -2.23422e-05 0)
(0.0999938 -3.37106e-05 0)
(0.0999933 -3.94798e-05 0)
(0.0999911 -5.4672e-05 0)
(0.100003 1.79007e-06 0)
(0.100002 5.28929e-06 0)
(0.100002 8.2011e-06 0)
(0.100002 9.45065e-06 0)
(0.100002 7.69936e-06 0)
(0.100002 2.89001e-06 0)
(0.100001 -3.20103e-06 0)
(0.1 -8.62341e-06 0)
(0.0999991 -1.22345e-05 0)
(0.0999978 -1.39615e-05 0)
(0.0999965 -1.34868e-05 0)
(0.0999954 -1.15212e-05 0)
(0.0999947 -8.64412e-06 0)
(0.099994 -7.62588e-06 0)
(0.0999937 -8.57354e-06 0)
(0.0999926 -1.43121e-05 0)
(0.0999919 -2.05179e-05 0)
(0.0999897 -3.17401e-05 0)
(0.0999888 -3.73911e-05 0)
(0.0999852 -5.25639e-05 0)
(0.100004 1.39542e-06 0)
(0.100003 4.64922e-06 0)
(0.100003 7.4026e-06 0)
(0.100003 8.49463e-06 0)
(0.100003 6.77257e-06 0)
(0.100002 2.29281e-06 0)
(0.100001 -3.13482e-06 0)
(0.1 -7.95997e-06 0)
(0.0999989 -1.11942e-05 0)
(0.0999972 -1.28139e-05 0)
(0.0999957 -1.25879e-05 0)
(0.0999944 -1.12389e-05 0)
(0.0999935 -9.12088e-06 0)
(0.0999923 -8.65222e-06 0)
(0.0999914 -9.72395e-06 0)
(0.0999897 -1.5186e-05 0)
(0.0999886 -2.09338e-05 0)
(0.0999854 -3.16647e-05 0)
(0.0999843 -3.70159e-05 0)
(0.0999789 -5.18926e-05 0)
(0.100005 9.69268e-07 0)
(0.100004 3.85036e-06 0)
(0.100004 6.35432e-06 0)
(0.100004 7.2729e-06 0)
(0.100004 5.8619e-06 0)
(0.100003 2.14641e-06 0)
(0.100002 -2.78212e-06 0)
(0.100001 -7.05032e-06 0)
(0.0999988 -9.57733e-06 0)
(0.0999964 -1.04367e-05 0)
(0.0999941 -9.49473e-06 0)
(0.0999921 -7.52515e-06 0)
(0.0999907 -4.84864e-06 0)
(0.0999895 -3.92967e-06 0)
(0.0999889 -4.47514e-06 0)
(0.099987 -9.48231e-06 0)
(0.0999857 -1.46341e-05 0)
(0.0999816 -2.50303e-05 0)
(0.0999799 -2.99396e-05 0)
(0.0999733 -4.48826e-05 0)
(0.100006 5.88795e-07 0)
(0.100004 3.11431e-06 0)
(0.100004 5.11963e-06 0)
(0.100005 5.54707e-06 0)
(0.100005 3.73759e-06 0)
(0.100004 6.61449e-08 0)
(0.100003 -4.15783e-06 0)
(0.100001 -7.94124e-06 0)
(0.0999997 -1.04644e-05 0)
(0.0999974 -1.17328e-05 0)
(0.0999953 -1.1643e-05 0)
(0.0999932 -1.09106e-05 0)
(0.0999915 -9.57684e-06 0)
(0.0999892 -9.62392e-06 0)
(0.0999876 -1.06444e-05 0)
(0.0999844 -1.54357e-05 0)
(0.0999827 -2.01238e-05 0)
(0.0999771 -2.9681e-05 0)
(0.0999756 -3.41914e-05 0)
(0.0999661 -4.82626e-05 0)
(0.100007 2.63877e-07 0)
(0.100005 2.49901e-06 0)
(0.100004 4.64586e-06 0)
(0.100005 5.6152e-06 0)
(0.100005 5.04458e-06 0)
(0.100004 3.00526e-06 0)
(0.100003 2.92933e-07 0)
(0.100002 -2.07219e-06 0)
(0.0999988 -3.24942e-06 0)
(0.0999954 -3.36927e-06 0)
(0.0999923 -2.28616e-06 0)
(0.0999895 -7.87548e-07 0)
(0.0999876 1.29268e-06 0)
(0.0999857 1.97425e-06 0)
(0.0999846 2.12788e-06 0)
(0.0999818 -1.45643e-06 0)
(0.09998 -4.51054e-06 0)
(0.0999739 -1.30012e-05 0)
(0.0999714 -1.61769e-05 0)
(0.0999613 -3.02203e-05 0)
(0.100007 -2.39764e-07 0)
(0.100006 7.08543e-07 0)
(0.100006 1.29898e-06 0)
(0.100008 7.64428e-07 0)
(0.100008 -7.76505e-07 0)
(0.100007 -3.33867e-06 0)
(0.100005 -6.38923e-06 0)
(0.100004 -9.16892e-06 0)
(0.100002 -1.10683e-05 0)
(0.0999986 -1.21618e-05 0)
(0.0999959 -1.23433e-05 0)
(0.099993 -1.22431e-05 0)
(0.0999906 -1.16844e-05 0)
(0.0999873 -1.22248e-05 0)
(0.0999853 -1.31293e-05 0)
(0.0999808 -1.70053e-05 0)
(0.0999787 -2.02599e-05 0)
(0.0999702 -2.79998e-05 0)
(0.0999681 -3.10427e-05 0)
(0.0999528 -4.35141e-05 0)
(0.100008 5.18726e-07 0)
(0.100005 2.58492e-06 0)
(0.100005 4.40233e-06 0)
(0.100006 5.5966e-06 0)
(0.100006 5.94149e-06 0)
(0.100005 5.62998e-06 0)
(0.100005 5.3909e-06 0)
(0.100003 5.24369e-06 0)
(0.0999996 5.51156e-06 0)
(0.0999956 6.09519e-06 0)
(0.0999921 7.05945e-06 0)
(0.0999889 7.80833e-06 0)
(0.0999867 8.8909e-06 0)
(0.0999839 9.29752e-06 0)
(0.0999824 1.02481e-05 0)
(0.0999783 9.03846e-06 0)
(0.099976 9.17673e-06 0)
(0.0999674 4.59196e-06 0)
(0.0999645 4.54263e-06 0)
(0.0999494 -6.49458e-06 0)
(0.100009 -1.01114e-06 0)
(0.100007 -2.50576e-06 0)
(0.100007 -3.61035e-06 0)
(0.100009 -4.55833e-06 0)
(0.100009 -5.64848e-06 0)
(0.100008 -6.97618e-06 0)
(0.100007 -8.71197e-06 0)
(0.100005 -1.03306e-05 0)
(0.100002 -1.15414e-05 0)
(0.0999989 -1.25662e-05 0)
(0.0999959 -1.31777e-05 0)
(0.0999923 -1.36117e-05 0)
(0.0999899 -1.35614e-05 0)
(0.099986 -1.42419e-05 0)
(0.0999847 -1.48807e-05 0)
(0.0999788 -1.75659e-05 0)
(0.0999777 -1.92149e-05 0)
(0.0999652 -2.41728e-05 0)
(0.099964 -2.50036e-05 0)
(0.0999386 -3.40512e-05 0)
)
;

boundaryField
{
    sides
    {
        type            calculated;
        value           nonuniform List<vector> 
40
(
(0.100009 0 0)
(0.100007 0 0)
(0.100007 0 0)
(0.100009 0 0)
(0.100009 0 0)
(0.100008 0 0)
(0.100007 0 0)
(0.100005 0 0)
(0.100002 0 0)
(0.0999989 0 0)
(0.0999959 0 0)
(0.0999923 0 0)
(0.0999899 0 0)
(0.099986 0 0)
(0.0999847 0 0)
(0.0999788 0 0)
(0.0999777 0 0)
(0.0999652 0 0)
(0.099964 0 0)
(0.0999386 0 0)
(0.0999909 0 0)
(0.0999931 0 0)
(0.0999928 0 0)
(0.0999909 0 0)
(0.0999905 0 0)
(0.0999918 0 0)
(0.0999932 0 0)
(0.0999949 0 0)
(0.0999975 0 0)
(0.100001 0 0)
(0.100004 0 0)
(0.100008 0 0)
(0.10001 0 0)
(0.100014 0 0)
(0.100015 0 0)
(0.100021 0 0)
(0.100022 0 0)
(0.100035 0 0)
(0.100036 0 0)
(0.100061 0 0)
)
;
    }
    inlet
    {
        type            calculated;
        value           nonuniform List<vector> 
20
(
(0.0999911 0 0)
(0.0999923 0 0)
(0.0999928 0 0)
(0.0999935 0 0)
(0.0999943 0 0)
(0.0999952 0 0)
(0.0999961 0 0)
(0.0999972 0 0)
(0.0999983 0 0)
(0.0999994 0 0)
(0.100001 0 0)
(0.100002 0 0)
(0.100003 0 0)
(0.100004 0 0)
(0.100005 0 0)
(0.100006 0 0)
(0.100006 0 0)
(0.100007 0 0)
(0.100008 0 0)
(0.100009 0 0)
)
;
    }
    outlet
    {
        type            calculated;
        value           nonuniform List<vector> 
20
(
(0.100062 -3.40406e-05 0)
(0.100051 -6.50533e-06 0)
(0.100048 -4.35266e-05 0)
(0.100039 -3.0225e-05 0)
(0.100034 -4.82825e-05 0)
(0.100027 -4.4885e-05 0)
(0.100021 -5.19077e-05 0)
(0.100015 -5.25671e-05 0)
(0.100009 -5.46778e-05 0)
(0.100003 -5.52752e-05 0)
(0.099997 -5.52744e-05 0)
(0.099991 -5.4672e-05 0)
(0.0999851 -5.25639e-05 0)
(0.0999788 -5.18925e-05 0)
(0.0999731 -4.48825e-05 0)
(0.0999658 -4.82624e-05 0)
(0.099961 -3.02202e-05 0)
(0.0999523 -4.35139e-05 0)
(0.0999489 -6.49455e-06 0)
(0.0999377 -3.40509e-05 0)
)
;
    }
    frontAndBack
    {
        type            empty;
    }
}


// ************************************************************************* //
