/*--------------------------------*- C++ -*----------------------------------*\
  =========                 |
  \\      /  F ield         | OpenFOAM: The Open Source CFD Toolbox
   \\    /   O peration     | Website:  https://openfoam.org
    \\  /    A nd           | Version:  7
     \\/     M anipulation  |
\*---------------------------------------------------------------------------*/
FoamFile
{
    version     2.0;
    format      ascii;
    class       volVectorField;
    location    "90";
    object      ddt0(hU);
}
// * * * * * * * * * * * * * * * * * * * * * * * * * * * * * * * * * * * * * //

dimensions      [0 2 -2 0 0 0 0];

internalField   nonuniform List<vector> 
400
(
(-2.06019e-10 -1.81973e-10 0)
(-2.3692e-10 -5.08816e-12 0)
(-7.68968e-11 1.70951e-10 0)
(1.07084e-10 4.66203e-11 0)
(3.94102e-10 -1.82644e-10 0)
(1.44479e-09 -4.28253e-10 0)
(2.14527e-10 -9.24694e-10 0)
(1.07696e-09 -1.36168e-09 0)
(-6.27022e-10 -1.77734e-10 0)
(-9.50216e-11 -1.04402e-10 0)
(-2.18715e-10 -2.1211e-11 0)
(1.19185e-11 3.88733e-11 0)
(7.44966e-11 5.57594e-12 0)
(2.70376e-12 -2.92597e-11 0)
(-6.61415e-11 -3.29757e-11 0)
(-9.1308e-11 -2.17325e-11 0)
(-3.6827e-11 1.935e-12 0)
(5.02925e-11 1.79136e-11 0)
(8.80631e-11 2.68556e-11 0)
(3.6183e-11 2.47164e-11 0)
(-6.71221e-12 -3.4409e-10 0)
(3.38684e-11 6.33805e-12 0)
(-5.38108e-11 2.27563e-10 0)
(4.30878e-11 2.53118e-10 0)
(-3.83398e-10 -2.36939e-10 0)
(-1.12242e-09 6.06003e-11 0)
(6.09261e-10 -1.33708e-09 0)
(-2.44553e-09 -1.18509e-09 0)
(6.87982e-10 3.19196e-11 0)
(5.83842e-11 -1.81345e-10 0)
(-1.78562e-11 3.38393e-12 0)
(6.32382e-11 1.03374e-10 0)
(-2.6078e-12 2.61075e-11 0)
(-4.01008e-11 -3.2203e-11 0)
(-4.54063e-11 -3.71195e-11 0)
(-3.8389e-11 -1.61048e-11 0)
(2.06477e-12 2.9243e-11 0)
(4.08849e-11 6.75172e-11 0)
(3.73257e-11 6.04945e-11 0)
(-1.73382e-11 2.6869e-11 0)
(1.44499e-10 -9.01816e-11 0)
(2.32504e-10 -7.93137e-12 0)
(1.0271e-10 -5.64916e-11 0)
(1.27343e-13 1.45181e-10 0)
(-1.77028e-10 -1.04075e-10 0)
(4.20852e-11 5.0467e-10 0)
(-1.29871e-09 -2.65043e-10 0)
(9.13517e-10 7.20832e-10 0)
(4.26992e-10 2.31476e-10 0)
(-1.83653e-10 -5.96549e-11 0)
(1.89381e-10 1.33126e-10 0)
(3.30591e-11 1.03674e-10 0)
(-1.32621e-10 6.37948e-12 0)
(-9.8302e-11 -3.50678e-11 0)
(-3.57146e-11 -4.26365e-11 0)
(2.24355e-11 -3.49384e-11 0)
(7.64692e-11 1.67903e-11 0)
(5.48053e-11 5.56525e-11 0)
(-1.62623e-11 4.48181e-11 0)
(-9.00419e-11 3.22633e-11 0)
(1.02687e-10 1.63412e-10 0)
(9.56784e-11 -1.23363e-11 0)
(7.2588e-11 -1.5144e-10 0)
(-6.58408e-11 -1.52202e-10 0)
(5.47075e-11 -9.20235e-12 0)
(-2.50869e-10 -1.63509e-10 0)
(9.82288e-13 4.09915e-10 0)
(9.2924e-10 6.0062e-10 0)
(-4.21214e-10 -1.87068e-10 0)
(-1.72947e-11 1.13228e-10 0)
(2.4395e-10 1.48485e-10 0)
(-9.96001e-11 -2.37253e-11 0)
(-1.7642e-10 -4.55114e-11 0)
(-7.63676e-11 -2.8574e-11 0)
(-3.56328e-12 -3.18582e-11 0)
(5.16512e-11 -2.43469e-11 0)
(8.79001e-11 4.0429e-12 0)
(3.43847e-11 -1.50068e-11 0)
(-5.93752e-11 -5.07929e-11 0)
(-1.05652e-10 -5.48514e-12 0)
(6.61129e-11 1.29414e-10 0)
(-4.21037e-11 -1.50687e-11 0)
(1.14667e-11 -5.87104e-11 0)
(-1.42016e-10 -2.23431e-10 0)
(9.31518e-11 6.73194e-11 0)
(-2.3581e-10 -3.2299e-10 0)
(4.36138e-10 3.75079e-10 0)
(-1.53852e-10 -1.13751e-10 0)
(-2.70204e-10 -1.45607e-10 0)
(3.47563e-10 2.26767e-10 0)
(-2.44264e-11 -3.31239e-12 0)
(-2.23348e-10 -1.27195e-10 0)
(-8.20542e-11 -3.19017e-11 0)
(-1.31823e-12 3.17563e-12 0)
(3.61723e-11 -2.27181e-11 0)
(6.33479e-11 -2.20342e-11 0)
(3.95442e-11 -2.26459e-11 0)
(-2.61758e-11 -9.83705e-11 0)
(-5.07771e-11 -1.53484e-10 0)
(-2.50536e-11 -4.96885e-11 0)
(-7.02631e-12 4.49027e-11 0)
(-8.53543e-11 -3.95743e-11 0)
(-4.53968e-11 -1.67812e-11 0)
(-7.75898e-11 -1.77675e-10 0)
(3.64563e-11 -2.77477e-11 0)
(-1.45152e-11 -1.45354e-10 0)
(2.46588e-10 8.24199e-11 0)
(-2.59879e-10 -2.54799e-10 0)
(1.96331e-10 1.54257e-10 0)
(1.41872e-10 5.29022e-11 0)
(-3.11866e-10 -1.69359e-10 0)
(-1.21219e-10 -6.5098e-11 0)
(7.51047e-11 3.59363e-11 0)
(1.6105e-11 1.79913e-11 0)
(8.04081e-12 -2.15282e-11 0)
(3.01331e-11 -5.14248e-11 0)
(-4.45292e-11 -7.55477e-11 0)
(-1.07389e-10 -1.39245e-10 0)
(-1.94111e-12 -1.64294e-10 0)
(1.35342e-10 -3.77377e-11 0)
(-6.2345e-11 -2.868e-11 0)
(-6.31018e-11 -2.23729e-11 0)
(-8.40984e-11 -3.56879e-11 0)
(2.32517e-11 1.4046e-11 0)
(-1.46779e-11 -1.23745e-10 0)
(1.41898e-10 2.82999e-11 0)
(7.07859e-12 -1.1962e-10 0)
(-6.04422e-11 -9.45101e-11 0)
(1.43792e-10 8.97616e-11 0)
(-2.44416e-10 -1.74908e-10 0)
(-1.77915e-10 -8.74995e-11 0)
(1.4774e-10 9.81173e-11 0)
(1.43472e-10 3.86906e-11 0)
(1.27264e-11 -1.92415e-11 0)
(-2.1614e-11 -6.69305e-12 0)
(-3.49217e-11 -5.96558e-11 0)
(-1.24936e-10 -1.10879e-10 0)
(-1.70106e-10 -9.65951e-11 0)
(-9.20276e-13 -4.01792e-11 0)
(2.16863e-10 3.25853e-11 0)
(-5.64092e-11 -8.33058e-11 0)
(1.07914e-12 -8.11833e-12 0)
(-6.24176e-11 -7.0288e-11 0)
(6.84598e-11 6.94744e-11 0)
(-7.9246e-12 -6.83794e-11 0)
(1.42913e-10 3.48118e-11 0)
(-9.93479e-11 -1.32835e-10 0)
(7.98432e-11 1.05107e-11 0)
(-5.64e-11 -4.39361e-11 0)
(-1.80926e-10 -6.1107e-11 0)
(1.60139e-10 1.37952e-10 0)
(1.23517e-10 1.2605e-10 0)
(-1.63048e-11 -2.92924e-11 0)
(3.21913e-11 -7.64529e-11 0)
(4.55881e-12 -4.51553e-11 0)
(-9.02847e-11 -1.00975e-10 0)
(-1.21802e-10 -1.33707e-10 0)
(-8.67322e-11 -2.56762e-11 0)
(3.10295e-11 1.33666e-10 0)
(1.41748e-10 1.42775e-10 0)
(9.75906e-12 -4.71739e-11 0)
(3.55931e-11 -5.93254e-11 0)
(2.89017e-12 -3.56441e-11 0)
(3.73467e-11 -3.87785e-11 0)
(1.6321e-11 1.12076e-11 0)
(1.61181e-11 -3.74969e-11 0)
(-7.06194e-11 -5.7269e-11 0)
(4.5404e-11 2.57324e-11 0)
(-6.25763e-11 -6.88285e-11 0)
(3.2463e-11 1.24485e-10 0)
(1.38907e-10 1.43173e-10 0)
(-4.57789e-11 7.27857e-12 0)
(-6.829e-11 -1.04676e-11 0)
(6.78963e-11 -5.32416e-11 0)
(3.21631e-11 -1.18452e-10 0)
(-7.88983e-11 -1.55466e-10 0)
(-4.68041e-11 -1.1006e-10 0)
(5.28686e-11 3.10692e-11 0)
(5.35389e-11 1.81805e-10 0)
(-4.14008e-11 1.63063e-10 0)
(2.28399e-11 6.33914e-12 0)
(-2.53598e-12 -7.88794e-11 0)
(6.81082e-11 -2.10485e-11 0)
(9.58422e-12 -9.25836e-11 0)
(1.17495e-11 -2.77674e-11 0)
(-1.08303e-10 -9.20228e-11 0)
(-1.79167e-11 -4.48225e-11 0)
(-5.04266e-11 -5.04048e-12 0)
(3.32126e-11 -3.71212e-11 0)
(1.04002e-10 1.12888e-10 0)
(-4.99773e-11 5.95253e-11 0)
(-2.86713e-11 -2.39245e-11 0)
(-3.01722e-12 2.16015e-11 0)
(-7.37654e-11 -3.53518e-11 0)
(-4.95604e-11 -1.38508e-10 0)
(3.72303e-11 -1.58893e-10 0)
(1.1825e-10 -8.17501e-11 0)
(1.54813e-10 6.35653e-12 0)
(4.0844e-11 7.20213e-11 0)
(-1.83853e-10 9.3455e-11 0)
(1.3941e-11 -5.65198e-12 0)
(-2.10569e-11 1.75123e-11 0)
(7.59929e-11 -5.47725e-11 0)
(-5.01545e-12 -6.67049e-11 0)
(1.59225e-11 -1.3157e-10 0)
(-1.23767e-10 -8.75603e-11 0)
(1.18782e-11 -7.97538e-11 0)
(-7.27774e-11 -2.99372e-11 0)
(4.67485e-11 4.35732e-12 0)
(1.15558e-10 -2.70945e-11 0)
(-9.86778e-11 3.09179e-11 0)
(-1.21305e-11 4.19503e-11 0)
(2.84946e-11 -3.13985e-11 0)
(-1.09029e-10 -5.83696e-11 0)
(-6.91701e-11 -4.20227e-11 0)
(7.78212e-11 -6.67313e-11 0)
(1.56594e-10 -7.7247e-11 0)
(1.52809e-10 -1.02516e-10 0)
(1.23691e-11 -1.16338e-10 0)
(-1.97147e-10 -1.03974e-11 0)
(1.55087e-11 1.61298e-11 0)
(1.30482e-11 4.16268e-11 0)
(1.32393e-11 -7.37346e-11 0)
(-7.755e-12 -7.09498e-11 0)
(3.09539e-11 -1.82162e-10 0)
(-2.13039e-11 -7.55686e-11 0)
(-7.96304e-12 -6.1255e-11 0)
(5.68379e-12 -4.73161e-11 0)
(-5.61312e-11 7.54035e-11 0)
(9.2917e-11 -9.72277e-11 0)
(6.30559e-11 -3.15888e-11 0)
(-7.19236e-11 8.51162e-11 0)
(-4.26312e-11 -1.02948e-11 0)
(2.97546e-11 -5.25167e-11 0)
(8.21831e-12 -1.0137e-11 0)
(-3.23283e-11 -2.83012e-11 0)
(9.76529e-12 -6.36407e-11 0)
(7.01517e-11 -1.53251e-10 0)
(3.35129e-11 -2.28617e-10 0)
(-5.7431e-11 -7.79245e-11 0)
(-4.0123e-11 6.12286e-11 0)
(7.97319e-12 -2.99224e-11 0)
(-5.98087e-11 -3.98928e-11 0)
(3.23626e-11 -1.50284e-10 0)
(1.32113e-11 -8.229e-11 0)
(1.18676e-10 -9.60518e-11 0)
(-7.91842e-11 4.43823e-11 0)
(8.69259e-11 -5.10841e-11 0)
(-1.35728e-10 1.29649e-10 0)
(-9.98294e-11 5.43901e-11 0)
(2.18563e-10 -8.9264e-11 0)
(5.23546e-11 -1.17129e-11 0)
(-7.65124e-11 4.6442e-11 0)
(3.47375e-11 -7.09345e-12 0)
(2.23583e-11 -6.68418e-11 0)
(-7.01128e-11 -7.00793e-11 0)
(-8.15076e-11 -3.68697e-11 0)
(-4.66667e-11 -1.02466e-10 0)
(7.31408e-12 -1.81002e-10 0)
(1.00185e-10 -5.58179e-11 0)
(-6.81067e-11 3.37056e-11 0)
(-3.66398e-11 -5.60219e-11 0)
(-8.87643e-11 -2.93557e-11 0)
(4.77452e-11 -1.22268e-10 0)
(-3.65621e-11 8.40133e-11 0)
(1.78525e-10 -1.41137e-10 0)
(-7.70228e-11 8.36335e-11 0)
(4.45749e-11 -4.0703e-11 0)
(3.64806e-11 -1.59967e-11 0)
(-3.13159e-10 2.18583e-10 0)
(-1.16815e-11 2.69288e-11 0)
(1.92657e-10 -1.05271e-10 0)
(7.53008e-11 -5.40027e-12 0)
(-8.56081e-12 2.81077e-12 0)
(-2.74003e-11 -6.58873e-11 0)
(-3.62231e-11 -6.74381e-11 0)
(-8.3315e-11 -2.03082e-11 0)
(-1.12236e-10 -2.77358e-11 0)
(2.77903e-12 -3.75197e-11 0)
(1.90943e-10 2.27097e-11 0)
(-3.56124e-11 -3.70844e-11 0)
(-6.10154e-11 -4.29908e-11 0)
(-3.08788e-11 -4.30372e-11 0)
(2.07451e-12 5.64127e-11 0)
(-3.75526e-11 2.12006e-11 0)
(5.32896e-11 -8.70917e-11 0)
(8.22517e-11 -4.66557e-11 0)
(-1.90957e-10 9.86594e-11 0)
(2.67353e-10 -1.90971e-10 0)
(-6.61079e-11 1.16616e-10 0)
(-2.81997e-10 1.9049e-10 0)
(6.22004e-11 -1.21258e-11 0)
(1.85103e-10 -6.70896e-11 0)
(5.66915e-11 -5.37535e-11 0)
(6.82912e-12 -5.42754e-11 0)
(1.0096e-11 -6.50191e-11 0)
(-6.41817e-11 -3.81565e-11 0)
(-1.11241e-10 2.08386e-11 0)
(-2.3719e-11 9.28509e-11 0)
(1.24271e-10 1.00025e-10 0)
(2.975e-11 -1.3901e-10 0)
(-3.94177e-11 -1.67243e-11 0)
(4.91824e-11 3.3847e-11 0)
(-8.25503e-11 1.8213e-10 0)
(3.32616e-11 -1.90617e-10 0)
(-1.84255e-10 1.7169e-10 0)
(3.78391e-10 -4.18108e-10 0)
(-3.82588e-10 2.96961e-10 0)
(4.56459e-11 -7.69029e-11 0)
(2.97411e-10 -1.60731e-10 0)
(-1.88468e-10 1.20194e-10 0)
(-1.3014e-10 9.331e-11 0)
(9.71599e-11 -4.53138e-11 0)
(1.01552e-10 -7.48634e-11 0)
(6.2849e-11 -4.20333e-11 0)
(4.14124e-11 -5.82976e-11 0)
(-8.16869e-12 -5.37754e-11 0)
(-4.15184e-11 2.52612e-11 0)
(-4.20447e-11 1.03479e-10 0)
(-1.78533e-12 8.89295e-11 0)
(1.1067e-10 -2.19473e-10 0)
(9.3604e-11 -1.78714e-11 0)
(1.22011e-10 1.2913e-10 0)
(-1.04446e-10 9.54724e-11 0)
(9.41747e-11 -3.07074e-10 0)
(-3.82764e-10 2.2086e-10 0)
(4.34531e-10 -7.59802e-10 0)
(3.43089e-10 -3.88549e-10 0)
(-6.0126e-10 2.04871e-10 0)
(2.48634e-10 -1.4489e-10 0)
(1.11269e-10 -1.39939e-11 0)
(-1.53709e-10 8.36309e-11 0)
(-2.98526e-11 -9.13629e-12 0)
(9.46868e-11 -7.06173e-11 0)
(9.91275e-11 -5.76974e-11 0)
(6.61947e-11 -6.68441e-11 0)
(4.09352e-11 -6.6665e-11 0)
(5.08628e-12 -2.04919e-11 0)
(-7.0407e-11 3.4882e-11 0)
(-9.37713e-11 5.11773e-11 0)
(1.96411e-10 6.66678e-11 0)
(2.50308e-10 -1.49805e-11 0)
(1.51907e-10 -1.09466e-11 0)
(-1.27673e-10 -2.04204e-10 0)
(1.44082e-13 -7.67511e-11 0)
(-3.41602e-10 -2.44966e-10 0)
(-7.72075e-10 -1.02467e-09 0)
(1.42825e-09 -1.02382e-10 0)
(1.45066e-10 1.1081e-10 0)
(-7.52194e-11 8.57508e-11 0)
(1.64601e-10 -8.94479e-11 0)
(-8.46925e-11 1.06111e-11 0)
(-7.86112e-11 4.79049e-11 0)
(5.49897e-11 1.46666e-12 0)
(9.16257e-11 -3.01398e-11 0)
(6.81626e-11 -4.63265e-11 0)
(4.8087e-11 -5.80782e-11 0)
(1.79462e-11 -6.39689e-11 0)
(-6.31579e-11 -3.58685e-11 0)
(-9.41186e-11 1.3167e-11 0)
(-4.2185e-12 3.55453e-10 0)
(5.3163e-11 2.05454e-11 0)
(-3.4602e-11 -3.70979e-10 0)
(-1.26993e-11 -3.98015e-10 0)
(-2.01629e-10 4.87485e-10 0)
(-7.42988e-10 -4.15316e-10 0)
(-2.59275e-10 2.64491e-09 0)
(-1.32669e-09 1.75903e-11 0)
(-1.00147e-10 -1.79072e-10 0)
(-1.40055e-10 4.94841e-11 0)
(-2.14008e-12 -8.83414e-11 0)
(7.0458e-11 2.32359e-11 0)
(1.15805e-11 1.20423e-10 0)
(7.45898e-12 6.88143e-11 0)
(2.11851e-11 -4.46787e-12 0)
(2.28868e-11 -3.14805e-11 0)
(2.08995e-11 -4.32798e-11 0)
(2.45437e-11 -5.95599e-11 0)
(-9.32751e-12 -5.49234e-11 0)
(-4.00886e-11 -1.54182e-11 0)
(-2.25601e-10 1.71128e-10 0)
(-2.2861e-10 1.6156e-11 0)
(-1.33314e-10 -2.82944e-10 0)
(2.54536e-10 -2.04311e-10 0)
(6.47151e-11 3.91365e-10 0)
(1.39041e-09 -1.25466e-10 0)
(2.60656e-10 3.25435e-09 0)
(-1.01722e-11 -4.49669e-10 0)
(3.01213e-10 -1.13508e-10 0)
(-2.29552e-11 -2.21689e-11 0)
(9.40004e-11 -1.19791e-11 0)
(2.14209e-10 4.53289e-11 0)
(1.83077e-11 7.18516e-11 0)
(-1.04032e-10 2.31234e-11 0)
(-7.45078e-11 -2.63475e-11 0)
(-1.89769e-11 -4.18227e-11 0)
(1.15217e-11 -3.35569e-11 0)
(4.33429e-11 -2.88011e-11 0)
(3.09723e-11 -1.73594e-11 0)
(2.00803e-12 5.64808e-12 0)
)
;

boundaryField
{
    sides
    {
        type            calculated;
        value           nonuniform List<vector> 
40
(
(-2.25601e-10 0 0)
(-2.2861e-10 0 0)
(-1.33314e-10 0 0)
(2.54536e-10 0 0)
(6.47151e-11 0 0)
(1.39041e-09 0 0)
(2.60656e-10 0 0)
(-1.01722e-11 0 0)
(3.01213e-10 0 0)
(-2.29552e-11 0 0)
(9.40004e-11 0 0)
(2.14209e-10 0 0)
(1.83077e-11 0 0)
(-1.04032e-10 0 0)
(-7.45078e-11 0 0)
(-1.89769e-11 0 0)
(1.15217e-11 0 0)
(4.33429e-11 0 0)
(3.09723e-11 0 0)
(2.00803e-12 0 0)
(-2.06019e-10 0 0)
(-2.3692e-10 0 0)
(-7.68968e-11 0 0)
(1.07084e-10 0 0)
(3.94102e-10 0 0)
(1.44479e-09 0 0)
(2.14527e-10 0 0)
(1.07696e-09 0 0)
(-6.27022e-10 0 0)
(-9.50216e-11 0 0)
(-2.18715e-10 0 0)
(1.19185e-11 0 0)
(7.44966e-11 0 0)
(2.70376e-12 0 0)
(-6.61415e-11 0 0)
(-9.1308e-11 0 0)
(-3.6827e-11 0 0)
(5.02925e-11 0 0)
(8.80631e-11 0 0)
(3.6183e-11 0 0)
)
;
    }
    inlet
    {
        type            calculated;
        value           uniform (0 0 0);
    }
    outlet
    {
        type            calculated;
        value           nonuniform List<vector> 
20
(
(3.6183e-11 2.47164e-11 0)
(-1.73382e-11 2.6869e-11 0)
(-9.00419e-11 3.22633e-11 0)
(-1.05652e-10 -5.48514e-12 0)
(-2.50536e-11 -4.96885e-11 0)
(1.35342e-10 -3.77377e-11 0)
(2.16863e-10 3.25853e-11 0)
(1.41748e-10 1.42775e-10 0)
(-4.14008e-11 1.63063e-10 0)
(-1.83853e-10 9.3455e-11 0)
(-1.97147e-10 -1.03974e-11 0)
(-5.7431e-11 -7.79245e-11 0)
(1.00185e-10 -5.58179e-11 0)
(1.90943e-10 2.27097e-11 0)
(1.24271e-10 1.00025e-10 0)
(-1.78533e-12 8.89295e-11 0)
(-9.37713e-11 5.11773e-11 0)
(-9.41186e-11 1.3167e-11 0)
(-4.00886e-11 -1.54182e-11 0)
(2.00803e-12 5.64808e-12 0)
)
;
    }
    frontAndBack
    {
        type            empty;
    }
}


// ************************************************************************* //
