/*--------------------------------*- C++ -*----------------------------------*\
  =========                 |
  \\      /  F ield         | OpenFOAM: The Open Source CFD Toolbox
   \\    /   O peration     | Website:  https://openfoam.org
    \\  /    A nd           | Version:  7
     \\/     M anipulation  |
\*---------------------------------------------------------------------------*/
FoamFile
{
    version     2.0;
    format      ascii;
    class       volScalarField;
    location    "90";
    object      ddt0(h);
}
// * * * * * * * * * * * * * * * * * * * * * * * * * * * * * * * * * * * * * //

dimensions      [0 1 -1 0 0 0 0];

internalField   nonuniform List<scalar> 
400
(
-6.37166e-10
5.7476e-10
2.97061e-10
-1.75923e-09
1.80005e-09
7.81279e-09
-4.86998e-09
1.83603e-08
4.32964e-10
-1.59972e-10
-5.11718e-10
2.31766e-10
4.43103e-10
1.83878e-10
-1.26072e-10
-1.80482e-10
3.90686e-11
2.5026e-10
2.45362e-10
7.47759e-11
-1.56987e-10
-2.35237e-10
-3.98681e-11
1.02029e-09
-1.0507e-09
-1.04197e-08
8.36273e-09
-2.37089e-08
8.10112e-10
-2.04808e-10
2.05209e-11
3.13886e-10
1.7716e-10
-3.22784e-12
-8.48346e-11
2.86223e-11
1.6299e-10
7.74525e-11
-4.73372e-11
-3.06741e-11
-1.08658e-10
-5.12973e-10
-2.48295e-10
1.68356e-09
-1.78146e-09
4.42187e-09
-7.18572e-09
3.17037e-09
6.54308e-10
-5.64382e-10
7.1478e-10
2.02569e-10
-2.68196e-10
-2.31264e-10
-4.06224e-11
2.33069e-10
2.92899e-10
-6.39207e-11
-3.15735e-10
-1.52096e-10
2.6078e-10
-3.77615e-11
-3.31497e-10
2.66701e-10
-1.70041e-10
-2.48868e-10
8.52542e-10
4.73308e-09
-2.10649e-09
2.46399e-10
8.18548e-10
-2.31769e-10
-4.50681e-10
-1.44769e-10
1.36185e-10
2.97896e-10
2.40415e-10
-8.0401e-11
-3.54165e-10
-2.09418e-10
5.70123e-10
-1.38584e-11
-5.46574e-11
-1.31735e-09
9.58246e-10
-2.23946e-09
2.65424e-09
-1.25293e-09
-8.05974e-10
1.38889e-09
-1.40471e-10
-6.77467e-10
-2.15052e-10
1.27176e-10
2.90734e-10
1.89892e-10
4.56849e-11
3.2227e-11
-9.10883e-11
-1.08906e-10
1.78368e-10
-1.79571e-10
3.10879e-10
-1.1723e-09
4.35754e-10
-6.54992e-10
1.14009e-09
-1.40685e-09
9.7724e-10
4.68632e-10
-1.09751e-09
-3.39477e-10
3.35989e-10
2.77604e-10
1.70778e-10
-8.76164e-11
-2.30147e-10
6.14422e-11
2.38495e-10
1.00723e-10
-3.05194e-10
-2.58758e-10
4.64703e-11
3.38412e-10
-5.26372e-10
7.31114e-10
-2.22156e-10
-3.46297e-10
5.29136e-10
-1.02982e-09
-5.51623e-10
4.9957e-10
5.21508e-10
2.34015e-10
-4.80163e-11
-3.65875e-10
-4.20723e-10
-1.8115e-11
2.9651e-10
1.71811e-10
-5.47602e-10
1.57534e-10
-5.06527e-10
9.24771e-10
-1.34234e-10
9.79739e-10
-6.24459e-10
4.06586e-10
-3.50785e-10
-5.99689e-10
7.92306e-10
4.06175e-10
-1.61042e-11
2.64e-10
1.52638e-11
-4.26857e-10
-3.79371e-10
-2.64364e-11
1.67889e-10
9.39101e-11
-2.52595e-10
2.25148e-10
-1.52928e-10
1.50774e-10
1.53334e-10
2.52445e-10
-2.47313e-10
3.15471e-10
-2.62665e-10
2.37661e-10
6.04734e-10
-1.76192e-10
-2.32305e-10
2.48452e-10
1.61268e-10
-1.00687e-10
-1.09385e-10
-3.95052e-11
9.54369e-11
9.3402e-11
3.80616e-10
-1.08359e-10
1.93975e-10
-3.83834e-10
-2.09902e-12
-6.12907e-10
2.37553e-11
-2.26049e-10
1.63903e-10
3.59957e-10
-2.25582e-10
1.23563e-11
-3.7699e-11
-4.42759e-10
-6.33661e-11
5.76928e-10
4.4986e-10
-8.35152e-11
-6.73538e-11
6.88694e-11
4.70121e-10
-2.42336e-10
2.6672e-10
-4.33273e-10
8.07032e-11
-7.22099e-10
1.59179e-10
-3.48089e-10
2.39129e-10
3.50028e-10
-4.69748e-10
1.03949e-10
5.81187e-11
-6.55221e-10
-1.77004e-10
7.03121e-10
5.55671e-10
-9.59424e-11
-1.42469e-10
2.3752e-11
-1.06636e-10
-1.20496e-11
1.14721e-10
-5.26776e-11
3.89345e-10
-5.78925e-11
2.4959e-11
8.69567e-11
-2.10126e-10
3.0852e-10
1.03093e-10
-2.617e-10
-1.67409e-10
-4.45569e-11
2.259e-12
4.03784e-11
1.50182e-11
-2.35258e-11
1.68328e-11
2.6044e-11
-5.51923e-10
2.71772e-10
-3.14698e-10
7.57833e-10
1.11492e-10
6.68841e-10
-5.62549e-10
4.81861e-10
-5.99939e-10
-3.60643e-10
7.65303e-10
4.8555e-11
-3.16667e-10
5.94896e-11
-9.60385e-11
-4.35367e-10
-2.91879e-10
8.2214e-11
1.27954e-10
1.38335e-11
-3.1164e-10
1.35235e-10
-1.17051e-10
7.2677e-10
-8.99302e-10
9.01519e-10
-7.30449e-10
2.49535e-10
1.04225e-10
-1.24708e-09
-1.11708e-11
5.75187e-10
2.48501e-10
2.59554e-11
-2.62983e-10
-4.99248e-10
-3.50529e-10
8.43983e-11
2.47032e-10
1.00154e-10
2.61103e-10
1.81251e-10
2.43284e-10
-8.56944e-10
-3.44303e-10
3.18399e-10
3.43359e-10
-7.15585e-10
1.32217e-09
-2.79195e-10
-9.98766e-10
1.17548e-10
5.26902e-10
2.42989e-10
-3.24935e-11
-2.76644e-10
-2.86913e-10
3.50706e-11
2.11976e-10
9.86575e-11
7.3915e-10
1.59704e-10
-3.08005e-11
-1.46531e-09
1.23848e-09
-1.7785e-09
2.38286e-09
-2.13225e-09
6.07322e-10
1.13635e-09
-6.36875e-10
-4.46994e-10
2.13259e-10
3.6745e-10
2.92613e-10
1.1925e-11
-1.50896e-10
-6.51832e-11
-6.72101e-11
-6.58833e-11
5.93007e-10
-2.63381e-10
-3.13031e-10
7.3622e-11
1.1692e-09
-1.89341e-09
3.13572e-09
1.20496e-09
-2.28546e-09
1.12886e-09
2.98203e-10
-5.6331e-10
-2.89937e-10
1.73295e-10
3.5623e-10
2.447e-10
3.9915e-11
-1.7841e-10
-3.25862e-10
-1.78585e-10
4.22054e-10
-1.02366e-09
-2.36062e-10
2.2571e-09
-2.14354e-10
1.02088e-09
-2.28937e-09
6.56384e-09
-6.88884e-10
-4.33087e-11
4.49938e-10
-3.89966e-10
-4.57945e-10
-6.02974e-11
1.93138e-10
2.8838e-10
1.8131e-10
-1.60112e-10
-3.26597e-10
-1.40678e-10
-3.18725e-11
-1.69665e-10
-1.39721e-10
1.65434e-09
-1.48926e-09
4.01917e-09
-4.67198e-09
-2.68774e-08
1.03777e-09
-6.72931e-10
-6.26215e-11
6.9829e-11
-8.39485e-11
-1.80952e-10
-1.56876e-10
3.25958e-11
1.44384e-10
9.05188e-12
-9.04341e-11
-3.50428e-11
-8.63964e-10
1.3529e-09
1.01279e-09
-2.41258e-09
2.75856e-10
-2.49887e-09
2.32475e-09
2.14411e-08
4.31964e-10
-4.63559e-10
1.38622e-10
5.05593e-10
1.15651e-11
-4.41015e-10
-5.29861e-10
-2.74421e-10
5.28801e-11
2.03107e-10
1.80794e-10
5.53152e-11
)
;

boundaryField
{
    sides
    {
        type            calculated;
        value           nonuniform List<scalar> 
40
(
-8.63964e-10
1.3529e-09
1.01279e-09
-2.41258e-09
2.75856e-10
-2.49887e-09
2.32475e-09
2.14411e-08
4.31964e-10
-4.63559e-10
1.38622e-10
5.05593e-10
1.15651e-11
-4.41015e-10
-5.29861e-10
-2.74421e-10
5.28801e-11
2.03107e-10
1.80794e-10
5.53152e-11
-6.37166e-10
5.7476e-10
2.97061e-10
-1.75923e-09
1.80005e-09
7.81279e-09
-4.86998e-09
1.83603e-08
4.32964e-10
-1.59972e-10
-5.11718e-10
2.31766e-10
4.43103e-10
1.83878e-10
-1.26072e-10
-1.80482e-10
3.90686e-11
2.5026e-10
2.45362e-10
7.47759e-11
)
;
    }
    inlet
    {
        type            calculated;
        value           nonuniform List<scalar> 
20
(
-6.37166e-10
-1.56987e-10
-1.08658e-10
2.6078e-10
5.70123e-10
1.78368e-10
-3.05194e-10
-5.47602e-10
-2.52595e-10
3.80616e-10
4.70121e-10
-1.06636e-10
-5.51923e-10
-3.1164e-10
2.61103e-10
7.3915e-10
5.93007e-10
4.22054e-10
-3.18725e-11
-8.63964e-10
)
;
    }
    outlet
    {
        type            calculated;
        value           uniform 0;
    }
    frontAndBack
    {
        type            empty;
    }
}


// ************************************************************************* //
