/*--------------------------------*- C++ -*----------------------------------*\
  =========                 |
  \\      /  F ield         | OpenFOAM: The Open Source CFD Toolbox
   \\    /   O peration     | Website:  https://openfoam.org
    \\  /    A nd           | Version:  7
     \\/     M anipulation  |
\*---------------------------------------------------------------------------*/
FoamFile
{
    version     2.0;
    format      ascii;
    class       surfaceScalarField;
    location    "90";
    object      ddtCorrDdt0(phi);
}
// * * * * * * * * * * * * * * * * * * * * * * * * * * * * * * * * * * * * * //

dimensions      [0 4 -2 0 0 0 0];

internalField   nonuniform List<scalar> 
760
(
-1.63691e-12
-1.42562e-12
-1.17484e-12
1.71951e-13
-9.46167e-14
1.05483e-12
2.59851e-12
1.33567e-13
2.25433e-12
-4.23749e-13
8.00696e-12
-1.98746e-10
1.71633e-12
2.64176e-10
-1.02036e-12
-3.56801e-10
-3.61742e-14
-1.15553e-11
-1.34549e-12
-5.07194e-13
-4.23668e-13
-1.25986e-13
3.67946e-13
2.46465e-13
1.85383e-13
1.16644e-13
-1.46019e-13
-7.61048e-14
-3.93267e-13
-1.55697e-13
-4.15262e-13
-1.56687e-13
2.37039e-15
2.62345e-14
4.37731e-13
2.70334e-13
3.41183e-13
3.30156e-13
1.80379e-13
-9.13563e-14
-2.29109e-12
5.99565e-13
-6.33884e-14
-8.82661e-13
6.17186e-13
5.87881e-13
1.51129e-12
-6.63375e-12
-1.42165e-12
2.2624e-12
4.69344e-12
-8.19275e-12
-1.79384e-11
-1.77967e-12
-1.37679e-12
1.36684e-12
1.39009e-12
-3.12121e-13
-4.51758e-13
3.22635e-13
2.53756e-13
1.35548e-13
5.80121e-13
-1.59062e-13
1.81196e-13
-1.77956e-13
-1.02183e-13
-1.99449e-13
-1.82633e-13
-1.74501e-13
-1.94258e-13
9.19931e-14
6.13348e-14
3.19161e-13
3.80156e-13
6.62243e-14
3.92626e-13
2.11721e-13
1.61435e-12
1.36905e-13
8.98259e-13
-1.29273e-13
5.65523e-13
-3.49356e-13
-1.9781e-12
4.62096e-13
2.61073e-12
-9.63409e-13
-7.01313e-12
2.07618e-12
2.96439e-13
-1.92123e-13
5.38688e-12
5.40354e-12
-1.28929e-12
9.01867e-13
5.20348e-13
-4.45434e-13
7.6442e-13
7.64976e-13
-4.62604e-13
3.23723e-13
-6.35109e-13
-1.12927e-13
-2.82185e-13
-1.92779e-13
-5.08401e-14
-1.82454e-13
2.07366e-13
-1.3283e-13
3.91637e-13
8.77597e-14
2.22196e-13
1.75083e-13
-2.95748e-13
5.09341e-14
8.67583e-14
8.29586e-13
7.90189e-13
9.70979e-14
-5.21222e-15
9.78876e-13
-6.13061e-13
-1.99598e-12
-8.24411e-13
2.66979e-12
2.47824e-13
-4.9063e-12
-1.84918e-12
5.81947e-12
3.26295e-12
3.32293e-13
1.44362e-12
-2.01368e-12
-2.04776e-12
1.5342e-12
1.09076e-12
2.41104e-13
7.18359e-13
-9.29075e-13
-3.98037e-13
-6.1642e-13
-3.06523e-13
-1.59763e-13
-1.43201e-13
7.92005e-14
-1.88495e-13
3.74156e-13
-1.08515e-13
4.00176e-13
-1.62169e-14
-2.02071e-14
-3.12655e-13
-4.64457e-13
-5.73637e-13
-1.61745e-13
2.67548e-14
5.77274e-13
-2.99956e-13
-8.76599e-14
2.21527e-13
-2.29712e-13
-7.73596e-13
-1.40268e-12
3.18488e-13
5.76838e-13
-5.74667e-13
-1.73737e-12
2.61259e-12
1.3403e-12
-3.1712e-12
-2.00202e-12
1.21007e-12
3.51882e-13
1.08225e-12
1.1731e-12
-1.08709e-12
-5.43137e-13
-7.42509e-13
-7.65141e-13
-1.27489e-13
-4.35599e-14
2.92805e-14
8.90905e-14
2.58367e-13
-1.1516e-13
3.8443e-13
-1.50738e-13
3.77337e-14
-2.18571e-13
-3.14198e-13
-7.05919e-13
-1.92597e-13
-1.00819e-12
-3.25966e-13
-4.27744e-13
7.2388e-14
-1.75716e-13
-1.37627e-13
-7.59025e-13
7.38993e-14
8.45976e-13
-6.09401e-13
-1.20725e-12
-6.33636e-13
1.81129e-12
-4.41059e-14
-5.69105e-13
-2.77758e-13
-6.80518e-13
-7.68934e-13
1.91375e-12
1.08558e-12
-9.52478e-13
-5.41833e-13
-1.39763e-12
-1.11354e-12
2.22418e-13
1.68872e-14
2.6173e-13
3.15504e-13
-1.30015e-13
8.39893e-14
1.9171e-13
-4.18462e-14
1.79186e-13
-2.64395e-13
-5.11332e-13
-4.63322e-13
-5.92571e-13
-6.63636e-13
3.99047e-13
-6.83339e-13
-1.14939e-13
-5.56597e-13
-3.48401e-13
5.53053e-14
-5.65125e-14
-9.4513e-13
-3.91057e-13
9.30542e-13
6.38079e-13
-5.61765e-13
-7.1147e-13
1.40403e-12
2.92811e-13
-1.16426e-12
-9.12234e-13
9.21091e-13
-1.56729e-13
-2.22756e-13
-7.25743e-14
-1.66716e-12
-1.03869e-12
1.42791e-13
2.58133e-13
9.97033e-13
8.98291e-13
3.12811e-13
3.94492e-14
-1.85277e-13
-3.01137e-13
-2.80527e-14
-6.38179e-14
-2.02817e-13
-3.6518e-13
-9.09124e-13
-6.54273e-13
-8.26904e-13
-3.04846e-13
6.31903e-13
3.11268e-13
4.89891e-13
-1.06512e-13
-4.8264e-13
-2.37694e-13
-4.37413e-14
1.61405e-13
-3.39259e-13
-1.22669e-13
9.89799e-14
5.82261e-13
2.50651e-14
1.30143e-13
4.61751e-14
-4.26842e-13
-4.28661e-13
7.86241e-13
1.97814e-13
-1.28435e-12
-3.98275e-13
-6.49983e-16
3.61714e-13
1.08738e-12
9.89688e-13
9.29115e-14
3.10655e-13
-1.08407e-14
-2.7658e-13
1.74054e-13
-3.94015e-13
-1.96219e-13
-3.47941e-13
-5.26835e-13
-6.16308e-13
-5.97869e-13
-6.73548e-13
-3.21256e-13
4.58572e-14
4.83746e-13
1.01193e-12
9.12904e-13
4.10543e-13
-5.04689e-15
-3.27178e-13
-5.98885e-13
5.76422e-13
-5.27662e-14
-2.94015e-13
-5.09872e-13
4.62743e-13
1.10914e-13
-4.76245e-13
-3.91422e-13
8.08943e-14
-1.05974e-13
6.72482e-14
8.0772e-14
-4.08611e-13
-2.44223e-13
7.23795e-13
8.51717e-13
2.95326e-13
4.37118e-13
-5.46423e-13
-1.94221e-13
6.08751e-14
1.64491e-13
4.49438e-13
-1.53518e-13
-2.00013e-13
-8.22872e-13
-5.14797e-13
-9.50256e-13
8.31233e-14
-4.68879e-13
4.68895e-13
2.44319e-13
8.25822e-15
8.31085e-13
7.35278e-13
-1.20537e-13
5.60595e-14
3.1955e-13
-2.32565e-13
1.48292e-13
-1.59113e-13
1.87076e-13
-4.32675e-13
-3.38386e-13
-3.75701e-13
-4.13673e-13
-4.91666e-13
2.38849e-14
-3.1287e-13
-3.73327e-13
-1.17172e-13
6.70852e-13
-1.24269e-13
1.15621e-13
2.31217e-13
-3.87362e-13
1.73804e-13
3.04333e-14
-8.60613e-15
-1.66944e-13
2.46247e-14
-3.07232e-13
-1.96922e-13
-1.09312e-13
-4.9562e-13
2.09922e-13
-6.02988e-13
8.57086e-13
-3.75958e-13
8.92731e-13
-2.10821e-13
-4.52126e-13
-1.18203e-13
1.9454e-13
-3.29344e-13
-1.09228e-13
4.7882e-13
4.45486e-13
-3.74896e-14
-3.76968e-13
2.94068e-13
-2.20073e-13
-4.79887e-13
-9.44956e-13
-3.04676e-13
-4.05808e-13
7.25078e-14
-5.02848e-13
-5.33488e-13
-2.02108e-13
8.9983e-13
1.54631e-13
-4.54995e-14
-4.98407e-13
-5.36476e-13
1.13192e-13
2.54217e-13
4.15984e-13
-1.84145e-13
-3.10771e-13
-5.16862e-13
-3.73242e-13
-5.12002e-14
5.81787e-14
4.62072e-13
-6.34393e-14
9.56339e-13
-3.67375e-13
7.8113e-13
-7.92527e-13
-5.64169e-13
-1.05029e-12
-3.08013e-13
3.18577e-13
2.88826e-13
-2.12266e-13
3.16079e-14
2.73707e-13
-3.31803e-13
-2.12455e-13
-4.64388e-13
2.93067e-13
-9.16181e-13
-3.68226e-13
-4.09255e-13
3.14185e-13
-1.48165e-13
-3.76337e-13
-2.77913e-13
5.93089e-14
6.05176e-13
6.75407e-13
-3.89978e-13
-1.30492e-13
-4.20346e-13
-4.54027e-13
3.84229e-13
5.13859e-14
2.10052e-13
2.33006e-13
-1.69609e-13
-1.58545e-13
-2.28547e-13
-1.9948e-13
-2.44067e-13
3.00234e-13
-2.21329e-13
4.31922e-13
-6.96805e-13
-1.02368e-13
-1.21993e-12
-4.58406e-13
1.88191e-13
3.28373e-13
-5.13903e-13
-3.27924e-13
3.27887e-13
-4.27764e-14
-4.64731e-13
-1.05533e-12
9.16996e-13
1.12907e-13
-2.04789e-13
-5.19164e-13
3.00941e-14
5.92866e-13
2.77666e-13
-2.42931e-13
-1.29876e-12
6.19533e-13
6.38573e-13
9.24826e-13
9.73699e-13
-4.45047e-13
-3.96012e-13
-5.30477e-13
-1.21306e-13
2.21731e-13
3.02092e-13
1.11937e-13
-1.50606e-13
-3.92269e-13
-3.89945e-13
-3.94157e-13
-3.4075e-13
-1.0423e-13
-2.51949e-13
-3.16372e-13
2.90989e-13
-6.25043e-13
-1.40081e-13
-4.11269e-13
3.68198e-15
-1.20021e-13
-2.94658e-13
-5.74303e-13
-3.28229e-13
4.68184e-13
-1.4457e-13
7.98232e-14
8.59944e-13
8.07063e-13
-8.95664e-13
-9.41865e-13
2.86122e-13
1.15419e-12
-9.62629e-14
-1.20777e-12
-7.88032e-13
-1.12528e-12
1.27259e-12
8.7253e-13
8.37829e-13
7.16871e-13
-4.32282e-13
5.86005e-14
-3.03526e-13
-1.64397e-13
-1.56141e-13
-9.05785e-14
-3.28427e-13
-1.3283e-13
-3.38987e-13
-6.08026e-13
-1.35657e-13
-6.28312e-13
3.12887e-14
5.47484e-13
2.75178e-13
3.96233e-13
-5.99564e-13
-5.41067e-13
3.88908e-14
-2.30901e-13
-7.12745e-13
1.02352e-15
1.25115e-12
1.14376e-12
-1.5952e-12
-7.95851e-13
1.96581e-12
1.48209e-13
-1.52371e-12
-8.93681e-13
5.56129e-13
1.14048e-12
1.10986e-12
-1.29859e-12
-1.59695e-12
-4.03855e-13
-5.79779e-13
9.45897e-13
9.78458e-13
3.25426e-13
5.87616e-13
-3.3915e-13
-4.1362e-14
-3.64257e-13
1.30202e-13
-2.09882e-13
6.00866e-14
-3.045e-13
-5.75691e-13
-2.41982e-13
-6.09282e-13
2.02248e-13
3.16719e-13
6.71194e-13
5.68067e-13
-3.64136e-13
-9.57092e-13
6.62119e-14
-1.10913e-13
1.74815e-13
4.59383e-13
7.81802e-14
6.97544e-13
-1.21278e-12
-1.63671e-12
1.25576e-12
1.86158e-12
1.56851e-13
-4.21235e-12
-2.08904e-12
2.14907e-12
2.16319e-12
8.78952e-13
-3.32806e-14
-1.21611e-12
-1.23296e-12
1.12316e-13
1.55396e-13
5.99044e-13
6.08903e-13
-4.62698e-14
2.95916e-13
-3.54532e-13
2.68847e-13
-2.47439e-13
1.86584e-13
-3.67094e-13
-1.68151e-13
-3.59833e-13
-2.9095e-13
4.72765e-14
-9.3387e-14
4.22907e-13
3.80946e-13
6.89647e-13
-4.13277e-13
4.48654e-13
1.1536e-13
9.67383e-13
1.34879e-13
-2.0105e-12
-9.61373e-13
1.97695e-12
-2.49763e-13
-3.67539e-12
-8.57415e-13
6.28866e-12
-1.41347e-12
-3.59486e-12
-1.09741e-11
-2.1759e-13
1.55214e-12
1.49193e-12
1.57498e-13
-5.49936e-13
-3.67282e-13
-5.36012e-13
2.84516e-13
2.95123e-13
1.53423e-13
5.14258e-13
-1.87564e-13
3.57876e-13
-2.50318e-13
2.63928e-13
-3.04447e-13
1.73278e-13
-3.38865e-13
-1.01724e-13
-2.49913e-13
-4.49362e-13
-4.9617e-14
1.3305e-13
1.71369e-12
8.36127e-13
1.45944e-12
1.4998e-13
5.15047e-13
-1.21593e-12
-3.34038e-12
-2.37777e-12
4.33775e-12
1.50767e-12
-8.97535e-12
-4.4399e-12
4.9185e-12
1.10119e-12
4.80522e-12
1.97436e-11
-1.45625e-12
-1.57843e-12
1.02184e-12
6.52792e-13
4.33106e-14
-1.85381e-13
-6.26147e-13
-2.81132e-14
8.42876e-15
2.63805e-13
4.65361e-13
1.20918e-13
3.69465e-13
-7.00267e-14
2.24775e-13
-1.2046e-13
2.16909e-13
-2.15862e-13
5.66981e-15
-3.91875e-13
-4.40638e-13
-3.48487e-13
-5.39404e-14
-8.40516e-15
1.46302e-12
6.60522e-13
-1.83803e-13
-5.92619e-13
-1.91257e-12
-7.66895e-13
-5.587e-13
7.02816e-13
1.59282e-12
-1.20823e-11
2.99981e-10
7.39059e-12
4.5174e-10
-8.69691e-12
-2.42645e-10
-9.94289e-14
-1.2954e-11
-4.52544e-13
1.77604e-13
3.83055e-13
-2.9057e-13
1.38816e-13
3.48812e-15
-2.55864e-16
3.65831e-13
1.23472e-13
2.77985e-13
1.33559e-13
4.07305e-14
4.36912e-14
-5.91444e-14
9.83012e-14
-1.31603e-13
1.46064e-13
-2.8232e-13
-1.25709e-13
-2.87822e-13
-6.84655e-14
-1.13887e-12
-2.06025e-12
-3.1204e-13
4.7183e-12
-5.17588e-12
2.13517e-11
-1.69013e-11
8.02924e-12
1.41855e-13
-2.7184e-13
1.19986e-12
6.03374e-13
-4.08937e-13
-4.75632e-13
-1.61118e-13
-3.9926e-14
1.01316e-13
2.51137e-13
9.40809e-14
)
;

boundaryField
{
    sides
    {
        type            calculated;
        value           uniform 0;
    }
    inlet
    {
        type            calculated;
        value           uniform 0;
    }
    outlet
    {
        type            calculated;
        value           nonuniform List<scalar> 
20
(
1.08925e-13
-2.39887e-13
-6.58355e-13
-6.54257e-13
-4.57081e-14
1.06262e-12
1.63791e-12
1.01618e-12
-4.14047e-13
-1.45782e-12
-1.49806e-12
-4.85024e-13
7.6036e-13
1.45616e-12
9.64509e-13
5.17906e-14
-5.90614e-13
-6.30164e-13
-3.30159e-13
-5.53311e-14
)
;
    }
    frontAndBack
    {
        type            empty;
        value           nonuniform 0();
    }
}


// ************************************************************************* //
