/*--------------------------------*- C++ -*----------------------------------*\
  =========                 |
  \\      /  F ield         | OpenFOAM: The Open Source CFD Toolbox
   \\    /   O peration     | Website:  https://openfoam.org
    \\  /    A nd           | Version:  7
     \\/     M anipulation  |
\*---------------------------------------------------------------------------*/
FoamFile
{
    version     2.0;
    format      ascii;
    class       surfaceScalarField;
    location    "90";
    object      phi_0;
}
// * * * * * * * * * * * * * * * * * * * * * * * * * * * * * * * * * * * * * //

dimensions      [0 4 -1 0 0 0 0];

internalField   nonuniform List<scalar> 
760
(
4.99999e-06
9.99236e-12
4.99999e-06
-4.3939e-12
5.00001e-06
-1.2813e-11
5.00003e-06
-1.93664e-11
5.00005e-06
-2.6707e-11
5.00009e-06
-3.70586e-11
5.00013e-06
-3.87693e-11
5.00018e-06
-5.93473e-11
5.00025e-06
-6.2895e-11
5.00032e-06
-7.81492e-11
5.00041e-06
-9.00972e-11
5.00053e-06
-1.1403e-10
5.00066e-06
-1.26982e-10
5.00082e-06
-1.67916e-10
5.001e-06
-1.78122e-10
5.00126e-06
-2.56889e-10
5.00151e-06
-2.56181e-10
5.00195e-06
-4.31742e-10
5.00236e-06
-4.14096e-10
-8.9156e-10
5.00002e-06
-1.17895e-11
5.00004e-06
-1.9018e-11
5.00005e-06
-2.93183e-11
5.00008e-06
-4.17261e-11
5.0001e-06
-5.4274e-11
5.00014e-06
-6.89141e-11
5.00018e-06
-8.40454e-11
5.00023e-06
-1.04187e-10
5.00029e-06
-1.23599e-10
5.00037e-06
-1.53187e-10
5.00045e-06
-1.77064e-10
5.00056e-06
-2.22177e-10
5.00069e-06
-2.50465e-10
5.00084e-06
-3.24262e-10
5.00102e-06
-3.54005e-10
5.00125e-06
-4.86161e-10
5.0015e-06
-5.0924e-10
5.00184e-06
-7.67915e-10
5.00218e-06
-7.59843e-10
-1.26193e-09
4.99999e-06
-4.59373e-12
4.99999e-06
-2.03723e-11
5e-06
-3.76648e-11
5.00002e-06
-5.6729e-11
5.00004e-06
-7.6412e-11
5.00007e-06
-9.91672e-11
5.00011e-06
-1.22202e-10
5.00016e-06
-1.51993e-10
5.00021e-06
-1.82548e-10
5.00029e-06
-2.23775e-10
5.00037e-06
-2.62417e-10
5.00047e-06
-3.23461e-10
5.00059e-06
-3.72094e-10
5.00074e-06
-4.6762e-10
5.00091e-06
-5.25806e-10
5.00111e-06
-6.86812e-10
5.00135e-06
-7.47924e-10
5.00162e-06
-1.04113e-09
5.00194e-06
-1.08305e-09
-1.68942e-09
5.00001e-06
-1.26373e-11
5.00002e-06
-3.33499e-11
5.00004e-06
-5.4374e-11
5.00006e-06
-7.76831e-11
5.00008e-06
-1.01846e-10
5.00012e-06
-1.30421e-10
5.00015e-06
-1.59998e-10
5.0002e-06
-1.98041e-10
5.00025e-06
-2.36116e-10
5.00032e-06
-2.88761e-10
5.00039e-06
-3.38537e-10
5.00048e-06
-4.15458e-10
5.00059e-06
-4.78474e-10
5.00072e-06
-5.96504e-10
5.00087e-06
-6.72848e-10
5.00105e-06
-8.65133e-10
5.00124e-06
-9.46896e-10
5.00148e-06
-1.27992e-09
5.00173e-06
-1.33122e-09
-1.89785e-09
5e-06
-1.17208e-11
5e-06
-3.65112e-11
5.00001e-06
-6.20445e-11
5.00002e-06
-9.00681e-11
5.00004e-06
-1.19917e-10
5.00006e-06
-1.54293e-10
5.0001e-06
-1.91283e-10
5.00013e-06
-2.36342e-10
5.00018e-06
-2.83415e-10
5.00024e-06
-3.45556e-10
5.00031e-06
-4.06872e-10
5.00039e-06
-4.9569e-10
5.00048e-06
-5.74217e-10
5.00059e-06
-7.07295e-10
5.00072e-06
-8.03547e-10
5.00087e-06
-1.01262e-09
5.00104e-06
-1.11648e-09
5.00122e-06
-1.46151e-09
5.00142e-06
-1.53259e-09
-2.16264e-09
5e-06
-1.40024e-11
5.00001e-06
-4.32276e-11
5.00002e-06
-7.29184e-11
5.00003e-06
-1.04817e-10
5.00005e-06
-1.38799e-10
5.00008e-06
-1.77719e-10
5.00011e-06
-2.19742e-10
5.00014e-06
-2.70714e-10
5.00018e-06
-3.24497e-10
5.00023e-06
-3.94613e-10
5.00029e-06
-4.64255e-10
5.00036e-06
-5.63871e-10
5.00043e-06
-6.53149e-10
5.00053e-06
-8.00072e-10
5.00063e-06
-9.08732e-10
5.00075e-06
-1.13447e-09
5.00089e-06
-1.25108e-09
5.00104e-06
-1.61581e-09
5.00121e-06
-1.69701e-09
-2.29332e-09
5e-06
-1.57457e-11
5.00001e-06
-4.76511e-11
5.00001e-06
-8.02193e-11
5.00002e-06
-1.14905e-10
5.00004e-06
-1.52012e-10
5.00005e-06
-1.94814e-10
5.00008e-06
-2.41081e-10
5.0001e-06
-2.96954e-10
5.00013e-06
-3.56421e-10
5.00017e-06
-4.32641e-10
5.00022e-06
-5.09676e-10
5.00027e-06
-6.17273e-10
5.00033e-06
-7.15835e-10
5.00041e-06
-8.72166e-10
5.00049e-06
-9.91827e-10
5.00058e-06
-1.22769e-09
5.00069e-06
-1.35544e-09
5.0008e-06
-1.72646e-09
5.00091e-06
-1.81193e-09
-2.4419e-09
5e-06
-1.67217e-11
5e-06
-5.06724e-11
5.00001e-06
-8.52323e-11
5.00002e-06
-1.22536e-10
5.00003e-06
-1.62237e-10
5.00004e-06
-2.07962e-10
5.00006e-06
-2.57308e-10
5.00008e-06
-3.16847e-10
5.0001e-06
-3.8022e-10
5.00013e-06
-4.61044e-10
5.00016e-06
-5.43229e-10
5.0002e-06
-6.56587e-10
5.00025e-06
-7.61239e-10
5.0003e-06
-9.24563e-10
5.00036e-06
-1.05103e-09
5.00042e-06
-1.29436e-09
5.0005e-06
-1.42844e-09
5.00058e-06
-1.80717e-09
5.00067e-06
-1.90018e-09
-2.51598e-09
5e-06
-1.7277e-11
5e-06
-5.25149e-11
5.00001e-06
-8.84048e-11
5.00001e-06
-1.27276e-10
5.00002e-06
-1.68649e-10
5.00002e-06
-2.1605e-10
5.00003e-06
-2.67221e-10
5.00005e-06
-3.28877e-10
5.00006e-06
-3.94582e-10
5.00008e-06
-4.78165e-10
5.0001e-06
-5.6339e-10
5.00012e-06
-6.80073e-10
5.00015e-06
-7.88447e-10
5.00018e-06
-9.5585e-10
5.00022e-06
-1.08648e-09
5.00026e-06
-1.33405e-09
5.0003e-06
-1.47218e-09
5.00035e-06
-1.85429e-09
5.00039e-06
-1.94755e-09
-2.57194e-09
5e-06
-1.75359e-11
5e-06
-5.31466e-11
5e-06
-8.95038e-11
5e-06
-1.2883e-10
5.00001e-06
-1.70745e-10
5.00001e-06
-2.18672e-10
5.00001e-06
-2.70509e-10
5.00002e-06
-3.32846e-10
5.00002e-06
-3.99395e-10
5.00003e-06
-4.83872e-10
5.00003e-06
-5.7008e-10
5.00004e-06
-6.87906e-10
5.00005e-06
-7.97552e-10
5.00006e-06
-9.66237e-10
5.00007e-06
-1.09836e-09
5.00009e-06
-1.34729e-09
5.0001e-06
-1.48675e-09
5.00012e-06
-1.86958e-09
5.00013e-06
-1.96467e-09
-2.58819e-09
5e-06
-1.74167e-11
5e-06
-5.25242e-11
5e-06
-8.84103e-11
5e-06
-1.27162e-10
4.99999e-06
-1.68548e-10
4.99999e-06
-2.15896e-10
4.99999e-06
-2.67198e-10
4.99998e-06
-3.28821e-10
4.99998e-06
-3.94635e-10
4.99997e-06
-4.78194e-10
4.99997e-06
-5.63311e-10
4.99996e-06
-6.80056e-10
4.99995e-06
-7.88423e-10
4.99994e-06
-9.55742e-10
4.99993e-06
-1.08647e-09
4.99991e-06
-1.33415e-09
4.9999e-06
-1.47226e-09
4.99988e-06
-1.85421e-09
4.99987e-06
-1.94746e-09
-2.57179e-09
5e-06
-1.6815e-11
5e-06
-5.06933e-11
4.99999e-06
-8.52531e-11
4.99999e-06
-1.22429e-10
4.99998e-06
-1.62223e-10
4.99998e-06
-2.07846e-10
4.99997e-06
-2.5732e-10
4.99995e-06
-3.16829e-10
4.99994e-06
-3.80261e-10
4.99992e-06
-4.61153e-10
4.9999e-06
-5.43205e-10
4.99988e-06
-6.565e-10
4.99985e-06
-7.61167e-10
4.99982e-06
-9.24479e-10
4.99978e-06
-1.05104e-09
4.99974e-06
-1.29441e-09
4.9997e-06
-1.42847e-09
4.99965e-06
-1.80702e-09
4.99961e-06
-1.90001e-09
-2.51575e-09
5e-06
-1.56807e-11
5e-06
-4.7658e-11
4.99999e-06
-8.02028e-11
4.99998e-06
-1.15009e-10
4.99997e-06
-1.52136e-10
4.99996e-06
-1.94846e-10
4.99994e-06
-2.41044e-10
4.99992e-06
-2.96989e-10
4.9999e-06
-3.56336e-10
4.99987e-06
-4.32705e-10
4.99984e-06
-5.0982e-10
4.9998e-06
-6.17242e-10
4.99975e-06
-7.15738e-10
4.9997e-06
-8.72079e-10
4.99964e-06
-9.91795e-10
4.99958e-06
-1.22762e-09
4.9995e-06
-1.3554e-09
4.99942e-06
-1.72627e-09
4.99933e-06
-1.81175e-09
-2.44153e-09
5e-06
-1.38362e-11
4.99999e-06
-4.31738e-11
4.99999e-06
-7.29453e-11
4.99998e-06
-1.05062e-10
4.99996e-06
-1.38788e-10
4.99995e-06
-1.77846e-10
4.99992e-06
-2.19569e-10
4.9999e-06
-2.70748e-10
4.99987e-06
-3.24372e-10
4.99983e-06
-3.94421e-10
4.99978e-06
-4.64321e-10
4.99973e-06
-5.63943e-10
4.99967e-06
-6.53141e-10
4.99959e-06
-7.99973e-10
4.99951e-06
-9.08616e-10
4.99942e-06
-1.13426e-09
4.99931e-06
-1.25095e-09
4.9992e-06
-1.61558e-09
4.99909e-06
-1.69684e-09
-2.29293e-09
5e-06
-1.1611e-11
4.99999e-06
-3.64885e-11
4.99998e-06
-6.21148e-11
4.99997e-06
-9.00837e-11
4.99995e-06
-1.19823e-10
4.99992e-06
-1.54459e-10
4.99989e-06
-1.91089e-10
4.99986e-06
-2.36284e-10
4.99982e-06
-2.8353e-10
4.99977e-06
-3.4539e-10
4.99971e-06
-4.06766e-10
4.99964e-06
-4.95734e-10
4.99957e-06
-5.74305e-10
4.99947e-06
-7.07259e-10
4.99937e-06
-8.03464e-10
4.99925e-06
-1.01241e-09
4.99911e-06
-1.11637e-09
4.99896e-06
-1.4613e-09
4.99879e-06
-1.53251e-09
-2.16224e-09
5e-06
-1.27e-11
5e-06
-3.33948e-11
4.99999e-06
-5.43715e-11
4.99998e-06
-7.74186e-11
4.99996e-06
-1.01839e-10
4.99994e-06
-1.30267e-10
4.9999e-06
-1.60153e-10
4.99987e-06
-1.97576e-10
4.99982e-06
-2.36259e-10
4.99976e-06
-2.88814e-10
4.99969e-06
-3.38408e-10
4.99961e-06
-4.15391e-10
4.99952e-06
-4.7853e-10
4.99941e-06
-5.96491e-10
4.99928e-06
-6.72819e-10
4.99913e-06
-8.64929e-10
4.99896e-06
-9.46774e-10
4.99878e-06
-1.27967e-09
4.99858e-06
-1.33109e-09
-1.89737e-09
4.99999e-06
-4.76235e-12
4.99998e-06
-2.0407e-11
4.99996e-06
-3.75735e-11
4.99994e-06
-5.65489e-11
4.99992e-06
-7.65118e-11
4.99988e-06
-9.89854e-11
4.99985e-06
-1.23228e-10
4.9998e-06
-1.52338e-10
4.99975e-06
-1.82398e-10
4.99968e-06
-2.23923e-10
4.99961e-06
-2.62456e-10
4.99952e-06
-3.23417e-10
4.99941e-06
-3.72134e-10
4.99928e-06
-4.67649e-10
4.99913e-06
-5.25887e-10
4.99895e-06
-6.86729e-10
4.99876e-06
-7.47898e-10
4.99852e-06
-1.04091e-09
4.99827e-06
-1.08296e-09
-1.68903e-09
5.00001e-06
-1.18779e-11
5.00001e-06
-1.89361e-11
5e-06
-2.91955e-11
4.99998e-06
-4.18857e-11
4.99996e-06
-5.44375e-11
4.99993e-06
-6.92103e-11
4.99989e-06
-8.48969e-11
4.99984e-06
-1.0521e-10
4.99979e-06
-1.23631e-10
4.99971e-06
-1.53224e-10
4.99963e-06
-1.77148e-10
4.99953e-06
-2.22107e-10
4.99941e-06
-2.50418e-10
4.99926e-06
-3.24201e-10
4.99909e-06
-3.54079e-10
4.99889e-06
-4.86081e-10
4.99865e-06
-5.09242e-10
4.99838e-06
-7.67605e-10
4.99805e-06
-7.59671e-10
-1.26142e-09
4.99998e-06
9.96983e-12
4.99996e-06
-4.26663e-12
4.99995e-06
-1.28988e-11
4.99992e-06
-1.97579e-11
4.9999e-06
-2.66407e-11
4.99986e-06
-3.453e-11
4.99982e-06
-4.32573e-11
4.99977e-06
-4.69061e-11
4.99971e-06
-6.26572e-11
4.99963e-06
-7.82385e-11
4.99955e-06
-9.02106e-11
4.99944e-06
-1.14065e-10
4.99932e-06
-1.27025e-10
4.99916e-06
-1.67975e-10
4.99898e-06
-1.78267e-10
4.99875e-06
-2.56985e-10
4.9985e-06
-2.56294e-10
4.99817e-06
-4.31701e-10
4.99782e-06
-4.14099e-10
-8.91528e-10
5.00001e-06
5.00001e-06
4.99999e-06
4.99997e-06
4.99995e-06
4.99991e-06
4.99987e-06
4.99982e-06
4.99975e-06
4.99968e-06
4.99959e-06
4.99947e-06
4.99934e-06
4.99918e-06
4.999e-06
4.99874e-06
4.99848e-06
4.99805e-06
4.99764e-06
)
;

boundaryField
{
    sides
    {
        type            calculated;
        value           uniform 0;
    }
    inlet
    {
        type            calculated;
        value           nonuniform List<scalar> 
20
(
-5e-06
-5e-06
-5e-06
-5e-06
-5e-06
-5e-06
-5e-06
-5e-06
-5e-06
-5e-06
-5e-06
-5e-06
-5e-06
-5e-06
-5e-06
-5e-06
-5e-06
-5e-06
-5e-06
-5e-06
)
;
    }
    outlet
    {
        type            calculated;
        value           nonuniform List<scalar> 
20
(
5.00325e-06
5.00255e-06
5.00237e-06
5.00194e-06
5.00169e-06
5.00134e-06
5.00106e-06
5.00074e-06
5.00045e-06
5.00015e-06
4.99985e-06
4.99955e-06
4.99926e-06
4.99894e-06
4.99866e-06
4.99831e-06
4.99806e-06
4.99763e-06
4.99745e-06
4.99675e-06
)
;
    }
    frontAndBack
    {
        type            empty;
        value           nonuniform 0();
    }
}


// ************************************************************************* //
