/*--------------------------------*- C++ -*----------------------------------*\
  =========                 |
  \\      /  F ield         | OpenFOAM: The Open Source CFD Toolbox
   \\    /   O peration     | Website:  https://openfoam.org
    \\  /    A nd           | Version:  7
     \\/     M anipulation  |
\*---------------------------------------------------------------------------*/
FoamFile
{
    version     2.0;
    format      ascii;
    class       volVectorField;
    location    "61";
    object      ddt0(hU);
}
// * * * * * * * * * * * * * * * * * * * * * * * * * * * * * * * * * * * * * //

dimensions      [0 2 -2 0 0 0 0];

internalField   nonuniform List<vector> 
400
(
(7.37641e-11 -8.83999e-11 0)
(-2.2989e-10 1.92935e-11 0)
(-1.99646e-10 -1.36604e-10 0)
(-2.55554e-10 -4.89523e-10 0)
(-4.84248e-10 -6.41527e-10 0)
(4.28455e-10 2.79491e-10 0)
(1.34319e-09 -4.83582e-10 0)
(-5.22039e-09 -2.70917e-09 0)
(-8.80167e-10 3.50749e-10 0)
(3.17409e-10 -5.09096e-11 0)
(-1.80435e-10 1.50761e-10 0)
(-4.3911e-11 2.79848e-10 0)
(-4.69403e-11 2.7026e-10 0)
(-1.09026e-10 1.41763e-10 0)
(-1.87059e-10 -2.38051e-11 0)
(-3.24616e-10 -2.1861e-10 0)
(-2.35167e-10 -3.22892e-10 0)
(-7.09854e-11 -2.96238e-10 0)
(2.91514e-10 -2.63314e-10 0)
(4.91668e-10 -1.06579e-11 0)
(5.96852e-11 6.62385e-12 0)
(-6.76324e-11 1.71044e-10 0)
(-3.91201e-10 -9.44806e-11 0)
(-3.35468e-10 -1.91447e-10 0)
(-3.76956e-10 -5.33212e-10 0)
(-5.52889e-10 7.79515e-10 0)
(-1.04433e-09 -8.37308e-10 0)
(4.10022e-09 -1.08253e-09 0)
(1.73702e-09 3.05742e-10 0)
(-2.21049e-10 -2.56128e-10 0)
(5.62273e-11 1.02907e-12 0)
(6.31762e-11 1.46934e-10 0)
(-7.87761e-11 1.67425e-10 0)
(-2.00305e-10 1.50208e-10 0)
(-2.87234e-10 6.51259e-11 0)
(-3.56356e-10 -5.89347e-11 0)
(-2.04686e-10 -1.45378e-10 0)
(-2.21998e-11 -1.19059e-10 0)
(2.79302e-10 -1.56988e-10 0)
(4.40984e-10 -8.32512e-11 0)
(-1.12319e-10 -4.52677e-11 0)
(-1.57699e-10 -4.32763e-11 0)
(-4.31882e-10 -2.49669e-10 0)
(-2.80575e-10 -1.54932e-10 0)
(-1.15978e-10 -6.10785e-10 0)
(-3.65995e-11 -4.18721e-10 0)
(-1.1539e-09 -1.01052e-09 0)
(9.02783e-10 1.06288e-09 0)
(-4.12102e-10 -4.717e-10 0)
(-1.29242e-10 -1.80726e-10 0)
(2.95473e-10 2.29196e-10 0)
(5.32516e-11 3.81185e-10 0)
(-1.88826e-10 4.33729e-10 0)
(-3.41904e-10 3.35246e-10 0)
(-4.4617e-10 1.05481e-10 0)
(-4.43586e-10 -2.3982e-10 0)
(-1.16084e-10 -4.99804e-10 0)
(1.19599e-10 -5.2854e-10 0)
(4.45924e-10 -5.89994e-10 0)
(5.3613e-10 -1.38736e-10 0)
(1.81972e-11 -2.16888e-10 0)
(-9.12275e-11 -2.18101e-10 0)
(-3.19029e-10 -1.69313e-10 0)
(-4.24774e-10 -2.77524e-10 0)
(-1.03685e-10 -4.01429e-10 0)
(-3.52034e-10 -9.73973e-10 0)
(-1.4584e-11 -3.74096e-10 0)
(4.2945e-10 -5.55507e-10 0)
(-2.56922e-10 -6.52818e-10 0)
(2.22201e-10 -4.26181e-11 0)
(4.02059e-10 2.65006e-10 0)
(6.03535e-11 3.44766e-10 0)
(-1.25049e-10 4.75196e-10 0)
(-2.80132e-10 3.86495e-10 0)
(-4.13106e-10 1.48697e-10 0)
(-3.92714e-10 -2.02963e-10 0)
(-1.02956e-10 -5.39105e-10 0)
(1.01682e-10 -6.58873e-10 0)
(2.97058e-10 -8.20747e-10 0)
(3.77349e-10 -2.41535e-10 0)
(1.42693e-10 -5.09732e-11 0)
(-2.49141e-11 -1.2924e-10 0)
(-1.16371e-10 -9.39717e-11 0)
(-3.04492e-10 -3.31645e-10 0)
(-7.14952e-11 -1.75869e-10 0)
(-4.38785e-10 -8.12092e-10 0)
(1.10279e-10 -2.35319e-10 0)
(-2.62112e-10 -5.99269e-10 0)
(-2.89219e-10 -4.0915e-10 0)
(3.85034e-10 1.38679e-10 0)
(6.97561e-11 2.24835e-10 0)
(-1.59567e-10 3.37776e-10 0)
(-1.15826e-10 5.47763e-10 0)
(-2.03467e-10 4.60041e-10 0)
(-2.53213e-10 2.31122e-10 0)
(-1.98259e-10 -8.51117e-11 0)
(-1.02017e-11 -4.63067e-10 0)
(7.71651e-11 -6.742e-10 0)
(1.99935e-10 -9.23833e-10 0)
(2.50599e-10 -3.04937e-10 0)
(1.32441e-10 8.70132e-11 0)
(-9.01605e-11 -1.57977e-10 0)
(-2.1021e-10 -3.18087e-10 0)
(-3.14194e-10 -7.24494e-10 0)
(-2.20816e-10 -7.86286e-10 0)
(-2.74883e-10 -1.01211e-09 0)
(8.54473e-11 -7.95473e-10 0)
(-2.38763e-10 -9.00181e-10 0)
(3.93251e-10 -2.52912e-10 0)
(4.28086e-10 3.63741e-11 0)
(-9.8292e-11 2.18066e-10 0)
(-7.20835e-11 5.99706e-10 0)
(-7.88961e-11 8.26037e-10 0)
(-3.02306e-10 6.18407e-10 0)
(-3.20891e-10 2.81541e-10 0)
(-2.39289e-10 -2.21477e-10 0)
(-1.03015e-10 -7.55069e-10 0)
(-4.67582e-11 -1.00453e-09 0)
(1.60337e-10 -1.25973e-09 0)
(2.85169e-10 -3.44633e-10 0)
(5.76695e-11 1.01935e-10 0)
(-8.86092e-11 -5.9098e-11 0)
(-1.93015e-10 -2.76363e-10 0)
(-1.53155e-10 -4.52604e-10 0)
(-2.26323e-10 -7.77083e-10 0)
(-8.4715e-11 -7.09383e-10 0)
(-1.41061e-10 -8.11614e-10 0)
(-7.96266e-11 -6.52757e-10 0)
(2.05531e-10 -2.7187e-10 0)
(-1.57877e-10 -2.53285e-10 0)
(-1.84307e-10 1.55586e-10 0)
(7.03207e-11 6.12849e-10 0)
(5.09092e-11 7.46727e-10 0)
(-3.02367e-11 5.8987e-10 0)
(4.66056e-11 3.37472e-10 0)
(4.99683e-11 -1.90512e-10 0)
(-6.54679e-11 -7.83633e-10 0)
(-1.78815e-10 -1.01519e-09 0)
(-1.45523e-10 -1.30563e-09 0)
(1.9579e-12 -4.29295e-10 0)
(-5.85597e-12 3.67675e-11 0)
(-7.53802e-11 -7.57649e-12 0)
(-2.05962e-10 -3.25525e-10 0)
(-1.39526e-10 -5.01718e-10 0)
(-2.05649e-10 -8.7636e-10 0)
(-2.0206e-11 -8.84989e-10 0)
(-1.21851e-10 -9.77086e-10 0)
(1.26076e-10 -6.75292e-10 0)
(7.0295e-11 -4.64561e-10 0)
(-9.16536e-11 -1.40039e-10 0)
(1.24704e-10 4.79023e-10 0)
(3.96422e-11 8.33386e-10 0)
(-1.4884e-10 9.08806e-10 0)
(-8.53222e-11 7.00198e-10 0)
(-6.25446e-12 2.9787e-10 0)
(-8.97581e-11 -4.48314e-10 0)
(-1.26739e-10 -1.13601e-09 0)
(-1.24669e-10 -1.31089e-09 0)
(2.14986e-11 -1.52066e-09 0)
(1.46615e-10 -4.33341e-10 0)
(-4.9353e-14 1.9494e-11 0)
(-3.60769e-11 -4.1303e-11 0)
(-1.36574e-10 -2.56304e-10 0)
(-1.06855e-10 -5.3331e-10 0)
(-7.35766e-11 -7.25461e-10 0)
(1.55146e-11 -8.68001e-10 0)
(-1.49272e-11 -8.79071e-10 0)
(7.94791e-11 -6.83012e-10 0)
(-4.33337e-11 -5.59728e-10 0)
(-9.00149e-12 -7.68917e-11 0)
(7.93673e-11 4.02792e-10 0)
(-9.96031e-11 6.75847e-10 0)
(-1.4088e-10 9.48011e-10 0)
(1.07929e-11 8.12979e-10 0)
(2.71464e-11 3.05664e-10 0)
(-7.29007e-11 -4.83947e-10 0)
(-7.55757e-11 -1.15122e-09 0)
(-2.12811e-12 -1.31571e-09 0)
(7.98552e-11 -1.58056e-09 0)
(1.08492e-10 -5.01635e-10 0)
(3.43784e-12 7.63773e-11 0)
(-2.86234e-11 -5.18826e-11 0)
(-1.43204e-11 -2.25227e-10 0)
(-3.583e-11 -5.24046e-10 0)
(3.7588e-11 -6.96638e-10 0)
(-7.57234e-12 -8.92759e-10 0)
(4.4055e-11 -9.00737e-10 0)
(-5.21862e-11 -7.48025e-10 0)
(-4.07376e-11 -5.37584e-10 0)
(6.51947e-11 -3.70221e-11 0)
(-1.73116e-12 3.92855e-10 0)
(2.52544e-11 7.02638e-10 0)
(2.80004e-11 1.01935e-09 0)
(-1.22522e-10 8.45098e-10 0)
(-2.14405e-10 2.91441e-10 0)
(-1.68055e-10 -4.99049e-10 0)
(-4.92514e-11 -1.15205e-09 0)
(3.0186e-11 -1.32655e-09 0)
(1.54331e-10 -1.59604e-09 0)
(2.17761e-10 -4.80631e-10 0)
(4.79348e-13 1.11589e-10 0)
(-1.20561e-11 2.41542e-11 0)
(6.76892e-11 -2.67868e-10 0)
(2.36801e-11 -5.01645e-10 0)
(8.60672e-11 -7.74023e-10 0)
(-7.995e-12 -9.10381e-10 0)
(7.75253e-11 -9.60192e-10 0)
(-6.52544e-11 -8.01965e-10 0)
(-2.85921e-11 -4.93543e-10 0)
(6.58179e-11 -1.39363e-10 0)
(-6.15541e-11 3.48453e-10 0)
(3.24897e-11 7.14419e-10 0)
(8.52395e-11 8.88856e-10 0)
(-9.64811e-11 7.30758e-10 0)
(-1.7914e-10 3.77865e-10 0)
(-5.32155e-11 -3.07943e-10 0)
(5.03942e-11 -1.01899e-09 0)
(8.71484e-11 -1.26583e-09 0)
(9.86904e-11 -1.5428e-09 0)
(9.84988e-11 -4.52531e-10 0)
(-1.39935e-12 1.22737e-10 0)
(4.17219e-11 1.57356e-11 0)
(8.38317e-11 -2.81358e-10 0)
(6.91646e-11 -4.98505e-10 0)
(8.56757e-11 -8.22818e-10 0)
(4.18138e-11 -9.1644e-10 0)
(2.63777e-11 -9.54462e-10 0)
(-1.85686e-13 -8.23856e-10 0)
(-1.01317e-10 -4.30267e-10 0)
(3.45892e-11 -2.1796e-10 0)
(8.26046e-11 2.31887e-10 0)
(1.27716e-11 6.59771e-10 0)
(8.11681e-11 7.87659e-10 0)
(1.57475e-10 6.22635e-10 0)
(6.36845e-11 3.8395e-10 0)
(-5.41946e-11 -1.72229e-10 0)
(-7.89742e-11 -8.59162e-10 0)
(-4.62697e-11 -1.14587e-09 0)
(-1.09507e-11 -1.45668e-09 0)
(1.95825e-11 -4.46615e-10 0)
(-4.11627e-11 7.14634e-11 0)
(7.05881e-11 -7.83461e-11 0)
(9.29625e-11 -2.08807e-10 0)
(1.43462e-10 -5.49416e-10 0)
(5.74194e-11 -7.45831e-10 0)
(1.46682e-10 -9.69436e-10 0)
(-2.66703e-11 -8.93365e-10 0)
(1.09901e-10 -8.32312e-10 0)
(-1.45191e-10 -3.4701e-10 0)
(-2.02166e-10 8.87924e-12 0)
(1.00408e-10 3.06717e-10 0)
(2.57625e-11 6.88435e-10 0)
(3.00219e-11 8.99592e-10 0)
(3.09866e-10 6.27487e-10 0)
(3.86596e-10 2.10376e-10 0)
(2.43877e-10 -3.56795e-10 0)
(2.14013e-11 -9.32226e-10 0)
(-1.02055e-10 -1.15498e-09 0)
(-2.52228e-10 -1.41321e-09 0)
(-2.65088e-10 -3.89101e-10 0)
(-4.19108e-11 -4.5019e-11 0)
(9.47978e-11 -1.20707e-10 0)
(1.43927e-10 -1.8612e-10 0)
(1.98437e-10 -4.84688e-10 0)
(8.21222e-12 -4.7499e-10 0)
(1.84603e-10 -8.38739e-10 0)
(-6.99223e-12 -6.58778e-10 0)
(1.56508e-10 -6.98481e-10 0)
(1.43012e-10 -4.57892e-10 0)
(-2.87902e-10 9.58685e-11 0)
(-8.78215e-11 3.04212e-10 0)
(9.28384e-11 4.94767e-10 0)
(1.35464e-11 7.75368e-10 0)
(9.44427e-11 6.05756e-10 0)
(2.62448e-10 1.79453e-10 0)
(2.93962e-10 -3.49692e-10 0)
(1.07981e-10 -8.40109e-10 0)
(-7.43008e-11 -1.0071e-09 0)
(-2.02752e-10 -1.25709e-09 0)
(-2.32939e-10 -3.9624e-10 0)
(-1.61094e-11 -1.09457e-10 0)
(1.38215e-10 -1.47157e-10 0)
(3.16743e-10 -3.91886e-10 0)
(3.16444e-10 -5.79874e-10 0)
(1.63034e-10 -8.02684e-10 0)
(1.27682e-10 -9.65971e-10 0)
(9.86732e-11 -8.8569e-10 0)
(-2.38562e-10 -5.59342e-10 0)
(2.08825e-10 -6.31586e-10 0)
(-2.14604e-10 4.06727e-11 0)
(-4.52541e-10 5.71371e-10 0)
(-6.19171e-11 7.33267e-10 0)
(1.38609e-10 8.75249e-10 0)
(2.09528e-10 6.64387e-10 0)
(4.00846e-10 1.85426e-10 0)
(5.26807e-10 -4.78395e-10 0)
(2.68924e-10 -1.00312e-09 0)
(-1.0271e-11 -1.1014e-09 0)
(-3.60441e-10 -1.24219e-09 0)
(-4.82094e-10 -3.18948e-10 0)
(1.60435e-12 -1.21657e-11 0)
(1.26055e-10 -2.66004e-11 0)
(3.22403e-10 -2.53605e-10 0)
(1.9752e-10 -2.2214e-10 0)
(2.89035e-10 -6.90982e-10 0)
(-2.79122e-11 -2.94436e-10 0)
(5.04895e-10 -8.04678e-10 0)
(-2.93833e-10 -1.7678e-10 0)
(4.86997e-11 -3.09312e-10 0)
(3.55871e-10 -2.34318e-10 0)
(-1.70586e-10 3.29414e-10 0)
(-1.43753e-10 5.88707e-10 0)
(1.24254e-11 6.69407e-10 0)
(8.61006e-12 5.71149e-10 0)
(1.00593e-10 2.80778e-10 0)
(2.78355e-10 -2.36891e-10 0)
(2.37417e-10 -6.87727e-10 0)
(1.22469e-10 -7.724e-10 0)
(-1.59193e-10 -9.27721e-10 0)
(-3.40064e-10 -2.98118e-10 0)
(-5.67568e-11 6.15072e-11 0)
(1.09507e-10 -2.36469e-11 0)
(3.70054e-10 -3.27486e-10 0)
(2.78591e-10 -4.82355e-10 0)
(5.20886e-10 -9.13404e-10 0)
(-1.38544e-10 -1.58869e-10 0)
(4.13185e-10 -1.24201e-09 0)
(3.1373e-10 -6.66359e-10 0)
(-5.58368e-10 -2.85419e-10 0)
(3.60861e-11 -3.15487e-10 0)
(2.6144e-11 1.29639e-10 0)
(-1.34766e-10 5.04047e-10 0)
(-1.7736e-11 6.19996e-10 0)
(6.89419e-11 5.25264e-10 0)
(1.20782e-10 2.90155e-10 0)
(2.64906e-10 -1.74354e-10 0)
(2.77454e-10 -6.08632e-10 0)
(1.97666e-10 -7.21883e-10 0)
(-1.06687e-10 -8.55233e-10 0)
(-3.67574e-10 -2.51573e-10 0)
(-1.22375e-10 -4.88492e-11 0)
(6.44295e-11 -1.37842e-10 0)
(2.23166e-10 -8.89082e-11 0)
(2.49694e-10 -4.46142e-10 0)
(6.01089e-10 -4.44675e-10 0)
(-2.95055e-12 -4.23066e-10 0)
(-3.72969e-10 -1.57479e-09 0)
(7.8781e-10 -2.08637e-10 0)
(-1.79213e-10 -1.47357e-10 0)
(9.54229e-11 8.18505e-12 0)
(2.73083e-10 7.56922e-11 0)
(9.29953e-11 2.79785e-10 0)
(1.01931e-10 3.76355e-10 0)
(1.71309e-10 3.18912e-10 0)
(1.58876e-10 2.06739e-10 0)
(2.24334e-10 -6.84029e-11 0)
(1.53771e-10 -3.9079e-10 0)
(8.48516e-11 -5.44908e-10 0)
(-2.56949e-10 -6.61883e-10 0)
(-4.80989e-10 -1.72832e-10 0)
(-3.93263e-11 -3.78605e-11 0)
(1.92576e-10 -1.87457e-10 0)
(2.66265e-10 9.04562e-11 0)
(3.55671e-10 5.46069e-11 0)
(2.40274e-10 6.02369e-10 0)
(2.84537e-10 -1.23595e-09 0)
(-5.29002e-10 2.30239e-09 0)
(-1.58283e-09 -6.7491e-10 0)
(-5.99955e-10 -4.72833e-11 0)
(-2.20091e-10 -4.57615e-11 0)
(-7.27939e-11 -3.07131e-10 0)
(-9.41579e-12 -2.56814e-10 0)
(7.39196e-11 -1.14951e-10 0)
(2.39845e-10 3.00002e-11 0)
(2.80487e-10 1.63358e-10 0)
(2.49539e-10 1.81461e-10 0)
(9.65958e-11 3.59277e-11 0)
(4.53187e-12 -1.21924e-10 0)
(-2.13776e-10 -2.59156e-10 0)
(-3.87829e-10 -1.35256e-10 0)
(-5.29338e-11 2.74409e-11 0)
(6.53192e-11 -1.32151e-10 0)
(3.33198e-10 -1.75766e-10 0)
(5.19974e-10 -1.49765e-10 0)
(-2.08361e-10 1.63339e-10 0)
(7.18222e-10 -1.31209e-09 0)
(7.25272e-10 2.77854e-09 0)
(1.03026e-09 -1.24724e-09 0)
(7.30358e-10 -2.19843e-10 0)
(-4.70759e-10 -8.70013e-11 0)
(-1.98624e-10 -8.55704e-11 0)
(1.56667e-10 1.99554e-11 0)
(3.26383e-10 1.09575e-10 0)
(5.001e-10 9.96189e-11 0)
(4.58632e-10 4.87687e-11 0)
(2.59533e-10 -9.44274e-11 0)
(-4.82e-11 -2.40799e-10 0)
(-1.49031e-10 -3.04751e-10 0)
(-3.23766e-10 -3.18156e-10 0)
(-4.20473e-10 -3.64177e-11 0)
)
;

boundaryField
{
    sides
    {
        type            calculated;
        value           nonuniform List<vector> 
40
(
(-5.29338e-11 0 0)
(6.53192e-11 0 0)
(3.33198e-10 0 0)
(5.19974e-10 0 0)
(-2.08361e-10 0 0)
(7.18222e-10 0 0)
(7.25272e-10 0 0)
(1.03026e-09 0 0)
(7.30358e-10 0 0)
(-4.70759e-10 0 0)
(-1.98624e-10 0 0)
(1.56667e-10 0 0)
(3.26383e-10 0 0)
(5.001e-10 0 0)
(4.58632e-10 0 0)
(2.59533e-10 0 0)
(-4.82e-11 0 0)
(-1.49031e-10 0 0)
(-3.23766e-10 0 0)
(-4.20473e-10 0 0)
(7.37641e-11 0 0)
(-2.2989e-10 0 0)
(-1.99646e-10 0 0)
(-2.55554e-10 0 0)
(-4.84248e-10 0 0)
(4.28455e-10 0 0)
(1.34319e-09 0 0)
(-5.22039e-09 0 0)
(-8.80167e-10 0 0)
(3.17409e-10 0 0)
(-1.80435e-10 0 0)
(-4.3911e-11 0 0)
(-4.69403e-11 0 0)
(-1.09026e-10 0 0)
(-1.87059e-10 0 0)
(-3.24616e-10 0 0)
(-2.35167e-10 0 0)
(-7.09854e-11 0 0)
(2.91514e-10 0 0)
(4.91668e-10 0 0)
)
;
    }
    inlet
    {
        type            calculated;
        value           uniform (0 0 0);
    }
    outlet
    {
        type            calculated;
        value           nonuniform List<vector> 
20
(
(4.91668e-10 -1.06579e-11 0)
(4.40984e-10 -8.32512e-11 0)
(5.3613e-10 -1.38736e-10 0)
(3.77349e-10 -2.41535e-10 0)
(2.50599e-10 -3.04937e-10 0)
(2.85169e-10 -3.44633e-10 0)
(1.9579e-12 -4.29295e-10 0)
(1.46615e-10 -4.33341e-10 0)
(1.08492e-10 -5.01635e-10 0)
(2.17761e-10 -4.80631e-10 0)
(9.84988e-11 -4.52531e-10 0)
(1.95825e-11 -4.46615e-10 0)
(-2.65088e-10 -3.89101e-10 0)
(-2.32939e-10 -3.9624e-10 0)
(-4.82094e-10 -3.18948e-10 0)
(-3.40064e-10 -2.98118e-10 0)
(-3.67574e-10 -2.51573e-10 0)
(-4.80989e-10 -1.72832e-10 0)
(-3.87829e-10 -1.35256e-10 0)
(-4.20473e-10 -3.64177e-11 0)
)
;
    }
    frontAndBack
    {
        type            empty;
    }
}


// ************************************************************************* //
