/*--------------------------------*- C++ -*----------------------------------*\
  =========                 |
  \\      /  F ield         | OpenFOAM: The Open Source CFD Toolbox
   \\    /   O peration     | Website:  https://openfoam.org
    \\  /    A nd           | Version:  7
     \\/     M anipulation  |
\*---------------------------------------------------------------------------*/
FoamFile
{
    version     2.0;
    format      ascii;
    class       volScalarField;
    location    "61";
    object      ddt0(h);
}
// * * * * * * * * * * * * * * * * * * * * * * * * * * * * * * * * * * * * * //

dimensions      [0 1 -1 0 0 0 0];

internalField   nonuniform List<scalar> 
400
(
2.15968e-09
5.90322e-10
-5.94675e-11
-6.38787e-10
5.44453e-09
7.3226e-09
3.74215e-10
-4.34471e-08
3.18177e-09
1.62557e-09
9.10265e-10
1.30662e-09
1.45525e-09
1.498e-09
1.19977e-09
5.23814e-10
5.00792e-12
-3.19122e-11
4.66577e-11
1.38468e-11
7.57854e-10
1.00661e-09
1.61322e-09
2.27709e-09
-1.56426e-09
-4.29675e-09
6.75192e-09
4.34239e-08
3.66632e-09
8.64276e-10
1.28626e-09
1.4284e-09
1.19164e-09
9.82827e-10
7.17561e-10
4.16481e-10
2.04406e-10
2.03704e-10
3.05473e-10
1.79631e-10
-1.65105e-09
1.19618e-09
1.498e-09
2.92812e-09
-1.11008e-09
4.60442e-09
-5.77534e-09
6.2366e-09
-7.34097e-10
9.10938e-10
2.16582e-09
1.59019e-09
9.78039e-10
5.95298e-10
3.22022e-10
3.10883e-10
4.19501e-10
5.29623e-10
6.62926e-10
3.76933e-10
-3.16572e-10
1.02929e-09
1.29194e-09
2.07011e-09
1.70643e-09
6.45707e-10
3.39829e-09
2.42031e-09
-3.61518e-10
1.4932e-09
2.07102e-09
1.14755e-09
6.42439e-10
3.63721e-10
2.03777e-10
3.33024e-10
5.46404e-10
6.34342e-10
6.24364e-10
3.06578e-10
7.39568e-10
4.63028e-10
1.45039e-09
5.56223e-10
3.04934e-09
-7.9204e-10
3.01322e-09
1.63008e-10
-1.53571e-11
2.40761e-09
1.09301e-09
3.43764e-10
3.81426e-10
2.10567e-10
1.91594e-10
4.22332e-10
5.85209e-10
4.46901e-10
1.41468e-10
-5.69997e-12
1.25988e-09
4.30163e-10
1.4665e-09
1.74936e-10
1.83841e-09
4.94279e-10
1.99084e-09
-5.97128e-10
1.9797e-09
1.59324e-09
-1.85292e-10
2.14586e-10
5.73231e-10
3.00276e-10
3.44171e-10
5.95737e-10
5.03203e-10
-8.75322e-11
-6.2444e-10
-3.88671e-10
1.13657e-09
5.79703e-10
7.07157e-10
8.64589e-10
-8.25757e-11
1.12468e-09
3.99552e-10
5.99953e-10
1.54366e-09
-1.5681e-10
-2.82439e-10
4.94454e-10
5.55449e-10
4.29966e-10
5.58335e-10
6.98725e-10
3.97213e-10
-4.39238e-10
-1.02274e-09
-5.54787e-10
4.33753e-10
9.25703e-10
5.96837e-12
9.68168e-10
-8.90439e-11
9.45438e-10
-8.7232e-11
1.02228e-09
4.2924e-10
-3.18532e-10
4.83765e-10
2.23693e-10
2.80306e-11
5.48888e-10
6.73131e-10
4.14543e-10
1.49091e-10
-2.79369e-10
-6.33253e-10
-3.56611e-10
-1.053e-10
5.46379e-10
2.0277e-10
4.35392e-10
3.22241e-10
4.98471e-10
1.38169e-10
6.65835e-10
9.37469e-12
3.81939e-11
2.84316e-10
-2.72464e-10
-1.88221e-10
3.89861e-10
3.02904e-10
-1.58931e-10
-1.84697e-10
1.73777e-10
3.49945e-10
1.67439e-10
-4.21846e-11
-2.92745e-10
2.89858e-10
9.32076e-11
5.03892e-10
-2.66213e-11
3.5729e-10
-2.54308e-11
-1.49409e-11
1.02274e-10
-2.75258e-10
1.58501e-11
3.46365e-11
-4.60237e-10
-5.85791e-10
-4.57958e-10
-1.916e-10
5.09698e-10
1.00796e-09
5.3147e-10
1.37148e-11
-5.69142e-10
1.09548e-10
-2.54667e-10
3.28172e-10
-3.73469e-10
2.54814e-10
-3.64043e-10
-1.02551e-10
1.45083e-10
-2.90708e-10
2.76252e-10
2.21269e-10
-6.10828e-10
-7.47168e-10
-5.1035e-10
-3.05712e-10
3.48523e-10
9.20047e-10
5.19422e-10
-2.47208e-10
-1.33782e-10
-3.22616e-10
-5.4691e-10
-1.61224e-10
-3.8133e-10
-2.42224e-10
-1.21263e-10
-4.44168e-10
1.02175e-10
2.3247e-10
-4.69353e-11
3.25021e-11
2.49293e-10
1.08205e-10
-3.48351e-10
-5.46207e-10
-1.74339e-10
2.22953e-10
1.60186e-10
-3.7385e-10
1.15968e-10
-1.1127e-09
-2.89711e-10
-9.10306e-10
-1.74409e-10
-1.06494e-09
1.14874e-10
-7.28658e-10
-5.69813e-10
5.81966e-10
-2.7855e-11
-2.87191e-10
4.60243e-10
6.59979e-10
1.97641e-10
-2.74097e-10
-6.18223e-10
-7.43099e-10
-3.61661e-10
-2.59531e-10
-5.84605e-10
-1.14764e-09
-2.06344e-10
-1.78034e-09
-8.86422e-12
-1.46692e-09
-3.00237e-10
-2.252e-10
-1.5377e-09
-4.88124e-10
3.21425e-11
-2.40118e-10
-1.71079e-11
4.11709e-10
5.52444e-10
1.79786e-10
-6.4102e-10
-1.13769e-09
-5.91869e-10
-3.41066e-10
-1.23288e-09
-6.364e-10
-1.55391e-09
-1.12371e-09
-7.60662e-10
-8.07594e-10
-1.9377e-09
6.15388e-10
-9.65477e-10
-1.73708e-09
-7.28512e-10
-4.72629e-10
-6.10459e-10
-2.18723e-10
3.34169e-10
4.01522e-10
-1.54137e-10
-6.8462e-10
-4.17124e-10
-5.35081e-10
-1.26104e-09
-4.54644e-10
-2.0944e-09
5.0235e-10
-3.04232e-09
6.85508e-10
-3.55232e-09
-8.85258e-10
2.94604e-10
-1.51817e-09
-1.32853e-09
-8.78254e-10
-9.85934e-10
-8.02018e-10
-2.45556e-10
2.6172e-10
3.49644e-10
7.81185e-11
-5.65983e-11
-1.17299e-09
-9.22463e-10
-9.28266e-10
-1.53725e-09
-5.89316e-13
-4.28386e-09
1.42989e-09
9.52447e-11
-3.10778e-09
-2.89019e-10
-6.32537e-10
-1.24839e-09
-1.10692e-09
-1.14527e-09
-1.17063e-09
-7.69309e-10
-9.06193e-11
4.35638e-10
5.68695e-10
2.6343e-10
-1.71134e-09
-5.22317e-10
-6.72054e-10
-1.65158e-10
-2.62357e-09
-1.21306e-09
-1.90959e-09
1.03569e-10
-2.24681e-09
-6.61565e-10
-2.69001e-10
-9.14543e-10
-1.04917e-09
-1.12405e-09
-1.24781e-09
-1.01616e-09
-5.0262e-10
3.2671e-11
4.29117e-10
2.88056e-10
-4.58494e-10
-7.49158e-10
-1.2348e-09
3.82263e-11
-5.29817e-09
1.01893e-08
-8.98007e-09
-3.1676e-08
-2.75509e-09
-1.72294e-09
-1.26619e-09
-1.23519e-09
-1.12417e-09
-8.53633e-10
-7.57124e-10
-7.43749e-10
-6.75006e-10
-4.32862e-10
-4.73767e-11
7.8669e-11
7.20033e-10
-6.11329e-10
-2.06514e-09
-3.11891e-09
1.04762e-09
-1.04735e-08
1.53814e-09
2.71736e-08
1.95538e-10
-3.35398e-09
-2.16041e-09
-1.26447e-09
-7.37516e-10
-2.08659e-10
-1.48947e-10
-5.33444e-10
-8.67375e-10
-7.9354e-10
-4.56677e-10
-1.50232e-10
)
;

boundaryField
{
    sides
    {
        type            calculated;
        value           nonuniform List<scalar> 
40
(
7.20033e-10
-6.11329e-10
-2.06514e-09
-3.11891e-09
1.04762e-09
-1.04735e-08
1.53814e-09
2.71736e-08
1.95538e-10
-3.35398e-09
-2.16041e-09
-1.26447e-09
-7.37516e-10
-2.08659e-10
-1.48947e-10
-5.33444e-10
-8.67375e-10
-7.9354e-10
-4.56677e-10
-1.50232e-10
2.15968e-09
5.90322e-10
-5.94675e-11
-6.38787e-10
5.44453e-09
7.3226e-09
3.74215e-10
-4.34471e-08
3.18177e-09
1.62557e-09
9.10265e-10
1.30662e-09
1.45525e-09
1.498e-09
1.19977e-09
5.23814e-10
5.00792e-12
-3.19122e-11
4.66577e-11
1.38468e-11
)
;
    }
    inlet
    {
        type            calculated;
        value           nonuniform List<scalar> 
20
(
2.15968e-09
7.57854e-10
-1.65105e-09
-3.16572e-10
7.39568e-10
1.25988e-09
1.13657e-09
4.33753e-10
-1.053e-10
-4.21846e-11
1.37148e-11
-2.47208e-10
-3.7385e-10
-2.59531e-10
-3.41066e-10
-5.35081e-10
-1.17299e-09
-1.71134e-09
-4.58494e-10
7.20033e-10
)
;
    }
    outlet
    {
        type            calculated;
        value           uniform 0;
    }
    frontAndBack
    {
        type            empty;
    }
}


// ************************************************************************* //
