/*--------------------------------*- C++ -*----------------------------------*\
  =========                 |
  \\      /  F ield         | OpenFOAM: The Open Source CFD Toolbox
   \\    /   O peration     | Website:  https://openfoam.org
    \\  /    A nd           | Version:  7
     \\/     M anipulation  |
\*---------------------------------------------------------------------------*/
FoamFile
{
    version     2.0;
    format      ascii;
    class       volVectorField;
    location    "61";
    object      hU;
}
// * * * * * * * * * * * * * * * * * * * * * * * * * * * * * * * * * * * * * //

dimensions      [0 2 -1 0 0 0 0];

internalField   nonuniform List<vector> 
400
(
(0.001 -8.7855e-09 0)
(0.000999999 -2.38511e-08 0)
(0.001 -3.6135e-08 0)
(0.001 -4.68881e-08 0)
(0.00100001 -5.70554e-08 0)
(0.00100001 -6.74362e-08 0)
(0.00100002 -7.80921e-08 0)
(0.00100003 -8.91347e-08 0)
(0.00100004 -9.97237e-08 0)
(0.00100006 -1.11732e-07 0)
(0.00100007 -1.2253e-07 0)
(0.0010001 -1.3615e-07 0)
(0.00100011 -1.4666e-07 0)
(0.00100015 -1.636e-07 0)
(0.00100017 -1.72466e-07 0)
(0.00100024 -1.96582e-07 0)
(0.00100026 -2.00925e-07 0)
(0.00100038 -2.43048e-07 0)
(0.00100038 -2.38969e-07 0)
(0.00100061 -3.31579e-07 0)
(0.001 3.92548e-09 0)
(0.001 1.20826e-08 0)
(0.00100001 2.0202e-08 0)
(0.00100001 2.78513e-08 0)
(0.00100002 3.49717e-08 0)
(0.00100002 4.15234e-08 0)
(0.00100003 4.74729e-08 0)
(0.00100004 5.28857e-08 0)
(0.00100005 5.83132e-08 0)
(0.00100007 6.22159e-08 0)
(0.00100008 6.69183e-08 0)
(0.0010001 6.85392e-08 0)
(0.00100012 7.26213e-08 0)
(0.00100016 6.97553e-08 0)
(0.00100018 7.38733e-08 0)
(0.00100023 6.14893e-08 0)
(0.00100026 6.70137e-08 0)
(0.00100035 3.16625e-08 0)
(0.00100037 3.98474e-08 0)
(0.0010005 -5.44755e-08 0)
(0.001 -4.05365e-09 0)
(0.000999999 -1.32215e-08 0)
(0.001 -2.33652e-08 0)
(0.001 -3.39975e-08 0)
(0.00100001 -4.45052e-08 0)
(0.00100001 -5.51878e-08 0)
(0.00100002 -6.56982e-08 0)
(0.00100003 -7.72191e-08 0)
(0.00100004 -8.8718e-08 0)
(0.00100005 -1.02329e-07 0)
(0.00100006 -1.15115e-07 0)
(0.00100009 -1.32408e-07 0)
(0.0010001 -1.46707e-07 0)
(0.00100014 -1.70432e-07 0)
(0.00100016 -1.85639e-07 0)
(0.00100021 -2.21685e-07 0)
(0.00100023 -2.36008e-07 0)
(0.00100031 -2.97726e-07 0)
(0.00100033 -3.05965e-07 0)
(0.00100046 -4.21685e-07 0)
(0.001 -2.58199e-10 0)
(0.001 -3.59078e-10 0)
(0.00100001 1.3765e-10 0)
(0.00100001 7.95791e-10 0)
(0.00100001 1.54075e-09 0)
(0.00100002 1.55263e-09 0)
(0.00100003 1.38352e-09 0)
(0.00100004 -3.33363e-10 0)
(0.00100004 -2.2546e-09 0)
(0.00100006 -6.84834e-09 0)
(0.00100007 -1.106e-08 0)
(0.00100009 -2.048e-08 0)
(0.00100011 -2.74186e-08 0)
(0.00100013 -4.47846e-08 0)
(0.00100015 -5.42e-08 0)
(0.00100019 -8.57078e-08 0)
(0.00100022 -9.59506e-08 0)
(0.00100028 -1.54914e-07 0)
(0.0010003 -1.6072e-07 0)
(0.00100039 -2.75253e-07 0)
(0.001 -2.99491e-09 0)
(0.001 -9.51492e-09 0)
(0.001 -1.67232e-08 0)
(0.001 -2.48712e-08 0)
(0.00100001 -3.35276e-08 0)
(0.00100001 -4.3152e-08 0)
(0.00100002 -5.30572e-08 0)
(0.00100002 -6.45861e-08 0)
(0.00100003 -7.63679e-08 0)
(0.00100004 -9.10479e-08 0)
(0.00100005 -1.05483e-07 0)
(0.00100007 -1.2542e-07 0)
(0.00100008 -1.4299e-07 0)
(0.00100011 -1.71469e-07 0)
(0.00100013 -1.91924e-07 0)
(0.00100016 -2.35122e-07 0)
(0.00100018 -2.56319e-07 0)
(0.00100024 -3.2686e-07 0)
(0.00100025 -3.41328e-07 0)
(0.00100033 -4.63764e-07 0)
(0.001 -2.70525e-09 0)
(0.001 -7.97811e-09 0)
(0.001 -1.287e-08 0)
(0.00100001 -1.76898e-08 0)
(0.00100001 -2.23596e-08 0)
(0.00100001 -2.76747e-08 0)
(0.00100002 -3.3318e-08 0)
(0.00100002 -4.06889e-08 0)
(0.00100003 -4.8562e-08 0)
(0.00100004 -5.97189e-08 0)
(0.00100005 -7.09864e-08 0)
(0.00100006 -8.82015e-08 0)
(0.00100008 -1.03537e-07 0)
(0.0010001 -1.30226e-07 0)
(0.00100011 -1.49323e-07 0)
(0.00100014 -1.9137e-07 0)
(0.00100016 -2.11681e-07 0)
(0.0010002 -2.80849e-07 0)
(0.00100021 -2.94135e-07 0)
(0.00100027 -4.14064e-07 0)
(0.001 -3.05485e-09 0)
(0.001 -9.33339e-09 0)
(0.001 -1.58419e-08 0)
(0.001 -2.29833e-08 0)
(0.00100001 -3.06807e-08 0)
(0.00100001 -3.9497e-08 0)
(0.00100001 -4.90307e-08 0)
(0.00100002 -6.05136e-08 0)
(0.00100002 -7.273e-08 0)
(0.00100003 -8.84019e-08 0)
(0.00100004 -1.04283e-07 0)
(0.00100005 -1.26351e-07 0)
(0.00100006 -1.46636e-07 0)
(0.00100007 -1.78561e-07 0)
(0.00100009 -2.02777e-07 0)
(0.00100011 -2.50302e-07 0)
(0.00100012 -2.75451e-07 0)
(0.00100015 -3.49962e-07 0)
(0.00100016 -3.66928e-07 0)
(0.00100021 -4.91304e-07 0)
(0.001 -3.37722e-09 0)
(0.001 -1.02691e-08 0)
(0.001 -1.73049e-08 0)
(0.001 -2.47772e-08 0)
(0.001 -3.25449e-08 0)
(0.00100001 -4.11898e-08 0)
(0.00100001 -5.03488e-08 0)
(0.00100001 -6.13601e-08 0)
(0.00100002 -7.31233e-08 0)
(0.00100002 -8.83731e-08 0)
(0.00100003 -1.03994e-07 0)
(0.00100004 -1.25943e-07 0)
(0.00100004 -1.46306e-07 0)
(0.00100005 -1.78343e-07 0)
(0.00100006 -2.02881e-07 0)
(0.00100008 -2.50544e-07 0)
(0.00100009 -2.76053e-07 0)
(0.00100011 -3.50207e-07 0)
(0.00100012 -3.67156e-07 0)
(0.00100015 -4.89756e-07 0)
(0.001 -3.56019e-09 0)
(0.001 -1.07968e-08 0)
(0.001 -1.81158e-08 0)
(0.001 -2.58607e-08 0)
(0.001 -3.39168e-08 0)
(0.001 -4.29943e-08 0)
(0.00100001 -5.27291e-08 0)
(0.00100001 -6.4516e-08 0)
(0.00100001 -7.7206e-08 0)
(0.00100001 -9.35462e-08 0)
(0.00100002 -1.10412e-07 0)
(0.00100002 -1.33805e-07 0)
(0.00100003 -1.55696e-07 0)
(0.00100003 -1.89527e-07 0)
(0.00100004 -2.15817e-07 0)
(0.00100005 -2.6551e-07 0)
(0.00100005 -2.92632e-07 0)
(0.00100007 -3.68797e-07 0)
(0.00100007 -3.8678e-07 0)
(0.00100009 -5.11418e-07 0)
(0.001 -3.63269e-09 0)
(0.001 -1.10428e-08 0)
(0.001 -1.85247e-08 0)
(0.001 -2.64569e-08 0)
(0.001 -3.47404e-08 0)
(0.001 -4.40883e-08 0)
(0.001 -5.41277e-08 0)
(0.001 -6.62512e-08 0)
(0.001 -7.93088e-08 0)
(0.001 -9.60452e-08 0)
(0.00100001 -1.13344e-07 0)
(0.00100001 -1.37149e-07 0)
(0.00100001 -1.59479e-07 0)
(0.00100001 -1.93688e-07 0)
(0.00100001 -2.20394e-07 0)
(0.00100002 -2.70348e-07 0)
(0.00100002 -2.97831e-07 0)
(0.00100002 -3.74038e-07 0)
(0.00100002 -3.92281e-07 0)
(0.00100003 -5.16346e-07 0)
(0.001 -3.6253e-09 0)
(0.001 -1.10324e-08 0)
(0.001 -1.85277e-08 0)
(0.000999999 -2.64576e-08 0)
(0.000999999 -3.475e-08 0)
(0.000999999 -4.40917e-08 0)
(0.000999998 -5.41347e-08 0)
(0.000999997 -6.62541e-08 0)
(0.000999996 -7.93055e-08 0)
(0.000999995 -9.60511e-08 0)
(0.000999994 -1.13344e-07 0)
(0.000999993 -1.37147e-07 0)
(0.000999991 -1.59483e-07 0)
(0.000999989 -1.93682e-07 0)
(0.000999987 -2.20372e-07 0)
(0.000999984 -2.70321e-07 0)
(0.000999982 -2.97816e-07 0)
(0.000999978 -3.74038e-07 0)
(0.000999976 -3.92289e-07 0)
(0.00099997 -5.16347e-07 0)
(0.001 -3.54115e-09 0)
(0.001 -1.07835e-08 0)
(0.000999999 -1.81189e-08 0)
(0.000999998 -2.58625e-08 0)
(0.000999997 -3.39332e-08 0)
(0.000999996 -4.30023e-08 0)
(0.000999994 -5.27414e-08 0)
(0.000999992 -6.45254e-08 0)
(0.000999989 -7.71964e-08 0)
(0.000999986 -9.3555e-08 0)
(0.000999983 -1.1042e-07 0)
(0.000999978 -1.33801e-07 0)
(0.000999973 -1.55695e-07 0)
(0.000999967 -1.89509e-07 0)
(0.000999961 -2.15774e-07 0)
(0.000999952 -2.65444e-07 0)
(0.000999946 -2.92584e-07 0)
(0.000999934 -3.68768e-07 0)
(0.00099993 -3.86773e-07 0)
(0.000999911 -5.11374e-07 0)
(0.001 -3.36514e-09 0)
(0.001 -1.02711e-08 0)
(0.000999999 -1.72982e-08 0)
(0.000999997 -2.47831e-08 0)
(0.000999996 -3.25426e-08 0)
(0.000999993 -4.11984e-08 0)
(0.00099999 -5.03489e-08 0)
(0.000999987 -6.13758e-08 0)
(0.000999983 -7.31152e-08 0)
(0.000999977 -8.83673e-08 0)
(0.000999971 -1.04014e-07 0)
(0.000999964 -1.25958e-07 0)
(0.000999956 -1.46311e-07 0)
(0.000999945 -1.78345e-07 0)
(0.000999936 -2.02878e-07 0)
(0.000999921 -2.50517e-07 0)
(0.00099991 -2.76031e-07 0)
(0.000999889 -3.50201e-07 0)
(0.000999882 -3.67175e-07 0)
(0.000999852 -4.89756e-07 0)
(0.001 -3.06893e-09 0)
(0.000999999 -9.3442e-09 0)
(0.000999998 -1.58343e-08 0)
(0.000999996 -2.29852e-08 0)
(0.000999994 -3.06534e-08 0)
(0.000999991 -3.95026e-08 0)
(0.000999987 -4.90142e-08 0)
(0.000999982 -6.05182e-08 0)
(0.000999977 -7.27327e-08 0)
(0.000999969 -8.83639e-08 0)
(0.000999962 -1.04268e-07 0)
(0.000999951 -1.26349e-07 0)
(0.000999941 -1.46627e-07 0)
(0.000999926 -1.78544e-07 0)
(0.000999913 -2.0277e-07 0)
(0.000999891 -2.50261e-07 0)
(0.000999878 -2.75401e-07 0)
(0.000999847 -3.49868e-07 0)
(0.000999839 -3.66847e-07 0)
(0.000999792 -4.91162e-07 0)
(0.001 -2.73654e-09 0)
(0.000999999 -7.98764e-09 0)
(0.000999997 -1.28739e-08 0)
(0.000999995 -1.76792e-08 0)
(0.000999991 -2.23519e-08 0)
(0.000999987 -2.76804e-08 0)
(0.000999982 -3.33239e-08 0)
(0.000999975 -4.06788e-08 0)
(0.000999968 -4.85977e-08 0)
(0.000999959 -5.97141e-08 0)
(0.000999949 -7.09654e-08 0)
(0.000999936 -8.82027e-08 0)
(0.000999923 -1.03556e-07 0)
(0.000999903 -1.30249e-07 0)
(0.000999887 -1.49363e-07 0)
(0.000999859 -1.91404e-07 0)
(0.000999841 -2.11705e-07 0)
(0.000999802 -2.8083e-07 0)
(0.000999787 -2.94111e-07 0)
(0.000999731 -4.14035e-07 0)
(0.001 -3.01312e-09 0)
(0.001 -9.50942e-09 0)
(0.000999999 -1.67274e-08 0)
(0.000999997 -2.48544e-08 0)
(0.000999994 -3.35572e-08 0)
(0.00099999 -4.31178e-08 0)
(0.000999984 -5.30893e-08 0)
(0.000999977 -6.45414e-08 0)
(0.000999969 -7.63641e-08 0)
(0.000999958 -9.10552e-08 0)
(0.000999947 -1.0545e-07 0)
(0.00099993 -1.25375e-07 0)
(0.000999915 -1.42969e-07 0)
(0.000999891 -1.71443e-07 0)
(0.000999872 -1.9192e-07 0)
(0.000999837 -2.35101e-07 0)
(0.000999817 -2.56308e-07 0)
(0.000999764 -3.26764e-07 0)
(0.000999752 -3.41235e-07 0)
(0.00099967 -4.6359e-07 0)
(0.001 -2.62179e-10 0)
(0.000999998 -3.4731e-10 0)
(0.000999995 1.32764e-10 0)
(0.00099999 7.80526e-10 0)
(0.000999986 1.4766e-09 0)
(0.00099998 1.60451e-09 0)
(0.000999973 1.29424e-09 0)
(0.000999965 -3.43983e-10 0)
(0.000999955 -2.24217e-09 0)
(0.000999943 -6.87144e-09 0)
(0.00099993 -1.10603e-08 0)
(0.000999912 -2.04559e-08 0)
(0.000999894 -2.74059e-08 0)
(0.000999868 -4.47714e-08 0)
(0.000999845 -5.42009e-08 0)
(0.000999805 -8.57048e-08 0)
(0.000999779 -9.59605e-08 0)
(0.00099972 -1.54884e-07 0)
(0.000999698 -1.60686e-07 0)
(0.000999611 -2.75187e-07 0)
(0.001 -4.03362e-09 0)
(0.001 -1.32176e-08 0)
(0.001 -2.33501e-08 0)
(0.000999998 -3.40163e-08 0)
(0.000999995 -4.45252e-08 0)
(0.000999989 -5.51755e-08 0)
(0.000999983 -6.57976e-08 0)
(0.000999974 -7.72729e-08 0)
(0.000999964 -8.86772e-08 0)
(0.00099995 -1.02324e-07 0)
(0.000999936 -1.15143e-07 0)
(0.000999915 -1.32419e-07 0)
(0.000999896 -1.46716e-07 0)
(0.000999864 -1.70417e-07 0)
(0.000999841 -1.85637e-07 0)
(0.000999791 -2.21661e-07 0)
(0.000999766 -2.36031e-07 0)
(0.000999687 -2.97709e-07 0)
(0.000999671 -3.05986e-07 0)
(0.000999539 -4.21617e-07 0)
(0.001 3.98446e-09 0)
(0.000999996 1.20648e-08 0)
(0.000999991 2.01757e-08 0)
(0.000999986 2.78468e-08 0)
(0.000999982 3.50984e-08 0)
(0.000999975 4.1397e-08 0)
(0.000999968 4.77763e-08 0)
(0.000999959 5.28804e-08 0)
(0.000999948 5.82726e-08 0)
(0.000999934 6.21998e-08 0)
(0.000999919 6.68661e-08 0)
(0.000999898 6.85107e-08 0)
(0.000999878 7.26209e-08 0)
(0.000999845 6.97967e-08 0)
(0.00099982 7.39188e-08 0)
(0.000999767 6.15554e-08 0)
(0.000999738 6.70397e-08 0)
(0.000999654 3.17147e-08 0)
(0.000999629 3.98727e-08 0)
(0.000999496 -5.4363e-08 0)
(0.001 -8.74757e-09 0)
(0.001 -2.38664e-08 0)
(0.001 -3.6178e-08 0)
(0.000999997 -4.68945e-08 0)
(0.000999993 -5.69524e-08 0)
(0.000999986 -6.75607e-08 0)
(0.000999979 -7.77663e-08 0)
(0.000999968 -8.91382e-08 0)
(0.000999958 -9.98339e-08 0)
(0.000999942 -1.11797e-07 0)
(0.000999928 -1.22602e-07 0)
(0.000999904 -1.36209e-07 0)
(0.000999886 -1.46706e-07 0)
(0.000999846 -1.63632e-07 0)
(0.000999826 -1.72502e-07 0)
(0.00099976 -1.96625e-07 0)
(0.000999742 -2.00989e-07 0)
(0.000999623 -2.43129e-07 0)
(0.000999618 -2.39058e-07 0)
(0.000999394 -3.31713e-07 0)
)
;

boundaryField
{
    sides
    {
        type            slip;
    }
    inlet
    {
        type            fixedValue;
        value           uniform (0.001 0 0);
    }
    outlet
    {
        type            zeroGradient;
    }
    frontAndBack
    {
        type            empty;
    }
}


// ************************************************************************* //
