/*--------------------------------*- C++ -*----------------------------------*\
  =========                 |
  \\      /  F ield         | OpenFOAM: The Open Source CFD Toolbox
   \\    /   O peration     | Website:  https://openfoam.org
    \\  /    A nd           | Version:  7
     \\/     M anipulation  |
\*---------------------------------------------------------------------------*/
FoamFile
{
    version     2.0;
    format      ascii;
    class       surfaceScalarField;
    location    "61";
    object      phi_0;
}
// * * * * * * * * * * * * * * * * * * * * * * * * * * * * * * * * * * * * * //

dimensions      [0 4 -1 0 0 0 0];

internalField   nonuniform List<scalar> 
760
(
4.99999e-06
9.61847e-12
4.99999e-06
-4.69081e-12
5.00001e-06
-1.32124e-11
5.00003e-06
-2.00345e-11
5.00005e-06
-2.74935e-11
5.00009e-06
-3.72198e-11
5.00013e-06
-3.8614e-11
5.00018e-06
-4.50821e-11
5.00025e-06
-6.22556e-11
5.00032e-06
-7.79213e-11
5.00041e-06
-8.99405e-11
5.00053e-06
-1.14077e-10
5.00065e-06
-1.27355e-10
5.00082e-06
-1.68661e-10
5.001e-06
-1.7904e-10
5.00126e-06
-2.57864e-10
5.00151e-06
-2.56724e-10
5.00195e-06
-4.31928e-10
5.00236e-06
-4.13606e-10
-8.90676e-10
5.00002e-06
-1.23202e-11
5.00004e-06
-1.9806e-11
5.00005e-06
-3.02968e-11
5.00008e-06
-4.29273e-11
5.0001e-06
-5.54864e-11
5.00014e-06
-7.0146e-11
5.00018e-06
-8.46352e-11
5.00023e-06
-1.0442e-10
5.00029e-06
-1.23475e-10
5.00037e-06
-1.52677e-10
5.00045e-06
-1.76686e-10
5.00056e-06
-2.22203e-10
5.00068e-06
-2.51157e-10
5.00084e-06
-3.2569e-10
5.00102e-06
-3.55813e-10
5.00125e-06
-4.88089e-10
5.0015e-06
-5.10394e-10
5.00184e-06
-7.68393e-10
5.00218e-06
-7.59041e-10
-1.2604e-09
4.99999e-06
-5.15283e-12
4.99999e-06
-2.14002e-11
5e-06
-3.91696e-11
5.00002e-06
-5.84114e-11
5.00004e-06
-7.79311e-11
5.00007e-06
-1.00379e-10
5.00011e-06
-1.22732e-10
5.00016e-06
-1.52438e-10
5.00021e-06
-1.8191e-10
5.00028e-06
-2.22952e-10
5.00037e-06
-2.61854e-10
5.00047e-06
-3.23548e-10
5.00059e-06
-3.732e-10
5.00074e-06
-4.69826e-10
5.00091e-06
-5.28534e-10
5.00111e-06
-6.89744e-10
5.00135e-06
-7.49646e-10
5.00162e-06
-1.04191e-09
5.00194e-06
-1.08177e-09
-1.68685e-09
5.00001e-06
-1.30284e-11
5.00002e-06
-3.47604e-11
5.00004e-06
-5.65338e-11
5.00006e-06
-8.01319e-11
5.00008e-06
-1.04028e-10
5.00012e-06
-1.3195e-10
5.00015e-06
-1.60747e-10
5.0002e-06
-1.97678e-10
5.00025e-06
-2.35214e-10
5.00032e-06
-2.87537e-10
5.00039e-06
-3.37665e-10
5.00048e-06
-4.15496e-10
5.00059e-06
-4.79877e-10
5.00072e-06
-5.99346e-10
5.00087e-06
-6.76386e-10
5.00105e-06
-8.68954e-10
5.00125e-06
-9.49227e-10
5.00148e-06
-1.28106e-09
5.00173e-06
-1.32977e-09
-1.89475e-09
5e-06
-1.22133e-11
5e-06
-3.81895e-11
5.00001e-06
-6.46083e-11
5.00002e-06
-9.29925e-11
5.00004e-06
-1.22585e-10
5.00006e-06
-1.56168e-10
5.0001e-06
-1.92097e-10
5.00013e-06
-2.3612e-10
5.00018e-06
-2.82424e-10
5.00024e-06
-3.44221e-10
5.00031e-06
-4.05942e-10
5.00039e-06
-4.95749e-10
5.00048e-06
-5.75772e-10
5.00059e-06
-7.10472e-10
5.00072e-06
-8.07533e-10
5.00087e-06
-1.01701e-09
5.00104e-06
-1.11921e-09
5.00122e-06
-1.4629e-09
5.00142e-06
-1.53094e-09
-2.15892e-09
5e-06
-1.46296e-11
5.00001e-06
-4.52358e-11
5.00002e-06
-7.59765e-11
5.00004e-06
-1.08328e-10
5.00005e-06
-1.42009e-10
5.00008e-06
-1.79952e-10
5.00011e-06
-2.20619e-10
5.00014e-06
-2.70252e-10
5.00018e-06
-3.23111e-10
5.00023e-06
-3.92834e-10
5.00029e-06
-4.63003e-10
5.00035e-06
-5.63849e-10
5.00043e-06
-6.5499e-10
5.00053e-06
-8.03908e-10
5.00063e-06
-9.13576e-10
5.00075e-06
-1.13977e-09
5.00089e-06
-1.25429e-09
5.00104e-06
-1.61728e-09
5.00121e-06
-1.69475e-09
-2.28881e-09
5e-06
-1.66069e-11
5.00001e-06
-4.99746e-11
5.00001e-06
-8.35333e-11
5.00002e-06
-1.18598e-10
5.00004e-06
-1.55377e-10
5.00005e-06
-1.97175e-10
5.00008e-06
-2.42059e-10
5.0001e-06
-2.96575e-10
5.00013e-06
-3.55077e-10
5.00017e-06
-4.30848e-10
5.00022e-06
-5.08339e-10
5.00027e-06
-6.17146e-10
5.00033e-06
-7.17637e-10
5.0004e-06
-8.76122e-10
5.00049e-06
-9.9693e-10
5.00058e-06
-1.23339e-09
5.00069e-06
-1.35894e-09
5.0008e-06
-1.72805e-09
5.00091e-06
-1.80956e-09
-2.43706e-09
5e-06
-1.77217e-11
5e-06
-5.3221e-11
5.00001e-06
-8.87621e-11
5.00002e-06
-1.26404e-10
5.00003e-06
-1.65743e-10
5.00004e-06
-2.10415e-10
5.00006e-06
-2.58326e-10
5.00008e-06
-3.16386e-10
5.0001e-06
-3.7869e-10
5.00013e-06
-4.58968e-10
5.00016e-06
-5.41612e-10
5.0002e-06
-6.56328e-10
5.00025e-06
-7.63153e-10
5.0003e-06
-9.28884e-10
5.00036e-06
-1.05666e-09
5.00042e-06
-1.30063e-09
5.0005e-06
-1.43225e-09
5.00058e-06
-1.80882e-09
5.00067e-06
-1.89744e-09
-2.51066e-09
5e-06
-1.82775e-11
5e-06
-5.51815e-11
5.00001e-06
-9.21056e-11
5.00001e-06
-1.313e-10
5.00002e-06
-1.72245e-10
5.00002e-06
-2.18537e-10
5.00003e-06
-2.68213e-10
5.00005e-06
-3.28334e-10
5.00006e-06
-3.92945e-10
5.00008e-06
-4.75964e-10
5.0001e-06
-5.61689e-10
5.00012e-06
-6.79805e-10
5.00015e-06
-7.90416e-10
5.00018e-06
-9.60277e-10
5.00022e-06
-1.09222e-09
5.00026e-06
-1.34041e-09
5.0003e-06
-1.47603e-09
5.00035e-06
-1.85595e-09
5.00039e-06
-1.9448e-09
-2.56653e-09
5e-06
-1.84481e-11
5e-06
-5.57972e-11
5e-06
-9.32632e-11
5e-06
-1.32963e-10
5.00001e-06
-1.74452e-10
5.00001e-06
-2.21257e-10
5.00001e-06
-2.71566e-10
5.00002e-06
-3.32335e-10
5.00002e-06
-3.97731e-10
5.00003e-06
-4.816e-10
5.00003e-06
-5.68283e-10
5.00004e-06
-6.87531e-10
5.00005e-06
-7.99448e-10
5.00006e-06
-9.70635e-10
5.00007e-06
-1.1041e-09
5.00009e-06
-1.3537e-09
5.0001e-06
-1.49071e-09
5.00012e-06
-1.87143e-09
5.00013e-06
-1.962e-09
-2.58273e-09
5e-06
-1.82452e-11
5e-06
-5.50812e-11
5e-06
-9.21248e-11
5e-06
-1.31316e-10
4.99999e-06
-1.72314e-10
4.99999e-06
-2.18534e-10
4.99999e-06
-2.68264e-10
4.99998e-06
-3.28289e-10
4.99998e-06
-3.92944e-10
4.99997e-06
-4.75962e-10
4.99997e-06
-5.61619e-10
4.99996e-06
-6.79794e-10
4.99995e-06
-7.90373e-10
4.99994e-06
-9.60074e-10
4.99993e-06
-1.09199e-09
4.99991e-06
-1.34025e-09
4.9999e-06
-1.476e-09
4.99988e-06
-1.85602e-09
4.99987e-06
-1.94497e-09
-2.56651e-09
5e-06
-1.76329e-11
5e-06
-5.31581e-11
4.99999e-06
-8.88087e-11
4.99999e-06
-1.264e-10
4.99998e-06
-1.65841e-10
4.99998e-06
-2.10415e-10
4.99997e-06
-2.58397e-10
4.99995e-06
-3.16372e-10
4.99994e-06
-3.78669e-10
4.99992e-06
-4.59015e-10
4.9999e-06
-5.41592e-10
4.99988e-06
-6.56275e-10
4.99985e-06
-7.63098e-10
4.99982e-06
-9.28735e-10
4.99978e-06
-1.05645e-09
4.99974e-06
-1.30038e-09
4.9997e-06
-1.43212e-09
4.99965e-06
-1.80882e-09
4.99961e-06
-1.8976e-09
-2.5106e-09
5e-06
-1.65429e-11
5e-06
-5.00256e-11
4.99999e-06
-8.35096e-11
4.99998e-06
-1.18626e-10
4.99997e-06
-1.55421e-10
4.99996e-06
-1.97175e-10
4.99994e-06
-2.42053e-10
4.99992e-06
-2.9664e-10
4.9999e-06
-3.54995e-10
4.99987e-06
-4.30868e-10
4.99984e-06
-5.08458e-10
4.9998e-06
-6.17152e-10
4.99975e-06
-7.17623e-10
4.9997e-06
-8.76113e-10
4.99964e-06
-9.96894e-10
4.99957e-06
-1.2332e-09
4.9995e-06
-1.35878e-09
4.99942e-06
-1.72789e-09
4.99933e-06
-1.80952e-09
-2.43678e-09
5e-06
-1.46877e-11
4.99999e-06
-4.53106e-11
4.99999e-06
-7.59249e-11
4.99998e-06
-1.08403e-10
4.99996e-06
-1.41836e-10
4.99995e-06
-1.8001e-10
4.99992e-06
-2.20494e-10
4.9999e-06
-2.70394e-10
4.99987e-06
-3.23069e-10
4.99983e-06
-3.92664e-10
4.99978e-06
-4.63037e-10
4.99973e-06
-5.63913e-10
4.99967e-06
-6.55057e-10
4.9996e-06
-8.0398e-10
4.99951e-06
-9.13658e-10
4.99942e-06
-1.13968e-09
4.99931e-06
-1.25413e-09
4.9992e-06
-1.61691e-09
4.99909e-06
-1.69443e-09
-2.28836e-09
5e-06
-1.23851e-11
4.99999e-06
-3.82402e-11
4.99998e-06
-6.45859e-11
4.99996e-06
-9.29223e-11
4.99995e-06
-1.22437e-10
4.99992e-06
-1.56358e-10
4.99989e-06
-1.91986e-10
4.99986e-06
-2.36128e-10
4.99982e-06
-2.82635e-10
4.99977e-06
-3.4409e-10
4.99971e-06
-4.05804e-10
4.99965e-06
-4.95733e-10
4.99957e-06
-5.75849e-10
4.99947e-06
-7.10542e-10
4.99937e-06
-8.07666e-10
4.99925e-06
-1.01701e-09
4.99911e-06
-1.11913e-09
4.99896e-06
-1.46248e-09
4.99879e-06
-1.53053e-09
-2.15836e-09
5e-06
-1.32187e-11
5e-06
-3.47573e-11
4.99999e-06
-5.65205e-11
4.99998e-06
-7.99818e-11
4.99996e-06
-1.04191e-10
4.99994e-06
-1.31929e-10
4.9999e-06
-1.60807e-10
4.99987e-06
-1.97321e-10
4.99982e-06
-2.35304e-10
4.99976e-06
-2.87588e-10
4.99969e-06
-3.375e-10
4.99961e-06
-4.15338e-10
4.99952e-06
-4.79831e-10
4.99941e-06
-5.99294e-10
4.99928e-06
-6.76439e-10
4.99913e-06
-8.68918e-10
4.99896e-06
-9.49209e-10
4.99878e-06
-1.28071e-09
4.99858e-06
-1.32941e-09
-1.89414e-09
4.99999e-06
-5.15655e-12
4.99998e-06
-2.13404e-11
4.99996e-06
-3.91849e-11
4.99994e-06
-5.84311e-11
4.99991e-06
-7.82409e-11
4.99988e-06
-1.00066e-10
4.99985e-06
-1.23702e-10
4.9998e-06
-1.52343e-10
4.99975e-06
-1.81844e-10
4.99968e-06
-2.23065e-10
4.99961e-06
-2.61863e-10
4.99952e-06
-3.2345e-10
4.99941e-06
-3.7314e-10
4.99928e-06
-4.69737e-10
4.99913e-06
-5.28555e-10
4.99896e-06
-6.89714e-10
4.99876e-06
-7.49743e-10
4.99852e-06
-1.04177e-09
4.99827e-06
-1.0817e-09
-1.68646e-09
5.00001e-06
-1.1865e-11
5.00001e-06
-1.97039e-11
5e-06
-3.04204e-11
4.99998e-06
-4.31593e-11
4.99996e-06
-5.55467e-11
4.99993e-06
-6.97089e-11
4.99989e-06
-8.52977e-11
4.99984e-06
-1.04439e-10
4.99979e-06
-1.23275e-10
4.99972e-06
-1.52739e-10
4.99963e-06
-1.76824e-10
4.99953e-06
-2.22197e-10
4.99941e-06
-2.51105e-10
4.99926e-06
-3.2551e-10
4.99909e-06
-3.55722e-10
4.99889e-06
-4.87925e-10
4.99865e-06
-5.10469e-10
4.99838e-06
-7.6827e-10
4.99805e-06
-7.59063e-10
-1.25998e-09
4.99998e-06
9.98983e-12
4.99996e-06
-4.70907e-12
4.99995e-06
-1.35133e-11
4.99992e-06
-2.0184e-11
4.9999e-06
-2.69013e-11
4.99986e-06
-3.62013e-11
4.99982e-06
-4.34819e-11
4.99977e-06
-4.46693e-11
4.99971e-06
-6.23977e-11
4.99963e-06
-7.81201e-11
4.99955e-06
-9.01822e-11
4.99944e-06
-1.14207e-10
4.99932e-06
-1.274e-10
4.99916e-06
-1.68599e-10
4.99898e-06
-1.79007e-10
4.99875e-06
-2.57838e-10
4.9985e-06
-2.56853e-10
4.99816e-06
-4.32035e-10
4.99782e-06
-4.13787e-10
-8.90734e-10
5.00001e-06
5.00001e-06
4.99999e-06
4.99997e-06
4.99995e-06
4.99991e-06
4.99987e-06
4.99982e-06
4.99975e-06
4.99968e-06
4.99959e-06
4.99947e-06
4.99935e-06
4.99918e-06
4.999e-06
4.99874e-06
4.99848e-06
4.99805e-06
4.99764e-06
)
;

boundaryField
{
    sides
    {
        type            calculated;
        value           uniform 0;
    }
    inlet
    {
        type            calculated;
        value           nonuniform List<scalar> 
20
(
-5e-06
-5e-06
-5e-06
-5e-06
-5e-06
-5e-06
-5e-06
-5e-06
-5e-06
-5e-06
-5e-06
-5e-06
-5e-06
-5e-06
-5e-06
-5e-06
-5e-06
-5e-06
-5e-06
-5e-06
)
;
    }
    outlet
    {
        type            calculated;
        value           nonuniform List<scalar> 
20
(
5.00325e-06
5.00255e-06
5.00237e-06
5.00194e-06
5.00169e-06
5.00134e-06
5.00106e-06
5.00074e-06
5.00045e-06
5.00015e-06
4.99985e-06
4.99955e-06
4.99926e-06
4.99894e-06
4.99866e-06
4.99831e-06
4.99806e-06
4.99763e-06
4.99745e-06
4.99675e-06
)
;
    }
    frontAndBack
    {
        type            empty;
        value           nonuniform 0();
    }
}


// ************************************************************************* //
