/*--------------------------------*- C++ -*----------------------------------*\
  =========                 |
  \\      /  F ield         | OpenFOAM: The Open Source CFD Toolbox
   \\    /   O peration     | Website:  https://openfoam.org
    \\  /    A nd           | Version:  7
     \\/     M anipulation  |
\*---------------------------------------------------------------------------*/
FoamFile
{
    version     2.0;
    format      ascii;
    class       volVectorField;
    location    "61";
    object      U;
}
// * * * * * * * * * * * * * * * * * * * * * * * * * * * * * * * * * * * * * //

dimensions      [0 1 -1 0 0 0 0];

internalField   nonuniform List<vector> 
400
(
(0.0999931 -8.7849e-07 0)
(0.099993 -2.38495e-06 0)
(0.0999931 -3.61326e-06 0)
(0.0999935 -4.68849e-06 0)
(0.0999939 -5.70515e-06 0)
(0.0999947 -6.74317e-06 0)
(0.0999955 -7.80869e-06 0)
(0.0999966 -8.91289e-06 0)
(0.0999978 -9.97173e-06 0)
(0.0999995 -1.11725e-05 0)
(0.100001 -1.22522e-05 0)
(0.100004 -1.36142e-05 0)
(0.100006 -1.46652e-05 0)
(0.10001 -1.63591e-05 0)
(0.100013 -1.72457e-05 0)
(0.10002 -1.96574e-05 0)
(0.100022 -2.00918e-05 0)
(0.100035 -2.43041e-05 0)
(0.100036 -2.38964e-05 0)
(0.10006 -3.31576e-05 0)
(0.0999943 3.92526e-07 0)
(0.0999947 1.20819e-06 0)
(0.0999953 2.02009e-06 0)
(0.0999958 2.78498e-06 0)
(0.0999963 3.49697e-06 0)
(0.099997 4.15211e-06 0)
(0.0999978 4.74704e-06 0)
(0.0999989 5.28829e-06 0)
(0.1 5.83102e-06 0)
(0.100002 6.22128e-06 0)
(0.100003 6.69151e-06 0)
(0.100006 6.8536e-06 0)
(0.100008 7.26182e-06 0)
(0.100012 6.97525e-06 0)
(0.100014 7.38706e-06 0)
(0.10002 6.14874e-06 0)
(0.100024 6.7012e-06 0)
(0.100033 3.16618e-06 0)
(0.100036 3.98469e-06 0)
(0.10005 -5.44752e-06 0)
(0.0999948 -4.05344e-07 0)
(0.0999947 -1.32208e-06 0)
(0.0999947 -2.3364e-06 0)
(0.099995 -3.39957e-06 0)
(0.0999954 -4.45029e-06 0)
(0.099996 -5.5185e-06 0)
(0.0999967 -6.56949e-06 0)
(0.0999977 -7.72153e-06 0)
(0.0999988 -8.87138e-06 0)
(0.1 -1.02325e-05 0)
(0.100002 -1.1511e-05 0)
(0.100004 -1.32402e-05 0)
(0.100006 -1.46701e-05 0)
(0.10001 -1.70426e-05 0)
(0.100013 -1.85633e-05 0)
(0.100018 -2.21679e-05 0)
(0.100021 -2.36003e-05 0)
(0.100029 -2.9772e-05 0)
(0.100032 -3.05961e-05 0)
(0.100046 -4.21683e-05 0)
(0.0999956 -2.58188e-08 0)
(0.0999958 -3.59062e-08 0)
(0.0999962 1.37644e-08 0)
(0.0999967 7.95756e-08 0)
(0.0999972 1.54069e-07 0)
(0.0999978 1.55256e-07 0)
(0.0999986 1.38346e-07 0)
(0.0999995 -3.3335e-08 0)
(0.100001 -2.25451e-07 0)
(0.100002 -6.84808e-07 0)
(0.100003 -1.10596e-06 0)
(0.100005 -2.04793e-06 0)
(0.100007 -2.74177e-06 0)
(0.10001 -4.47833e-06 0)
(0.100013 -5.41986e-06 0)
(0.100017 -8.57058e-06 0)
(0.10002 -9.59488e-06 0)
(0.100027 -1.54912e-05 0)
(0.100029 -1.60718e-05 0)
(0.100039 -2.75252e-05 0)
(0.0999963 -2.9948e-07 0)
(0.0999963 -9.51457e-07 0)
(0.0999964 -1.67226e-06 0)
(0.0999966 -2.48703e-06 0)
(0.0999969 -3.35263e-06 0)
(0.0999974 -4.31504e-06 0)
(0.099998 -5.30554e-06 0)
(0.0999988 -6.45839e-06 0)
(0.0999997 -7.63653e-06 0)
(0.100001 -9.10449e-06 0)
(0.100002 -1.05479e-05 0)
(0.100004 -1.25416e-05 0)
(0.100006 -1.42986e-05 0)
(0.100008 -1.71465e-05 0)
(0.100011 -1.9192e-05 0)
(0.100014 -2.35118e-05 0)
(0.100017 -2.56315e-05 0)
(0.100022 -3.26856e-05 0)
(0.100024 -3.41325e-05 0)
(0.100033 -4.63762e-05 0)
(0.099997 -2.70517e-07 0)
(0.0999971 -7.97787e-07 0)
(0.0999972 -1.28696e-06 0)
(0.0999976 -1.76893e-06 0)
(0.0999979 -2.23589e-06 0)
(0.0999984 -2.76739e-06 0)
(0.099999 -3.33171e-06 0)
(0.0999997 -4.06877e-06 0)
(0.1 -4.85607e-06 0)
(0.100002 -5.97174e-06 0)
(0.100003 -7.09846e-06 0)
(0.100004 -8.81995e-06 0)
(0.100006 -1.03535e-05 0)
(0.100008 -1.30223e-05 0)
(0.10001 -1.4932e-05 0)
(0.100013 -1.91368e-05 0)
(0.100015 -2.11678e-05 0)
(0.100019 -2.80846e-05 0)
(0.100021 -2.94134e-05 0)
(0.100027 -4.14064e-05 0)
(0.0999976 -3.05477e-07 0)
(0.0999977 -9.33317e-07 0)
(0.0999978 -1.58416e-06 0)
(0.099998 -2.29827e-06 0)
(0.0999983 -3.068e-06 0)
(0.0999986 -3.94961e-06 0)
(0.0999991 -4.90296e-06 0)
(0.0999996 -6.05123e-06 0)
(0.1 -7.27284e-06 0)
(0.100001 -8.84001e-06 0)
(0.100002 -1.04281e-05 0)
(0.100003 -1.26348e-05 0)
(0.100004 -1.46634e-05 0)
(0.100006 -1.78558e-05 0)
(0.100007 -2.02775e-05 0)
(0.10001 -2.503e-05 0)
(0.100011 -2.75449e-05 0)
(0.100015 -3.49959e-05 0)
(0.100016 -3.66927e-05 0)
(0.100021 -4.91303e-05 0)
(0.0999983 -3.37716e-07 0)
(0.0999984 -1.0269e-06 0)
(0.0999985 -1.73046e-06 0)
(0.0999986 -2.47768e-06 0)
(0.0999988 -3.25443e-06 0)
(0.0999991 -4.11892e-06 0)
(0.0999994 -5.0348e-06 0)
(0.0999998 -6.13592e-06 0)
(0.1 -7.31223e-06 0)
(0.100001 -8.83718e-06 0)
(0.100001 -1.03993e-05 0)
(0.100002 -1.25941e-05 0)
(0.100003 -1.46304e-05 0)
(0.100004 -1.78341e-05 0)
(0.100005 -2.02879e-05 0)
(0.100007 -2.50542e-05 0)
(0.100008 -2.76051e-05 0)
(0.100011 -3.50205e-05 0)
(0.100012 -3.67155e-05 0)
(0.100015 -4.89755e-05 0)
(0.099999 -3.56016e-07 0)
(0.099999 -1.07967e-06 0)
(0.0999991 -1.81157e-06 0)
(0.0999992 -2.58604e-06 0)
(0.0999993 -3.39165e-06 0)
(0.0999995 -4.29939e-06 0)
(0.0999996 -5.27286e-06 0)
(0.0999999 -6.45154e-06 0)
(0.1 -7.72053e-06 0)
(0.100001 -9.35454e-06 0)
(0.100001 -1.10411e-05 0)
(0.100001 -1.33804e-05 0)
(0.100002 -1.55695e-05 0)
(0.100003 -1.89525e-05 0)
(0.100003 -2.15816e-05 0)
(0.100004 -2.65509e-05 0)
(0.100005 -2.92631e-05 0)
(0.100006 -3.68795e-05 0)
(0.100007 -3.8678e-05 0)
(0.100009 -5.11418e-05 0)
(0.0999997 -3.63268e-07 0)
(0.0999997 -1.10427e-06 0)
(0.0999997 -1.85247e-06 0)
(0.0999997 -2.64568e-06 0)
(0.0999998 -3.47403e-06 0)
(0.0999998 -4.40882e-06 0)
(0.0999999 -5.41275e-06 0)
(0.1 -6.6251e-06 0)
(0.1 -7.93086e-06 0)
(0.1 -9.60449e-06 0)
(0.1 -1.13343e-05 0)
(0.1 -1.37149e-05 0)
(0.100001 -1.59479e-05 0)
(0.100001 -1.93688e-05 0)
(0.100001 -2.20394e-05 0)
(0.100001 -2.70348e-05 0)
(0.100002 -2.97831e-05 0)
(0.100002 -3.74038e-05 0)
(0.100002 -3.92281e-05 0)
(0.100003 -5.16346e-05 0)
(0.1 -3.62532e-07 0)
(0.1 -1.10324e-06 0)
(0.1 -1.85278e-06 0)
(0.1 -2.64577e-06 0)
(0.1 -3.47501e-06 0)
(0.1 -4.40919e-06 0)
(0.1 -5.41349e-06 0)
(0.1 -6.62543e-06 0)
(0.0999999 -7.93057e-06 0)
(0.0999998 -9.60514e-06 0)
(0.0999997 -1.13344e-05 0)
(0.0999995 -1.37147e-05 0)
(0.0999993 -1.59483e-05 0)
(0.0999991 -1.93683e-05 0)
(0.0999989 -2.20373e-05 0)
(0.0999986 -2.70321e-05 0)
(0.0999983 -2.97816e-05 0)
(0.0999979 -3.74039e-05 0)
(0.0999977 -3.92289e-05 0)
(0.0999971 -5.16348e-05 0)
(0.100001 -3.54119e-07 0)
(0.100001 -1.07836e-06 0)
(0.100001 -1.81191e-06 0)
(0.100001 -2.58627e-06 0)
(0.100001 -3.39335e-06 0)
(0.100001 -4.30027e-06 0)
(0.1 -5.27419e-06 0)
(0.1 -6.4526e-06 0)
(0.0999998 -7.7197e-06 0)
(0.0999995 -9.35558e-06 0)
(0.0999991 -1.10421e-05 0)
(0.0999986 -1.33802e-05 0)
(0.099998 -1.55696e-05 0)
(0.0999973 -1.89511e-05 0)
(0.0999967 -2.15776e-05 0)
(0.0999957 -2.65445e-05 0)
(0.099995 -2.92585e-05 0)
(0.0999936 -3.68769e-05 0)
(0.0999932 -3.86774e-05 0)
(0.0999912 -5.11375e-05 0)
(0.100002 -3.36519e-07 0)
(0.100002 -1.02713e-06 0)
(0.100002 -1.72984e-06 0)
(0.100001 -2.47836e-06 0)
(0.100001 -3.25431e-06 0)
(0.100001 -4.1199e-06 0)
(0.100001 -5.03497e-06 0)
(0.1 -6.13767e-06 0)
(0.0999997 -7.31163e-06 0)
(0.0999991 -8.83686e-06 0)
(0.0999985 -1.04015e-05 0)
(0.0999977 -1.25959e-05 0)
(0.0999968 -1.46313e-05 0)
(0.0999956 -1.78346e-05 0)
(0.0999945 -2.0288e-05 0)
(0.0999929 -2.50519e-05 0)
(0.0999917 -2.76033e-05 0)
(0.0999894 -3.50202e-05 0)
(0.0999885 -3.67176e-05 0)
(0.0999853 -4.89756e-05 0)
(0.100002 -3.069e-07 0)
(0.100002 -9.34442e-07 0)
(0.100002 -1.58347e-06 0)
(0.100002 -2.29858e-06 0)
(0.100002 -3.06541e-06 0)
(0.100001 -3.95035e-06 0)
(0.100001 -4.90152e-06 0)
(0.1 -6.05195e-06 0)
(0.0999998 -7.27342e-06 0)
(0.099999 -8.83657e-06 0)
(0.0999981 -1.0427e-05 0)
(0.0999969 -1.26351e-05 0)
(0.0999958 -1.4663e-05 0)
(0.0999941 -1.78546e-05 0)
(0.0999927 -2.02773e-05 0)
(0.0999903 -2.50264e-05 0)
(0.0999887 -2.75404e-05 0)
(0.0999853 -3.49871e-05 0)
(0.0999843 -3.66848e-05 0)
(0.0999793 -4.91163e-05 0)
(0.100003 -2.73662e-07 0)
(0.100003 -7.98788e-07 0)
(0.100003 -1.28743e-06 0)
(0.100002 -1.76797e-06 0)
(0.100002 -2.23526e-06 0)
(0.100002 -2.76812e-06 0)
(0.100001 -3.33248e-06 0)
(0.1 -4.06799e-06 0)
(0.0999995 -4.8599e-06 0)
(0.0999985 -5.97157e-06 0)
(0.0999974 -7.09671e-06 0)
(0.0999959 -8.82047e-06 0)
(0.0999944 -1.03558e-05 0)
(0.0999923 -1.30252e-05 0)
(0.0999904 -1.49366e-05 0)
(0.0999874 -1.91407e-05 0)
(0.0999853 -2.11707e-05 0)
(0.0999811 -2.80832e-05 0)
(0.0999792 -2.94113e-05 0)
(0.0999733 -4.14036e-05 0)
(0.100004 -3.01323e-07 0)
(0.100004 -9.50977e-07 0)
(0.100004 -1.6728e-06 0)
(0.100003 -2.48553e-06 0)
(0.100003 -3.35584e-06 0)
(0.100003 -4.31194e-06 0)
(0.100002 -5.30912e-06 0)
(0.100001 -6.45437e-06 0)
(0.1 -7.63666e-06 0)
(0.0999991 -9.10582e-06 0)
(0.0999978 -1.05453e-05 0)
(0.099996 -1.25379e-05 0)
(0.0999943 -1.42973e-05 0)
(0.0999916 -1.71448e-05 0)
(0.0999895 -1.91924e-05 0)
(0.0999856 -2.35106e-05 0)
(0.0999833 -2.56312e-05 0)
(0.0999776 -3.26768e-05 0)
(0.0999759 -3.41237e-05 0)
(0.0999673 -4.63591e-05 0)
(0.100004 -2.6219e-08 0)
(0.100004 -3.47325e-08 0)
(0.100004 1.3277e-08 0)
(0.100003 7.8056e-08 0)
(0.100003 1.47666e-07 0)
(0.100002 1.60458e-07 0)
(0.100001 1.29429e-07 0)
(0.1 -3.43997e-08 0)
(0.0999994 -2.24226e-07 0)
(0.0999981 -6.8717e-07 0)
(0.0999966 -1.10607e-06 0)
(0.0999946 -2.04566e-06 0)
(0.0999926 -2.74067e-06 0)
(0.0999897 -4.47728e-06 0)
(0.0999871 -5.42023e-06 0)
(0.0999828 -8.57068e-06 0)
(0.0999798 -9.59623e-06 0)
(0.0999734 -1.54886e-05 0)
(0.0999706 -1.60687e-05 0)
(0.0999614 -2.75188e-05 0)
(0.100005 -4.03383e-07 0)
(0.100005 -1.32183e-06 0)
(0.100005 -2.33514e-06 0)
(0.100005 -3.40181e-06 0)
(0.100005 -4.45275e-06 0)
(0.100004 -5.51783e-06 0)
(0.100003 -6.58009e-06 0)
(0.100002 -7.72767e-06 0)
(0.100001 -8.86815e-06 0)
(0.0999996 -1.02329e-05 0)
(0.0999981 -1.15148e-05 0)
(0.0999958 -1.32424e-05 0)
(0.0999937 -1.46722e-05 0)
(0.0999902 -1.70424e-05 0)
(0.0999875 -1.85643e-05 0)
(0.0999821 -2.21667e-05 0)
(0.0999791 -2.36037e-05 0)
(0.0999706 -2.97715e-05 0)
(0.0999683 -3.0599e-05 0)
(0.0999544 -4.21618e-05 0)
(0.100006 3.98468e-07 0)
(0.100005 1.20654e-06 0)
(0.100005 2.01768e-06 0)
(0.100004 2.78483e-06 0)
(0.100004 3.51003e-06 0)
(0.100003 4.13993e-06 0)
(0.100002 4.77789e-06 0)
(0.100001 5.28832e-06 0)
(0.1 5.82756e-06 0)
(0.0999984 6.22029e-06 0)
(0.0999967 6.68694e-06 0)
(0.0999944 6.85139e-06 0)
(0.0999921 7.2624e-06 0)
(0.0999885 6.97994e-06 0)
(0.0999856 7.39215e-06 0)
(0.0999799 6.15573e-06 0)
(0.0999764 6.70415e-06 0)
(0.0999674 3.17153e-06 0)
(0.0999641 3.98732e-06 0)
(0.09995 -5.43632e-06 0)
(0.100007 -8.74817e-07 0)
(0.100007 -2.3868e-06 0)
(0.100007 -3.61805e-06 0)
(0.100007 -4.68977e-06 0)
(0.100006 -5.69563e-06 0)
(0.100005 -6.75652e-06 0)
(0.100004 -7.77714e-06 0)
(0.100003 -8.9144e-06 0)
(0.100002 -9.98403e-06 0)
(0.1 -1.11804e-05 0)
(0.0999989 -1.22609e-05 0)
(0.0999962 -1.36217e-05 0)
(0.0999941 -1.46714e-05 0)
(0.0999899 -1.6364e-05 0)
(0.0999875 -1.7251e-05 0)
(0.0999803 -1.96633e-05 0)
(0.0999779 -2.00996e-05 0)
(0.0999653 -2.43136e-05 0)
(0.0999638 -2.39063e-05 0)
(0.0999402 -3.31716e-05 0)
)
;

boundaryField
{
    sides
    {
        type            calculated;
        value           nonuniform List<vector> 
40
(
(0.100007 0 0)
(0.100007 0 0)
(0.100007 0 0)
(0.100007 0 0)
(0.100006 0 0)
(0.100005 0 0)
(0.100004 0 0)
(0.100003 0 0)
(0.100002 0 0)
(0.1 0 0)
(0.0999989 0 0)
(0.0999962 0 0)
(0.0999941 0 0)
(0.0999899 0 0)
(0.0999875 0 0)
(0.0999803 0 0)
(0.0999779 0 0)
(0.0999653 0 0)
(0.0999638 0 0)
(0.0999402 0 0)
(0.0999931 0 0)
(0.099993 0 0)
(0.0999931 0 0)
(0.0999935 0 0)
(0.0999939 0 0)
(0.0999947 0 0)
(0.0999955 0 0)
(0.0999966 0 0)
(0.0999978 0 0)
(0.0999995 0 0)
(0.100001 0 0)
(0.100004 0 0)
(0.100006 0 0)
(0.10001 0 0)
(0.100013 0 0)
(0.10002 0 0)
(0.100022 0 0)
(0.100035 0 0)
(0.100036 0 0)
(0.10006 0 0)
)
;
    }
    inlet
    {
        type            calculated;
        value           nonuniform List<vector> 
20
(
(0.0999931 0 0)
(0.0999943 0 0)
(0.0999948 0 0)
(0.0999956 0 0)
(0.0999963 0 0)
(0.099997 0 0)
(0.0999976 0 0)
(0.0999983 0 0)
(0.099999 0 0)
(0.0999997 0 0)
(0.1 0 0)
(0.100001 0 0)
(0.100002 0 0)
(0.100002 0 0)
(0.100003 0 0)
(0.100004 0 0)
(0.100004 0 0)
(0.100005 0 0)
(0.100006 0 0)
(0.100007 0 0)
)
;
    }
    outlet
    {
        type            calculated;
        value           nonuniform List<vector> 
20
(
(0.100061 -3.31579e-05 0)
(0.10005 -5.44755e-06 0)
(0.100046 -4.21685e-05 0)
(0.100039 -2.75253e-05 0)
(0.100033 -4.63764e-05 0)
(0.100027 -4.14064e-05 0)
(0.100021 -4.91304e-05 0)
(0.100015 -4.89756e-05 0)
(0.100009 -5.11418e-05 0)
(0.100003 -5.16346e-05 0)
(0.099997 -5.16347e-05 0)
(0.0999911 -5.11374e-05 0)
(0.0999852 -4.89756e-05 0)
(0.0999792 -4.91162e-05 0)
(0.0999731 -4.14035e-05 0)
(0.099967 -4.6359e-05 0)
(0.0999611 -2.75187e-05 0)
(0.0999539 -4.21617e-05 0)
(0.0999496 -5.4363e-06 0)
(0.0999394 -3.31713e-05 0)
)
;
    }
    frontAndBack
    {
        type            empty;
    }
}


// ************************************************************************* //
