/*--------------------------------*- C++ -*----------------------------------*\
  =========                 |
  \\      /  F ield         | OpenFOAM: The Open Source CFD Toolbox
   \\    /   O peration     | Website:  https://openfoam.org
    \\  /    A nd           | Version:  7
     \\/     M anipulation  |
\*---------------------------------------------------------------------------*/
FoamFile
{
    version     2.0;
    format      ascii;
    class       volVectorField;
    location    "48";
    object      ddt0(hU);
}
// * * * * * * * * * * * * * * * * * * * * * * * * * * * * * * * * * * * * * //

dimensions      [0 2 -2 0 0 0 0];

internalField   nonuniform List<vector> 
400
(
(-2.18593e-11 -1.72808e-10 0)
(-2.89003e-10 -6.30402e-10 0)
(-3.85202e-11 -8.30927e-10 0)
(1.6616e-10 -1.04221e-09 0)
(-1.16477e-11 -1.32223e-09 0)
(-1.49092e-10 -2.4087e-10 0)
(-1.042e-10 -1.55288e-09 0)
(-4.81779e-09 -2.04349e-09 0)
(-4.05366e-10 6.65328e-10 0)
(1.60873e-10 4.46152e-10 0)
(-1.13593e-09 5.27692e-10 0)
(-1.31191e-09 3.87206e-10 0)
(-1.50885e-09 -7.80933e-11 0)
(-1.60806e-09 -6.22845e-10 0)
(-1.25221e-09 -8.89789e-10 0)
(-5.49321e-10 -1.04214e-09 0)
(3.16013e-10 -7.12832e-10 0)
(5.28809e-10 -3.93496e-10 0)
(1.05863e-09 1.51462e-10 0)
(4.61008e-10 7.00395e-10 0)
(-6.93431e-11 1.14222e-10 0)
(-4.6951e-10 -8.77155e-11 0)
(-3.52752e-10 -1.42965e-10 0)
(-2.30548e-11 -2.54801e-10 0)
(3.1191e-10 -7.80956e-10 0)
(9.69925e-10 2.92018e-10 0)
(1.05018e-09 -1.41969e-09 0)
(4.787e-09 -1.16943e-09 0)
(1.98644e-09 4.09309e-11 0)
(-2.56232e-10 -5.0085e-10 0)
(-7.17032e-10 -1.0953e-10 0)
(-1.1333e-09 1.91253e-10 0)
(-1.58199e-09 1.05507e-10 0)
(-1.65934e-09 -1.31132e-10 0)
(-1.26281e-09 -2.28422e-10 0)
(-6.41547e-10 -3.54253e-10 0)
(1.71525e-10 -4.0018e-10 0)
(4.20138e-10 -3.20982e-10 0)
(9.63249e-10 -2.90362e-10 0)
(5.5321e-10 1.03962e-10 0)
(2.99979e-11 -2.6795e-10 0)
(-1.60838e-10 -8.6142e-10 0)
(-4.46269e-10 -1.24153e-09 0)
(-2.51819e-10 -1.31416e-09 0)
(1.154e-10 -1.57356e-09 0)
(1.93773e-10 -1.37967e-09 0)
(-2.48684e-10 -7.63107e-10 0)
(1.33189e-09 1.01191e-09 0)
(-3.14954e-10 2.97398e-10 0)
(-7.57405e-10 9.03921e-10 0)
(-7.23963e-10 1.2599e-09 0)
(-1.16714e-09 9.65423e-10 0)
(-1.60538e-09 1.57912e-10 0)
(-1.4891e-09 -8.56845e-10 0)
(-1.03988e-09 -1.40943e-09 0)
(-4.27965e-10 -1.86441e-09 0)
(3.79646e-10 -1.50569e-09 0)
(5.81601e-10 -9.53063e-10 0)
(1.25796e-09 -1.38188e-10 0)
(5.10862e-10 1.09177e-09 0)
(3.466e-11 -4.52361e-10 0)
(-3.81904e-10 -1.39402e-09 0)
(-5.13133e-10 -1.98201e-09 0)
(-1.6326e-10 -2.08392e-09 0)
(3.4449e-10 -2.10181e-09 0)
(4.08189e-10 -2.33984e-09 0)
(7.50849e-10 -1.35963e-09 0)
(7.81885e-10 -8.83259e-10 0)
(6.06306e-11 -1.88805e-10 0)
(3.9284e-11 9.61914e-10 0)
(-3.77473e-10 1.40537e-09 0)
(-1.12849e-09 1.06072e-09 0)
(-1.58283e-09 2.46048e-10 0)
(-1.4677e-09 -9.6802e-10 0)
(-1.08263e-09 -1.8096e-09 0)
(-6.32677e-10 -2.55756e-09 0)
(3.59091e-11 -2.19268e-09 0)
(3.19902e-10 -1.43936e-09 0)
(8.62259e-10 -3.5419e-10 0)
(5.00678e-10 1.30366e-09 0)
(-1.91773e-11 -2.59379e-10 0)
(-2.60351e-10 -9.66377e-10 0)
(-2.97721e-10 -1.40902e-09 0)
(-4.12707e-12 -1.64064e-09 0)
(2.63403e-10 -1.62877e-09 0)
(4.37932e-11 -1.90131e-09 0)
(1.07969e-10 -1.29729e-09 0)
(-6.48918e-11 -9.5268e-10 0)
(-7.77619e-11 -2.86449e-11 0)
(3.31486e-11 9.86725e-10 0)
(-3.92195e-10 1.33656e-09 0)
(-9.14802e-10 1.00884e-09 0)
(-1.04348e-09 2.78365e-10 0)
(-8.79592e-10 -9.89931e-10 0)
(-7.34798e-10 -1.94759e-09 0)
(-5.71834e-10 -2.82486e-09 0)
(-9.2212e-11 -2.51058e-09 0)
(1.41015e-10 -1.6778e-09 0)
(6.6444e-10 -5.42739e-10 0)
(2.76358e-10 1.31705e-09 0)
(-3.5045e-11 -6.4476e-10 0)
(-2.62368e-10 -1.71258e-09 0)
(-2.94765e-10 -2.29141e-09 0)
(2.35087e-11 -2.79653e-09 0)
(3.60956e-10 -2.90432e-09 0)
(4.23387e-10 -2.75488e-09 0)
(6.00721e-10 -2.02117e-09 0)
(5.26959e-10 -9.07922e-10 0)
(5.3509e-10 5.26039e-10 0)
(1.93367e-10 1.69793e-09 0)
(-7.53789e-10 1.96128e-09 0)
(-1.33533e-09 1.42472e-09 0)
(-1.46416e-09 2.24912e-10 0)
(-1.35269e-09 -1.70251e-09 0)
(-1.07449e-09 -3.04693e-09 0)
(-5.65233e-10 -4.08938e-09 0)
(2.30833e-10 -3.34366e-09 0)
(6.14317e-10 -2.12789e-09 0)
(1.18592e-09 -4.34188e-10 0)
(5.57468e-10 2.05058e-09 0)
(-5.17115e-12 -5.34903e-10 0)
(-7.97908e-11 -1.46394e-09 0)
(-5.4275e-11 -2.04972e-09 0)
(1.07169e-10 -2.55305e-09 0)
(1.53507e-10 -2.94018e-09 0)
(7.84419e-11 -2.86472e-09 0)
(-5.34093e-12 -2.42782e-09 0)
(2.60337e-11 -1.45574e-09 0)
(1.38023e-10 -2.44409e-10 0)
(-8.62898e-11 7.76286e-10 0)
(-3.64576e-10 1.35176e-09 0)
(-3.56735e-10 1.20846e-09 0)
(-4.13006e-10 2.18213e-10 0)
(-6.81266e-10 -1.64168e-09 0)
(-7.94626e-10 -2.97687e-09 0)
(-6.48067e-10 -4.0385e-09 0)
(-2.47387e-10 -3.3987e-09 0)
(-1.7775e-11 -2.22043e-09 0)
(2.40737e-10 -7.38486e-10 0)
(1.08635e-10 1.7944e-09 0)
(1.35638e-11 -4.70213e-10 0)
(-1.26765e-12 -1.38109e-09 0)
(9.17316e-12 -2.25675e-09 0)
(2.44752e-11 -2.94025e-09 0)
(6.2702e-11 -3.34662e-09 0)
(1.15952e-10 -3.18287e-09 0)
(1.67682e-10 -2.51655e-09 0)
(3.16883e-10 -1.2284e-09 0)
(1.38368e-10 1.27869e-10 0)
(-1.24751e-10 1.36929e-09 0)
(-4.0926e-10 1.9274e-09 0)
(-6.10667e-10 1.43447e-09 0)
(-7.98578e-10 -5.11698e-11 0)
(-9.25161e-10 -2.30182e-09 0)
(-7.98729e-10 -3.72219e-09 0)
(-3.60216e-10 -4.81124e-09 0)
(2.25219e-10 -3.90982e-09 0)
(4.16646e-10 -2.44855e-09 0)
(6.68506e-10 -5.58311e-10 0)
(2.39395e-10 2.29011e-09 0)
(3.29023e-11 -3.79727e-10 0)
(2.90692e-11 -1.24986e-09 0)
(2.05802e-11 -2.25194e-09 0)
(1.52516e-11 -3.11412e-09 0)
(1.0152e-10 -3.43284e-09 0)
(8.01405e-11 -3.37823e-09 0)
(9.74231e-11 -2.74228e-09 0)
(3.92516e-11 -1.68955e-09 0)
(-9.07832e-11 -3.60973e-10 0)
(-1.42247e-10 1.00665e-09 0)
(-2.41328e-10 1.6387e-09 0)
(-2.91765e-10 1.29693e-09 0)
(-3.20042e-10 -3.74823e-11 0)
(-3.62562e-10 -2.19879e-09 0)
(-3.22727e-10 -3.54693e-09 0)
(-1.61355e-10 -4.6821e-09 0)
(5.53381e-11 -3.97867e-09 0)
(9.06104e-11 -2.65949e-09 0)
(1.03882e-11 -8.74893e-10 0)
(-1.12694e-10 2.14237e-09 0)
(2.33001e-12 -3.15315e-10 0)
(2.92831e-11 -1.16435e-09 0)
(-2.64762e-11 -2.23189e-09 0)
(1.47911e-11 -3.1825e-09 0)
(4.86766e-11 -3.60367e-09 0)
(1.2638e-11 -3.5813e-09 0)
(-1.24834e-11 -2.92164e-09 0)
(-6.15887e-11 -1.7624e-09 0)
(4.72677e-11 -2.58654e-10 0)
(-8.63789e-13 1.15188e-09 0)
(-1.83557e-11 1.73329e-09 0)
(-3.14344e-11 1.27118e-09 0)
(-1.71875e-10 -2.20355e-10 0)
(-1.69822e-10 -2.51185e-09 0)
(-1.36867e-10 -3.87899e-09 0)
(-1.50401e-10 -4.96241e-09 0)
(-4.56647e-11 -4.13105e-09 0)
(3.92163e-11 -2.7232e-09 0)
(2.17657e-10 -8.01816e-10 0)
(1.30604e-10 2.29877e-09 0)
(-1.84387e-11 -3.52998e-10 0)
(-2.43993e-12 -1.17729e-09 0)
(-7.03761e-11 -2.25869e-09 0)
(-3.51749e-11 -3.101e-09 0)
(9.79149e-13 -3.60183e-09 0)
(2.4316e-11 -3.52351e-09 0)
(6.26603e-12 -2.94036e-09 0)
(-6.89966e-11 -1.679e-09 0)
(-1.32539e-11 -2.01057e-10 0)
(-7.54269e-11 1.18324e-09 0)
(2.23506e-12 1.83678e-09 0)
(8.55256e-11 1.33771e-09 0)
(1.34701e-10 -1.6874e-10 0)
(3.36976e-10 -2.48066e-09 0)
(4.35519e-10 -3.95022e-09 0)
(2.33488e-10 -5.07605e-09 0)
(-6.50678e-11 -4.18931e-09 0)
(-1.76892e-10 -2.72783e-09 0)
(-2.95963e-10 -7.82824e-10 0)
(-1.26893e-10 2.31159e-09 0)
(-1.06276e-11 -4.37699e-10 0)
(-6.70347e-12 -1.31606e-09 0)
(-1.6152e-11 -2.25805e-09 0)
(-7.32935e-11 -2.96686e-09 0)
(-9.82775e-11 -3.40911e-09 0)
(-1.065e-10 -3.29359e-09 0)
(-7.85542e-11 -2.74895e-09 0)
(-3.73881e-11 -1.59188e-09 0)
(8.21973e-12 -2.16818e-10 0)
(1.61823e-10 1.07153e-09 0)
(2.70396e-10 1.75267e-09 0)
(2.30964e-10 1.40884e-09 0)
(2.25808e-10 1.17131e-10 0)
(3.33738e-10 -2.10522e-09 0)
(3.70676e-10 -3.67255e-09 0)
(2.52737e-10 -4.88443e-09 0)
(2.13886e-11 -4.08902e-09 0)
(-9.75244e-11 -2.6903e-09 0)
(-6.76728e-11 -8.537e-10 0)
(8.35537e-11 2.16586e-09 0)
(-1.82865e-11 -5.03537e-10 0)
(4.40318e-11 -1.4319e-09 0)
(9.47131e-11 -2.21306e-09 0)
(-3.82456e-11 -2.91509e-09 0)
(-1.74886e-10 -3.23258e-09 0)
(-1.20792e-10 -3.18067e-09 0)
(-2.0222e-10 -2.44125e-09 0)
(-1.73329e-10 -1.27124e-09 0)
(-2.0997e-10 2.11456e-10 0)
(2.86291e-11 1.51445e-09 0)
(4.77338e-10 1.93177e-09 0)
(6.96531e-10 1.41066e-09 0)
(7.39552e-10 7.72376e-11 0)
(6.55371e-10 -2.14903e-09 0)
(5.96763e-10 -3.71284e-09 0)
(4.42395e-10 -4.88876e-09 0)
(-3.75235e-11 -3.99444e-09 0)
(-3.29639e-10 -2.52124e-09 0)
(-6.72859e-10 -5.73383e-10 0)
(-2.69737e-10 2.30384e-09 0)
(1.69543e-12 -5.23583e-10 0)
(9.45529e-11 -1.40583e-09 0)
(1.86798e-10 -2.09869e-09 0)
(-3.7287e-11 -2.60603e-09 0)
(-2.55603e-10 -2.81822e-09 0)
(-7.41353e-11 -2.94319e-09 0)
(-1.00716e-11 -2.40362e-09 0)
(2.15185e-11 -1.53873e-09 0)
(9.97829e-11 -4.34251e-10 0)
(-2.38665e-11 8.95703e-10 0)
(1.5783e-10 1.44828e-09 0)
(5.21715e-10 1.11461e-09 0)
(6.33272e-10 1.53843e-10 0)
(4.92458e-10 -1.55068e-09 0)
(4.72364e-10 -2.8137e-09 0)
(5.68541e-10 -3.94778e-09 0)
(3.42915e-10 -3.42412e-09 0)
(1.3525e-10 -2.28724e-09 0)
(-1.68768e-10 -7.71177e-10 0)
(-1.14849e-10 1.79021e-09 0)
(2.5774e-11 -5.64744e-10 0)
(1.98322e-10 -1.60393e-09 0)
(3.94091e-10 -2.42169e-09 0)
(8.27375e-11 -2.7876e-09 0)
(-3.17452e-10 -3.0296e-09 0)
(-5.20461e-10 -2.82904e-09 0)
(-4.7628e-10 -2.14991e-09 0)
(-7.47336e-10 -8.38454e-10 0)
(-2.22455e-10 2.41527e-10 0)
(1.71688e-10 1.51879e-09 0)
(4.9839e-10 2.08476e-09 0)
(1.21228e-09 1.44719e-09 0)
(1.7324e-09 5.24632e-11 0)
(1.46293e-09 -1.78435e-09 0)
(8.77975e-10 -2.92219e-09 0)
(3.32983e-10 -3.94532e-09 0)
(-3.08651e-10 -3.29662e-09 0)
(-5.32422e-10 -2.1257e-09 0)
(-1.08795e-09 -4.51484e-10 0)
(-5.38441e-10 2.03132e-09 0)
(-1.85499e-12 -2.19053e-10 0)
(1.37654e-10 -9.41692e-10 0)
(3.15542e-10 -1.45341e-09 0)
(4.06219e-11 -1.6441e-09 0)
(-9.11722e-11 -2.06867e-09 0)
(-2.23973e-10 -1.72511e-09 0)
(1.5397e-10 -1.57535e-09 0)
(-1.8822e-10 -7.06317e-10 0)
(-1.33385e-10 3.20528e-11 0)
(4.96998e-10 6.50302e-10 0)
(4.86068e-10 1.25026e-09 0)
(6.27323e-10 1.08692e-09 0)
(1.10536e-09 1.63069e-10 0)
(1.147e-09 -1.17433e-09 0)
(7.63716e-10 -1.97876e-09 0)
(3.67765e-10 -2.74169e-09 0)
(-6.37531e-11 -2.42354e-09 0)
(-1.3905e-10 -1.61951e-09 0)
(-6.14244e-10 -5.37682e-10 0)
(-2.48692e-10 1.29835e-09 0)
(1.59721e-11 -4.2224e-10 0)
(3.49978e-10 -1.45124e-09 0)
(3.68419e-10 -1.97125e-09 0)
(3.54804e-11 -2.25705e-09 0)
(-1.26842e-10 -2.64289e-09 0)
(-5.49435e-10 -1.82861e-09 0)
(-4.27192e-10 -1.97494e-09 0)
(-5.9069e-10 -6.24953e-10 0)
(-7.66433e-10 1.66983e-10 0)
(4.63476e-11 7.71197e-10 0)
(7.23296e-10 1.18508e-09 0)
(9.3033e-10 1.07051e-09 0)
(1.41549e-09 2.20843e-10 0)
(1.67584e-09 -1.11332e-09 0)
(1.28442e-09 -1.92816e-09 0)
(5.95041e-10 -2.55887e-09 0)
(-1.58456e-10 -2.12296e-09 0)
(-3.91518e-10 -1.38502e-09 0)
(-8.76845e-10 -3.34508e-10 0)
(-4.80097e-10 1.30682e-09 0)
(-1.97239e-11 -2.296e-10 0)
(8.92955e-11 -8.95974e-10 0)
(6.9582e-11 -1.06741e-09 0)
(3.40105e-11 -1.4172e-09 0)
(1.81657e-10 -1.435e-09 0)
(-3.60756e-10 -1.06166e-09 0)
(-9.91525e-11 -1.91098e-09 0)
(1.16243e-10 -6.31423e-11 0)
(-6.77588e-10 6.21801e-10 0)
(3.74368e-10 1.12544e-09 0)
(1.08149e-09 1.15159e-09 0)
(1.14079e-09 9.16502e-10 0)
(1.39467e-09 2.64727e-10 0)
(1.5811e-09 -8.15612e-10 0)
(1.27644e-09 -1.48667e-09 0)
(5.25284e-10 -1.93295e-09 0)
(-4.29155e-10 -1.50688e-09 0)
(-6.70162e-10 -9.39729e-10 0)
(-1.30158e-09 -1.25243e-10 0)
(-5.05657e-10 1.10064e-09 0)
(-2.80857e-12 -8.623e-11 0)
(4.88718e-10 -1.09255e-10 0)
(3.10538e-10 4.8645e-11 0)
(-8.96371e-11 -5.40695e-11 0)
(-9.00965e-11 6.59738e-10 0)
(-1.23405e-09 -1.09781e-09 0)
(-9.94351e-10 1.55688e-09 0)
(-1.21724e-09 -1.191e-09 0)
(-9.4705e-10 -3.1116e-10 0)
(-2.35837e-10 1.76929e-11 0)
(6.69715e-10 -5.23524e-11 0)
(1.26544e-09 1.86131e-10 0)
(1.54753e-09 3.30316e-10 0)
(1.59166e-09 3.11783e-11 0)
(1.31871e-09 -2.68793e-10 0)
(7.44024e-10 -4.55974e-10 0)
(-1.34484e-10 -4.4398e-10 0)
(-4.44574e-10 -3.19124e-10 0)
(-9.83971e-10 -2.73327e-10 0)
(-5.56268e-10 1.14467e-10 0)
(6.51098e-11 -3.66128e-10 0)
(4.5547e-10 -6.46211e-10 0)
(3.45501e-10 -8.16344e-10 0)
(1.7576e-10 -8.86532e-10 0)
(-7.75177e-10 -2.76324e-10 0)
(9.94683e-10 -1.63425e-09 0)
(-2.68515e-10 2.14399e-09 0)
(2.84031e-11 -8.84258e-10 0)
(8.531e-10 1.84395e-10 0)
(5.40759e-12 7.0034e-10 0)
(7.75999e-10 5.8009e-10 0)
(1.57875e-09 4.12193e-10 0)
(1.5687e-09 5.16599e-11 0)
(1.32219e-09 -5.39967e-10 0)
(1.10861e-09 -9.11314e-10 0)
(6.45795e-10 -1.09315e-09 0)
(-1.95511e-10 -7.33765e-10 0)
(-4.90429e-10 -3.88592e-10 0)
(-1.06354e-09 1.64364e-10 0)
(-4.70349e-10 7.07189e-10 0)
)
;

boundaryField
{
    sides
    {
        type            calculated;
        value           nonuniform List<vector> 
40
(
(6.51098e-11 0 0)
(4.5547e-10 0 0)
(3.45501e-10 0 0)
(1.7576e-10 0 0)
(-7.75177e-10 0 0)
(9.94683e-10 0 0)
(-2.68515e-10 0 0)
(2.84031e-11 0 0)
(8.531e-10 0 0)
(5.40759e-12 0 0)
(7.75999e-10 0 0)
(1.57875e-09 0 0)
(1.5687e-09 0 0)
(1.32219e-09 0 0)
(1.10861e-09 0 0)
(6.45795e-10 0 0)
(-1.95511e-10 0 0)
(-4.90429e-10 0 0)
(-1.06354e-09 0 0)
(-4.70349e-10 0 0)
(-2.18593e-11 0 0)
(-2.89003e-10 0 0)
(-3.85202e-11 0 0)
(1.6616e-10 0 0)
(-1.16477e-11 0 0)
(-1.49092e-10 0 0)
(-1.042e-10 0 0)
(-4.81779e-09 0 0)
(-4.05366e-10 0 0)
(1.60873e-10 0 0)
(-1.13593e-09 0 0)
(-1.31191e-09 0 0)
(-1.50885e-09 0 0)
(-1.60806e-09 0 0)
(-1.25221e-09 0 0)
(-5.49321e-10 0 0)
(3.16013e-10 0 0)
(5.28809e-10 0 0)
(1.05863e-09 0 0)
(4.61008e-10 0 0)
)
;
    }
    inlet
    {
        type            calculated;
        value           uniform (0 0 0);
    }
    outlet
    {
        type            calculated;
        value           nonuniform List<vector> 
20
(
(4.61008e-10 7.00395e-10 0)
(5.5321e-10 1.03962e-10 0)
(5.10862e-10 1.09177e-09 0)
(5.00678e-10 1.30366e-09 0)
(2.76358e-10 1.31705e-09 0)
(5.57468e-10 2.05058e-09 0)
(1.08635e-10 1.7944e-09 0)
(2.39395e-10 2.29011e-09 0)
(-1.12694e-10 2.14237e-09 0)
(1.30604e-10 2.29877e-09 0)
(-1.26893e-10 2.31159e-09 0)
(8.35537e-11 2.16586e-09 0)
(-2.69737e-10 2.30384e-09 0)
(-1.14849e-10 1.79021e-09 0)
(-5.38441e-10 2.03132e-09 0)
(-2.48692e-10 1.29835e-09 0)
(-4.80097e-10 1.30682e-09 0)
(-5.05657e-10 1.10064e-09 0)
(-5.56268e-10 1.14467e-10 0)
(-4.70349e-10 7.07189e-10 0)
)
;
    }
    frontAndBack
    {
        type            empty;
    }
}


// ************************************************************************* //
