/*--------------------------------*- C++ -*----------------------------------*\
  =========                 |
  \\      /  F ield         | OpenFOAM: The Open Source CFD Toolbox
   \\    /   O peration     | Website:  https://openfoam.org
    \\  /    A nd           | Version:  7
     \\/     M anipulation  |
\*---------------------------------------------------------------------------*/
FoamFile
{
    version     2.0;
    format      ascii;
    class       surfaceScalarField;
    location    "48";
    object      ddtCorrDdt0(phi);
}
// * * * * * * * * * * * * * * * * * * * * * * * * * * * * * * * * * * * * * //

dimensions      [0 4 -2 0 0 0 0];

internalField   nonuniform List<scalar> 
760
(
-1.55808e-13
-5.22145e-13
-3.22298e-13
-2.18443e-12
-1.942e-13
-2.6936e-12
3.35421e-12
-3.9476e-12
-8.20732e-12
-8.14608e-13
6.56722e-12
2.29901e-10
-1.16768e-11
1.69003e-10
-1.89584e-11
-1.09589e-10
3.13632e-12
1.05908e-12
-3.61476e-12
5.48232e-13
-6.1017e-12
7.8949e-13
-6.79063e-12
1.09093e-12
-7.99678e-12
7.08188e-14
-7.32174e-12
-1.62525e-12
-4.46499e-12
-2.40507e-12
-5.52502e-13
-2.9634e-12
2.22126e-12
-2.29359e-12
3.79588e-12
-1.49622e-12
4.12893e-12
-3.10679e-13
1.91765e-12
-2.15104e-12
-4.69915e-13
-6.49055e-13
-3.69072e-12
-1.20424e-12
-5.11482e-12
6.12397e-14
-5.19091e-12
4.68197e-12
-7.94535e-12
4.89193e-12
-5.47282e-12
8.87176e-12
-9.68183e-12
2.46569e-11
1.53998e-11
9.25503e-13
1.71476e-12
-2.4877e-12
1.5442e-12
-4.31769e-12
3.57296e-12
-6.75949e-12
3.40631e-12
-8.35955e-12
7.66211e-13
-7.39854e-12
-2.91622e-12
-4.69115e-12
-4.83132e-12
-1.18896e-12
-6.2752e-12
1.52876e-12
-5.22932e-12
3.21549e-12
-3.33685e-12
4.0545e-12
-1.02802e-12
3.15485e-12
-5.55823e-13
-8.77283e-13
-4.2163e-13
-4.63795e-12
-1.62274e-12
-7.25817e-12
-2.36975e-12
-7.30242e-12
4.02968e-12
-8.95241e-12
-4.32705e-12
-7.02214e-12
5.86732e-12
-5.72973e-12
2.4061e-12
-3.24004e-13
-4.41896e-12
-1.74753e-12
-3.18695e-12
3.40486e-12
-4.31434e-12
5.88961e-12
-7.20799e-12
4.62319e-12
-8.05984e-12
9.60636e-13
-6.25325e-12
-4.13421e-12
-3.49399e-12
-7.33024e-12
-1.0844e-13
-1.03053e-11
2.41787e-12
-8.77632e-12
4.36082e-12
-5.80925e-12
4.83444e-12
-1.36296e-12
5.74544e-12
-1.51e-12
-1.44228e-12
-1.56364e-12
-5.86051e-12
-7.18977e-13
-8.79728e-12
-1.48054e-12
-9.66795e-12
3.81556e-12
-9.70325e-12
4.83105e-13
-1.13835e-11
6.57051e-12
-5.81915e-12
5.60062e-13
-5.32711e-12
-1.5626e-13
4.18393e-13
-2.89879e-13
5.84144e-12
-3.55656e-12
7.83204e-12
-7.1801e-12
5.75291e-12
-7.87239e-12
1.376e-12
-6.22077e-12
-5.18163e-12
-4.13097e-12
-9.85059e-12
-1.61562e-12
-1.40238e-11
8.81353e-13
-1.2219e-11
2.69379e-12
-8.00686e-12
3.61237e-12
-2.11776e-12
6.77596e-12
-1.61e-14
-2.75787e-12
-1.67914e-12
-7.11244e-12
1.38386e-13
-9.43441e-12
-2.27314e-13
-1.13387e-11
8.40803e-13
-1.10725e-11
4.29126e-13
-1.16833e-11
5.59419e-13
-9.07443e-12
-1.01041e-12
-5.01141e-12
-2.1148e-13
4.21806e-13
-4.36479e-13
6.14202e-12
-3.42509e-12
7.62924e-12
-5.2465e-12
5.541e-12
-4.89331e-12
1.20857e-12
-3.84815e-12
-6.32292e-12
-3.18608e-12
-1.19332e-11
-1.82669e-12
-1.67834e-11
1.32369e-13
-1.4406e-11
1.922e-12
-9.53455e-12
2.67311e-12
-2.71433e-12
8.20683e-12
-1.24671e-13
-2.74967e-12
-1.59095e-12
-7.63319e-12
-2.05405e-13
-1.02048e-11
9.71697e-13
-1.30118e-11
1.33777e-12
-1.43566e-11
2.90172e-12
-1.36446e-11
3.00433e-12
-1.0632e-11
2.10142e-12
-5.51895e-12
2.13436e-12
1.57075e-12
-1.31772e-12
6.77128e-12
-5.53614e-12
8.43518e-12
-7.02623e-12
6.67864e-12
-6.99473e-12
1.13133e-12
-6.02508e-12
-8.61152e-12
-4.13334e-12
-1.55656e-11
-1.03417e-12
-2.08325e-11
2.13492e-12
-1.71092e-11
4.4062e-12
-1.0917e-11
4.59359e-12
-2.71541e-12
9.763e-12
2.2073e-13
-2.57552e-12
-5.89728e-14
-7.45576e-12
1.90057e-13
-1.11813e-11
7.28272e-13
-1.37114e-11
7.61462e-14
-1.59544e-11
4.93212e-13
-1.49412e-11
-3.88762e-14
-1.22807e-11
4.56458e-13
-6.30851e-12
1.72146e-13
-1.58782e-13
-1.33519e-12
5.18276e-12
-1.95347e-12
8.31206e-12
-1.72e-12
6.90252e-12
-2.69742e-12
6.63756e-13
-3.86384e-12
-9.68422e-12
-3.68116e-12
-1.66382e-11
-2.29219e-12
-2.20459e-11
-6.39497e-13
-1.81813e-11
5.82351e-13
-1.15629e-11
1.09283e-12
-3.27531e-12
1.01785e-11
1.02676e-13
-2.19313e-12
3.26029e-13
-6.554e-12
3.95849e-13
-1.13159e-11
-9.66348e-14
-1.51248e-11
5.36425e-13
-1.69003e-11
5.49782e-13
-1.66859e-11
1.44812e-12
-1.35401e-11
1.10371e-12
-7.70015e-12
-2.49772e-13
-1.07489e-12
-1.33453e-12
5.77637e-12
-2.56649e-12
8.89886e-12
-3.3453e-12
6.75692e-12
-4.28121e-12
-2.7529e-13
-4.5488e-12
-1.11904e-11
-3.02239e-12
-1.80713e-11
-2.83228e-13
-2.37123e-11
1.69702e-12
-1.97622e-11
2.68982e-12
-1.28463e-11
2.39747e-12
-3.59302e-12
1.10928e-11
1.1582e-13
-1.6098e-12
3.38729e-13
-5.98178e-12
3.52138e-13
-1.11042e-11
1.54754e-13
-1.59877e-11
4.17882e-13
-1.78135e-11
2.98993e-13
-1.77543e-11
6.26506e-13
-1.42258e-11
-3.25112e-13
-8.77642e-12
-6.67598e-13
-1.45621e-12
-9.46317e-13
5.47058e-12
-1.34652e-12
8.19474e-12
-1.43033e-12
6.09869e-12
-1.65642e-12
-1.04396e-12
-1.85765e-12
-1.22063e-11
-1.36473e-12
-1.87653e-11
-2.155e-13
-2.40316e-11
4.52758e-13
-2.00843e-11
2.5512e-13
-1.32171e-11
-1.74973e-13
-4.01903e-12
1.11512e-11
-6.7684e-14
-1.53023e-12
3.04708e-13
-5.72208e-12
-2.52048e-13
-1.12649e-11
4.04216e-13
-1.58623e-11
-1.41751e-13
-1.81202e-11
2.56284e-13
-1.77879e-11
-3.0108e-13
-1.47772e-11
-1.14368e-14
-8.9662e-12
1.60532e-13
-1.65127e-12
-2.4114e-13
5.37344e-12
9.43493e-17
8.66168e-12
-5.27691e-13
6.47366e-12
-9.11638e-13
-9.07552e-13
-6.84106e-13
-1.23214e-11
-7.40332e-13
-1.93492e-11
-5.29712e-13
-2.49853e-11
4.77097e-14
-2.09309e-11
6.27617e-13
-1.39862e-11
8.45837e-13
-4.33868e-12
1.13696e-11
-1.09024e-13
-1.99525e-12
-1.3157e-13
-6.1171e-12
-6.34036e-13
-1.13922e-11
2.27594e-13
-1.51596e-11
-6.79252e-14
-1.77675e-11
3.20707e-13
-1.71557e-11
-4.39798e-13
-1.43814e-11
-1.38472e-13
-7.95277e-12
-1.29245e-13
-8.71619e-13
-2.86542e-13
5.80149e-12
3.96573e-13
9.18787e-12
4.03787e-13
6.7511e-12
1.08883e-12
-5.15112e-13
2.16348e-12
-1.18907e-11
1.72901e-12
-1.94409e-11
3.20444e-13
-2.51114e-11
-6.42669e-13
-2.06514e-11
-1.25016e-12
-1.32877e-11
-1.06772e-12
-3.8449e-12
1.12803e-11
8.81129e-15
-2.39944e-12
-3.56758e-13
-7.08916e-12
-3.13353e-13
-1.10874e-11
-5.14789e-13
-1.44629e-11
-2.48753e-13
-1.66869e-11
-5.64037e-13
-1.63975e-11
-2.5904e-13
-1.34119e-11
-9.48674e-14
-7.55514e-12
4.56127e-13
-2.44266e-13
1.21309e-12
6.1304e-12
1.28399e-12
9.02405e-12
9.41424e-13
7.17803e-12
1.34342e-12
7.18961e-13
1.92926e-12
-1.05561e-11
1.69301e-12
-1.85662e-11
6.90131e-13
-2.45605e-11
-2.19109e-13
-2.02842e-11
-4.81874e-13
-1.31307e-11
-8.31096e-14
-3.59565e-12
1.11882e-11
-2.34492e-13
-2.71394e-12
2.70683e-13
-7.37531e-12
9.63956e-14
-1.09164e-11
-7.60572e-13
-1.41599e-11
-4.04768e-13
-1.50078e-11
-1.01596e-12
-1.51941e-11
-9.66237e-13
-1.1666e-11
-7.10188e-13
-6.89236e-12
-5.6737e-13
-2.33879e-13
1.35541e-12
6.2512e-12
3.04693e-12
8.27865e-12
3.57095e-12
6.22254e-12
3.37979e-12
8.62514e-13
3.0685e-12
-8.84359e-12
2.7633e-12
-1.6027e-11
1.17084e-12
-2.19239e-11
-1.01201e-12
-1.84762e-11
-2.50053e-12
-1.20037e-11
-2.48493e-12
-3.4388e-12
1.0209e-11
-2.28717e-13
-2.49234e-12
8.19287e-13
-7.06361e-12
-1.8096e-13
-1.1009e-11
-1.83265e-13
-1.30649e-11
-1.03628e-12
-1.40772e-11
1.01405e-13
-1.42899e-11
-5.7678e-13
-1.11199e-11
7.81667e-13
-5.76136e-12
3.56162e-13
-3.46064e-13
8.73052e-15
6.76356e-12
1.74346e-12
9.43653e-12
3.23697e-12
6.47386e-12
2.80298e-12
2.54154e-13
2.15293e-12
-8.64187e-12
2.67116e-12
-1.46234e-11
2.50512e-12
-2.00517e-11
1.12069e-12
-1.70093e-11
-2.95728e-14
-1.10931e-11
-8.77284e-13
-2.86499e-12
9.69005e-12
4.29198e-13
-2.25015e-12
1.12929e-12
-6.7092e-12
8.26665e-13
-1.01741e-11
2.49492e-13
-1.11358e-11
-2.80389e-12
-1.31352e-11
-1.88818e-12
-1.17818e-11
-3.5924e-12
-9.74836e-12
-2.48673e-12
-3.73122e-12
7.75431e-13
-2.99996e-13
1.28016e-12
4.20758e-12
3.89873e-12
7.74886e-12
7.75382e-12
6.02292e-12
8.2597e-12
4.17921e-13
5.63806e-12
-7.15223e-12
2.92245e-12
-1.17128e-11
2.42105e-13
-1.61585e-11
-2.13744e-12
-1.39982e-11
-3.84735e-12
-9.27908e-12
-4.2551e-12
-2.72045e-12
8.08138e-12
2.74174e-13
-1.35921e-12
1.66755e-13
-6.09362e-12
1.34371e-12
-8.60669e-12
4.42325e-15
-1.0071e-11
-8.8588e-13
-1.25393e-11
-2.67834e-13
-9.18811e-12
4.865e-13
-8.09713e-12
-1.85471e-12
-4.15911e-12
1.86068e-12
2.05224e-12
2.67486e-12
4.62742e-12
2.18627e-12
6.85029e-12
4.46795e-12
6.12386e-12
6.08551e-12
1.18204e-12
4.77285e-12
-6.10119e-12
2.58473e-12
-1.04067e-11
7.64376e-13
-1.38934e-11
-4.5972e-13
-1.17911e-11
-1.7474e-12
-7.64496e-12
-2.49041e-12
-1.99898e-12
6.74831e-12
1.6172e-12
-2.75315e-12
4.63206e-13
-5.00749e-12
1.74371e-12
-6.33182e-12
-1.5862e-12
-8.49426e-12
5.55443e-13
-8.40279e-12
-4.0675e-12
-6.53963e-12
-1.72721e-12
-9.12866e-12
-3.71983e-12
1.58055e-12
-1.88249e-12
1.00814e-12
2.58432e-12
3.74753e-12
3.75786e-12
4.97476e-12
5.65399e-12
4.55268e-12
8.11184e-12
1.25126e-12
7.59942e-12
-4.4474e-12
4.51463e-12
-7.97621e-12
1.03302e-12
-1.05691e-11
-1.33262e-12
-8.6157e-12
-2.91369e-12
-5.65413e-12
-3.63503e-12
-1.26675e-12
5.79994e-12
-3.6912e-13
-1.48515e-12
-3.90218e-13
-3.85028e-12
1.18389e-12
-3.76452e-12
-2.25706e-12
-5.51644e-12
5.48688e-12
-2.64875e-12
-7.52289e-12
-4.12319e-12
5.01505e-12
-8.96606e-12
-4.00332e-12
-7.59768e-12
-3.37812e-13
1.84884e-12
4.31509e-12
3.44428e-12
5.4453e-12
3.60706e-12
6.04076e-12
3.15417e-12
7.69063e-12
1.38321e-12
7.36374e-12
-2.38739e-12
4.4195e-12
-5.00892e-12
1.24722e-13
-6.67167e-12
-2.81073e-12
-5.39317e-12
-4.70241e-12
-3.39924e-12
-4.93651e-12
-1.00755e-12
3.19852e-12
1.44463e-12
-1.50755e-12
1.81342e-12
-2.23737e-12
-2.91207e-13
-2.32568e-12
-1.3505e-12
-1.70124e-12
2.91937e-12
-8.07074e-12
-1.6831e-11
-2.95695e-10
4.77789e-12
4.28629e-10
-9.40326e-12
1.07223e-10
-2.53546e-12
9.27362e-12
1.03514e-12
1.4999e-12
4.95908e-12
1.16233e-12
7.02896e-12
1.02195e-12
7.92374e-12
6.88363e-13
7.36927e-12
-9.0479e-13
5.17183e-12
-2.32508e-12
1.5649e-12
-3.28813e-12
-1.54633e-12
-2.53597e-12
-3.34306e-12
-1.57727e-12
-4.09441e-12
-2.86134e-13
1.95171e-12
1.31475e-12
1.5439e-12
-6.34946e-13
4.69541e-12
-1.08704e-11
1.92259e-11
-1.76095e-11
1.06917e-11
1.22241e-12
1.05317e-12
6.44092e-12
8.17385e-12
7.06978e-12
5.98936e-12
4.4549e-12
1.23646e-12
-1.83979e-12
-3.74659e-12
-4.1522e-12
)
;

boundaryField
{
    sides
    {
        type            calculated;
        value           uniform 0;
    }
    inlet
    {
        type            calculated;
        value           uniform 0;
    }
    outlet
    {
        type            calculated;
        value           nonuniform List<scalar> 
20
(
2.21634e-12
2.90518e-12
2.41842e-12
2.80847e-12
1.3117e-12
2.90072e-12
4.23058e-13
1.10512e-12
-6.5266e-13
6.47537e-13
-4.6011e-13
5.64505e-13
-1.3339e-12
-6.38088e-13
-2.93888e-12
-1.1376e-12
-2.59829e-12
-2.33919e-12
-2.93335e-12
-2.28917e-12
)
;
    }
    frontAndBack
    {
        type            empty;
        value           nonuniform 0();
    }
}


// ************************************************************************* //
