/*--------------------------------*- C++ -*----------------------------------*\
  =========                 |
  \\      /  F ield         | OpenFOAM: The Open Source CFD Toolbox
   \\    /   O peration     | Website:  https://openfoam.org
    \\  /    A nd           | Version:  7
     \\/     M anipulation  |
\*---------------------------------------------------------------------------*/
FoamFile
{
    version     2.0;
    format      ascii;
    class       volVectorField;
    location    "48";
    object      hU;
}
// * * * * * * * * * * * * * * * * * * * * * * * * * * * * * * * * * * * * * //

dimensions      [0 2 -1 0 0 0 0];

internalField   nonuniform List<vector> 
400
(
(0.001 -8.7646e-09 0)
(0.000999999 -2.37692e-08 0)
(0.001 -3.58848e-08 0)
(0.001 -4.63939e-08 0)
(0.00100001 -5.63609e-08 0)
(0.00100001 -6.65962e-08 0)
(0.00100002 -7.71339e-08 0)
(0.00100003 -8.83391e-08 0)
(0.00100004 -9.92583e-08 0)
(0.00100006 -1.11674e-07 0)
(0.00100007 -1.229e-07 0)
(0.0010001 -1.36794e-07 0)
(0.00100011 -1.47394e-07 0)
(0.00100015 -1.64097e-07 0)
(0.00100017 -1.72601e-07 0)
(0.00100024 -1.96248e-07 0)
(0.00100026 -2.00203e-07 0)
(0.00100038 -2.42273e-07 0)
(0.00100038 -2.38068e-07 0)
(0.0010006 -3.31307e-07 0)
(0.001 3.93239e-09 0)
(0.001 1.19549e-08 0)
(0.00100001 1.99868e-08 0)
(0.00100001 2.76092e-08 0)
(0.00100002 3.47373e-08 0)
(0.00100003 4.13232e-08 0)
(0.00100003 4.74053e-08 0)
(0.00100004 5.28542e-08 0)
(0.00100005 5.83332e-08 0)
(0.00100007 6.22644e-08 0)
(0.00100008 6.68907e-08 0)
(0.0010001 6.83761e-08 0)
(0.00100012 7.22956e-08 0)
(0.00100016 6.93817e-08 0)
(0.00100018 7.35868e-08 0)
(0.00100023 6.1345e-08 0)
(0.00100026 6.71478e-08 0)
(0.00100035 3.18931e-08 0)
(0.00100037 4.02989e-08 0)
(0.0010005 -5.41429e-08 0)
(0.001 -4.16298e-09 0)
(0.001 -1.33e-08 0)
(0.001 -2.32258e-08 0)
(0.001 -3.36016e-08 0)
(0.00100001 -4.38074e-08 0)
(0.00100001 -5.42233e-08 0)
(0.00100002 -6.45682e-08 0)
(0.00100003 -7.61406e-08 0)
(0.00100004 -8.79416e-08 0)
(0.00100005 -1.0212e-07 0)
(0.00100006 -1.15606e-07 0)
(0.00100008 -1.33447e-07 0)
(0.0010001 -1.48069e-07 0)
(0.00100014 -1.7155e-07 0)
(0.00100016 -1.86188e-07 0)
(0.00100021 -2.21434e-07 0)
(0.00100023 -2.34889e-07 0)
(0.00100031 -2.96398e-07 0)
(0.00100033 -3.04181e-07 0)
(0.00100046 -4.20895e-07 0)
(0.001 -4.90112e-10 0)
(0.001 -5.28735e-10 0)
(0.00100001 2.82587e-10 0)
(0.00100001 1.29389e-09 0)
(0.00100002 2.40084e-09 0)
(0.00100002 2.78401e-09 0)
(0.00100003 2.85422e-09 0)
(0.00100004 1.10867e-09 0)
(0.00100004 -1.17245e-09 0)
(0.00100006 -6.43946e-09 0)
(0.00100007 -1.15219e-08 0)
(0.00100009 -2.16741e-08 0)
(0.00100011 -2.91112e-08 0)
(0.00100013 -4.62747e-08 0)
(0.00100016 -5.50316e-08 0)
(0.0010002 -8.55365e-08 0)
(0.00100022 -9.46222e-08 0)
(0.00100028 -1.53263e-07 0)
(0.0010003 -1.58426e-07 0)
(0.00100039 -2.74191e-07 0)
(0.001 -3.23536e-09 0)
(0.001 -9.77849e-09 0)
(0.001 -1.67905e-08 0)
(0.001 -2.46541e-08 0)
(0.00100001 -3.29745e-08 0)
(0.00100001 -4.22244e-08 0)
(0.00100002 -5.18852e-08 0)
(0.00100002 -6.338e-08 0)
(0.00100003 -7.54425e-08 0)
(0.00100004 -9.07233e-08 0)
(0.00100005 -1.06026e-07 0)
(0.00100007 -1.26744e-07 0)
(0.00100009 -1.44867e-07 0)
(0.00100011 -1.7316e-07 0)
(0.00100013 -1.92924e-07 0)
(0.00100016 -2.35076e-07 0)
(0.00100018 -2.54972e-07 0)
(0.00100024 -3.25114e-07 0)
(0.00100025 -3.38824e-07 0)
(0.00100033 -4.6252e-07 0)
(0.001 -2.89583e-09 0)
(0.001 -8.01041e-09 0)
(0.001 -1.24432e-08 0)
(0.00100001 -1.66865e-08 0)
(0.00100001 -2.07515e-08 0)
(0.00100001 -2.55509e-08 0)
(0.00100002 -3.09128e-08 0)
(0.00100002 -3.84132e-08 0)
(0.00100003 -4.69308e-08 0)
(0.00100004 -5.91782e-08 0)
(0.00100005 -7.18561e-08 0)
(0.00100006 -9.02202e-08 0)
(0.00100008 -1.06249e-07 0)
(0.0010001 -1.3252e-07 0)
(0.00100011 -1.50542e-07 0)
(0.00100014 -1.91032e-07 0)
(0.00100016 -2.09605e-07 0)
(0.0010002 -2.78313e-07 0)
(0.00100021 -2.90681e-07 0)
(0.00100027 -4.12521e-07 0)
(0.001 -3.20308e-09 0)
(0.001 -9.43919e-09 0)
(0.001 -1.56815e-08 0)
(0.001 -2.24466e-08 0)
(0.00100001 -2.96499e-08 0)
(0.00100001 -3.79807e-08 0)
(0.00100001 -4.7148e-08 0)
(0.00100002 -5.86189e-08 0)
(0.00100002 -7.12497e-08 0)
(0.00100003 -8.77737e-08 0)
(0.00100004 -1.04914e-07 0)
(0.00100005 -1.28103e-07 0)
(0.00100006 -1.49183e-07 0)
(0.00100007 -1.80882e-07 0)
(0.00100009 -2.04165e-07 0)
(0.00100011 -2.50237e-07 0)
(0.00100012 -2.73619e-07 0)
(0.00100015 -3.47619e-07 0)
(0.00100016 -3.6355e-07 0)
(0.00100021 -4.89634e-07 0)
(0.001 -3.46876e-09 0)
(0.001 -1.02887e-08 0)
(0.001 -1.69875e-08 0)
(0.001 -2.39218e-08 0)
(0.001 -3.10074e-08 0)
(0.00100001 -3.90396e-08 0)
(0.00100001 -4.78219e-08 0)
(0.00100001 -5.89519e-08 0)
(0.00100002 -7.13782e-08 0)
(0.00100002 -8.78335e-08 0)
(0.00100003 -1.05042e-07 0)
(0.00100004 -1.2828e-07 0)
(0.00100004 -1.49448e-07 0)
(0.00100006 -1.81032e-07 0)
(0.00100006 -2.04324e-07 0)
(0.00100008 -2.50179e-07 0)
(0.00100009 -2.73658e-07 0)
(0.00100011 -3.4729e-07 0)
(0.00100012 -3.63184e-07 0)
(0.00100015 -4.87931e-07 0)
(0.001 -3.61088e-09 0)
(0.001 -1.07374e-08 0)
(0.001 -1.77142e-08 0)
(0.001 -2.49048e-08 0)
(0.001 -3.2317e-08 0)
(0.001 -4.08416e-08 0)
(0.00100001 -5.02401e-08 0)
(0.00100001 -6.21127e-08 0)
(0.00100001 -7.53754e-08 0)
(0.00100001 -9.28328e-08 0)
(0.00100002 -1.11235e-07 0)
(0.00100002 -1.35953e-07 0)
(0.00100003 -1.58774e-07 0)
(0.00100003 -1.92299e-07 0)
(0.00100004 -2.17441e-07 0)
(0.00100005 -2.6539e-07 0)
(0.00100005 -2.90444e-07 0)
(0.00100007 -3.66028e-07 0)
(0.00100007 -3.82812e-07 0)
(0.00100009 -5.09504e-07 0)
(0.001 -3.67782e-09 0)
(0.001 -1.09579e-08 0)
(0.001 -1.81028e-08 0)
(0.001 -2.54796e-08 0)
(0.001 -3.30945e-08 0)
(0.001 -4.18261e-08 0)
(0.001 -5.14758e-08 0)
(0.001 -6.36926e-08 0)
(0.001 -7.74129e-08 0)
(0.001 -9.53896e-08 0)
(0.00100001 -1.14325e-07 0)
(0.00100001 -1.39497e-07 0)
(0.00100001 -1.62737e-07 0)
(0.00100001 -1.96542e-07 0)
(0.00100001 -2.21985e-07 0)
(0.00100002 -2.70077e-07 0)
(0.00100002 -2.95426e-07 0)
(0.00100002 -3.71056e-07 0)
(0.00100002 -3.88126e-07 0)
(0.00100003 -5.14394e-07 0)
(0.001 -3.68376e-09 0)
(0.001 -1.0963e-08 0)
(0.001 -1.81076e-08 0)
(0.000999999 -2.54776e-08 0)
(0.000999999 -3.30961e-08 0)
(0.000999999 -4.18226e-08 0)
(0.000999998 -5.14746e-08 0)
(0.000999997 -6.36831e-08 0)
(0.000999996 -7.74057e-08 0)
(0.000999995 -9.53828e-08 0)
(0.000999994 -1.14315e-07 0)
(0.000999993 -1.39491e-07 0)
(0.000999991 -1.62734e-07 0)
(0.000999989 -1.96546e-07 0)
(0.000999987 -2.21998e-07 0)
(0.000999984 -2.70087e-07 0)
(0.000999982 -2.95426e-07 0)
(0.000999978 -3.7105e-07 0)
(0.000999976 -3.88119e-07 0)
(0.000999971 -5.14388e-07 0)
(0.001 -3.62479e-09 0)
(0.001 -1.07518e-08 0)
(0.000999999 -1.77199e-08 0)
(0.000999998 -2.48984e-08 0)
(0.000999997 -3.23163e-08 0)
(0.000999996 -4.08327e-08 0)
(0.000999994 -5.02334e-08 0)
(0.000999992 -6.20953e-08 0)
(0.000999989 -7.53566e-08 0)
(0.000999986 -9.28174e-08 0)
(0.000999983 -1.11219e-07 0)
(0.000999978 -1.35937e-07 0)
(0.000999973 -1.58759e-07 0)
(0.000999967 -1.92294e-07 0)
(0.000999961 -2.17459e-07 0)
(0.000999952 -2.65396e-07 0)
(0.000999946 -2.90434e-07 0)
(0.000999934 -3.6599e-07 0)
(0.00099993 -3.82776e-07 0)
(0.000999911 -5.09445e-07 0)
(0.001 -3.48384e-09 0)
(0.001 -1.03018e-08 0)
(0.000999998 -1.69851e-08 0)
(0.000999997 -2.39159e-08 0)
(0.000999995 -3.09927e-08 0)
(0.000999993 -3.90288e-08 0)
(0.00099999 -4.78066e-08 0)
(0.000999987 -5.89441e-08 0)
(0.000999983 -7.13619e-08 0)
(0.000999978 -8.78146e-08 0)
(0.000999972 -1.05037e-07 0)
(0.000999964 -1.28276e-07 0)
(0.000999956 -1.49437e-07 0)
(0.000999945 -1.81027e-07 0)
(0.000999935 -2.04342e-07 0)
(0.00099992 -2.50198e-07 0)
(0.00099991 -2.73675e-07 0)
(0.000999889 -3.4729e-07 0)
(0.000999882 -3.63186e-07 0)
(0.000999852 -4.8792e-07 0)
(0.001 -3.20903e-09 0)
(0.000999999 -9.43687e-09 0)
(0.000999998 -1.56786e-08 0)
(0.000999996 -2.24392e-08 0)
(0.000999994 -2.96236e-08 0)
(0.000999991 -3.79714e-08 0)
(0.000999987 -4.71333e-08 0)
(0.000999982 -5.86157e-08 0)
(0.000999977 -7.1249e-08 0)
(0.000999969 -8.77466e-08 0)
(0.000999962 -1.04892e-07 0)
(0.000999951 -1.28087e-07 0)
(0.000999941 -1.49161e-07 0)
(0.000999926 -1.80838e-07 0)
(0.000999913 -2.04128e-07 0)
(0.000999891 -2.50191e-07 0)
(0.000999878 -2.73588e-07 0)
(0.000999847 -3.47545e-07 0)
(0.000999839 -3.6348e-07 0)
(0.000999792 -4.89498e-07 0)
(0.001 -2.88524e-09 0)
(0.000999999 -7.99633e-09 0)
(0.000999997 -1.24475e-08 0)
(0.000999994 -1.66782e-08 0)
(0.00099999 -2.0749e-08 0)
(0.000999986 -2.556e-08 0)
(0.000999981 -3.09279e-08 0)
(0.000999975 -3.84222e-08 0)
(0.000999969 -4.69657e-08 0)
(0.00099996 -5.91963e-08 0)
(0.00099995 -7.18563e-08 0)
(0.000999936 -9.02305e-08 0)
(0.000999922 -1.06271e-07 0)
(0.000999903 -1.32523e-07 0)
(0.000999886 -1.50537e-07 0)
(0.000999858 -1.91024e-07 0)
(0.00099984 -2.0962e-07 0)
(0.000999802 -2.78316e-07 0)
(0.000999788 -2.90692e-07 0)
(0.000999733 -4.12511e-07 0)
(0.001 -3.21235e-09 0)
(0.001 -9.7623e-09 0)
(0.000999998 -1.67941e-08 0)
(0.000999996 -2.46528e-08 0)
(0.000999993 -3.30133e-08 0)
(0.000999989 -4.22272e-08 0)
(0.000999984 -5.19165e-08 0)
(0.000999977 -6.33673e-08 0)
(0.000999969 -7.54571e-08 0)
(0.000999958 -9.07535e-08 0)
(0.000999947 -1.06031e-07 0)
(0.00099993 -1.26731e-07 0)
(0.000999915 -1.44871e-07 0)
(0.000999891 -1.73142e-07 0)
(0.000999872 -1.92896e-07 0)
(0.000999836 -2.35011e-07 0)
(0.000999817 -2.54934e-07 0)
(0.000999764 -3.25027e-07 0)
(0.000999752 -3.38764e-07 0)
(0.000999671 -4.62366e-07 0)
(0.001 -4.59028e-10 0)
(0.000999998 -5.1744e-10 0)
(0.000999994 2.69527e-10 0)
(0.000999989 1.25942e-09 0)
(0.000999985 2.31007e-09 0)
(0.000999979 2.77809e-09 0)
(0.000999973 2.771e-09 0)
(0.000999965 1.10246e-09 0)
(0.000999956 -1.17727e-09 0)
(0.000999944 -6.47942e-09 0)
(0.000999931 -1.15546e-08 0)
(0.000999912 -2.1684e-08 0)
(0.000999895 -2.91275e-08 0)
(0.000999867 -4.62822e-08 0)
(0.000999845 -5.50314e-08 0)
(0.000999805 -8.55049e-08 0)
(0.000999779 -9.45996e-08 0)
(0.00099972 -1.5322e-07 0)
(0.000999699 -1.584e-07 0)
(0.000999612 -2.74134e-07 0)
(0.001 -4.1681e-09 0)
(0.001 -1.33079e-08 0)
(0.001 -2.32095e-08 0)
(0.000999997 -3.36103e-08 0)
(0.000999994 -4.38187e-08 0)
(0.000999989 -5.42434e-08 0)
(0.000999982 -6.46553e-08 0)
(0.000999973 -7.61806e-08 0)
(0.000999964 -8.7901e-08 0)
(0.00099995 -1.02095e-07 0)
(0.000999936 -1.15614e-07 0)
(0.000999915 -1.33442e-07 0)
(0.000999896 -1.48069e-07 0)
(0.000999864 -1.71545e-07 0)
(0.00099984 -1.86206e-07 0)
(0.000999791 -2.21415e-07 0)
(0.000999766 -2.34895e-07 0)
(0.000999687 -2.96355e-07 0)
(0.000999672 -3.04183e-07 0)
(0.000999541 -4.20819e-07 0)
(0.001 3.8786e-09 0)
(0.000999996 1.1923e-08 0)
(0.00099999 1.99945e-08 0)
(0.000999985 2.76112e-08 0)
(0.000999981 3.48887e-08 0)
(0.000999975 4.13298e-08 0)
(0.000999968 4.7663e-08 0)
(0.000999959 5.28537e-08 0)
(0.000999949 5.83491e-08 0)
(0.000999934 6.23213e-08 0)
(0.00099992 6.69028e-08 0)
(0.000999898 6.8397e-08 0)
(0.000999878 7.23219e-08 0)
(0.000999845 6.94087e-08 0)
(0.000999819 7.35928e-08 0)
(0.000999767 6.13856e-08 0)
(0.000999737 6.71813e-08 0)
(0.000999654 3.1978e-08 0)
(0.00099963 4.0358e-08 0)
(0.000999497 -5.40176e-08 0)
(0.001 -8.79422e-09 0)
(0.001 -2.37864e-08 0)
(0.000999999 -3.59031e-08 0)
(0.000999996 -4.64136e-08 0)
(0.000999992 -5.62609e-08 0)
(0.000999985 -6.65861e-08 0)
(0.000999978 -7.68645e-08 0)
(0.000999968 -8.83333e-08 0)
(0.000999958 -9.93097e-08 0)
(0.000999942 -1.11689e-07 0)
(0.000999929 -1.22938e-07 0)
(0.000999904 -1.3683e-07 0)
(0.000999886 -1.47433e-07 0)
(0.000999846 -1.64145e-07 0)
(0.000999826 -1.72663e-07 0)
(0.000999759 -1.96306e-07 0)
(0.000999742 -2.00265e-07 0)
(0.000999623 -2.42339e-07 0)
(0.000999618 -2.38142e-07 0)
(0.000999395 -3.31436e-07 0)
)
;

boundaryField
{
    sides
    {
        type            slip;
    }
    inlet
    {
        type            fixedValue;
        value           uniform (0.001 0 0);
    }
    outlet
    {
        type            zeroGradient;
    }
    frontAndBack
    {
        type            empty;
    }
}


// ************************************************************************* //
