/*--------------------------------*- C++ -*----------------------------------*\
  =========                 |
  \\      /  F ield         | OpenFOAM: The Open Source CFD Toolbox
   \\    /   O peration     | Website:  https://openfoam.org
    \\  /    A nd           | Version:  7
     \\/     M anipulation  |
\*---------------------------------------------------------------------------*/
FoamFile
{
    version     2.0;
    format      ascii;
    class       surfaceScalarField;
    location    "48";
    object      phi_0;
}
// * * * * * * * * * * * * * * * * * * * * * * * * * * * * * * * * * * * * * //

dimensions      [0 4 -1 0 0 0 0];

internalField   nonuniform List<scalar> 
760
(
4.99999e-06
9.80581e-12
5e-06
-4.65833e-12
5.00001e-06
-1.30935e-11
5.00003e-06
-1.93021e-11
5.00006e-06
-2.61928e-11
5.00009e-06
-3.11285e-11
5.00013e-06
-3.48323e-11
5.00018e-06
-4.27729e-11
5.00024e-06
-6.11055e-11
5.00032e-06
-7.78539e-11
5.00041e-06
-9.08488e-11
5.00053e-06
-1.15784e-10
5.00066e-06
-1.29486e-10
5.00082e-06
-1.7031e-10
5.001e-06
-1.79707e-10
5.00126e-06
-2.57234e-10
5.00151e-06
-2.54752e-10
5.00194e-06
-4.29655e-10
5.00235e-06
-4.10639e-10
-8.89466e-10
5.00002e-06
-1.2624e-11
5.00004e-06
-1.99952e-11
5.00006e-06
-2.99552e-11
5.00008e-06
-4.17085e-11
5.00011e-06
-5.31474e-11
5.00014e-06
-6.68686e-11
5.00018e-06
-8.06082e-11
5.00023e-06
-1.00535e-10
5.00029e-06
-1.20963e-10
5.00036e-06
-1.52068e-10
5.00045e-06
-1.78483e-10
5.00056e-06
-2.25877e-10
5.00069e-06
-2.55906e-10
5.00084e-06
-3.29424e-10
5.00102e-06
-3.57511e-10
5.00125e-06
-4.87068e-10
5.0015e-06
-5.0643e-10
5.00183e-06
-7.63885e-10
5.00218e-06
-7.53073e-10
-1.25782e-09
4.99999e-06
-5.84701e-12
5e-06
-2.16055e-11
5.00001e-06
-3.82375e-11
5.00002e-06
-5.61623e-11
5.00004e-06
-7.4309e-11
5.00007e-06
-9.53371e-11
5.00011e-06
-1.1724e-10
5.00016e-06
-1.47099e-10
5.00021e-06
-1.78146e-10
5.00028e-06
-2.22e-10
5.00037e-06
-2.6444e-10
5.00047e-06
-3.28912e-10
5.00059e-06
-3.80152e-10
5.00074e-06
-4.75393e-10
5.00091e-06
-5.31094e-10
5.00111e-06
-6.87989e-10
5.00135e-06
-7.43359e-10
5.00162e-06
-1.03461e-09
5.00194e-06
-1.07222e-09
-1.683e-09
5.00001e-06
-1.43894e-11
5.00002e-06
-3.53475e-11
5.00004e-06
-5.53449e-11
5.00006e-06
-7.70845e-11
5.00009e-06
-9.90449e-11
5.00012e-06
-1.25005e-10
5.00015e-06
-1.52801e-10
5.0002e-06
-1.90111e-10
5.00025e-06
-2.29961e-10
5.00031e-06
-2.86206e-10
5.00039e-06
-3.41127e-10
5.00048e-06
-4.22747e-10
5.00059e-06
-4.89317e-10
5.00072e-06
-6.06979e-10
5.00087e-06
-6.79998e-10
5.00105e-06
-8.66876e-10
5.00125e-06
-9.41102e-10
5.00148e-06
-1.27157e-09
5.00173e-06
-1.31745e-09
-1.88963e-09
5e-06
-1.30563e-11
5e-06
-3.83002e-11
5.00001e-06
-6.28283e-11
5.00003e-06
-8.90965e-11
5.00004e-06
-1.16463e-10
5.00007e-06
-1.48129e-10
5.0001e-06
-1.82897e-10
5.00014e-06
-2.27461e-10
5.00018e-06
-2.76361e-10
5.00024e-06
-3.42391e-10
5.00031e-06
-4.09682e-10
5.00039e-06
-5.03942e-10
5.00048e-06
-5.86574e-10
5.00059e-06
-7.19281e-10
5.00073e-06
-8.11762e-10
5.00087e-06
-1.0147e-09
5.00104e-06
-1.10987e-09
5.00122e-06
-1.45197e-09
5.00142e-06
-1.51655e-09
-2.15296e-09
5e-06
-1.53489e-11
5.00001e-06
-4.52195e-11
5.00002e-06
-7.39424e-11
5.00004e-06
-1.03828e-10
5.00006e-06
-1.34594e-10
5.00008e-06
-1.70085e-10
5.00011e-06
-2.09238e-10
5.00014e-06
-2.59732e-10
5.00018e-06
-3.15712e-10
5.00023e-06
-3.90877e-10
5.00028e-06
-4.67987e-10
5.00035e-06
-5.74207e-10
5.00044e-06
-6.68355e-10
5.00053e-06
-8.14606e-10
5.00064e-06
-9.18477e-10
5.00076e-06
-1.13659e-09
5.00089e-06
-1.24281e-09
5.00104e-06
-1.60408e-09
5.0012e-06
-1.67768e-09
-2.28184e-09
5e-06
-1.68729e-11
5.00001e-06
-4.94439e-11
5.00002e-06
-8.09217e-11
5.00003e-06
-1.13366e-10
5.00004e-06
-1.47158e-10
5.00006e-06
-1.86384e-10
5.00008e-06
-2.2988e-10
5.0001e-06
-2.85289e-10
5.00013e-06
-3.47038e-10
5.00017e-06
-4.28463e-10
5.00022e-06
-5.13165e-10
5.00027e-06
-6.27665e-10
5.00033e-06
-7.31549e-10
5.0004e-06
-8.87507e-10
5.00049e-06
-1.00237e-09
5.00058e-06
-1.23044e-09
5.00069e-06
-1.34712e-09
5.0008e-06
-1.71442e-09
5.00091e-06
-1.79163e-09
-2.42959e-09
5e-06
-1.77347e-11
5.00001e-06
-5.23164e-11
5.00001e-06
-8.58938e-11
5.00002e-06
-1.20686e-10
5.00003e-06
-1.56804e-10
5.00004e-06
-1.98604e-10
5.00006e-06
-2.4494e-10
5.00008e-06
-3.03847e-10
5.0001e-06
-3.69736e-10
5.00013e-06
-4.56319e-10
5.00016e-06
-5.46868e-10
5.0002e-06
-6.67822e-10
5.00025e-06
-7.78294e-10
5.0003e-06
-9.41153e-10
5.00036e-06
-1.06246e-09
5.00043e-06
-1.29731e-09
5.0005e-06
-1.41937e-09
5.00058e-06
-1.79393e-09
5.00066e-06
-1.8779e-09
-2.50258e-09
5e-06
-1.82761e-11
5e-06
-5.41232e-11
5.00001e-06
-8.90037e-11
5.00001e-06
-1.2508e-10
5.00002e-06
-1.62606e-10
5.00003e-06
-2.05954e-10
5.00003e-06
-2.54153e-10
5.00005e-06
-3.15264e-10
5.00006e-06
-3.83731e-10
5.00008e-06
-4.73297e-10
5.0001e-06
-5.671e-10
5.00012e-06
-6.91587e-10
5.00015e-06
-8.05856e-10
5.00018e-06
-9.72686e-10
5.00022e-06
-1.09799e-09
5.00026e-06
-1.33696e-09
5.0003e-06
-1.46287e-09
5.00035e-06
-1.84083e-09
5.00039e-06
-1.92495e-09
-2.55829e-09
5e-06
-1.84796e-11
5e-06
-5.47557e-11
5e-06
-9.00414e-11
5e-06
-1.26554e-10
5.00001e-06
-1.64586e-10
5.00001e-06
-2.08541e-10
5.00001e-06
-2.57358e-10
5.00002e-06
-3.19074e-10
5.00002e-06
-3.8826e-10
5.00003e-06
-4.78667e-10
5.00003e-06
-5.73614e-10
5.00004e-06
-6.99452e-10
5.00005e-06
-8.15262e-10
5.00006e-06
-9.83572e-10
5.00007e-06
-1.11038e-09
5.00009e-06
-1.35046e-09
5.0001e-06
-1.47736e-09
5.00012e-06
-1.85578e-09
5.00013e-06
-1.94132e-09
-2.57416e-09
5e-06
-1.83032e-11
5e-06
-5.41672e-11
5e-06
-8.90364e-11
5e-06
-1.25144e-10
4.99999e-06
-1.62645e-10
4.99999e-06
-2.05977e-10
4.99999e-06
-2.54138e-10
4.99998e-06
-3.15209e-10
4.99998e-06
-3.83729e-10
4.99997e-06
-4.73251e-10
4.99997e-06
-5.67081e-10
4.99996e-06
-6.91607e-10
4.99995e-06
-8.05889e-10
4.99994e-06
-9.72772e-10
4.99993e-06
-1.0981e-09
4.99991e-06
-1.33696e-09
4.9999e-06
-1.46278e-09
4.99988e-06
-1.8407e-09
4.99987e-06
-1.92488e-09
-2.55816e-09
5e-06
-1.77994e-11
5e-06
-5.23885e-11
4.99999e-06
-8.5926e-11
4.99999e-06
-1.2068e-10
4.99998e-06
-1.56832e-10
4.99997e-06
-1.98566e-10
4.99997e-06
-2.44908e-10
4.99995e-06
-3.03762e-10
4.99994e-06
-3.69681e-10
4.99992e-06
-4.5628e-10
4.9999e-06
-5.46822e-10
4.99988e-06
-6.67756e-10
4.99985e-06
-7.78264e-10
4.99982e-06
-9.41206e-10
4.99978e-06
-1.06257e-09
4.99974e-06
-1.29731e-09
4.9997e-06
-1.4193e-09
4.99965e-06
-1.79375e-09
4.99961e-06
-1.87775e-09
-2.50238e-09
5e-06
-1.69499e-11
4.99999e-06
-4.95154e-11
4.99999e-06
-8.08783e-11
4.99998e-06
-1.13323e-10
4.99997e-06
-1.47096e-10
4.99996e-06
-1.86296e-10
4.99994e-06
-2.29789e-10
4.99992e-06
-2.85242e-10
4.9999e-06
-3.46914e-10
4.99987e-06
-4.28393e-10
4.99984e-06
-5.13163e-10
4.9998e-06
-6.27588e-10
4.99975e-06
-7.31434e-10
4.9997e-06
-8.87421e-10
4.99964e-06
-1.0024e-09
4.99957e-06
-1.23043e-09
4.9995e-06
-1.34712e-09
4.99942e-06
-1.71424e-09
4.99934e-06
-1.79147e-09
-2.42924e-09
5e-06
-1.5372e-11
4.99999e-06
-4.5195e-11
4.99998e-06
-7.3897e-11
4.99997e-06
-1.03797e-10
4.99996e-06
-1.34412e-10
4.99994e-06
-1.70047e-10
4.99992e-06
-2.09163e-10
4.9999e-06
-2.59787e-10
4.99987e-06
-3.15692e-10
4.99983e-06
-3.90744e-10
4.99978e-06
-4.67955e-10
4.99973e-06
-5.74209e-10
4.99967e-06
-6.68289e-10
4.9996e-06
-8.14432e-10
4.99951e-06
-9.18383e-10
4.99942e-06
-1.13652e-09
4.99931e-06
-1.24281e-09
4.9992e-06
-1.60389e-09
4.99909e-06
-1.6775e-09
-2.28145e-09
5e-06
-1.29771e-11
4.99999e-06
-3.82025e-11
4.99998e-06
-6.2841e-11
4.99996e-06
-8.90396e-11
4.99994e-06
-1.16376e-10
4.99992e-06
-1.48269e-10
4.99989e-06
-1.8295e-10
4.99986e-06
-2.27546e-10
4.99982e-06
-2.76584e-10
4.99977e-06
-3.42422e-10
4.99972e-06
-4.09647e-10
4.99965e-06
-5.03979e-10
4.99956e-06
-5.86628e-10
4.99947e-06
-7.1917e-10
4.99936e-06
-8.11649e-10
4.99924e-06
-1.01455e-09
4.99911e-06
-1.10985e-09
4.99896e-06
-1.45179e-09
4.9988e-06
-1.51642e-09
-2.15254e-09
5e-06
-1.42311e-11
5e-06
-3.52433e-11
4.99999e-06
-5.5412e-11
4.99997e-06
-7.70526e-11
4.99996e-06
-9.92562e-11
4.99993e-06
-1.25167e-10
4.9999e-06
-1.52886e-10
4.99986e-06
-1.90072e-10
4.99982e-06
-2.3014e-10
4.99976e-06
-2.86376e-10
4.99969e-06
-3.4114e-10
4.99961e-06
-4.22745e-10
4.99952e-06
-4.89393e-10
4.99941e-06
-6.0692e-10
4.99927e-06
-6.79886e-10
4.99913e-06
-8.66627e-10
4.99896e-06
-9.4099e-10
4.99878e-06
-1.27132e-09
4.99858e-06
-1.31728e-09
-1.88913e-09
4.99999e-06
-5.8518e-12
4.99998e-06
-2.16059e-11
4.99996e-06
-3.82732e-11
4.99994e-06
-5.62479e-11
4.99991e-06
-7.46589e-11
4.99988e-06
-9.53144e-11
4.99985e-06
-1.17753e-10
4.9998e-06
-1.46787e-10
4.99975e-06
-1.78144e-10
4.99969e-06
-2.22146e-10
4.99961e-06
-2.6452e-10
4.99952e-06
-3.28912e-10
4.99941e-06
-3.80229e-10
4.99928e-06
-4.75411e-10
4.99913e-06
-5.31088e-10
4.99895e-06
-6.87801e-10
4.99876e-06
-7.43278e-10
4.99852e-06
-1.03438e-09
4.99827e-06
-1.07214e-09
-1.68263e-09
5.00001e-06
-1.28319e-11
5e-06
-2.01614e-11
4.99999e-06
-2.98898e-11
4.99998e-06
-4.18668e-11
4.99996e-06
-5.32442e-11
4.99993e-06
-6.64589e-11
4.99989e-06
-8.12343e-11
4.99984e-06
-1.00544e-10
4.99979e-06
-1.20586e-10
4.99972e-06
-1.51949e-10
4.99963e-06
-1.78492e-10
4.99953e-06
-2.25788e-10
4.99941e-06
-2.55877e-10
4.99926e-06
-3.29381e-10
4.99909e-06
-3.57536e-10
4.99889e-06
-4.86884e-10
4.99865e-06
-5.06355e-10
4.99838e-06
-7.63562e-10
4.99806e-06
-7.52943e-10
-1.25735e-09
4.99998e-06
9.59519e-12
4.99996e-06
-4.80966e-12
4.99994e-06
-1.31383e-11
4.99992e-06
-1.95089e-11
4.99989e-06
-2.57004e-11
4.99986e-06
-3.3138e-11
4.99982e-06
-4.10784e-11
4.99977e-06
-4.53118e-11
4.99971e-06
-6.1159e-11
4.99964e-06
-7.78227e-11
4.99955e-06
-9.09322e-11
4.99944e-06
-1.15808e-10
4.99932e-06
-1.29534e-10
4.99916e-06
-1.70394e-10
4.99898e-06
-1.79843e-10
4.99875e-06
-2.57262e-10
4.9985e-06
-2.548e-10
4.99817e-06
-4.29601e-10
4.99782e-06
-4.10674e-10
-8.89468e-10
5.00001e-06
5e-06
4.99999e-06
4.99997e-06
4.99994e-06
4.99991e-06
4.99987e-06
4.99982e-06
4.99976e-06
4.99968e-06
4.99959e-06
4.99947e-06
4.99934e-06
4.99917e-06
4.999e-06
4.99874e-06
4.99848e-06
4.99806e-06
4.99764e-06
)
;

boundaryField
{
    sides
    {
        type            calculated;
        value           uniform 0;
    }
    inlet
    {
        type            calculated;
        value           nonuniform List<scalar> 
20
(
-5e-06
-5e-06
-5e-06
-5e-06
-5e-06
-5e-06
-5e-06
-5e-06
-5e-06
-5e-06
-5e-06
-5e-06
-5e-06
-5e-06
-5e-06
-5e-06
-5e-06
-5e-06
-5e-06
-5e-06
)
;
    }
    outlet
    {
        type            calculated;
        value           nonuniform List<scalar> 
20
(
5.00324e-06
5.00255e-06
5.00236e-06
5.00193e-06
5.00168e-06
5.00133e-06
5.00106e-06
5.00074e-06
5.00045e-06
5.00015e-06
4.99985e-06
4.99955e-06
4.99926e-06
4.99894e-06
4.99867e-06
4.99832e-06
4.99807e-06
4.99764e-06
4.99746e-06
4.99676e-06
)
;
    }
    frontAndBack
    {
        type            empty;
        value           nonuniform 0();
    }
}


// ************************************************************************* //
