/*--------------------------------*- C++ -*----------------------------------*\
  =========                 |
  \\      /  F ield         | OpenFOAM: The Open Source CFD Toolbox
   \\    /   O peration     | Website:  https://openfoam.org
    \\  /    A nd           | Version:  7
     \\/     M anipulation  |
\*---------------------------------------------------------------------------*/
FoamFile
{
    version     2.0;
    format      ascii;
    class       volVectorField;
    location    "92";
    object      ddt0(hU);
}
// * * * * * * * * * * * * * * * * * * * * * * * * * * * * * * * * * * * * * //

dimensions      [0 2 -2 0 0 0 0];

internalField   nonuniform List<vector> 
400
(
(1.22015e-10 7.06316e-11 0)
(8.23756e-11 -7.58213e-11 0)
(-8.18136e-11 -6.84537e-11 0)
(-1.37078e-10 1.94186e-10 0)
(4.09039e-10 1.92418e-10 0)
(-1.16387e-09 -7.00013e-10 0)
(-2.34312e-09 -2.94182e-10 0)
(-1.62155e-09 2.45018e-09 0)
(2.10517e-09 9.39332e-10 0)
(1.27776e-09 -1.08031e-10 0)
(1.68653e-10 -3.72709e-10 0)
(-3.26426e-10 -2.53068e-10 0)
(-3.60593e-10 -5.92642e-11 0)
(-1.74789e-10 5.23196e-11 0)
(4.4871e-12 7.42901e-11 0)
(7.92024e-11 5.64865e-11 0)
(6.79896e-11 2.78856e-11 0)
(3.13144e-11 -2.09575e-12 0)
(-2.89633e-12 -3.10602e-11 0)
(-9.29023e-12 -2.29769e-11 0)
(-9.9672e-12 1.14688e-10 0)
(4.48018e-12 -9.95085e-11 0)
(-1.54549e-12 -1.27392e-10 0)
(1.2755e-10 2.84392e-10 0)
(-5.66465e-10 -5.14943e-11 0)
(1.25239e-09 -8.55765e-11 0)
(2.58514e-09 -7.90505e-10 0)
(5.4655e-10 1.5168e-09 0)
(-1.27056e-09 9.89906e-10 0)
(-5.10295e-10 -9.01962e-11 0)
(-1.31079e-10 -4.4262e-10 0)
(3.25372e-11 -3.46559e-10 0)
(5.32802e-11 -1.31324e-10 0)
(4.82438e-11 3.29887e-11 0)
(4.71425e-11 9.8173e-11 0)
(3.77847e-11 9.70013e-11 0)
(7.80163e-12 6.14528e-11 0)
(-2.01654e-11 8.42291e-12 0)
(-2.17689e-11 -3.54186e-11 0)
(6.47378e-12 -2.87942e-11 0)
(-8.51515e-11 1.00136e-11 0)
(-4.8534e-11 1.87047e-11 0)
(1.45684e-12 -5.69591e-11 0)
(2.56863e-11 5.77458e-11 0)
(-1.04288e-10 -2.58707e-10 0)
(1.73163e-10 6.95148e-10 0)
(-5.81857e-10 -3.35235e-10 0)
(9.38883e-10 -9.45018e-10 0)
(-1.89406e-10 -2.12878e-10 0)
(-7.37258e-10 -1.86738e-10 0)
(-2.85073e-10 -6.19895e-11 0)
(4.02012e-11 -7.03733e-12 0)
(1.87411e-10 2.1978e-11 0)
(2.02681e-10 5.85351e-11 0)
(1.16621e-10 8.35447e-11 0)
(1.93507e-11 7.09159e-11 0)
(-4.45652e-11 1.84392e-11 0)
(-7.41882e-11 -2.24606e-11 0)
(-4.60355e-11 -5.66493e-11 0)
(3.43661e-11 -4.33907e-11 0)
(-4.09204e-11 -6.87202e-11 0)
(-3.14495e-11 5.85062e-11 0)
(2.31672e-11 2.28265e-11 0)
(-4.60371e-11 -6.55093e-11 0)
(1.13128e-10 9.19234e-11 0)
(-9.71898e-11 -6.04281e-11 0)
(-1.96374e-13 3.529e-10 0)
(6.08169e-10 4.66351e-11 0)
(-4.78013e-10 -5.49822e-10 0)
(-3.75855e-10 -2.09469e-10 0)
(9.13737e-11 9.94562e-11 0)
(1.45666e-10 1.53457e-10 0)
(1.74263e-10 1.57716e-10 0)
(1.55919e-10 1.21473e-10 0)
(6.27512e-11 7.1262e-11 0)
(-3.30101e-11 1.63085e-11 0)
(-7.37183e-11 -4.46202e-11 0)
(-6.93823e-11 -4.95959e-11 0)
(-3.4578e-11 -4.12126e-11 0)
(3.81047e-11 -3.07706e-11 0)
(1.10928e-12 -2.17503e-11 0)
(-1.16958e-11 3.13966e-11 0)
(5.80155e-11 8.55669e-11 0)
(-5.83271e-11 -8.31321e-11 0)
(1.54144e-10 1.79659e-10 0)
(-2.15355e-10 -2.81623e-10 0)
(2.99793e-10 2.35383e-10 0)
(-2.45225e-10 -1.98366e-10 0)
(-5.00118e-10 -3.27625e-10 0)
(2.34252e-10 1.2858e-10 0)
(2.10707e-10 1.49703e-10 0)
(1.33723e-10 1.10151e-10 0)
(1.35302e-10 1.28473e-10 0)
(4.08485e-11 9.02603e-11 0)
(-4.07315e-11 1.49102e-11 0)
(-8.2858e-11 -4.24902e-11 0)
(-7.18987e-11 -7.50312e-11 0)
(-1.60496e-11 -4.3967e-11 0)
(1.8709e-11 -1.42738e-11 0)
(3.60847e-11 -1.58044e-11 0)
(1.6555e-11 4.17021e-11 0)
(-9.66295e-13 1.84051e-11 0)
(2.0527e-11 1.02011e-10 0)
(-3.32743e-11 -5.5426e-11 0)
(2.24403e-11 4.4397e-11 0)
(-1.03624e-10 -1.23675e-10 0)
(1.23329e-10 2.94288e-11 0)
(-3.6557e-10 -3.20378e-10 0)
(1.59125e-10 1.10296e-10 0)
(3.28741e-10 1.67313e-10 0)
(3.66144e-11 2.61934e-11 0)
(1.06896e-10 6.50364e-11 0)
(8.15104e-11 7.39971e-11 0)
(-9.55852e-11 3.1771e-11 0)
(-1.38484e-10 -2.03093e-11 0)
(-8.80884e-11 -5.57732e-11 0)
(-2.46516e-11 -6.09516e-11 0)
(4.37342e-11 -1.41323e-11 0)
(6.49353e-11 -1.49012e-11 0)
(3.04788e-11 -3.14738e-11 0)
(1.39648e-11 3.78513e-11 0)
(3.6847e-12 1.35877e-11 0)
(-3.91465e-11 -1.15222e-12 0)
(1.23107e-11 5.76576e-11 0)
(-9.37753e-11 -7.85939e-11 0)
(1.81987e-11 6.79956e-11 0)
(-8.11377e-11 -6.79146e-11 0)
(-6.40351e-11 -3.77686e-11 0)
(2.52644e-10 1.95019e-10 0)
(-1.91493e-11 -4.60034e-11 0)
(-8.44761e-13 -3.38477e-11 0)
(1.19878e-10 5.7019e-11 0)
(-3.77669e-11 -1.9502e-11 0)
(-1.77742e-10 -3.69691e-11 0)
(-1.56447e-10 6.49607e-12 0)
(-4.60403e-11 1.70091e-11 0)
(6.48266e-11 6.31731e-12 0)
(1.1172e-10 2.44383e-11 0)
(7.87517e-11 -9.18508e-12 0)
(3.97063e-12 -3.96576e-11 0)
(-1.85018e-12 -1.90784e-11 0)
(6.36777e-12 3.12212e-11 0)
(-6.06643e-11 -4.72803e-11 0)
(2.33864e-11 8.4395e-11 0)
(-1.01999e-10 -3.97395e-11 0)
(3.63842e-11 7.97812e-11 0)
(-1.50922e-10 -6.43481e-11 0)
(9.62761e-11 8.11202e-11 0)
(2.71155e-11 1.19092e-11 0)
(-1.00218e-10 -9.61471e-11 0)
(1.55091e-10 -3.229e-12 0)
(-6.43058e-13 -2.4161e-11 0)
(-1.80568e-10 -7.43053e-11 0)
(-8.53145e-11 -1.2616e-11 0)
(-4.63414e-11 8.78557e-11 0)
(-3.79132e-11 1.39065e-10 0)
(6.14568e-11 9.47697e-11 0)
(1.17318e-10 2.7214e-11 0)
(5.63523e-11 -5.63084e-11 0)
(-2.55832e-11 -6.75468e-11 0)
(1.01584e-11 -2.68854e-11 0)
(1.45686e-11 -3.07193e-12 0)
(-2.43833e-11 3.67953e-11 0)
(1.05878e-12 1.73645e-11 0)
(-1.33551e-11 5.57094e-11 0)
(1.74294e-11 2.27983e-11 0)
(-4.64055e-11 7.17046e-12 0)
(7.42905e-11 7.80833e-11 0)
(-7.23101e-11 -7.72163e-11 0)
(-2.5649e-11 3.79274e-12 0)
(4.73554e-11 -5.19135e-11 0)
(-1.27873e-10 -1.34122e-10 0)
(-8.56499e-11 1.03068e-12 0)
(1.05493e-10 7.67862e-11 0)
(9.56744e-11 8.81404e-11 0)
(-4.90021e-12 1.68968e-10 0)
(-8.81814e-12 1.63652e-10 0)
(2.43432e-11 4.06403e-11 0)
(1.02603e-11 -1.04548e-10 0)
(-2.40119e-11 -1.0121e-10 0)
(-1.06913e-11 2.05555e-11 0)
(-1.606e-11 -1.94306e-11 0)
(3.68783e-11 7.1678e-11 0)
(-8.45221e-13 4.67567e-12 0)
(6.66428e-11 6.65091e-11 0)
(3.94691e-12 -5.56932e-12 0)
(8.69097e-11 2.29073e-11 0)
(-1.43147e-11 2.59929e-11 0)
(-3.08552e-11 -5.87274e-11 0)
(-1.70042e-11 3.33764e-11 0)
(-1.41993e-10 -4.76129e-11 0)
(-4.14228e-12 -6.69368e-11 0)
(1.29073e-10 9.55825e-11 0)
(9.24719e-11 1.1631e-10 0)
(1.148e-10 5.40622e-11 0)
(1.14358e-10 1.00455e-10 0)
(-2.24615e-11 1.11938e-10 0)
(-1.33642e-10 1.77778e-11 0)
(-9.78699e-11 -1.19939e-10 0)
(3.06644e-12 -1.09693e-10 0)
(-1.79252e-11 2.9127e-11 0)
(-3.38626e-11 6.47452e-11 0)
(4.42214e-11 1.78604e-11 0)
(-1.52784e-11 4.63316e-11 0)
(7.7545e-11 1.02612e-12 0)
(-2.15859e-12 2.20341e-11 0)
(1.29753e-10 -1.63047e-11 0)
(-3.39322e-11 -1.15909e-11 0)
(-9.05101e-12 7.41028e-12 0)
(-1.07239e-11 -8.58006e-12 0)
(-1.89564e-10 7.20876e-11 0)
(3.10109e-11 1.03289e-10 0)
(1.59446e-10 6.21534e-11 0)
(4.22738e-11 6.92725e-11 0)
(9.26465e-11 7.23956e-11 0)
(1.49243e-10 2.0775e-11 0)
(-1.88345e-11 -4.3691e-11 0)
(-1.7931e-10 -5.10175e-11 0)
(-1.26074e-10 -7.94031e-11 0)
(2.67955e-11 -7.13071e-11 0)
(1.57919e-11 3.14346e-11 0)
(-5.38605e-13 7.75605e-11 0)
(-9.63293e-12 1.07563e-11 0)
(-4.00541e-11 7.75937e-11 0)
(1.76741e-11 -2.36105e-11 0)
(2.60184e-12 3.14555e-11 0)
(4.63186e-11 -3.72746e-11 0)
(4.80676e-11 -8.217e-11 0)
(-6.38022e-11 4.60668e-11 0)
(1.5519e-11 -5.6133e-11 0)
(-4.40942e-11 9.2694e-11 0)
(-1.17137e-10 2.08668e-10 0)
(-2.55104e-11 8.28184e-11 0)
(6.15272e-11 5.3638e-11 0)
(6.71303e-11 5.81042e-11 0)
(2.72785e-11 -5.57541e-11 0)
(-3.24811e-11 -1.41507e-10 0)
(-7.11773e-11 -6.73877e-11 0)
(-4.67943e-11 -1.77397e-11 0)
(2.36698e-11 -2.99902e-11 0)
(7.20024e-12 1.34148e-11 0)
(2.87563e-11 5.2104e-12 0)
(-4.00703e-11 8.53433e-11 0)
(2.4764e-12 1.53965e-11 0)
(-7.49769e-11 6.74513e-11 0)
(3.30202e-11 -2.68539e-11 0)
(-1.02405e-10 1.8111e-11 0)
(1.51855e-10 -1.72864e-10 0)
(-3.89219e-11 -1.66728e-11 0)
(-4.38163e-11 -1.741e-11 0)
(1.6684e-10 -2.50471e-11 0)
(-8.02855e-11 1.15277e-10 0)
(-2.1473e-10 1.6135e-10 0)
(-8.70025e-11 1.2551e-10 0)
(-5.31526e-11 4.90923e-11 0)
(-3.59162e-11 -5.29382e-11 0)
(5.65538e-11 -1.05356e-10 0)
(8.84465e-11 -3.72953e-11 0)
(3.07018e-11 -3.30161e-12 0)
(-1.4394e-11 -2.32691e-11 0)
(4.59168e-12 -2.83253e-11 0)
(4.42152e-11 -1.53334e-11 0)
(-1.3167e-11 6.0002e-11 0)
(6.39465e-11 -3.95189e-11 0)
(-1.13581e-10 1.62153e-10 0)
(5.56689e-11 -9.32291e-11 0)
(-1.56162e-10 8.81195e-11 0)
(8.26083e-11 -1.3325e-10 0)
(2.03881e-10 -2.12792e-10 0)
(-9.79028e-11 1.82705e-11 0)
(1.07697e-10 -5.95197e-11 0)
(1.2928e-10 -6.51205e-11 0)
(-1.01271e-10 9.04385e-11 0)
(-2.04378e-10 1.42398e-10 0)
(-1.90167e-10 1.02093e-10 0)
(-6.80391e-11 6.15295e-11 0)
(9.23496e-11 3.18709e-13 0)
(1.39616e-10 -1.60889e-11 0)
(6.49767e-11 -2.27866e-11 0)
(-3.34111e-11 -3.10524e-11 0)
(-5.10919e-12 -1.7629e-11 0)
(2.25678e-11 4.38414e-12 0)
(4.8017e-11 -5.15475e-11 0)
(7.4761e-11 2.65944e-11 0)
(-1.56875e-11 2.67072e-11 0)
(-9.29336e-12 -3.24778e-11 0)
(1.75639e-12 -2.00042e-12 0)
(-2.80893e-10 1.54609e-10 0)
(3.35344e-10 -3.26617e-10 0)
(1.65537e-10 -1.58275e-10 0)
(-4.08195e-11 -5.30732e-11 0)
(1.30513e-10 -1.1171e-10 0)
(7.83732e-11 -2.9975e-11 0)
(-1.13495e-10 7.28679e-11 0)
(-1.69727e-10 1.35921e-10 0)
(-8.48006e-11 1.54162e-10 0)
(3.55778e-11 7.26016e-11 0)
(1.09448e-10 -1.27992e-11 0)
(7.57262e-11 -6.98093e-11 0)
(-4.64567e-11 -5.92121e-11 0)
(-2.00723e-11 4.72339e-11 0)
(-1.99409e-11 1.48724e-11 0)
(8.34067e-11 -7.30309e-11 0)
(1.25074e-11 1.02689e-10 0)
(1.38885e-10 -2.2523e-10 0)
(-1.86769e-10 2.44076e-10 0)
(3.23304e-10 -2.31386e-10 0)
(-5.58458e-10 4.16866e-10 0)
(-2.38892e-10 1.42352e-10 0)
(3.34783e-10 -2.10246e-10 0)
(6.53519e-11 -1.02227e-10 0)
(8.80964e-11 -1.00821e-10 0)
(1.6229e-10 -1.13066e-10 0)
(5.77744e-11 -3.97662e-11 0)
(-5.49573e-11 6.50089e-11 0)
(-1.02025e-10 1.27707e-10 0)
(-6.35968e-11 9.35231e-11 0)
(2.24071e-11 1.37032e-11 0)
(3.9309e-11 -7.45253e-11 0)
(-3.35054e-11 -6.97636e-11 0)
(-3.58747e-11 9.00251e-11 0)
(-7.65708e-11 -1.7564e-13 0)
(3.44424e-11 -3.17631e-11 0)
(-6.94758e-11 1.07648e-10 0)
(2.39607e-10 -2.58959e-10 0)
(-1.81698e-10 2.68881e-10 0)
(3.39047e-10 -5.29722e-10 0)
(4.29204e-10 6.08729e-11 0)
(-7.93858e-10 5.36255e-10 0)
(-1.99574e-10 6.58833e-11 0)
(4.31327e-11 -1.0183e-10 0)
(7.23458e-12 -1.06322e-10 0)
(1.25841e-10 -1.16879e-10 0)
(1.70401e-10 -7.54595e-11 0)
(7.86445e-11 -1.06367e-11 0)
(-4.44647e-11 4.74941e-11 0)
(-8.22515e-11 6.09784e-11 0)
(-4.23141e-11 2.16678e-11 0)
(-4.07038e-12 -6.17119e-11 0)
(-5.06176e-12 -6.36263e-11 0)
(-6.43348e-11 -1.13419e-11 0)
(-1.27518e-10 -1.81087e-12 0)
(-2.07881e-11 8.27447e-11 0)
(-7.6267e-11 -1.4287e-11 0)
(1.62258e-10 1.90738e-10 0)
(-1.13508e-10 -2.14139e-10 0)
(-5.61369e-11 -9.96328e-10 0)
(8.93878e-10 -2.21204e-10 0)
(-3.41815e-10 1.82507e-10 0)
(-6.7578e-10 1.77859e-10 0)
(-2.568e-10 2.61416e-11 0)
(-6.64843e-11 4.95768e-11 0)
(1.08692e-10 5.33707e-11 0)
(2.07175e-10 7.47788e-12 0)
(1.48972e-10 -4.00008e-11 0)
(3.19673e-11 -3.39376e-11 0)
(-4.63151e-11 -4.72717e-13 0)
(-6.32644e-11 9.63515e-12 0)
(-2.72761e-11 -2.50312e-11 0)
(4.43765e-12 -3.10841e-11 0)
(-2.28844e-11 -1.46308e-10 0)
(1.20224e-11 8.34097e-11 0)
(9.7841e-12 2.09505e-10 0)
(1.04092e-10 -2.59705e-10 0)
(-1.49149e-10 3.51147e-10 0)
(5.63439e-10 -4.71136e-10 0)
(-4.92636e-10 2.12671e-09 0)
(4.8771e-09 -6.82267e-10 0)
(-6.5442e-11 -6.91609e-10 0)
(-4.47881e-10 1.69417e-10 0)
(-1.42584e-10 3.94662e-10 0)
(-5.3951e-12 3.69421e-10 0)
(-8.50447e-12 2.13728e-10 0)
(1.02126e-11 2.73583e-11 0)
(4.59646e-11 -8.13034e-11 0)
(5.62974e-11 -8.17173e-11 0)
(1.51158e-11 -3.2237e-11 0)
(-2.9745e-11 7.17426e-12 0)
(-1.87718e-11 1.58553e-11 0)
(2.18082e-12 3.61109e-12 0)
(1.2338e-10 -8.96574e-11 0)
(1.4806e-10 7.78882e-11 0)
(-6.86872e-11 1.22882e-10 0)
(2.89147e-11 -1.98909e-10 0)
(-1.68052e-10 6.22277e-11 0)
(-8.28122e-11 -2.07848e-10 0)
(7.55779e-11 2.76854e-09 0)
(-5.56289e-09 -6.34356e-10 0)
(1.00975e-09 -6.363e-10 0)
(9.04481e-10 1.07984e-10 0)
(1.39979e-10 3.26721e-10 0)
(-2.36716e-10 2.69705e-10 0)
(-3.80913e-10 1.27823e-10 0)
(-2.56724e-10 6.78949e-12 0)
(-2.48286e-11 -4.33905e-11 0)
(1.12647e-10 -3.79006e-11 0)
(8.79458e-11 -2.082e-11 0)
(1.10272e-11 -5.19616e-12 0)
(-1.35323e-11 -6.13974e-12 0)
(-1.77964e-11 -6.63361e-12 0)
)
;

boundaryField
{
    sides
    {
        type            calculated;
        value           nonuniform List<vector> 
40
(
(1.2338e-10 0 0)
(1.4806e-10 0 0)
(-6.86872e-11 0 0)
(2.89147e-11 0 0)
(-1.68052e-10 0 0)
(-8.28122e-11 0 0)
(7.55779e-11 0 0)
(-5.56289e-09 0 0)
(1.00975e-09 0 0)
(9.04481e-10 0 0)
(1.39979e-10 0 0)
(-2.36716e-10 0 0)
(-3.80913e-10 0 0)
(-2.56724e-10 0 0)
(-2.48286e-11 0 0)
(1.12647e-10 0 0)
(8.79458e-11 0 0)
(1.10272e-11 0 0)
(-1.35323e-11 0 0)
(-1.77964e-11 0 0)
(1.22015e-10 0 0)
(8.23756e-11 0 0)
(-8.18136e-11 0 0)
(-1.37078e-10 0 0)
(4.09039e-10 0 0)
(-1.16387e-09 0 0)
(-2.34312e-09 0 0)
(-1.62155e-09 0 0)
(2.10517e-09 0 0)
(1.27776e-09 0 0)
(1.68653e-10 0 0)
(-3.26426e-10 0 0)
(-3.60593e-10 0 0)
(-1.74789e-10 0 0)
(4.4871e-12 0 0)
(7.92024e-11 0 0)
(6.79896e-11 0 0)
(3.13144e-11 0 0)
(-2.89633e-12 0 0)
(-9.29023e-12 0 0)
)
;
    }
    inlet
    {
        type            calculated;
        value           uniform (0 0 0);
    }
    outlet
    {
        type            calculated;
        value           nonuniform List<vector> 
20
(
(-9.29023e-12 -2.29769e-11 0)
(6.47378e-12 -2.87942e-11 0)
(3.43661e-11 -4.33907e-11 0)
(3.81047e-11 -3.07706e-11 0)
(3.60847e-11 -1.58044e-11 0)
(3.04788e-11 -3.14738e-11 0)
(3.97063e-12 -3.96576e-11 0)
(-2.55832e-11 -6.75468e-11 0)
(-2.40119e-11 -1.0121e-10 0)
(3.06644e-12 -1.09693e-10 0)
(2.67955e-11 -7.13071e-11 0)
(2.36698e-11 -2.99902e-11 0)
(-1.4394e-11 -2.32691e-11 0)
(-3.34111e-11 -3.10524e-11 0)
(-4.64567e-11 -5.92121e-11 0)
(-3.35054e-11 -6.97636e-11 0)
(-5.06176e-12 -6.36263e-11 0)
(4.43765e-12 -3.10841e-11 0)
(2.18082e-12 3.61109e-12 0)
(-1.77964e-11 -6.63361e-12 0)
)
;
    }
    frontAndBack
    {
        type            empty;
    }
}


// ************************************************************************* //
