/*--------------------------------*- C++ -*----------------------------------*\
  =========                 |
  \\      /  F ield         | OpenFOAM: The Open Source CFD Toolbox
   \\    /   O peration     | Website:  https://openfoam.org
    \\  /    A nd           | Version:  7
     \\/     M anipulation  |
\*---------------------------------------------------------------------------*/
FoamFile
{
    version     2.0;
    format      ascii;
    class       volVectorField;
    location    "92";
    object      hU;
}
// * * * * * * * * * * * * * * * * * * * * * * * * * * * * * * * * * * * * * //

dimensions      [0 2 -1 0 0 0 0];

internalField   nonuniform List<vector> 
400
(
(0.001 -8.72607e-09 0)
(0.000999999 -2.37718e-08 0)
(0.001 -3.60313e-08 0)
(0.001 -4.67321e-08 0)
(0.00100001 -5.68803e-08 0)
(0.00100001 -6.74369e-08 0)
(0.00100002 -7.81114e-08 0)
(0.00100003 -8.91217e-08 0)
(0.00100004 -9.99282e-08 0)
(0.00100006 -1.11972e-07 0)
(0.00100007 -1.227e-07 0)
(0.0010001 -1.36176e-07 0)
(0.00100011 -1.46517e-07 0)
(0.00100015 -1.63336e-07 0)
(0.00100017 -1.72171e-07 0)
(0.00100024 -1.96315e-07 0)
(0.00100026 -2.00818e-07 0)
(0.00100038 -2.43052e-07 0)
(0.00100038 -2.39181e-07 0)
(0.00100061 -3.31838e-07 0)
(0.001 3.98514e-09 0)
(0.001 1.20911e-08 0)
(0.00100001 2.02077e-08 0)
(0.00100001 2.79634e-08 0)
(0.00100002 3.5187e-08 0)
(0.00100002 4.16636e-08 0)
(0.00100003 4.76609e-08 0)
(0.00100004 5.31278e-08 0)
(0.00100005 5.84325e-08 0)
(0.00100007 6.2235e-08 0)
(0.00100008 6.68833e-08 0)
(0.0010001 6.85336e-08 0)
(0.00100012 7.26801e-08 0)
(0.00100016 6.98826e-08 0)
(0.00100018 7.40347e-08 0)
(0.00100023 6.1678e-08 0)
(0.00100026 6.71618e-08 0)
(0.00100035 3.17612e-08 0)
(0.00100037 3.98507e-08 0)
(0.0010005 -5.45841e-08 0)
(0.001 -3.97662e-09 0)
(0.000999999 -1.3036e-08 0)
(0.001 -2.30851e-08 0)
(0.001 -3.36895e-08 0)
(0.00100001 -4.42563e-08 0)
(0.00100001 -5.50074e-08 0)
(0.00100002 -6.56758e-08 0)
(0.00100003 -7.73807e-08 0)
(0.00100004 -8.88783e-08 0)
(0.00100005 -1.0253e-07 0)
(0.00100006 -1.15256e-07 0)
(0.00100009 -1.324e-07 0)
(0.0010001 -1.46493e-07 0)
(0.00100014 -1.70019e-07 0)
(0.00100016 -1.85137e-07 0)
(0.00100021 -2.21157e-07 0)
(0.00100023 -2.35712e-07 0)
(0.00100031 -2.97612e-07 0)
(0.00100033 -3.06237e-07 0)
(0.00100046 -4.22159e-07 0)
(0.001 -1.60869e-10 0)
(0.001 -5.09369e-11 0)
(0.00100001 5.88877e-10 0)
(0.00100001 1.27399e-09 0)
(0.00100001 1.95742e-09 0)
(0.00100002 1.87757e-09 0)
(0.00100003 1.52659e-09 0)
(0.00100004 -3.79895e-10 0)
(0.00100004 -2.43177e-09 0)
(0.00100006 -7.06427e-09 0)
(0.00100007 -1.11827e-08 0)
(0.00100009 -2.04351e-08 0)
(0.00100011 -2.71447e-08 0)
(0.00100013 -4.42684e-08 0)
(0.00100016 -5.35614e-08 0)
(0.00100019 -8.50128e-08 0)
(0.00100022 -9.55346e-08 0)
(0.00100028 -1.54717e-07 0)
(0.0010003 -1.61007e-07 0)
(0.00100039 -2.75846e-07 0)
(0.001 -2.90472e-09 0)
(0.001 -9.24246e-09 0)
(0.001 -1.63178e-08 0)
(0.001 -2.4395e-08 0)
(0.00100001 -3.30725e-08 0)
(0.00100001 -4.28019e-08 0)
(0.00100002 -5.28721e-08 0)
(0.00100002 -6.45681e-08 0)
(0.00100003 -7.64821e-08 0)
(0.00100004 -9.12115e-08 0)
(0.00100005 -1.05578e-07 0)
(0.00100007 -1.25371e-07 0)
(0.00100009 -1.4272e-07 0)
(0.00100011 -1.70941e-07 0)
(0.00100013 -1.91254e-07 0)
(0.00100016 -2.34372e-07 0)
(0.00100018 -2.55842e-07 0)
(0.00100024 -3.26603e-07 0)
(0.00100025 -3.41583e-07 0)
(0.00100033 -4.64391e-07 0)
(0.001 -2.56123e-09 0)
(0.001 -7.5556e-09 0)
(0.001 -1.22484e-08 0)
(0.00100001 -1.70063e-08 0)
(0.00100001 -2.17815e-08 0)
(0.00100001 -2.73247e-08 0)
(0.00100002 -3.32462e-08 0)
(0.00100002 -4.08809e-08 0)
(0.00100003 -4.89172e-08 0)
(0.00100004 -6.01199e-08 0)
(0.00100005 -7.12579e-08 0)
(0.00100006 -8.82203e-08 0)
(0.00100008 -1.03185e-07 0)
(0.0010001 -1.29479e-07 0)
(0.00100011 -1.4838e-07 0)
(0.00100014 -1.90347e-07 0)
(0.00100016 -2.1108e-07 0)
(0.0010002 -2.80578e-07 0)
(0.00100021 -2.94611e-07 0)
(0.00100027 -4.14975e-07 0)
(0.001 -2.89723e-09 0)
(0.001 -8.89919e-09 0)
(0.001 -1.52126e-08 0)
(0.001 -2.22594e-08 0)
(0.00100001 -2.99964e-08 0)
(0.00100001 -3.8981e-08 0)
(0.00100001 -4.87609e-08 0)
(0.00100002 -6.04984e-08 0)
(0.00100002 -7.28977e-08 0)
(0.00100003 -8.86704e-08 0)
(0.00100004 -1.045e-07 0)
(0.00100005 -1.26379e-07 0)
(0.00100006 -1.46332e-07 0)
(0.00100007 -1.77865e-07 0)
(0.00100009 -2.01864e-07 0)
(0.00100011 -2.4926e-07 0)
(0.00100012 -2.74784e-07 0)
(0.00100015 -3.49613e-07 0)
(0.00100016 -3.67307e-07 0)
(0.00100021 -4.92184e-07 0)
(0.001 -3.20626e-09 0)
(0.001 -9.78726e-09 0)
(0.001 -1.66076e-08 0)
(0.001 -2.39951e-08 0)
(0.001 -3.18454e-08 0)
(0.00100001 -4.07244e-08 0)
(0.00100001 -5.02006e-08 0)
(0.00100001 -6.15183e-08 0)
(0.00100002 -7.34863e-08 0)
(0.00100002 -8.88207e-08 0)
(0.00100003 -1.04321e-07 0)
(0.00100004 -1.25976e-07 0)
(0.00100004 -1.45888e-07 0)
(0.00100005 -1.77452e-07 0)
(0.00100006 -2.01752e-07 0)
(0.00100008 -2.49311e-07 0)
(0.00100009 -2.75315e-07 0)
(0.00100011 -3.49885e-07 0)
(0.00100012 -3.67712e-07 0)
(0.00100015 -4.9082e-07 0)
(0.001 -3.38539e-09 0)
(0.001 -1.02898e-08 0)
(0.001 -1.73883e-08 0)
(0.001 -2.5061e-08 0)
(0.001 -3.3202e-08 0)
(0.001 -4.24991e-08 0)
(0.00100001 -5.25248e-08 0)
(0.00100001 -6.46026e-08 0)
(0.00100001 -7.7503e-08 0)
(0.00100001 -9.39555e-08 0)
(0.00100002 -1.10742e-07 0)
(0.00100002 -1.33873e-07 0)
(0.00100003 -1.5533e-07 0)
(0.00100003 -1.88682e-07 0)
(0.00100004 -2.14707e-07 0)
(0.00100005 -2.64248e-07 0)
(0.00100005 -2.91833e-07 0)
(0.00100007 -3.68411e-07 0)
(0.00100007 -3.87275e-07 0)
(0.00100009 -5.12474e-07 0)
(0.001 -3.45863e-09 0)
(0.001 -1.05245e-08 0)
(0.001 -1.77786e-08 0)
(0.001 -2.56335e-08 0)
(0.001 -3.39974e-08 0)
(0.001 -4.35726e-08 0)
(0.001 -5.39267e-08 0)
(0.001 -6.6373e-08 0)
(0.001 -7.96572e-08 0)
(0.001 -9.64969e-08 0)
(0.00100001 -1.13684e-07 0)
(0.00100001 -1.37193e-07 0)
(0.00100001 -1.59066e-07 0)
(0.00100001 -1.92787e-07 0)
(0.00100001 -2.19238e-07 0)
(0.00100002 -2.69062e-07 0)
(0.00100002 -2.97044e-07 0)
(0.00100002 -3.73677e-07 0)
(0.00100002 -3.92834e-07 0)
(0.00100003 -5.17454e-07 0)
(0.001 -3.45138e-09 0)
(0.001 -1.0513e-08 0)
(0.001 -1.77828e-08 0)
(0.000999999 -2.56349e-08 0)
(0.000999999 -3.4011e-08 0)
(0.000999999 -4.35795e-08 0)
(0.000999998 -5.39383e-08 0)
(0.000999997 -6.63787e-08 0)
(0.000999996 -7.96555e-08 0)
(0.000999995 -9.6499e-08 0)
(0.000999994 -1.13672e-07 0)
(0.000999993 -1.37183e-07 0)
(0.000999991 -1.59078e-07 0)
(0.000999989 -1.92801e-07 0)
(0.000999987 -2.19246e-07 0)
(0.000999984 -2.6907e-07 0)
(0.000999982 -2.97053e-07 0)
(0.000999978 -3.73674e-07 0)
(0.000999976 -3.92822e-07 0)
(0.00099997 -5.17444e-07 0)
(0.001 -3.36833e-09 0)
(0.001 -1.02734e-08 0)
(0.000999999 -1.739e-08 0)
(0.000999998 -2.50618e-08 0)
(0.000999997 -3.32241e-08 0)
(0.000999996 -4.25136e-08 0)
(0.000999994 -5.25442e-08 0)
(0.000999992 -6.46174e-08 0)
(0.000999989 -7.7496e-08 0)
(0.000999986 -9.39549e-08 0)
(0.000999983 -1.10719e-07 0)
(0.000999978 -1.33845e-07 0)
(0.000999973 -1.55339e-07 0)
(0.000999967 -1.88701e-07 0)
(0.000999961 -2.14723e-07 0)
(0.000999952 -2.64256e-07 0)
(0.000999946 -2.91838e-07 0)
(0.000999934 -3.68378e-07 0)
(0.00099993 -3.87228e-07 0)
(0.000999911 -5.12406e-07 0)
(0.001 -3.19764e-09 0)
(0.001 -9.78406e-09 0)
(0.000999999 -1.65943e-08 0)
(0.000999997 -2.3997e-08 0)
(0.000999996 -3.18438e-08 0)
(0.000999993 -4.07358e-08 0)
(0.000999991 -5.02002e-08 0)
(0.000999987 -6.15355e-08 0)
(0.000999983 -7.34819e-08 0)
(0.000999977 -8.88089e-08 0)
(0.000999971 -1.0431e-07 0)
(0.000999964 -1.25953e-07 0)
(0.000999956 -1.45878e-07 0)
(0.000999945 -1.77464e-07 0)
(0.000999936 -2.01779e-07 0)
(0.000999921 -2.49334e-07 0)
(0.000999911 -2.75336e-07 0)
(0.000999889 -3.49883e-07 0)
(0.000999882 -3.67704e-07 0)
(0.000999852 -4.90801e-07 0)
(0.001 -2.90685e-09 0)
(0.000999999 -8.9034e-09 0)
(0.000999998 -1.52025e-08 0)
(0.000999996 -2.22612e-08 0)
(0.000999994 -2.99677e-08 0)
(0.000999991 -3.89821e-08 0)
(0.000999987 -4.87366e-08 0)
(0.000999982 -6.04991e-08 0)
(0.000999977 -7.29114e-08 0)
(0.000999969 -8.86479e-08 0)
(0.000999962 -1.04481e-07 0)
(0.000999951 -1.26348e-07 0)
(0.000999941 -1.46288e-07 0)
(0.000999925 -1.77816e-07 0)
(0.000999913 -2.01831e-07 0)
(0.000999891 -2.49209e-07 0)
(0.000999878 -2.74743e-07 0)
(0.000999847 -3.49535e-07 0)
(0.000999839 -3.67233e-07 0)
(0.000999792 -4.92043e-07 0)
(0.001 -2.57271e-09 0)
(0.000999999 -7.56019e-09 0)
(0.000999997 -1.22605e-08 0)
(0.000999995 -1.70039e-08 0)
(0.000999991 -2.17711e-08 0)
(0.000999987 -2.73188e-08 0)
(0.000999982 -3.32425e-08 0)
(0.000999975 -4.08633e-08 0)
(0.000999968 -4.8968e-08 0)
(0.000999959 -6.01565e-08 0)
(0.000999949 -7.12783e-08 0)
(0.000999935 -8.82314e-08 0)
(0.000999922 -1.03178e-07 0)
(0.000999903 -1.29457e-07 0)
(0.000999886 -1.48365e-07 0)
(0.000999859 -1.90332e-07 0)
(0.000999841 -2.11085e-07 0)
(0.000999802 -2.80579e-07 0)
(0.000999787 -2.94624e-07 0)
(0.000999731 -4.14964e-07 0)
(0.001 -2.90096e-09 0)
(0.001 -9.24465e-09 0)
(0.000999999 -1.63344e-08 0)
(0.000999997 -2.4378e-08 0)
(0.000999994 -3.30891e-08 0)
(0.00099999 -4.2758e-08 0)
(0.000999984 -5.28953e-08 0)
(0.000999977 -6.45151e-08 0)
(0.000999969 -7.64702e-08 0)
(0.000999958 -9.12527e-08 0)
(0.000999946 -1.05615e-07 0)
(0.00099993 -1.25386e-07 0)
(0.000999915 -1.42718e-07 0)
(0.000999891 -1.70898e-07 0)
(0.000999872 -1.91211e-07 0)
(0.000999837 -2.34301e-07 0)
(0.000999817 -2.55796e-07 0)
(0.000999764 -3.26513e-07 0)
(0.000999752 -3.41527e-07 0)
(0.00099967 -4.64238e-07 0)
(0.001 -1.47773e-10 0)
(0.000999998 -6.34006e-11 0)
(0.000999995 5.63443e-10 0)
(0.000999991 1.28559e-09 0)
(0.000999986 1.93407e-09 0)
(0.00099998 1.89684e-09 0)
(0.000999973 1.44126e-09 0)
(0.000999965 -3.5733e-10 0)
(0.000999955 -2.37618e-09 0)
(0.000999943 -7.09298e-09 0)
(0.00099993 -1.12478e-08 0)
(0.000999912 -2.04913e-08 0)
(0.000999894 -2.71846e-08 0)
(0.000999867 -4.42725e-08 0)
(0.000999845 -5.35551e-08 0)
(0.000999805 -8.49854e-08 0)
(0.000999779 -9.55159e-08 0)
(0.00099972 -1.54676e-07 0)
(0.000999698 -1.60984e-07 0)
(0.000999611 -2.75789e-07 0)
(0.001 -3.97421e-09 0)
(0.001 -1.30337e-08 0)
(0.001 -2.30753e-08 0)
(0.000999998 -3.36954e-08 0)
(0.000999995 -4.4221e-08 0)
(0.000999989 -5.5031e-08 0)
(0.000999983 -6.57306e-08 0)
(0.000999974 -7.73688e-08 0)
(0.000999963 -8.88492e-08 0)
(0.000999949 -1.02507e-07 0)
(0.000999936 -1.15253e-07 0)
(0.000999915 -1.32402e-07 0)
(0.000999896 -1.46518e-07 0)
(0.000999864 -1.70034e-07 0)
(0.000999841 -1.85165e-07 0)
(0.000999791 -2.21148e-07 0)
(0.000999767 -2.35727e-07 0)
(0.000999687 -2.97572e-07 0)
(0.000999671 -3.06238e-07 0)
(0.000999539 -4.22081e-07 0)
(0.001 3.96496e-09 0)
(0.000999996 1.21083e-08 0)
(0.000999991 2.02619e-08 0)
(0.000999987 2.79172e-08 0)
(0.000999982 3.51569e-08 0)
(0.000999976 4.15831e-08 0)
(0.000999969 4.78674e-08 0)
(0.000999959 5.29755e-08 0)
(0.000999948 5.83829e-08 0)
(0.000999934 6.23646e-08 0)
(0.000999919 6.7019e-08 0)
(0.000999897 6.86099e-08 0)
(0.000999878 7.26813e-08 0)
(0.000999845 6.98651e-08 0)
(0.000999819 7.40125e-08 0)
(0.000999767 6.17029e-08 0)
(0.000999738 6.71839e-08 0)
(0.000999654 3.18389e-08 0)
(0.000999629 3.99096e-08 0)
(0.000999495 -5.4456e-08 0)
(0.001 -8.74081e-09 0)
(0.001 -2.37654e-08 0)
(0.001 -3.60032e-08 0)
(0.000999997 -4.67727e-08 0)
(0.000999993 -5.69592e-08 0)
(0.000999986 -6.75146e-08 0)
(0.000999979 -7.79272e-08 0)
(0.000999968 -8.9308e-08 0)
(0.000999958 -1.00007e-07 0)
(0.000999942 -1.11907e-07 0)
(0.000999928 -1.22644e-07 0)
(0.000999903 -1.36178e-07 0)
(0.000999886 -1.46575e-07 0)
(0.000999846 -1.63412e-07 0)
(0.000999826 -1.72249e-07 0)
(0.00099976 -1.9638e-07 0)
(0.000999742 -2.00884e-07 0)
(0.000999623 -2.43121e-07 0)
(0.000999618 -2.39255e-07 0)
(0.000999394 -3.31964e-07 0)
)
;

boundaryField
{
    sides
    {
        type            slip;
    }
    inlet
    {
        type            fixedValue;
        value           uniform (0.001 0 0);
    }
    outlet
    {
        type            zeroGradient;
    }
    frontAndBack
    {
        type            empty;
    }
}


// ************************************************************************* //
