/*--------------------------------*- C++ -*----------------------------------*\
  =========                 |
  \\      /  F ield         | OpenFOAM: The Open Source CFD Toolbox
   \\    /   O peration     | Website:  https://openfoam.org
    \\  /    A nd           | Version:  7
     \\/     M anipulation  |
\*---------------------------------------------------------------------------*/
FoamFile
{
    version     2.0;
    format      ascii;
    class       volScalarField;
    location    "40";
    object      ddt0(h);
}
// * * * * * * * * * * * * * * * * * * * * * * * * * * * * * * * * * * * * * //

dimensions      [0 1 -1 0 0 0 0];

internalField   nonuniform List<scalar> 
400
(
-5.04182e-09
-8.74812e-09
-1.00086e-08
-1.72091e-08
-8.50938e-09
-1.3995e-08
-1.3671e-08
-1.69066e-08
-1.94512e-08
-1.18569e-08
-9.09104e-09
-8.85025e-09
-7.55385e-09
-4.98184e-09
-2.66964e-09
-1.4518e-09
-9.95138e-10
-5.76656e-10
-3.39857e-11
8.88151e-11
-5.1194e-09
-9.62235e-09
-1.16138e-08
-1.23148e-08
-1.58643e-08
-1.85989e-08
-9.91804e-09
-1.43855e-08
-9.12194e-09
-9.28143e-09
-8.96326e-09
-7.79676e-09
-5.86996e-09
-3.9141e-09
-2.50009e-09
-1.63189e-09
-1.00809e-09
-4.24344e-10
4.32111e-11
9.50747e-11
-4.00914e-09
-5.73942e-09
-9.67975e-09
-8.20923e-09
-1.50589e-08
-8.66023e-09
-1.91928e-08
-1.1737e-08
-8.00202e-09
-9.15512e-09
-9.34057e-09
-7.11421e-09
-4.67385e-09
-3.27098e-09
-2.76118e-09
-2.33766e-09
-1.56806e-09
-7.49209e-10
-3.68342e-10
-1.83221e-10
-6.79817e-09
-8.07578e-09
-1.09503e-08
-9.87598e-09
-1.18609e-08
-1.0427e-08
-9.54572e-09
-7.88785e-09
-7.73478e-09
-8.92878e-09
-7.86627e-09
-5.51135e-09
-3.78284e-09
-3.13926e-09
-2.94422e-09
-2.47944e-09
-1.40441e-09
-4.59931e-10
-3.30145e-10
-2.58885e-10
-5.06754e-09
-5.06941e-09
-6.72463e-09
-6.639e-09
-6.39925e-09
-6.88128e-09
-7.0229e-09
-6.153e-09
-6.48264e-09
-6.80742e-09
-5.18618e-09
-3.508e-09
-3.0347e-09
-3.16827e-09
-3.08195e-09
-2.50617e-09
-1.45471e-09
-6.5432e-10
-6.07951e-10
-3.90779e-10
-5.29383e-09
-5.62316e-09
-6.45988e-09
-6.79628e-09
-5.9979e-09
-5.67272e-09
-6.14009e-09
-4.66371e-09
-5.80725e-09
-4.95516e-09
-3.37751e-09
-3.00596e-09
-3.33138e-09
-3.4743e-09
-2.98063e-09
-2.09202e-09
-1.29703e-09
-8.09711e-10
-5.87543e-10
-2.71782e-10
-3.86981e-09
-4.37442e-09
-4.15619e-09
-4.53298e-09
-3.2575e-09
-4.0543e-09
-3.06269e-09
-3.32682e-09
-3.48403e-09
-2.19034e-09
-2.1677e-09
-2.80692e-09
-3.10454e-09
-2.88903e-09
-2.2104e-09
-1.49544e-09
-1.37826e-09
-1.30602e-09
-8.15509e-10
-2.59275e-10
-2.44169e-09
-2.95446e-09
-2.98785e-09
-3.00419e-09
-2.60761e-09
-2.78296e-09
-2.07539e-09
-2.37081e-09
-1.43845e-09
-1.36893e-09
-1.89545e-09
-2.20513e-09
-2.31825e-09
-2.01843e-09
-1.39706e-09
-9.58496e-10
-1.31247e-09
-1.46788e-09
-8.54086e-10
-2.20515e-10
-1.3976e-09
-1.31784e-09
-1.8957e-09
-1.55324e-09
-1.8966e-09
-1.46332e-09
-1.44316e-09
-1.27238e-09
-7.32558e-10
-1.09103e-09
-9.56438e-10
-1.07243e-09
-1.23247e-09
-9.62676e-10
-7.44942e-10
-7.16314e-10
-1.05542e-09
-1.15447e-09
-6.03541e-10
-1.20531e-10
-4.4694e-10
-2.9332e-10
-5.91995e-10
-4.57079e-10
-6.4932e-10
-3.91502e-10
-5.31254e-10
-3.8453e-10
-4.04538e-10
-2.08909e-10
1.18581e-10
-3.06765e-11
7.93694e-11
1.41556e-10
-3.7615e-10
-6.90391e-10
-5.71368e-10
-4.08235e-10
-3.87485e-11
1.30006e-10
5.66568e-10
3.67516e-10
6.30734e-10
3.81897e-10
6.69042e-10
5.19872e-10
6.10403e-10
4.57742e-10
1.18244e-10
5.69295e-10
5.29011e-10
4.81997e-10
7.70411e-10
7.65338e-10
2.79782e-10
-1.79029e-11
2.81846e-10
4.44525e-10
4.49494e-10
2.40218e-10
1.41444e-09
1.38041e-09
1.77577e-09
1.67419e-09
1.70995e-09
1.59299e-09
1.33839e-09
1.25241e-09
6.81875e-10
8.20586e-10
1.02307e-09
1.16257e-09
1.14912e-09
1.16783e-09
1.175e-09
9.27001e-10
9.59784e-10
9.32989e-10
6.16628e-10
2.37494e-10
2.32145e-09
2.82552e-09
3.12069e-09
3.03221e-09
2.59404e-09
2.63909e-09
2.17888e-09
2.08563e-09
1.81323e-09
9.18426e-10
1.14422e-09
1.80961e-09
1.6598e-09
1.52063e-09
1.84411e-09
1.74126e-09
1.44876e-09
1.16945e-09
5.77635e-10
1.00672e-10
3.58518e-09
4.41255e-09
4.31675e-09
4.41356e-09
3.63625e-09
3.48557e-09
3.3625e-09
3.22631e-09
3.49929e-09
2.38515e-09
1.58135e-09
2.11053e-09
2.2935e-09
1.93726e-09
2.07178e-09
2.1683e-09
1.70937e-09
1.17389e-09
5.54401e-10
9.90672e-11
5.14354e-09
5.66491e-09
6.47052e-09
7.05394e-09
5.52192e-09
6.16764e-09
5.03982e-09
4.99229e-09
5.54759e-09
4.97096e-09
3.53758e-09
3.02788e-09
3.01178e-09
2.46559e-09
2.17135e-09
2.22465e-09
1.69283e-09
9.34823e-10
4.62259e-10
1.57245e-10
5.06135e-09
5.09704e-09
6.70263e-09
6.32574e-09
6.73068e-09
5.99098e-09
7.69712e-09
4.56339e-09
6.16223e-09
6.90633e-09
5.50991e-09
4.07453e-09
3.5178e-09
2.78284e-09
2.11672e-09
2.01004e-09
1.66579e-09
9.76429e-10
5.70305e-10
2.63946e-10
7.23254e-09
7.84719e-09
1.06604e-08
9.70114e-09
1.22066e-08
9.18506e-09
1.46614e-08
1.07595e-08
6.47014e-09
8.3095e-09
7.98993e-09
6.13427e-09
4.74803e-09
3.65845e-09
2.48113e-09
1.71902e-09
1.30163e-09
8.13751e-10
4.10901e-10
1.65351e-10
4.88906e-09
5.18844e-09
8.7605e-09
8.67686e-09
1.4637e-08
1.2741e-08
1.26008e-08
1.79545e-08
1.01929e-08
8.60456e-09
8.97011e-09
7.5261e-09
5.72306e-09
4.31494e-09
2.93298e-09
1.76581e-09
1.24144e-09
9.18351e-10
5.33438e-10
1.9682e-10
5.31447e-09
9.6675e-09
1.1222e-08
1.28877e-08
1.49961e-08
1.23091e-08
1.47338e-08
-1.09951e-09
1.18778e-08
9.71548e-09
8.81382e-09
7.67751e-09
5.80609e-09
4.25816e-09
2.93124e-09
1.60682e-09
7.34997e-10
3.08337e-10
2.99577e-11
-3.1765e-11
3.90825e-09
9.33666e-09
1.13969e-08
1.64426e-08
9.40426e-09
1.83032e-08
1.03888e-08
2.48995e-08
1.62885e-08
1.26228e-08
9.58895e-09
7.83896e-09
6.06376e-09
4.70604e-09
3.54644e-09
2.09213e-09
8.93036e-10
2.43891e-10
-6.75971e-11
-5.57846e-11
)
;

boundaryField
{
    sides
    {
        type            calculated;
        value           nonuniform List<scalar> 
40
(
3.90825e-09
9.33666e-09
1.13969e-08
1.64426e-08
9.40426e-09
1.83032e-08
1.03888e-08
2.48995e-08
1.62885e-08
1.26228e-08
9.58895e-09
7.83896e-09
6.06376e-09
4.70604e-09
3.54644e-09
2.09213e-09
8.93036e-10
2.43891e-10
-6.75971e-11
-5.57846e-11
-5.04182e-09
-8.74812e-09
-1.00086e-08
-1.72091e-08
-8.50938e-09
-1.3995e-08
-1.3671e-08
-1.69066e-08
-1.94512e-08
-1.18569e-08
-9.09104e-09
-8.85025e-09
-7.55385e-09
-4.98184e-09
-2.66964e-09
-1.4518e-09
-9.95138e-10
-5.76656e-10
-3.39857e-11
8.88151e-11
)
;
    }
    inlet
    {
        type            calculated;
        value           nonuniform List<scalar> 
20
(
-5.04182e-09
-5.1194e-09
-4.00914e-09
-6.79817e-09
-5.06754e-09
-5.29383e-09
-3.86981e-09
-2.44169e-09
-1.3976e-09
-4.4694e-10
5.66568e-10
1.41444e-09
2.32145e-09
3.58518e-09
5.14354e-09
5.06135e-09
7.23254e-09
4.88906e-09
5.31447e-09
3.90825e-09
)
;
    }
    outlet
    {
        type            calculated;
        value           uniform 0;
    }
    frontAndBack
    {
        type            empty;
    }
}


// ************************************************************************* //
