/*--------------------------------*- C++ -*----------------------------------*\
  =========                 |
  \\      /  F ield         | OpenFOAM: The Open Source CFD Toolbox
   \\    /   O peration     | Website:  https://openfoam.org
    \\  /    A nd           | Version:  7
     \\/     M anipulation  |
\*---------------------------------------------------------------------------*/
FoamFile
{
    version     2.0;
    format      ascii;
    class       surfaceScalarField;
    location    "40";
    object      phi;
}
// * * * * * * * * * * * * * * * * * * * * * * * * * * * * * * * * * * * * * //

dimensions      [0 4 -1 0 0 0 0];

internalField   nonuniform List<scalar> 
760
(
4.99999e-06
1.17702e-11
4.99999e-06
-9.87945e-13
5.00001e-06
-8.02617e-12
5.00002e-06
-1.4244e-11
5.00005e-06
-2.18089e-11
5.00008e-06
-3.03516e-11
5.00013e-06
-4.59599e-11
5.00018e-06
-5.64778e-11
5.00025e-06
-6.38757e-11
5.00033e-06
-7.93404e-11
5.00043e-06
-9.10032e-11
5.00054e-06
-1.1377e-10
5.00067e-06
-1.2468e-10
5.00083e-06
-1.63244e-10
5.00101e-06
-1.72213e-10
5.00126e-06
-2.50171e-10
5.00151e-06
-2.51975e-10
5.00194e-06
-4.29591e-10
5.00236e-06
-4.1719e-10
-8.9811e-10
5.00002e-06
-9.5988e-12
5.00004e-06
-1.23757e-11
5.00005e-06
-1.83846e-11
5.00007e-06
-3.03979e-11
5.0001e-06
-4.43815e-11
5.00013e-06
-6.20946e-11
5.00018e-06
-8.18806e-11
5.00023e-06
-1.04674e-10
5.0003e-06
-1.26095e-10
5.00038e-06
-1.56992e-10
5.00047e-06
-1.80199e-10
5.00058e-06
-2.22686e-10
5.0007e-06
-2.46486e-10
5.00085e-06
-3.15118e-10
5.00102e-06
-3.41688e-10
5.00125e-06
-4.72033e-10
5.0015e-06
-5.0019e-10
5.00183e-06
-7.63364e-10
5.00218e-06
-7.65637e-10
-1.27407e-09
4.99999e-06
4.82071e-13
4.99999e-06
-1.16873e-11
5e-06
-2.45111e-11
5.00002e-06
-4.12073e-11
5.00004e-06
-6.22061e-11
5.00007e-06
-8.87588e-11
5.00011e-06
-1.17656e-10
5.00016e-06
-1.52322e-10
5.00022e-06
-1.85962e-10
5.0003e-06
-2.29337e-10
5.00038e-06
-2.66719e-10
5.00049e-06
-3.23777e-10
5.00061e-06
-3.65889e-10
5.00075e-06
-4.53798e-10
5.00091e-06
-5.07441e-10
5.00111e-06
-6.65694e-10
5.00134e-06
-7.34562e-10
5.00161e-06
-1.03423e-09
5.00194e-06
-1.0926e-09
-1.70917e-09
5.00001e-06
-7.6523e-12
5.00002e-06
-2.07799e-11
5.00004e-06
-3.61594e-11
5.00005e-06
-5.66884e-11
5.00008e-06
-8.2927e-11
5.00011e-06
-1.17365e-10
5.00015e-06
-1.54394e-10
5.0002e-06
-1.98937e-10
5.00026e-06
-2.42036e-10
5.00033e-06
-2.97009e-10
5.00041e-06
-3.4476e-10
5.0005e-06
-4.16417e-10
5.00061e-06
-4.70738e-10
5.00073e-06
-5.78544e-10
5.00087e-06
-6.4861e-10
5.00105e-06
-8.37131e-10
5.00124e-06
-9.28791e-10
5.00148e-06
-1.27055e-09
5.00173e-06
-1.34251e-09
-1.92201e-09
5e-06
-5.89976e-12
5e-06
-2.18955e-11
5.00001e-06
-4.15041e-11
5.00002e-06
-6.70705e-11
5.00004e-06
-9.90371e-11
5.00006e-06
-1.39664e-10
5.0001e-06
-1.84618e-10
5.00014e-06
-2.3745e-10
5.00019e-06
-2.90054e-10
5.00024e-06
-3.54647e-10
5.00032e-06
-4.13885e-10
5.0004e-06
-4.96959e-10
5.00049e-06
-5.6567e-10
5.0006e-06
-6.86829e-10
5.00073e-06
-7.7559e-10
5.00087e-06
-9.79913e-10
5.00104e-06
-1.09536e-09
5.00122e-06
-1.45049e-09
5.00142e-06
-1.54624e-09
-2.19202e-09
5e-06
-8.03675e-12
5.00001e-06
-2.64549e-11
5.00002e-06
-4.87222e-11
5.00003e-06
-7.79952e-11
5.00005e-06
-1.14791e-10
5.00007e-06
-1.61551e-10
5.0001e-06
-2.13249e-10
5.00014e-06
-2.73763e-10
5.00019e-06
-3.33881e-10
5.00024e-06
-4.0681e-10
5.0003e-06
-4.73742e-10
5.00037e-06
-5.65746e-10
5.00045e-06
-6.42434e-10
5.00054e-06
-7.74731e-10
5.00064e-06
-8.7446e-10
5.00075e-06
-1.09501e-09
5.00088e-06
-1.22573e-09
5.00103e-06
-1.60285e-09
5.0012e-06
-1.7136e-09
-2.32786e-09
5e-06
-9.54841e-12
5.00001e-06
-2.95953e-11
5.00001e-06
-5.40497e-11
5.00002e-06
-8.64683e-11
5.00004e-06
-1.26909e-10
5.00005e-06
-1.77891e-10
5.00008e-06
-2.34347e-10
5.0001e-06
-3.00078e-10
5.00014e-06
-3.65939e-10
5.00017e-06
-4.45348e-10
5.00022e-06
-5.19736e-10
5.00028e-06
-6.19429e-10
5.00034e-06
-7.04887e-10
5.00041e-06
-8.45771e-10
5.00049e-06
-9.55856e-10
5.00058e-06
-1.1857e-09
5.00069e-06
-1.32797e-09
5.0008e-06
-1.71177e-09
5.00091e-06
-1.82826e-09
-2.47832e-09
5e-06
-1.06613e-11
5e-06
-3.18654e-11
5.00001e-06
-5.77544e-11
5.00002e-06
-9.22548e-11
5.00003e-06
-1.35592e-10
5.00004e-06
-1.89928e-10
5.00005e-06
-2.50541e-10
5.00008e-06
-3.20859e-10
5.0001e-06
-3.91439e-10
5.00013e-06
-4.75735e-10
5.00017e-06
-5.54683e-10
5.00021e-06
-6.59156e-10
5.00025e-06
-7.49214e-10
5.0003e-06
-8.95463e-10
5.00036e-06
-1.01139e-09
5.00042e-06
-1.24838e-09
5.00049e-06
-1.39858e-09
5.00057e-06
-1.79147e-09
5.00066e-06
-1.91884e-09
-2.55606e-09
5e-06
-1.13872e-11
5e-06
-3.3181e-11
5.00001e-06
-5.9923e-11
5.00001e-06
-9.594e-11
5.00002e-06
-1.41292e-10
5.00002e-06
-1.97826e-10
5.00003e-06
-2.60762e-10
5.00005e-06
-3.33467e-10
5.00006e-06
-4.06503e-10
5.00008e-06
-4.93235e-10
5.0001e-06
-5.74755e-10
5.00012e-06
-6.8224e-10
5.00015e-06
-7.75776e-10
5.00018e-06
-9.25874e-10
5.00022e-06
-1.04604e-09
5.00026e-06
-1.28723e-09
5.0003e-06
-1.44174e-09
5.00035e-06
-1.83815e-09
5.00039e-06
-1.96596e-09
-2.61281e-09
5e-06
-1.16305e-11
5e-06
-3.36265e-11
5e-06
-6.0714e-11
5e-06
-9.73377e-11
5.00001e-06
-1.43334e-10
5.00001e-06
-2.00452e-10
5.00001e-06
-2.63929e-10
5.00002e-06
-3.37293e-10
5.00002e-06
-4.11267e-10
5.00003e-06
-4.99206e-10
5.00003e-06
-5.82078e-10
5.00004e-06
-6.90777e-10
5.00005e-06
-7.85212e-10
5.00006e-06
-9.35979e-10
5.00007e-06
-1.05693e-09
5.00008e-06
-1.299e-09
5.0001e-06
-1.45515e-09
5.00011e-06
-1.85281e-09
5.00013e-06
-1.98406e-09
-2.62988e-09
5e-06
-1.14071e-11
5e-06
-3.32063e-11
5e-06
-5.99171e-11
5e-06
-9.59494e-11
4.99999e-06
-1.41299e-10
4.99999e-06
-1.97864e-10
4.99999e-06
-2.60792e-10
4.99998e-06
-3.33509e-10
4.99998e-06
-4.06507e-10
4.99997e-06
-4.93241e-10
4.99997e-06
-5.74817e-10
4.99996e-06
-6.82326e-10
4.99995e-06
-7.75901e-10
4.99994e-06
-9.26006e-10
4.99993e-06
-1.04613e-09
4.99992e-06
-1.28723e-09
4.9999e-06
-1.44169e-09
4.99989e-06
-1.83806e-09
4.99987e-06
-1.96596e-09
-2.61271e-09
5e-06
-1.06929e-11
5e-06
-3.18731e-11
4.99999e-06
-5.77475e-11
4.99999e-06
-9.2269e-11
4.99998e-06
-1.35592e-10
4.99998e-06
-1.89964e-10
4.99997e-06
-2.50564e-10
4.99995e-06
-3.20881e-10
4.99994e-06
-3.91443e-10
4.99992e-06
-4.75705e-10
4.9999e-06
-5.54708e-10
4.99988e-06
-6.59235e-10
4.99985e-06
-7.49337e-10
4.99982e-06
-8.95575e-10
4.99978e-06
-1.01149e-09
4.99974e-06
-1.2484e-09
4.9997e-06
-1.39854e-09
4.99965e-06
-1.79132e-09
4.99961e-06
-1.91877e-09
-2.55589e-09
5e-06
-9.55051e-12
5e-06
-2.95883e-11
4.99999e-06
-5.40711e-11
4.99998e-06
-8.64619e-11
4.99997e-06
-1.26927e-10
4.99996e-06
-1.77867e-10
4.99995e-06
-2.34362e-10
4.99992e-06
-3.00039e-10
4.9999e-06
-3.65938e-10
4.99987e-06
-4.45317e-10
4.99983e-06
-5.19675e-10
4.99979e-06
-6.1939e-10
4.99975e-06
-7.04894e-10
4.9997e-06
-8.45766e-10
4.99964e-06
-9.55897e-10
4.99958e-06
-1.1857e-09
4.99951e-06
-1.32796e-09
4.99943e-06
-1.7116e-09
4.99934e-06
-1.82815e-09
-2.47797e-09
5e-06
-8.00489e-12
4.99999e-06
-2.64541e-11
4.99999e-06
-4.87296e-11
4.99998e-06
-7.80128e-11
4.99996e-06
-1.14782e-10
4.99995e-06
-1.6151e-10
4.99992e-06
-2.13176e-10
4.9999e-06
-2.7371e-10
4.99986e-06
-3.33831e-10
4.99983e-06
-4.0679e-10
4.99978e-06
-4.73677e-10
4.99972e-06
-5.6561e-10
4.99966e-06
-6.42291e-10
4.99959e-06
-7.7458e-10
4.99951e-06
-8.74394e-10
4.99942e-06
-1.09493e-09
4.99931e-06
-1.22571e-09
4.9992e-06
-1.60266e-09
4.99909e-06
-1.71342e-09
-2.32743e-09
5e-06
-5.86811e-12
4.99999e-06
-2.18908e-11
4.99998e-06
-4.1519e-11
4.99997e-06
-6.7063e-11
4.99995e-06
-9.89975e-11
4.99993e-06
-1.39638e-10
4.9999e-06
-1.84438e-10
4.99986e-06
-2.37287e-10
4.99981e-06
-2.90003e-10
4.99976e-06
-3.54618e-10
4.9997e-06
-4.13864e-10
4.99963e-06
-4.96863e-10
4.99955e-06
-5.65532e-10
4.99946e-06
-6.86633e-10
4.99936e-06
-7.75468e-10
4.99925e-06
-9.79761e-10
4.99912e-06
-1.09531e-09
4.99897e-06
-1.45028e-09
4.9988e-06
-1.54609e-09
-2.19153e-09
5e-06
-7.64074e-12
5e-06
-2.07806e-11
4.99999e-06
-3.61461e-11
4.99998e-06
-5.66443e-11
4.99996e-06
-8.2923e-11
4.99994e-06
-1.17148e-10
4.9999e-06
-1.54676e-10
4.99986e-06
-1.98807e-10
4.99981e-06
-2.41869e-10
4.99976e-06
-2.96949e-10
4.99968e-06
-3.44763e-10
4.9996e-06
-4.16374e-10
4.99951e-06
-4.70663e-10
4.9994e-06
-5.78362e-10
4.99927e-06
-6.48455e-10
4.99913e-06
-8.36903e-10
4.99896e-06
-9.28687e-10
4.99878e-06
-1.27027e-09
4.99858e-06
-1.34233e-09
-1.92147e-09
4.99999e-06
4.61268e-13
4.99998e-06
-1.16887e-11
4.99996e-06
-2.44887e-11
4.99995e-06
-4.11923e-11
4.99992e-06
-6.21977e-11
4.99989e-06
-8.89302e-11
4.99985e-06
-1.18143e-10
4.9998e-06
-1.52926e-10
4.99974e-06
-1.86051e-10
4.99967e-06
-2.29288e-10
4.99959e-06
-2.66747e-10
4.9995e-06
-3.23825e-10
4.99939e-06
-3.65959e-10
4.99927e-06
-4.53766e-10
4.99913e-06
-5.07408e-10
4.99896e-06
-6.65539e-10
4.99876e-06
-7.34523e-10
4.99852e-06
-1.03401e-09
4.99827e-06
-1.09252e-09
-1.70876e-09
5.00001e-06
-9.6102e-12
5.00001e-06
-1.23484e-11
5e-06
-1.83338e-11
4.99998e-06
-3.0448e-11
4.99996e-06
-4.44372e-11
4.99993e-06
-6.26534e-11
4.99989e-06
-8.07493e-11
4.99984e-06
-1.04689e-10
4.99978e-06
-1.26375e-10
4.9997e-06
-1.57028e-10
4.99962e-06
-1.80201e-10
4.99951e-06
-2.22688e-10
4.99939e-06
-2.46588e-10
4.99925e-06
-3.15155e-10
4.99909e-06
-3.4175e-10
4.99889e-06
-4.719e-10
4.99866e-06
-5.00172e-10
4.99839e-06
-7.63094e-10
4.99806e-06
-7.65526e-10
-1.27357e-09
4.99998e-06
1.17403e-11
4.99996e-06
-9.38398e-13
4.99995e-06
-8.04258e-12
4.99993e-06
-1.43756e-11
4.9999e-06
-2.19051e-11
4.99987e-06
-3.28324e-11
4.99982e-06
-3.46406e-11
4.99977e-06
-5.83663e-11
4.9997e-06
-6.41167e-11
4.99962e-06
-7.96056e-11
4.99953e-06
-9.11785e-11
4.99942e-06
-1.13891e-10
4.9993e-06
-1.24866e-10
4.99915e-06
-1.63429e-10
4.99898e-06
-1.72387e-10
4.99875e-06
-2.50228e-10
4.99851e-06
-2.52065e-10
4.99817e-06
-4.29595e-10
4.99782e-06
-4.17271e-10
-8.98104e-10
5.00001e-06
5.00001e-06
4.99999e-06
4.99998e-06
4.99995e-06
4.99992e-06
4.99987e-06
4.99981e-06
4.99975e-06
4.99967e-06
4.99957e-06
4.99946e-06
4.99933e-06
4.99917e-06
4.99899e-06
4.99874e-06
4.99849e-06
4.99806e-06
4.99764e-06
)
;

boundaryField
{
    sides
    {
        type            calculated;
        value           uniform 0;
    }
    inlet
    {
        type            calculated;
        value           nonuniform List<scalar> 
20
(
-5e-06
-5e-06
-5e-06
-5e-06
-5e-06
-5e-06
-5e-06
-5e-06
-5e-06
-5e-06
-5e-06
-5e-06
-5e-06
-5e-06
-5e-06
-5e-06
-5e-06
-5e-06
-5e-06
-5e-06
)
;
    }
    outlet
    {
        type            calculated;
        value           nonuniform List<scalar> 
20
(
5.00325e-06
5.00255e-06
5.00238e-06
5.00194e-06
5.00169e-06
5.00134e-06
5.00106e-06
5.00074e-06
5.00045e-06
5.00015e-06
4.99985e-06
4.99955e-06
4.99926e-06
4.99894e-06
4.99866e-06
4.99831e-06
4.99806e-06
4.99762e-06
4.99745e-06
4.99674e-06
)
;
    }
    frontAndBack
    {
        type            empty;
        value           nonuniform 0();
    }
}


// ************************************************************************* //
