/*--------------------------------*- C++ -*----------------------------------*\
  =========                 |
  \\      /  F ield         | OpenFOAM: The Open Source CFD Toolbox
   \\    /   O peration     | Website:  https://openfoam.org
    \\  /    A nd           | Version:  7
     \\/     M anipulation  |
\*---------------------------------------------------------------------------*/
FoamFile
{
    version     2.0;
    format      ascii;
    class       volScalarField;
    location    "4";
    object      ddt0(h);
}
// * * * * * * * * * * * * * * * * * * * * * * * * * * * * * * * * * * * * * //

dimensions      [0 1 -1 0 0 0 0];

internalField   nonuniform List<scalar> 
400
(
7.05152e-09
-4.15185e-08
-1.32545e-07
-2.00144e-07
-3.4678e-07
-4.28836e-07
-4.82137e-07
-5.53248e-07
-6.05168e-07
-6.55031e-07
-6.94728e-07
-7.07982e-07
-6.97225e-07
-6.59389e-07
-5.74345e-07
-4.45594e-07
-3.06132e-07
-1.77692e-07
-7.81142e-08
-1.75852e-08
4.33972e-08
-2.15883e-08
-9.33233e-08
-1.9554e-07
-2.41855e-07
-2.77258e-07
-3.21062e-07
-4.38476e-07
-5.34398e-07
-5.48077e-07
-5.55616e-07
-5.46353e-07
-5.10639e-07
-4.38328e-07
-3.53468e-07
-2.63936e-07
-1.63487e-07
-8.86229e-08
-3.40764e-08
-7.42639e-09
3.16397e-08
-6.665e-09
-3.95827e-08
-1.65591e-07
-1.5457e-07
-3.39383e-07
-4.3099e-07
-3.51748e-07
-3.60104e-07
-4.08801e-07
-4.3453e-07
-4.33889e-07
-4.07914e-07
-3.55787e-07
-2.65108e-07
-1.68787e-07
-9.15422e-08
-4.15909e-08
-1.66268e-08
-3.89796e-09
3.29831e-08
3.30765e-08
-3.44647e-08
-1.18362e-08
-2.6313e-07
-7.69701e-08
-2.67863e-07
-3.75312e-07
-3.85148e-07
-3.77721e-07
-3.48993e-07
-2.94017e-07
-2.2809e-07
-1.62022e-07
-9.99372e-08
-5.24724e-08
-2.30343e-08
-1.5711e-08
-1.5042e-08
-8.40991e-09
4.00922e-08
1.70171e-08
2.52371e-08
-1.14237e-07
-4.14248e-08
-3.27357e-07
-1.58767e-07
-2.12347e-07
-2.36261e-07
-2.2259e-07
-1.88179e-07
-1.45681e-07
-1.02142e-07
-6.77572e-08
-4.07167e-08
-2.41487e-08
-1.60524e-08
-1.81632e-08
-2.04167e-08
-9.91733e-09
4.1172e-08
4.41592e-08
-9.86015e-11
-8.74149e-09
-1.13055e-07
-1.06562e-07
-2.12943e-07
-2.16361e-07
-2.05626e-07
-1.70859e-07
-1.26691e-07
-9.158e-08
-6.86405e-08
-5.91072e-08
-5.14027e-08
-4.08765e-08
-3.1661e-08
-2.5916e-08
-2.42231e-08
-1.11481e-08
4.23828e-08
4.19898e-08
2.33705e-08
-4.55441e-09
-5.91376e-08
-1.28002e-07
-1.71126e-07
-1.66168e-07
-1.37873e-07
-9.74984e-08
-6.13025e-08
-4.54554e-08
-4.33655e-08
-4.58002e-08
-4.56886e-08
-3.59278e-08
-2.50207e-08
-1.9056e-08
-1.83903e-08
-8.98506e-09
2.90486e-08
3.07214e-08
1.95143e-08
-7.23919e-09
-5.24048e-08
-1.11381e-07
-1.39658e-07
-1.21797e-07
-8.31282e-08
-4.97478e-08
-3.09868e-08
-2.93432e-08
-3.51867e-08
-3.64465e-08
-3.36866e-08
-2.7321e-08
-2.15636e-08
-2.06595e-08
-2.09896e-08
-1.01075e-08
1.80942e-08
1.54418e-08
1.04023e-08
-5.63178e-09
-3.75064e-08
-7.56238e-08
-9.28568e-08
-7.40432e-08
-4.19425e-08
-2.45014e-08
-2.18939e-08
-2.32321e-08
-2.55621e-08
-2.60113e-08
-2.44962e-08
-2.19958e-08
-1.91333e-08
-1.7993e-08
-1.67483e-08
-7.66692e-09
5.44002e-09
3.81993e-09
2.80544e-09
-2.52328e-09
-1.35064e-08
-2.63832e-08
-3.26075e-08
-2.5e-08
-1.28587e-08
-8.4683e-09
-1.00692e-08
-1.03978e-08
-9.79824e-09
-1.00829e-08
-1.07159e-08
-1.05176e-08
-8.86832e-09
-6.90012e-09
-5.35137e-09
-2.31365e-09
-5.37205e-09
-3.75219e-09
-2.74601e-09
2.57699e-09
1.3557e-08
2.64465e-08
3.27197e-08
2.51778e-08
1.30815e-08
8.7009e-09
1.02945e-08
1.06144e-08
1.00063e-08
1.0276e-08
1.08823e-08
1.06464e-08
8.95793e-09
6.95926e-09
5.38619e-09
2.32545e-09
-1.80155e-08
-1.53589e-08
-1.03309e-08
5.68747e-09
3.75546e-08
7.56929e-08
9.29803e-08
7.42277e-08
4.21653e-08
2.47362e-08
2.21229e-08
2.34473e-08
2.57659e-08
2.62002e-08
2.46581e-08
2.21191e-08
1.92176e-08
1.80478e-08
1.67794e-08
7.67716e-09
-2.89672e-08
-3.06521e-08
-1.94531e-08
7.28055e-09
5.24396e-08
1.11453e-07
1.39793e-07
1.21985e-07
8.33473e-08
4.99826e-08
3.12194e-08
2.95589e-08
3.5384e-08
3.66233e-08
3.38379e-08
2.74363e-08
2.16386e-08
2.06996e-08
2.10042e-08
1.01099e-08
-4.23222e-08
-4.19283e-08
-2.33623e-08
4.56028e-09
5.9163e-08
1.28078e-07
1.71271e-07
1.66359e-07
1.38094e-07
9.77382e-08
6.15426e-08
4.56791e-08
4.35605e-08
4.59595e-08
4.58147e-08
3.60189e-08
2.50775e-08
1.90802e-08
1.83909e-08
8.98131e-09
-4.11369e-08
-4.4159e-08
9.31165e-11
8.68041e-09
1.13018e-07
1.066e-07
2.13082e-07
2.1653e-07
2.05829e-07
1.71084e-07
1.26918e-07
9.17928e-08
6.88208e-08
5.92416e-08
5.14893e-08
4.09219e-08
3.16762e-08
2.59086e-08
2.42036e-08
1.11364e-08
-4.00538e-08
-1.70101e-08
-2.52672e-08
1.14156e-07
4.13465e-08
3.27371e-07
1.58863e-07
2.12469e-07
2.36431e-07
2.22786e-07
1.88378e-07
1.45869e-07
1.02302e-07
6.78708e-08
4.07749e-08
2.41552e-08
1.60197e-08
1.81129e-08
2.03684e-08
9.89728e-09
-3.29385e-08
-3.31032e-08
3.44408e-08
1.17409e-08
2.63127e-07
7.69167e-08
2.67899e-07
3.75506e-07
3.8537e-07
3.77977e-07
3.4927e-07
2.94306e-07
2.28345e-07
1.62203e-07
1.00048e-07
5.25196e-08
2.30274e-08
1.56701e-08
1.49932e-08
8.38836e-09
-3.16859e-08
6.56311e-09
3.94416e-08
1.65486e-07
1.54487e-07
3.39523e-07
4.31092e-07
3.51865e-07
3.60274e-07
4.0901e-07
4.34732e-07
4.34135e-07
4.08156e-07
3.55961e-07
2.65265e-07
1.68925e-07
9.16384e-08
4.16453e-08
1.66448e-08
3.90041e-09
-4.35425e-08
2.13446e-08
9.3167e-08
1.95181e-07
2.41615e-07
2.773e-07
3.21144e-07
4.38668e-07
5.34713e-07
5.48464e-07
5.56052e-07
5.46792e-07
5.11087e-07
4.38829e-07
3.53954e-07
2.64326e-07
1.63794e-07
8.8849e-08
3.42211e-08
7.47826e-09
-7.21011e-09
4.14743e-08
1.32296e-07
2.00177e-07
3.46854e-07
4.2879e-07
4.8225e-07
5.53401e-07
6.05413e-07
6.55353e-07
6.95161e-07
7.08466e-07
6.97736e-07
6.59894e-07
5.74759e-07
4.45963e-07
3.06455e-07
1.77961e-07
7.83054e-08
1.7658e-08
)
;

boundaryField
{
    sides
    {
        type            calculated;
        value           nonuniform List<scalar> 
40
(
-7.21011e-09
4.14743e-08
1.32296e-07
2.00177e-07
3.46854e-07
4.2879e-07
4.8225e-07
5.53401e-07
6.05413e-07
6.55353e-07
6.95161e-07
7.08466e-07
6.97736e-07
6.59894e-07
5.74759e-07
4.45963e-07
3.06455e-07
1.77961e-07
7.83054e-08
1.7658e-08
7.05152e-09
-4.15185e-08
-1.32545e-07
-2.00144e-07
-3.4678e-07
-4.28836e-07
-4.82137e-07
-5.53248e-07
-6.05168e-07
-6.55031e-07
-6.94728e-07
-7.07982e-07
-6.97225e-07
-6.59389e-07
-5.74345e-07
-4.45594e-07
-3.06132e-07
-1.77692e-07
-7.81142e-08
-1.75852e-08
)
;
    }
    inlet
    {
        type            calculated;
        value           nonuniform List<scalar> 
20
(
7.05152e-09
4.33972e-08
3.16397e-08
3.29831e-08
4.00922e-08
4.1172e-08
4.23828e-08
2.90486e-08
1.80942e-08
5.44002e-09
-5.37205e-09
-1.80155e-08
-2.89672e-08
-4.23222e-08
-4.11369e-08
-4.00538e-08
-3.29385e-08
-3.16859e-08
-4.35425e-08
-7.21011e-09
)
;
    }
    outlet
    {
        type            calculated;
        value           uniform 0;
    }
    frontAndBack
    {
        type            empty;
    }
}


// ************************************************************************* //
