/*--------------------------------*- C++ -*----------------------------------*\
  =========                 |
  \\      /  F ield         | OpenFOAM: The Open Source CFD Toolbox
   \\    /   O peration     | Website:  https://openfoam.org
    \\  /    A nd           | Version:  7
     \\/     M anipulation  |
\*---------------------------------------------------------------------------*/
FoamFile
{
    version     2.0;
    format      ascii;
    class       surfaceScalarField;
    location    "4";
    object      ddtCorrDdt0(phi);
}
// * * * * * * * * * * * * * * * * * * * * * * * * * * * * * * * * * * * * * //

dimensions      [0 4 -2 0 0 0 0];

internalField   nonuniform List<scalar> 
760
(
9.70439e-11
2.13463e-11
1.03686e-10
6.10647e-11
1.73381e-10
7.58688e-11
2.18838e-10
7.86635e-11
9.68189e-11
9.78318e-11
5.35519e-11
2.86213e-10
2.34519e-12
5.81012e-11
1.53234e-12
1.72451e-10
2.72431e-11
1.63657e-10
5.50272e-11
1.30179e-11
7.50867e-11
-4.17221e-11
7.02794e-11
-2.49404e-11
3.68958e-11
-6.36052e-11
-1.35526e-11
-1.9122e-10
-7.39846e-11
-1.24316e-10
-1.4352e-10
-1.802e-10
-2.32452e-10
-1.82856e-10
-2.79895e-10
-1.92603e-10
-3.09326e-10
-1.35406e-10
-7.86387e-11
5.25002e-11
7.46565e-11
1.02379e-10
1.85363e-10
1.32881e-10
1.7957e-10
2.08292e-10
2.04095e-10
2.80766e-10
1.6206e-10
3.86708e-10
4.56896e-10
2.87408e-10
5.20969e-10
1.41408e-10
4.50758e-11
9.03754e-11
4.27415e-11
9.53821e-11
-1.84299e-10
1.21023e-10
-3.57714e-11
1.2302e-10
-5.98278e-11
9.30607e-11
-9.57598e-11
1.61379e-11
-3.86788e-10
-7.50626e-11
-3.92659e-10
-1.48723e-10
-4.19165e-10
-2.04863e-10
-3.85163e-10
-2.34789e-10
-3.55863e-10
-2.45896e-10
-2.41522e-10
-1.29468e-10
5.98856e-11
5.94774e-11
1.14373e-10
1.8051e-10
1.59194e-10
2.1396e-10
1.81199e-10
3.12674e-10
2.13253e-10
4.85172e-10
-2.00281e-10
3.76493e-10
-2.6586e-11
6.68142e-10
1.29161e-10
2.24461e-10
1.43828e-10
1.49463e-10
1.44159e-10
4.08156e-11
1.35648e-10
-3.88994e-11
1.19173e-10
-1.12681e-10
1.04447e-10
-2.0476e-10
8.14232e-11
-3.06598e-10
3.58564e-11
-3.69085e-10
-1.9979e-11
-4.21398e-10
-6.45232e-11
-3.94401e-10
-8.12045e-11
-3.69872e-10
-7.87018e-11
-2.53356e-10
-1.61939e-10
3.31951e-11
2.87523e-11
6.51557e-11
1.52019e-10
1.81486e-10
2.44104e-10
1.6773e-10
3.04241e-10
2.09578e-10
4.65063e-10
4.72245e-10
5.84664e-10
1.001e-10
6.9008e-10
5.80256e-11
3.83764e-10
9.48302e-11
2.01041e-10
1.18645e-10
7.04031e-11
1.11983e-10
-3.80165e-11
7.90376e-11
-1.37915e-10
4.289e-11
-2.19868e-10
1.60413e-11
-2.91957e-10
-9.63306e-12
-3.21298e-10
-2.52085e-11
-3.53352e-10
-3.65959e-11
-3.10191e-10
-2.0152e-11
-3.07697e-10
1.37413e-12
-2.1229e-10
-1.5466e-10
1.99687e-11
8.17375e-12
8.99569e-11
1.2504e-10
1.0377e-10
2.30131e-10
1.76087e-10
3.88044e-10
9.41732e-11
5.87544e-10
-1.88369e-12
7.03898e-10
2.14977e-10
5.19474e-10
1.80186e-10
4.38812e-10
1.47892e-10
2.43684e-10
1.19376e-10
8.93111e-11
1.00861e-10
-2.59561e-11
8.06481e-11
-1.13222e-10
6.61952e-11
-1.70113e-10
5.44914e-11
-2.08406e-10
4.47939e-11
-2.10296e-10
3.53518e-11
-2.27196e-10
3.37904e-11
-1.94383e-10
5.2215e-11
-2.1937e-10
8.16121e-11
-1.67224e-10
-1.61741e-10
8.38548e-12
1.97118e-11
6.64418e-11
1.15749e-10
8.63492e-11
2.34123e-10
1.41973e-10
4.79061e-10
1.75594e-10
6.97984e-10
1.65703e-10
7.87613e-10
1.07008e-10
6.63659e-10
1.11198e-10
4.60261e-10
1.01264e-10
2.4523e-10
7.67985e-11
8.17878e-11
5.44329e-11
-2.50673e-11
3.78599e-11
-8.92102e-11
3.12698e-11
-1.1702e-10
3.30846e-11
-1.31169e-10
3.05554e-11
-1.25215e-10
2.90385e-11
-1.44977e-10
3.35939e-11
-1.25019e-10
6.2452e-11
-1.73035e-10
1.02056e-10
-1.43753e-10
-1.62964e-10
6.8067e-12
1.59755e-11
4.65304e-11
8.05188e-11
9.32448e-11
2.34923e-10
1.06468e-10
5.0469e-10
1.37458e-10
7.70598e-10
1.24363e-10
8.27853e-10
1.12007e-10
6.85349e-10
9.56101e-11
4.49336e-10
7.32591e-11
2.23223e-10
4.69661e-11
6.3225e-11
3.01627e-11
-2.52261e-11
2.70062e-11
-6.6803e-11
2.981e-11
-8.06971e-11
3.50295e-11
-8.85988e-11
3.2027e-11
-8.79299e-11
2.48702e-11
-1.16257e-10
2.88273e-11
-9.85635e-11
5.78122e-11
-1.51784e-10
1.00172e-10
-1.29401e-10
-1.66515e-10
2.87591e-12
1.3875e-11
3.16681e-11
5.05319e-11
6.11705e-11
2.20534e-10
7.41084e-11
5.3768e-10
9.07742e-11
8.21241e-10
9.84149e-11
8.74182e-10
8.99667e-11
7.03198e-10
6.40149e-11
4.4298e-10
3.86313e-11
2.16459e-10
2.1111e-11
7.24819e-11
1.41293e-11
3.98434e-12
2.05213e-11
-2.43779e-11
2.98076e-11
-4.11029e-11
3.30464e-11
-5.93436e-11
2.69628e-11
-6.57003e-11
1.58591e-11
-9.56464e-11
1.68572e-11
-7.37689e-11
4.22169e-11
-1.27776e-10
7.99301e-11
-1.13772e-10
-1.6696e-10
5.74332e-13
1.84423e-11
1.61768e-11
3.60974e-11
3.47063e-11
2.17114e-10
4.18478e-11
5.63836e-10
5.22439e-11
8.62264e-10
6.69926e-11
9.07581e-10
6.06552e-11
7.09086e-10
3.50019e-11
4.29698e-10
1.29927e-11
2.08197e-10
4.86715e-12
8.27043e-11
3.6625e-12
2.63596e-11
9.60674e-12
2.10068e-12
1.98153e-11
-1.50708e-11
2.36988e-11
-3.97923e-11
1.83324e-11
-5.48935e-11
8.34305e-12
-9.06847e-11
6.56527e-12
-6.9695e-11
2.26469e-11
-1.2395e-10
4.79871e-11
-1.11773e-10
-1.69832e-10
-6.65412e-13
2.15538e-11
5.28168e-12
3.36525e-11
1.1656e-11
2.16038e-10
1.35889e-11
5.71158e-10
1.67569e-11
8.74024e-10
2.56685e-11
9.18429e-10
2.21509e-11
7.03062e-10
1.08448e-11
4.14679e-10
1.66627e-12
1.95537e-10
-4.92167e-13
7.80123e-11
-2.8068e-13
2.52569e-11
1.57935e-12
1.23221e-12
5.86573e-12
-1.40412e-11
8.28928e-12
-3.83157e-11
6.64567e-12
-5.76365e-11
2.62784e-12
-9.95592e-11
1.08422e-12
-8.21941e-11
6.08071e-12
-1.35858e-10
1.47874e-11
-1.19756e-10
-1.73623e-10
6.67031e-13
1.84518e-11
-5.29175e-12
3.6103e-11
-1.16492e-11
2.17111e-10
-1.35237e-11
5.63823e-10
-1.66285e-11
8.62264e-10
-2.55417e-11
9.07603e-10
-2.20752e-11
7.09125e-10
-1.0833e-11
4.29733e-10
-1.68285e-12
2.08229e-10
4.8015e-13
8.27321e-11
2.8201e-13
2.63767e-11
-1.56585e-12
2.10874e-12
-5.83925e-12
-1.50661e-11
-8.24233e-12
-3.97865e-11
-6.56472e-12
-5.48866e-11
-2.51361e-12
-9.0667e-11
-9.37693e-13
-6.96792e-11
-5.92772e-12
-1.23926e-10
-1.46464e-11
-1.11748e-10
-1.69814e-10
-5.77484e-13
1.38747e-11
-1.61694e-11
5.05433e-11
-3.46774e-11
2.20521e-10
-4.17636e-11
5.37644e-10
-5.21128e-11
8.21225e-10
-6.68678e-11
8.74218e-10
-6.05872e-11
7.03265e-10
-3.49895e-11
4.43048e-10
-1.30084e-11
2.1652e-10
-4.88669e-12
7.25323e-11
-3.67015e-12
4.01717e-12
-9.59887e-12
-2.43617e-11
-1.97917e-11
-4.10967e-11
-2.3652e-11
-5.9334e-11
-1.82498e-11
-6.56882e-11
-8.22739e-12
-9.56196e-11
-6.42069e-12
-7.37552e-11
-2.24994e-11
-1.27748e-10
-4.78527e-11
-1.13737e-10
-1.6693e-10
-2.87845e-12
1.59817e-11
-3.16577e-11
8.05418e-11
-6.11163e-11
2.34931e-10
-7.39979e-11
5.04642e-10
-9.06332e-11
7.70557e-10
-9.82989e-11
8.27872e-10
-8.99104e-11
6.85431e-10
-6.40052e-11
4.4944e-10
-3.86511e-11
2.23322e-10
-2.11436e-11
6.3308e-11
-1.41526e-11
-2.51623e-11
-2.05257e-11
-6.67601e-11
-2.97886e-11
-8.06735e-11
-3.30001e-11
-8.85772e-11
-2.68822e-11
-8.79095e-11
-1.57475e-11
-1.16213e-10
-1.67189e-11
-9.85373e-11
-4.20761e-11
-1.51736e-10
-7.98012e-11
-1.2935e-10
-1.66472e-10
-6.8054e-12
1.97458e-11
-4.65068e-11
1.15795e-10
-9.31875e-11
2.34179e-10
-1.06334e-10
4.79043e-10
-1.37314e-10
6.97937e-10
-1.24249e-10
7.87642e-10
-1.11952e-10
6.6376e-10
-9.55989e-11
4.60415e-10
-7.3284e-11
2.45386e-10
-4.70108e-11
8.19262e-11
-3.0204e-11
-2.49468e-11
-2.70305e-11
-8.91101e-11
-2.98039e-11
-1.16946e-10
-3.49917e-11
-1.31112e-10
-3.19539e-11
-1.25177e-10
-2.47679e-11
-1.44917e-10
-2.86982e-11
-1.24979e-10
-5.76781e-11
-1.72957e-10
-1.00046e-10
-1.43674e-10
-1.62908e-10
-8.40153e-12
8.22605e-12
-6.63793e-11
1.25132e-10
-8.62952e-11
2.30169e-10
-1.41869e-10
3.88114e-10
-1.7544e-10
5.87545e-10
-1.65605e-10
7.03969e-10
-1.06941e-10
5.19501e-10
-1.11187e-10
4.39019e-10
-1.01298e-10
2.4389e-10
-7.68587e-11
8.95021e-11
-5.44986e-11
-2.57804e-11
-3.79157e-11
-1.13063e-10
-3.12952e-11
-1.69983e-10
-3.30747e-11
-2.08303e-10
-3.05021e-11
-2.10236e-10
-2.89514e-11
-2.27132e-10
-3.34763e-11
-1.94349e-10
-6.23263e-11
-2.19286e-10
-1.01931e-10
-1.67135e-10
-1.61662e-10
-1.99476e-11
2.87854e-11
-8.98926e-11
1.52036e-10
-1.03596e-10
2.44168e-10
-1.76001e-10
3.04138e-10
-9.4095e-11
4.65174e-10
1.92068e-12
5.84706e-10
-2.14948e-10
6.89955e-10
-1.80212e-10
3.84056e-10
-1.47967e-10
2.01315e-10
-1.19482e-10
7.06696e-11
-1.00982e-10
-3.7758e-11
-8.07687e-11
-1.37671e-10
-6.62893e-11
-2.19652e-10
-5.45467e-11
-2.91756e-10
-4.47915e-11
-3.21155e-10
-3.52974e-11
-3.53226e-10
-3.36914e-11
-3.10126e-10
-5.21e-11
-3.07602e-10
-8.14974e-11
-2.122e-10
-1.54594e-10
-3.32003e-11
5.95121e-11
-6.50203e-11
1.80655e-10
-1.81379e-10
2.14033e-10
-1.67381e-10
3.12935e-10
-2.09567e-10
4.84974e-10
-4.72162e-10
3.76646e-10
-1.00032e-10
6.68874e-10
-5.79441e-11
2.24584e-10
-9.48242e-11
1.49679e-10
-1.18679e-10
4.10345e-11
-1.12036e-10
-3.86625e-11
-7.90686e-11
-1.12443e-10
-4.28885e-11
-2.04514e-10
-1.6025e-11
-3.06287e-10
9.69192e-12
-3.68819e-10
2.5317e-11
-4.21157e-10
3.67552e-11
-3.94248e-10
2.03327e-11
-3.69715e-10
-1.17831e-12
-2.53254e-10
-1.61862e-10
-5.97953e-11
7.47007e-11
-1.14307e-10
1.85504e-10
-1.58864e-10
1.79757e-10
-1.81235e-10
2.04185e-10
-2.12917e-10
1.62482e-10
2.00377e-10
4.57116e-10
2.66094e-11
5.21282e-10
-1.29217e-10
4.48355e-11
-1.43923e-10
4.26892e-11
-1.44291e-10
-1.84414e-10
-1.35857e-10
-3.58161e-11
-1.19386e-10
-5.91209e-11
-1.0462e-10
-9.51038e-11
-8.16863e-11
-3.86551e-10
-3.60458e-11
-3.92455e-10
1.98983e-11
-4.18938e-10
6.45223e-11
-3.84976e-10
8.12726e-11
-3.55679e-10
7.88082e-11
-2.41404e-10
-1.29378e-10
-5.23542e-11
2.14287e-11
-1.02225e-10
6.09791e-11
-1.32685e-10
7.60942e-11
-2.08151e-10
7.85817e-11
-2.80729e-10
9.80704e-11
-3.86611e-10
2.86419e-10
-2.87355e-10
5.79541e-11
-1.41318e-10
1.7307e-10
-9.02963e-11
1.64235e-10
-9.52985e-11
1.35868e-11
-1.20965e-10
-4.17616e-11
-1.22991e-10
-2.49733e-11
-9.30447e-11
-6.36398e-11
-1.5992e-11
-1.91122e-10
7.53069e-11
-1.24101e-10
1.4898e-10
-1.7996e-10
2.05154e-10
-1.82667e-10
2.35124e-10
-1.92436e-10
2.46255e-10
-1.35294e-10
-7.85849e-11
-9.70046e-11
-1.03457e-10
-1.73091e-10
-2.18312e-10
-9.66216e-11
-5.3503e-11
-2.31614e-12
-1.59427e-12
-2.73418e-11
-5.51993e-11
-7.52933e-11
-7.05296e-11
-3.71828e-11
1.33244e-11
7.37217e-11
1.43333e-10
2.32317e-10
2.79825e-10
3.09303e-10
)
;

boundaryField
{
    sides
    {
        type            calculated;
        value           uniform 0;
    }
    inlet
    {
        type            calculated;
        value           uniform 0;
    }
    outlet
    {
        type            calculated;
        value           nonuniform List<scalar> 
20
(
-2.90975e-10
-2.35783e-10
-4.78463e-11
1.76185e-11
1.18211e-10
1.29613e-10
1.29442e-10
1.04328e-10
6.39359e-11
2.01575e-11
-2.00302e-11
-6.38153e-11
-1.04213e-10
-1.29322e-10
-1.29508e-10
-1.1809e-10
-1.74328e-11
4.79536e-11
2.36182e-10
2.90986e-10
)
;
    }
    frontAndBack
    {
        type            empty;
        value           nonuniform 0();
    }
}


// ************************************************************************* //
