/*--------------------------------*- C++ -*----------------------------------*\
  =========                 |
  \\      /  F ield         | OpenFOAM: The Open Source CFD Toolbox
   \\    /   O peration     | Website:  https://openfoam.org
    \\  /    A nd           | Version:  7
     \\/     M anipulation  |
\*---------------------------------------------------------------------------*/
FoamFile
{
    version     2.0;
    format      ascii;
    class       volVectorField;
    location    "4";
    object      ddtCorrDdt0(hU);
}
// * * * * * * * * * * * * * * * * * * * * * * * * * * * * * * * * * * * * * //

dimensions      [0 2 -2 0 0 0 0];

internalField   nonuniform List<vector> 
400
(
(-1.98982e-09 -4.03143e-09 0)
(1.70856e-08 -7.59825e-09 0)
(2.99099e-08 -8.81216e-09 0)
(4.63711e-08 -7.02316e-09 0)
(3.21214e-08 1.70487e-09 0)
(1.20748e-08 2.07999e-08 0)
(3.64821e-09 3.90754e-08 0)
(-1.91955e-09 4.15993e-08 0)
(8.34549e-10 3.08104e-08 0)
(6.83686e-09 1.9889e-08 0)
(1.15226e-08 1.19859e-08 0)
(1.46347e-08 6.86428e-09 0)
(9.10644e-09 3.27342e-09 0)
(2.45833e-09 -2.31422e-09 0)
(-1.17463e-08 -7.72202e-09 0)
(-1.87223e-08 -2.09821e-08 0)
(-3.92142e-08 -2.70386e-08 0)
(-4.53979e-08 -3.25222e-08 0)
(-6.10931e-08 -2.93693e-08 0)
(-5.86413e-08 -2.78007e-08 0)
(-4.02695e-09 1.0721e-08 0)
(1.16543e-08 2.69266e-08 0)
(2.75474e-08 2.98908e-08 0)
(3.60289e-08 2.81348e-08 0)
(4.83577e-08 3.21646e-08 0)
(6.63421e-08 5.46366e-08 0)
(6.99292e-08 3.11652e-08 0)
(4.08763e-08 1.5526e-08 0)
(1.83229e-08 7.66487e-09 0)
(1.71626e-08 -1.46129e-09 0)
(2.07754e-08 -1.01171e-08 0)
(2.38645e-08 -1.94572e-08 0)
(2.04714e-08 -2.87649e-08 0)
(1.18147e-08 -3.86305e-08 0)
(-6.56674e-09 -4.10903e-08 0)
(-2.0709e-08 -4.86483e-08 0)
(-3.64447e-08 -4.44524e-08 0)
(-4.00052e-08 -3.98437e-08 0)
(-5.01477e-08 -2.17093e-08 0)
(-4.74379e-08 -1.80535e-09 0)
(-3.68438e-09 1.87754e-08 0)
(1.24874e-08 4.47202e-08 0)
(3.48436e-08 4.85375e-08 0)
(3.63355e-08 6.05051e-08 0)
(4.5563e-08 7.48362e-08 0)
(-4.20022e-09 7.93112e-08 0)
(-3.19938e-08 7.85421e-08 0)
(1.20983e-08 3.58243e-08 0)
(2.8913e-08 5.26133e-11 0)
(2.73551e-08 -2.16034e-08 0)
(2.66378e-08 -3.55266e-08 0)
(2.46942e-08 -5.0214e-08 0)
(2.10137e-08 -6.77338e-08 0)
(1.83038e-08 -8.79179e-08 0)
(1.09953e-08 -9.91905e-08 0)
(5.20479e-09 -1.07256e-07 0)
(-9.45656e-09 -1.00048e-07 0)
(-1.03207e-08 -9.28316e-08 0)
(-1.82082e-08 -6.8357e-08 0)
(-1.20946e-08 -4.56912e-08 0)
(-5.40162e-09 6.63677e-09 0)
(5.55781e-09 2.9837e-08 0)
(2.72584e-08 4.16071e-08 0)
(4.66577e-08 5.68955e-08 0)
(2.51305e-08 8.7806e-08 0)
(7.68957e-08 9.61091e-08 0)
(5.64544e-08 1.04983e-07 0)
(1.00762e-08 9.64253e-08 0)
(1.22974e-08 6.82162e-08 0)
(2.03123e-08 4.37547e-08 0)
(2.25294e-08 2.30168e-08 0)
(1.9416e-08 3.53457e-09 0)
(1.24016e-08 -1.49354e-08 0)
(6.69927e-09 -3.45175e-08 0)
(5.82682e-10 -4.76752e-08 0)
(-1.37074e-09 -5.99014e-08 0)
(-6.6601e-09 -5.53878e-08 0)
(-3.79249e-09 -5.44787e-08 0)
(-4.17794e-09 -3.39709e-08 0)
(2.81592e-09 -2.12947e-08 0)
(-4.95741e-09 4.10334e-09 0)
(4.5103e-09 3.0397e-08 0)
(2.88232e-08 5.10142e-08 0)
(2.85683e-08 7.26139e-08 0)
(3.55248e-08 1.09142e-07 0)
(-6.73044e-09 1.27465e-07 0)
(2.44998e-08 8.4942e-08 0)
(3.96246e-08 5.06419e-08 0)
(3.11211e-08 1.9737e-08 0)
(2.54974e-08 -7.46629e-09 0)
(2.17129e-08 -3.05264e-08 0)
(1.83329e-08 -4.97092e-08 0)
(1.4985e-08 -6.31502e-08 0)
(1.2913e-08 -7.1894e-08 0)
(9.8776e-09 -7.20585e-08 0)
(9.76948e-09 -7.30807e-08 0)
(6.14206e-09 -6.2805e-08 0)
(1.03718e-08 -6.20158e-08 0)
(1.10462e-08 -4.58859e-08 0)
(2.13185e-08 -3.70999e-08 0)
(-4.90327e-09 2.72593e-09 0)
(3.04209e-09 2.40115e-08 0)
(1.96756e-08 4.55214e-08 0)
(3.02651e-08 8.57553e-08 0)
(2.76762e-08 1.26395e-07 0)
(3.47239e-08 1.50668e-07 0)
(2.32686e-08 1.46321e-07 0)
(2.00634e-08 9.97183e-08 0)
(2.00274e-08 5.56922e-08 0)
(1.74932e-08 2.37063e-08 0)
(1.36498e-08 1.91377e-09 0)
(9.9553e-09 -1.351e-08 0)
(7.38456e-09 -2.30823e-08 0)
(6.87488e-09 -2.97178e-08 0)
(5.92338e-09 -3.04016e-08 0)
(7.04562e-09 -3.48757e-08 0)
(5.66327e-09 -3.00278e-08 0)
(1.07877e-08 -3.77228e-08 0)
(1.4611e-08 -2.95633e-08 0)
(2.45795e-08 -3.11785e-08 0)
(-3.2485e-09 3.45088e-09 0)
(7.46247e-10 1.9504e-08 0)
(1.87854e-08 4.72016e-08 0)
(2.55053e-08 9.92154e-08 0)
(2.35276e-08 1.48094e-07 0)
(2.28924e-08 1.61199e-07 0)
(2.0939e-08 1.33856e-07 0)
(1.94236e-08 9.04499e-08 0)
(1.62817e-08 4.69434e-08 0)
(1.22836e-08 1.48296e-08 0)
(8.62376e-09 -4.7584e-09 0)
(6.3973e-09 -1.56364e-08 0)
(5.82114e-09 -2.0205e-08 0)
(6.61962e-09 -2.26175e-08 0)
(6.1137e-09 -2.19565e-08 0)
(6.43156e-09 -2.66304e-08 0)
(5.02734e-09 -2.26928e-08 0)
(9.57807e-09 -3.27406e-08 0)
(1.43553e-08 -2.75027e-08 0)
(2.41891e-08 -3.33423e-08 0)
(-2.60946e-09 3.05557e-09 0)
(-2.25227e-10 1.26829e-08 0)
(1.32998e-08 4.5316e-08 0)
(1.78692e-08 1.0457e-07 0)
(1.57634e-08 1.59756e-07 0)
(1.58861e-08 1.70982e-07 0)
(1.645e-08 1.39722e-07 0)
(1.43829e-08 8.97677e-08 0)
(1.03779e-08 4.43775e-08 0)
(6.63938e-09 1.39252e-08 0)
(4.29018e-09 -1.9282e-09 0)
(3.83597e-09 -9.11327e-09 0)
(4.85641e-09 -1.22926e-08 0)
(6.28311e-09 -1.4915e-08 0)
(5.66956e-09 -1.54343e-08 0)
(4.84365e-09 -2.11926e-08 0)
(3.10255e-09 -1.71901e-08 0)
(6.42148e-09 -2.79538e-08 0)
(1.10395e-08 -2.43591e-08 0)
(1.95123e-08 -3.35117e-08 0)
(-1.53346e-09 3.32154e-09 0)
(-8.51042e-10 8.10998e-09 0)
(7.66265e-09 4.34184e-08 0)
(1.05898e-08 1.10581e-07 0)
(8.83973e-09 1.69242e-07 0)
(9.85172e-09 1.79024e-07 0)
(1.103e-08 1.41988e-07 0)
(8.97964e-09 8.77733e-08 0)
(5.29751e-09 4.28254e-08 0)
(2.41844e-09 1.57262e-08 0)
(1.12036e-09 3.05559e-09 0)
(1.41764e-09 -2.34112e-09 0)
(2.84621e-09 -5.74487e-09 0)
(4.35788e-09 -9.98244e-09 0)
(4.03746e-09 -1.21064e-08 0)
(2.97638e-09 -1.86764e-08 0)
(1.36939e-09 -1.43649e-08 0)
(3.17911e-09 -2.52058e-08 0)
(6.32326e-09 -2.25837e-08 0)
(1.19557e-08 -3.38113e-08 0)
(-6.10994e-10 4.06159e-09 0)
(-4.52693e-10 6.30912e-09 0)
(2.59149e-09 4.29253e-08 0)
(3.55669e-09 1.13988e-07 0)
(2.82991e-09 1.74609e-07 0)
(3.50892e-09 1.83425e-07 0)
(4.14246e-09 1.42155e-07 0)
(3.11987e-09 8.50418e-08 0)
(1.51996e-09 4.07012e-08 0)
(3.67117e-10 1.61472e-08 0)
(-7.08345e-11 5.10991e-09 0)
(1.17902e-10 2.63547e-10 0)
(7.57714e-10 -2.9933e-09 0)
(1.44739e-09 -7.88461e-09 0)
(1.42296e-09 -1.13141e-08 0)
(9.88347e-10 -1.90523e-08 0)
(3.08851e-10 -1.51463e-08 0)
(8.10474e-10 -2.59347e-08 0)
(1.87032e-09 -2.31245e-08 0)
(3.75467e-09 -3.44497e-08 0)
(6.1077e-10 4.06248e-09 0)
(4.51079e-10 6.30975e-09 0)
(-2.59091e-09 4.29251e-08 0)
(-3.54845e-09 1.13986e-07 0)
(-2.81067e-09 1.74609e-07 0)
(-3.48336e-09 1.83427e-07 0)
(-4.12138e-09 1.42159e-07 0)
(-3.10985e-09 8.50454e-08 0)
(-1.51936e-09 4.07045e-08 0)
(-3.69567e-10 1.615e-08 0)
(6.98793e-11 5.11159e-09 0)
(-1.16438e-10 2.64297e-10 0)
(-7.53016e-10 -2.99291e-09 0)
(-1.44028e-09 -7.88413e-09 0)
(-1.40823e-09 -1.13135e-08 0)
(-9.71672e-10 -1.90507e-08 0)
(-2.79256e-10 -1.51449e-08 0)
(-7.85399e-10 -2.59324e-08 0)
(-1.83684e-09 -2.3122e-08 0)
(-3.73022e-09 -3.44479e-08 0)
(1.53322e-09 3.32244e-09 0)
(8.50986e-10 8.11195e-09 0)
(-7.65783e-09 4.34169e-08 0)
(-1.05779e-08 1.10576e-07 0)
(-8.81879e-09 1.6924e-07 0)
(-9.82597e-09 1.7903e-07 0)
(-1.10094e-08 1.41999e-07 0)
(-8.97023e-09 8.77838e-08 0)
(-5.29708e-09 4.28349e-08 0)
(-2.42152e-09 1.57341e-08 0)
(-1.12273e-09 3.06058e-09 0)
(-1.41769e-09 -2.33875e-09 0)
(-2.84248e-09 -5.74389e-09 0)
(-4.3511e-09 -9.98108e-09 0)
(-4.02259e-09 -1.21046e-08 0)
(-2.95942e-09 -1.8672e-08 0)
(-1.33984e-09 -1.43622e-08 0)
(-3.15481e-09 -2.52008e-08 0)
(-6.2912e-09 -2.25777e-08 0)
(-1.19323e-08 -3.38065e-08 0)
(2.60974e-09 3.05627e-09 0)
(2.25266e-10 1.26864e-08 0)
(-1.3292e-08 4.5315e-08 0)
(-1.78526e-08 1.04561e-07 0)
(-1.57396e-08 1.5975e-07 0)
(-1.58598e-08 1.70987e-07 0)
(-1.64307e-08 1.39737e-07 0)
(-1.43749e-08 8.97851e-08 0)
(-1.03785e-08 4.43938e-08 0)
(-6.64417e-09 1.39387e-08 0)
(-4.29514e-09 -1.9185e-09 0)
(-3.83864e-09 -9.10742e-09 0)
(-4.85444e-09 -1.22898e-08 0)
(-6.27712e-09 -1.49122e-08 0)
(-5.65506e-09 -1.54315e-08 0)
(-4.82714e-09 -2.1186e-08 0)
(-3.07386e-09 -1.71865e-08 0)
(-6.39865e-09 -2.79467e-08 0)
(-1.10092e-08 -2.43508e-08 0)
(-1.94893e-08 -3.3505e-08 0)
(3.24761e-09 3.45519e-09 0)
(-7.42851e-10 1.95111e-08 0)
(-1.87774e-08 4.72074e-08 0)
(-2.54866e-08 9.92075e-08 0)
(-2.35009e-08 1.48083e-07 0)
(-2.28658e-08 1.61204e-07 0)
(-2.09194e-08 1.33875e-07 0)
(-1.94155e-08 9.0476e-08 0)
(-1.62829e-08 4.69696e-08 0)
(-1.22901e-08 1.48526e-08 0)
(-8.6316e-09 -4.73877e-09 0)
(-6.4034e-09 -1.56206e-08 0)
(-5.82229e-09 -2.01937e-08 0)
(-6.61606e-09 -2.26081e-08 0)
(-6.10126e-09 -2.19493e-08 0)
(-6.41682e-09 -2.66188e-08 0)
(-5.00042e-09 -2.26849e-08 0)
(-9.55673e-09 -3.27265e-08 0)
(-1.43264e-08 -2.7488e-08 0)
(-2.41652e-08 -3.33303e-08 0)
(4.90084e-09 2.73447e-09 0)
(-3.03907e-09 2.40257e-08 0)
(-1.96611e-08 4.55319e-08 0)
(-3.0252e-08 8.57603e-08 0)
(-2.76524e-08 1.26393e-07 0)
(-3.46977e-08 1.50675e-07 0)
(-2.32478e-08 1.46343e-07 0)
(-2.00549e-08 9.97494e-08 0)
(-2.00294e-08 5.57232e-08 0)
(-1.75022e-08 2.37338e-08 0)
(-1.36617e-08 1.93805e-09 0)
(-9.96678e-09 -1.34891e-08 0)
(-7.39172e-09 -2.30665e-08 0)
(-6.87716e-09 -2.97063e-08 0)
(-5.91606e-09 -3.03966e-08 0)
(-7.03471e-09 -3.48685e-08 0)
(-5.63912e-09 -3.00258e-08 0)
(-1.07689e-08 -3.77125e-08 0)
(-1.45829e-08 -2.95524e-08 0)
(-2.4557e-08 -3.11716e-08 0)
(4.9588e-09 4.11204e-09 0)
(-4.50242e-09 3.04086e-08 0)
(-2.8798e-08 5.10229e-08 0)
(-2.85421e-08 7.26093e-08 0)
(-3.55135e-08 1.09146e-07 0)
(6.74524e-09 1.27468e-07 0)
(-2.4491e-08 8.4967e-08 0)
(-3.96235e-08 5.0679e-08 0)
(-3.11302e-08 1.97777e-08 0)
(-2.55147e-08 -7.42827e-09 0)
(-2.17349e-08 -3.04922e-08 0)
(-1.83565e-08 -4.9679e-08 0)
(-1.50055e-08 -6.31234e-08 0)
(-1.29283e-08 -7.18675e-08 0)
(-9.88209e-09 -7.20381e-08 0)
(-9.76635e-09 -7.30578e-08 0)
(-6.12428e-09 -6.27898e-08 0)
(-1.0355e-08 -6.19899e-08 0)
(-1.10214e-08 -4.58599e-08 0)
(-2.12939e-08 -3.70741e-08 0)
(5.40213e-09 6.64363e-09 0)
(-5.54916e-09 2.9855e-08 0)
(-2.72299e-08 4.16239e-08 0)
(-4.66178e-08 5.6914e-08 0)
(-2.50887e-08 8.7807e-08 0)
(-7.68909e-08 9.61412e-08 0)
(-5.6439e-08 1.05037e-07 0)
(-1.00564e-08 9.64881e-08 0)
(-1.22882e-08 6.828e-08 0)
(-2.03144e-08 4.38192e-08 0)
(-2.25374e-08 2.30842e-08 0)
(-1.94232e-08 3.60105e-09 0)
(-1.24029e-08 -1.48715e-08 0)
(-6.69835e-09 -3.44516e-08 0)
(-5.73978e-10 -4.76251e-08 0)
(1.38451e-09 -5.9861e-08 0)
(6.69018e-09 -5.53642e-08 0)
(3.82062e-09 -5.44568e-08 0)
(4.21821e-09 -3.39554e-08 0)
(-2.77821e-09 -2.12928e-08 0)
(3.68812e-09 1.87838e-08 0)
(-1.24743e-08 4.47429e-08 0)
(-3.4804e-08 4.85637e-08 0)
(-3.63029e-08 6.05349e-08 0)
(-4.55416e-08 7.48442e-08 0)
(4.25215e-09 7.93313e-08 0)
(3.20073e-08 7.85783e-08 0)
(-1.21023e-08 3.5875e-08 0)
(-2.89267e-08 1.05554e-10 0)
(-2.73757e-08 -2.15527e-08 0)
(-2.66726e-08 -3.54752e-08 0)
(-2.47353e-08 -5.01601e-08 0)
(-2.10509e-08 -6.7683e-08 0)
(-1.83491e-08 -8.78732e-08 0)
(-1.10414e-08 -9.91531e-08 0)
(-5.23251e-09 -1.07209e-07 0)
(9.45062e-09 -1.00011e-07 0)
(1.03236e-08 -9.27865e-08 0)
(1.82292e-08 -6.83264e-08 0)
(1.21135e-08 -4.56613e-08 0)
(4.03249e-09 1.07401e-08 0)
(-1.1632e-08 2.69394e-08 0)
(-2.75032e-08 2.99238e-08 0)
(-3.60023e-08 2.81599e-08 0)
(-4.83446e-08 3.22303e-08 0)
(-6.63215e-08 5.46835e-08 0)
(-6.99156e-08 3.12185e-08 0)
(-4.08622e-08 1.55909e-08 0)
(-1.83035e-08 7.73516e-09 0)
(-1.71443e-08 -1.38772e-09 0)
(-2.07587e-08 -1.00458e-08 0)
(-2.38555e-08 -1.9384e-08 0)
(-2.04679e-08 -2.8696e-08 0)
(-1.17982e-08 -3.85706e-08 0)
(6.60779e-09 -4.10322e-08 0)
(2.07574e-08 -4.85885e-08 0)
(3.65e-08 -4.44019e-08 0)
(4.00673e-08 -3.98004e-08 0)
(5.02189e-08 -2.168e-08 0)
(4.75096e-08 -1.79272e-09 0)
(1.98016e-09 -4.01644e-09 0)
(-1.70548e-08 -7.5887e-09 0)
(-2.98681e-08 -8.79874e-09 0)
(-4.62822e-08 -7.01468e-09 0)
(-3.20438e-08 1.73519e-09 0)
(-1.20571e-08 2.08436e-08 0)
(-3.63595e-09 3.91147e-08 0)
(1.91682e-09 4.16308e-08 0)
(-8.49076e-10 3.08297e-08 0)
(-6.86345e-09 1.99087e-08 0)
(-1.15588e-08 1.20091e-08 0)
(-1.46792e-08 6.89633e-09 0)
(-9.16014e-09 3.31012e-09 0)
(-2.50899e-09 -2.26737e-09 0)
(1.16951e-08 -7.67735e-09 0)
(1.86743e-08 -2.0942e-08 0)
(3.91831e-08 -2.70044e-08 0)
(4.53764e-08 -3.24978e-08 0)
(6.10891e-08 -2.93501e-08 0)
(5.86321e-08 -2.77943e-08 0)
)
;

boundaryField
{
    sides
    {
        type            calculated;
        value           nonuniform List<vector> 
40
(
(1.98016e-09 0 0)
(-1.70548e-08 0 0)
(-2.98681e-08 0 0)
(-4.62822e-08 0 0)
(-3.20438e-08 0 0)
(-1.20571e-08 0 0)
(-3.63595e-09 0 0)
(1.91682e-09 0 0)
(-8.49076e-10 0 0)
(-6.86345e-09 0 0)
(-1.15588e-08 0 0)
(-1.46792e-08 0 0)
(-9.16014e-09 0 0)
(-2.50899e-09 0 0)
(1.16951e-08 0 0)
(1.86743e-08 0 0)
(3.91831e-08 0 0)
(4.53764e-08 0 0)
(6.10891e-08 0 0)
(5.86321e-08 0 0)
(-1.98982e-09 0 0)
(1.70856e-08 0 0)
(2.99099e-08 0 0)
(4.63711e-08 0 0)
(3.21214e-08 0 0)
(1.20748e-08 0 0)
(3.64821e-09 0 0)
(-1.91955e-09 0 0)
(8.34549e-10 0 0)
(6.83686e-09 0 0)
(1.15226e-08 0 0)
(1.46347e-08 0 0)
(9.10644e-09 0 0)
(2.45833e-09 0 0)
(-1.17463e-08 0 0)
(-1.87223e-08 0 0)
(-3.92142e-08 0 0)
(-4.53979e-08 0 0)
(-6.10931e-08 0 0)
(-5.86413e-08 0 0)
)
;
    }
    inlet
    {
        type            calculated;
        value           uniform (0 0 0);
    }
    outlet
    {
        type            calculated;
        value           nonuniform List<vector> 
20
(
(-5.86413e-08 -2.78007e-08 0)
(-4.74379e-08 -1.80535e-09 0)
(-1.20946e-08 -4.56912e-08 0)
(2.81592e-09 -2.12947e-08 0)
(2.13185e-08 -3.70999e-08 0)
(2.45795e-08 -3.11785e-08 0)
(2.41891e-08 -3.33423e-08 0)
(1.95123e-08 -3.35117e-08 0)
(1.19557e-08 -3.38113e-08 0)
(3.75467e-09 -3.44497e-08 0)
(-3.73022e-09 -3.44479e-08 0)
(-1.19323e-08 -3.38065e-08 0)
(-1.94893e-08 -3.3505e-08 0)
(-2.41652e-08 -3.33303e-08 0)
(-2.4557e-08 -3.11716e-08 0)
(-2.12939e-08 -3.70741e-08 0)
(-2.77821e-09 -2.12928e-08 0)
(1.21135e-08 -4.56613e-08 0)
(4.75096e-08 -1.79272e-09 0)
(5.86321e-08 -2.77943e-08 0)
)
;
    }
    frontAndBack
    {
        type            empty;
    }
}


// ************************************************************************* //
