/*--------------------------------*- C++ -*----------------------------------*\
  =========                 |
  \\      /  F ield         | OpenFOAM: The Open Source CFD Toolbox
   \\    /   O peration     | Website:  https://openfoam.org
    \\  /    A nd           | Version:  7
     \\/     M anipulation  |
\*---------------------------------------------------------------------------*/
FoamFile
{
    version     2.0;
    format      ascii;
    class       volScalarField;
    location    "4";
    object      hTotal;
}
// * * * * * * * * * * * * * * * * * * * * * * * * * * * * * * * * * * * * * //

dimensions      [0 1 0 0 0 0 0];

internalField   nonuniform List<scalar> 
400
(
0.0100011
0.0100011
0.0100011
0.0100011
0.010001
0.010001
0.0100009
0.0100009
0.0100008
0.0100007
0.0100006
0.0100005
0.0100004
0.0100004
0.0100003
0.0100002
0.0100002
0.0100002
0.0100001
0.0100001
0.010001
0.010001
0.010001
0.0100009
0.0100009
0.0100009
0.0100008
0.0100007
0.0100006
0.0100005
0.0100005
0.0100004
0.0100003
0.0100002
0.0100002
0.0100001
0.0100001
0.0100001
0.0100001
0.01
0.0100009
0.0100009
0.0100009
0.0100009
0.0100008
0.0100008
0.0100008
0.0100007
0.0100007
0.0100006
0.0100005
0.0100004
0.0100004
0.0100003
0.0100002
0.0100002
0.0100001
0.0100001
0.0100001
0.01
0.0100008
0.0100008
0.0100008
0.0100008
0.0100007
0.0100007
0.0100006
0.0100006
0.0100005
0.0100004
0.0100004
0.0100003
0.0100003
0.0100002
0.0100002
0.0100002
0.0100001
0.0100001
0.0100001
0.01
0.0100007
0.0100007
0.0100007
0.0100007
0.0100006
0.0100006
0.0100006
0.0100005
0.0100005
0.0100004
0.0100004
0.0100003
0.0100003
0.0100002
0.0100002
0.0100002
0.0100001
0.0100001
0.0100001
0.01
0.0100005
0.0100005
0.0100005
0.0100005
0.0100005
0.0100005
0.0100004
0.0100004
0.0100004
0.0100003
0.0100003
0.0100003
0.0100002
0.0100002
0.0100002
0.0100001
0.0100001
0.0100001
0.0100001
0.01
0.0100004
0.0100004
0.0100004
0.0100004
0.0100004
0.0100004
0.0100003
0.0100003
0.0100003
0.0100003
0.0100002
0.0100002
0.0100002
0.0100002
0.0100001
0.0100001
0.0100001
0.0100001
0.01
0.01
0.0100003
0.0100003
0.0100003
0.0100003
0.0100003
0.0100003
0.0100002
0.0100002
0.0100002
0.0100002
0.0100002
0.0100002
0.0100001
0.0100001
0.0100001
0.0100001
0.0100001
0.01
0.01
0.01
0.0100002
0.0100002
0.0100002
0.0100002
0.0100002
0.0100002
0.0100001
0.0100001
0.0100001
0.0100001
0.0100001
0.0100001
0.0100001
0.0100001
0.0100001
0.01
0.01
0.01
0.01
0.01
0.0100001
0.0100001
0.0100001
0.0100001
0.0100001
0.0100001
0.01
0.01
0.01
0.01
0.01
0.01
0.01
0.01
0.01
0.01
0.01
0.01
0.01
0.01
0.00999994
0.00999994
0.00999994
0.00999994
0.00999994
0.00999995
0.00999995
0.00999996
0.00999996
0.00999996
0.00999997
0.00999997
0.00999997
0.00999998
0.00999998
0.00999998
0.00999999
0.00999999
0.00999999
0.01
0.00999982
0.00999982
0.00999981
0.00999981
0.00999982
0.00999984
0.00999985
0.00999987
0.00999988
0.00999989
0.0099999
0.00999991
0.00999992
0.00999993
0.00999994
0.00999995
0.00999996
0.00999997
0.00999998
0.00999999
0.0099997
0.0099997
0.00999969
0.00999969
0.0099997
0.00999973
0.00999975
0.00999978
0.0099998
0.00999982
0.00999983
0.00999985
0.00999987
0.00999988
0.0099999
0.00999992
0.00999993
0.00999995
0.00999997
0.00999999
0.00999958
0.00999958
0.00999957
0.00999957
0.00999958
0.00999961
0.00999965
0.00999969
0.00999972
0.00999975
0.00999977
0.00999979
0.00999982
0.00999984
0.00999986
0.00999989
0.00999991
0.00999993
0.00999996
0.00999999
0.00999946
0.00999946
0.00999945
0.00999945
0.00999947
0.0099995
0.00999955
0.00999959
0.00999964
0.00999968
0.00999971
0.00999974
0.00999977
0.0099998
0.00999983
0.00999986
0.00999989
0.00999992
0.00999995
0.00999998
0.00999935
0.00999935
0.00999934
0.00999935
0.00999936
0.00999941
0.00999943
0.00999948
0.00999954
0.0099996
0.00999964
0.00999969
0.00999973
0.00999977
0.0099998
0.00999983
0.00999987
0.0099999
0.00999994
0.00999998
0.00999923
0.00999923
0.00999923
0.00999924
0.00999927
0.00999931
0.00999938
0.00999944
0.0099995
0.00999956
0.00999963
0.00999968
0.00999973
0.00999977
0.00999981
0.00999984
0.00999987
0.00999991
0.00999994
0.00999998
0.00999912
0.00999912
0.00999912
0.00999913
0.00999915
0.0099992
0.00999924
0.00999928
0.00999935
0.00999942
0.0099995
0.00999957
0.00999965
0.00999971
0.00999977
0.00999982
0.00999985
0.00999989
0.00999993
0.00999997
0.00999903
0.00999903
0.00999904
0.00999906
0.00999909
0.00999914
0.00999921
0.00999929
0.00999937
0.00999945
0.00999953
0.00999961
0.00999969
0.00999976
0.00999981
0.00999985
0.00999989
0.00999992
0.00999995
0.00999998
0.00999891
0.00999892
0.00999892
0.00999893
0.00999897
0.00999902
0.00999907
0.00999914
0.00999921
0.00999929
0.00999938
0.00999947
0.00999956
0.00999964
0.00999971
0.00999976
0.00999981
0.00999984
0.00999989
0.00999995
)
;

boundaryField
{
    sides
    {
        type            calculated;
        value           nonuniform List<scalar> 
40
(
0.00999891
0.00999892
0.00999892
0.00999893
0.00999897
0.00999902
0.00999907
0.00999914
0.00999921
0.00999929
0.00999938
0.00999947
0.00999956
0.00999964
0.00999971
0.00999976
0.00999981
0.00999984
0.00999989
0.00999995
0.0100011
0.0100011
0.0100011
0.0100011
0.010001
0.010001
0.0100009
0.0100009
0.0100008
0.0100007
0.0100006
0.0100005
0.0100004
0.0100004
0.0100003
0.0100002
0.0100002
0.0100002
0.0100001
0.0100001
)
;
    }
    inlet
    {
        type            calculated;
        value           nonuniform List<scalar> 
20
(
0.0100011
0.010001
0.0100009
0.0100008
0.0100007
0.0100005
0.0100004
0.0100003
0.0100002
0.0100001
0.00999994
0.00999982
0.0099997
0.00999958
0.00999946
0.00999935
0.00999923
0.00999912
0.00999903
0.00999891
)
;
    }
    outlet
    {
        type            calculated;
        value           uniform 0.01;
    }
    frontAndBack
    {
        type            empty;
    }
}


// ************************************************************************* //
