/*--------------------------------*- C++ -*----------------------------------*\
  =========                 |
  \\      /  F ield         | OpenFOAM: The Open Source CFD Toolbox
   \\    /   O peration     | Website:  https://openfoam.org
    \\  /    A nd           | Version:  7
     \\/     M anipulation  |
\*---------------------------------------------------------------------------*/
FoamFile
{
    version     2.0;
    format      ascii;
    class       volVectorField;
    location    "4";
    object      hU_0;
}
// * * * * * * * * * * * * * * * * * * * * * * * * * * * * * * * * * * * * * //

dimensions      [0 2 -1 0 0 0 0];

internalField   nonuniform List<vector> 
400
(
(0.001 -6.79078e-09 0)
(0.000999997 -2.01179e-08 0)
(0.000999977 -2.97525e-08 0)
(0.000999954 -3.80608e-08 0)
(0.00099994 -4.901e-08 0)
(0.000999943 -6.39764e-08 0)
(0.00099996 -8.04756e-08 0)
(0.000999985 -9.33343e-08 0)
(0.00100002 -9.87533e-08 0)
(0.00100005 -9.82769e-08 0)
(0.00100009 -9.59406e-08 0)
(0.00100013 -9.41143e-08 0)
(0.00100016 -9.39927e-08 0)
(0.0010002 -9.70997e-08 0)
(0.00100024 -1.01162e-07 0)
(0.00100029 -1.15024e-07 0)
(0.00100032 -1.18263e-07 0)
(0.00100041 -1.48944e-07 0)
(0.00100041 -1.45604e-07 0)
(0.00100059 -2.19327e-07 0)
(0.001 1.64076e-08 0)
(0.001 3.65679e-08 0)
(0.000999988 5.21955e-08 0)
(0.000999972 6.66595e-08 0)
(0.000999965 7.71779e-08 0)
(0.000999967 7.80745e-08 0)
(0.000999974 7.34298e-08 0)
(0.00099999 7.1424e-08 0)
(0.00100002 7.17281e-08 0)
(0.00100005 7.31262e-08 0)
(0.00100008 7.41997e-08 0)
(0.00100011 7.40769e-08 0)
(0.00100015 7.22469e-08 0)
(0.00100018 6.75112e-08 0)
(0.00100021 6.30673e-08 0)
(0.00100026 4.55417e-08 0)
(0.00100029 4.11548e-08 0)
(0.00100035 -3.0557e-09 0)
(0.00100037 -1.03819e-09 0)
(0.00100047 -1.06364e-07 0)
(0.001 1.4029e-08 0)
(0.000999999 2.44371e-08 0)
(0.000999978 2.78278e-08 0)
(0.000999954 2.72634e-08 0)
(0.000999942 1.47015e-08 0)
(0.000999946 -8.96103e-09 0)
(0.000999968 -3.75802e-08 0)
(0.000999994 -5.89928e-08 0)
(0.00100002 -6.83572e-08 0)
(0.00100005 -7.02146e-08 0)
(0.00100008 -6.97674e-08 0)
(0.00100011 -7.09556e-08 0)
(0.00100015 -7.55488e-08 0)
(0.00100018 -8.54743e-08 0)
(0.00100021 -9.65542e-08 0)
(0.00100025 -1.19052e-07 0)
(0.00100028 -1.32746e-07 0)
(0.00100033 -1.78069e-07 0)
(0.00100035 -1.86258e-07 0)
(0.00100044 -2.7713e-07 0)
(0.001 2.00506e-08 0)
(0.001 4.55949e-08 0)
(0.00099999 6.51222e-08 0)
(0.00099997 7.86085e-08 0)
(0.000999963 7.72437e-08 0)
(0.000999967 5.92744e-08 0)
(0.000999972 3.73918e-08 0)
(0.00099999 1.96767e-08 0)
(0.00100002 1.23406e-08 0)
(0.00100004 1.263e-08 0)
(0.00100007 1.41939e-08 0)
(0.0010001 1.24115e-08 0)
(0.00100013 5.47629e-09 0)
(0.00100015 -9.43419e-09 0)
(0.00100018 -2.77479e-08 0)
(0.00100021 -5.96506e-08 0)
(0.00100024 -8.15039e-08 0)
(0.00100028 -1.38285e-07 0)
(0.0010003 -1.51013e-07 0)
(0.00100036 -2.58601e-07 0)
(0.001 2.17273e-08 0)
(0.001 4.93426e-08 0)
(0.000999987 6.74516e-08 0)
(0.000999967 7.43006e-08 0)
(0.000999958 6.05709e-08 0)
(0.000999966 2.62025e-08 0)
(0.000999983 -9.66938e-09 0)
(0.001 -3.22464e-08 0)
(0.00100002 -4.24924e-08 0)
(0.00100004 -4.58951e-08 0)
(0.00100007 -4.8512e-08 0)
(0.00100009 -5.42153e-08 0)
(0.00100011 -6.40839e-08 0)
(0.00100014 -7.9607e-08 0)
(0.00100016 -9.76885e-08 0)
(0.00100019 -1.26548e-07 0)
(0.00100021 -1.47976e-07 0)
(0.00100024 -2.00103e-07 0)
(0.00100026 -2.13576e-07 0)
(0.00100031 -3.11247e-07 0)
(0.001 2.21085e-08 0)
(0.001 5.56309e-08 0)
(0.000999991 8.07421e-08 0)
(0.000999974 9.21359e-08 0)
(0.000999968 7.75858e-08 0)
(0.000999972 4.2866e-08 0)
(0.000999983 2.47033e-09 0)
(0.000999999 -2.57211e-08 0)
(0.00100002 -3.84216e-08 0)
(0.00100004 -4.26957e-08 0)
(0.00100006 -4.59613e-08 0)
(0.00100008 -5.28452e-08 0)
(0.00100009 -6.47658e-08 0)
(0.00100011 -8.28533e-08 0)
(0.00100013 -1.04064e-07 0)
(0.00100016 -1.35417e-07 0)
(0.00100017 -1.60147e-07 0)
(0.0010002 -2.14164e-07 0)
(0.00100021 -2.29818e-07 0)
(0.00100025 -3.27435e-07 0)
(0.001 2.18634e-08 0)
(0.001 5.98556e-08 0)
(0.000999993 8.97933e-08 0)
(0.000999978 1.00162e-07 0)
(0.000999973 8.01618e-08 0)
(0.000999978 3.74775e-08 0)
(0.000999988 -5.37433e-09 0)
(0.001 -3.439e-08 0)
(0.00100002 -4.8617e-08 0)
(0.00100003 -5.49558e-08 0)
(0.00100005 -6.03963e-08 0)
(0.00100006 -6.89789e-08 0)
(0.00100007 -8.19749e-08 0)
(0.00100009 -1.00393e-07 0)
(0.0010001 -1.22138e-07 0)
(0.00100012 -1.53347e-07 0)
(0.00100014 -1.79144e-07 0)
(0.00100016 -2.32929e-07 0)
(0.00100016 -2.49405e-07 0)
(0.00100019 -3.45033e-07 0)
(0.001 2.11751e-08 0)
(0.001 6.25232e-08 0)
(0.000999995 9.67178e-08 0)
(0.000999984 1.07444e-07 0)
(0.00099998 8.41676e-08 0)
(0.000999984 3.79249e-08 0)
(0.000999992 -8.25986e-09 0)
(0.001 -3.96756e-08 0)
(0.00100001 -5.57745e-08 0)
(0.00100002 -6.36882e-08 0)
(0.00100003 -7.02845e-08 0)
(0.00100004 -7.94878e-08 0)
(0.00100005 -9.28128e-08 0)
(0.00100006 -1.114e-07 0)
(0.00100008 -1.33663e-07 0)
(0.00100009 -1.64992e-07 0)
(0.0010001 -1.91691e-07 0)
(0.00100011 -2.45404e-07 0)
(0.00100012 -2.62464e-07 0)
(0.00100014 -3.56546e-07 0)
(0.001 2.06665e-08 0)
(0.001 6.43095e-08 0)
(0.000999997 1.01685e-07 0)
(0.00099999 1.12723e-07 0)
(0.000999988 8.70302e-08 0)
(0.00099999 3.79576e-08 0)
(0.000999995 -1.03751e-08 0)
(0.001 -4.34282e-08 0)
(0.00100001 -6.09448e-08 0)
(0.00100001 -6.98717e-08 0)
(0.00100002 -7.70126e-08 0)
(0.00100003 -8.64434e-08 0)
(0.00100003 -9.99081e-08 0)
(0.00100004 -1.18616e-07 0)
(0.00100005 -1.41252e-07 0)
(0.00100005 -1.72616e-07 0)
(0.00100006 -1.99812e-07 0)
(0.00100007 -2.53417e-07 0)
(0.00100007 -2.70806e-07 0)
(0.00100008 -3.6393e-07 0)
(0.001 2.04021e-08 0)
(0.001 6.52671e-08 0)
(0.000999999 1.04361e-07 0)
(0.000999997 1.15549e-07 0)
(0.000999996 8.86036e-08 0)
(0.000999997 3.81329e-08 0)
(0.000999998 -1.13262e-08 0)
(0.001 -4.53042e-08 0)
(0.001 -6.3604e-08 0)
(0.001 -7.29613e-08 0)
(0.00100001 -8.02306e-08 0)
(0.00100001 -8.97322e-08 0)
(0.00100001 -1.03285e-07 0)
(0.00100001 -1.22029e-07 0)
(0.00100002 -1.44797e-07 0)
(0.00100002 -1.76134e-07 0)
(0.00100002 -2.03575e-07 0)
(0.00100002 -2.57181e-07 0)
(0.00100002 -2.74783e-07 0)
(0.00100003 -3.67478e-07 0)
(0.001 2.04015e-08 0)
(0.000999999 6.52646e-08 0)
(0.001 1.04357e-07 0)
(0.001 1.15546e-07 0)
(0.001 8.86027e-08 0)
(0.001 3.81343e-08 0)
(0.001 -1.13239e-08 0)
(0.000999999 -4.53023e-08 0)
(0.000999997 -6.36026e-08 0)
(0.000999995 -7.29601e-08 0)
(0.000999993 -8.02295e-08 0)
(0.000999991 -8.97311e-08 0)
(0.000999989 -1.03284e-07 0)
(0.000999987 -1.22028e-07 0)
(0.000999985 -1.44796e-07 0)
(0.000999982 -1.76132e-07 0)
(0.00099998 -2.03573e-07 0)
(0.000999978 -2.57179e-07 0)
(0.000999976 -2.74781e-07 0)
(0.000999973 -3.67473e-07 0)
(0.001 2.06645e-08 0)
(0.000999998 6.43019e-08 0)
(0.001 1.01673e-07 0)
(0.00100001 1.12713e-07 0)
(0.00100001 8.7027e-08 0)
(0.00100001 3.79616e-08 0)
(0.001 -1.03684e-08 0)
(0.000999999 -4.34226e-08 0)
(0.000999992 -6.09408e-08 0)
(0.000999986 -6.98684e-08 0)
(0.00099998 -7.70094e-08 0)
(0.000999974 -8.64402e-08 0)
(0.000999967 -9.99049e-08 0)
(0.000999961 -1.18613e-07 0)
(0.000999955 -1.41249e-07 0)
(0.000999947 -1.72612e-07 0)
(0.000999942 -1.99809e-07 0)
(0.000999933 -2.53408e-07 0)
(0.000999929 -2.708e-07 0)
(0.000999918 -3.63917e-07 0)
(0.000999999 2.11713e-08 0)
(0.000999997 6.25105e-08 0)
(0.001 9.66987e-08 0)
(0.00100002 1.07427e-07 0)
(0.00100002 8.41621e-08 0)
(0.00100002 3.79307e-08 0)
(0.00100001 -8.24965e-09 0)
(0.000999998 -3.96668e-08 0)
(0.000999988 -5.57683e-08 0)
(0.000999977 -6.3683e-08 0)
(0.000999967 -7.02795e-08 0)
(0.000999957 -7.94824e-08 0)
(0.000999946 -9.28075e-08 0)
(0.000999935 -1.11395e-07 0)
(0.000999924 -1.33658e-07 0)
(0.000999913 -1.64984e-07 0)
(0.000999903 -1.91685e-07 0)
(0.000999889 -2.45389e-07 0)
(0.000999882 -2.62454e-07 0)
(0.000999864 -3.56524e-07 0)
(0.000999999 2.18579e-08 0)
(0.000999997 5.98386e-08 0)
(0.00100001 8.97683e-08 0)
(0.00100002 1.00139e-07 0)
(0.00100003 8.01534e-08 0)
(0.00100002 3.74843e-08 0)
(0.00100001 -5.36147e-09 0)
(0.000999999 -3.43785e-08 0)
(0.000999985 -4.86084e-08 0)
(0.00099997 -5.49485e-08 0)
(0.000999955 -6.03887e-08 0)
(0.00099994 -6.89706e-08 0)
(0.000999925 -8.19662e-08 0)
(0.00099991 -1.00384e-07 0)
(0.000999895 -1.22129e-07 0)
(0.000999878 -1.53335e-07 0)
(0.000999865 -1.79134e-07 0)
(0.000999844 -2.32907e-07 0)
(0.000999835 -2.4939e-07 0)
(0.000999808 -3.45001e-07 0)
(0.000999999 2.21022e-08 0)
(0.000999997 5.56119e-08 0)
(0.00100001 8.07141e-08 0)
(0.00100003 9.21097e-08 0)
(0.00100003 7.75742e-08 0)
(0.00100003 4.28704e-08 0)
(0.00100002 2.48166e-09 0)
(0.001 -2.57116e-08 0)
(0.000999982 -3.84158e-08 0)
(0.000999963 -4.26917e-08 0)
(0.000999944 -4.59572e-08 0)
(0.000999925 -5.28398e-08 0)
(0.000999905 -6.47595e-08 0)
(0.000999886 -8.28456e-08 0)
(0.000999866 -1.04057e-07 0)
(0.000999845 -1.35406e-07 0)
(0.000999827 -1.60141e-07 0)
(0.000999801 -2.14144e-07 0)
(0.000999788 -2.29808e-07 0)
(0.000999752 -3.27403e-07 0)
(0.000999998 2.172e-08 0)
(0.000999997 4.93227e-08 0)
(0.00100001 6.74238e-08 0)
(0.00100003 7.42752e-08 0)
(0.00100004 6.05624e-08 0)
(0.00100003 2.62144e-08 0)
(0.00100002 -9.64694e-09 0)
(0.001 -3.2224e-08 0)
(0.000999981 -4.24729e-08 0)
(0.000999958 -4.5877e-08 0)
(0.000999934 -4.84935e-08 0)
(0.00099991 -5.4195e-08 0)
(0.000999886 -6.4062e-08 0)
(0.000999862 -7.95823e-08 0)
(0.000999838 -9.76642e-08 0)
(0.000999812 -1.26517e-07 0)
(0.000999791 -1.47951e-07 0)
(0.000999757 -2.00059e-07 0)
(0.000999743 -2.13545e-07 0)
(0.000999693 -3.11187e-07 0)
(0.000999998 2.00418e-08 0)
(0.000999997 4.55738e-08 0)
(0.00100001 6.50931e-08 0)
(0.00100003 7.85798e-08 0)
(0.00100004 7.72279e-08 0)
(0.00100003 5.92744e-08 0)
(0.00100003 3.73985e-08 0)
(0.00100001 1.96832e-08 0)
(0.000999984 1.23447e-08 0)
(0.000999956 1.26338e-08 0)
(0.000999928 1.41993e-08 0)
(0.000999901 1.24199e-08 0)
(0.000999875 5.48666e-09 0)
(0.000999847 -9.4204e-09 0)
(0.000999819 -2.77364e-08 0)
(0.000999787 -5.96332e-08 0)
(0.000999761 -8.14965e-08 0)
(0.000999719 -1.38262e-07 0)
(0.0009997 -1.51012e-07 0)
(0.000999639 -2.58579e-07 0)
(0.000999997 1.40184e-08 0)
(0.001 2.44182e-08 0)
(0.00100002 2.7805e-08 0)
(0.00100005 2.72427e-08 0)
(0.00100006 1.46942e-08 0)
(0.00100005 -8.95012e-09 0)
(0.00100003 -3.75582e-08 0)
(0.00100001 -5.89694e-08 0)
(0.000999981 -6.83368e-08 0)
(0.000999952 -7.01957e-08 0)
(0.000999921 -6.97474e-08 0)
(0.000999888 -7.09328e-08 0)
(0.000999854 -7.55236e-08 0)
(0.000999819 -8.54442e-08 0)
(0.000999787 -9.65258e-08 0)
(0.000999748 -1.19011e-07 0)
(0.000999721 -1.32718e-07 0)
(0.000999667 -1.78012e-07 0)
(0.000999652 -1.86227e-07 0)
(0.00099956 -2.77046e-07 0)
(0.000999996 1.63995e-08 0)
(0.000999997 3.65542e-08 0)
(0.00100001 5.21775e-08 0)
(0.00100003 6.664e-08 0)
(0.00100004 7.7162e-08 0)
(0.00100003 7.80678e-08 0)
(0.00100003 7.34327e-08 0)
(0.00100001 7.14309e-08 0)
(0.000999984 7.17368e-08 0)
(0.000999952 7.31362e-08 0)
(0.00099992 7.42115e-08 0)
(0.000999887 7.40895e-08 0)
(0.000999855 7.22591e-08 0)
(0.00099982 6.75241e-08 0)
(0.000999788 6.30747e-08 0)
(0.000999745 4.55559e-08 0)
(0.000999713 4.11546e-08 0)
(0.000999651 -3.04259e-09 0)
(0.000999628 -1.04656e-09 0)
(0.000999528 -1.06359e-07 0)
(0.000999996 -6.78919e-09 0)
(0.001 -2.01155e-08 0)
(0.00100002 -2.9753e-08 0)
(0.00100005 -3.80607e-08 0)
(0.00100006 -4.90094e-08 0)
(0.00100006 -6.39791e-08 0)
(0.00100004 -8.04839e-08 0)
(0.00100001 -9.33472e-08 0)
(0.000999983 -9.87662e-08 0)
(0.000999947 -9.82857e-08 0)
(0.000999911 -9.59438e-08 0)
(0.000999873 -9.41117e-08 0)
(0.000999838 -9.39874e-08 0)
(0.000999796 -9.70874e-08 0)
(0.000999764 -1.01153e-07 0)
(0.000999707 -1.15e-07 0)
(0.000999685 -1.18253e-07 0)
(0.000999592 -1.48909e-07 0)
(0.000999587 -1.45587e-07 0)
(0.000999405 -2.19291e-07 0)
)
;

boundaryField
{
    sides
    {
        type            slip;
    }
    inlet
    {
        type            fixedValue;
        value           uniform (0.001 0 0);
    }
    outlet
    {
        type            zeroGradient;
    }
    frontAndBack
    {
        type            empty;
    }
}


// ************************************************************************* //
