/*--------------------------------*- C++ -*----------------------------------*\
  =========                 |
  \\      /  F ield         | OpenFOAM: The Open Source CFD Toolbox
   \\    /   O peration     | Website:  https://openfoam.org
    \\  /    A nd           | Version:  7
     \\/     M anipulation  |
\*---------------------------------------------------------------------------*/
FoamFile
{
    version     2.0;
    format      ascii;
    class       surfaceScalarField;
    location    "4";
    object      phi_0;
}
// * * * * * * * * * * * * * * * * * * * * * * * * * * * * * * * * * * * * * //

dimensions      [0 4 -1 0 0 0 0];

internalField   nonuniform List<scalar> 
760
(
4.99995e-06
5.19535e-11
4.99988e-06
7.54452e-11
4.99982e-06
9.73207e-11
4.99975e-06
1.17889e-10
4.99972e-06
1.19422e-10
4.99975e-06
7.10493e-11
4.99985e-06
2.02539e-11
5e-06
-1.03749e-11
5.00017e-06
-2.13687e-11
5.00035e-06
-1.67116e-11
5.00054e-06
-9.47247e-12
5.00072e-06
-6.51526e-12
5.00091e-06
-1.22742e-11
5.00111e-06
-3.41498e-11
5.00131e-06
-5.48785e-11
5.00153e-06
-1.17564e-10
5.00175e-06
-1.36538e-10
5.00209e-06
-3.00921e-10
5.00241e-06
-2.97511e-10
-7.4693e-10
4.99998e-06
6.26741e-11
4.99993e-06
1.29715e-10
4.99988e-06
1.69768e-10
4.99985e-06
1.95692e-10
4.99984e-06
1.89344e-10
4.99985e-06
1.31618e-10
4.9999e-06
5.31583e-11
5.00001e-06
-1.32642e-11
5.00016e-06
-3.73048e-11
5.00032e-06
-3.86857e-11
5.00048e-06
-3.36393e-11
5.00065e-06
-3.52432e-11
5.00081e-06
-4.89091e-11
5.00098e-06
-9.57348e-11
5.00116e-06
-1.43025e-10
5.00137e-06
-2.58284e-10
5.00157e-06
-3.03282e-10
5.00184e-06
-5.43583e-10
5.0021e-06
-5.48838e-10
-1.01952e-09
4.99996e-06
9.43716e-11
4.9999e-06
1.94759e-10
4.99982e-06
2.59046e-10
4.99975e-06
3.02483e-10
4.99972e-06
2.60569e-10
4.99978e-06
1.59291e-10
4.99991e-06
3.16491e-11
5.00003e-06
-4.96308e-11
5.00017e-06
-8.25708e-11
5.00032e-06
-8.74948e-11
5.00048e-06
-8.59167e-11
5.00065e-06
-9.41741e-11
5.00082e-06
-1.20755e-10
5.00099e-06
-1.77751e-10
5.00116e-06
-2.49592e-10
5.00133e-06
-3.82436e-10
5.00152e-06
-4.7321e-10
5.00171e-06
-7.24398e-10
5.00195e-06
-7.81691e-10
-1.30162e-09
4.99998e-06
1.04256e-10
4.99994e-06
2.28921e-10
4.99989e-06
3.17427e-10
4.99984e-06
3.56518e-10
4.99984e-06
3.24566e-10
4.99984e-06
1.79911e-10
4.99989e-06
4.70728e-11
5.00001e-06
-7.88967e-11
5.00015e-06
-1.25159e-10
5.00029e-06
-1.32242e-10
5.00043e-06
-1.34307e-10
5.00056e-06
-1.54289e-10
5.0007e-06
-1.99129e-10
5.00084e-06
-2.78169e-10
5.00098e-06
-3.69643e-10
5.00113e-06
-5.21425e-10
5.00129e-06
-6.26642e-10
5.00147e-06
-8.96953e-10
5.00165e-06
-9.57733e-10
-1.44897e-09
4.99998e-06
1.11374e-10
4.99994e-06
2.68207e-10
4.99987e-06
3.78416e-10
4.99983e-06
4.31552e-10
4.99981e-06
3.54732e-10
4.99987e-06
1.92507e-10
4.99996e-06
6.30341e-12
5.00005e-06
-1.16307e-10
5.00015e-06
-1.74085e-10
5.00027e-06
-1.92518e-10
5.00039e-06
-2.06521e-10
5.00051e-06
-2.38314e-10
5.00063e-06
-2.94561e-10
5.00075e-06
-3.81763e-10
5.00088e-06
-4.83451e-10
5.001e-06
-6.37508e-10
5.00113e-06
-7.55287e-10
5.00126e-06
-1.02294e-09
5.0014e-06
-1.09509e-09
-1.58875e-09
4.99999e-06
1.11821e-10
4.99995e-06
2.92106e-10
4.9999e-06
4.28219e-10
4.99986e-06
4.78815e-10
4.99985e-06
3.89935e-10
4.99988e-06
1.91818e-10
4.99995e-06
-1.27663e-11
5.00004e-06
-1.52286e-10
5.00014e-06
-2.18965e-10
5.00024e-06
-2.46422e-10
5.00033e-06
-2.70048e-10
5.00043e-06
-3.10648e-10
5.00052e-06
-3.74113e-10
5.00062e-06
-4.6548e-10
5.00072e-06
-5.7238e-10
5.00082e-06
-7.27818e-10
5.00093e-06
-8.53168e-10
5.00103e-06
-1.12158e-09
5.00115e-06
-1.20105e-09
-1.68329e-09
4.99999e-06
1.08288e-10
4.99997e-06
3.07488e-10
4.99992e-06
4.66952e-10
4.99988e-06
5.19791e-10
4.99988e-06
4.11846e-10
4.99991e-06
1.90702e-10
4.99997e-06
-3.18046e-11
5.00004e-06
-1.83098e-10
5.00012e-06
-2.59156e-10
5.00019e-06
-2.95551e-10
5.00026e-06
-3.2673e-10
5.00034e-06
-3.72114e-10
5.00041e-06
-4.38393e-10
5.00049e-06
-5.30836e-10
5.00057e-06
-6.4054e-10
5.00065e-06
-7.96737e-10
5.00073e-06
-9.2789e-10
5.00081e-06
-1.19647e-09
5.00089e-06
-1.27979e-09
-1.75389e-09
5e-06
1.05328e-10
4.99998e-06
3.18166e-10
4.99994e-06
4.96893e-10
4.99991e-06
5.51881e-10
4.99991e-06
4.29425e-10
4.99994e-06
1.91019e-10
4.99998e-06
-4.4834e-11
5.00004e-06
-2.0627e-10
5.00009e-06
-2.90988e-10
5.00014e-06
-3.34114e-10
5.00019e-06
-3.69402e-10
5.00024e-06
-4.16378e-10
5.0003e-06
-4.83344e-10
5.00035e-06
-5.76514e-10
5.00041e-06
-6.88652e-10
5.00046e-06
-8.4521e-10
5.00052e-06
-9.79634e-10
5.00058e-06
-1.24743e-09
5.00063e-06
-1.33289e-09
-1.80118e-09
5e-06
1.03278e-10
4.99999e-06
3.24915e-10
4.99996e-06
5.16306e-10
4.99995e-06
5.72458e-10
4.99994e-06
4.41203e-10
4.99996e-06
1.91584e-10
4.99999e-06
-5.20795e-11
5.00002e-06
-2.20506e-10
5.00006e-06
-3.11175e-10
5.00009e-06
-3.5772e-10
5.00012e-06
-3.94132e-10
5.00015e-06
-4.41581e-10
5.00018e-06
-5.09121e-10
5.00021e-06
-6.02738e-10
5.00025e-06
-7.16198e-10
5.00028e-06
-8.72744e-10
5.00031e-06
-1.00894e-09
5.00035e-06
-1.27643e-09
5.00038e-06
-1.36333e-09
-1.82837e-09
5e-06
1.02737e-10
5e-06
3.27351e-10
4.99999e-06
5.23228e-10
4.99998e-06
5.79662e-10
4.99998e-06
4.45466e-10
4.99999e-06
1.91552e-10
5e-06
-5.42445e-11
5.00001e-06
-2.2519e-10
5.00002e-06
-3.17917e-10
5.00003e-06
-3.6534e-10
5.00004e-06
-4.01766e-10
5.00005e-06
-4.49365e-10
5.00006e-06
-5.17312e-10
5.00007e-06
-6.11032e-10
5.00008e-06
-7.24683e-10
5.00009e-06
-8.81119e-10
5.0001e-06
-1.01809e-09
5.00011e-06
-1.28585e-09
5.00013e-06
-1.37346e-09
-1.83734e-09
5e-06
1.03272e-10
5e-06
3.24891e-10
5.00001e-06
5.16267e-10
5.00002e-06
5.72424e-10
5.00002e-06
4.41193e-10
5.00001e-06
1.91599e-10
5e-06
-5.20569e-11
4.99999e-06
-2.20487e-10
4.99998e-06
-3.11162e-10
4.99997e-06
-3.57709e-10
4.99996e-06
-3.94122e-10
4.99995e-06
-4.41571e-10
4.99994e-06
-5.09111e-10
4.99993e-06
-6.02728e-10
4.99992e-06
-7.16189e-10
4.99991e-06
-8.72729e-10
4.9999e-06
-1.00893e-09
4.99988e-06
-1.2764e-09
4.99987e-06
-1.36331e-09
-1.82833e-09
5e-06
1.05314e-10
5.00001e-06
3.18115e-10
5.00004e-06
4.96814e-10
5.00005e-06
5.51812e-10
5.00006e-06
4.29403e-10
5.00004e-06
1.91045e-10
5.00001e-06
-4.47919e-11
4.99998e-06
-2.06234e-10
4.99994e-06
-2.90963e-10
4.99991e-06
-3.34094e-10
4.99988e-06
-3.69382e-10
4.99985e-06
-4.16358e-10
4.99982e-06
-4.83324e-10
4.99979e-06
-5.76494e-10
4.99975e-06
-6.88633e-10
4.99972e-06
-8.4518e-10
4.99969e-06
-9.79611e-10
4.99965e-06
-1.24737e-09
4.99962e-06
-1.33285e-09
-1.80109e-09
5e-06
1.08264e-10
5.00002e-06
3.07414e-10
5.00006e-06
4.66837e-10
5.00009e-06
5.19691e-10
5.00009e-06
4.11811e-10
5.00006e-06
1.90734e-10
5.00002e-06
-3.17476e-11
4.99996e-06
-1.83049e-10
4.99991e-06
-2.59121e-10
4.99986e-06
-2.95522e-10
4.99981e-06
-3.26701e-10
4.99976e-06
-3.72082e-10
4.9997e-06
-4.38361e-10
4.99965e-06
-5.30804e-10
4.99959e-06
-6.4051e-10
4.99954e-06
-7.96692e-10
4.99948e-06
-9.27856e-10
4.99942e-06
-1.19639e-09
4.99936e-06
-1.27973e-09
-1.75376e-09
5.00001e-06
1.1179e-10
5.00003e-06
2.92013e-10
5.00008e-06
4.28085e-10
5.00012e-06
4.78691e-10
5.00012e-06
3.89884e-10
5.00009e-06
1.91849e-10
5.00003e-06
-1.27007e-11
4.99996e-06
-1.52227e-10
4.99988e-06
-2.18922e-10
4.99981e-06
-2.46386e-10
4.99974e-06
-2.70011e-10
4.99966e-06
-3.10607e-10
4.99959e-06
-3.74069e-10
4.99951e-06
-4.65432e-10
4.99943e-06
-5.72336e-10
4.99935e-06
-7.27755e-10
4.99927e-06
-8.53122e-10
4.99919e-06
-1.12147e-09
4.99911e-06
-1.20097e-09
-1.68312e-09
5.00001e-06
1.11341e-10
5.00005e-06
2.6811e-10
5.0001e-06
3.78273e-10
5.00014e-06
4.31417e-10
5.00015e-06
3.54677e-10
5.00012e-06
1.92543e-10
5.00005e-06
6.37133e-12
4.99996e-06
-1.16239e-10
4.99986e-06
-1.74033e-10
4.99976e-06
-1.92473e-10
4.99967e-06
-2.06474e-10
4.99957e-06
-2.3826e-10
4.99948e-06
-2.94501e-10
4.99938e-06
-3.81694e-10
4.99928e-06
-4.83386e-10
4.99918e-06
-6.37418e-10
4.99907e-06
-7.55224e-10
4.99897e-06
-1.0228e-09
4.99885e-06
-1.09501e-09
-1.58854e-09
5.00002e-06
1.04219e-10
5.00006e-06
2.28822e-10
5.00013e-06
3.17292e-10
5.00017e-06
3.56389e-10
5.00019e-06
3.24514e-10
5.00013e-06
1.79939e-10
5.00004e-06
4.71461e-11
4.99995e-06
-7.8815e-11
4.99985e-06
-1.25095e-10
4.99973e-06
-1.32183e-10
4.99961e-06
-1.34244e-10
4.99949e-06
-1.54215e-10
4.99937e-06
-1.99048e-10
4.99925e-06
-2.78073e-10
4.99912e-06
-3.69554e-10
4.999e-06
-5.21302e-10
4.99887e-06
-6.26558e-10
4.99874e-06
-8.96781e-10
4.9986e-06
-9.57643e-10
-1.44875e-09
5.00002e-06
9.43199e-11
5.00006e-06
1.94653e-10
5.00011e-06
2.58904e-10
5.00016e-06
3.02353e-10
5.00016e-06
2.60499e-10
5.00016e-06
1.5933e-10
5.00011e-06
3.17232e-11
4.99999e-06
-4.95714e-11
4.99985e-06
-8.25163e-11
4.99971e-06
-8.7443e-11
4.99957e-06
-8.58586e-11
4.99944e-06
-9.41042e-11
4.9993e-06
-1.20673e-10
4.99916e-06
-1.77641e-10
4.99902e-06
-2.49488e-10
4.99887e-06
-3.82288e-10
4.99871e-06
-4.73114e-10
4.99853e-06
-7.24197e-10
4.99835e-06
-7.81608e-10
-1.30136e-09
5.00004e-06
6.26311e-11
5.0001e-06
1.2964e-10
5.00018e-06
1.69684e-10
5.00025e-06
1.95595e-10
5.00028e-06
1.89293e-10
5.00022e-06
1.3163e-10
5.00009e-06
5.32171e-11
4.99997e-06
-1.31938e-11
4.99983e-06
-3.72364e-11
4.99968e-06
-3.86186e-11
4.99952e-06
-3.35663e-11
4.99935e-06
-3.51615e-11
4.99918e-06
-4.88238e-11
4.99901e-06
-9.55986e-11
4.99884e-06
-1.42927e-10
4.99867e-06
-2.58134e-10
4.99848e-06
-3.03207e-10
4.99829e-06
-5.43391e-10
4.99805e-06
-5.48771e-10
-1.01929e-09
5.00002e-06
5.19338e-11
5.00007e-06
7.54077e-11
5.00012e-06
9.72536e-11
5.00015e-06
1.17837e-10
5.00016e-06
1.19379e-10
5.00015e-06
7.10092e-11
5.0001e-06
2.02483e-11
4.99999e-06
-1.03815e-11
4.99984e-06
-2.13723e-11
4.99968e-06
-1.67014e-11
4.99952e-06
-9.4443e-12
4.99935e-06
-6.47106e-12
4.99919e-06
-1.22249e-11
4.99902e-06
-3.40798e-11
4.99884e-06
-5.48436e-11
4.99863e-06
-1.17483e-10
4.99843e-06
-1.36514e-10
4.99816e-06
-3.00818e-10
4.9979e-06
-2.975e-10
-7.46839e-10
5.00005e-06
5.00012e-06
5.00018e-06
5.00025e-06
5.00028e-06
5.00025e-06
5.00015e-06
5e-06
4.99983e-06
4.99964e-06
4.99946e-06
4.99928e-06
4.99909e-06
4.99889e-06
4.99869e-06
4.99846e-06
4.99825e-06
4.99791e-06
4.99759e-06
)
;

boundaryField
{
    sides
    {
        type            calculated;
        value           uniform 0;
    }
    inlet
    {
        type            calculated;
        value           nonuniform List<scalar> 
20
(
-5e-06
-5e-06
-5e-06
-5e-06
-5e-06
-5e-06
-5e-06
-5e-06
-5e-06
-5e-06
-5e-06
-5e-06
-5e-06
-5e-06
-5e-06
-5e-06
-5e-06
-5e-06
-5e-06
-5e-06
)
;
    }
    outlet
    {
        type            calculated;
        value           nonuniform List<scalar> 
20
(
5.00316e-06
5.00237e-06
5.00223e-06
5.0018e-06
5.00155e-06
5.00124e-06
5.00096e-06
5.00068e-06
5.00041e-06
5.00014e-06
4.99986e-06
4.99959e-06
4.99932e-06
4.99904e-06
4.99876e-06
4.99845e-06
4.9982e-06
4.99777e-06
4.99763e-06
4.99684e-06
)
;
    }
    frontAndBack
    {
        type            empty;
        value           nonuniform 0();
    }
}


// ************************************************************************* //
