/*--------------------------------*- C++ -*----------------------------------*\
  =========                 |
  \\      /  F ield         | OpenFOAM: The Open Source CFD Toolbox
   \\    /   O peration     | Website:  https://openfoam.org
    \\  /    A nd           | Version:  7
     \\/     M anipulation  |
\*---------------------------------------------------------------------------*/
FoamFile
{
    version     2.0;
    format      ascii;
    class       volVectorField;
    location    "4";
    object      U;
}
// * * * * * * * * * * * * * * * * * * * * * * * * * * * * * * * * * * * * * //

dimensions      [0 1 -1 0 0 0 0];

internalField   nonuniform List<vector> 
400
(
(0.0999895 -7.29394e-07 0)
(0.099989 -2.09003e-06 0)
(0.0999873 -3.08033e-06 0)
(0.0999853 -3.88279e-06 0)
(0.0999842 -4.92561e-06 0)
(0.0999847 -6.27593e-06 0)
(0.0999868 -7.74683e-06 0)
(0.0999899 -8.98826e-06 0)
(0.0999938 -9.61465e-06 0)
(0.0999983 -9.68366e-06 0)
(0.100003 -9.54038e-06 0)
(0.100008 -9.41924e-06 0)
(0.100012 -9.45695e-06 0)
(0.100017 -9.84128e-06 0)
(0.100021 -1.03066e-05 0)
(0.100027 -1.17982e-05 0)
(0.100029 -1.21609e-05 0)
(0.100039 -1.52581e-05 0)
(0.10004 -1.48751e-05 0)
(0.100058 -2.2215e-05 0)
(0.0999906 1.71323e-06 0)
(0.0999907 3.8932e-06 0)
(0.0999895 5.47238e-06 0)
(0.0999881 6.9183e-06 0)
(0.0999878 7.97349e-06 0)
(0.0999888 8.25621e-06 0)
(0.0999903 7.65243e-06 0)
(0.0999924 7.23141e-06 0)
(0.0999956 7.14656e-06 0)
(0.0999995 7.19113e-06 0)
(0.100004 7.20669e-06 0)
(0.100008 7.09706e-06 0)
(0.100012 6.82162e-06 0)
(0.100016 6.24703e-06 0)
(0.100019 5.76623e-06 0)
(0.100024 3.95316e-06 0)
(0.100027 3.58098e-06 0)
(0.100034 -7.62193e-07 0)
(0.100036 -3.57596e-07 0)
(0.100047 -1.06668e-05 0)
(0.0999915 1.55442e-06 0)
(0.0999913 2.83616e-06 0)
(0.0999894 3.22577e-06 0)
(0.0999872 3.22712e-06 0)
(0.0999862 2.17889e-06 0)
(0.0999867 -1.70389e-07 0)
(0.0999889 -3.01759e-06 0)
(0.0999922 -5.51746e-06 0)
(0.0999956 -6.8525e-06 0)
(0.0999993 -7.28948e-06 0)
(0.100003 -7.41562e-06 0)
(0.100007 -7.70404e-06 0)
(0.100011 -8.34141e-06 0)
(0.100015 -9.52094e-06 0)
(0.100019 -1.07273e-05 0)
(0.100023 -1.30451e-05 0)
(0.100026 -1.43213e-05 0)
(0.100032 -1.87606e-05 0)
(0.100034 -1.93274e-05 0)
(0.100044 -2.81754e-05 0)
(0.0999925 2.04721e-06 0)
(0.0999927 4.82203e-06 0)
(0.0999916 6.87714e-06 0)
(0.0999899 8.37593e-06 0)
(0.0999894 8.50704e-06 0)
(0.0999903 6.87955e-06 0)
(0.0999917 4.67138e-06 0)
(0.0999936 2.85112e-06 0)
(0.0999967 1.86132e-06 0)
(0.1 1.61837e-06 0)
(0.100004 1.53903e-06 0)
(0.100007 1.14838e-06 0)
(0.10001 2.63281e-07 0)
(0.100013 -1.41361e-06 0)
(0.100016 -3.3422e-06 0)
(0.10002 -6.6184e-06 0)
(0.100022 -8.73305e-06 0)
(0.100027 -1.43831e-05 0)
(0.100029 -1.54507e-05 0)
(0.100036 -2.60738e-05 0)
(0.0999936 2.1963e-06 0)
(0.0999938 5.20884e-06 0)
(0.0999924 7.20872e-06 0)
(0.0999905 8.12494e-06 0)
(0.0999898 7.06636e-06 0)
(0.0999907 3.87212e-06 0)
(0.0999928 -6.82787e-08 0)
(0.0999952 -2.76062e-06 0)
(0.0999977 -4.1208e-06 0)
(0.1 -4.74945e-06 0)
(0.100003 -5.24676e-06 0)
(0.100006 -5.99817e-06 0)
(0.100009 -7.10176e-06 0)
(0.100012 -8.72254e-06 0)
(0.100014 -1.05134e-05 0)
(0.100017 -1.33971e-05 0)
(0.10002 -1.54313e-05 0)
(0.100023 -2.06336e-05 0)
(0.100025 -2.18264e-05 0)
(0.100031 -3.14985e-05 0)
(0.0999947 2.22609e-06 0)
(0.0999949 5.76829e-06 0)
(0.0999939 8.49663e-06 0)
(0.0999922 9.97845e-06 0)
(0.0999918 8.97973e-06 0)
(0.0999926 5.70593e-06 0)
(0.0999941 1.70427e-06 0)
(0.099996 -1.55352e-06 0)
(0.0999983 -3.29641e-06 0)
(0.100001 -4.06926e-06 0)
(0.100003 -4.62294e-06 0)
(0.100005 -5.45813e-06 0)
(0.100007 -6.73197e-06 0)
(0.100009 -8.59556e-06 0)
(0.100012 -1.07155e-05 0)
(0.100014 -1.38945e-05 0)
(0.100016 -1.63193e-05 0)
(0.100019 -2.17966e-05 0)
(0.100021 -2.32851e-05 0)
(0.100025 -3.30549e-05 0)
(0.0999959 2.21526e-06 0)
(0.0999961 6.16043e-06 0)
(0.0999952 9.404e-06 0)
(0.0999938 1.09395e-05 0)
(0.0999934 9.42768e-06 0)
(0.0999942 5.35001e-06 0)
(0.0999955 7.89677e-07 0)
(0.0999971 -2.54379e-06 0)
(0.0999989 -4.41519e-06 0)
(0.100001 -5.3791e-06 0)
(0.100002 -6.11726e-06 0)
(0.100004 -7.07637e-06 0)
(0.100006 -8.41508e-06 0)
(0.100007 -1.0281e-05 0)
(0.100009 -1.24473e-05 0)
(0.100011 -1.56135e-05 0)
(0.100013 -1.815e-05 0)
(0.100015 -2.3622e-05 0)
(0.100016 -2.52203e-05 0)
(0.100019 -3.48345e-05 0)
(0.099997 2.15217e-06 0)
(0.0999972 6.37219e-06 0)
(0.0999966 1.00827e-05 0)
(0.0999955 1.17257e-05 0)
(0.0999952 9.95565e-06 0)
(0.0999958 5.48225e-06 0)
(0.0999969 5.73726e-07 0)
(0.0999981 -3.06628e-06 0)
(0.0999993 -5.13975e-06 0)
(0.100001 -6.23896e-06 0)
(0.100002 -7.05502e-06 0)
(0.100003 -8.04689e-06 0)
(0.100004 -9.41208e-06 0)
(0.100005 -1.13003e-05 0)
(0.100007 -1.35317e-05 0)
(0.100008 -1.67198e-05 0)
(0.100009 -1.93463e-05 0)
(0.100011 -2.48193e-05 0)
(0.100012 -2.64935e-05 0)
(0.100014 -3.59867e-05 0)
(0.0999982 2.10582e-06 0)
(0.0999983 6.50884e-06 0)
(0.099998 1.05592e-05 0)
(0.0999973 1.23038e-05 0)
(0.0999971 1.03285e-05 0)
(0.0999975 5.55094e-06 0)
(0.0999982 3.7486e-07 0)
(0.0999989 -3.4602e-06 0)
(0.0999996 -5.66249e-06 0)
(0.1 -6.83068e-06 0)
(0.100001 -7.67562e-06 0)
(0.100002 -8.67811e-06 0)
(0.100002 -1.00616e-05 0)
(0.100003 -1.19748e-05 0)
(0.100004 -1.42568e-05 0)
(0.100005 -1.74576e-05 0)
(0.100005 -2.01339e-05 0)
(0.100006 -2.55998e-05 0)
(0.100007 -2.73164e-05 0)
(0.100008 -3.67308e-05 0)
(0.0999994 2.08622e-06 0)
(0.0999994 6.58441e-06 0)
(0.0999993 1.08172e-05 0)
(0.0999991 1.26147e-05 0)
(0.099999 1.05322e-05 0)
(0.0999992 5.60367e-06 0)
(0.0999994 2.78091e-07 0)
(0.0999996 -3.67054e-06 0)
(0.0999999 -5.94085e-06 0)
(0.1 -7.13244e-06 0)
(0.1 -7.98128e-06 0)
(0.100001 -8.98647e-06 0)
(0.100001 -1.03764e-05 0)
(0.100001 -1.22988e-05 0)
(0.100001 -1.46059e-05 0)
(0.100002 -1.78157e-05 0)
(0.100002 -2.05202e-05 0)
(0.100002 -2.59852e-05 0)
(0.100002 -2.77207e-05 0)
(0.100003 -3.70923e-05 0)
(0.100001 2.08619e-06 0)
(0.100001 6.58424e-06 0)
(0.100001 1.0817e-05 0)
(0.100001 1.26145e-05 0)
(0.100001 1.05322e-05 0)
(0.100001 5.6039e-06 0)
(0.100001 2.78361e-07 0)
(0.1 -3.67034e-06 0)
(0.1 -5.94073e-06 0)
(0.0999999 -7.13235e-06 0)
(0.0999997 -7.98121e-06 0)
(0.0999994 -8.9864e-06 0)
(0.0999992 -1.03764e-05 0)
(0.0999989 -1.22987e-05 0)
(0.0999987 -1.46059e-05 0)
(0.0999984 -1.78156e-05 0)
(0.0999982 -2.05201e-05 0)
(0.0999979 -2.5985e-05 0)
(0.0999977 -2.77205e-05 0)
(0.0999973 -3.70919e-05 0)
(0.100002 2.1057e-06 0)
(0.100002 6.50834e-06 0)
(0.100002 1.05584e-05 0)
(0.100003 1.23032e-05 0)
(0.100003 1.03285e-05 0)
(0.100003 5.55157e-06 0)
(0.100002 3.75634e-07 0)
(0.100001 -3.45962e-06 0)
(0.1 -5.66212e-06 0)
(0.0999997 -6.83042e-06 0)
(0.099999 -7.6754e-06 0)
(0.0999983 -8.67791e-06 0)
(0.0999975 -1.00615e-05 0)
(0.0999968 -1.19746e-05 0)
(0.099996 -1.42566e-05 0)
(0.0999952 -1.74573e-05 0)
(0.0999945 -2.01337e-05 0)
(0.0999936 -2.55991e-05 0)
(0.099993 -2.73158e-05 0)
(0.0999918 -3.67294e-05 0)
(0.100003 2.15193e-06 0)
(0.100003 6.37136e-06 0)
(0.100003 1.00814e-05 0)
(0.100005 1.17247e-05 0)
(0.100005 9.95565e-06 0)
(0.100004 5.48319e-06 0)
(0.100003 5.74928e-07 0)
(0.100002 -3.06535e-06 0)
(0.100001 -5.13915e-06 0)
(0.0999995 -6.23853e-06 0)
(0.0999983 -7.05464e-06 0)
(0.0999971 -8.04654e-06 0)
(0.0999959 -9.41177e-06 0)
(0.0999946 -1.13e-05 0)
(0.0999934 -1.35314e-05 0)
(0.099992 -1.67193e-05 0)
(0.0999909 -1.93459e-05 0)
(0.0999893 -2.4818e-05 0)
(0.0999884 -2.64926e-05 0)
(0.0999863 -3.59845e-05 0)
(0.100004 2.21496e-06 0)
(0.100004 6.15936e-06 0)
(0.100005 9.40241e-06 0)
(0.100006 1.09381e-05 0)
(0.100007 9.42757e-06 0)
(0.100006 5.35117e-06 0)
(0.100004 7.91212e-07 0)
(0.100003 -2.54252e-06 0)
(0.100001 -4.41429e-06 0)
(0.0999994 -5.37838e-06 0)
(0.0999977 -6.11657e-06 0)
(0.099996 -7.07566e-06 0)
(0.0999943 -8.41439e-06 0)
(0.0999926 -1.02803e-05 0)
(0.0999908 -1.24466e-05 0)
(0.0999889 -1.56125e-05 0)
(0.0999873 -1.81493e-05 0)
(0.099985 -2.362e-05 0)
(0.0999838 -2.52189e-05 0)
(0.0999807 -3.48313e-05 0)
(0.100005 2.22578e-06 0)
(0.100005 5.76717e-06 0)
(0.100006 8.4949e-06 0)
(0.100008 9.977e-06 0)
(0.100008 8.97956e-06 0)
(0.100007 5.70705e-06 0)
(0.100006 1.70577e-06 0)
(0.100004 -1.55233e-06 0)
(0.100002 -3.29572e-06 0)
(0.0999994 -4.06882e-06 0)
(0.0999971 -4.62252e-06 0)
(0.0999949 -5.45764e-06 0)
(0.0999928 -6.73146e-06 0)
(0.0999905 -8.59499e-06 0)
(0.0999883 -1.07151e-05 0)
(0.0999858 -1.38937e-05 0)
(0.0999838 -1.6319e-05 0)
(0.0999808 -2.17948e-05 0)
(0.0999792 -2.32842e-05 0)
(0.0999751 -3.30518e-05 0)
(0.100006 2.19593e-06 0)
(0.100006 5.20768e-06 0)
(0.100008 7.20701e-06 0)
(0.10001 8.12348e-06 0)
(0.10001 7.06643e-06 0)
(0.100009 3.87384e-06 0)
(0.100007 -6.57488e-08 0)
(0.100005 -2.7583e-06 0)
(0.100002 -4.11883e-06 0)
(0.0999996 -4.74766e-06 0)
(0.0999968 -5.24496e-06 0)
(0.099994 -5.99624e-06 0)
(0.0999912 -7.09972e-06 0)
(0.0999884 -8.72023e-06 0)
(0.0999858 -1.05112e-05 0)
(0.0999828 -1.33942e-05 0)
(0.0999804 -1.54289e-05 0)
(0.0999766 -2.06293e-05 0)
(0.0999748 -2.18233e-05 0)
(0.0999693 -3.14924e-05 0)
(0.100007 2.04674e-06 0)
(0.100007 4.82088e-06 0)
(0.100008 6.87554e-06 0)
(0.10001 8.37456e-06 0)
(0.100011 8.50678e-06 0)
(0.10001 6.88077e-06 0)
(0.100008 4.67317e-06 0)
(0.100006 2.85273e-06 0)
(0.100003 1.86258e-06 0)
(0.0999998 1.61955e-06 0)
(0.0999964 1.54036e-06 0)
(0.0999932 1.14993e-06 0)
(0.0999901 2.64964e-07 0)
(0.0999869 -1.41169e-06 0)
(0.0999839 -3.34074e-06 0)
(0.0999804 -6.61652e-06 0)
(0.0999775 -8.73235e-06 0)
(0.0999729 -1.4381e-05 0)
(0.0999706 -1.54506e-05 0)
(0.0999641 -2.60716e-05 0)
(0.100008 1.5538e-06 0)
(0.100009 2.83507e-06 0)
(0.100011 3.2244e-06 0)
(0.100013 3.22598e-06 0)
(0.100014 2.17874e-06 0)
(0.100013 -1.6913e-07 0)
(0.100011 -3.0155e-06 0)
(0.100008 -5.51539e-06 0)
(0.100004 -6.85084e-06 0)
(0.100001 -7.28796e-06 0)
(0.0999968 -7.41391e-06 0)
(0.0999928 -7.70194e-06 0)
(0.0999888 -8.33911e-06 0)
(0.0999846 -9.51816e-06 0)
(0.0999809 -1.07248e-05 0)
(0.0999767 -1.30411e-05 0)
(0.0999737 -1.43186e-05 0)
(0.0999679 -1.87549e-05 0)
(0.0999661 -1.93244e-05 0)
(0.0999564 -2.81669e-05 0)
(0.100009 1.71296e-06 0)
(0.100009 3.89272e-06 0)
(0.10001 5.47199e-06 0)
(0.100012 6.91792e-06 0)
(0.100012 7.97386e-06 0)
(0.100011 8.25749e-06 0)
(0.10001 7.65447e-06 0)
(0.100008 7.23374e-06 0)
(0.100004 7.14898e-06 0)
(0.100001 7.19358e-06 0)
(0.0999964 7.20915e-06 0)
(0.0999923 7.09948e-06 0)
(0.0999884 6.82377e-06 0)
(0.0999844 6.24907e-06 0)
(0.0999808 5.76763e-06 0)
(0.0999762 3.95516e-06 0)
(0.0999728 3.58143e-06 0)
(0.0999663 -7.60561e-07 0)
(0.0999638 -3.58205e-07 0)
(0.0999534 -1.06662e-05 0)
(0.100011 -7.29269e-07 0)
(0.100011 -2.0902e-06 0)
(0.100013 -3.08091e-06 0)
(0.100015 -3.88362e-06 0)
(0.100016 -4.92641e-06 0)
(0.100015 -6.27703e-06 0)
(0.100013 -7.74873e-06 0)
(0.10001 -8.99077e-06 0)
(0.100006 -9.61723e-06 0)
(0.100002 -9.68569e-06 0)
(0.0999971 -9.54165e-06 0)
(0.0999924 -9.41968e-06 0)
(0.0999882 -9.4569e-06 0)
(0.0999832 -9.84032e-06 0)
(0.0999794 -1.03059e-05 0)
(0.0999733 -1.1796e-05 0)
(0.0999708 -1.216e-05 0)
(0.0999613 -1.52548e-05 0)
(0.0999605 -1.48736e-05 0)
(0.0999416 -2.22116e-05 0)
)
;

boundaryField
{
    sides
    {
        type            calculated;
        value           nonuniform List<vector> 
40
(
(0.100011 0 0)
(0.100011 0 0)
(0.100013 0 0)
(0.100015 0 0)
(0.100016 0 0)
(0.100015 0 0)
(0.100013 0 0)
(0.10001 0 0)
(0.100006 0 0)
(0.100002 0 0)
(0.0999971 0 0)
(0.0999924 0 0)
(0.0999882 0 0)
(0.0999832 0 0)
(0.0999794 0 0)
(0.0999733 0 0)
(0.0999708 0 0)
(0.0999613 0 0)
(0.0999605 0 0)
(0.0999416 0 0)
(0.0999895 0 0)
(0.099989 0 0)
(0.0999873 0 0)
(0.0999853 0 0)
(0.0999842 0 0)
(0.0999847 0 0)
(0.0999868 0 0)
(0.0999899 0 0)
(0.0999938 0 0)
(0.0999983 0 0)
(0.100003 0 0)
(0.100008 0 0)
(0.100012 0 0)
(0.100017 0 0)
(0.100021 0 0)
(0.100027 0 0)
(0.100029 0 0)
(0.100039 0 0)
(0.10004 0 0)
(0.100058 0 0)
)
;
    }
    inlet
    {
        type            calculated;
        value           nonuniform List<vector> 
20
(
(0.0999891 0 0)
(0.0999903 0 0)
(0.0999912 0 0)
(0.0999923 0 0)
(0.0999935 0 0)
(0.0999946 0 0)
(0.0999958 0 0)
(0.099997 0 0)
(0.0999982 0 0)
(0.0999994 0 0)
(0.100001 0 0)
(0.100002 0 0)
(0.100003 0 0)
(0.100004 0 0)
(0.100005 0 0)
(0.100007 0 0)
(0.100008 0 0)
(0.100009 0 0)
(0.10001 0 0)
(0.100011 0 0)
)
;
    }
    outlet
    {
        type            calculated;
        value           nonuniform List<vector> 
20
(
(0.100059 -2.22151e-05 0)
(0.100047 -1.06668e-05 0)
(0.100044 -2.81755e-05 0)
(0.100036 -2.60738e-05 0)
(0.100031 -3.14986e-05 0)
(0.100025 -3.3055e-05 0)
(0.100019 -3.48345e-05 0)
(0.100014 -3.59867e-05 0)
(0.100008 -3.67308e-05 0)
(0.100003 -3.70923e-05 0)
(0.0999972 -3.70919e-05 0)
(0.0999917 -3.67294e-05 0)
(0.0999862 -3.59845e-05 0)
(0.0999806 -3.48312e-05 0)
(0.099975 -3.30517e-05 0)
(0.0999691 -3.14923e-05 0)
(0.0999639 -2.60716e-05 0)
(0.0999562 -2.81668e-05 0)
(0.0999532 -1.06662e-05 0)
(0.0999411 -2.22115e-05 0)
)
;
    }
    frontAndBack
    {
        type            empty;
    }
}


// ************************************************************************* //
