/*--------------------------------*- C++ -*----------------------------------*\
  =========                 |
  \\      /  F ield         | OpenFOAM: The Open Source CFD Toolbox
   \\    /   O peration     | Website:  https://openfoam.org
    \\  /    A nd           | Version:  7
     \\/     M anipulation  |
\*---------------------------------------------------------------------------*/
FoamFile
{
    version     2.0;
    format      ascii;
    class       volVectorField;
    location    "18";
    object      ddt0(hU);
}
// * * * * * * * * * * * * * * * * * * * * * * * * * * * * * * * * * * * * * //

dimensions      [0 2 -2 0 0 0 0];

internalField   nonuniform List<vector> 
400
(
(-2.12515e-10 -2.88038e-09 0)
(-4.33192e-09 -3.01781e-09 0)
(-6.33997e-09 -3.42247e-09 0)
(-8.04242e-10 -4.2579e-09 0)
(2.77909e-09 -3.68266e-09 0)
(7.12828e-10 -2.89918e-09 0)
(-3.41112e-09 -3.3863e-09 0)
(-6.46734e-09 -2.38356e-09 0)
(-1.01381e-08 -3.28537e-10 0)
(-1.62992e-08 2.63637e-09 0)
(-2.18807e-08 4.05263e-09 0)
(-2.60178e-08 3.64658e-09 0)
(-3.0381e-08 7.48165e-10 0)
(-3.04804e-08 -4.86241e-09 0)
(-2.46934e-08 -9.56619e-09 0)
(-1.22798e-08 -1.34235e-08 0)
(5.11142e-09 -1.03539e-08 0)
(1.27207e-08 -5.38733e-09 0)
(2.43277e-08 7.68718e-10 0)
(1.19762e-08 6.89965e-09 0)
(1.77709e-10 -6.34486e-09 0)
(-5.06062e-09 -8.42099e-09 0)
(-5.92956e-09 -1.6254e-08 0)
(-1.21596e-09 -2.72429e-08 0)
(1.87588e-09 -3.18939e-08 0)
(-2.83307e-09 -2.7922e-08 0)
(-7.10595e-09 -2.08021e-08 0)
(-6.73881e-09 -1.35887e-08 0)
(-8.21367e-09 -9.47417e-09 0)
(-1.32591e-08 -4.32116e-09 0)
(-2.09687e-08 -1.30585e-10 0)
(-2.74978e-08 2.05422e-09 0)
(-3.3249e-08 1.77246e-09 0)
(-3.38021e-08 -2.41097e-09 0)
(-2.80829e-08 -7.91621e-09 0)
(-1.41724e-08 -1.51917e-08 0)
(5.34206e-09 -1.54533e-08 0)
(1.56173e-08 -1.22834e-08 0)
(2.9766e-08 -2.34853e-09 0)
(1.52598e-08 1.02788e-08 0)
(6.11719e-10 -8.17247e-09 0)
(-7.45755e-09 -1.22569e-08 0)
(-1.12288e-08 -2.09686e-08 0)
(-8.58585e-09 -2.50964e-08 0)
(1.04176e-09 -2.41122e-08 0)
(5.07947e-09 -2.1218e-08 0)
(5.30091e-09 -1.95264e-08 0)
(-2.2439e-09 -1.49569e-08 0)
(-8.29475e-09 -6.80295e-09 0)
(-1.34998e-08 2.00714e-09 0)
(-1.92303e-08 8.33541e-09 0)
(-2.23956e-08 1.05397e-08 0)
(-2.44458e-08 6.06584e-09 0)
(-2.35043e-08 -6.1225e-09 0)
(-1.92328e-08 -1.89028e-08 0)
(-1.04821e-08 -3.26696e-08 0)
(2.72169e-09 -2.97398e-08 0)
(7.95359e-09 -2.22982e-08 0)
(1.92763e-08 -2.59552e-09 0)
(1.03069e-08 2.17562e-08 0)
(-4.56815e-10 -8.35116e-09 0)
(-9.51149e-09 -1.53996e-08 0)
(-1.79826e-09 -2.46136e-08 0)
(8.34556e-09 -4.03369e-08 0)
(-1.95258e-09 -4.43374e-08 0)
(-1.0541e-08 -3.98104e-08 0)
(-1.24085e-08 -2.87359e-08 0)
(-5.84698e-09 -2.06592e-08 0)
(-2.75755e-09 -1.14882e-08 0)
(-8.10946e-09 -1.54508e-09 0)
(-1.72437e-08 6.85516e-09 0)
(-2.51197e-08 1.10932e-08 0)
(-3.12608e-08 6.54947e-09 0)
(-3.14129e-08 -9.35109e-09 0)
(-2.5198e-08 -2.64304e-08 0)
(-1.13903e-08 -4.45744e-08 0)
(7.06352e-09 -4.05159e-08 0)
(1.58556e-08 -2.99927e-08 0)
(2.78333e-08 -4.62685e-09 0)
(1.42554e-08 2.76697e-08 0)
(-5.9036e-10 -1.06329e-08 0)
(-9.90003e-09 -2.01038e-08 0)
(-1.79589e-08 -3.72208e-08 0)
(-1.70315e-08 -4.95095e-08 0)
(-8.04023e-10 -5.30568e-08 0)
(8.77118e-09 -4.53469e-08 0)
(5.98463e-09 -3.6499e-08 0)
(-2.24586e-09 -2.15905e-08 0)
(-6.9421e-09 -9.81185e-09 0)
(-9.87933e-09 1.59704e-09 0)
(-1.27301e-08 1.11138e-08 0)
(-1.42765e-08 1.56974e-08 0)
(-1.60472e-08 9.49048e-09 0)
(-1.65032e-08 -1.0167e-08 0)
(-1.51264e-08 -3.10887e-08 0)
(-1.01272e-08 -5.31524e-08 0)
(-5.9819e-10 -4.82952e-08 0)
(3.96786e-09 -3.63744e-08 0)
(1.44337e-08 -5.66955e-09 0)
(8.66377e-09 3.39747e-08 0)
(1.2331e-09 -1.1804e-08 0)
(-1.14802e-08 -2.52575e-08 0)
(-1.63392e-09 -4.23504e-08 0)
(9.24672e-09 -4.8413e-08 0)
(-4.05833e-09 -4.72402e-08 0)
(-1.28806e-08 -3.98362e-08 0)
(-6.22797e-09 -3.02377e-08 0)
(6.95164e-10 -1.8173e-08 0)
(-1.51709e-09 -4.70481e-09 0)
(-6.27283e-09 9.44596e-09 0)
(-1.21085e-08 2.01273e-08 0)
(-1.74355e-08 2.35529e-08 0)
(-2.22258e-08 1.30956e-08 0)
(-2.254e-08 -1.33369e-08 0)
(-1.80686e-08 -4.00684e-08 0)
(-8.01125e-09 -6.69675e-08 0)
(5.39942e-09 -5.98014e-08 0)
(1.13798e-08 -4.40872e-08 0)
(2.06356e-08 -6.00002e-09 0)
(1.03999e-08 4.20026e-08 0)
(1.99817e-09 -8.65794e-09 0)
(-9.77677e-09 -3.01992e-08 0)
(-1.20135e-08 -4.78029e-08 0)
(-9.55576e-09 -6.48256e-08 0)
(-2.50736e-09 -6.42894e-08 0)
(4.28232e-09 -5.22738e-08 0)
(2.72605e-09 -3.37059e-08 0)
(-1.40259e-09 -1.95723e-08 0)
(-3.31489e-09 -6.15626e-09 0)
(-4.64894e-09 8.11574e-09 0)
(-6.8049e-09 1.97015e-08 0)
(-8.76155e-09 2.41837e-08 0)
(-1.09478e-08 1.41484e-08 0)
(-1.17496e-08 -1.31304e-08 0)
(-1.09439e-08 -4.13541e-08 0)
(-7.34445e-09 -7.06419e-08 0)
(-4.11813e-10 -6.39812e-08 0)
(2.91841e-09 -4.82478e-08 0)
(1.01182e-08 -9.09661e-09 0)
(6.03898e-09 4.35554e-08 0)
(9.11096e-10 -7.41215e-09 0)
(-8.69555e-09 -3.43192e-08 0)
(-7.66836e-09 -5.31751e-08 0)
(-1.53768e-09 -5.74233e-08 0)
(-2.67308e-10 -4.98199e-08 0)
(-3.99621e-09 -3.83695e-08 0)
(-4.56134e-09 -2.67191e-08 0)
(-4.84237e-10 -1.09241e-08 0)
(4.46299e-11 4.72412e-09 0)
(-1.45787e-09 1.97438e-08 0)
(-4.88751e-09 3.00625e-08 0)
(-8.70053e-09 3.17453e-08 0)
(-1.18995e-08 1.70717e-08 0)
(-1.24103e-08 -1.61261e-08 0)
(-1.0473e-08 -4.90202e-08 0)
(-5.29388e-09 -8.13076e-08 0)
(2.15528e-09 -7.17288e-08 0)
(5.4734e-09 -5.27658e-08 0)
(1.15257e-08 -7.49389e-09 0)
(6.08269e-09 5.05092e-08 0)
(8.47637e-10 -7.00151e-09 0)
(-5.98074e-09 -3.70911e-08 0)
(-4.41274e-09 -5.58896e-08 0)
(-7.54048e-10 -6.05024e-08 0)
(-1.69927e-09 -5.70053e-08 0)
(-1.9938e-09 -4.55221e-08 0)
(-1.64183e-10 -2.62077e-08 0)
(-8.62006e-11 -8.63076e-09 0)
(1.09273e-10 5.99016e-09 0)
(-1.07941e-09 1.96978e-08 0)
(-3.55e-09 2.96621e-08 0)
(-5.44131e-09 3.22075e-08 0)
(-6.25084e-09 1.87294e-08 0)
(-5.87602e-09 -1.4261e-08 0)
(-4.8688e-09 -4.79503e-08 0)
(-2.61745e-09 -8.20031e-08 0)
(6.54868e-10 -7.36939e-08 0)
(1.74873e-09 -5.55124e-08 0)
(4.26101e-09 -1.04374e-08 0)
(2.40318e-09 5.03939e-08 0)
(2.57938e-10 -7.20211e-09 0)
(-2.1956e-09 -3.85365e-08 0)
(-1.47132e-09 -5.84069e-08 0)
(-4.11378e-10 -6.24216e-08 0)
(-4.298e-10 -5.70361e-08 0)
(-3.91076e-10 -4.3182e-08 0)
(-1.36912e-10 -2.60076e-08 0)
(-1.49926e-10 -7.77708e-09 0)
(-3.16356e-10 7.87292e-09 0)
(-4.68647e-10 2.21595e-08 0)
(-8.70939e-10 3.22764e-08 0)
(-1.53861e-09 3.45428e-08 0)
(-2.09269e-09 1.98149e-08 0)
(-2.42635e-09 -1.54397e-08 0)
(-2.67121e-09 -5.08998e-08 0)
(-1.95404e-09 -8.57586e-08 0)
(-1.25223e-10 -7.6221e-08 0)
(8.20469e-10 -5.69117e-08 0)
(2.79604e-09 -9.37295e-09 0)
(1.69578e-09 5.32146e-08 0)
(-2.52561e-10 -7.20255e-09 0)
(2.19801e-09 -3.85391e-08 0)
(1.47689e-09 -5.84084e-08 0)
(4.21132e-10 -6.24201e-08 0)
(4.45322e-10 -5.70359e-08 0)
(4.09645e-10 -4.31872e-08 0)
(1.64041e-10 -2.60147e-08 0)
(1.76954e-10 -7.78314e-09 0)
(3.34645e-10 7.87033e-09 0)
(4.77949e-10 2.2156e-08 0)
(8.72828e-10 3.22714e-08 0)
(1.53916e-09 3.45389e-08 0)
(2.09328e-09 1.98138e-08 0)
(2.41963e-09 -1.54356e-08 0)
(2.66032e-09 -5.08953e-08 0)
(1.93488e-09 -8.5755e-08 0)
(1.03227e-10 -7.62195e-08 0)
(-8.48245e-10 -5.69123e-08 0)
(-2.8407e-09 -9.36949e-09 0)
(-1.75077e-09 5.32118e-08 0)
(-8.42849e-10 -7.00185e-09 0)
(5.98461e-09 -3.70979e-08 0)
(4.41965e-09 -5.58932e-08 0)
(7.63036e-10 -6.04983e-08 0)
(1.7091e-09 -5.70031e-08 0)
(2.01032e-09 -4.5527e-08 0)
(1.80319e-10 -2.62009e-08 0)
(1.15584e-10 -8.63558e-09 0)
(-8.83195e-11 5.98588e-09 0)
(1.08861e-09 1.96926e-08 0)
(3.55386e-09 2.96532e-08 0)
(5.44404e-09 3.21959e-08 0)
(6.25317e-09 1.87182e-08 0)
(5.87214e-09 -1.42602e-08 0)
(4.85856e-09 -4.79466e-08 0)
(2.59401e-09 -8.19915e-08 0)
(-6.82004e-10 -7.36785e-08 0)
(-1.78274e-09 -5.55011e-08 0)
(-4.30563e-09 -1.04047e-08 0)
(-2.45414e-09 5.03957e-08 0)
(-9.06824e-10 -7.41246e-09 0)
(8.70325e-09 -3.43305e-08 0)
(7.67615e-09 -5.318e-08 0)
(1.54711e-09 -5.74226e-08 0)
(2.7529e-10 -4.98242e-08 0)
(4.02254e-09 -3.83771e-08 0)
(4.58929e-09 -2.67302e-08 0)
(4.83737e-10 -1.09303e-08 0)
(-3.00848e-11 4.71922e-09 0)
(1.47115e-09 1.9735e-08 0)
(4.89265e-09 3.0047e-08 0)
(8.69949e-09 3.1729e-08 0)
(1.18981e-08 1.70586e-08 0)
(1.2404e-08 -1.6125e-08 0)
(1.04628e-08 -4.90208e-08 0)
(5.27366e-09 -8.13021e-08 0)
(-2.17557e-09 -7.17146e-08 0)
(-5.50129e-09 -5.27563e-08 0)
(-1.15689e-08 -7.44517e-09 0)
(-6.13101e-09 5.05215e-08 0)
(-1.99526e-09 -8.65733e-09 0)
(9.78659e-09 -3.02083e-08 0)
(1.20249e-08 -4.78127e-08 0)
(9.55707e-09 -6.48253e-08 0)
(2.52027e-09 -6.4285e-08 0)
(-4.2683e-09 -5.22803e-08 0)
(-2.70393e-09 -3.37395e-08 0)
(1.42845e-09 -1.95924e-08 0)
(3.3276e-09 -6.16654e-09 0)
(4.65701e-09 8.10095e-09 0)
(6.81135e-09 1.96773e-08 0)
(8.76631e-09 2.41588e-08 0)
(1.09503e-08 1.41329e-08 0)
(1.17462e-08 -1.31199e-08 0)
(1.09368e-08 -4.13406e-08 0)
(7.3242e-09 -7.06149e-08 0)
(3.88216e-10 -6.39546e-08 0)
(-2.95319e-09 -4.82304e-08 0)
(-1.01608e-08 -9.04664e-09 0)
(-6.08384e-09 4.35425e-08 0)
(-1.22976e-09 -1.18012e-08 0)
(1.14919e-08 -2.52648e-08 0)
(1.63713e-09 -4.23564e-08 0)
(-9.2272e-09 -4.84123e-08 0)
(4.07446e-09 -4.72411e-08 0)
(1.2897e-08 -3.98438e-08 0)
(6.22047e-09 -3.02447e-08 0)
(-6.72901e-10 -1.81786e-08 0)
(1.53921e-09 -4.70796e-09 0)
(6.28976e-09 9.43706e-09 0)
(1.21187e-08 2.0106e-08 0)
(1.74394e-08 2.35289e-08 0)
(2.2225e-08 1.30733e-08 0)
(2.25333e-08 -1.33422e-08 0)
(1.80594e-08 -4.00776e-08 0)
(7.98704e-09 -6.69686e-08 0)
(-5.42068e-09 -5.97857e-08 0)
(-1.14108e-08 -4.40761e-08 0)
(-2.06666e-08 -5.92441e-09 0)
(-1.04271e-08 4.20278e-08 0)
(5.93909e-10 -1.06259e-08 0)
(9.91181e-09 -2.01131e-08 0)
(1.79696e-08 -3.72259e-08 0)
(1.70323e-08 -4.95067e-08 0)
(8.16981e-10 -5.3056e-08 0)
(-8.75726e-09 -4.53554e-08 0)
(-5.94705e-09 -3.65123e-08 0)
(2.25604e-09 -2.16039e-08 0)
(6.94746e-09 -9.82694e-09 0)
(9.88545e-09 1.57551e-09 0)
(1.27355e-08 1.10832e-08 0)
(1.4282e-08 1.56667e-08 0)
(1.60501e-08 9.47147e-09 0)
(1.65009e-08 -1.01547e-08 0)
(1.51244e-08 -3.10734e-08 0)
(1.01135e-08 -5.31237e-08 0)
(5.84866e-10 -4.82686e-08 0)
(-3.99711e-09 -3.63554e-08 0)
(-1.44715e-08 -5.61787e-09 0)
(-8.6986e-09 3.39511e-08 0)
(4.51563e-10 -8.34808e-09 0)
(9.51539e-09 -1.54036e-08 0)
(1.80868e-09 -2.46191e-08 0)
(-8.33206e-09 -4.03341e-08 0)
(1.96958e-09 -4.43395e-08 0)
(1.05623e-08 -3.98249e-08 0)
(1.24196e-08 -2.87577e-08 0)
(5.85907e-09 -2.06694e-08 0)
(2.7671e-09 -1.14941e-08 0)
(8.1258e-09 -1.56048e-09 0)
(1.72588e-08 6.82768e-09 0)
(2.5128e-08 1.1065e-08 0)
(3.12589e-08 6.52362e-09 0)
(3.14018e-08 -9.36014e-09 0)
(2.51855e-08 -2.64422e-08 0)
(1.13644e-08 -4.45754e-08 0)
(-7.07751e-09 -4.04977e-08 0)
(-1.58801e-08 -2.99758e-08 0)
(-2.78377e-08 -4.55686e-09 0)
(-1.42544e-08 2.76827e-08 0)
(-6.10604e-10 -8.17294e-09 0)
(7.46919e-09 -1.22594e-08 0)
(1.12426e-08 -2.09712e-08 0)
(8.59426e-09 -2.50974e-08 0)
(-1.0291e-09 -2.41194e-08 0)
(-5.06694e-09 -2.12346e-08 0)
(-5.2945e-09 -1.95437e-08 0)
(2.24782e-09 -1.49807e-08 0)
(8.30082e-09 -6.82066e-09 0)
(1.35137e-08 1.98926e-09 0)
(1.92452e-08 8.31478e-09 0)
(2.24071e-08 1.05223e-08 0)
(2.44523e-08 6.05717e-09 0)
(2.35057e-08 -6.10982e-09 0)
(1.92374e-08 -1.88921e-08 0)
(1.04752e-08 -3.26575e-08 0)
(-2.72733e-09 -2.97315e-08 0)
(-7.97676e-09 -2.22985e-08 0)
(-1.93077e-08 -2.56455e-09 0)
(-1.0329e-08 2.17427e-08 0)
(-1.78034e-10 -6.34167e-09 0)
(5.0724e-09 -8.41934e-09 0)
(5.9403e-09 -1.62499e-08 0)
(1.22331e-09 -2.72425e-08 0)
(-1.87173e-09 -3.18967e-08 0)
(2.84007e-09 -2.79358e-08 0)
(7.12234e-09 -2.08106e-08 0)
(6.75765e-09 -1.35972e-08 0)
(8.22229e-09 -9.47719e-09 0)
(1.32734e-08 -4.33116e-09 0)
(2.09812e-08 -1.52856e-10 0)
(2.75032e-08 2.02868e-09 0)
(3.32439e-08 1.74844e-09 0)
(3.37926e-08 -2.42372e-09 0)
(2.80778e-08 -7.92699e-09 0)
(1.41602e-08 -1.51839e-08 0)
(-5.3364e-09 -1.54319e-08 0)
(-1.56286e-08 -1.22526e-08 0)
(-2.97485e-08 -2.29708e-09 0)
(-1.52469e-08 1.02686e-08 0)
(2.12278e-10 -2.87836e-09 0)
(4.34545e-09 -3.01638e-09 0)
(6.35078e-09 -3.42149e-09 0)
(8.10889e-10 -4.26107e-09 0)
(-2.77187e-09 -3.68652e-09 0)
(-7.02601e-10 -2.90172e-09 0)
(3.42294e-09 -3.38903e-09 0)
(6.47868e-09 -2.3843e-09 0)
(1.01597e-08 -3.28108e-10 0)
(1.63199e-08 2.6365e-09 0)
(2.19018e-08 4.04802e-09 0)
(2.60378e-08 3.64725e-09 0)
(3.03938e-08 7.51598e-10 0)
(3.04821e-08 -4.85662e-09 0)
(2.46916e-08 -9.56668e-09 0)
(1.22591e-08 -1.34373e-08 0)
(-5.12764e-09 -1.0358e-08 0)
(-1.27443e-08 -5.39672e-09 0)
(-2.43257e-08 7.70284e-10 0)
(-1.19662e-08 6.91143e-09 0)
)
;

boundaryField
{
    sides
    {
        type            calculated;
        value           nonuniform List<vector> 
40
(
(2.12278e-10 0 0)
(4.34545e-09 0 0)
(6.35078e-09 0 0)
(8.10889e-10 0 0)
(-2.77187e-09 0 0)
(-7.02601e-10 0 0)
(3.42294e-09 0 0)
(6.47868e-09 0 0)
(1.01597e-08 0 0)
(1.63199e-08 0 0)
(2.19018e-08 0 0)
(2.60378e-08 0 0)
(3.03938e-08 0 0)
(3.04821e-08 0 0)
(2.46916e-08 0 0)
(1.22591e-08 0 0)
(-5.12764e-09 0 0)
(-1.27443e-08 0 0)
(-2.43257e-08 0 0)
(-1.19662e-08 0 0)
(-2.12515e-10 0 0)
(-4.33192e-09 0 0)
(-6.33997e-09 0 0)
(-8.04242e-10 0 0)
(2.77909e-09 0 0)
(7.12828e-10 0 0)
(-3.41112e-09 0 0)
(-6.46734e-09 0 0)
(-1.01381e-08 0 0)
(-1.62992e-08 0 0)
(-2.18807e-08 0 0)
(-2.60178e-08 0 0)
(-3.0381e-08 0 0)
(-3.04804e-08 0 0)
(-2.46934e-08 0 0)
(-1.22798e-08 0 0)
(5.11142e-09 0 0)
(1.27207e-08 0 0)
(2.43277e-08 0 0)
(1.19762e-08 0 0)
)
;
    }
    inlet
    {
        type            calculated;
        value           uniform (0 0 0);
    }
    outlet
    {
        type            calculated;
        value           nonuniform List<vector> 
20
(
(1.19762e-08 6.89965e-09 0)
(1.52598e-08 1.02788e-08 0)
(1.03069e-08 2.17562e-08 0)
(1.42554e-08 2.76697e-08 0)
(8.66377e-09 3.39747e-08 0)
(1.03999e-08 4.20026e-08 0)
(6.03898e-09 4.35554e-08 0)
(6.08269e-09 5.05092e-08 0)
(2.40318e-09 5.03939e-08 0)
(1.69578e-09 5.32146e-08 0)
(-1.75077e-09 5.32118e-08 0)
(-2.45414e-09 5.03957e-08 0)
(-6.13101e-09 5.05215e-08 0)
(-6.08384e-09 4.35425e-08 0)
(-1.04271e-08 4.20278e-08 0)
(-8.6986e-09 3.39511e-08 0)
(-1.42544e-08 2.76827e-08 0)
(-1.0329e-08 2.17427e-08 0)
(-1.52469e-08 1.02686e-08 0)
(-1.19662e-08 6.91143e-09 0)
)
;
    }
    frontAndBack
    {
        type            empty;
    }
}


// ************************************************************************* //
