/*--------------------------------*- C++ -*----------------------------------*\
  =========                 |
  \\      /  F ield         | OpenFOAM: The Open Source CFD Toolbox
   \\    /   O peration     | Website:  https://openfoam.org
    \\  /    A nd           | Version:  7
     \\/     M anipulation  |
\*---------------------------------------------------------------------------*/
FoamFile
{
    version     2.0;
    format      ascii;
    class       volScalarField;
    location    "18";
    object      ddt0(h);
}
// * * * * * * * * * * * * * * * * * * * * * * * * * * * * * * * * * * * * * //

dimensions      [0 1 -1 0 0 0 0];

internalField   nonuniform List<scalar> 
400
(
-1.57295e-07
-1.41353e-07
-1.26653e-07
-9.98296e-08
-6.63956e-08
-3.59773e-08
-1.02517e-08
1.34772e-08
3.0937e-08
4.05612e-08
5.00056e-08
5.16768e-08
4.46253e-08
3.32258e-08
2.15187e-08
1.13723e-08
4.37458e-09
-3.01392e-10
-1.78575e-09
-1.24294e-09
-1.41198e-07
-1.28345e-07
-1.12889e-07
-1.00736e-07
-6.75621e-08
-4.17371e-08
-1.29554e-08
1.96399e-08
3.06914e-08
4.18035e-08
4.73329e-08
4.61059e-08
3.88768e-08
2.93741e-08
2.00985e-08
1.20386e-08
5.55946e-09
2.53421e-10
-9.91152e-10
-7.78414e-10
-1.15647e-07
-9.97974e-08
-8.03018e-08
-8.11096e-08
-4.42657e-08
-3.19227e-08
-3.36608e-11
5.30516e-09
2.46916e-08
3.34428e-08
3.49722e-08
3.17054e-08
2.69811e-08
2.27487e-08
1.92272e-08
1.47614e-08
8.82524e-09
2.95345e-09
1.56784e-10
-6.60109e-10
-9.47577e-08
-7.5513e-08
-5.87713e-08
-4.75314e-08
-8.15306e-08
-3.75821e-08
-6.51459e-09
1.19391e-08
2.47496e-08
3.12305e-08
3.09184e-08
2.57948e-08
2.05954e-08
1.78693e-08
1.58036e-08
1.1665e-08
6.62747e-09
2.81541e-09
1.3415e-09
1.01753e-10
-7.77999e-08
-5.80236e-08
-5.86219e-08
-4.19473e-08
2.64905e-08
2.55511e-08
-3.64769e-09
7.62115e-09
1.1638e-08
1.21444e-08
1.11377e-08
9.28335e-09
8.06695e-09
9.5098e-09
1.10306e-08
9.07572e-09
6.15852e-09
3.93683e-09
1.27424e-09
-6.17261e-10
-3.82625e-08
-2.36519e-08
3.39498e-09
1.68759e-08
-4.43012e-08
-2.95545e-08
2.66472e-08
1.08106e-08
3.61616e-09
2.97636e-09
3.15729e-09
2.37944e-09
2.04534e-09
3.23559e-09
4.1216e-09
3.08971e-09
2.8011e-09
2.71559e-09
1.17667e-09
-3.16161e-10
-1.72198e-08
-8.41528e-09
5.35936e-10
6.18337e-09
4.87624e-08
4.31905e-08
2.9614e-09
5.21767e-09
-7.13549e-10
-4.25158e-09
-5.89279e-09
-5.34538e-09
-4.00465e-09
-2.41376e-09
-9.18274e-10
-4.81208e-11
7.32387e-10
1.18206e-09
9.92664e-10
5.58693e-11
-7.96308e-09
5.20559e-09
1.31636e-08
1.43534e-08
5.80308e-09
5.21333e-09
1.91837e-09
-8.96139e-11
-3.75777e-09
-5.7595e-09
-9.41567e-09
-1.01941e-08
-7.80078e-09
-5.96931e-09
-4.52826e-09
-2.65109e-09
-1.80571e-09
-9.9283e-10
9.112e-10
7.91599e-10
1.59534e-09
3.12181e-09
1.33324e-08
1.5815e-08
1.08751e-08
1.13066e-08
1.07061e-08
5.57099e-09
2.20413e-09
-3.24265e-09
-8.80209e-09
-9.77643e-09
-7.42862e-09
-5.8664e-09
-4.44966e-09
-2.30427e-09
-1.90099e-09
-1.98171e-09
-6.96155e-10
2.43458e-11
3.42471e-09
2.235e-09
1.85008e-09
6.95906e-09
5.8677e-09
2.88011e-09
3.84501e-09
1.42202e-09
-1.30753e-09
-3.12213e-09
-4.45176e-09
-4.98472e-09
-3.23351e-09
-2.09206e-09
-2.11957e-09
-1.38199e-09
-3.86181e-10
1.32852e-10
3.01505e-10
1.15092e-11
-3.23791e-09
-2.06536e-09
-1.7161e-09
-6.8861e-09
-5.84558e-09
-2.91266e-09
-3.88671e-09
-1.50146e-09
1.2212e-09
3.05633e-09
4.41089e-09
4.97296e-09
3.24395e-09
2.10692e-09
2.12741e-09
1.3833e-09
3.76543e-10
-1.53943e-10
-3.25896e-10
-2.30768e-11
-1.42144e-09
-2.9628e-09
-1.32091e-08
-1.57528e-08
-1.08636e-08
-1.13109e-08
-1.08451e-08
-5.6434e-09
-2.27854e-09
3.17463e-09
8.76047e-09
9.75963e-09
7.43207e-09
5.88318e-09
4.46214e-09
2.30297e-09
1.88444e-09
1.95656e-09
6.68719e-10
-3.91174e-11
8.12348e-09
-5.04981e-09
-1.30705e-08
-1.43013e-08
-5.82633e-09
-5.28323e-09
-1.93873e-09
-6.57917e-11
3.66349e-09
5.69622e-09
9.37613e-09
1.01738e-08
7.80514e-09
5.9847e-09
4.53572e-09
2.6451e-09
1.78256e-09
9.57684e-10
-9.49067e-10
-8.09863e-10
1.73688e-08
8.53624e-09
-4.16393e-10
-6.1315e-09
-4.87174e-08
-4.32568e-08
-3.01874e-09
-5.24745e-09
6.51852e-10
4.18907e-09
5.85005e-09
5.32326e-09
3.99909e-09
2.41976e-09
9.26562e-10
4.34897e-11
-7.61694e-10
-1.22368e-09
-1.029e-09
-7.19236e-11
3.83808e-08
2.37921e-08
-3.36471e-09
-1.67993e-08
4.43202e-08
2.96316e-08
-2.68645e-08
-1.08477e-08
-3.65606e-09
-3.02439e-09
-3.19934e-09
-2.40595e-09
-2.05735e-09
-3.23619e-09
-4.11973e-09
-3.09966e-09
-2.82697e-09
-2.74896e-09
-1.20887e-09
3.0135e-10
7.79132e-08
5.80694e-08
5.87181e-08
4.19925e-08
-2.64895e-08
-2.56634e-08
3.82539e-09
-7.6388e-09
-1.1669e-08
-1.21844e-08
-1.11799e-08
-9.31429e-09
-8.08539e-09
-9.51883e-09
-1.10336e-08
-9.08152e-09
-6.172e-09
-3.95665e-09
-1.29974e-09
6.03497e-10
9.48198e-08
7.55647e-08
5.88402e-08
4.75835e-08
8.15963e-08
3.772e-08
6.5154e-09
-1.19423e-08
-2.4769e-08
-3.1258e-08
-3.0955e-08
-2.58289e-08
-2.06208e-08
-1.78843e-08
-1.58056e-08
-1.16613e-08
-6.62798e-09
-2.82142e-09
-1.35206e-09
-1.09536e-10
1.15767e-07
9.98926e-08
8.0379e-08
8.11527e-08
4.43104e-08
3.19707e-08
4.42698e-11
-5.33682e-09
-2.46812e-08
-3.34317e-08
-3.49756e-08
-3.17225e-08
-2.70019e-08
-2.2766e-08
-1.92314e-08
-1.47531e-08
-8.81455e-09
-2.94259e-09
-1.47451e-10
6.64929e-10
1.41299e-07
1.2844e-07
1.12979e-07
1.00836e-07
6.76535e-08
4.17862e-08
1.30551e-08
-1.95098e-08
-3.06954e-08
-4.17943e-08
-4.73406e-08
-4.6127e-08
-3.88985e-08
-2.93849e-08
-2.0092e-08
-1.2015e-08
-5.52809e-09
-2.26103e-10
1.01216e-09
7.84921e-10
1.574e-07
1.41445e-07
1.26735e-07
9.99468e-08
6.65104e-08
3.60766e-08
1.03533e-08
-1.34091e-08
-3.08478e-08
-4.05432e-08
-5.00054e-08
-5.16834e-08
-4.46343e-08
-3.32309e-08
-2.15125e-08
-1.13519e-08
-4.33912e-09
3.41189e-10
1.81607e-09
1.25401e-09
)
;

boundaryField
{
    sides
    {
        type            calculated;
        value           nonuniform List<scalar> 
40
(
1.574e-07
1.41445e-07
1.26735e-07
9.99468e-08
6.65104e-08
3.60766e-08
1.03533e-08
-1.34091e-08
-3.08478e-08
-4.05432e-08
-5.00054e-08
-5.16834e-08
-4.46343e-08
-3.32309e-08
-2.15125e-08
-1.13519e-08
-4.33912e-09
3.41189e-10
1.81607e-09
1.25401e-09
-1.57295e-07
-1.41353e-07
-1.26653e-07
-9.98296e-08
-6.63956e-08
-3.59773e-08
-1.02517e-08
1.34772e-08
3.0937e-08
4.05612e-08
5.00056e-08
5.16768e-08
4.46253e-08
3.32258e-08
2.15187e-08
1.13723e-08
4.37458e-09
-3.01392e-10
-1.78575e-09
-1.24294e-09
)
;
    }
    inlet
    {
        type            calculated;
        value           nonuniform List<scalar> 
20
(
-1.57295e-07
-1.41198e-07
-1.15647e-07
-9.47577e-08
-7.77999e-08
-3.82625e-08
-1.72198e-08
-7.96308e-09
1.59534e-09
3.42471e-09
-3.23791e-09
-1.42144e-09
8.12348e-09
1.73688e-08
3.83808e-08
7.79132e-08
9.48198e-08
1.15767e-07
1.41299e-07
1.574e-07
)
;
    }
    outlet
    {
        type            calculated;
        value           uniform 0;
    }
    frontAndBack
    {
        type            empty;
    }
}


// ************************************************************************* //
