/*--------------------------------*- C++ -*----------------------------------*\
  =========                 |
  \\      /  F ield         | OpenFOAM: The Open Source CFD Toolbox
   \\    /   O peration     | Website:  https://openfoam.org
    \\  /    A nd           | Version:  7
     \\/     M anipulation  |
\*---------------------------------------------------------------------------*/
FoamFile
{
    version     2.0;
    format      ascii;
    class       volVectorField;
    location    "18";
    object      U;
}
// * * * * * * * * * * * * * * * * * * * * * * * * * * * * * * * * * * * * * //

dimensions      [0 1 -1 0 0 0 0];

internalField   nonuniform List<vector> 
400
(
(0.0999938 -8.16627e-07 0)
(0.0999946 -2.21161e-06 0)
(0.099996 -3.34872e-06 0)
(0.0999969 -4.27231e-06 0)
(0.099997 -5.08696e-06 0)
(0.0999972 -5.921e-06 0)
(0.0999975 -6.76302e-06 0)
(0.0999979 -7.76467e-06 0)
(0.0999982 -9.02497e-06 0)
(0.0999992 -1.06541e-05 0)
(0.1 -1.22596e-05 0)
(0.100003 -1.40695e-05 0)
(0.100005 -1.548e-05 0)
(0.10001 -1.71969e-05 0)
(0.100013 -1.782e-05 0)
(0.100021 -1.96869e-05 0)
(0.100023 -1.94153e-05 0)
(0.100035 -2.34054e-05 0)
(0.100036 -2.26487e-05 0)
(0.100058 -3.2501e-05 0)
(0.0999949 4.11586e-07 0)
(0.0999963 1.15893e-06 0)
(0.0999982 1.81913e-06 0)
(0.0999994 2.64387e-06 0)
(0.0999997 3.60066e-06 0)
(0.0999999 4.3981e-06 0)
(0.1 4.96767e-06 0)
(0.1 5.39209e-06 0)
(0.1 5.85759e-06 0)
(0.100001 6.14251e-06 0)
(0.100002 6.33465e-06 0)
(0.100005 6.14811e-06 0)
(0.100008 6.15445e-06 0)
(0.100012 5.70485e-06 0)
(0.100016 6.23994e-06 0)
(0.100022 5.51553e-06 0)
(0.100026 7.01333e-06 0)
(0.100034 4.03083e-06 0)
(0.100036 5.76561e-06 0)
(0.100048 -4.34775e-06 0)
(0.0999953 -3.4732e-07 0)
(0.0999959 -1.17036e-06 0)
(0.0999971 -2.10492e-06 0)
(0.0999978 -2.74697e-06 0)
(0.0999978 -3.2152e-06 0)
(0.0999978 -3.84924e-06 0)
(0.0999981 -4.74344e-06 0)
(0.0999987 -6.09927e-06 0)
(0.0999993 -7.6893e-06 0)
(0.1 -9.70575e-06 0)
(0.100001 -1.18722e-05 0)
(0.100004 -1.4521e-05 0)
(0.100006 -1.68446e-05 0)
(0.10001 -1.94459e-05 0)
(0.100013 -2.05651e-05 0)
(0.100019 -2.29603e-05 0)
(0.100021 -2.25093e-05 0)
(0.10003 -2.77333e-05 0)
(0.100031 -2.6887e-05 0)
(0.100044 -4.00108e-05 0)
(0.0999962 -5.6311e-08 0)
(0.0999972 -4.19638e-08 0)
(0.0999989 1.26297e-07 0)
(0.0999998 7.18581e-07 0)
(0.1 1.57444e-06 0)
(0.1 2.18025e-06 0)
(0.100001 2.37238e-06 0)
(0.100001 2.01497e-06 0)
(0.100001 1.29839e-06 0)
(0.100001 1.45861e-08 0)
(0.100002 -1.54999e-06 0)
(0.100004 -3.67979e-06 0)
(0.100007 -5.57576e-06 0)
(0.100011 -7.67355e-06 0)
(0.100014 -8.12067e-06 0)
(0.100019 -9.69827e-06 0)
(0.100022 -8.192e-06 0)
(0.100028 -1.28348e-05 0)
(0.100029 -1.12003e-05 0)
(0.100037 -2.46243e-05 0)
(0.0999967 -5.22555e-07 0)
(0.0999973 -1.37783e-06 0)
(0.0999983 -2.01536e-06 0)
(0.0999988 -2.15883e-06 0)
(0.0999988 -2.06786e-06 0)
(0.0999989 -2.33249e-06 0)
(0.0999991 -3.12906e-06 0)
(0.0999997 -4.44777e-06 0)
(0.1 -6.16375e-06 0)
(0.100001 -8.48556e-06 0)
(0.100002 -1.11832e-05 0)
(0.100004 -1.45496e-05 0)
(0.100006 -1.77399e-05 0)
(0.100008 -2.10374e-05 0)
(0.100011 -2.25313e-05 0)
(0.100015 -2.49815e-05 0)
(0.100017 -2.40734e-05 0)
(0.100023 -2.95944e-05 0)
(0.100024 -2.82754e-05 0)
(0.100031 -4.28732e-05 0)
(0.0999974 -6.08193e-07 0)
(0.099998 -1.29317e-06 0)
(0.0999992 -1.39954e-06 0)
(0.0999998 -8.85808e-07 0)
(0.0999998 -1.43972e-07 0)
(0.1 2.85371e-07 0)
(0.1 1.81088e-07 0)
(0.1 -7.33224e-07 0)
(0.1 -2.30004e-06 0)
(0.100001 -4.68811e-06 0)
(0.100002 -7.56738e-06 0)
(0.100003 -1.1118e-05 0)
(0.100005 -1.44744e-05 0)
(0.100008 -1.76745e-05 0)
(0.100011 -1.88461e-05 0)
(0.100014 -2.06884e-05 0)
(0.100016 -1.90077e-05 0)
(0.10002 -2.4113e-05 0)
(0.10002 -2.21543e-05 0)
(0.100025 -3.71277e-05 0)
(0.099998 -9.14779e-07 0)
(0.0999984 -1.99261e-06 0)
(0.0999992 -2.29343e-06 0)
(0.0999995 -2.05201e-06 0)
(0.0999995 -1.54689e-06 0)
(0.0999996 -1.4119e-06 0)
(0.0999997 -1.93378e-06 0)
(0.1 -3.26455e-06 0)
(0.1 -5.10076e-06 0)
(0.100001 -7.70417e-06 0)
(0.100002 -1.08924e-05 0)
(0.100003 -1.49063e-05 0)
(0.100004 -1.88705e-05 0)
(0.100006 -2.27285e-05 0)
(0.100008 -2.4502e-05 0)
(0.10001 -2.68714e-05 0)
(0.100012 -2.54679e-05 0)
(0.100015 -3.09821e-05 0)
(0.100016 -2.90324e-05 0)
(0.10002 -4.44803e-05 0)
(0.0999985 -1.15612e-06 0)
(0.0999988 -2.40736e-06 0)
(0.0999995 -2.54882e-06 0)
(0.0999998 -2.03252e-06 0)
(0.0999998 -1.28371e-06 0)
(0.0999998 -9.0126e-07 0)
(0.1 -1.14538e-06 0)
(0.1 -2.32413e-06 0)
(0.1 -4.31871e-06 0)
(0.100001 -7.25758e-06 0)
(0.100001 -1.08482e-05 0)
(0.100002 -1.5227e-05 0)
(0.100003 -1.94783e-05 0)
(0.100005 -2.33375e-05 0)
(0.100006 -2.49156e-05 0)
(0.100008 -2.68409e-05 0)
(0.100009 -2.49572e-05 0)
(0.100011 -3.02492e-05 0)
(0.100011 -2.79877e-05 0)
(0.100014 -4.38313e-05 0)
(0.0999991 -1.33717e-06 0)
(0.0999993 -2.73438e-06 0)
(0.0999997 -2.82201e-06 0)
(0.0999999 -2.26251e-06 0)
(0.0999998 -1.55827e-06 0)
(0.0999999 -1.2003e-06 0)
(0.0999999 -1.49373e-06 0)
(0.1 -2.79827e-06 0)
(0.1 -4.83783e-06 0)
(0.1 -7.78301e-06 0)
(0.100001 -1.14024e-05 0)
(0.100001 -1.5881e-05 0)
(0.100002 -2.0332e-05 0)
(0.100003 -2.44801e-05 0)
(0.100004 -2.63505e-05 0)
(0.100005 -2.85511e-05 0)
(0.100005 -2.67583e-05 0)
(0.100006 -3.21908e-05 0)
(0.100007 -2.9805e-05 0)
(0.100008 -4.57686e-05 0)
(0.0999997 -1.44422e-06 0)
(0.0999998 -2.91208e-06 0)
(0.0999999 -2.97467e-06 0)
(0.1 -2.38714e-06 0)
(0.0999999 -1.65825e-06 0)
(0.0999999 -1.25471e-06 0)
(0.1 -1.5119e-06 0)
(0.1 -2.76134e-06 0)
(0.1 -4.82182e-06 0)
(0.1 -7.86891e-06 0)
(0.1 -1.16595e-05 0)
(0.1 -1.63223e-05 0)
(0.100001 -2.09288e-05 0)
(0.100001 -2.51073e-05 0)
(0.100001 -2.69209e-05 0)
(0.100002 -2.89614e-05 0)
(0.100002 -2.70191e-05 0)
(0.100002 -3.24003e-05 0)
(0.100002 -2.99611e-05 0)
(0.100003 -4.61073e-05 0)
(0.1 -1.44433e-06 0)
(0.1 -2.91221e-06 0)
(0.1 -2.97471e-06 0)
(0.1 -2.38715e-06 0)
(0.1 -1.65829e-06 0)
(0.1 -1.25477e-06 0)
(0.1 -1.51189e-06 0)
(0.1 -2.7613e-06 0)
(0.0999999 -4.82182e-06 0)
(0.0999998 -7.86895e-06 0)
(0.0999997 -1.16594e-05 0)
(0.0999996 -1.63221e-05 0)
(0.0999994 -2.09284e-05 0)
(0.0999991 -2.5107e-05 0)
(0.0999988 -2.69209e-05 0)
(0.0999984 -2.89614e-05 0)
(0.0999982 -2.70193e-05 0)
(0.0999977 -3.24001e-05 0)
(0.0999976 -2.99611e-05 0)
(0.0999972 -4.61073e-05 0)
(0.100001 -1.33746e-06 0)
(0.100001 -2.73474e-06 0)
(0.1 -2.82211e-06 0)
(0.1 -2.26249e-06 0)
(0.1 -1.55835e-06 0)
(0.1 -1.20033e-06 0)
(0.1 -1.4935e-06 0)
(0.1 -2.79789e-06 0)
(0.0999999 -4.83761e-06 0)
(0.0999996 -7.78309e-06 0)
(0.0999992 -1.14026e-05 0)
(0.0999987 -1.58809e-05 0)
(0.099998 -2.03314e-05 0)
(0.0999972 -2.44787e-05 0)
(0.0999964 -2.63495e-05 0)
(0.0999953 -2.85485e-05 0)
(0.0999947 -2.6757e-05 0)
(0.0999935 -3.21873e-05 0)
(0.0999932 -2.98035e-05 0)
(0.0999916 -4.57663e-05 0)
(0.100001 -1.15655e-06 0)
(0.100001 -2.40789e-06 0)
(0.1 -2.54897e-06 0)
(0.1 -2.03256e-06 0)
(0.1 -1.28397e-06 0)
(0.1 -9.01403e-07 0)
(0.1 -1.14515e-06 0)
(0.0999999 -2.32367e-06 0)
(0.0999998 -4.31851e-06 0)
(0.0999995 -7.25794e-06 0)
(0.0999989 -1.08489e-05 0)
(0.099998 -1.52275e-05 0)
(0.0999969 -1.94787e-05 0)
(0.0999954 -2.33375e-05 0)
(0.0999939 -2.49163e-05 0)
(0.099992 -2.68399e-05 0)
(0.099991 -2.49576e-05 0)
(0.099989 -3.02476e-05 0)
(0.0999886 -2.79885e-05 0)
(0.0999861 -4.38341e-05 0)
(0.100002 -9.1526e-07 0)
(0.100002 -1.99319e-06 0)
(0.100001 -2.29355e-06 0)
(0.1 -2.05187e-06 0)
(0.1 -1.54679e-06 0)
(0.1 -1.41163e-06 0)
(0.1 -1.93328e-06 0)
(0.0999999 -3.26358e-06 0)
(0.0999996 -5.09994e-06 0)
(0.099999 -7.70356e-06 0)
(0.0999983 -1.08916e-05 0)
(0.0999971 -1.49046e-05 0)
(0.0999958 -1.88681e-05 0)
(0.0999939 -2.27248e-05 0)
(0.0999923 -2.44993e-05 0)
(0.0999896 -2.68659e-05 0)
(0.0999882 -2.54654e-05 0)
(0.099985 -3.09745e-05 0)
(0.0999843 -2.90292e-05 0)
(0.0999802 -4.44728e-05 0)
(0.100003 -6.08768e-07 0)
(0.100002 -1.29395e-06 0)
(0.100001 -1.39991e-06 0)
(0.1 -8.86038e-07 0)
(0.1 -1.44311e-07 0)
(0.1 2.85292e-07 0)
(0.0999998 1.81644e-07 0)
(0.0999997 -7.32405e-07 0)
(0.0999997 -2.29987e-06 0)
(0.0999993 -4.68899e-06 0)
(0.0999983 -7.56885e-06 0)
(0.0999966 -1.11195e-05 0)
(0.0999947 -1.44757e-05 0)
(0.0999918 -1.76749e-05 0)
(0.0999894 -1.88474e-05 0)
(0.0999858 -2.06867e-05 0)
(0.0999841 -1.90079e-05 0)
(0.0999804 -2.41101e-05 0)
(0.0999796 -2.21545e-05 0)
(0.0999749 -3.71318e-05 0)
(0.100003 -5.229e-07 0)
(0.100003 -1.37827e-06 0)
(0.100002 -2.01531e-06 0)
(0.100001 -2.15851e-06 0)
(0.100001 -2.0677e-06 0)
(0.100001 -2.33222e-06 0)
(0.100001 -3.12859e-06 0)
(0.1 -4.44694e-06 0)
(0.0999997 -6.16313e-06 0)
(0.0999989 -8.48504e-06 0)
(0.0999979 -1.11827e-05 0)
(0.0999962 -1.4548e-05 0)
(0.0999945 -1.77379e-05 0)
(0.0999916 -2.10339e-05 0)
(0.0999891 -2.25298e-05 0)
(0.0999848 -2.49765e-05 0)
(0.0999826 -2.40728e-05 0)
(0.0999771 -2.95869e-05 0)
(0.0999761 -2.82742e-05 0)
(0.0999685 -4.28649e-05 0)
(0.100004 -5.64958e-08 0)
(0.100003 -4.23311e-08 0)
(0.100001 1.26067e-07 0)
(0.1 7.1849e-07 0)
(0.0999999 1.57439e-06 0)
(0.0999996 2.18065e-06 0)
(0.0999994 2.37322e-06 0)
(0.0999993 2.01604e-06 0)
(0.0999994 1.29864e-06 0)
(0.0999989 1.39291e-08 0)
(0.0999977 -1.551e-06 0)
(0.0999955 -3.68026e-06 0)
(0.099993 -5.57597e-06 0)
(0.0999891 -7.67224e-06 0)
(0.0999857 -8.12014e-06 0)
(0.0999806 -9.69397e-06 0)
(0.0999779 -8.18992e-06 0)
(0.0999722 -1.28288e-05 0)
(0.0999708 -1.11983e-05 0)
(0.0999632 -2.46238e-05 0)
(0.100005 -3.47479e-07 0)
(0.100004 -1.17062e-06 0)
(0.100003 -2.10504e-06 0)
(0.100002 -2.74702e-06 0)
(0.100002 -3.21556e-06 0)
(0.100002 -3.84978e-06 0)
(0.100002 -4.74402e-06 0)
(0.100001 -6.0997e-06 0)
(0.100001 -7.68987e-06 0)
(0.0999997 -9.70633e-06 0)
(0.0999985 -1.18733e-05 0)
(0.0999963 -1.45215e-05 0)
(0.0999941 -1.68458e-05 0)
(0.0999902 -1.94462e-05 0)
(0.0999872 -2.05684e-05 0)
(0.0999813 -2.29604e-05 0)
(0.0999785 -2.2514e-05 0)
(0.0999704 -2.77313e-05 0)
(0.099969 -2.68909e-05 0)
(0.0999564 -4.00086e-05 0)
(0.100005 4.11483e-07 0)
(0.100004 1.15884e-06 0)
(0.100002 1.81935e-06 0)
(0.100001 2.6444e-06 0)
(0.1 3.60134e-06 0)
(0.1 4.39914e-06 0)
(0.0999998 4.96907e-06 0)
(0.0999996 5.39349e-06 0)
(0.0999996 5.85841e-06 0)
(0.099999 6.14306e-06 0)
(0.0999977 6.33508e-06 0)
(0.0999952 6.14962e-06 0)
(0.0999925 6.15633e-06 0)
(0.099988 5.7089e-06 0)
(0.0999842 6.24345e-06 0)
(0.0999777 5.52285e-06 0)
(0.0999744 7.01746e-06 0)
(0.099966 4.03993e-06 0)
(0.0999642 5.76856e-06 0)
(0.0999518 -4.3398e-06 0)
(0.100006 -8.16846e-07 0)
(0.100005 -2.21233e-06 0)
(0.100004 -3.34981e-06 0)
(0.100003 -4.27373e-06 0)
(0.100003 -5.0888e-06 0)
(0.100003 -5.92321e-06 0)
(0.100003 -6.76565e-06 0)
(0.100002 -7.76754e-06 0)
(0.100002 -9.02859e-06 0)
(0.100001 -1.06585e-05 0)
(0.0999996 -1.22646e-05 0)
(0.0999969 -1.40749e-05 0)
(0.0999946 -1.54866e-05 0)
(0.0999897 -1.72038e-05 0)
(0.0999867 -1.78285e-05 0)
(0.0999789 -1.96945e-05 0)
(0.0999767 -1.94231e-05 0)
(0.0999647 -2.34137e-05 0)
(0.0999643 -2.2656e-05 0)
(0.0999424 -3.25145e-05 0)
)
;

boundaryField
{
    sides
    {
        type            calculated;
        value           nonuniform List<vector> 
40
(
(0.100006 0 0)
(0.100005 0 0)
(0.100004 0 0)
(0.100003 0 0)
(0.100003 0 0)
(0.100003 0 0)
(0.100003 0 0)
(0.100002 0 0)
(0.100002 0 0)
(0.100001 0 0)
(0.0999996 0 0)
(0.0999969 0 0)
(0.0999946 0 0)
(0.0999897 0 0)
(0.0999867 0 0)
(0.0999789 0 0)
(0.0999767 0 0)
(0.0999647 0 0)
(0.0999643 0 0)
(0.0999424 0 0)
(0.0999938 0 0)
(0.0999946 0 0)
(0.099996 0 0)
(0.0999969 0 0)
(0.099997 0 0)
(0.0999972 0 0)
(0.0999975 0 0)
(0.0999979 0 0)
(0.0999982 0 0)
(0.0999992 0 0)
(0.1 0 0)
(0.100003 0 0)
(0.100005 0 0)
(0.10001 0 0)
(0.100013 0 0)
(0.100021 0 0)
(0.100023 0 0)
(0.100035 0 0)
(0.100036 0 0)
(0.100058 0 0)
)
;
    }
    inlet
    {
        type            calculated;
        value           nonuniform List<vector> 
20
(
(0.0999941 0 0)
(0.0999952 0 0)
(0.0999957 0 0)
(0.0999965 0 0)
(0.099997 0 0)
(0.0999976 0 0)
(0.0999982 0 0)
(0.0999987 0 0)
(0.0999992 0 0)
(0.0999997 0 0)
(0.1 0 0)
(0.100001 0 0)
(0.100001 0 0)
(0.100002 0 0)
(0.100002 0 0)
(0.100003 0 0)
(0.100004 0 0)
(0.100004 0 0)
(0.100005 0 0)
(0.100006 0 0)
)
;
    }
    outlet
    {
        type            calculated;
        value           nonuniform List<vector> 
20
(
(0.100058 -3.25013e-05 0)
(0.100049 -4.34777e-06 0)
(0.100044 -4.0011e-05 0)
(0.100037 -2.46244e-05 0)
(0.100032 -4.28733e-05 0)
(0.100025 -3.71278e-05 0)
(0.10002 -4.44803e-05 0)
(0.100014 -4.38314e-05 0)
(0.100008 -4.57687e-05 0)
(0.100003 -4.61073e-05 0)
(0.0999972 -4.61073e-05 0)
(0.0999915 -4.57663e-05 0)
(0.099986 -4.3834e-05 0)
(0.09998 -4.44728e-05 0)
(0.0999747 -3.71317e-05 0)
(0.0999683 -4.28648e-05 0)
(0.0999629 -2.46238e-05 0)
(0.099956 -4.00084e-05 0)
(0.0999513 -4.33978e-06 0)
(0.0999415 -3.25143e-05 0)
)
;
    }
    frontAndBack
    {
        type            empty;
    }
}


// ************************************************************************* //
