/*--------------------------------*- C++ -*----------------------------------*\
  =========                 |
  \\      /  F ield         | OpenFOAM: The Open Source CFD Toolbox
   \\    /   O peration     | Website:  https://openfoam.org
    \\  /    A nd           | Version:  7
     \\/     M anipulation  |
\*---------------------------------------------------------------------------*/
FoamFile
{
    version     2.0;
    format      ascii;
    class       volVectorField;
    location    "36";
    object      ddtCorrDdt0(hU);
}
// * * * * * * * * * * * * * * * * * * * * * * * * * * * * * * * * * * * * * //

dimensions      [0 2 -2 0 0 0 0];

internalField   nonuniform List<vector> 
400
(
(-9.49682e-12 -2.29124e-10 0)
(-4.06088e-10 -6.11347e-10 0)
(-2.25426e-10 -1.22439e-09 0)
(7.39817e-10 -2.46589e-09 0)
(2.20759e-09 -2.67393e-09 0)
(2.27952e-09 -2.46588e-09 0)
(1.43648e-09 -1.8618e-09 0)
(4.90019e-09 -3.08907e-10 0)
(1.17791e-09 1.37159e-09 0)
(1.24233e-09 1.70578e-09 0)
(-2.19591e-09 9.63846e-10 0)
(-4.60619e-09 2.13367e-10 0)
(-5.17591e-09 -1.0686e-09 0)
(-4.7771e-09 -2.67961e-09 0)
(-3.86194e-09 -3.3921e-09 0)
(-2.3538e-09 -3.44992e-09 0)
(7.00582e-11 -2.06685e-09 0)
(6.35651e-10 -8.99306e-10 0)
(2.4293e-09 1.34932e-10 0)
(8.72048e-10 1.48273e-09 0)
(8.10068e-11 -5.8319e-10 0)
(-3.70056e-10 -3.15178e-10 0)
(-9.3898e-10 2.00351e-10 0)
(-8.37663e-12 -8.49091e-10 0)
(1.6174e-09 -1.17617e-09 0)
(1.70605e-09 -1.94309e-09 0)
(3.53472e-09 -1.99404e-09 0)
(-3.06226e-10 -2.72279e-09 0)
(2.70083e-09 -1.30584e-09 0)
(4.79743e-10 -1.35495e-09 0)
(-2.4761e-09 -1.54689e-09 0)
(-4.19243e-09 -9.38723e-10 0)
(-5.20821e-09 -6.40914e-10 0)
(-5.19743e-09 -1.22331e-09 0)
(-4.18852e-09 -1.6582e-09 0)
(-2.50322e-09 -2.25295e-09 0)
(7.76625e-11 -2.20823e-09 0)
(9.41661e-10 -1.78585e-09 0)
(2.83912e-09 -1.45638e-09 0)
(1.32194e-09 4.28003e-10 0)
(3.90466e-11 -7.1588e-10 0)
(-3.0175e-12 -1.30223e-09 0)
(9.64998e-11 -2.55595e-09 0)
(8.75635e-10 -4.2285e-09 0)
(1.1585e-09 -5.22393e-09 0)
(1.50666e-09 -5.48561e-09 0)
(1.3185e-09 -4.03768e-09 0)
(1.62355e-09 -2.587e-09 0)
(1.57506e-09 2.06089e-10 0)
(-1.48872e-09 1.61995e-09 0)
(-2.96669e-09 1.93745e-09 0)
(-3.53992e-09 9.4218e-10 0)
(-4.53064e-09 -1.2901e-09 0)
(-4.69127e-09 -4.30216e-09 0)
(-3.60306e-09 -5.76316e-09 0)
(-1.7315e-09 -6.65711e-09 0)
(7.03997e-10 -4.97152e-09 0)
(1.00475e-09 -3.03266e-09 0)
(2.52502e-09 -1.037e-09 0)
(9.12973e-10 2.79247e-09 0)
(9.34781e-11 -7.24473e-10 0)
(-4.74019e-10 -1.79429e-09 0)
(-1.01479e-09 -3.82843e-09 0)
(-1.84427e-10 -5.68197e-09 0)
(8.36501e-10 -7.44293e-09 0)
(2.02794e-09 -7.5466e-09 0)
(2.30362e-09 -6.90549e-09 0)
(3.3894e-09 -4.00329e-09 0)
(2.45351e-09 -1.86475e-09 0)
(-8.86915e-11 5.56584e-10 0)
(-1.78004e-09 1.93458e-09 0)
(-3.21585e-09 1.17804e-09 0)
(-4.68884e-09 -1.36613e-09 0)
(-4.91533e-09 -5.03201e-09 0)
(-3.84306e-09 -6.84589e-09 0)
(-2.19645e-09 -8.21534e-09 0)
(9.77522e-11 -6.36673e-09 0)
(7.5374e-10 -3.96036e-09 0)
(2.5831e-09 -1.87622e-09 0)
(1.3521e-09 3.13138e-09 0)
(6.38189e-11 -9.03032e-10 0)
(-5.19861e-10 -2.01553e-09 0)
(-4.17018e-10 -3.68772e-09 0)
(2.86529e-10 -5.28984e-09 0)
(6.94145e-10 -6.80139e-09 0)
(7.39685e-10 -7.0122e-09 0)
(4.4385e-10 -6.51706e-09 0)
(8.14246e-10 -4.10999e-09 0)
(1.44216e-10 -1.64968e-09 0)
(-4.38027e-10 1.38881e-09 0)
(-1.21448e-09 2.68439e-09 0)
(-2.35163e-09 1.41757e-09 0)
(-3.35457e-09 -1.5111e-09 0)
(-3.32689e-09 -5.39282e-09 0)
(-2.49737e-09 -7.20519e-09 0)
(-1.54169e-09 -8.90448e-09 0)
(-1.5059e-10 -7.27114e-09 0)
(9.00407e-11 -4.84706e-09 0)
(1.42935e-09 -2.34713e-09 0)
(6.39312e-10 3.68061e-09 0)
(1.0659e-10 -1.10736e-09 0)
(-9.91158e-10 -3.24636e-09 0)
(-1.18359e-09 -5.97962e-09 0)
(-3.9059e-10 -8.4194e-09 0)
(8.91978e-10 -9.68758e-09 0)
(1.81149e-09 -9.55593e-09 0)
(2.43266e-09 -7.47679e-09 0)
(2.55523e-09 -3.75207e-09 0)
(1.64387e-09 6.73994e-10 0)
(3.05897e-10 4.64538e-09 0)
(-1.68392e-09 5.55133e-09 0)
(-3.49795e-09 3.13525e-09 0)
(-4.50771e-09 -1.4345e-09 0)
(-4.04535e-09 -7.15045e-09 0)
(-2.77192e-09 -9.91265e-09 0)
(-1.23983e-09 -1.1943e-08 0)
(6.70324e-10 -9.14583e-09 0)
(1.10266e-09 -5.62719e-09 0)
(2.52492e-09 -2.19615e-09 0)
(1.04378e-09 5.1903e-09 0)
(4.99463e-11 -1.10039e-09 0)
(-7.28779e-10 -3.25529e-09 0)
(-5.2226e-10 -5.21327e-09 0)
(-3.60146e-12 -7.25503e-09 0)
(4.06822e-10 -8.66858e-09 0)
(2.43416e-10 -9.27308e-09 0)
(2.45908e-10 -7.92203e-09 0)
(3.73028e-10 -4.95389e-09 0)
(5.15057e-10 -9.36498e-10 0)
(3.44593e-10 2.87015e-09 0)
(-4.73855e-10 4.23157e-09 0)
(-1.1982e-09 2.80598e-09 0)
(-1.61628e-09 -8.02155e-10 0)
(-1.77574e-09 -6.18478e-09 0)
(-1.79589e-09 -9.10344e-09 0)
(-1.71452e-09 -1.1708e-08 0)
(-9.26833e-10 -9.56476e-09 0)
(-5.81395e-10 -6.27101e-09 0)
(3.44643e-10 -3.07734e-09 0)
(1.07614e-10 4.86076e-09 0)
(4.36713e-11 -1.0857e-09 0)
(-6.84182e-10 -3.9165e-09 0)
(-6.46379e-10 -6.3727e-09 0)
(-1.4393e-10 -8.49735e-09 0)
(2.62745e-10 -9.9362e-09 0)
(4.15423e-10 -1.00425e-08 0)
(7.50639e-10 -7.82083e-09 0)
(1.02901e-09 -3.49766e-09 0)
(9.74416e-10 1.62447e-09 0)
(6.55232e-11 5.73575e-09 0)
(-1.22534e-09 6.56708e-09 0)
(-1.99592e-09 3.95139e-09 0)
(-2.31524e-09 -1.27276e-09 0)
(-2.11823e-09 -8.18432e-09 0)
(-1.64828e-09 -1.16874e-08 0)
(-8.49536e-10 -1.42563e-08 0)
(4.20691e-10 -1.10811e-08 0)
(8.22697e-10 -6.89183e-09 0)
(1.6214e-09 -2.72499e-09 0)
(4.07503e-10 6.08721e-09 0)
(1.26649e-11 -1.0666e-09 0)
(-4.16776e-10 -4.25783e-09 0)
(-3.94678e-10 -6.75632e-09 0)
(1.16996e-11 -8.52943e-09 0)
(2.05562e-10 -9.93362e-09 0)
(2.60926e-10 -1.00536e-08 0)
(1.84785e-10 -8.10989e-09 0)
(2.07606e-10 -3.97853e-09 0)
(2.15431e-10 9.05211e-10 0)
(-1.34344e-10 5.15445e-09 0)
(-4.02537e-10 6.55764e-09 0)
(-4.88188e-10 4.4837e-09 0)
(-6.54502e-10 -4.12393e-10 0)
(-8.18537e-10 -7.34371e-09 0)
(-8.55426e-10 -1.10668e-08 0)
(-7.4923e-10 -1.40772e-08 0)
(-3.27451e-10 -1.13832e-08 0)
(-1.69052e-10 -7.44154e-09 0)
(-5.37641e-11 -3.60806e-09 0)
(-2.91063e-10 5.70941e-09 0)
(1.24949e-11 -9.9814e-10 0)
(-1.3765e-10 -4.37759e-09 0)
(-9.80582e-11 -6.96761e-09 0)
(2.87678e-11 -8.78722e-09 0)
(-1.2862e-11 -1.02606e-08 0)
(-8.15194e-11 -1.0361e-08 0)
(-1.94854e-11 -8.16621e-09 0)
(2.22064e-10 -3.56612e-09 0)
(3.35915e-10 1.56374e-09 0)
(1.88945e-10 5.90367e-09 0)
(-8.31013e-11 7.09408e-09 0)
(-3.23951e-10 4.46592e-09 0)
(-5.67943e-10 -1.00896e-09 0)
(-7.02596e-10 -8.27516e-09 0)
(-6.93403e-10 -1.19867e-08 0)
(-4.21844e-10 -1.4834e-08 0)
(8.90543e-11 -1.17178e-08 0)
(3.53565e-10 -7.50894e-09 0)
(7.77242e-10 -3.40825e-09 0)
(3.17414e-10 6.10555e-09 0)
(-4.8283e-12 -9.98256e-10 0)
(1.2721e-10 -4.38179e-09 0)
(1.36263e-10 -6.9624e-09 0)
(-2.82417e-11 -8.80205e-09 0)
(-3.06443e-12 -1.02648e-08 0)
(4.37761e-11 -1.03622e-08 0)
(3.34445e-11 -8.15102e-09 0)
(-1.86451e-10 -3.59106e-09 0)
(-3.67004e-10 1.57077e-09 0)
(-1.56372e-10 5.89339e-09 0)
(7.16288e-11 7.06382e-09 0)
(2.66204e-10 4.4812e-09 0)
(5.96575e-10 -9.93624e-10 0)
(7.30081e-10 -8.28905e-09 0)
(6.42041e-10 -1.19911e-08 0)
(3.48756e-10 -1.48091e-08 0)
(-1.3909e-10 -1.16674e-08 0)
(-3.65783e-10 -7.4547e-09 0)
(-7.44451e-10 -3.37571e-09 0)
(-2.62157e-10 6.11441e-09 0)
(-1.69699e-11 -1.07751e-09 0)
(4.15457e-10 -4.2519e-09 0)
(3.94934e-10 -6.74916e-09 0)
(1.18192e-11 -8.58276e-09 0)
(-2.1214e-10 -9.92732e-09 0)
(-2.56194e-10 -1.00559e-08 0)
(-2.21999e-10 -8.05142e-09 0)
(-1.83274e-10 -4.00802e-09 0)
(-2.1813e-10 9.25255e-10 0)
(1.00743e-10 5.18606e-09 0)
(4.41405e-10 6.52403e-09 0)
(5.06516e-10 4.48857e-09 0)
(6.33033e-10 -3.88961e-10 0)
(8.40734e-10 -7.3454e-09 0)
(9.05294e-10 -1.10675e-08 0)
(7.48685e-10 -1.40455e-08 0)
(2.78059e-10 -1.12844e-08 0)
(1.35445e-10 -7.30833e-09 0)
(6.62389e-11 -3.51627e-09 0)
(3.22016e-10 5.7354e-09 0)
(-3.32307e-11 -1.09856e-09 0)
(6.80139e-10 -3.89353e-09 0)
(6.03347e-10 -6.39499e-09 0)
(1.75974e-10 -8.53045e-09 0)
(-2.42273e-10 -9.90869e-09 0)
(-3.73832e-10 -1.00408e-08 0)
(-7.99842e-10 -7.7681e-09 0)
(-1.05893e-09 -3.46894e-09 0)
(-8.88471e-10 1.59946e-09 0)
(-1.35404e-10 5.82335e-09 0)
(1.1776e-09 6.64847e-09 0)
(2.03386e-09 3.97009e-09 0)
(2.32686e-09 -1.2587e-09 0)
(2.16075e-09 -8.15916e-09 0)
(1.73518e-09 -1.16872e-08 0)
(8.96884e-10 -1.42684e-08 0)
(-4.23802e-10 -1.10219e-08 0)
(-8.41428e-10 -6.7687e-09 0)
(-1.64048e-09 -2.62888e-09 0)
(-4.2847e-10 6.11409e-09 0)
(-3.89576e-11 -1.09085e-09 0)
(7.23893e-10 -3.25792e-09 0)
(4.83004e-10 -5.23867e-09 0)
(4.89593e-12 -7.18697e-09 0)
(-3.49591e-10 -8.69782e-09 0)
(-2.3783e-10 -9.26959e-09 0)
(-1.87668e-10 -7.99351e-09 0)
(-4.7272e-10 -4.8953e-09 0)
(-3.78764e-10 -1.03241e-09 0)
(-2.05707e-10 2.81545e-09 0)
(3.7708e-10 4.3434e-09 0)
(1.09297e-09 2.91057e-09 0)
(1.59519e-09 -7.52886e-10 0)
(1.82227e-09 -6.16498e-09 0)
(1.87503e-09 -9.13065e-09 0)
(1.78597e-09 -1.17655e-08 0)
(9.7428e-10 -9.58749e-09 0)
(5.79989e-10 -6.24572e-09 0)
(-3.97593e-10 -3.04376e-09 0)
(-1.75003e-10 4.86811e-09 0)
(-1.24086e-10 -1.07629e-09 0)
(1.00755e-09 -3.2814e-09 0)
(1.18419e-09 -5.93528e-09 0)
(3.46141e-10 -8.32542e-09 0)
(-8.54877e-10 -9.79771e-09 0)
(-1.84579e-09 -9.5836e-09 0)
(-2.32778e-09 -7.61492e-09 0)
(-2.59099e-09 -3.75773e-09 0)
(-1.70938e-09 6.17369e-10 0)
(-1.1998e-12 4.4036e-09 0)
(1.85873e-09 5.45657e-09 0)
(3.39596e-09 3.20947e-09 0)
(4.36333e-09 -1.34833e-09 0)
(3.97717e-09 -7.13001e-09 0)
(2.78081e-09 -9.95744e-09 0)
(1.29635e-09 -1.20205e-08 0)
(-6.05625e-10 -9.2362e-09 0)
(-1.08992e-09 -5.71535e-09 0)
(-2.57474e-09 -2.238e-09 0)
(-1.10832e-09 5.18097e-09 0)
(-1.04833e-10 -8.93429e-10 0)
(5.62045e-10 -2.05792e-09 0)
(4.43219e-10 -3.57362e-09 0)
(-3.53608e-10 -5.3429e-09 0)
(-7.34496e-10 -6.87324e-09 0)
(-7.42217e-10 -7.04156e-09 0)
(-4.35857e-10 -6.47864e-09 0)
(-7.61591e-10 -4.1558e-09 0)
(-4.15561e-10 -1.52847e-09 0)
(5.37789e-10 1.23286e-09 0)
(1.59987e-09 2.39956e-09 0)
(2.48999e-09 1.30542e-09 0)
(3.22779e-09 -1.4802e-09 0)
(3.1545e-09 -5.35614e-09 0)
(2.41569e-09 -7.21464e-09 0)
(1.55511e-09 -8.9476e-09 0)
(2.01188e-10 -7.36274e-09 0)
(-6.4276e-11 -4.97486e-09 0)
(-1.44479e-09 -2.43392e-09 0)
(-6.69057e-10 3.64953e-09 0)
(-1.21786e-10 -7.64252e-10 0)
(5.08131e-10 -1.83098e-09 0)
(1.03897e-09 -3.69975e-09 0)
(1.67477e-10 -5.92728e-09 0)
(-9.39132e-10 -7.4574e-09 0)
(-1.90376e-09 -7.35205e-09 0)
(-2.47123e-09 -6.73447e-09 0)
(-3.3272e-09 -3.79341e-09 0)
(-2.74692e-09 -1.45529e-09 0)
(-2.70348e-10 6.58063e-10 0)
(2.0104e-09 1.69248e-09 0)
(3.56827e-09 9.47541e-10 0)
(4.75494e-09 -1.44353e-09 0)
(4.77241e-09 -5.01954e-09 0)
(3.70469e-09 -6.81754e-09 0)
(2.14353e-09 -8.19436e-09 0)
(-8.86379e-11 -6.37432e-09 0)
(-7.25355e-10 -4.01302e-09 0)
(-2.55717e-09 -1.91888e-09 0)
(-1.32327e-09 3.11837e-09 0)
(-3.02471e-11 -7.37678e-10 0)
(5.30862e-11 -1.21165e-09 0)
(-1.25911e-10 -2.61253e-09 0)
(-8.60126e-10 -4.3026e-09 0)
(-1.16654e-09 -5.20127e-09 0)
(-1.36543e-09 -5.1719e-09 0)
(-1.26735e-09 -3.82302e-09 0)
(-1.19151e-09 -2.15766e-09 0)
(-2.00995e-09 3.03264e-10 0)
(5.86934e-10 1.77072e-09 0)
(2.84453e-09 2.0388e-09 0)
(3.926e-09 8.91887e-10 0)
(4.78253e-09 -1.38507e-09 0)
(4.67708e-09 -4.32831e-09 0)
(3.49894e-09 -5.71143e-09 0)
(1.66234e-09 -6.56588e-09 0)
(-7.18767e-10 -4.88204e-09 0)
(-9.82806e-10 -2.97337e-09 0)
(-2.48453e-09 -1.00391e-09 0)
(-8.61052e-10 2.79887e-09 0)
(-2.4506e-11 -5.45385e-10 0)
(3.85502e-10 -1.91915e-10 0)
(8.66661e-10 -1.83503e-10 0)
(-4.28458e-11 -4.6962e-10 0)
(-1.39035e-09 -7.85572e-10 0)
(-1.998e-09 -2.54226e-09 0)
(-4.56522e-09 -2.27137e-09 0)
(2.60765e-10 -3.57126e-09 0)
(-3.26589e-09 -2.01466e-09 0)
(-8.33249e-10 -9.20251e-10 0)
(2.37278e-09 -8.65561e-10 0)
(4.26674e-09 -7.34992e-10 0)
(5.34229e-09 -7.52678e-10 0)
(5.2892e-09 -1.30841e-09 0)
(4.21582e-09 -1.61819e-09 0)
(2.49439e-09 -2.1419e-09 0)
(-8.82917e-11 -2.07939e-09 0)
(-9.3798e-10 -1.6716e-09 0)
(-2.81566e-09 -1.37432e-09 0)
(-1.29922e-09 4.54116e-10 0)
(7.25097e-12 -1.99602e-10 0)
(2.77428e-10 -5.92288e-10 0)
(3.31558e-10 -1.49056e-09 0)
(-6.20527e-10 -2.17232e-09 0)
(-2.35911e-09 -2.3124e-09 0)
(-2.20729e-09 -3.18429e-09 0)
(-3.5939e-10 -2.28178e-09 0)
(-5.26215e-09 -1.36768e-09 0)
(2.99451e-10 8.48357e-10 0)
(-5.98799e-11 2.10141e-09 0)
(1.78869e-09 1.46696e-09 0)
(3.90312e-09 3.57166e-10 0)
(5.03374e-09 -1.13548e-09 0)
(4.9686e-09 -2.73315e-09 0)
(4.013e-09 -3.37665e-09 0)
(2.37472e-09 -3.40033e-09 0)
(-1.06231e-10 -2.00649e-09 0)
(-6.67622e-10 -8.45741e-10 0)
(-2.44198e-09 1.75616e-10 0)
(-8.85991e-10 1.49901e-09 0)
)
;

boundaryField
{
    sides
    {
        type            calculated;
        value           nonuniform List<vector> 
40
(
(7.25097e-12 0 0)
(2.77428e-10 0 0)
(3.31558e-10 0 0)
(-6.20527e-10 0 0)
(-2.35911e-09 0 0)
(-2.20729e-09 0 0)
(-3.5939e-10 0 0)
(-5.26215e-09 0 0)
(2.99451e-10 0 0)
(-5.98799e-11 0 0)
(1.78869e-09 0 0)
(3.90312e-09 0 0)
(5.03374e-09 0 0)
(4.9686e-09 0 0)
(4.013e-09 0 0)
(2.37472e-09 0 0)
(-1.06231e-10 0 0)
(-6.67622e-10 0 0)
(-2.44198e-09 0 0)
(-8.85991e-10 0 0)
(-9.49682e-12 0 0)
(-4.06088e-10 0 0)
(-2.25426e-10 0 0)
(7.39817e-10 0 0)
(2.20759e-09 0 0)
(2.27952e-09 0 0)
(1.43648e-09 0 0)
(4.90019e-09 0 0)
(1.17791e-09 0 0)
(1.24233e-09 0 0)
(-2.19591e-09 0 0)
(-4.60619e-09 0 0)
(-5.17591e-09 0 0)
(-4.7771e-09 0 0)
(-3.86194e-09 0 0)
(-2.3538e-09 0 0)
(7.00582e-11 0 0)
(6.35651e-10 0 0)
(2.4293e-09 0 0)
(8.72048e-10 0 0)
)
;
    }
    inlet
    {
        type            calculated;
        value           uniform (0 0 0);
    }
    outlet
    {
        type            calculated;
        value           nonuniform List<vector> 
20
(
(8.72048e-10 1.48273e-09 0)
(1.32194e-09 4.28003e-10 0)
(9.12973e-10 2.79247e-09 0)
(1.3521e-09 3.13138e-09 0)
(6.39312e-10 3.68061e-09 0)
(1.04378e-09 5.1903e-09 0)
(1.07614e-10 4.86076e-09 0)
(4.07503e-10 6.08721e-09 0)
(-2.91063e-10 5.70941e-09 0)
(3.17414e-10 6.10555e-09 0)
(-2.62157e-10 6.11441e-09 0)
(3.22016e-10 5.7354e-09 0)
(-4.2847e-10 6.11409e-09 0)
(-1.75003e-10 4.86811e-09 0)
(-1.10832e-09 5.18097e-09 0)
(-6.69057e-10 3.64953e-09 0)
(-1.32327e-09 3.11837e-09 0)
(-8.61052e-10 2.79887e-09 0)
(-1.29922e-09 4.54116e-10 0)
(-8.85991e-10 1.49901e-09 0)
)
;
    }
    frontAndBack
    {
        type            empty;
    }
}


// ************************************************************************* //
