/*--------------------------------*- C++ -*----------------------------------*\
  =========                 |
  \\      /  F ield         | OpenFOAM: The Open Source CFD Toolbox
   \\    /   O peration     | Website:  https://openfoam.org
    \\  /    A nd           | Version:  7
     \\/     M anipulation  |
\*---------------------------------------------------------------------------*/
FoamFile
{
    version     2.0;
    format      ascii;
    class       volVectorField;
    location    "36";
    object      hU_0;
}
// * * * * * * * * * * * * * * * * * * * * * * * * * * * * * * * * * * * * * //

dimensions      [0 2 -1 0 0 0 0];

internalField   nonuniform List<vector> 
400
(
(0.001 -8.69946e-09 0)
(0.001 -2.35883e-08 0)
(0.001 -3.54194e-08 0)
(0.00100001 -4.53142e-08 0)
(0.00100001 -5.45219e-08 0)
(0.00100002 -6.40945e-08 0)
(0.00100002 -7.4064e-08 0)
(0.00100003 -8.56717e-08 0)
(0.00100004 -9.7492e-08 0)
(0.00100006 -1.1108e-07 0)
(0.00100007 -1.23429e-07 0)
(0.0010001 -1.38066e-07 0)
(0.00100011 -1.48938e-07 0)
(0.00100015 -1.65116e-07 0)
(0.00100017 -1.7272e-07 0)
(0.00100024 -1.95362e-07 0)
(0.00100026 -1.98506e-07 0)
(0.00100038 -2.40642e-07 0)
(0.00100038 -2.36154e-07 0)
(0.0010006 -3.30223e-07 0)
(0.001 3.97783e-09 0)
(0.001 1.19999e-08 0)
(0.00100001 1.98616e-08 0)
(0.00100002 2.72597e-08 0)
(0.00100002 3.42676e-08 0)
(0.00100003 4.09135e-08 0)
(0.00100003 4.74003e-08 0)
(0.00100004 5.29598e-08 0)
(0.00100005 5.84999e-08 0)
(0.00100006 6.2241e-08 0)
(0.00100008 6.64569e-08 0)
(0.0010001 6.74994e-08 0)
(0.00100012 7.09476e-08 0)
(0.00100016 6.79233e-08 0)
(0.00100018 7.22734e-08 0)
(0.00100024 6.03456e-08 0)
(0.00100026 6.69565e-08 0)
(0.00100035 3.19808e-08 0)
(0.00100037 4.13604e-08 0)
(0.0010005 -5.33344e-08 0)
(0.001 -3.95392e-09 0)
(0.001 -1.3083e-08 0)
(0.001 -2.29032e-08 0)
(0.001 -3.27109e-08 0)
(0.00100001 -4.20625e-08 0)
(0.00100001 -5.16438e-08 0)
(0.00100002 -6.15097e-08 0)
(0.00100003 -7.30786e-08 0)
(0.00100004 -8.57325e-08 0)
(0.00100005 -1.01561e-07 0)
(0.00100006 -1.17024e-07 0)
(0.00100008 -1.36325e-07 0)
(0.0010001 -1.51681e-07 0)
(0.00100014 -1.74484e-07 0)
(0.00100016 -1.87718e-07 0)
(0.00100021 -2.21215e-07 0)
(0.00100023 -2.32635e-07 0)
(0.00100031 -2.93783e-07 0)
(0.00100033 -3.00101e-07 0)
(0.00100046 -4.18368e-07 0)
(0.001 -1.86093e-10 0)
(0.001 -1.84807e-10 0)
(0.00100001 6.36359e-10 0)
(0.00100001 2.24443e-09 0)
(0.00100002 4.41573e-09 0)
(0.00100002 5.91301e-09 0)
(0.00100003 6.70049e-09 0)
(0.00100004 5.00035e-09 0)
(0.00100004 1.76024e-09 0)
(0.00100005 -5.32507e-09 0)
(0.00100007 -1.27687e-08 0)
(0.00100009 -2.48374e-08 0)
(0.0010001 -3.35129e-08 0)
(0.00100013 -5.0183e-08 0)
(0.00100016 -5.74799e-08 0)
(0.0010002 -8.60264e-08 0)
(0.00100022 -9.2537e-08 0)
(0.00100028 -1.50799e-07 0)
(0.0010003 -1.53962e-07 0)
(0.00100038 -2.71356e-07 0)
(0.001 -3.14946e-09 0)
(0.001 -9.7963e-09 0)
(0.001 -1.68929e-08 0)
(0.00100001 -2.44336e-08 0)
(0.00100001 -3.19392e-08 0)
(0.00100001 -4.01326e-08 0)
(0.00100002 -4.88737e-08 0)
(0.00100002 -6.01012e-08 0)
(0.00100003 -7.2918e-08 0)
(0.00100004 -9.00035e-08 0)
(0.00100005 -1.07817e-07 0)
(0.00100007 -1.30524e-07 0)
(0.00100009 -1.49864e-07 0)
(0.00100011 -1.77486e-07 0)
(0.00100013 -1.95605e-07 0)
(0.00100017 -2.35586e-07 0)
(0.00100018 -2.52447e-07 0)
(0.00100024 -3.21951e-07 0)
(0.00100025 -3.33063e-07 0)
(0.00100033 -4.58775e-07 0)
(0.001 -3.00752e-09 0)
(0.001 -8.23884e-09 0)
(0.001 -1.22839e-08 0)
(0.00100001 -1.54074e-08 0)
(0.00100001 -1.77782e-08 0)
(0.00100001 -2.08149e-08 0)
(0.00100002 -2.48922e-08 0)
(0.00100002 -3.238e-08 0)
(0.00100003 -4.24542e-08 0)
(0.00100004 -5.76729e-08 0)
(0.00100005 -7.40682e-08 0)
(0.00100006 -9.52825e-08 0)
(0.00100008 -1.12902e-07 0)
(0.0010001 -1.38094e-07 0)
(0.00100012 -1.53654e-07 0)
(0.00100014 -1.91032e-07 0)
(0.00100016 -2.05731e-07 0)
(0.0010002 -2.73839e-07 0)
(0.00100021 -2.83276e-07 0)
(0.00100026 -4.07867e-07 0)
(0.001 -3.60146e-09 0)
(0.001 -1.01386e-08 0)
(0.001 -1.6306e-08 0)
(0.001 -2.25439e-08 0)
(0.00100001 -2.85823e-08 0)
(0.00100001 -3.53385e-08 0)
(0.00100001 -4.30622e-08 0)
(0.00100002 -5.4055e-08 0)
(0.00100002 -6.75558e-08 0)
(0.00100003 -8.63266e-08 0)
(0.00100004 -1.06668e-07 0)
(0.00100005 -1.32507e-07 0)
(0.00100006 -1.55372e-07 0)
(0.00100007 -1.86409e-07 0)
(0.00100009 -2.07684e-07 0)
(0.00100011 -2.50985e-07 0)
(0.00100012 -2.70409e-07 0)
(0.00100015 -3.43687e-07 0)
(0.00100016 -3.5628e-07 0)
(0.00100021 -4.84954e-07 0)
(0.001 -4.12446e-09 0)
(0.001 -1.13356e-08 0)
(0.001 -1.76224e-08 0)
(0.001 -2.34892e-08 0)
(0.00100001 -2.88321e-08 0)
(0.00100001 -3.47504e-08 0)
(0.00100001 -4.18122e-08 0)
(0.00100001 -5.26366e-08 0)
(0.00100002 -6.65804e-08 0)
(0.00100002 -8.62107e-08 0)
(0.00100003 -1.07494e-07 0)
(0.00100004 -1.33839e-07 0)
(0.00100004 -1.56737e-07 0)
(0.00100006 -1.87007e-07 0)
(0.00100007 -2.0744e-07 0)
(0.00100008 -2.49695e-07 0)
(0.00100009 -2.6863e-07 0)
(0.00100011 -3.41583e-07 0)
(0.00100012 -3.54018e-07 0)
(0.00100015 -4.82147e-07 0)
(0.001 -4.43556e-09 0)
(0.001 -1.1974e-08 0)
(0.001 -1.84253e-08 0)
(0.001 -2.45954e-08 0)
(0.001 -3.04444e-08 0)
(0.001 -3.7004e-08 0)
(0.00100001 -4.46973e-08 0)
(0.00100001 -5.60992e-08 0)
(0.00100001 -7.06061e-08 0)
(0.00100001 -9.0962e-08 0)
(0.00100002 -1.1334e-07 0)
(0.00100002 -1.41301e-07 0)
(0.00100003 -1.662e-07 0)
(0.00100003 -1.98811e-07 0)
(0.00100004 -2.21414e-07 0)
(0.00100005 -2.65963e-07 0)
(0.00100005 -2.86369e-07 0)
(0.00100007 -3.61162e-07 0)
(0.00100007 -3.74183e-07 0)
(0.00100009 -5.04043e-07 0)
(0.001 -4.59101e-09 0)
(0.001 -1.23391e-08 0)
(0.001 -1.89565e-08 0)
(0.001 -2.53241e-08 0)
(0.001 -3.12998e-08 0)
(0.001 -3.78987e-08 0)
(0.001 -4.56694e-08 0)
(0.001 -5.73855e-08 0)
(0.001 -7.24709e-08 0)
(0.001 -9.3533e-08 0)
(0.00100001 -1.16607e-07 0)
(0.00100001 -1.45046e-07 0)
(0.00100001 -1.70222e-07 0)
(0.00100001 -2.02808e-07 0)
(0.00100001 -2.25407e-07 0)
(0.00100002 -2.69857e-07 0)
(0.00100002 -2.90444e-07 0)
(0.00100002 -3.6535e-07 0)
(0.00100002 -3.78678e-07 0)
(0.00100003 -5.08416e-07 0)
(0.001 -4.59291e-09 0)
(0.001 -1.23404e-08 0)
(0.001 -1.89585e-08 0)
(0.000999999 -2.53227e-08 0)
(0.000999999 -3.12995e-08 0)
(0.000999998 -3.78975e-08 0)
(0.000999998 -4.56709e-08 0)
(0.000999997 -5.73856e-08 0)
(0.000999996 -7.24688e-08 0)
(0.000999996 -9.35322e-08 0)
(0.000999995 -1.16603e-07 0)
(0.000999993 -1.45042e-07 0)
(0.000999991 -1.7022e-07 0)
(0.000999989 -2.02803e-07 0)
(0.000999987 -2.25399e-07 0)
(0.000999983 -2.69853e-07 0)
(0.000999982 -2.90445e-07 0)
(0.000999978 -3.65349e-07 0)
(0.000999977 -3.78675e-07 0)
(0.000999971 -5.08412e-07 0)
(0.001 -4.43895e-09 0)
(0.001 -1.19767e-08 0)
(0.000999999 -1.84285e-08 0)
(0.000999998 -2.45954e-08 0)
(0.000999997 -3.04444e-08 0)
(0.000999995 -3.70018e-08 0)
(0.000999994 -4.46983e-08 0)
(0.000999992 -5.60995e-08 0)
(0.00099999 -7.06003e-08 0)
(0.000999986 -9.09595e-08 0)
(0.000999983 -1.13337e-07 0)
(0.000999978 -1.41293e-07 0)
(0.000999974 -1.66193e-07 0)
(0.000999967 -1.98791e-07 0)
(0.000999961 -2.2139e-07 0)
(0.000999952 -2.65936e-07 0)
(0.000999946 -2.86355e-07 0)
(0.000999934 -3.61129e-07 0)
(0.00099993 -3.74151e-07 0)
(0.000999912 -5.03988e-07 0)
(0.001 -4.1252e-09 0)
(0.000999999 -1.13351e-08 0)
(0.000999998 -1.76246e-08 0)
(0.000999996 -2.34949e-08 0)
(0.000999995 -2.88307e-08 0)
(0.000999992 -3.47503e-08 0)
(0.00099999 -4.18088e-08 0)
(0.000999987 -5.26385e-08 0)
(0.000999983 -6.65752e-08 0)
(0.000999978 -8.62043e-08 0)
(0.000999973 -1.07497e-07 0)
(0.000999964 -1.33845e-07 0)
(0.000999956 -1.56744e-07 0)
(0.000999944 -1.87004e-07 0)
(0.000999934 -2.07436e-07 0)
(0.000999919 -2.4969e-07 0)
(0.00099991 -2.68641e-07 0)
(0.000999889 -3.41584e-07 0)
(0.000999883 -3.54024e-07 0)
(0.000999854 -4.82142e-07 0)
(0.001 -3.59727e-09 0)
(0.000999999 -1.01324e-08 0)
(0.000999997 -1.63082e-08 0)
(0.000999995 -2.25458e-08 0)
(0.000999993 -2.85745e-08 0)
(0.00099999 -3.5335e-08 0)
(0.000999986 -4.30541e-08 0)
(0.000999982 -5.40501e-08 0)
(0.000999977 -6.75518e-08 0)
(0.00099997 -8.63046e-08 0)
(0.000999962 -1.06649e-07 0)
(0.000999952 -1.32493e-07 0)
(0.000999941 -1.55364e-07 0)
(0.000999926 -1.86385e-07 0)
(0.000999913 -2.07659e-07 0)
(0.000999891 -2.50934e-07 0)
(0.000999878 -2.7037e-07 0)
(0.000999847 -3.43611e-07 0)
(0.000999839 -3.56215e-07 0)
(0.000999793 -4.84825e-07 0)
(0.001 -3.00132e-09 0)
(0.000999999 -8.23613e-09 0)
(0.000999996 -1.22885e-08 0)
(0.000999992 -1.54024e-08 0)
(0.000999989 -1.77783e-08 0)
(0.000999985 -2.08214e-08 0)
(0.000999981 -2.49077e-08 0)
(0.000999976 -3.23929e-08 0)
(0.00099997 -4.2481e-08 0)
(0.000999962 -5.76861e-08 0)
(0.000999952 -7.40678e-08 0)
(0.000999937 -9.52862e-08 0)
(0.000999923 -1.12919e-07 0)
(0.000999902 -1.3811e-07 0)
(0.000999885 -1.53673e-07 0)
(0.000999857 -1.91031e-07 0)
(0.00099984 -2.05739e-07 0)
(0.000999802 -2.73836e-07 0)
(0.00099979 -2.83288e-07 0)
(0.000999735 -4.07864e-07 0)
(0.001 -3.14596e-09 0)
(0.000999999 -9.79964e-09 0)
(0.000999997 -1.68858e-08 0)
(0.000999995 -2.44166e-08 0)
(0.000999992 -3.19475e-08 0)
(0.000999988 -4.01327e-08 0)
(0.000999983 -4.88892e-08 0)
(0.000999976 -6.01016e-08 0)
(0.000999969 -7.29293e-08 0)
(0.000999958 -9.00172e-08 0)
(0.000999947 -1.07809e-07 0)
(0.00099993 -1.30493e-07 0)
(0.000999915 -1.49842e-07 0)
(0.00099989 -1.7746e-07 0)
(0.000999871 -1.95595e-07 0)
(0.000999835 -2.35538e-07 0)
(0.000999816 -2.52413e-07 0)
(0.000999764 -3.21862e-07 0)
(0.000999753 -3.33005e-07 0)
(0.000999673 -4.58626e-07 0)
(0.001 -1.87828e-10 0)
(0.000999997 -1.98497e-10 0)
(0.000999993 6.4411e-10 0)
(0.000999987 2.24933e-09 0)
(0.000999983 4.37019e-09 0)
(0.000999978 5.89447e-09 0)
(0.000999972 6.6956e-09 0)
(0.000999965 5.00844e-09 0)
(0.000999957 1.73773e-09 0)
(0.000999946 -5.37204e-09 0)
(0.000999933 -1.27992e-08 0)
(0.000999914 -2.48368e-08 0)
(0.000999895 -3.35055e-08 0)
(0.000999867 -5.0169e-08 0)
(0.000999844 -5.74783e-08 0)
(0.000999804 -8.60015e-08 0)
(0.000999779 -9.25186e-08 0)
(0.000999721 -1.50752e-07 0)
(0.000999701 -1.53933e-07 0)
(0.000999616 -2.71305e-07 0)
(0.001 -3.96171e-09 0)
(0.001 -1.3089e-08 0)
(0.000999998 -2.29067e-08 0)
(0.000999996 -3.27244e-08 0)
(0.000999993 -4.20794e-08 0)
(0.000999987 -5.16748e-08 0)
(0.000999981 -6.14566e-08 0)
(0.000999973 -7.30842e-08 0)
(0.000999964 -8.57446e-08 0)
(0.000999951 -1.01561e-07 0)
(0.000999937 -1.17033e-07 0)
(0.000999916 -1.36326e-07 0)
(0.000999896 -1.51684e-07 0)
(0.000999863 -1.74471e-07 0)
(0.000999839 -1.87728e-07 0)
(0.000999789 -2.21199e-07 0)
(0.000999766 -2.32651e-07 0)
(0.000999688 -2.93742e-07 0)
(0.000999674 -3.00102e-07 0)
(0.000999544 -4.18295e-07 0)
(0.001 3.9677e-09 0)
(0.000999995 1.20063e-08 0)
(0.000999989 1.98356e-08 0)
(0.000999983 2.72109e-08 0)
(0.000999978 3.43482e-08 0)
(0.000999973 4.09728e-08 0)
(0.000999967 4.73729e-08 0)
(0.000999958 5.29558e-08 0)
(0.00099995 5.8595e-08 0)
(0.000999937 6.23396e-08 0)
(0.000999922 6.64738e-08 0)
(0.000999899 6.74861e-08 0)
(0.000999878 7.09437e-08 0)
(0.000999844 6.7953e-08 0)
(0.000999818 7.22961e-08 0)
(0.000999765 6.0393e-08 0)
(0.000999736 6.69809e-08 0)
(0.000999654 3.20554e-08 0)
(0.000999631 4.1412e-08 0)
(0.0009995 -5.32151e-08 0)
(0.001 -8.70274e-09 0)
(0.001 -2.3584e-08 0)
(0.000999998 -3.54416e-08 0)
(0.000999994 -4.53577e-08 0)
(0.00099999 -5.44696e-08 0)
(0.000999984 -6.40367e-08 0)
(0.000999977 -7.41603e-08 0)
(0.000999968 -8.56845e-08 0)
(0.000999959 -9.74288e-08 0)
(0.000999944 -1.11042e-07 0)
(0.00099993 -1.23464e-07 0)
(0.000999905 -1.3813e-07 0)
(0.000999886 -1.49e-07 0)
(0.000999845 -1.65163e-07 0)
(0.000999825 -1.72774e-07 0)
(0.000999758 -1.95416e-07 0)
(0.000999741 -1.98573e-07 0)
(0.000999624 -2.40716e-07 0)
(0.00099962 -2.36232e-07 0)
(0.000999399 -3.30353e-07 0)
)
;

boundaryField
{
    sides
    {
        type            slip;
    }
    inlet
    {
        type            fixedValue;
        value           uniform (0.001 0 0);
    }
    outlet
    {
        type            zeroGradient;
    }
    frontAndBack
    {
        type            empty;
    }
}


// ************************************************************************* //
