/*--------------------------------*- C++ -*----------------------------------*\
  =========                 |
  \\      /  F ield         | OpenFOAM: The Open Source CFD Toolbox
   \\    /   O peration     | Website:  https://openfoam.org
    \\  /    A nd           | Version:  7
     \\/     M anipulation  |
\*---------------------------------------------------------------------------*/
FoamFile
{
    version     2.0;
    format      ascii;
    class       volVectorField;
    location    "36";
    object      U;
}
// * * * * * * * * * * * * * * * * * * * * * * * * * * * * * * * * * * * * * //

dimensions      [0 1 -1 0 0 0 0];

internalField   nonuniform List<vector> 
400
(
(0.0999932 -8.72138e-07 0)
(0.0999932 -2.36485e-06 0)
(0.0999935 -3.55527e-06 0)
(0.0999939 -4.55658e-06 0)
(0.0999944 -5.47836e-06 0)
(0.0999951 -6.4354e-06 0)
(0.0999959 -7.42771e-06 0)
(0.0999969 -8.56058e-06 0)
(0.099998 -9.7368e-06 0)
(0.0999996 -1.10889e-05 0)
(0.100001 -1.23304e-05 0)
(0.100004 -1.38026e-05 0)
(0.100006 -1.49021e-05 0)
(0.10001 -1.65357e-05 0)
(0.100013 -1.73042e-05 0)
(0.10002 -1.95702e-05 0)
(0.100022 -1.98718e-05 0)
(0.100035 -2.40735e-05 0)
(0.100036 -2.36147e-05 0)
(0.100059 -3.30079e-05 0)
(0.0999944 3.91867e-07 0)
(0.0999949 1.19657e-06 0)
(0.0999956 1.98582e-06 0)
(0.0999963 2.71691e-06 0)
(0.0999968 3.41728e-06 0)
(0.0999975 4.07299e-06 0)
(0.0999982 4.71908e-06 0)
(0.0999991 5.27633e-06 0)
(0.1 5.83462e-06 0)
(0.100002 6.21406e-06 0)
(0.100003 6.6336e-06 0)
(0.100006 6.74149e-06 0)
(0.100008 7.08955e-06 0)
(0.100012 6.78206e-06 0)
(0.100015 7.21232e-06 0)
(0.10002 6.01297e-06 0)
(0.100024 6.67367e-06 0)
(0.100033 3.18023e-06 0)
(0.100036 4.12089e-06 0)
(0.10005 -5.32999e-06 0)
(0.0999948 -4.03592e-07 0)
(0.0999949 -1.32286e-06 0)
(0.0999951 -2.31687e-06 0)
(0.0999954 -3.31446e-06 0)
(0.0999958 -4.25897e-06 0)
(0.0999963 -5.2203e-06 0)
(0.0999971 -6.19221e-06 0)
(0.099998 -7.34148e-06 0)
(0.099999 -8.57391e-06 0)
(0.1 -1.01384e-05 0)
(0.100002 -1.16805e-05 0)
(0.100004 -1.36192e-05 0)
(0.100006 -1.51754e-05 0)
(0.10001 -1.74859e-05 0)
(0.100013 -1.88257e-05 0)
(0.100018 -2.21863e-05 0)
(0.100021 -2.33135e-05 0)
(0.100029 -2.94091e-05 0)
(0.100031 -3.00223e-05 0)
(0.100045 -4.18106e-05 0)
(0.0999957 -2.76466e-08 0)
(0.099996 -3.9132e-08 0)
(0.0999965 2.48386e-08 0)
(0.0999971 1.66059e-07 0)
(0.0999976 3.64885e-07 0)
(0.0999982 5.12204e-07 0)
(0.0999989 5.99379e-07 0)
(0.0999997 4.55069e-07 0)
(0.100001 1.57238e-07 0)
(0.100002 -5.28047e-07 0)
(0.100003 -1.25758e-06 0)
(0.100005 -2.4685e-06 0)
(0.100007 -3.35873e-06 0)
(0.10001 -5.0626e-06 0)
(0.100013 -5.81259e-06 0)
(0.100017 -8.68286e-06 0)
(0.10002 -9.31786e-06 0)
(0.100027 -1.51203e-05 0)
(0.100029 -1.54175e-05 0)
(0.100038 -2.71068e-05 0)
(0.0999963 -3.25173e-07 0)
(0.0999964 -1.00115e-06 0)
(0.0999967 -1.72619e-06 0)
(0.0999969 -2.49623e-06 0)
(0.0999972 -3.2628e-06 0)
(0.0999977 -4.08488e-06 0)
(0.0999983 -4.95461e-06 0)
(0.0999991 -6.05303e-06 0)
(0.0999999 -7.30876e-06 0)
(0.100001 -8.98782e-06 0)
(0.100002 -1.07533e-05 0)
(0.100004 -1.30329e-05 0)
(0.100006 -1.49943e-05 0)
(0.100009 -1.77962e-05 0)
(0.100011 -1.96282e-05 0)
(0.100015 -2.36448e-05 0)
(0.100017 -2.53172e-05 0)
(0.100022 -3.22444e-05 0)
(0.100024 -3.3333e-05 0)
(0.100032 -4.58438e-05 0)
(0.099997 -3.12096e-07 0)
(0.0999972 -8.56485e-07 0)
(0.0999975 -1.28803e-06 0)
(0.0999979 -1.62448e-06 0)
(0.0999983 -1.8763e-06 0)
(0.0999987 -2.17893e-06 0)
(0.0999992 -2.56832e-06 0)
(0.0999998 -3.27946e-06 0)
(0.1 -4.24302e-06 0)
(0.100001 -5.7234e-06 0)
(0.100002 -7.34912e-06 0)
(0.100004 -9.49096e-06 0)
(0.100006 -1.1297e-05 0)
(0.100008 -1.38742e-05 0)
(0.10001 -1.54598e-05 0)
(0.100013 -1.92201e-05 0)
(0.100015 -2.0666e-05 0)
(0.100019 -2.74425e-05 0)
(0.100021 -2.83543e-05 0)
(0.100026 -4.07388e-05 0)
(0.0999977 -3.706e-07 0)
(0.0999978 -1.04553e-06 0)
(0.099998 -1.68218e-06 0)
(0.0999982 -2.32586e-06 0)
(0.0999985 -2.94464e-06 0)
(0.0999988 -3.62662e-06 0)
(0.0999992 -4.38716e-06 0)
(0.0999998 -5.45749e-06 0)
(0.1 -6.7683e-06 0)
(0.100001 -8.60554e-06 0)
(0.100002 -1.06226e-05 0)
(0.100003 -1.32184e-05 0)
(0.100004 -1.55394e-05 0)
(0.100006 -1.86965e-05 0)
(0.100007 -2.08544e-05 0)
(0.10001 -2.52126e-05 0)
(0.100011 -2.7138e-05 0)
(0.100015 -3.4434e-05 0)
(0.100016 -3.56637e-05 0)
(0.10002 -4.84512e-05 0)
(0.0999984 -4.22161e-07 0)
(0.0999984 -1.17083e-06 0)
(0.0999986 -1.8243e-06 0)
(0.0999988 -2.43287e-06 0)
(0.099999 -2.98183e-06 0)
(0.0999992 -3.57631e-06 0)
(0.0999995 -4.26225e-06 0)
(0.0999999 -5.30308e-06 0)
(0.1 -6.64659e-06 0)
(0.100001 -8.56587e-06 0)
(0.100001 -1.06822e-05 0)
(0.100002 -1.334e-05 0)
(0.100003 -1.56795e-05 0)
(0.100005 -1.87752e-05 0)
(0.100006 -2.08557e-05 0)
(0.100007 -2.51101e-05 0)
(0.100008 -2.69768e-05 0)
(0.100011 -3.4231e-05 0)
(0.100011 -3.54352e-05 0)
(0.100015 -4.81588e-05 0)
(0.099999 -4.5278e-07 0)
(0.0999991 -1.23763e-06 0)
(0.0999992 -1.90797e-06 0)
(0.0999993 -2.54346e-06 0)
(0.0999994 -3.14268e-06 0)
(0.0999995 -3.80167e-06 0)
(0.0999997 -4.55375e-06 0)
(0.0999999 -5.65469e-06 0)
(0.1 -7.05664e-06 0)
(0.100001 -9.04793e-06 0)
(0.100001 -1.12684e-05 0)
(0.100001 -1.40817e-05 0)
(0.100002 -1.66175e-05 0)
(0.100003 -1.99476e-05 0)
(0.100003 -2.22475e-05 0)
(0.100004 -2.67356e-05 0)
(0.100005 -2.87538e-05 0)
(0.100006 -3.61942e-05 0)
(0.100007 -3.74604e-05 0)
(0.100009 -5.03523e-05 0)
(0.0999997 -4.67621e-07 0)
(0.0999997 -1.27491e-06 0)
(0.0999997 -1.96316e-06 0)
(0.0999998 -2.61842e-06 0)
(0.0999998 -3.2316e-06 0)
(0.0999998 -3.89443e-06 0)
(0.0999999 -4.65226e-06 0)
(0.1 -5.77994e-06 0)
(0.1 -7.23684e-06 0)
(0.1 -9.29802e-06 0)
(0.1 -1.15897e-05 0)
(0.1 -1.44557e-05 0)
(0.100001 -1.70252e-05 0)
(0.100001 -2.03571e-05 0)
(0.100001 -2.2657e-05 0)
(0.100001 -2.71336e-05 0)
(0.100002 -2.91652e-05 0)
(0.100002 -3.6614e-05 0)
(0.100002 -3.79081e-05 0)
(0.100003 -5.07857e-05 0)
(0.1 -4.67777e-07 0)
(0.1 -1.27506e-06 0)
(0.1 -1.96325e-06 0)
(0.1 -2.61853e-06 0)
(0.1 -3.23163e-06 0)
(0.1 -3.89442e-06 0)
(0.1 -4.65222e-06 0)
(0.1 -5.78011e-06 0)
(0.0999999 -7.23669e-06 0)
(0.0999998 -9.29796e-06 0)
(0.0999997 -1.15897e-05 0)
(0.0999995 -1.44554e-05 0)
(0.0999994 -1.70249e-05 0)
(0.0999991 -2.03568e-05 0)
(0.0999989 -2.26566e-05 0)
(0.0999985 -2.71332e-05 0)
(0.0999983 -2.91649e-05 0)
(0.0999978 -3.66134e-05 0)
(0.0999977 -3.79075e-05 0)
(0.0999971 -5.07853e-05 0)
(0.100001 -4.53134e-07 0)
(0.100001 -1.23781e-06 0)
(0.100001 -1.90822e-06 0)
(0.100001 -2.54398e-06 0)
(0.100001 -3.1427e-06 0)
(0.1 -3.80161e-06 0)
(0.1 -4.55339e-06 0)
(0.1 -5.65484e-06 0)
(0.0999998 -7.05625e-06 0)
(0.0999995 -9.04744e-06 0)
(0.0999991 -1.12684e-05 0)
(0.0999985 -1.40812e-05 0)
(0.099998 -1.66169e-05 0)
(0.0999973 -1.99461e-05 0)
(0.0999967 -2.22458e-05 0)
(0.0999957 -2.67331e-05 0)
(0.099995 -2.87517e-05 0)
(0.0999937 -3.61899e-05 0)
(0.0999932 -3.74566e-05 0)
(0.0999912 -5.03467e-05 0)
(0.100002 -4.22274e-07 0)
(0.100002 -1.1707e-06 0)
(0.100001 -1.82477e-06 0)
(0.100001 -2.43349e-06 0)
(0.100001 -2.98171e-06 0)
(0.100001 -3.57631e-06 0)
(0.1 -4.2619e-06 0)
(0.1 -5.30305e-06 0)
(0.0999997 -6.6467e-06 0)
(0.0999992 -8.56517e-06 0)
(0.0999986 -1.0682e-05 0)
(0.0999977 -1.33404e-05 0)
(0.0999967 -1.56802e-05 0)
(0.0999955 -1.87752e-05 0)
(0.0999944 -2.0856e-05 0)
(0.0999927 -2.51101e-05 0)
(0.0999916 -2.69776e-05 0)
(0.0999894 -3.42303e-05 0)
(0.0999886 -3.54352e-05 0)
(0.0999855 -4.81582e-05 0)
(0.100002 -3.70133e-07 0)
(0.100002 -1.04523e-06 0)
(0.100002 -1.6825e-06 0)
(0.100002 -2.32542e-06 0)
(0.100002 -2.94447e-06 0)
(0.100001 -3.6264e-06 0)
(0.100001 -4.3874e-06 0)
(0.1 -5.45698e-06 0)
(0.0999997 -6.76872e-06 0)
(0.0999989 -8.60477e-06 0)
(0.0999981 -1.06207e-05 0)
(0.0999969 -1.32165e-05 0)
(0.0999958 -1.55382e-05 0)
(0.0999941 -1.86943e-05 0)
(0.0999926 -2.08526e-05 0)
(0.0999902 -2.52086e-05 0)
(0.0999887 -2.71348e-05 0)
(0.0999853 -3.44265e-05 0)
(0.0999843 -3.56572e-05 0)
(0.0999795 -4.84384e-05 0)
(0.100003 -3.11373e-07 0)
(0.100003 -8.56638e-07 0)
(0.100002 -1.28797e-06 0)
(0.100002 -1.62369e-06 0)
(0.100002 -1.87733e-06 0)
(0.100001 -2.18013e-06 0)
(0.100001 -2.57075e-06 0)
(0.1 -3.28124e-06 0)
(0.0999996 -4.24577e-06 0)
(0.0999986 -5.72681e-06 0)
(0.0999975 -7.351e-06 0)
(0.099996 -9.49165e-06 0)
(0.0999944 -1.12984e-05 0)
(0.0999922 -1.38757e-05 0)
(0.0999902 -1.54623e-05 0)
(0.0999872 -1.92212e-05 0)
(0.0999852 -2.06682e-05 0)
(0.0999811 -2.74434e-05 0)
(0.0999794 -2.8356e-05 0)
(0.0999737 -4.07387e-05 0)
(0.100004 -3.24933e-07 0)
(0.100004 -1.00151e-06 0)
(0.100003 -1.72489e-06 0)
(0.100003 -2.49585e-06 0)
(0.100003 -3.2639e-06 0)
(0.100002 -4.08551e-06 0)
(0.100002 -4.95539e-06 0)
(0.100001 -6.0537e-06 0)
(0.1 -7.30899e-06 0)
(0.099999 -8.98985e-06 0)
(0.0999977 -1.07554e-05 0)
(0.0999959 -1.30322e-05 0)
(0.0999942 -1.49932e-05 0)
(0.0999915 -1.77941e-05 0)
(0.0999893 -1.96278e-05 0)
(0.0999854 -2.36411e-05 0)
(0.0999831 -2.53155e-05 0)
(0.0999776 -3.22374e-05 0)
(0.099976 -3.33284e-05 0)
(0.0999675 -4.58295e-05 0)
(0.100004 -2.82582e-08 0)
(0.100004 -4.02025e-08 0)
(0.100003 2.59319e-08 0)
(0.100003 1.63875e-07 0)
(0.100002 3.61582e-07 0)
(0.100002 5.12333e-07 0)
(0.100001 6.00379e-07 0)
(0.1 4.57198e-07 0)
(0.0999994 1.58613e-07 0)
(0.0999982 -5.30311e-07 0)
(0.0999968 -1.26167e-06 0)
(0.0999947 -2.47076e-06 0)
(0.0999927 -3.35953e-06 0)
(0.0999896 -5.06177e-06 0)
(0.099987 -5.81245e-06 0)
(0.0999826 -8.68045e-06 0)
(0.0999797 -9.31647e-06 0)
(0.0999734 -1.51167e-05 0)
(0.0999708 -1.54153e-05 0)
(0.0999618 -2.7102e-05 0)
(0.100005 -4.04411e-07 0)
(0.100005 -1.32296e-06 0)
(0.100005 -2.31805e-06 0)
(0.100005 -3.31629e-06 0)
(0.100004 -4.26071e-06 0)
(0.100004 -5.22069e-06 0)
(0.100003 -6.18663e-06 0)
(0.100002 -7.33956e-06 0)
(0.100001 -8.57493e-06 0)
(0.0999996 -1.01382e-05 0)
(0.0999981 -1.16811e-05 0)
(0.0999957 -1.36204e-05 0)
(0.0999936 -1.51778e-05 0)
(0.09999 -1.74864e-05 0)
(0.0999873 -1.88278e-05 0)
(0.0999818 -2.21851e-05 0)
(0.099979 -2.33154e-05 0)
(0.0999706 -2.94057e-05 0)
(0.0999686 -3.0023e-05 0)
(0.0999549 -4.18037e-05 0)
(0.100006 3.91582e-07 0)
(0.100005 1.19742e-06 0)
(0.100004 1.98111e-06 0)
(0.100004 2.71769e-06 0)
(0.100003 3.426e-06 0)
(0.100003 4.07373e-06 0)
(0.100002 4.71405e-06 0)
(0.100001 5.27105e-06 0)
(0.0999999 5.8362e-06 0)
(0.0999985 6.22456e-06 0)
(0.0999969 6.64151e-06 0)
(0.0999944 6.74406e-06 0)
(0.0999921 7.08961e-06 0)
(0.0999883 6.78468e-06 0)
(0.0999854 7.21512e-06 0)
(0.0999797 6.01897e-06 0)
(0.0999762 6.6777e-06 0)
(0.0999674 3.1889e-06 0)
(0.0999643 4.12684e-06 0)
(0.0999504 -5.3179e-06 0)
(0.100007 -8.72179e-07 0)
(0.100007 -2.36517e-06 0)
(0.100007 -3.55965e-06 0)
(0.100006 -4.55763e-06 0)
(0.100006 -5.47311e-06 0)
(0.100005 -6.43739e-06 0)
(0.100004 -7.44174e-06 0)
(0.100003 -8.57036e-06 0)
(0.100002 -9.73869e-06 0)
(0.1 -1.10857e-05 0)
(0.0999989 -1.23311e-05 0)
(0.0999962 -1.38082e-05 0)
(0.0999941 -1.49099e-05 0)
(0.0999897 -1.65427e-05 0)
(0.0999873 -1.73113e-05 0)
(0.0999801 -1.95769e-05 0)
(0.0999778 -1.98793e-05 0)
(0.0999653 -2.40818e-05 0)
(0.099964 -2.3623e-05 0)
(0.0999407 -3.30213e-05 0)
)
;

boundaryField
{
    sides
    {
        type            calculated;
        value           nonuniform List<vector> 
40
(
(0.100007 0 0)
(0.100007 0 0)
(0.100007 0 0)
(0.100006 0 0)
(0.100006 0 0)
(0.100005 0 0)
(0.100004 0 0)
(0.100003 0 0)
(0.100002 0 0)
(0.1 0 0)
(0.0999989 0 0)
(0.0999962 0 0)
(0.0999941 0 0)
(0.0999897 0 0)
(0.0999873 0 0)
(0.0999801 0 0)
(0.0999778 0 0)
(0.0999653 0 0)
(0.099964 0 0)
(0.0999407 0 0)
(0.0999932 0 0)
(0.0999932 0 0)
(0.0999935 0 0)
(0.0999939 0 0)
(0.0999944 0 0)
(0.0999951 0 0)
(0.0999959 0 0)
(0.0999969 0 0)
(0.099998 0 0)
(0.0999996 0 0)
(0.100001 0 0)
(0.100004 0 0)
(0.100006 0 0)
(0.10001 0 0)
(0.100013 0 0)
(0.10002 0 0)
(0.100022 0 0)
(0.100035 0 0)
(0.100036 0 0)
(0.100059 0 0)
)
;
    }
    inlet
    {
        type            calculated;
        value           nonuniform List<vector> 
20
(
(0.0999932 0 0)
(0.0999944 0 0)
(0.0999949 0 0)
(0.0999957 0 0)
(0.0999964 0 0)
(0.099997 0 0)
(0.0999977 0 0)
(0.0999984 0 0)
(0.099999 0 0)
(0.0999997 0 0)
(0.1 0 0)
(0.100001 0 0)
(0.100002 0 0)
(0.100002 0 0)
(0.100003 0 0)
(0.100004 0 0)
(0.100004 0 0)
(0.100005 0 0)
(0.100006 0 0)
(0.100007 0 0)
)
;
    }
    outlet
    {
        type            calculated;
        value           nonuniform List<vector> 
20
(
(0.10006 -3.30082e-05 0)
(0.10005 -5.33001e-06 0)
(0.100046 -4.18107e-05 0)
(0.100038 -2.71069e-05 0)
(0.100033 -4.58439e-05 0)
(0.100026 -4.07389e-05 0)
(0.100021 -4.84513e-05 0)
(0.100015 -4.81588e-05 0)
(0.100009 -5.03524e-05 0)
(0.100003 -5.07857e-05 0)
(0.0999971 -5.07853e-05 0)
(0.0999912 -5.03467e-05 0)
(0.0999854 -4.81581e-05 0)
(0.0999793 -4.84383e-05 0)
(0.0999735 -4.07386e-05 0)
(0.0999673 -4.58293e-05 0)
(0.0999616 -2.7102e-05 0)
(0.0999544 -4.18035e-05 0)
(0.09995 -5.31788e-06 0)
(0.0999399 -3.3021e-05 0)
)
;
    }
    frontAndBack
    {
        type            empty;
    }
}


// ************************************************************************* //
