/*--------------------------------*- C++ -*----------------------------------*\
  =========                 |
  \\      /  F ield         | OpenFOAM: The Open Source CFD Toolbox
   \\    /   O peration     | Website:  https://openfoam.org
    \\  /    A nd           | Version:  7
     \\/     M anipulation  |
\*---------------------------------------------------------------------------*/
FoamFile
{
    version     2.0;
    format      ascii;
    class       volVectorField;
    location    "45";
    object      ddtCorrDdt0(hU);
}
// * * * * * * * * * * * * * * * * * * * * * * * * * * * * * * * * * * * * * //

dimensions      [0 2 -2 0 0 0 0];

internalField   nonuniform List<vector> 
400
(
(-3.30435e-10 4.44062e-11 0)
(4.2743e-10 7.7613e-10 0)
(4.70481e-10 1.02375e-09 0)
(1.28647e-11 1.56379e-09 0)
(-6.89011e-10 1.98568e-09 0)
(2.26939e-09 1.00637e-09 0)
(-4.91945e-09 -7.44937e-11 0)
(-2.47998e-09 1.50291e-09 0)
(2.83077e-10 -6.3682e-10 0)
(2.32452e-10 -9.69574e-10 0)
(9.34417e-10 -8.91084e-10 0)
(1.36601e-09 -3.81348e-10 0)
(2.03681e-09 2.91302e-10 0)
(2.18635e-09 8.41275e-10 0)
(1.80151e-09 1.03594e-09 0)
(1.17593e-09 1.25524e-09 0)
(2.64707e-10 8.9709e-10 0)
(1.36545e-10 6.43952e-10 0)
(-7.36448e-10 1.68319e-11 0)
(-7.02241e-11 -8.96518e-10 0)
(-1.83796e-10 -3.21057e-10 0)
(6.65873e-10 7.90622e-12 0)
(8.73172e-10 -2.65008e-10 0)
(3.29428e-10 9.64084e-11 0)
(-3.86955e-10 6.64777e-10 0)
(-3.09533e-09 3.26005e-10 0)
(2.3002e-09 -1.40707e-11 0)
(5.74727e-10 1.41851e-09 0)
(-1.70351e-09 2.83008e-10 0)
(-9.29262e-11 6.07362e-11 0)
(9.06457e-10 -9.45322e-11 0)
(1.57497e-09 7.17909e-11 0)
(2.10298e-09 2.81332e-10 0)
(2.12205e-09 3.91092e-10 0)
(1.79807e-09 3.56618e-10 0)
(1.31789e-09 5.1511e-10 0)
(4.63442e-10 5.7512e-10 0)
(2.81352e-10 5.64847e-10 0)
(-6.61123e-10 6.77279e-10 0)
(-2.35468e-10 -2.88828e-11 0)
(-3.64313e-11 -6.97695e-11 0)
(2.6267e-10 7.18087e-10 0)
(7.30955e-10 1.27683e-09 0)
(9.17422e-11 1.44779e-09 0)
(-1.09519e-10 1.70555e-09 0)
(-1.04796e-09 1.52811e-09 0)
(-1.87751e-10 1.19672e-09 0)
(-4.47875e-10 -7.18212e-10 0)
(-5.04984e-10 -1.17116e-09 0)
(1.71841e-10 -1.54614e-09 0)
(1.05684e-09 -1.41402e-09 0)
(1.80698e-09 -7.11515e-10 0)
(2.13814e-09 2.95719e-10 0)
(1.83026e-09 1.30142e-09 0)
(1.43863e-09 1.73588e-09 0)
(9.69596e-10 2.33886e-09 0)
(1.17552e-10 1.92126e-09 0)
(-2.4439e-12 1.59692e-09 0)
(-1.04115e-09 8.75429e-10 0)
(-1.77145e-10 -1.27297e-09 0)
(-1.56187e-12 9.64852e-11 0)
(4.78335e-10 1.04535e-09 0)
(7.46616e-10 2.16379e-09 0)
(4.76504e-11 2.35867e-09 0)
(-4.43291e-10 2.76545e-09 0)
(-1.09503e-09 2.45642e-09 0)
(-4.98586e-10 2.17976e-09 0)
(-1.44542e-09 3.77818e-10 0)
(-1.26528e-09 -7.67807e-10 0)
(-3.25473e-11 -1.43175e-09 0)
(8.82803e-10 -1.48356e-09 0)
(1.69198e-09 -7.42404e-10 0)
(1.95984e-09 3.63703e-10 0)
(1.76494e-09 1.65126e-09 0)
(1.52721e-09 2.28724e-09 0)
(1.2141e-09 3.12273e-09 0)
(5.127e-10 2.67821e-09 0)
(3.26198e-10 2.18585e-09 0)
(-5.03304e-10 1.34977e-09 0)
(-1.59096e-10 -1.40048e-09 0)
(-1.00934e-10 -2.3673e-12 0)
(1.475e-11 4.79227e-10 0)
(2.68685e-10 1.28127e-09 0)
(9.02805e-11 1.77924e-09 0)
(-2.7881e-10 2.20231e-09 0)
(-2.07235e-10 2.36392e-09 0)
(-2.56646e-10 1.75482e-09 0)
(-8.6515e-10 3.07261e-10 0)
(-2.19803e-11 -4.0509e-10 0)
(2.26349e-10 -1.29302e-09 0)
(6.183e-10 -1.36165e-09 0)
(1.04463e-09 -6.39127e-10 0)
(1.08785e-09 4.09979e-10 0)
(1.07989e-09 1.81867e-09 0)
(1.18257e-09 2.58366e-09 0)
(1.03427e-09 3.5339e-09 0)
(4.55456e-10 3.04602e-09 0)
(3.6926e-10 2.49505e-09 0)
(-3.95358e-10 1.73091e-09 0)
(3.04513e-12 -1.39177e-09 0)
(-8.51355e-11 3.48872e-10 0)
(1.5001e-10 1.59671e-09 0)
(3.26978e-10 2.76929e-09 0)
(1.13776e-10 3.93305e-09 0)
(-5.57223e-10 4.23276e-09 0)
(-6.90375e-10 4.10117e-09 0)
(-1.19686e-09 2.41134e-09 0)
(-1.03702e-09 6.70547e-10 0)
(-4.74159e-10 -1.0395e-09 0)
(-4.5755e-11 -2.35052e-09 0)
(1.01406e-09 -2.12314e-09 0)
(1.60222e-09 -1.01569e-09 0)
(1.68577e-09 6.33001e-10 0)
(1.67357e-09 2.75059e-09 0)
(1.51399e-09 3.81605e-09 0)
(9.69073e-10 5.00487e-09 0)
(3.31322e-11 4.10486e-09 0)
(-2.83927e-10 3.28605e-09 0)
(-1.0869e-09 1.87045e-09 0)
(-3.57937e-10 -2.31601e-09 0)
(-1.03939e-10 3.05761e-10 0)
(-8.43776e-12 1.42664e-09 0)
(9.22995e-11 2.39852e-09 0)
(-2.93562e-11 3.6483e-09 0)
(-3.3282e-10 4.31785e-09 0)
(-1.74729e-10 4.44532e-09 0)
(-2.33563e-10 3.39001e-09 0)
(-4.76051e-11 1.88822e-09 0)
(-2.40038e-10 -4.01364e-11 0)
(-1.04667e-10 -1.33337e-09 0)
(3.8352e-10 -1.35282e-09 0)
(3.98228e-10 -5.87291e-10 0)
(5.73128e-10 8.55623e-10 0)
(9.36256e-10 2.83398e-09 0)
(9.64142e-10 3.72669e-09 0)
(8.03393e-10 4.83651e-09 0)
(4.73461e-10 4.13524e-09 0)
(3.87728e-10 3.42705e-09 0)
(2.67171e-11 2.36053e-09 0)
(1.47303e-10 -1.89792e-09 0)
(-1.50037e-11 3.78012e-10 0)
(-5.33476e-11 1.50426e-09 0)
(9.20962e-11 2.79907e-09 0)
(6.52316e-11 4.2173e-09 0)
(-1.9742e-10 5.14386e-09 0)
(-3.31283e-10 4.91742e-09 0)
(-4.31717e-10 3.5759e-09 0)
(-3.86851e-10 1.43371e-09 0)
(-3.93112e-10 -7.63127e-10 0)
(1.16174e-10 -2.06289e-09 0)
(5.81807e-10 -2.03238e-09 0)
(6.87155e-10 -8.40326e-10 0)
(1.07703e-09 1.22573e-09 0)
(1.22318e-09 3.58553e-09 0)
(8.57896e-10 4.5304e-09 0)
(3.84882e-10 5.73004e-09 0)
(-1.02464e-10 4.68551e-09 0)
(-2.64269e-10 3.79737e-09 0)
(-8.05385e-10 2.38737e-09 0)
(-2.68024e-10 -2.49642e-09 0)
(4.21023e-11 5.47296e-10 0)
(-3.50813e-11 1.51759e-09 0)
(6.93015e-11 3.00039e-09 0)
(-4.51487e-12 4.42599e-09 0)
(-1.95224e-10 5.3899e-09 0)
(-2.00345e-10 5.20028e-09 0)
(-1.24151e-10 4.01782e-09 0)
(-9.01849e-11 1.95317e-09 0)
(-5.74514e-11 -1.31947e-10 0)
(1.94307e-10 -1.53892e-09 0)
(3.47071e-10 -1.77519e-09 0)
(3.88006e-10 -7.27277e-10 0)
(5.37242e-10 1.1481e-09 0)
(4.9893e-10 3.26815e-09 0)
(2.30615e-10 4.16955e-09 0)
(8.76684e-11 5.58822e-09 0)
(3.26931e-11 4.80153e-09 0)
(6.94216e-11 3.98375e-09 0)
(4.53073e-11 2.75005e-09 0)
(1.08161e-10 -2.25241e-09 0)
(9.42817e-13 6.67056e-10 0)
(-1.59765e-11 1.57424e-09 0)
(6.12443e-11 3.05131e-09 0)
(1.46317e-12 4.58989e-09 0)
(-4.81825e-11 5.65901e-09 0)
(-3.07297e-11 5.51576e-09 0)
(3.52401e-11 4.17897e-09 0)
(-6.158e-11 1.93775e-09 0)
(-6.66546e-11 -2.90789e-10 0)
(-3.245e-11 -1.77281e-09 0)
(9.30731e-12 -1.9352e-09 0)
(1.85047e-10 -7.61074e-10 0)
(2.60891e-10 1.2413e-09 0)
(2.11199e-10 3.49184e-09 0)
(2.89371e-10 4.44408e-09 0)
(2.77682e-10 5.86356e-09 0)
(3.3929e-11 4.94073e-09 0)
(-7.83111e-11 4.02703e-09 0)
(-3.08491e-10 2.62723e-09 0)
(-2.18548e-10 -2.51266e-09 0)
(-2.57674e-11 6.37885e-10 0)
(1.1076e-11 1.65552e-09 0)
(4.34753e-11 3.04084e-09 0)
(8.31244e-12 4.59854e-09 0)
(4.58554e-11 5.62226e-09 0)
(-1.73152e-11 5.51774e-09 0)
(3.91358e-11 4.12544e-09 0)
(-1.60494e-11 1.90487e-09 0)
(7.42743e-11 -3.09523e-10 0)
(3.13019e-11 -1.82216e-09 0)
(-1.03177e-10 -1.90133e-09 0)
(-2.92542e-11 -7.65615e-10 0)
(-1.94221e-10 1.1706e-09 0)
(-3.77786e-10 3.53212e-09 0)
(-2.51174e-10 4.53921e-09 0)
(-1.00688e-10 5.85557e-09 0)
(-2.53685e-11 4.8947e-09 0)
(6.74447e-11 4.01662e-09 0)
(4.12556e-10 2.59679e-09 0)
(1.83201e-10 -2.54515e-09 0)
(3.10707e-11 5.41618e-10 0)
(3.13035e-11 1.6518e-09 0)
(-5.295e-11 2.94497e-09 0)
(7.81977e-13 4.43517e-09 0)
(2.1523e-10 5.2845e-09 0)
(1.64544e-10 5.20839e-09 0)
(1.45389e-10 3.90683e-09 0)
(8.3968e-11 1.90716e-09 0)
(2.50189e-11 -1.33292e-10 0)
(-1.06162e-10 -1.64494e-09 0)
(-3.71615e-10 -1.709e-09 0)
(-4.11827e-10 -6.87391e-10 0)
(-3.97022e-10 1.02098e-09 0)
(-4.08536e-10 3.28129e-09 0)
(-2.74516e-10 4.29521e-09 0)
(-1.41863e-10 5.57542e-09 0)
(-3.386e-11 4.74663e-09 0)
(-2.25473e-11 3.97579e-09 0)
(2.73385e-12 2.65893e-09 0)
(-1.37283e-10 -2.34181e-09 0)
(5.7492e-11 4.65115e-10 0)
(5.14994e-11 1.50372e-09 0)
(-1.45493e-10 2.76197e-09 0)
(-7.31106e-11 4.18517e-09 0)
(2.327e-10 5.02561e-09 0)
(3.05041e-10 4.93148e-09 0)
(3.85251e-10 3.53606e-09 0)
(4.83695e-10 1.39341e-09 0)
(2.42398e-10 -6.22698e-10 0)
(-1.68393e-11 -2.11196e-09 0)
(-4.70423e-10 -2.04531e-09 0)
(-8.89315e-10 -7.33297e-10 0)
(-1.06282e-09 1.20266e-09 0)
(-1.01292e-09 3.50196e-09 0)
(-8.72535e-10 4.51462e-09 0)
(-4.95132e-10 5.72253e-09 0)
(1.10906e-10 4.6864e-09 0)
(2.65513e-10 3.79296e-09 0)
(7.38608e-10 2.28419e-09 0)
(2.87398e-10 -2.58376e-09 0)
(1.35163e-11 3.92654e-10 0)
(1.93344e-11 1.30904e-09 0)
(-2.0201e-10 2.46783e-09 0)
(5.32198e-11 3.50862e-09 0)
(2.98153e-10 4.35173e-09 0)
(2.6798e-10 4.3789e-09 0)
(5.64141e-11 3.55125e-09 0)
(3.20421e-10 1.73248e-09 0)
(1.02009e-10 1.35454e-10 0)
(-1.0296e-10 -1.16163e-09 0)
(-1.97085e-10 -1.42005e-09 0)
(-4.97295e-10 -5.1879e-10 0)
(-7.5603e-10 9.64329e-10 0)
(-8.62703e-10 2.77476e-09 0)
(-9.045e-10 3.63225e-09 0)
(-8.21321e-10 4.81977e-09 0)
(-4.72768e-10 4.13608e-09 0)
(-4.6066e-10 3.40408e-09 0)
(-1.30707e-10 2.33059e-09 0)
(-6.80601e-11 -1.90859e-09 0)
(-2.94532e-11 3.53023e-10 0)
(-1.59773e-10 1.52767e-09 0)
(-4.53787e-10 2.85112e-09 0)
(-5.7133e-11 3.77721e-09 0)
(4.26998e-10 4.4345e-09 0)
(9.52561e-10 3.92561e-09 0)
(8.81814e-10 2.81619e-09 0)
(1.1959e-09 5.61835e-10 0)
(8.60716e-10 -1.21307e-09 0)
(-3.19809e-10 -2.1106e-09 0)
(-1.08477e-09 -2.07374e-09 0)
(-1.53986e-09 -1.01441e-09 0)
(-1.87139e-09 7.57713e-10 0)
(-1.77851e-09 2.78992e-09 0)
(-1.4718e-09 3.75958e-09 0)
(-9.20552e-10 4.97579e-09 0)
(-2.62654e-11 4.07822e-09 0)
(2.26933e-10 3.25948e-09 0)
(1.03065e-09 1.91588e-09 0)
(4.15837e-10 -2.26386e-09 0)
(6.30918e-11 -1.35031e-10 0)
(-6.92462e-11 5.23097e-10 0)
(-3.47331e-10 1.27313e-09 0)
(-6.82294e-11 1.81254e-09 0)
(1.89975e-10 2.37683e-09 0)
(3.97433e-10 2.42528e-09 0)
(2.14558e-10 1.85755e-09 0)
(1.30301e-10 8.02711e-10 0)
(5.95337e-10 -7.98574e-10 0)
(-1.07756e-10 -1.37505e-09 0)
(-8.07506e-10 -1.2895e-09 0)
(-9.90943e-10 -6.72471e-10 0)
(-1.18306e-09 4.62797e-10 0)
(-1.25291e-09 1.90643e-09 0)
(-1.22167e-09 2.59894e-09 0)
(-1.00784e-09 3.51403e-09 0)
(-4.4072e-10 3.02019e-09 0)
(-3.6305e-10 2.4854e-09 0)
(3.87225e-10 1.78321e-09 0)
(-9.49349e-12 -1.34074e-09 0)
(1.29572e-10 -1.0981e-10 0)
(-5.15643e-10 1.14819e-09 0)
(-6.81846e-10 2.13028e-09 0)
(-1.10375e-10 2.60238e-09 0)
(6.26338e-10 3.00955e-09 0)
(7.68945e-10 2.69855e-09 0)
(1.5098e-09 1.45999e-09 0)
(6.39678e-10 8.31174e-10 0)
(8.6255e-10 -7.65007e-10 0)
(4.6035e-10 -1.70206e-09 0)
(-8.75242e-10 -1.53225e-09 0)
(-1.61599e-09 -7.94886e-10 0)
(-1.92623e-09 3.5737e-10 0)
(-1.88756e-09 1.72862e-09 0)
(-1.62264e-09 2.35146e-09 0)
(-1.23988e-09 3.14133e-09 0)
(-5.01093e-10 2.67877e-09 0)
(-2.80685e-10 2.19633e-09 0)
(5.19095e-10 1.36834e-09 0)
(1.22036e-10 -1.38995e-09 0)
(2.9292e-10 -5.09509e-11 0)
(-2.72026e-10 7.37224e-10 0)
(-4.98774e-10 1.20884e-09 0)
(-1.23892e-10 1.64514e-09 0)
(3.30102e-10 1.88816e-09 0)
(4.00656e-10 1.23676e-09 0)
(8.30889e-10 9.87248e-11 0)
(1.17497e-09 -1.66608e-09 0)
(-9.59303e-11 -8.77361e-10 0)
(-2.38354e-11 -1.58505e-09 0)
(-8.98912e-10 -1.45159e-09 0)
(-1.66044e-09 -7.43054e-10 0)
(-2.01262e-09 2.18129e-10 0)
(-1.87234e-09 1.28353e-09 0)
(-1.53652e-09 1.77905e-09 0)
(-1.027e-09 2.38824e-09 0)
(-1.21629e-10 1.95732e-09 0)
(4.64883e-11 1.62353e-09 0)
(1.06894e-09 8.84368e-10 0)
(1.51079e-10 -1.27076e-09 0)
(2.06913e-10 -3.9236e-11 0)
(-6.07445e-10 -7.08563e-11 0)
(-7.98183e-10 -2.88603e-10 0)
(-4.9256e-11 7.21449e-11 0)
(5.28711e-13 -4.75376e-10 0)
(-5.51943e-10 6.02597e-10 0)
(1.91482e-11 1.25651e-09 0)
(1.36817e-09 1.39523e-09 0)
(2.44424e-09 5.14347e-10 0)
(2.76749e-11 1.8475e-10 0)
(-8.43173e-10 -9.11444e-11 0)
(-1.55317e-09 -2.4013e-11 0)
(-2.053e-09 8.12951e-11 0)
(-2.08617e-09 2.63802e-10 0)
(-1.80019e-09 3.58017e-10 0)
(-1.33783e-09 5.7767e-10 0)
(-4.8058e-10 6.31068e-10 0)
(-2.6699e-10 5.91567e-10 0)
(6.85495e-10 6.80801e-10 0)
(2.23391e-10 -2.75173e-11 0)
(7.56579e-11 2.14534e-10 0)
(-3.81549e-10 7.32111e-10 0)
(-6.06618e-10 1.06297e-09 0)
(-3.12039e-10 1.50322e-09 0)
(8.57568e-10 8.50174e-10 0)
(1.89679e-09 1.65421e-09 0)
(1.40942e-09 1.73477e-09 0)
(8.83915e-10 2.4082e-09 0)
(-6.87911e-10 -5.26559e-10 0)
(-4.97387e-10 -9.18278e-10 0)
(-1.10443e-09 -9.01069e-10 0)
(-1.57731e-09 -4.72503e-10 0)
(-2.02133e-09 1.54777e-10 0)
(-2.00068e-09 7.58871e-10 0)
(-1.66337e-09 1.03107e-09 0)
(-1.14742e-09 1.28829e-09 0)
(-3.01071e-10 9.254e-10 0)
(-1.54618e-10 6.54578e-10 0)
(7.53532e-10 1.52794e-11 0)
(5.74737e-11 -8.98148e-10 0)
)
;

boundaryField
{
    sides
    {
        type            calculated;
        value           nonuniform List<vector> 
40
(
(7.56579e-11 0 0)
(-3.81549e-10 0 0)
(-6.06618e-10 0 0)
(-3.12039e-10 0 0)
(8.57568e-10 0 0)
(1.89679e-09 0 0)
(1.40942e-09 0 0)
(8.83915e-10 0 0)
(-6.87911e-10 0 0)
(-4.97387e-10 0 0)
(-1.10443e-09 0 0)
(-1.57731e-09 0 0)
(-2.02133e-09 0 0)
(-2.00068e-09 0 0)
(-1.66337e-09 0 0)
(-1.14742e-09 0 0)
(-3.01071e-10 0 0)
(-1.54618e-10 0 0)
(7.53532e-10 0 0)
(5.74737e-11 0 0)
(-3.30435e-10 0 0)
(4.2743e-10 0 0)
(4.70481e-10 0 0)
(1.28647e-11 0 0)
(-6.89011e-10 0 0)
(2.26939e-09 0 0)
(-4.91945e-09 0 0)
(-2.47998e-09 0 0)
(2.83077e-10 0 0)
(2.32452e-10 0 0)
(9.34417e-10 0 0)
(1.36601e-09 0 0)
(2.03681e-09 0 0)
(2.18635e-09 0 0)
(1.80151e-09 0 0)
(1.17593e-09 0 0)
(2.64707e-10 0 0)
(1.36545e-10 0 0)
(-7.36448e-10 0 0)
(-7.02241e-11 0 0)
)
;
    }
    inlet
    {
        type            calculated;
        value           uniform (0 0 0);
    }
    outlet
    {
        type            calculated;
        value           nonuniform List<vector> 
20
(
(-7.02241e-11 -8.96518e-10 0)
(-2.35468e-10 -2.88828e-11 0)
(-1.77145e-10 -1.27297e-09 0)
(-1.59096e-10 -1.40048e-09 0)
(3.04513e-12 -1.39177e-09 0)
(-3.57937e-10 -2.31601e-09 0)
(1.47303e-10 -1.89792e-09 0)
(-2.68024e-10 -2.49642e-09 0)
(1.08161e-10 -2.25241e-09 0)
(-2.18548e-10 -2.51266e-09 0)
(1.83201e-10 -2.54515e-09 0)
(-1.37283e-10 -2.34181e-09 0)
(2.87398e-10 -2.58376e-09 0)
(-6.80601e-11 -1.90859e-09 0)
(4.15837e-10 -2.26386e-09 0)
(-9.49349e-12 -1.34074e-09 0)
(1.22036e-10 -1.38995e-09 0)
(1.51079e-10 -1.27076e-09 0)
(2.23391e-10 -2.75173e-11 0)
(5.74737e-11 -8.98148e-10 0)
)
;
    }
    frontAndBack
    {
        type            empty;
    }
}


// ************************************************************************* //
