/*--------------------------------*- C++ -*----------------------------------*\
  =========                 |
  \\      /  F ield         | OpenFOAM: The Open Source CFD Toolbox
   \\    /   O peration     | Website:  https://openfoam.org
    \\  /    A nd           | Version:  7
     \\/     M anipulation  |
\*---------------------------------------------------------------------------*/
FoamFile
{
    version     2.0;
    format      ascii;
    class       surfaceScalarField;
    location    "45";
    object      ddtCorrDdt0(phi);
}
// * * * * * * * * * * * * * * * * * * * * * * * * * * * * * * * * * * * * * //

dimensions      [0 4 -2 0 0 0 0];

internalField   nonuniform List<scalar> 
760
(
1.33586e-13
-2.8807e-13
3.456e-12
2.02887e-12
-2.26287e-14
1.99339e-12
-3.65651e-12
5.2213e-12
7.83525e-12
9.5509e-11
-4.94655e-12
3.3896e-13
-2.69809e-11
2.18824e-10
1.62785e-12
3.35429e-10
-5.93387e-13
1.86953e-11
3.23521e-12
-1.92e-12
5.07708e-12
-2.00126e-12
8.47229e-12
-8.25256e-13
1.10881e-11
1.13284e-12
1.00573e-11
2.77452e-12
7.37831e-12
3.07647e-12
3.66839e-12
3.79597e-12
8.97208e-13
3.08948e-12
-1.09999e-12
2.61842e-12
-2.46907e-12
1.56666e-12
-2.2173e-12
3.18899e-12
-2.22139e-12
2.1809e-12
3.67559e-12
3.28858e-12
4.52411e-12
6.95157e-13
5.22402e-12
-8.53055e-12
7.87437e-12
-5.69752e-12
2.87957e-12
1.42343e-11
2.07815e-12
-8.72849e-12
-1.41304e-11
-2.623e-12
-2.80152e-12
2.04835e-12
-4.65011e-12
5.89314e-12
-4.56997e-12
9.30113e-12
-2.13548e-12
1.08698e-11
1.38603e-12
9.81166e-12
4.76806e-12
7.74792e-12
6.00039e-12
4.56119e-12
7.8952e-12
1.825e-12
6.77441e-12
-4.93878e-13
5.70502e-12
-2.6305e-12
3.93162e-12
-3.48649e-12
2.04974e-12
-1.08786e-11
5.75366e-13
3.49494e-12
3.03994e-12
7.01955e-12
3.76358e-13
7.3304e-12
-2.43326e-12
1.06422e-11
-5.07061e-12
9.23234e-12
-4.93207e-14
1.02746e-11
-2.99666e-12
6.5885e-12
-4.90465e-13
-3.91906e-12
2.90887e-12
-6.44886e-12
7.02158e-12
-6.05914e-12
1.01991e-11
-2.8546e-12
1.01128e-11
1.7855e-12
8.04026e-12
6.90961e-12
5.89902e-12
9.30232e-12
2.8067e-12
1.28298e-11
2.97126e-13
1.09562e-11
-2.25873e-12
9.16972e-12
-3.63393e-12
5.63394e-12
-6.37192e-12
2.9133e-12
-1.23548e-13
1.96083e-12
4.17284e-12
9.82505e-13
9.47026e-12
6.05114e-13
1.098e-11
-4.4756e-12
1.33318e-11
-3.8755e-12
1.17537e-11
-4.31247e-12
1.01216e-11
-8.2827e-12
-8.63274e-13
-2.03528e-12
-4.42501e-12
1.70488e-12
-7.82286e-12
6.33709e-12
-8.1197e-12
9.48648e-12
-3.91921e-12
9.38306e-12
2.00782e-12
8.12065e-12
9.01293e-12
6.76878e-12
1.26738e-11
4.4924e-12
1.73368e-11
2.13193e-12
1.48723e-11
-6.91873e-14
1.2022e-11
-1.95084e-12
7.64701e-12
-7.24531e-12
-4.29156e-13
1.216e-12
9.66814e-13
5.35267e-12
-9.04795e-13
1.05517e-11
1.83777e-12
1.47455e-11
-2.81813e-12
1.59161e-11
8.45614e-13
1.6779e-11
-4.95038e-12
9.91977e-12
-1.68784e-12
3.3239e-12
1.34034e-12
-1.91056e-12
1.42365e-12
-8.00331e-12
4.41068e-12
-7.95576e-12
5.55085e-12
-3.65654e-12
5.33362e-12
2.5645e-12
5.61317e-12
1.09587e-11
5.55519e-12
1.54445e-11
3.86175e-12
2.08351e-11
2.01983e-12
1.75749e-11
1.24783e-13
1.43036e-11
-1.42034e-12
9.20374e-12
-9.01081e-12
-1.35646e-13
1.27172e-12
1.63969e-12
6.80415e-12
-3.47357e-13
1.17218e-11
-1.68532e-14
1.84353e-11
-3.30263e-12
2.07228e-11
-4.14413e-12
2.11235e-11
-7.05633e-12
1.40759e-11
-2.48778e-12
6.30151e-12
-1.46646e-12
-3.45131e-12
2.03679e-12
-1.00849e-11
6.94233e-12
-9.01617e-12
8.12802e-12
-4.07983e-12
8.29037e-12
3.80542e-12
8.10025e-12
1.44067e-11
6.30355e-12
1.9551e-11
2.61832e-12
2.52719e-11
-7.26386e-13
2.10037e-11
-3.20386e-12
1.69472e-11
-3.87234e-12
1.02698e-11
-1.07981e-11
-5.76386e-13
1.55127e-12
-1.12008e-13
7.77229e-12
5.47732e-14
1.33099e-11
-1.00762e-12
1.97666e-11
-4.61052e-13
2.37903e-11
-1.58909e-12
2.30813e-11
-9.78611e-13
1.72148e-11
-3.92221e-14
8.06155e-12
-1.37262e-12
-2.30949e-12
9.61365e-13
-8.44234e-12
2.16044e-12
-8.41523e-12
2.06499e-12
-3.78128e-12
3.87964e-12
4.98813e-12
5.03779e-12
1.60132e-11
4.4086e-12
2.06144e-11
3.19797e-12
2.62603e-11
2.11839e-12
2.19034e-11
1.00693e-12
1.80123e-11
1.52334e-13
1.20667e-11
-1.08647e-11
9.65313e-14
2.25925e-12
-7.33571e-13
7.52138e-12
7.83367e-13
1.45951e-11
-7.29625e-13
2.14813e-11
-7.4254e-13
2.65521e-11
-2.42947e-12
2.57971e-11
-1.82688e-12
1.97694e-11
-1.84004e-12
9.05165e-12
-9.10522e-13
-1.67453e-12
2.16928e-12
-8.60431e-12
3.03071e-12
-9.35468e-12
4.08366e-12
-3.7598e-12
6.06464e-12
6.10912e-12
5.45293e-12
1.71737e-11
2.98028e-12
2.16918e-11
6.3918e-13
2.82618e-11
-9.08847e-13
2.3735e-11
-2.61335e-12
1.9594e-11
-2.88632e-12
1.29794e-11
-1.1805e-11
2.55642e-13
3.23442e-12
-4.19854e-13
7.64338e-12
2.46625e-13
1.52478e-11
-6.24277e-13
2.28089e-11
-7.19507e-13
2.80296e-11
-9.46628e-13
2.7136e-11
-4.46574e-13
2.0667e-11
-4.48584e-13
9.68028e-12
3.31959e-13
-1.21552e-12
1.56223e-12
-8.404e-12
1.68182e-12
-9.32323e-12
2.23073e-12
-3.46632e-12
2.78021e-12
6.42788e-12
1.92286e-12
1.71712e-11
7.59216e-13
2.15985e-11
2.0857e-13
2.86306e-11
2.83279e-13
2.42151e-11
4.06776e-13
1.96686e-11
2.25825e-13
1.31496e-11
-1.20109e-11
-2.29343e-13
3.44862e-12
2.05188e-13
8.23568e-12
5.45987e-14
1.54717e-11
-3.58699e-16
2.31315e-11
-2.56468e-13
2.82409e-11
6.44093e-14
2.74874e-11
-5.6798e-14
2.07939e-11
-5.10895e-13
9.8992e-12
-5.27858e-14
-1.01462e-12
-1.33196e-13
-8.4971e-12
4.48989e-13
-9.43039e-12
1.33498e-12
-4.03336e-12
1.08238e-12
5.56591e-12
1.13743e-12
1.6985e-11
1.58445e-12
2.20047e-11
7.27274e-13
2.91981e-11
-2.47829e-13
2.48213e-11
-7.92083e-13
2.05376e-11
-1.30558e-12
1.34369e-11
-1.25061e-11
-3.07396e-13
2.92409e-12
5.55092e-13
8.47777e-12
-1.62518e-14
1.51726e-11
2.802e-13
2.29087e-11
-2.19947e-13
2.76617e-11
1.75755e-13
2.71365e-11
1.88005e-13
2.01184e-11
-6.18637e-14
9.34401e-12
5.49622e-13
-1.40363e-12
-4.34051e-13
-8.90363e-12
-4.36142e-13
-9.01016e-12
-2.50228e-13
-3.4956e-12
-1.61046e-12
5.75712e-12
-1.78845e-12
1.75451e-11
-6.2264e-13
2.25045e-11
-2.67914e-13
2.85688e-11
-1.73469e-14
2.37964e-11
1.31761e-12
1.9562e-11
1.55299e-12
1.282e-11
-1.23328e-11
2.84152e-13
2.51639e-12
1.60982e-13
8.08814e-12
-2.10494e-14
1.4128e-11
5.44388e-13
2.14874e-11
7.58305e-13
2.58537e-11
6.85331e-13
2.58381e-11
8.29731e-13
1.92033e-11
3.05782e-14
8.91547e-12
-6.14539e-14
-1.4748e-12
-1.22423e-12
-9.13941e-12
-2.14398e-12
-9.04926e-12
-1.84283e-12
-3.31417e-12
-1.98617e-12
5.57976e-12
-1.92292e-12
1.69169e-11
-1.05984e-12
2.19895e-11
-3.4952e-13
2.82106e-11
-1.71908e-13
2.36519e-11
-5.88631e-14
1.96189e-11
-1.71714e-13
1.23858e-11
-1.23479e-11
8.06151e-13
2.21063e-12
-4.39264e-13
7.1984e-12
-5.10823e-14
1.33907e-11
-1.53841e-15
1.94481e-11
1.54887e-12
2.32713e-11
1.43427e-12
2.31831e-11
2.60372e-12
1.74127e-11
1.56076e-12
7.79514e-12
3.32443e-13
-1.08317e-12
-9.43038e-13
-8.30429e-12
-3.52221e-12
-8.8202e-12
-4.97135e-12
-3.1567e-12
-5.06885e-12
5.33975e-12
-4.82485e-12
1.55003e-11
-3.62455e-12
2.01856e-11
-8.37226e-13
2.62254e-11
1.10995e-12
2.19807e-11
2.23455e-12
1.79449e-11
2.71345e-12
1.16451e-11
-1.11753e-11
3.57421e-13
1.50025e-12
-4.32749e-13
6.12469e-12
3.04853e-13
1.2361e-11
2.59429e-14
1.72809e-11
1.75112e-12
2.16872e-11
5.23829e-13
2.03298e-11
1.343e-12
1.55408e-11
1.23355e-12
4.97422e-12
-6.80998e-13
-3.019e-12
-4.97089e-13
-8.45253e-12
-1.57194e-12
-9.19131e-12
-3.35829e-12
-4.02767e-12
-4.05421e-12
4.52767e-12
-4.42065e-12
1.43763e-11
-4.51026e-12
1.90833e-11
-3.19119e-12
2.51347e-11
-2.13776e-12
2.09061e-11
-1.80406e-12
1.67896e-11
-2.77178e-13
1.04005e-11
-1.06113e-11
-1.0655e-12
7.6969e-13
-8.98401e-13
5.29611e-12
-9.77984e-13
1.0753e-11
7.31431e-13
1.4403e-11
2.98068e-12
1.71979e-11
5.19052e-12
1.56345e-11
4.61387e-12
1.28945e-11
5.93615e-12
3.69687e-12
7.51609e-13
-4.42748e-12
-3.67845e-12
-7.47138e-12
-6.21103e-12
-7.29809e-12
-8.64421e-12
-3.72085e-12
-9.29709e-12
3.04258e-12
-8.06526e-12
1.13749e-11
-6.04992e-12
1.53657e-11
-2.48082e-12
2.06938e-11
6.50408e-13
1.7408e-11
2.7343e-12
1.41968e-11
3.85103e-12
9.55574e-12
-8.65954e-12
-7.47672e-13
-1.0784e-12
1.0388e-13
4.56264e-12
-1.22758e-12
9.16521e-12
4.72644e-13
1.18472e-11
1.63713e-14
1.38559e-11
3.62098e-12
1.46932e-11
-6.43092e-13
7.87578e-12
2.32957e-12
4.66625e-12
1.41785e-12
-5.58149e-12
-2.67049e-12
-9.29349e-12
-4.39015e-12
-8.07389e-12
-5.46979e-12
-4.15335e-12
-6.3263e-12
2.03761e-12
-6.14113e-12
9.43705e-12
-5.46772e-12
1.28988e-11
-3.76867e-12
1.73112e-11
-2.00507e-12
1.47984e-11
-9.45746e-14
1.2022e-11
1.40387e-12
7.797e-12
-7.11005e-12
-2.48635e-12
-1.27213e-11
-1.68401e-12
3.87337e-12
-2.09278e-12
6.52164e-12
1.46836e-12
8.96611e-12
2.51831e-12
1.05851e-11
6.35639e-12
8.53908e-12
6.22064e-12
3.09154e-12
2.00075e-12
2.22323e-12
4.3678e-12
-1.61638e-12
-1.07913e-12
-7.26079e-12
-6.27302e-12
-6.61914e-12
-8.90978e-12
-3.3521e-12
-9.76785e-12
1.37487e-12
-8.79494e-12
7.01432e-12
-7.00904e-12
9.59895e-12
-4.51153e-12
1.29965e-11
-2.02493e-12
1.10415e-11
3.24196e-13
9.26961e-12
1.92487e-12
5.65209e-12
-6.38546e-12
-2.47276e-13
-1.30866e-12
-9.41508e-13
3.64833e-12
-2.68826e-12
3.98637e-12
2.02338e-12
6.44213e-12
3.65136e-13
6.50902e-12
1.79479e-12
-2.04523e-12
8.6653e-12
1.96403e-12
1.24858e-13
-2.07421e-11
-1.5628e-14
-2.74462e-12
-1.84616e-12
-4.23897e-12
-6.48327e-12
-4.77508e-12
-9.28606e-12
-2.45553e-12
-9.92906e-12
8.11e-13
-8.53178e-12
4.46027e-12
-6.30498e-12
6.10821e-12
-2.94721e-12
8.15285e-12
-1.90948e-13
6.99399e-12
2.52027e-12
5.85055e-12
3.64117e-12
3.96115e-12
-3.48744e-12
-2.45741e-12
9.19672e-13
-2.88445e-12
1.70315e-12
-1.85088e-12
2.27708e-12
1.48231e-12
3.80396e-12
-4.00774e-12
-1.97701e-10
-5.85147e-14
2.7611e-10
-1.58973e-12
4.10113e-10
1.77825e-11
3.96555e-10
2.26952e-12
2.27373e-11
-1.71211e-12
-1.46036e-12
-5.77868e-12
-1.82605e-12
-9.11858e-12
-9.0858e-13
-1.05804e-11
5.86963e-13
-9.7465e-12
2.27735e-12
-7.82264e-12
2.99135e-12
-4.6872e-12
3.99409e-12
-1.83344e-12
3.29966e-12
6.5422e-13
2.7276e-12
2.6595e-12
1.58385e-12
-2.21025e-12
-1.42437e-12
-3.30001e-12
1.38393e-12
-4.58407e-12
1.01018e-11
7.96609e-12
1.00863e-11
-5.65168e-12
-1.16919e-12
-3.94141e-12
-6.29784e-12
-9.09726e-12
-1.03493e-11
-9.12866e-12
-6.96785e-12
-3.77706e-12
-1.08815e-12
1.16017e-12
2.49835e-12
)
;

boundaryField
{
    sides
    {
        type            calculated;
        value           uniform 0;
    }
    inlet
    {
        type            calculated;
        value           uniform 0;
    }
    outlet
    {
        type            calculated;
        value           nonuniform List<scalar> 
20
(
-3.65199e-13
-1.37717e-12
-6.19008e-13
-1.07627e-12
2.15909e-13
-1.86725e-12
1.06219e-12
-1.18122e-12
5.16454e-13
-1.23195e-12
6.49725e-13
-8.17139e-13
1.56011e-12
-1.68575e-13
2.43035e-12
-3.1141e-13
7.21067e-13
3.76228e-13
1.25277e-12
2.39704e-13
)
;
    }
    frontAndBack
    {
        type            empty;
        value           nonuniform 0();
    }
}


// ************************************************************************* //
