/*--------------------------------*- C++ -*----------------------------------*\
  =========                 |
  \\      /  F ield         | OpenFOAM: The Open Source CFD Toolbox
   \\    /   O peration     | Website:  https://openfoam.org
    \\  /    A nd           | Version:  7
     \\/     M anipulation  |
\*---------------------------------------------------------------------------*/
FoamFile
{
    version     2.0;
    format      ascii;
    class       volVectorField;
    location    "45";
    object      hU;
}
// * * * * * * * * * * * * * * * * * * * * * * * * * * * * * * * * * * * * * //

dimensions      [0 2 -1 0 0 0 0];

internalField   nonuniform List<vector> 
400
(
(0.001 -8.63743e-09 0)
(0.000999999 -2.35571e-08 0)
(0.000999999 -3.59657e-08 0)
(0.001 -4.7039e-08 0)
(0.00100001 -5.75905e-08 0)
(0.00100001 -6.86849e-08 0)
(0.00100002 -7.94711e-08 0)
(0.00100003 -9.04811e-08 0)
(0.00100004 -1.00857e-07 0)
(0.00100006 -1.12224e-07 0)
(0.00100007 -1.22307e-07 0)
(0.0010001 -1.35341e-07 0)
(0.00100011 -1.45462e-07 0)
(0.00100015 -1.62484e-07 0)
(0.00100017 -1.71675e-07 0)
(0.00100024 -1.96341e-07 0)
(0.00100026 -2.01481e-07 0)
(0.00100038 -2.43886e-07 0)
(0.00100038 -2.40583e-07 0)
(0.00100061 -3.32563e-07 0)
(0.001 4.08265e-09 0)
(0.001 1.23236e-08 0)
(0.00100001 2.04853e-08 0)
(0.00100001 2.8275e-08 0)
(0.00100002 3.56221e-08 0)
(0.00100002 4.19038e-08 0)
(0.00100003 4.7864e-08 0)
(0.00100004 5.30269e-08 0)
(0.00100005 5.82437e-08 0)
(0.00100007 6.21509e-08 0)
(0.00100008 6.69408e-08 0)
(0.0010001 6.87272e-08 0)
(0.00100012 7.30133e-08 0)
(0.00100016 7.02672e-08 0)
(0.00100018 7.43912e-08 0)
(0.00100023 6.19984e-08 0)
(0.00100026 6.71535e-08 0)
(0.00100035 3.16631e-08 0)
(0.00100037 3.92593e-08 0)
(0.00100051 -5.52997e-08 0)
(0.001 -3.66288e-09 0)
(0.000999999 -1.24392e-08 0)
(0.000999999 -2.25735e-08 0)
(0.001 -3.35527e-08 0)
(0.001 -4.46866e-08 0)
(0.00100001 -5.61342e-08 0)
(0.00100002 -6.73032e-08 0)
(0.00100003 -7.91155e-08 0)
(0.00100004 -9.02097e-08 0)
(0.00100005 -1.03043e-07 0)
(0.00100007 -1.14761e-07 0)
(0.00100009 -1.31112e-07 0)
(0.0010001 -1.44674e-07 0)
(0.00100014 -1.68348e-07 0)
(0.00100016 -1.83949e-07 0)
(0.00100021 -2.20742e-07 0)
(0.00100023 -2.36556e-07 0)
(0.00100031 -2.98804e-07 0)
(0.00100033 -3.08859e-07 0)
(0.00100046 -4.24013e-07 0)
(0.001 2.68377e-10 0)
(0.001 8.69392e-10 0)
(0.001 1.45837e-09 0)
(0.00100001 1.67309e-09 0)
(0.00100001 1.56376e-09 0)
(0.00100002 5.89628e-10 0)
(0.00100003 -5.35719e-10 0)
(0.00100004 -2.66258e-09 0)
(0.00100005 -4.25562e-09 0)
(0.00100006 -7.96119e-09 0)
(0.00100007 -1.08114e-08 0)
(0.00100009 -1.89969e-08 0)
(0.00100011 -2.49478e-08 0)
(0.00100013 -4.21731e-08 0)
(0.00100015 -5.20447e-08 0)
(0.00100019 -8.44073e-08 0)
(0.00100022 -9.65358e-08 0)
(0.00100028 -1.56178e-07 0)
(0.0010003 -1.64294e-07 0)
(0.00100039 -2.78328e-07 0)
(0.001 -2.53352e-09 0)
(0.001 -8.43205e-09 0)
(0.001 -1.54451e-08 0)
(0.001 -2.37495e-08 0)
(0.00100001 -3.30476e-08 0)
(0.00100001 -4.35779e-08 0)
(0.00100002 -5.44836e-08 0)
(0.00100002 -6.64612e-08 0)
(0.00100003 -7.80132e-08 0)
(0.00100004 -9.18799e-08 0)
(0.00100005 -1.04964e-07 0)
(0.00100007 -1.23664e-07 0)
(0.00100009 -1.40205e-07 0)
(0.00100011 -1.68492e-07 0)
(0.00100013 -1.8941e-07 0)
(0.00100016 -2.33485e-07 0)
(0.00100018 -2.56739e-07 0)
(0.00100024 -3.28e-07 0)
(0.00100025 -3.45063e-07 0)
(0.00100033 -4.67158e-07 0)
(0.001 -2.10324e-09 0)
(0.001 -6.61534e-09 0)
(0.001 -1.14332e-08 0)
(0.001 -1.68269e-08 0)
(0.00100001 -2.27787e-08 0)
(0.00100001 -2.96435e-08 0)
(0.00100002 -3.66084e-08 0)
(0.00100002 -4.43684e-08 0)
(0.00100003 -5.16097e-08 0)
(0.00100004 -6.12153e-08 0)
(0.00100005 -7.03125e-08 0)
(0.00100007 -8.56744e-08 0)
(0.00100008 -9.95461e-08 0)
(0.0010001 -1.26073e-07 0)
(0.00100011 -1.45925e-07 0)
(0.00100014 -1.89406e-07 0)
(0.00100016 -2.1264e-07 0)
(0.0010002 -2.8285e-07 0)
(0.00100021 -2.99658e-07 0)
(0.00100027 -4.18654e-07 0)
(0.001 -2.47058e-09 0)
(0.001 -7.93214e-09 0)
(0.001 -1.41436e-08 0)
(0.001 -2.15216e-08 0)
(0.00100001 -3.01152e-08 0)
(0.00100001 -4.03071e-08 0)
(0.00100001 -5.11599e-08 0)
(0.00100002 -6.33109e-08 0)
(0.00100002 -7.52526e-08 0)
(0.00100003 -8.97222e-08 0)
(0.00100004 -1.03735e-07 0)
(0.00100005 -1.24109e-07 0)
(0.00100006 -1.42943e-07 0)
(0.00100007 -1.74562e-07 0)
(0.00100009 -1.99366e-07 0)
(0.00100011 -2.48048e-07 0)
(0.00100012 -2.76005e-07 0)
(0.00100015 -3.51552e-07 0)
(0.00100016 -3.72096e-07 0)
(0.00100021 -4.96e-07 0)
(0.001 -2.77805e-09 0)
(0.001 -8.82375e-09 0)
(0.001 -1.55446e-08 0)
(0.001 -2.34539e-08 0)
(0.001 -3.24812e-08 0)
(0.00100001 -4.28588e-08 0)
(0.00100001 -5.34988e-08 0)
(0.00100001 -6.50889e-08 0)
(0.00100002 -7.62072e-08 0)
(0.00100002 -8.97557e-08 0)
(0.00100003 -1.02961e-07 0)
(0.00100004 -1.22782e-07 0)
(0.00100004 -1.41464e-07 0)
(0.00100005 -1.73355e-07 0)
(0.00100006 -1.98817e-07 0)
(0.00100008 -2.4811e-07 0)
(0.00100009 -2.76997e-07 0)
(0.00100011 -3.52358e-07 0)
(0.00100012 -3.73397e-07 0)
(0.00100015 -4.95051e-07 0)
(0.001 -2.96736e-09 0)
(0.001 -9.37149e-09 0)
(0.001 -1.63817e-08 0)
(0.001 -2.45874e-08 0)
(0.001 -3.38804e-08 0)
(0.001 -4.45773e-08 0)
(0.00100001 -5.5729e-08 0)
(0.00100001 -6.81308e-08 0)
(0.00100001 -8.03106e-08 0)
(0.00100001 -9.51506e-08 0)
(0.00100002 -1.09738e-07 0)
(0.00100002 -1.31044e-07 0)
(0.00100003 -1.51191e-07 0)
(0.00100003 -1.84697e-07 0)
(0.00100004 -2.11709e-07 0)
(0.00100005 -2.62831e-07 0)
(0.00100005 -2.93309e-07 0)
(0.00100007 -3.70733e-07 0)
(0.00100007 -3.92949e-07 0)
(0.00100009 -5.16932e-07 0)
(0.001 -3.05726e-09 0)
(0.001 -9.62769e-09 0)
(0.001 -1.67649e-08 0)
(0.001 -2.51165e-08 0)
(0.001 -3.46756e-08 0)
(0.001 -4.57679e-08 0)
(0.001 -5.73693e-08 0)
(0.001 -7.01444e-08 0)
(0.001 -8.25964e-08 0)
(0.001 -9.76365e-08 0)
(0.00100001 -1.12445e-07 0)
(0.00100001 -1.34036e-07 0)
(0.00100001 -1.54591e-07 0)
(0.00100001 -1.88567e-07 0)
(0.00100001 -2.16139e-07 0)
(0.00100002 -2.677e-07 0)
(0.00100002 -2.98699e-07 0)
(0.00100002 -3.76175e-07 0)
(0.00100002 -3.98746e-07 0)
(0.00100003 -5.21961e-07 0)
(0.001 -3.06174e-09 0)
(0.001 -9.62381e-09 0)
(0.001 -1.67658e-08 0)
(0.001 -2.51152e-08 0)
(0.000999999 -3.46777e-08 0)
(0.000999999 -4.57687e-08 0)
(0.000999998 -5.73759e-08 0)
(0.000999997 -7.0149e-08 0)
(0.000999996 -8.26014e-08 0)
(0.000999995 -9.76426e-08 0)
(0.000999994 -1.12446e-07 0)
(0.000999992 -1.34041e-07 0)
(0.000999991 -1.54598e-07 0)
(0.000999989 -1.88564e-07 0)
(0.000999987 -2.16134e-07 0)
(0.000999984 -2.67702e-07 0)
(0.000999982 -2.98702e-07 0)
(0.000999978 -3.76173e-07 0)
(0.000999977 -3.98748e-07 0)
(0.00099997 -5.21961e-07 0)
(0.001 -2.97259e-09 0)
(0.001 -9.36344e-09 0)
(0.000999999 -1.63861e-08 0)
(0.000999999 -2.45864e-08 0)
(0.000999998 -3.38903e-08 0)
(0.000999996 -4.45825e-08 0)
(0.000999994 -5.57468e-08 0)
(0.000999992 -6.81418e-08 0)
(0.000999989 -8.03213e-08 0)
(0.000999986 -9.51658e-08 0)
(0.000999982 -1.09743e-07 0)
(0.000999978 -1.31052e-07 0)
(0.000999973 -1.51207e-07 0)
(0.000999967 -1.84693e-07 0)
(0.000999961 -2.11698e-07 0)
(0.000999952 -2.62822e-07 0)
(0.000999946 -2.93301e-07 0)
(0.000999933 -3.70705e-07 0)
(0.00099993 -3.92932e-07 0)
(0.000999911 -5.16883e-07 0)
(0.001 -2.77238e-09 0)
(0.001 -8.82085e-09 0)
(0.000999999 -1.55495e-08 0)
(0.000999998 -2.34585e-08 0)
(0.000999996 -3.24995e-08 0)
(0.000999994 -4.28684e-08 0)
(0.000999991 -5.35169e-08 0)
(0.000999987 -6.5103e-08 0)
(0.000999982 -7.62117e-08 0)
(0.000999977 -8.97753e-08 0)
(0.000999971 -1.02979e-07 0)
(0.000999963 -1.22795e-07 0)
(0.000999956 -1.41487e-07 0)
(0.000999945 -1.73375e-07 0)
(0.000999936 -1.98831e-07 0)
(0.000999921 -2.48117e-07 0)
(0.000999911 -2.77008e-07 0)
(0.00099989 -3.52361e-07 0)
(0.000999882 -3.73414e-07 0)
(0.000999851 -4.95046e-07 0)
(0.001 -2.45663e-09 0)
(0.000999999 -7.93614e-09 0)
(0.000999999 -1.41423e-08 0)
(0.000999997 -2.15373e-08 0)
(0.000999995 -3.01269e-08 0)
(0.000999991 -4.03181e-08 0)
(0.000999988 -5.11551e-08 0)
(0.000999983 -6.33205e-08 0)
(0.000999977 -7.52348e-08 0)
(0.000999969 -8.97074e-08 0)
(0.000999961 -1.03736e-07 0)
(0.000999951 -1.24094e-07 0)
(0.00099994 -1.4293e-07 0)
(0.000999925 -1.74548e-07 0)
(0.000999913 -1.99352e-07 0)
(0.000999891 -2.48003e-07 0)
(0.000999878 -2.75963e-07 0)
(0.000999846 -3.51474e-07 0)
(0.000999838 -3.72026e-07 0)
(0.000999791 -4.95859e-07 0)
(0.001 -2.09203e-09 0)
(0.000999999 -6.6206e-09 0)
(0.000999998 -1.14327e-08 0)
(0.000999996 -1.68519e-08 0)
(0.000999992 -2.27806e-08 0)
(0.000999988 -2.9666e-08 0)
(0.000999982 -3.65872e-08 0)
(0.000999975 -4.4385e-08 0)
(0.000999967 -5.16208e-08 0)
(0.000999958 -6.12009e-08 0)
(0.000999948 -7.03165e-08 0)
(0.000999935 -8.56771e-08 0)
(0.000999922 -9.9547e-08 0)
(0.000999903 -1.26081e-07 0)
(0.000999887 -1.45943e-07 0)
(0.00099986 -1.89415e-07 0)
(0.000999842 -2.12654e-07 0)
(0.000999802 -2.82851e-07 0)
(0.000999787 -2.99659e-07 0)
(0.00099973 -4.18628e-07 0)
(0.001 -2.54046e-09 0)
(0.001 -8.42974e-09 0)
(0.000999999 -1.5441e-08 0)
(0.000999998 -2.37499e-08 0)
(0.000999995 -3.30236e-08 0)
(0.00099999 -4.35646e-08 0)
(0.000999985 -5.44485e-08 0)
(0.000999977 -6.64178e-08 0)
(0.000999969 -7.80234e-08 0)
(0.000999957 -9.18577e-08 0)
(0.000999946 -1.04937e-07 0)
(0.00099993 -1.23634e-07 0)
(0.000999914 -1.40174e-07 0)
(0.000999891 -1.68449e-07 0)
(0.000999872 -1.89385e-07 0)
(0.000999837 -2.33435e-07 0)
(0.000999817 -2.56704e-07 0)
(0.000999764 -3.27908e-07 0)
(0.000999752 -3.44986e-07 0)
(0.000999668 -4.66989e-07 0)
(0.001 2.45839e-10 0)
(0.000999998 8.6283e-10 0)
(0.000999995 1.45343e-09 0)
(0.000999992 1.69071e-09 0)
(0.000999987 1.62036e-09 0)
(0.000999981 6.41269e-10 0)
(0.000999974 -5.33316e-10 0)
(0.000999965 -2.60805e-09 0)
(0.000999955 -4.25158e-09 0)
(0.000999942 -7.96464e-09 0)
(0.000999928 -1.08012e-08 0)
(0.000999911 -1.89831e-08 0)
(0.000999893 -2.49356e-08 0)
(0.000999867 -4.21522e-08 0)
(0.000999845 -5.20351e-08 0)
(0.000999806 -8.43895e-08 0)
(0.00099978 -9.65275e-08 0)
(0.00099972 -1.5614e-07 0)
(0.000999698 -1.64265e-07 0)
(0.00099961 -2.7826e-07 0)
(0.001 -3.67356e-09 0)
(0.001 -1.24428e-08 0)
(0.001 -2.25879e-08 0)
(0.000999999 -3.35386e-08 0)
(0.000999996 -4.46758e-08 0)
(0.00099999 -5.61511e-08 0)
(0.000999983 -6.73556e-08 0)
(0.000999974 -7.91649e-08 0)
(0.000999963 -9.01964e-08 0)
(0.000999949 -1.03046e-07 0)
(0.000999935 -1.14769e-07 0)
(0.000999914 -1.31117e-07 0)
(0.000999896 -1.4469e-07 0)
(0.000999864 -1.68342e-07 0)
(0.000999841 -1.83954e-07 0)
(0.000999792 -2.20719e-07 0)
(0.000999767 -2.36565e-07 0)
(0.000999687 -2.98763e-07 0)
(0.000999671 -3.08856e-07 0)
(0.000999537 -4.2393e-07 0)
(0.001 4.09038e-09 0)
(0.000999996 1.23291e-08 0)
(0.000999992 2.04968e-08 0)
(0.000999988 2.83128e-08 0)
(0.000999983 3.55246e-08 0)
(0.000999977 4.18886e-08 0)
(0.000999969 4.78285e-08 0)
(0.000999959 5.29894e-08 0)
(0.000999948 5.82381e-08 0)
(0.000999932 6.21349e-08 0)
(0.000999918 6.69203e-08 0)
(0.000999896 6.87094e-08 0)
(0.000999877 7.29923e-08 0)
(0.000999845 7.02769e-08 0)
(0.00099982 7.4407e-08 0)
(0.000999768 6.20473e-08 0)
(0.000999738 6.71852e-08 0)
(0.000999654 3.17406e-08 0)
(0.000999629 3.93165e-08 0)
(0.000999494 -5.51699e-08 0)
(0.001 -8.62937e-09 0)
(0.001 -2.35554e-08 0)
(0.001 -3.5947e-08 0)
(0.000999998 -4.70069e-08 0)
(0.000999994 -5.76643e-08 0)
(0.000999987 -6.86592e-08 0)
(0.000999979 -7.94781e-08 0)
(0.000999968 -9.04743e-08 0)
(0.000999957 -1.00897e-07 0)
(0.000999941 -1.1228e-07 0)
(0.000999927 -1.22367e-07 0)
(0.000999902 -1.35402e-07 0)
(0.000999885 -1.45527e-07 0)
(0.000999846 -1.62538e-07 0)
(0.000999827 -1.7173e-07 0)
(0.000999761 -1.96394e-07 0)
(0.000999742 -2.01544e-07 0)
(0.000999623 -2.43958e-07 0)
(0.000999617 -2.40661e-07 0)
(0.000999392 -3.32688e-07 0)
)
;

boundaryField
{
    sides
    {
        type            slip;
    }
    inlet
    {
        type            fixedValue;
        value           uniform (0.001 0 0);
    }
    outlet
    {
        type            zeroGradient;
    }
    frontAndBack
    {
        type            empty;
    }
}


// ************************************************************************* //
