/*--------------------------------*- C++ -*----------------------------------*\
  =========                 |
  \\      /  F ield         | OpenFOAM: The Open Source CFD Toolbox
   \\    /   O peration     | Website:  https://openfoam.org
    \\  /    A nd           | Version:  7
     \\/     M anipulation  |
\*---------------------------------------------------------------------------*/
FoamFile
{
    version     2.0;
    format      ascii;
    class       surfaceScalarField;
    location    "45";
    object      phi_0;
}
// * * * * * * * * * * * * * * * * * * * * * * * * * * * * * * * * * * * * * //

dimensions      [0 4 -1 0 0 0 0];

internalField   nonuniform List<scalar> 
760
(
4.99999e-06
1.06528e-11
4.99999e-06
-3.19612e-12
5e-06
-1.20831e-11
5.00002e-06
-1.96572e-11
5.00005e-06
-2.73616e-11
5.00008e-06
-3.96302e-11
5.00013e-06
-3.85323e-11
5.00019e-06
-5.3202e-11
5.00025e-06
-6.42492e-11
5.00033e-06
-7.88008e-11
5.00042e-06
-8.92299e-11
5.00053e-06
-1.11878e-10
5.00065e-06
-1.2407e-10
5.00082e-06
-1.65385e-10
5.001e-06
-1.765e-10
5.00125e-06
-2.56582e-10
5.00151e-06
-2.57965e-10
5.00195e-06
-4.34087e-10
5.00237e-06
-4.18818e-10
-8.94812e-10
5.00002e-06
-1.08393e-11
5.00003e-06
-1.60427e-11
5.00005e-06
-2.71068e-11
5.00007e-06
-4.12875e-11
5.0001e-06
-5.57617e-11
5.00013e-06
-7.31478e-11
5.00018e-06
-8.98666e-11
5.00023e-06
-1.11027e-10
5.0003e-06
-1.28323e-10
5.00037e-06
-1.54912e-10
5.00046e-06
-1.75219e-10
5.00057e-06
-2.17622e-10
5.00069e-06
-2.44204e-10
5.00084e-06
-3.18785e-10
5.00101e-06
-3.5028e-10
5.00124e-06
-4.85139e-10
5.0015e-06
-5.12591e-10
5.00184e-06
-7.72328e-10
5.00219e-06
-7.69242e-10
-1.26841e-09
4.99999e-06
-2.52769e-12
4.99999e-06
-1.74848e-11
5e-06
-3.50806e-11
5.00001e-06
-5.60282e-11
5.00004e-06
-7.88823e-11
5.00007e-06
-1.04953e-10
5.00011e-06
-1.31157e-10
5.00016e-06
-1.61376e-10
5.00022e-06
-1.89289e-10
5.00029e-06
-2.26355e-10
5.00037e-06
-2.59698e-10
5.00047e-06
-3.16653e-10
5.00059e-06
-3.62724e-10
5.00073e-06
-4.5935e-10
5.0009e-06
-5.20285e-10
5.00111e-06
-6.85614e-10
5.00135e-06
-7.5345e-10
5.00162e-06
-1.04841e-09
5.00195e-06
-1.09801e-09
-1.69951e-09
5.00001e-06
-1.03714e-11
5.00002e-06
-2.91771e-11
5.00003e-06
-5.09168e-11
5.00005e-06
-7.64898e-11
5.00008e-06
-1.05111e-10
5.00011e-06
-1.38289e-10
5.00015e-06
-1.72086e-10
5.0002e-06
-2.1015e-10
5.00026e-06
-2.45245e-10
5.00032e-06
-2.9215e-10
5.0004e-06
-3.34582e-10
5.00049e-06
-4.06066e-10
5.00059e-06
-4.65683e-10
5.00072e-06
-5.85189e-10
5.00086e-06
-6.65271e-10
5.00104e-06
-8.63226e-10
5.00124e-06
-9.53824e-10
5.00148e-06
-1.28916e-09
5.00174e-06
-1.35019e-09
-1.91078e-09
5e-06
-9.62314e-12
5e-06
-3.25293e-11
5.00001e-06
-5.88374e-11
5.00002e-06
-8.94032e-11
5.00004e-06
-1.23892e-10
5.00006e-06
-1.63553e-10
5.00009e-06
-2.04542e-10
5.00013e-06
-2.49927e-10
5.00018e-06
-2.93802e-10
5.00024e-06
-3.49312e-10
5.00031e-06
-4.02486e-10
5.00039e-06
-4.8521e-10
5.00048e-06
-5.59661e-10
5.00059e-06
-6.94206e-10
5.00072e-06
-7.9462e-10
5.00087e-06
-1.01024e-09
5.00104e-06
-1.12444e-09
5.00122e-06
-1.4721e-09
5.00143e-06
-1.55489e-09
-2.17798e-09
5e-06
-1.17132e-11
5.00001e-06
-3.8802e-11
5.00002e-06
-6.91024e-11
5.00003e-06
-1.04156e-10
5.00005e-06
-1.43583e-10
5.00007e-06
-1.89218e-10
5.00011e-06
-2.359e-10
5.00014e-06
-2.87431e-10
5.00019e-06
-3.36786e-10
5.00024e-06
-3.9848e-10
5.00029e-06
-4.582e-10
5.00036e-06
-5.5036e-10
5.00043e-06
-6.3484e-10
5.00052e-06
-7.83888e-10
5.00063e-06
-8.97881e-10
5.00075e-06
-1.13178e-09
5.00089e-06
-1.26084e-09
5.00104e-06
-1.62891e-09
5.00121e-06
-1.72382e-09
-2.31146e-09
5e-06
-1.36626e-11
5e-06
-4.35801e-11
5.00001e-06
-7.65572e-11
5.00002e-06
-1.14781e-10
5.00003e-06
-1.57601e-10
5.00005e-06
-2.0707e-10
5.00007e-06
-2.58096e-10
5.0001e-06
-3.1455e-10
5.00013e-06
-3.69385e-10
5.00017e-06
-4.37057e-10
5.00022e-06
-5.03617e-10
5.00027e-06
-6.03081e-10
5.00033e-06
-6.96416e-10
5.00041e-06
-8.54887e-10
5.00049e-06
-9.80087e-10
5.00058e-06
-1.2243e-09
5.00069e-06
-1.3652e-09
5.0008e-06
-1.73961e-09
5.00091e-06
-1.8399e-09
-2.46124e-09
5e-06
-1.49184e-11
5e-06
-4.69016e-11
5.00001e-06
-8.16731e-11
5.00001e-06
-1.22212e-10
5.00002e-06
-1.68212e-10
5.00004e-06
-2.21173e-10
5.00006e-06
-2.75926e-10
5.00008e-06
-3.3604e-10
5.0001e-06
-3.94387e-10
5.00013e-06
-4.65825e-10
5.00016e-06
-5.36353e-10
5.0002e-06
-6.40807e-10
5.00025e-06
-7.39861e-10
5.0003e-06
-9.05567e-10
5.00036e-06
-1.03805e-09
5.00042e-06
-1.29066e-09
5.0005e-06
-1.43911e-09
5.00058e-06
-1.82167e-09
5.00067e-06
-1.93084e-09
-2.53702e-09
5e-06
-1.56532e-11
5e-06
-4.88454e-11
5e-06
-8.49278e-11
5.00001e-06
-1.27178e-10
5.00002e-06
-1.75153e-10
5.00002e-06
-2.30023e-10
5.00003e-06
-2.86641e-10
5.00005e-06
-3.48678e-10
5.00006e-06
-4.09097e-10
5.00008e-06
-4.82883e-10
5.0001e-06
-5.56083e-10
5.00012e-06
-6.63756e-10
5.00015e-06
-7.66526e-10
5.00018e-06
-9.36403e-10
5.00022e-06
-1.07328e-09
5.00026e-06
-1.33033e-09
5.0003e-06
-1.48314e-09
5.00035e-06
-1.8689e-09
5.00039e-06
-1.97847e-09
-2.59341e-09
5e-06
-1.59116e-11
5e-06
-4.9556e-11
5e-06
-8.61223e-11
5e-06
-1.28911e-10
5.00001e-06
-1.77421e-10
5.00001e-06
-2.32834e-10
5.00001e-06
-2.90092e-10
5.00002e-06
-3.52884e-10
5.00002e-06
-4.14204e-10
5.00003e-06
-4.88891e-10
5.00003e-06
-5.63013e-10
5.00004e-06
-6.71603e-10
5.00005e-06
-7.75293e-10
5.00006e-06
-9.46236e-10
5.00007e-06
-1.08447e-09
5.00008e-06
-1.34306e-09
5.0001e-06
-1.49763e-09
5.00011e-06
-1.88457e-09
5.00013e-06
-1.99674e-09
-2.61013e-09
5e-06
-1.56896e-11
5e-06
-4.88752e-11
5e-06
-8.49375e-11
5e-06
-1.27162e-10
4.99999e-06
-1.75131e-10
4.99999e-06
-2.30015e-10
4.99999e-06
-2.86673e-10
4.99998e-06
-3.48686e-10
4.99998e-06
-4.09143e-10
4.99997e-06
-4.82896e-10
4.99997e-06
-5.56109e-10
4.99996e-06
-6.63838e-10
4.99995e-06
-7.66548e-10
4.99994e-06
-9.36365e-10
4.99993e-06
-1.0733e-09
4.99992e-06
-1.33037e-09
4.9999e-06
-1.48314e-09
4.99989e-06
-1.86883e-09
4.99987e-06
-1.97846e-09
-2.5933e-09
5e-06
-1.49715e-11
5e-06
-4.68782e-11
5e-06
-8.16848e-11
4.99999e-06
-1.222e-10
4.99998e-06
-1.68231e-10
4.99998e-06
-2.21209e-10
4.99997e-06
-2.76013e-10
4.99995e-06
-3.36079e-10
4.99994e-06
-3.94484e-10
4.99992e-06
-4.65896e-10
4.9999e-06
-5.36408e-10
4.99988e-06
-6.40925e-10
4.99985e-06
-7.39959e-10
4.99982e-06
-9.05571e-10
4.99978e-06
-1.03806e-09
4.99974e-06
-1.29063e-09
4.9997e-06
-1.43907e-09
4.99965e-06
-1.82156e-09
4.9996e-06
-1.93077e-09
-2.53684e-09
5e-06
-1.36498e-11
5e-06
-4.35336e-11
4.99999e-06
-7.66018e-11
4.99999e-06
-1.14769e-10
4.99998e-06
-1.57713e-10
4.99996e-06
-2.0711e-10
4.99994e-06
-2.58212e-10
4.99992e-06
-3.14572e-10
4.9999e-06
-3.69433e-10
4.99987e-06
-4.37179e-10
4.99984e-06
-5.03679e-10
4.9998e-06
-6.03125e-10
4.99975e-06
-6.96519e-10
4.9997e-06
-8.54931e-10
4.99964e-06
-9.80082e-10
4.99958e-06
-1.22421e-09
4.9995e-06
-1.36515e-09
4.99942e-06
-1.73946e-09
4.99933e-06
-1.83979e-09
-2.46088e-09
5e-06
-1.16256e-11
5e-06
-3.88019e-11
4.99999e-06
-6.91063e-11
4.99998e-06
-1.04205e-10
4.99997e-06
-1.43707e-10
4.99995e-06
-1.89228e-10
4.99993e-06
-2.35961e-10
4.9999e-06
-2.87467e-10
4.99987e-06
-3.36656e-10
4.99983e-06
-3.98487e-10
4.99978e-06
-4.58247e-10
4.99973e-06
-5.50312e-10
4.99967e-06
-6.34844e-10
4.99959e-06
-7.83888e-10
4.99951e-06
-8.97862e-10
4.99942e-06
-1.13166e-09
4.99931e-06
-1.26075e-09
4.9992e-06
-1.62869e-09
4.99909e-06
-1.72362e-09
-2.31103e-09
5e-06
-9.54969e-12
4.99999e-06
-3.25601e-11
4.99998e-06
-5.88106e-11
4.99997e-06
-8.95214e-11
4.99995e-06
-1.23879e-10
4.99993e-06
-1.63669e-10
4.99989e-06
-2.04407e-10
4.99986e-06
-2.50099e-10
4.99981e-06
-2.93726e-10
4.99976e-06
-3.49146e-10
4.99971e-06
-4.02443e-10
4.99964e-06
-4.85123e-10
4.99957e-06
-5.59597e-10
4.99948e-06
-6.94144e-10
4.99937e-06
-7.94609e-10
4.99925e-06
-1.01014e-09
4.99911e-06
-1.12437e-09
4.99896e-06
-1.47185e-09
4.99879e-06
-1.55471e-09
-2.17751e-09
5e-06
-1.03698e-11
5e-06
-2.92211e-11
4.99999e-06
-5.0893e-11
4.99998e-06
-7.65691e-11
4.99996e-06
-1.0498e-10
4.99994e-06
-1.38247e-10
4.99991e-06
-1.71603e-10
4.99987e-06
-2.10019e-10
4.99982e-06
-2.45344e-10
4.99976e-06
-2.92007e-10
4.99969e-06
-3.34461e-10
4.99961e-06
-4.05932e-10
4.99952e-06
-4.65565e-10
4.99941e-06
-5.85046e-10
4.99928e-06
-6.65211e-10
4.99913e-06
-8.63083e-10
4.99896e-06
-9.53739e-10
4.99878e-06
-1.28886e-09
4.99857e-06
-1.34997e-09
-1.91022e-09
4.99999e-06
-2.61419e-12
4.99998e-06
-1.74995e-11
4.99997e-06
-3.51143e-11
4.99995e-06
-5.59923e-11
4.99992e-06
-7.87187e-11
4.99989e-06
-1.04663e-10
4.99985e-06
-1.31439e-10
4.9998e-06
-1.60966e-10
4.99974e-06
-1.89299e-10
4.99968e-06
-2.26382e-10
4.9996e-06
-2.59677e-10
4.99951e-06
-3.166e-10
4.99941e-06
-3.62682e-10
4.99928e-06
-4.59254e-10
4.99914e-06
-5.20265e-10
4.99896e-06
-6.85505e-10
4.99876e-06
-7.53432e-10
4.99852e-06
-1.04818e-09
4.99826e-06
-1.09789e-09
-1.69909e-09
5.00001e-06
-1.09149e-11
5.00001e-06
-1.59798e-11
5e-06
-2.71673e-11
4.99999e-06
-4.10608e-11
4.99996e-06
-5.56111e-11
4.99993e-06
-7.35025e-11
4.99989e-06
-9.06252e-11
4.99984e-06
-1.11482e-10
4.99978e-06
-1.28327e-10
4.99971e-06
-1.55e-10
4.99963e-06
-1.75286e-10
4.99953e-06
-2.17639e-10
4.99941e-06
-2.44239e-10
4.99927e-06
-3.18704e-10
4.9991e-06
-3.50258e-10
4.99889e-06
-4.84971e-10
4.99865e-06
-5.12562e-10
4.99838e-06
-7.72053e-10
4.99805e-06
-7.69102e-10
-1.2679e-09
4.99998e-06
1.06032e-11
4.99997e-06
-3.13369e-12
4.99995e-06
-1.20294e-11
4.99993e-06
-1.93311e-11
4.9999e-06
-2.76985e-11
4.99986e-06
-3.3416e-11
4.99982e-06
-4.71076e-11
4.99977e-06
-5.5427e-11
4.9997e-06
-6.45473e-11
4.99963e-06
-7.89812e-11
4.99954e-06
-8.94015e-11
4.99943e-06
-1.12045e-10
4.99931e-06
-1.24232e-10
4.99916e-06
-1.65464e-10
4.99899e-06
-1.7658e-10
4.99876e-06
-2.56598e-10
4.9985e-06
-2.58046e-10
4.99816e-06
-4.34089e-10
4.99781e-06
-4.18875e-10
-8.94791e-10
5.00001e-06
5.00001e-06
5e-06
4.99998e-06
4.99995e-06
4.99992e-06
4.99987e-06
4.99981e-06
4.99975e-06
4.99967e-06
4.99958e-06
4.99947e-06
4.99934e-06
4.99918e-06
4.999e-06
4.99874e-06
4.99849e-06
4.99805e-06
4.99763e-06
)
;

boundaryField
{
    sides
    {
        type            calculated;
        value           uniform 0;
    }
    inlet
    {
        type            calculated;
        value           nonuniform List<scalar> 
20
(
-5e-06
-5e-06
-5e-06
-5e-06
-5e-06
-5e-06
-5e-06
-5e-06
-5e-06
-5e-06
-5e-06
-5e-06
-5e-06
-5e-06
-5e-06
-5e-06
-5e-06
-5e-06
-5e-06
-5e-06
)
;
    }
    outlet
    {
        type            calculated;
        value           nonuniform List<scalar> 
20
(
5.00326e-06
5.00256e-06
5.00238e-06
5.00195e-06
5.0017e-06
5.00135e-06
5.00106e-06
5.00075e-06
5.00045e-06
5.00015e-06
4.99985e-06
4.99955e-06
4.99925e-06
4.99894e-06
4.99865e-06
4.9983e-06
4.99805e-06
4.99762e-06
4.99744e-06
4.99674e-06
)
;
    }
    frontAndBack
    {
        type            empty;
        value           nonuniform 0();
    }
}


// ************************************************************************* //
