/*--------------------------------*- C++ -*----------------------------------*\
  =========                 |
  \\      /  F ield         | OpenFOAM: The Open Source CFD Toolbox
   \\    /   O peration     | Website:  https://openfoam.org
    \\  /    A nd           | Version:  7
     \\/     M anipulation  |
\*---------------------------------------------------------------------------*/
FoamFile
{
    version     2.0;
    format      ascii;
    class       volVectorField;
    location    "45";
    object      U;
}
// * * * * * * * * * * * * * * * * * * * * * * * * * * * * * * * * * * * * * //

dimensions      [0 1 -1 0 0 0 0];

internalField   nonuniform List<vector> 
400
(
(0.0999931 -8.63683e-07 0)
(0.099993 -2.35555e-06 0)
(0.099993 -3.59632e-06 0)
(0.0999932 -4.70357e-06 0)
(0.0999937 -5.75866e-06 0)
(0.0999945 -6.86802e-06 0)
(0.0999954 -7.94658e-06 0)
(0.0999966 -9.04751e-06 0)
(0.0999978 -1.00851e-05 0)
(0.0999996 -1.12217e-05 0)
(0.100001 -1.223e-05 0)
(0.100004 -1.35333e-05 0)
(0.100006 -1.45454e-05 0)
(0.10001 -1.62475e-05 0)
(0.100012 -1.71667e-05 0)
(0.10002 -1.96332e-05 0)
(0.100022 -2.01473e-05 0)
(0.100035 -2.43878e-05 0)
(0.100036 -2.40578e-05 0)
(0.10006 -3.3256e-05 0)
(0.0999943 4.08242e-07 0)
(0.0999947 1.23229e-06 0)
(0.0999951 2.04841e-06 0)
(0.0999956 2.82734e-06 0)
(0.0999961 3.56201e-06 0)
(0.0999968 4.19015e-06 0)
(0.0999976 4.78614e-06 0)
(0.0999988 5.3024e-06 0)
(0.1 5.82407e-06 0)
(0.100002 6.21477e-06 0)
(0.100003 6.69376e-06 0)
(0.100006 6.8724e-06 0)
(0.100008 7.30101e-06 0)
(0.100012 7.02644e-06 0)
(0.100014 7.43885e-06 0)
(0.10002 6.19964e-06 0)
(0.100024 6.71517e-06 0)
(0.100033 3.16625e-06 0)
(0.100036 3.92588e-06 0)
(0.10005 -5.52994e-06 0)
(0.0999947 -3.66269e-07 0)
(0.0999946 -1.24385e-06 0)
(0.0999946 -2.25723e-06 0)
(0.0999948 -3.35509e-06 0)
(0.0999952 -4.46842e-06 0)
(0.0999958 -5.61313e-06 0)
(0.0999966 -6.72997e-06 0)
(0.0999976 -7.91116e-06 0)
(0.0999988 -9.02053e-06 0)
(0.1 -1.03038e-05 0)
(0.100002 -1.14756e-05 0)
(0.100004 -1.31107e-05 0)
(0.100006 -1.44668e-05 0)
(0.10001 -1.68342e-05 0)
(0.100012 -1.83943e-05 0)
(0.100018 -2.20736e-05 0)
(0.100021 -2.3655e-05 0)
(0.100029 -2.98799e-05 0)
(0.100032 -3.08855e-05 0)
(0.100046 -4.24011e-05 0)
(0.0999956 2.68365e-08 0)
(0.0999958 8.69354e-08 0)
(0.099996 1.4583e-07 0)
(0.0999964 1.67302e-07 0)
(0.099997 1.5637e-07 0)
(0.0999977 5.89603e-08 0)
(0.0999984 -5.35696e-08 0)
(0.0999994 -2.66247e-07 0)
(0.100001 -4.25545e-07 0)
(0.100002 -7.96089e-07 0)
(0.100003 -1.0811e-06 0)
(0.100005 -1.89962e-06 0)
(0.100007 -2.4947e-06 0)
(0.10001 -4.21718e-06 0)
(0.100013 -5.20433e-06 0)
(0.100017 -8.44054e-06 0)
(0.10002 -9.6534e-06 0)
(0.100027 -1.56176e-05 0)
(0.100029 -1.64293e-05 0)
(0.100039 -2.78327e-05 0)
(0.0999962 -2.53342e-07 0)
(0.0999962 -8.43173e-07 0)
(0.0999963 -1.54445e-06 0)
(0.0999965 -2.37486e-06 0)
(0.0999968 -3.30464e-06 0)
(0.0999973 -4.35762e-06 0)
(0.0999979 -5.44816e-06 0)
(0.0999987 -6.64588e-06 0)
(0.0999997 -7.80105e-06 0)
(0.100001 -9.18768e-06 0)
(0.100002 -1.04961e-05 0)
(0.100004 -1.23661e-05 0)
(0.100006 -1.40201e-05 0)
(0.100008 -1.68488e-05 0)
(0.100011 -1.89406e-05 0)
(0.100014 -2.33481e-05 0)
(0.100017 -2.56735e-05 0)
(0.100022 -3.27996e-05 0)
(0.100024 -3.4506e-05 0)
(0.100033 -4.67157e-05 0)
(0.0999969 -2.10318e-07 0)
(0.099997 -6.61514e-07 0)
(0.0999971 -1.14328e-06 0)
(0.0999974 -1.68264e-06 0)
(0.0999977 -2.27781e-06 0)
(0.0999983 -2.96426e-06 0)
(0.0999989 -3.66074e-06 0)
(0.0999996 -4.43671e-06 0)
(0.100001 -5.16082e-06 0)
(0.100002 -6.12137e-06 0)
(0.100003 -7.03108e-06 0)
(0.100004 -8.56724e-06 0)
(0.100006 -9.95439e-06 0)
(0.100008 -1.26071e-05 0)
(0.10001 -1.45922e-05 0)
(0.100012 -1.89403e-05 0)
(0.100015 -2.12637e-05 0)
(0.100019 -2.82848e-05 0)
(0.100021 -2.99656e-05 0)
(0.100027 -4.18653e-05 0)
(0.0999976 -2.47052e-07 0)
(0.0999977 -7.93195e-07 0)
(0.0999978 -1.41432e-06 0)
(0.0999979 -2.15211e-06 0)
(0.0999982 -3.01145e-06 0)
(0.0999986 -4.03062e-06 0)
(0.099999 -5.11588e-06 0)
(0.0999995 -6.33095e-06 0)
(0.1 -7.5251e-06 0)
(0.100001 -8.97204e-06 0)
(0.100002 -1.03733e-05 0)
(0.100003 -1.24107e-05 0)
(0.100004 -1.4294e-05 0)
(0.100006 -1.74559e-05 0)
(0.100007 -1.99364e-05 0)
(0.10001 -2.48045e-05 0)
(0.100011 -2.76002e-05 0)
(0.100015 -3.5155e-05 0)
(0.100016 -3.72095e-05 0)
(0.100021 -4.95999e-05 0)
(0.0999983 -2.77801e-07 0)
(0.0999983 -8.8236e-07 0)
(0.0999984 -1.55443e-06 0)
(0.0999985 -2.34535e-06 0)
(0.0999987 -3.24806e-06 0)
(0.099999 -4.28581e-06 0)
(0.0999993 -5.3498e-06 0)
(0.0999997 -6.50878e-06 0)
(0.1 -7.62061e-06 0)
(0.100001 -8.97544e-06 0)
(0.100002 -1.0296e-05 0)
(0.100002 -1.22781e-05 0)
(0.100003 -1.41462e-05 0)
(0.100004 -1.73353e-05 0)
(0.100005 -1.98815e-05 0)
(0.100007 -2.48108e-05 0)
(0.100008 -2.76996e-05 0)
(0.100011 -3.52357e-05 0)
(0.100012 -3.73396e-05 0)
(0.100015 -4.9505e-05 0)
(0.099999 -2.96733e-07 0)
(0.099999 -9.37139e-07 0)
(0.099999 -1.63816e-06 0)
(0.0999991 -2.45872e-06 0)
(0.0999992 -3.388e-06 0)
(0.0999994 -4.45769e-06 0)
(0.0999996 -5.57284e-06 0)
(0.0999999 -6.81301e-06 0)
(0.1 -8.03099e-06 0)
(0.100001 -9.51497e-06 0)
(0.100001 -1.09737e-05 0)
(0.100001 -1.31043e-05 0)
(0.100002 -1.51189e-05 0)
(0.100003 -1.84696e-05 0)
(0.100003 -2.11708e-05 0)
(0.100004 -2.6283e-05 0)
(0.100005 -2.93308e-05 0)
(0.100006 -3.70732e-05 0)
(0.100007 -3.92948e-05 0)
(0.100009 -5.16932e-05 0)
(0.0999997 -3.05725e-07 0)
(0.0999997 -9.62765e-07 0)
(0.0999997 -1.67648e-06 0)
(0.0999997 -2.51164e-06 0)
(0.0999997 -3.46755e-06 0)
(0.0999998 -4.57678e-06 0)
(0.0999999 -5.73691e-06 0)
(0.1 -7.01442e-06 0)
(0.1 -8.25961e-06 0)
(0.1 -9.76362e-06 0)
(0.1 -1.12444e-05 0)
(0.1 -1.34035e-05 0)
(0.100001 -1.54591e-05 0)
(0.100001 -1.88566e-05 0)
(0.100001 -2.16139e-05 0)
(0.100001 -2.677e-05 0)
(0.100002 -2.98698e-05 0)
(0.100002 -3.76175e-05 0)
(0.100002 -3.98746e-05 0)
(0.100003 -5.21961e-05 0)
(0.1 -3.06175e-07 0)
(0.1 -9.62384e-07 0)
(0.1 -1.67658e-06 0)
(0.1 -2.51152e-06 0)
(0.1 -3.46778e-06 0)
(0.1 -4.57689e-06 0)
(0.1 -5.73761e-06 0)
(0.1 -7.01492e-06 0)
(0.0999999 -8.26016e-06 0)
(0.0999998 -9.76429e-06 0)
(0.0999997 -1.12446e-05 0)
(0.0999995 -1.34042e-05 0)
(0.0999993 -1.54599e-05 0)
(0.0999991 -1.88564e-05 0)
(0.0999989 -2.16135e-05 0)
(0.0999986 -2.67702e-05 0)
(0.0999984 -2.98702e-05 0)
(0.0999979 -3.76174e-05 0)
(0.0999977 -3.98748e-05 0)
(0.099997 -5.21961e-05 0)
(0.100001 -2.97262e-07 0)
(0.100001 -9.36353e-07 0)
(0.100001 -1.63863e-06 0)
(0.100001 -2.45866e-06 0)
(0.100001 -3.38906e-06 0)
(0.100001 -4.45829e-06 0)
(0.1 -5.57474e-06 0)
(0.1 -6.81424e-06 0)
(0.0999998 -8.0322e-06 0)
(0.0999995 -9.51666e-06 0)
(0.0999991 -1.09744e-05 0)
(0.0999986 -1.31053e-05 0)
(0.099998 -1.51208e-05 0)
(0.0999973 -1.84694e-05 0)
(0.0999967 -2.11699e-05 0)
(0.0999957 -2.62823e-05 0)
(0.099995 -2.93302e-05 0)
(0.0999936 -3.70706e-05 0)
(0.0999931 -3.92933e-05 0)
(0.0999911 -5.16884e-05 0)
(0.100002 -2.77243e-07 0)
(0.100002 -8.821e-07 0)
(0.100002 -1.55498e-06 0)
(0.100001 -2.34589e-06 0)
(0.100001 -3.25e-06 0)
(0.100001 -4.28691e-06 0)
(0.100001 -5.35178e-06 0)
(0.1 -6.5104e-06 0)
(0.0999997 -7.62129e-06 0)
(0.0999991 -8.97766e-06 0)
(0.0999985 -1.0298e-05 0)
(0.0999976 -1.22796e-05 0)
(0.0999968 -1.41489e-05 0)
(0.0999956 -1.73377e-05 0)
(0.0999946 -1.98833e-05 0)
(0.0999929 -2.48119e-05 0)
(0.0999917 -2.7701e-05 0)
(0.0999894 -3.52363e-05 0)
(0.0999885 -3.73415e-05 0)
(0.0999852 -4.95046e-05 0)
(0.100002 -2.45669e-07 0)
(0.100002 -7.93633e-07 0)
(0.100002 -1.41426e-06 0)
(0.100002 -2.15378e-06 0)
(0.100002 -3.01276e-06 0)
(0.100001 -4.03191e-06 0)
(0.100001 -5.11563e-06 0)
(0.1 -6.33219e-06 0)
(0.0999998 -7.52364e-06 0)
(0.099999 -8.97092e-06 0)
(0.0999981 -1.03738e-05 0)
(0.0999969 -1.24096e-05 0)
(0.0999957 -1.42932e-05 0)
(0.0999941 -1.74551e-05 0)
(0.0999926 -1.99355e-05 0)
(0.0999903 -2.48006e-05 0)
(0.0999887 -2.75966e-05 0)
(0.0999853 -3.51477e-05 0)
(0.0999843 -3.72028e-05 0)
(0.0999793 -4.9586e-05 0)
(0.100003 -2.0921e-07 0)
(0.100003 -6.6208e-07 0)
(0.100003 -1.14331e-06 0)
(0.100003 -1.68524e-06 0)
(0.100002 -2.27813e-06 0)
(0.100002 -2.96668e-06 0)
(0.100001 -3.65883e-06 0)
(0.1 -4.43862e-06 0)
(0.0999995 -5.16222e-06 0)
(0.0999984 -6.12026e-06 0)
(0.0999973 -7.03182e-06 0)
(0.0999958 -8.56791e-06 0)
(0.0999944 -9.95492e-06 0)
(0.0999923 -1.26083e-05 0)
(0.0999905 -1.45946e-05 0)
(0.0999875 -1.89418e-05 0)
(0.0999854 -2.12657e-05 0)
(0.0999811 -2.82853e-05 0)
(0.0999792 -2.9966e-05 0)
(0.0999731 -4.18629e-05 0)
(0.100004 -2.54055e-07 0)
(0.100004 -8.43006e-07 0)
(0.100004 -1.54416e-06 0)
(0.100004 -2.37508e-06 0)
(0.100003 -3.30249e-06 0)
(0.100003 -4.35662e-06 0)
(0.100002 -5.44505e-06 0)
(0.100001 -6.64202e-06 0)
(0.1 -7.80261e-06 0)
(0.0999991 -9.18608e-06 0)
(0.0999978 -1.0494e-05 0)
(0.099996 -1.23638e-05 0)
(0.0999942 -1.40178e-05 0)
(0.0999916 -1.68453e-05 0)
(0.0999895 -1.8939e-05 0)
(0.0999857 -2.3344e-05 0)
(0.0999833 -2.56708e-05 0)
(0.0999776 -3.27912e-05 0)
(0.0999759 -3.44989e-05 0)
(0.0999671 -4.66991e-05 0)
(0.100004 2.4585e-08 0)
(0.100004 8.62868e-08 0)
(0.100004 1.45349e-07 0)
(0.100004 1.69078e-07 0)
(0.100003 1.62043e-07 0)
(0.100002 6.41296e-08 0)
(0.100002 -5.33338e-08 0)
(0.100001 -2.60815e-07 0)
(0.0999994 -4.25175e-07 0)
(0.099998 -7.96494e-07 0)
(0.0999965 -1.08016e-06 0)
(0.0999945 -1.89837e-06 0)
(0.0999926 -2.49365e-06 0)
(0.0999897 -4.21535e-06 0)
(0.0999872 -5.20365e-06 0)
(0.0999829 -8.43914e-06 0)
(0.0999798 -9.65293e-06 0)
(0.0999734 -1.56142e-05 0)
(0.0999706 -1.64266e-05 0)
(0.0999612 -2.78261e-05 0)
(0.100005 -3.67375e-07 0)
(0.100005 -1.24435e-06 0)
(0.100005 -2.25891e-06 0)
(0.100005 -3.35404e-06 0)
(0.100005 -4.46782e-06 0)
(0.100004 -5.6154e-06 0)
(0.100003 -6.7359e-06 0)
(0.100002 -7.91688e-06 0)
(0.100001 -9.02008e-06 0)
(0.0999996 -1.03051e-05 0)
(0.099998 -1.14775e-05 0)
(0.0999957 -1.31122e-05 0)
(0.0999936 -1.44695e-05 0)
(0.0999902 -1.68348e-05 0)
(0.0999876 -1.8396e-05 0)
(0.0999822 -2.20726e-05 0)
(0.0999792 -2.3657e-05 0)
(0.0999706 -2.98769e-05 0)
(0.0999683 -3.0886e-05 0)
(0.0999542 -4.23932e-05 0)
(0.100006 4.09061e-07 0)
(0.100005 1.23298e-06 0)
(0.100005 2.0498e-06 0)
(0.100004 2.83144e-06 0)
(0.100004 3.55266e-06 0)
(0.100003 4.18909e-06 0)
(0.100002 4.78311e-06 0)
(0.100001 5.29922e-06 0)
(0.1 5.82412e-06 0)
(0.0999983 6.2138e-06 0)
(0.0999966 6.69235e-06 0)
(0.0999943 6.87126e-06 0)
(0.0999921 7.29955e-06 0)
(0.0999885 7.02798e-06 0)
(0.0999856 7.44097e-06 0)
(0.09998 6.20493e-06 0)
(0.0999765 6.7187e-06 0)
(0.0999674 3.17413e-06 0)
(0.0999641 3.9317e-06 0)
(0.0999498 -5.51701e-06 0)
(0.100007 -8.62997e-07 0)
(0.100007 -2.35571e-06 0)
(0.100007 -3.59495e-06 0)
(0.100007 -4.70102e-06 0)
(0.100006 -5.76682e-06 0)
(0.100005 -6.86639e-06 0)
(0.100005 -7.94834e-06 0)
(0.100003 -9.04803e-06 0)
(0.100002 -1.00904e-05 0)
(0.1 -1.12287e-05 0)
(0.0999988 -1.22374e-05 0)
(0.0999961 -1.3541e-05 0)
(0.0999941 -1.45535e-05 0)
(0.0999899 -1.62547e-05 0)
(0.0999875 -1.71738e-05 0)
(0.0999804 -1.96403e-05 0)
(0.099978 -2.01551e-05 0)
(0.0999653 -2.43965e-05 0)
(0.0999637 -2.40666e-05 0)
(0.09994 -3.32691e-05 0)
)
;

boundaryField
{
    sides
    {
        type            calculated;
        value           nonuniform List<vector> 
40
(
(0.100007 0 0)
(0.100007 0 0)
(0.100007 0 0)
(0.100007 0 0)
(0.100006 0 0)
(0.100005 0 0)
(0.100005 0 0)
(0.100003 0 0)
(0.100002 0 0)
(0.1 0 0)
(0.0999988 0 0)
(0.0999961 0 0)
(0.0999941 0 0)
(0.0999899 0 0)
(0.0999875 0 0)
(0.0999804 0 0)
(0.099978 0 0)
(0.0999653 0 0)
(0.0999637 0 0)
(0.09994 0 0)
(0.0999931 0 0)
(0.099993 0 0)
(0.099993 0 0)
(0.0999932 0 0)
(0.0999937 0 0)
(0.0999945 0 0)
(0.0999954 0 0)
(0.0999966 0 0)
(0.0999978 0 0)
(0.0999996 0 0)
(0.100001 0 0)
(0.100004 0 0)
(0.100006 0 0)
(0.10001 0 0)
(0.100012 0 0)
(0.10002 0 0)
(0.100022 0 0)
(0.100035 0 0)
(0.100036 0 0)
(0.10006 0 0)
)
;
    }
    inlet
    {
        type            calculated;
        value           nonuniform List<vector> 
20
(
(0.0999931 0 0)
(0.0999942 0 0)
(0.0999947 0 0)
(0.0999955 0 0)
(0.0999962 0 0)
(0.0999969 0 0)
(0.0999976 0 0)
(0.0999983 0 0)
(0.099999 0 0)
(0.0999997 0 0)
(0.1 0 0)
(0.100001 0 0)
(0.100002 0 0)
(0.100002 0 0)
(0.100003 0 0)
(0.100004 0 0)
(0.100004 0 0)
(0.100005 0 0)
(0.100006 0 0)
(0.100007 0 0)
)
;
    }
    outlet
    {
        type            calculated;
        value           nonuniform List<vector> 
20
(
(0.100061 -3.32563e-05 0)
(0.100051 -5.52997e-06 0)
(0.100046 -4.24013e-05 0)
(0.100039 -2.78328e-05 0)
(0.100033 -4.67158e-05 0)
(0.100027 -4.18654e-05 0)
(0.100021 -4.96e-05 0)
(0.100015 -4.95051e-05 0)
(0.100009 -5.16932e-05 0)
(0.100003 -5.21961e-05 0)
(0.099997 -5.21961e-05 0)
(0.0999911 -5.16883e-05 0)
(0.0999851 -4.95046e-05 0)
(0.0999791 -4.95859e-05 0)
(0.099973 -4.18628e-05 0)
(0.0999668 -4.66989e-05 0)
(0.099961 -2.7826e-05 0)
(0.0999537 -4.2393e-05 0)
(0.0999494 -5.51699e-06 0)
(0.0999392 -3.32688e-05 0)
)
;
    }
    frontAndBack
    {
        type            empty;
    }
}


// ************************************************************************* //
