/*--------------------------------*- C++ -*----------------------------------*\
  =========                 |
  \\      /  F ield         | OpenFOAM: The Open Source CFD Toolbox
   \\    /   O peration     | Website:  https://openfoam.org
    \\  /    A nd           | Version:  7
     \\/     M anipulation  |
\*---------------------------------------------------------------------------*/
FoamFile
{
    version     2.0;
    format      ascii;
    class       volScalarField;
    location    "800";
    object      epsilon;
}
// * * * * * * * * * * * * * * * * * * * * * * * * * * * * * * * * * * * * * //

dimensions      [0 2 -3 0 0 0 0];

internalField   nonuniform List<scalar> 
120313
(
66.2692
72.8572
80.1643
86.3348
89.5668
90.985
91.4574
90.9942
89.526
86.9763
82.8896
79.0121
74.672
69.7982
65.3475
62.0193
58.7642
55.8155
52.6481
49.7942
46.8232
44.0768
41.3913
38.66
66.2143
71.1523
78.3598
85.2675
88.9211
90.7955
91.7535
91.2488
88.9791
86.8173
83.7064
79.9817
75.4777
71.2553
67.1779
63.5853
60.1952
56.9793
53.6816
50.6439
47.6069
44.4303
41.1593
39.7956
63.8873
67.959
74.6177
81.1508
84.9318
86.9468
88.0453
88.067
86.268
84.0843
81.0168
77.1775
72.8622
68.7775
64.731
61.2595
57.9956
54.9107
51.7754
48.881
45.9836
42.9084
39.5295
38.7442
62.9406
66.7417
73.2406
79.754
83.5792
85.7273
87.003
87.2461
85.6719
83.4545
80.3084
76.3955
72.1244
68.1062
64.0387
60.5716
57.3181
54.2751
51.2094
48.3844
45.552
42.5413
39.1786
38.6048
62.753
66.5823
73.0938
79.6318
83.4774
85.6651
86.9919
87.2874
85.76
83.5442
80.3805
76.4539
72.1768
68.1641
64.0656
60.5893
57.3512
54.3142
51.2552
48.4385
45.6142
42.6133
39.2292
38.6969
63.4057
67.5269
74.2373
80.8952
84.7648
86.9116
88.1503
88.2588
86.6895
84.5207
81.4127
77.4664
73.1429
69.0914
64.9916
61.5075
58.2464
55.1376
51.9952
49.1028
46.2295
43.1893
39.7334
38.9998
65.7021
70.8206
78.1772
85.3596
89.2509
91.3384
92.4287
92.0437
90.2116
88.091
84.9417
80.8665
76.3684
72.1645
68.0001
64.4033
61.0177
57.7458
54.4126
51.3456
48.3049
45.1408
41.7546
40.3581
67.3043
74.2328
82.0047
89.0498
92.5888
94.3655
95.0713
94.6083
93.1639
90.5835
86.4714
82.281
77.5559
72.5838
68.0784
64.8564
61.4441
58.2826
54.9701
51.9734
48.9296
46.1168
43.0732
40.1169
1.75366
3.72535
6.20724
9.35968
13.3889
18.6409
25.7178
35.259
44.703
53.3918
62.1209
69.4711
74.1067
77.1129
78.5428
78.8957
78.4758
77.4337
75.8576
73.7167
70.7842
67.4577
63.8289
60.0248
56.5112
53.0425
49.7488
46.6027
43.6163
40.8332
38.1995
35.7441
33.4379
31.2874
29.3331
27.9411
1.77056
3.7184
6.19409
9.32499
13.3394
18.623
25.8038
35.28
45.6772
60.2151
72.0054
81.4438
87.6809
91.0976
92.467
92.6885
91.9688
90.4905
88.3956
84.8594
81.2775
76.7379
72.3146
67.7969
63.4918
59.2238
55.2149
51.3019
47.7961
44.3382
41.2808
38.327
35.2244
32.4036
30.0934
28.142
1.65243
3.57482
5.985
9.02206
12.9057
18.0247
24.9976
34.2505
44.8697
59.9554
73.855
84.9218
90.9138
94.9301
96.694
97.1587
96.5142
94.7804
92.2504
88.4753
84.4575
79.9929
75.172
70.4008
65.9252
61.4481
57.2672
53.1937
49.5705
45.9911
42.7654
39.6864
36.1919
33.0245
30.8757
28.6142
1.5845
3.48638
5.84341
8.79866
12.5641
17.523
24.2656
33.1893
43.7689
59.2066
73.7192
84.8563
92.2285
96.306
98.1034
98.7855
98.7304
96.3136
93.9228
89.8965
85.6933
80.9324
76.1034
71.2338
66.7398
62.181
57.95
53.8247
50.1488
46.5399
43.2578
40.1522
36.422
33.3401
30.9681
28.734
1.64156
3.5073
5.84315
8.76212
12.4712
17.3466
23.9401
32.6273
43.1492
58.7858
73.3993
84.6421
92.2835
96.5553
98.4557
99.2476
99.2741
96.7743
94.3661
90.2652
85.9831
81.1491
76.2983
71.3771
66.919
62.3032
58.0922
53.9446
50.2925
46.6855
43.4247
40.3222
36.5524
33.4958
31.1483
28.8874
1.66634
3.50376
5.82587
8.72712
12.4088
17.2469
23.7878
32.4135
42.9569
58.6089
73.1749
84.4395
92.0887
96.3937
98.3423
99.2022
99.1855
96.7482
94.3294
90.2361
85.9479
81.1096
76.2681
71.3393
66.8892
62.274
58.0678
53.9304
50.285
46.6864
43.4409
40.3413
36.5999
33.5462
31.2704
28.9911
1.60765
3.43639
5.75591
8.66228
12.3574
17.2186
23.8094
32.5148
43.1544
58.8151
73.1451
84.3404
91.7474
95.8925
97.7995
98.6506
98.7237
96.2856
93.867
89.8711
85.6625
80.8862
76.0687
71.1913
66.7307
62.1632
57.9535
53.8191
50.1695
46.5653
43.3218
40.2157
36.5875
33.3922
31.4357
29.0585
1.49791
3.33427
5.65767
8.58942
12.3374
17.2833
24.0437
33.0431
43.9578
59.4964
73.244
84.4837
90.4937
94.6182
96.5613
97.3303
96.9801
95.0989
92.5073
88.7602
84.8385
80.1822
75.3914
70.602
66.1564
61.6615
57.4759
53.408
49.7842
46.2111
43.0033
39.8861
36.5033
33.164
31.6654
29.1588
1.48438
3.31419
5.66682
8.67155
12.551
17.7054
24.8124
34.3736
45.5249
60.4742
72.5347
82.801
88.1871
91.9316
93.7021
94.1654
93.7878
92.6906
90
86.3315
82.5872
78.0272
73.4456
68.8526
64.4867
60.1773
56.1146
52.1589
48.6013
45.1225
42.0155
38.9955
35.92
32.8459
31.5075
29.248
1.47246
3.28325
5.64516
8.69037
12.6384
17.9031
25.2002
35.1244
46.2311
59.5747
69.6872
78.3808
84.0707
87.3122
88.7283
89.063
88.56
87.373
85.7007
82.9545
79.4262
75.2031
70.9886
66.6332
62.4914
58.4856
54.6313
50.9199
47.4563
44.2173
41.1902
38.4887
35.7849
32.6943
31.5503
29.2893
1.42419
3.2421
5.62952
8.71548
12.7073
18.0032
25.3034
35.1484
44.8002
54.1106
63.0701
70.338
75.3332
78.5337
80.1918
80.7237
80.4533
79.5486
78.1022
75.9533
73.1858
69.5849
65.7006
61.7776
58.035
54.4691
51.0383
47.7538
44.6322
41.7154
38.9875
36.4572
34.1003
31.8766
29.9749
28.2941
1.22443
3.09814
5.49403
8.61432
12.6404
17.9005
24.9553
34.3885
44.156
52.6652
61.4569
69.2128
74.0131
77.3481
79.1033
79.7372
79.5487
78.7342
77.2259
75.0895
72.3747
68.9016
65.0572
61.1486
57.412
53.7881
50.3089
46.9995
43.857
40.9022
38.1519
35.6222
33.2839
31.208
29.2927
27.8448
86.8968
102.186
118.572
128.94
134.187
135.504
134.225
130.954
126.051
120.389
114.117
108.437
101.641
94.9855
88.3724
82.0041
75.9207
70.1707
64.7778
59.7705
55.1936
50.9974
47.2115
44.0413
1.70222
3.34146
5.75808
9.09849
13.6742
19.9097
28.2862
39.2554
55.856
83.7632
99.7327
115.885
125.837
130.962
132.353
131.306
128.371
123.827
118.163
111.858
106.188
99.4552
93.7085
87.0334
80.7797
74.8036
69.2058
63.9517
59.0901
54.6002
50.5184
46.7252
43.4499
40.4029
36.9565
34.3266
1.66598
3.27458
5.68758
9.02232
13.6177
19.9228
28.4434
39.604
56.4603
84.6144
100.846
117.279
127.077
132.085
133.2
131.936
128.734
123.978
117.959
111.673
105.617
99.1989
92.7297
86.2472
80.0729
74.1505
68.6282
63.4388
58.6984
54.2724
50.2888
46.5315
43.142
39.8962
37.4463
34.6506
1.57662
3.14795
5.5086
8.7746
13.2912
19.5286
28.0258
39.2242
55.9365
84.7848
101.795
118.61
128.423
133.51
134.469
132.987
129.363
123.819
118.257
112.177
105.918
99.3815
92.8014
86.3128
80.1428
74.2185
68.7095
63.5222
58.8112
54.3707
50.4087
46.6322
43.1597
39.7735
37.2579
34.5183
1.50947
3.05246
5.35749
8.5439
12.9492
19.0538
27.4028
38.4455
54.9659
84.0132
101.472
118.44
128.389
133.541
134.42
132.701
128.494
123.044
118.246
112.097
105.777
99.1622
92.5242
86.0316
79.8874
73.9553
68.4792
63.3084
58.6548
54.2453
50.3347
46.5833
43.0949
39.6416
37.1432
34.2912
1.52572
3.03837
5.31137
8.45235
12.7893
18.8013
27.0202
37.8893
54.241
83.4171
100.946
117.943
127.923
133.103
133.897
132.068
127.673
122.419
117.944
111.735
105.372
98.7241
92.1081
85.6037
79.596
73.4841
68.1077
62.8151
58.2897
53.8448
50.0481
46.3209
42.9105
39.4962
37.0277
34.1193
1.53391
3.02191
5.2757
8.39156
12.6965
18.6671
26.8254
37.6072
53.903
83.0714
100.493
117.522
127.522
132.73
133.527
131.66
127.267
122.137
117.691
111.469
105.116
98.4683
91.8949
85.3796
79.3484
73.2399
67.8809
62.6235
58.1098
53.6874
49.9179
46.1768
42.8021
39.4138
36.9589
34.0276
1.48749
2.96258
5.20069
8.30174
12.5987
18.578
26.7607
37.576
53.9519
83.0044
100.268
117.358
127.349
132.554
133.458
131.721
127.396
122.154
117.533
111.418
105.126
98.5231
91.9123
85.4754
79.395
73.4669
68.0883
62.8196
58.2488
53.7768
49.9403
46.2213
42.8309
39.425
36.9555
34.0452
1.41834
2.89597
5.12819
8.23369
12.5553
18.5937
26.8803
37.8443
54.4274
83.1922
100.243
117.289
127.182
132.335
133.349
131.837
127.999
122.417
117.476
111.411
105.214
98.686
92.1389
85.7033
79.577
73.698
68.2269
63.0936
58.4247
54.026
50.1027
46.339
42.9289
39.5259
37.0326
34.184
1.40863
2.88773
5.13417
8.27773
12.6767
18.8409
27.3065
38.4931
55.3224
83.4783
100.028
116.795
126.579
131.625
132.756
131.506
128.166
122.993
117.183
111.246
105.093
98.6453
92.1825
85.7438
79.6147
73.7283
68.255
63.096
58.3929
53.9826
50.0125
46.2758
42.9086
39.5757
37.1162
34.3731
1.41379
2.89304
5.16022
8.34602
12.8191
19.0785
27.6469
38.8904
55.6244
83.157
99.2453
115.497
125.231
130.239
131.484
130.342
127.292
122.649
116.82
110.675
104.89
98.5074
92.0779
85.6595
79.5693
73.697
68.2187
63.0665
58.3403
53.9669
49.9906
46.3172
42.9918
39.7319
37.3195
34.556
1.37804
2.86305
5.1339
8.33638
12.8272
19.0953
27.6368
38.775
55.5068
83.6372
99.8029
116.249
126.321
131.571
133.061
132.01
128.998
124.309
118.583
112.19
106.824
100.082
93.7828
87.1069
80.7711
74.6973
69.0187
63.7047
58.8274
54.3172
50.2672
46.477
43.1628
40.1023
36.6966
34.0929
1.271
2.77264
5.01502
8.1949
12.6413
18.8458
27.3384
38.5086
55.6008
84.7007
102.067
119.176
129.806
135.282
136.788
135.626
132.411
127.223
121.269
114.753
109.404
102.437
95.5978
88.7266
82.13
75.8216
69.9294
64.4438
59.4101
54.7865
50.6644
46.8099
43.5117
40.3622
36.7836
34.0447
145.391
151.119
162.047
167.555
166.909
162.351
155.124
146.424
137.084
127.668
118.54
109.863
101.722
94.0232
87.0257
80.5584
74.6
69.1675
64.0585
59.4961
55.1968
51.4048
47.9507
45.0002
1.40611
2.87144
5.59814
10.3231
18.1777
29.5392
44.0143
61.9058
94.8076
144.56
149.585
160.764
166.889
166.527
162.435
155.55
147.069
137.896
128.518
119.354
110.6
102.378
94.7498
87.7211
81.2998
75.2339
69.7055
64.5481
59.8916
55.5849
51.6975
48.0815
45.0118
41.724
41.1033
38.4681
1.37184
2.80998
5.59204
10.5162
18.7208
30.605
45.5949
63.9876
97.4331
146.432
150.355
160.139
165.958
165.312
160.711
153.542
144.962
135.72
126.245
117.038
108.405
100.283
92.8217
85.8735
79.5768
73.6235
68.2215
63.201
58.6945
54.5352
50.7899
47.2948
44.0834
41.0317
38.436
35.661
1.29834
2.67457
5.36086
10.1884
18.3777
30.331
45.4224
63.932
96.9747
145.186
149.533
158.903
163.062
162.031
156.976
149.534
140.783
131.298
121.963
113.025
104.622
96.5713
89.2973
82.6005
76.5144
70.8898
65.7881
61.0467
56.7794
52.8503
49.3688
46.1093
43.1302
40.1292
37.3907
34.9223
1.23605
2.55793
5.13379
9.81724
17.7801
29.5053
44.3911
62.5776
95.1307
143.074
147.88
156.864
160.035
158.578
153.217
145.535
136.457
126.968
117.861
108.996
100.678
92.8821
85.7771
79.3163
73.4562
68.0108
63.1777
58.7061
54.7548
51.0751
47.8711
44.8379
42.0771
39.1877
36.4903
34.0397
1.24094
2.52976
5.06585
9.67913
17.5027
29.0887
43.8328
61.7734
93.9466
141.747
146.694
155.469
158.217
156.473
150.906
143.045
133.745
124.321
115.229
106.424
98.1084
90.4048
83.6405
77.0536
72.1802
65.0339
61.2711
55.7167
52.9004
48.5739
46.1946
43.2153
40.8888
38.2662
35.7184
33.3474
1.24726
2.51549
5.02947
9.62651
17.4244
29.0072
43.6495
61.4359
93.3717
141.015
145.801
154.852
157.642
155.886
150.273
142.348
132.98
123.541
114.424
105.614
97.2805
89.6193
83.1939
76.1395
71.2336
64.0836
60.4895
55.0454
52.3037
48.0539
45.8037
42.5748
40.3979
37.8743
35.3774
33.0384
1.21446
2.46853
4.94416
9.47304
17.2799
28.9207
43.6007
61.3524
93.2439
141.287
145.708
155.431
158.573
157.014
151.507
143.663
134.389
124.879
115.733
106.884
98.5647
90.8187
83.8139
77.4698
72.0976
66.1985
62.1626
56.3585
53.3009
48.7524
46.1486
43.3879
40.9271
38.225
35.6291
33.2257
1.16563
2.41386
4.87448
9.37615
17.1772
28.8531
43.651
61.5393
93.6534
142.415
146.81
156.949
160.811
159.483
154.155
146.476
137.427
127.811
118.579
109.689
101.337
93.5047
86.4056
79.9172
74.0009
68.555
63.6367
59.1182
55.045
51.2798
47.9513
44.8342
41.9863
39.0351
36.3054
33.8197
1.16418
2.4188
4.88728
9.48206
17.4072
29.1748
44.0946
62.2915
94.8959
144.419
148.692
159.224
163.991
162.829
157.66
150.143
141.324
131.732
122.24
113.262
104.861
96.8599
89.6021
82.8566
76.7806
71.1142
65.9964
61.2106
56.9052
52.9125
49.3646
46.0285
42.9842
39.9158
37.1617
34.611
1.18137
2.45343
4.96721
9.65145
17.7756
29.7238
44.8458
63.335
96.411
146.101
150.218
161.128
166.477
165.455
160.389
152.968
144.241
134.822
125.293
116.136
107.594
99.5978
92.2452
85.3658
79.1466
73.2574
67.9059
62.8951
58.3989
54.2322
50.4943
46.9902
43.7887
40.7163
37.9151
35.4091
1.15776
2.44491
4.9418
9.52364
17.5301
29.3421
44.5105
63.0758
96.552
146.041
150.594
161.979
167.813
167.021
162.194
154.894
146.208
136.887
127.345
118.114
109.488
101.406
93.9244
86.9319
80.5422
74.4711
68.9499
63.8132
59.173
54.9102
51.0284
47.4722
44.1969
41.7322
40.4619
37.8486
1.06541
2.32662
4.6912
8.97292
16.4537
27.7797
42.585
61.0968
95.2585
144.898
149.945
161.677
168.139
167.599
162.898
155.656
146.987
137.65
128.093
118.875
110.263
102.096
94.4825
87.3686
80.8528
74.7098
69.1123
63.9319
59.2381
54.9482
51.0237
47.4673
44.1805
41.8233
40.5158
37.8554
113.724
95.0596
81.6124
70.2809
60.6926
53.0126
46.9466
42.0331
37.9019
34.4047
31.3331
28.8672
26.7979
25.0138
23.4101
22.1511
21.0202
20.1649
19.3191
18.6876
18.0221
17.4799
16.9837
15.8477
41.7448
124.897
181.91
207.227
212.167
210.421
208.061
206.582
209.356
116.575
96.8213
82.604
70.9702
61.2804
53.1793
46.9079
41.8279
37.6295
34.1057
31.0414
28.5653
26.5199
24.7282
23.1887
21.8693
20.7986
19.8508
19.0656
18.3622
17.7713
17.2125
16.7359
16.3012
15.1509
18.9401
20.4608
39.0437
134.758
195.831
218.004
220.006
217.22
213.68
210.53
209.436
112.359
93.1425
78.9102
67.3789
57.6397
50.0953
44.2264
39.508
35.5057
32.3302
29.7069
27.4303
25.5024
23.7879
22.2906
20.9242
19.7824
18.8088
18.0251
17.3579
16.7992
16.3684
15.9125
15.6665
15.0406
14.6385
13.3649
34.6449
134.462
192.661
217.314
221.287
217.56
213.066
209.614
206.224
108.348
89.8485
75.4121
63.7529
53.9668
46.7658
41.204
36.5666
33.1124
30.3274
27.9514
25.8709
24.0387
22.3888
20.9225
19.6267
18.5059
17.4971
16.6921
16.0647
15.5594
15.2106
14.884
14.7018
14.1534
13.623
12.4706
36.2032
123.024
187.486
217.109
220.714
216.876
212.19
208.261
204.85
107.082
88.6256
73.7604
61.6723
51.8872
44.6676
39.0466
34.6742
31.3883
28.7887
26.5464
24.5469
22.7841
21.1836
19.7585
18.4883
17.3862
16.429
15.5996
14.9599
14.5007
14.2102
13.9815
13.8712
13.3564
12.8018
11.6534
34.578
126.34
189.248
217.391
220.679
216.242
210.959
206.872
204.014
106.653
88.0713
72.8841
60.5963
50.7109
43.5296
37.8026
33.5804
30.4261
27.8887
25.7051
23.7324
21.9786
20.3932
19.0241
17.7376
16.6567
15.6347
14.8542
14.2187
13.7964
13.5676
13.4173
13.3646
12.893
12.353
11.2318
34.6115
125.914
189.645
218.321
220.999
216.248
210.384
206.017
203.858
107.236
88.4058
73.0647
60.6706
50.6113
43.3627
37.5162
33.3004
30.1537
27.6307
25.4227
23.4751
21.7115
20.1401
18.7802
17.4584
16.387
15.3803
14.6176
13.974
13.5592
13.3311
13.1907
13.1318
12.6659
12.1293
11.0123
35.9332
125.886
186.726
217.997
221.254
216.616
210.531
205.946
203.949
107.37
88.4785
73.5835
61.3926
51.4132
44.1002
38.3053
33.9334
30.6752
28.0818
25.8548
23.8795
22.1116
20.5231
19.1201
17.8583
16.7806
15.7902
14.974
14.294
13.8266
13.5497
13.3449
13.2271
12.7025
12.1487
11.0257
34.2326
123.641
184.788
216.336
221.356
217.077
211.164
206.583
203.602
106.723
88.41
73.9872
62.1443
52.3862
45.1634
39.4898
35.0329
31.6439
28.9956
26.6948
24.6963
22.9022
21.3248
19.8884
18.6204
17.5002
16.5284
15.6714
14.9992
14.4889
14.1308
13.825
13.5997
13.0072
12.4389
11.321
34.6221
119.898
186.236
218.43
222.082
217.798
212.239
208.241
205.561
106.917
89.0634
74.995
63.6053
53.945
46.7765
41.1592
36.4919
32.9882
30.1878
27.7814
25.7209
23.8962
22.2768
20.8077
19.517
18.3791
17.3679
16.5181
15.8524
15.2941
14.887
14.4802
14.1772
13.5452
12.9934
11.9217
35.1772
121.067
188.919
220.893
224.33
219.266
213.909
210.213
207.145
107.761
90.005
76.4699
65.3481
55.6946
48.4493
42.7473
38.124
34.3147
31.3706
28.8768
26.6896
24.8223
23.1791
21.7154
20.4091
19.2251
18.2312
17.4082
16.7378
16.1434
15.7021
15.1897
14.8641
14.1403
13.7102
12.6703
35.394
126.481
185.551
215.95
221.046
217.669
213.994
210.886
208.348
109.599
91.572
78.0517
66.9602
57.4291
50.0409
44.2411
39.5592
35.589
32.435
29.8179
27.5743
25.669
23.9706
22.5008
21.1103
19.9808
18.9766
18.1767
17.4556
16.8611
16.3364
15.7786
15.4508
14.207
17.4285
19.0061
33.9446
107.812
166.356
199.62
211.234
211.95
209.843
207.942
208.341
110.665
92.2696
78.5608
67.3776
57.8218
50.4805
44.7115
40.0728
36.1132
32.9197
30.3099
28.045
26.1269
24.3901
22.8811
21.4472
20.3184
19.2934
18.4908
17.7349
17.131
16.5702
16.0024
15.6638
14.4093
17.6807
19.2499
1.37584
1.67393
1.87735
1.99364
2.05233
2.07405
2.07101
2.05024
2.01792
1.97924
1.93794
1.90059
1.8644
1.83474
1.812
1.79799
1.79163
1.79499
1.80589
1.82494
1.85003
1.8802
1.91355
1.78074
0.00996719
0.00935953
0.00888464
0.00851733
0.00815157
0.00782411
0.00872633
0.017603
0.0406482
0.0671373
0.134153
0.35909
0.893248
1.46654
1.23405
1.56299
1.78677
1.91879
1.98701
2.0134
2.01271
1.99306
1.96154
1.92203
1.88262
1.84225
1.80774
1.77661
1.75391
1.73923
1.73303
1.73454
1.74432
1.76143
1.78536
1.8159
1.85164
1.87382
1.77176
2.4936
2.88807
0.00996676
0.00934921
0.00889258
0.00851082
0.00815229
0.00787713
0.0078568
0.0116529
0.0199281
0.0310434
0.075046
0.226592
0.62886
1.2139
1.10134
1.41439
1.61998
1.73692
1.79673
1.82017
1.81954
1.80308
1.77527
1.74228
1.70529
1.6721
1.63834
1.6098
1.58659
1.57032
1.56079
1.55827
1.56429
1.57818
1.60035
1.63211
1.67392
1.72363
1.75598
1.77313
1.7542
0.0099667
0.00934839
0.00888891
0.0085144
0.00815718
0.00783276
0.00770289
0.00931269
0.0136959
0.0215094
0.0559853
0.168588
0.448672
0.998471
0.998537
1.30143
1.48876
1.59027
1.63751
1.65247
1.64447
1.62352
1.59265
1.55672
1.51922
1.48624
1.45299
1.4233
1.39741
1.37759
1.36385
1.35732
1.35837
1.36791
1.38654
1.41398
1.45117
1.49112
1.52185
1.53497
1.55775
0.00989814
0.00931168
0.00888261
0.00850137
0.0081609
0.00783309
0.00759083
0.00864156
0.0116583
0.0191134
0.0504409
0.144409
0.371582
0.962422
0.978684
1.2747
1.4502
1.53769
1.57389
1.57642
1.5581
1.52593
1.48636
1.44636
1.407
1.37226
1.33744
1.30603
1.27728
1.25319
1.2341
1.22154
1.21609
1.21912
1.23138
1.25186
1.28021
1.31002
1.33274
1.34312
1.36354
0.00989707
0.00933918
0.00890397
0.00849836
0.0081641
0.00788173
0.007615
0.00859619
0.010949
0.0183808
0.0515817
0.153873
0.396402
0.972252
0.97814
1.26938
1.43635
1.51519
1.54218
1.53674
1.51098
1.47331
1.43059
1.38844
1.34765
1.31119
1.27438
1.24064
1.20964
1.18184
1.15903
1.142
1.13325
1.1329
1.14239
1.16071
1.18683
1.21493
1.23856
1.25357
1.26737
0.00989692
0.00933908
0.00890564
0.0084885
0.00816635
0.00788111
0.00761002
0.00827959
0.0102774
0.0186282
0.0537449
0.16124
0.418123
1.02201
1.00391
1.29597
1.4608
1.53525
1.55708
1.54647
1.51484
1.47253
1.42605
1.38026
1.33866
1.2983
1.26014
1.22429
1.19128
1.16206
1.13799
1.11965
1.10881
1.10615
1.11411
1.13033
1.15443
1.18065
1.20346
1.21391
1.23334
0.00989819
0.00930583
0.00888411
0.00847075
0.00817154
0.00784386
0.0075755
0.00790131
0.0100295
0.0181365
0.0530304
0.159231
0.417376
1.02319
0.993608
1.28705
1.45867
1.54087
1.56954
1.56429
1.53794
1.49865
1.45347
1.40906
1.36604
1.32803
1.28993
1.25537
1.22387
1.1961
1.17266
1.15455
1.14349
1.14005
1.14667
1.16122
1.18279
1.2061
1.22539
1.23416
1.24554
0.00996787
0.00934471
0.00885066
0.00848674
0.00815913
0.00788816
0.00758429
0.00798399
0.00966969
0.0166866
0.0488637
0.149435
0.384707
0.932717
0.949878
1.24561
1.42501
1.51816
1.55702
1.56547
1.55004
1.52107
1.4829
1.44297
1.4052
1.36885
1.33558
1.30473
1.27663
1.25319
1.23439
1.22143
1.21473
1.21555
1.22384
1.23849
1.25897
1.28024
1.29767
1.30577
1.31723
0.00989718
0.00932523
0.00890778
0.00848153
0.00816805
0.00787556
0.0075476
0.00815102
0.00996741
0.0164441
0.0432066
0.126816
0.330512
0.88469
0.940423
1.2398
1.42964
1.5364
1.58861
1.60744
1.60133
1.58151
1.55084
1.51439
1.47805
1.44301
1.41181
1.38219
1.35646
1.3361
1.32123
1.31154
1.30913
1.31404
1.32603
1.34362
1.36603
1.38946
1.41026
1.4237
1.43884
0.00989841
0.00931488
0.00888251
0.00848815
0.00814466
0.00788023
0.00755469
0.00820401
0.0106686
0.0175806
0.0461402
0.133334
0.341833
0.907085
0.962204
1.2696
1.47116
1.58811
1.64959
1.67249
1.67516
1.66072
1.63504
1.60407
1.56927
1.53809
1.50631
1.47933
1.45695
1.44052
1.43011
1.42586
1.42857
1.43775
1.45358
1.47507
1.50053
1.52841
1.55131
1.5789
1.59012
0.00996686
0.00934993
0.00888326
0.00849746
0.00816779
0.00788937
0.00761541
0.00930655
0.0138416
0.0207956
0.0544948
0.164407
0.427019
0.982958
1.02418
1.33782
1.54639
1.66924
1.73667
1.76622
1.77134
1.75939
1.73637
1.70686
1.67643
1.64497
1.61781
1.59261
1.57383
1.56019
1.55174
1.55135
1.5581
1.57047
1.59002
1.61356
1.64208
1.67343
1.55147
2.16671
2.48022
0.00989977
0.00932101
0.00889964
0.00846634
0.00816785
0.00788348
0.00795955
0.0119213
0.020381
0.0271407
0.058181
0.172625
0.473287
1.04542
1.04841
1.35523
1.56234
1.68562
1.75536
1.78815
1.79718
1.78935
1.77055
1.74434
1.71748
1.68919
1.66549
1.64281
1.62602
1.61397
1.60903
1.60932
1.61736
1.63055
1.65111
1.67568
1.70611
1.73823
1.5904
2.24185
2.59657
0.00582833
0.00605792
0.00642746
0.00689787
0.0074453
0.00805287
0.00870326
0.0093831
0.0100799
0.0107893
0.0115105
0.0122521
0.0130162
0.0138224
0.014688
0.0156386
0.0166957
0.0178934
0.0192486
0.0208026
0.0225658
0.0245497
0.0266575
0.0260757
0.00995169
0.00952258
0.00910492
0.00871028
0.00834104
0.00799634
0.00767355
0.00737031
0.00708607
0.00681931
0.0065684
0.006331
0.00610462
0.0058618
0.00576005
0.00594578
0.00627457
0.00670555
0.00721828
0.00779024
0.00840609
0.00904838
0.00970882
0.0103763
0.0110582
0.0117503
0.012468
0.0132165
0.0140235
0.0149042
0.0158906
0.0169987
0.0182626
0.0196986
0.0213458
0.0232356
0.0254417
0.0275639
0.0263751
0.0408538
0.0508197
0.0099483
0.00951282
0.00909858
0.00870553
0.00833656
0.0079912
0.00766722
0.00736377
0.00707932
0.00681172
0.00655982
0.0063227
0.00609842
0.0058901
0.00572218
0.0058611
0.00611481
0.00645231
0.00685587
0.00731125
0.00780329
0.008322
0.00885549
0.00940128
0.00995116
0.0105141
0.011085
0.011682
0.0123127
0.0130029
0.0137642
0.0146269
0.0156082
0.0167432
0.0180683
0.0196593
0.0216286
0.0240254
0.026254
0.0283592
0.0299221
0.00994827
0.00951178
0.00909786
0.00870551
0.00833689
0.00799165
0.0076674
0.00736368
0.007079
0.00681121
0.00655888
0.0063213
0.0060972
0.00588212
0.00569749
0.00579698
0.00599554
0.00626586
0.00658674
0.00694731
0.00733327
0.00773738
0.00814787
0.00855856
0.00896664
0.00937964
0.00979542
0.0102238
0.010671
0.0111535
0.011683
0.012283
0.0129728
0.0137837
0.0147478
0.0159156
0.017341
0.0190278
0.0206887
0.0223454
0.0239669
0.00994863
0.00951199
0.009098
0.00870581
0.00833736
0.00799202
0.00766771
0.00736397
0.00707924
0.00681156
0.00655928
0.00632099
0.00609694
0.00588094
0.00569136
0.00578432
0.00596995
0.00621906
0.00650898
0.00682672
0.0071598
0.00749712
0.00782874
0.00815559
0.00847667
0.00879943
0.00912081
0.00945027
0.00978929
0.01015
0.0105392
0.0109757
0.0114733
0.0120597
0.0127552
0.0135842
0.0145621
0.0156639
0.0168206
0.018071
0.0193319
0.00994839
0.00951172
0.00909782
0.00870558
0.00833709
0.00799179
0.00766752
0.00736355
0.00707885
0.00681113
0.00655895
0.00632097
0.00609579
0.00588125
0.00569122
0.00578372
0.00596483
0.0062045
0.0064787
0.00677437
0.00707855
0.00738119
0.00767527
0.00796206
0.00824174
0.0085204
0.00879497
0.00907263
0.00935519
0.00965032
0.00996433
0.010313
0.0107114
0.0111822
0.0117432
0.0124101
0.013193
0.014079
0.0150719
0.016167
0.0172888
0.00994855
0.00951187
0.00909791
0.00870566
0.00833709
0.00799179
0.00766739
0.00736318
0.00707864
0.00681112
0.00655881
0.00632076
0.00609555
0.00588085
0.00569919
0.00580148
0.00599302
0.00624066
0.00651942
0.00681598
0.0071158
0.00741005
0.0076924
0.00796465
0.00822962
0.00848976
0.00874503
0.00900133
0.0092597
0.00952947
0.00981677
0.0101362
0.0105015
0.0109326
0.0114455
0.0120522
0.0127652
0.0135831
0.0145083
0.0155428
0.0165967
0.00994832
0.00951157
0.00909766
0.00870559
0.00833729
0.00799222
0.00766768
0.00736343
0.00707906
0.00681167
0.00655917
0.00632087
0.00609604
0.00587993
0.00569558
0.00579413
0.00598455
0.00623526
0.00652229
0.00683067
0.00714686
0.00746016
0.00776286
0.00805656
0.00834149
0.00862457
0.00890313
0.0091851
0.00947258
0.00977398
0.0100932
0.0104447
0.0108406
0.0113025
0.0118454
0.0124822
0.013224
0.0140658
0.0150087
0.0160437
0.0171017
0.0099488
0.00951215
0.00909818
0.00870597
0.00833741
0.00799205
0.00766755
0.00736343
0.00707878
0.00681097
0.00655857
0.00632073
0.00609526
0.00588011
0.00568216
0.00576501
0.0059387
0.00617727
0.00645804
0.00676917
0.0070968
0.00743149
0.00776196
0.00808765
0.00840927
0.00873092
0.00905377
0.0093851
0.00972674
0.0100905
0.0104817
0.010917
0.0114073
0.0119747
0.012631
0.013389
0.0142579
0.0152384
0.0163337
0.017522
0.0187174
0.00994878
0.00951228
0.00909836
0.00870612
0.00833755
0.00799204
0.00766754
0.00736378
0.00707905
0.00681116
0.00655842
0.00632012
0.00609601
0.00588004
0.00567842
0.00575811
0.00593285
0.00618023
0.00647741
0.00681451
0.00717556
0.00755317
0.0079351
0.00831486
0.00869161
0.00906984
0.00945254
0.00984583
0.0102558
0.0106961
0.0111763
0.0117151
0.0123256
0.0130287
0.0138389
0.0147715
0.0158385
0.0170516
0.0184269
0.0199384
0.0214105
0.00994871
0.00951241
0.00909846
0.008706
0.0083373
0.00799169
0.00766709
0.00736338
0.00707874
0.00681057
0.00655784
0.00631962
0.00609529
0.00587926
0.00568566
0.00577455
0.00596554
0.00623487
0.0065618
0.00693533
0.00734032
0.00776856
0.00820884
0.0086575
0.00910745
0.00956625
0.0100294
0.0105113
0.0110185
0.01157
0.0121764
0.01286
0.0136351
0.0145251
0.0155459
0.0167203
0.0180563
0.0195706
0.0212225
0.0231892
0.0249762
0.0099486
0.00951383
0.00909942
0.00870591
0.00833661
0.0079909
0.00766679
0.00736343
0.00707888
0.00681068
0.00655864
0.00632052
0.00609574
0.00587952
0.00570129
0.00581143
0.00603431
0.00633935
0.00671085
0.00713409
0.00759693
0.00808679
0.00859673
0.00911984
0.00965678
0.0102058
0.0107745
0.0113682
0.0120043
0.0126958
0.0134642
0.0143232
0.0153004
0.0164095
0.0176823
0.0191286
0.0207838
0.0226525
0.0214526
0.0326457
0.0405136
0.00995019
0.0095217
0.00910165
0.00870628
0.00833635
0.00799061
0.00766686
0.00736345
0.00707862
0.00681065
0.00655862
0.00632048
0.00609535
0.00588131
0.00569763
0.00580804
0.006032
0.00633949
0.00671728
0.00715125
0.00763145
0.00814443
0.00868511
0.00924363
0.00982358
0.0104205
0.0110459
0.0117003
0.0124049
0.0131689
0.0140188
0.0149658
0.0160434
0.0172576
0.0186547
0.0202422
0.0220596
0.0241175
0.0223593
0.0344477
0.0428072
0.00559755
0.00539879
0.0052297
0.00499089
0.0048431
0.00470111
0.00456559
0.00443424
0.00430798
0.00418453
0.00406476
0.00394708
0.00383309
0.00372115
0.00361262
0.00350603
0.00340302
0.00330229
0.00320537
0.00311101
0.00302082
0.00293438
0.00285654
0.00278536
0.00994991
0.00951984
0.00910229
0.00870761
0.00833726
0.00799036
0.00766534
0.0073603
0.00707364
0.00680396
0.00654999
0.00631038
0.00608226
0.00585501
0.00561657
0.005377
0.0052594
0.00498585
0.00483846
0.00469805
0.00456258
0.00443271
0.00430629
0.00418425
0.00406444
0.0039479
0.00383377
0.00372288
0.00361417
0.00350847
0.00340519
0.0033052
0.00320794
0.00311415
0.00302347
0.00293623
0.00285187
0.00276985
0.00270489
0.00267086
0.00260084
0.00994804
0.00951138
0.00909795
0.00870578
0.00833609
0.00798917
0.00766388
0.00735859
0.00707171
0.00680185
0.0065478
0.00630827
0.00608221
0.00585374
0.00561479
0.00537765
0.00525876
0.0050215
0.00483618
0.00469527
0.00455975
0.00442943
0.00430289
0.0041804
0.00406034
0.00394335
0.00382887
0.00371757
0.00360852
0.00350251
0.00339886
0.0032986
0.0032009
0.0031068
0.00301535
0.00292764
0.00284214
0.00275977
0.00268082
0.00260603
0.00254147
0.00994802
0.00951007
0.00909658
0.00870589
0.00833698
0.00799043
0.00766531
0.00736018
0.00707348
0.00680374
0.00654982
0.00631055
0.00608497
0.00584667
0.00559863
0.00539918
0.00523634
0.00505445
0.00483783
0.00469678
0.00456108
0.00443118
0.00430487
0.00418288
0.004063
0.00394642
0.00383207
0.00372099
0.00361195
0.00350604
0.00340226
0.00330191
0.00320387
0.00310939
0.00301724
0.00292862
0.00284204
0.00275897
0.00267883
0.00260363
0.00253904
0.00994837
0.0095103
0.00909674
0.00870632
0.00833765
0.00799124
0.00766626
0.00736132
0.00707482
0.00680517
0.00655111
0.00631161
0.00608567
0.00584514
0.00559494
0.00540422
0.0052298
0.00506352
0.00483787
0.00469695
0.00456137
0.00443136
0.00430512
0.00418294
0.00406292
0.00394611
0.00383161
0.0037203
0.00361103
0.00350484
0.00340083
0.00330017
0.00320189
0.00310705
0.00301454
0.00292555
0.00283872
0.00275565
0.00267515
0.00259918
0.00253385
0.0099485
0.00951043
0.00909684
0.00870643
0.00833776
0.00799135
0.0076664
0.0073615
0.00707507
0.00680548
0.00655145
0.00631189
0.00608603
0.00584384
0.00559246
0.00540648
0.00522775
0.00506627
0.00483692
0.00469667
0.00456169
0.00443218
0.00430613
0.00418406
0.00406409
0.00394733
0.00383289
0.00372162
0.00361243
0.00350629
0.00340236
0.00330172
0.00320343
0.00310854
0.00301594
0.0029268
0.00283988
0.00275678
0.00267603
0.00259992
0.00253415
0.00994852
0.00951046
0.00909688
0.00870651
0.00833789
0.00799151
0.00766658
0.00736167
0.00707526
0.00680572
0.0065517
0.00631204
0.0060858
0.00584502
0.00559585
0.00540113
0.00523448
0.00505762
0.00483688
0.00469785
0.00456314
0.00443357
0.00430737
0.00418508
0.00406491
0.00394804
0.00383355
0.00372222
0.00361299
0.00350681
0.00340283
0.00330216
0.00320377
0.00310883
0.00301611
0.00292693
0.00283991
0.00275676
0.00267591
0.00259939
0.00253314
0.00994843
0.00951035
0.00909675
0.00870633
0.00833766
0.00799125
0.00766631
0.00736141
0.00707501
0.00680545
0.0065514
0.00631175
0.00608554
0.00584519
0.00559577
0.00540156
0.00523266
0.00505864
0.00483851
0.00469777
0.00456216
0.00443223
0.00430609
0.00418401
0.00406412
0.00394745
0.0038331
0.00372188
0.0036127
0.0035066
0.00340264
0.00330202
0.0032037
0.00310882
0.00301625
0.00292721
0.00284032
0.00275724
0.00267649
0.00259983
0.00253406
0.00994844
0.00951041
0.00909689
0.00870655
0.00833794
0.00799152
0.00766651
0.00736154
0.00707511
0.00680566
0.00655186
0.00631261
0.00608693
0.00584096
0.00558724
0.005411
0.00522373
0.00506732
0.00483635
0.00469758
0.0045625
0.0044325
0.00430601
0.00418353
0.00406336