/*--------------------------------*- C++ -*----------------------------------*\
  =========                 |
  \\      /  F ield         | OpenFOAM: The Open Source CFD Toolbox
   \\    /   O peration     | Website:  https://openfoam.org
    \\  /    A nd           | Version:  7
     \\/     M anipulation  |
\*---------------------------------------------------------------------------*/
FoamFile
{
    version     2.0;
    format      ascii;
    class       volScalarField;
    location    "800";
    object      k;
}
// * * * * * * * * * * * * * * * * * * * * * * * * * * * * * * * * * * * * * //

dimensions      [0 2 -2 0 0 0 0];

internalField   nonuniform List<scalar> 
120313
(
1.09162
1.25223
1.34929
1.42314
1.46029
1.4762
1.4813
1.47635
1.46038
1.43259
1.38741
1.34355
1.29442
1.23698
1.18451
1.14327
1.10366
1.06592
1.02543
0.987366
0.946667
0.905258
0.858404
0.758844
1.17268
1.41036
1.53053
1.62957
1.67939
1.70404
1.71629
1.71
1.68154
1.65407
1.61491
1.56598
1.50762
1.44991
1.39477
1.34413
1.29626
1.24932
1.2006
1.15381
1.10497
1.04805
0.978116
0.832181
1.1566
1.38978
1.51201
1.61173
1.66588
1.69363
1.70835
1.70879
1.68541
1.65678
1.61677
1.56479
1.50628
1.44944
1.39202
1.34179
1.29367
1.2472
1.19885
1.15263
1.1036
1.04511
0.967216
0.825506
1.14844
1.38028
1.5031
1.60456
1.66031
1.6903
1.70763
1.71109
1.69043
1.66082
1.6194
1.56619
1.50741
1.45097
1.39259
1.34188
1.29333
1.24685
1.19897
1.15318
1.10438
1.04578
0.966326
0.825912
1.14598
1.37748
1.50049
1.60233
1.65837
1.68889
1.70692
1.71101
1.69091
1.66169
1.61986
1.5666
1.50771
1.45141
1.39262
1.34178
1.29347
1.24707
1.19929
1.15363
1.10496
1.04654
0.966777
0.826971
1.14938
1.38221
1.50499
1.6063
1.66158
1.69103
1.70763
1.70927
1.68897
1.66065
1.62019
1.56714
1.50853
1.45233
1.39426
1.34399
1.296
1.24924
1.20082
1.15462
1.10599
1.04813
0.969141
0.828083
1.16324
1.40143
1.52328
1.62568
1.67838
1.7057
1.71973
1.71512
1.6923
1.66588
1.62617
1.57332
1.51506
1.45865
1.40213
1.35213
1.30433
1.25708
1.20788
1.16104
1.11225
1.05579
0.984134
0.837306
1.09401
1.25931
1.36119
1.44391
1.4839
1.50351
1.51128
1.50649
1.49121
1.46361
1.41892
1.37267
1.32023
1.2624
1.21045
1.17123
1.13026
1.09068
1.0491
1.00987
0.968898
0.927226
0.875375
0.771686
0.156457
0.31109
0.475436
0.657301
0.86134
1.09268
1.355
1.64229
2.01614
2.27077
2.59962
2.8709
3.05831
3.16939
3.22744
3.24891
3.2458
3.22472
3.18578
3.13778
3.06728
2.9827
2.88041
2.76893
2.65842
2.5437
2.43043
2.318
2.21101
2.10969
2.00934
1.91834
1.8278
1.74486
1.67622
1.62533
0.156941
0.308955
0.47179
0.651038
0.8512
1.07732
1.33108
1.59104
1.91787
2.77346
3.34325
3.7207
3.96555
4.09537
4.15051
4.1621
4.14262
4.09769
4.03046
3.94008
3.84571
3.71848
3.57959
3.43323
3.28735
3.13854
2.99382
2.84977
2.71624
2.58339
2.4579
2.35184
2.14016
2.03055
1.71859
1.60689
0.148711
0.300703
0.461536
0.637325
0.832283
1.05092
1.2933
1.53024
1.80615
2.65438
3.36597
3.79987
4.07618
4.21574
4.26949
4.27945
4.25458
4.19654
4.14152
4.04734
3.93635
3.79886
3.65342
3.50156
3.35221
3.19966
3.05282
2.907
2.77234
2.63803
2.50796
2.39816
2.11675
1.98355
1.70242
1.59564
0.143089
0.295517
0.454526
0.627098
0.817132
1.02845
1.25962
1.47847
1.73169
2.58328
3.34113
3.79785
4.07824
4.22319
4.27887
4.28931
4.26974
4.22117
4.16547
4.06297
3.94355
3.80219
3.65296
3.49848
3.34911
3.19628
3.05021
2.90642
2.77357
2.64203
2.51367
2.39954
2.10182
1.96275
1.68607
1.58413
0.147606
0.296904
0.45417
0.624435
0.811225
1.01786
1.24214
1.4523
1.69976
2.55494
3.32188
3.78533
4.06455
4.21146
4.26911
4.28103
4.26456
4.22366
4.16132
4.05636
3.93357
3.78971
3.63891
3.48263
3.33334
3.18094
3.03714
2.89615
2.76643
2.63814
2.51335
2.39853
2.10054
1.95897
1.68452
1.58399
0.150069
0.29693
0.453115
0.62235
0.807822
1.0127
1.23484
1.44336
1.69176
2.54874
3.31426
3.77794
4.05707
4.20387
4.26182
4.27439
4.2588
4.21953
4.15591
4.05097
3.92758
3.7831
3.63216
3.4753
3.32676
3.17477
3.03159
2.89114
2.76219
2.6348
2.51134
2.39687
2.10216
1.95985
1.68639
1.5862
0.146146
0.292662
0.449072
0.619252
0.806283
1.01337
1.23837
1.4503
1.705
2.56817
3.31949
3.77827
4.05892
4.20361
4.26018
4.27239
4.2539
4.21186
4.15329
4.05063
3.9291
3.7863
3.63714
3.4818
3.33352
3.18059
3.03548
2.89298
2.76252
2.6337
2.50886
2.39523
2.10218
1.96952
1.69227
1.58942
0.138271
0.286138
0.44351
0.616099
0.807235
1.02058
1.25481
1.47926
1.75529
2.63694
3.34129
3.77904
4.06012
4.19784
4.25231
4.26458
4.24044
4.19311
4.13782
4.0409
3.92368
3.78557
3.64021
3.48748
3.33954
3.18688
3.04072
2.89589
2.76265
2.6302
2.50269
2.39136
2.11605
1.99396
1.7075
1.59929
0.137347
0.284098
0.442417
0.618383
0.815909
1.0399
1.2913
1.54524
1.8748
2.78271
3.35644
3.74226
4.00148
4.12526
4.17776
4.18941
4.16891
4.1272
4.06141
3.97331
3.86706
3.73588
3.5953
3.44726
3.30096
3.15118
3.00595
2.8614
2.72755
2.59516
2.47004
2.3598
2.1518
2.05213
1.74845
1.62741
0.137624
0.282253
0.440993
0.619109
0.820807
1.05213
1.31709
1.59893
1.99832
2.88784
3.28105
3.62198
3.85261
3.97265
4.02776
4.04256
4.02742
3.98851
3.93054
3.86123
3.77073
3.65122
3.51916
3.37783
3.23757
3.0945
2.95278
2.81367
2.68122
2.55519
2.43328
2.32738
2.1905
2.11409
1.79273
1.65508
0.134366
0.279385
0.440391
0.621813
0.827502
1.06309
1.3325
1.62122
1.99929
2.24746
2.55571
2.82692
3.01766
3.1301
3.19224
3.21774
3.21911
3.20017
3.16569
3.12043
3.06147
2.97295
2.86666
2.756
2.64177
2.52729
2.41208
2.29901
2.19046
2.08759
1.98942
1.89741
1.80699
1.72935
1.67649
1.6279
0.118692
0.271319
0.436238
0.622625
0.834843
1.07862
1.35813
1.67181
2.06354
2.31196
2.6326
2.91183
3.10696
3.22495
3.29012
3.31676
3.31899
3.30007
3.26945
3.22599
3.1672
3.07869
2.96854
2.85285
2.73331
2.61234
2.49183
2.37423
2.26067
2.15235
2.04892
1.95162
1.86017
1.78076
1.7112
1.6522
3.85263
4.35328
4.84998
5.14489
5.30303
5.35217
5.33827
5.28044
5.19761
5.10323
4.98541
4.83748
4.67453
4.49208
4.3004
4.10972
3.91908
3.73061
3.54865
3.37067
3.20532
3.04663
2.89644
2.78056
0.206044
0.376145
0.577886
0.813372
1.0899
1.41786
1.80749
2.2679
2.88675
3.78369
4.27805
4.78171
5.05965
5.20874
5.25766
5.23928
5.18452
5.10496
5.00982
4.90222
4.78087
4.62555
4.43813
4.25046
4.06056
3.87351
3.68632
3.50807
3.33433
3.17202
3.01725
2.87192
2.73967
2.63067
2.47134
2.35171
0.201754
0.369404
0.570893
0.805173
1.08066
1.4087
1.79989
2.26058
2.88129
3.75701
4.24358
4.76291
5.03201
5.17474
5.21495
5.19014
5.13225
5.05245
4.96007
4.85761
4.7288
4.56376
4.38302
4.19722
4.00557
3.81858
3.63393
3.45871
3.29056
3.13268
2.98208
2.84522
2.70609
2.57862
2.47588
2.35514
0.192975
0.358929
0.557996
0.788848
1.06013
1.38375
1.77012
2.22355
2.82289
3.69503
4.20708
4.71985
4.99886
5.14866
5.18652
5.16635
5.1127
5.04412
4.96471
4.84509
4.69622
4.52716
4.34182
4.15391
3.96484
3.77889
3.59794
3.42491
3.26086
3.10601
2.95897
2.82857
2.68593
2.54976
2.44664
2.3294
0.185874
0.351216
0.547354
0.774184
1.04005
1.35696
1.73477
2.17541
2.75673
3.63577
4.16427
4.67067
4.95027
5.10697
5.14868
5.13228
5.08705
5.02965
4.94476
4.81138
4.65636
4.48224
4.29534
4.10594
3.9186
3.73406
3.55736
3.38816
3.23037
3.08037
2.93839
2.8121
2.67107
2.53275
2.43101
2.31185
0.187777
0.350022
0.543394
0.7672
1.02925
1.34125
1.7124
2.14358
2.71615
3.60213
4.13419
4.63504
4.91471
5.07479
5.11865
5.1034
5.06249
5.01417
4.91503
4.78106
4.62314
4.44513
4.25692
4.06606
3.87828
3.69586
3.52339
3.35929
3.20711
3.06293
2.92659
2.80435
2.66647
2.52867
2.42809
2.30806
0.189151
0.348734
0.540403
0.762638
1.02312
1.33328
1.70193
2.12963
2.70142
3.5917
4.1209
4.62317
4.90302
5.0629
5.10679
5.09196
5.05199
5.00441
4.90349
4.7691
4.61075
4.43159
4.24316
4.0516
3.86488
3.68356
3.51211
3.34889
3.19789
3.05515
2.9206
2.79954
2.66338
2.52651
2.42655
2.306
0.184963
0.343777
0.53506
0.757293
1.01847
1.33025
1.70151
2.13265
2.71122
3.60506
4.12835
4.63779
4.91738
5.07368
5.11504
5.09974
5.05752
5.00526
4.91425
4.78068
4.62462
4.44715
4.26093
4.07095
3.88484
3.70078
3.52572
3.35907
3.20548
3.06017
2.92307
2.7995
2.6616
2.52511
2.4249
2.30377
0.178336
0.338073
0.530037
0.753859
1.01803
1.33481
1.7138
2.15614
2.75182
3.64688
4.16007
4.67538
4.95365
5.10199
5.14133
5.12451
5.0765
5.01535
4.9367
4.80679
4.65522
4.4842
4.30144
4.11266
3.92628
3.74044
3.56246
3.391
3.23099
3.07865
2.93473
2.80587
2.66641
2.53159
2.43113
2.3099
0.177566
0.336965
0.530017
0.756706
1.02611
1.35098
1.74205
2.20248
2.82614
3.71673
4.20907
4.72673
4.99638
5.13525
5.17518
5.15438
5.10087
5.02913
4.94641
4.8381
4.6934
4.52836
4.3453
4.1578
3.96835
3.78144
3.59918
3.42429
3.25826
3.10183
2.95319
2.82016
2.68239
2.551
2.45093
2.33002
0.179201
0.337398
0.531898
0.761662
1.03607
1.3678
1.76827
2.2424
2.8833
3.76769
4.24166
4.75469
5.01679
5.15505
5.19913
5.1769
5.12085
5.04344
4.95278
4.85449
4.73284
4.56687
4.38686
4.20244
4.01079
3.82206
3.63566
3.45889
3.28894
3.13061
2.9792
2.84195
2.70473
2.57857
2.47796
2.3539
0.176395
0.335046
0.530909
0.763314
1.0409
1.37575
1.77869
2.25361
2.89026
3.79074
4.27823
4.79438
5.07024
5.21856
5.27201
5.25634
5.20381
5.12781
5.03497
4.9339
4.81324
4.64143
4.4557
4.26679
4.06811
3.87406
3.68122
3.49908
3.32311
3.15965
3.00506
2.86173
2.72265
2.61329
2.45505
2.33569
0.165929
0.328255
0.524668
0.758582
1.03749
1.37316
1.7764
2.25055
2.88878
3.79818
4.30754
4.83591
5.12214
5.27206
5.32294
5.31254
5.26481
5.19313
5.10414
5.0024
4.8629
4.68983
4.4982
4.30158
4.09657
3.89722
3.69975
3.51377
3.33415
3.16828
3.01205
2.86744
2.7285
2.61995
2.46091
2.33678
4.26838
4.61715
5.14127
5.32507
5.37382
5.32095
5.20181
5.03993
4.85528
4.66181
4.47707
4.30264
4.10415
3.94276
3.74364
3.59729
3.43518
3.27362
3.14973
2.98228
2.88224
2.72977
2.63587
2.54324
0.195052
0.334561
0.525952
0.794488
1.14819
1.57632
2.06132
2.61476
3.37372
4.26774
4.58288
5.15496
5.35975
5.4125
5.36326
5.24984
5.09076
4.9075
4.71286
4.51945
4.33496
4.15742
3.97497
3.81515
3.62348
3.49122
3.29035
3.17738
3.00244
2.90361
2.75116
2.65623
2.53208
2.46629
2.45356
2.38388
0.190559
0.327103
0.519558
0.791112
1.15138
1.58768
2.0821
2.64718
3.42264
4.27427
4.54951
5.10577
5.292
5.33801
5.28685
5.17087
5.01132
4.82874
4.63773
4.4473
4.26513
4.09398
3.89922
3.75213
3.53615
3.40717
3.21442
3.10503
2.93839
2.84753
2.70237
2.61626
2.49709
2.40335
2.30545
2.21491
0.18288
0.316181
0.504456
0.771432
1.12855
1.56324
2.05803
2.6262
3.39575
4.19946
4.53295
4.9861
5.15314
5.18964
5.13244
5.0095
4.84796
4.67046
4.489
4.31721
4.12346
3.96101
3.75392
3.60324
3.4243
3.28446
3.12302
3.00221
2.85548
2.76021
2.63048
2.56056
2.4423
2.36035
2.24526
2.15392
0.176091
0.307522
0.490741
0.751816
1.10153
1.52871
2.01654
2.57685
3.33804
4.12202
4.49138
4.88069
5.03045
5.05534
4.98639
4.85623
4.69118
4.51716
4.34148
4.17328
3.97669
3.80039
3.6194
3.45657
3.30033
3.15539
3.01987
2.89631
2.78278
2.68238
2.5726
2.50509
2.40174
2.32859
2.19771
2.10159
0.176583
0.304634
0.484724
0.741921
1.08716
1.50961
1.99228
2.54541
3.29957
4.07735
4.45846
4.82088
4.96157
4.97607
4.89944
4.76219
4.58986
4.42635
4.24984
4.07572
3.87941
3.69257
3.51619
3.3511
3.19749
3.06043
2.94084
2.82827
2.73136
2.64213
2.5476
2.48619
2.39011
2.31921
2.18585
2.0866
0.17748
0.30291
0.481015
0.736522
1.08065
1.50213
1.98225
2.53175
3.28231
4.06367
4.4372
4.8081
4.94831
4.96026
4.88072
4.7403
4.56637
4.4025
4.2229
4.04684
3.84891
3.66025
3.48414
3.31584
3.16837
3.03525
2.91787
2.8071
2.71219
2.6263
2.53634
2.47677
2.38361
2.31395
2.17824
2.07743
0.17422
0.298876
0.475841
0.729866
1.07433
1.49744
1.97912
2.52961
3.28207
4.08407
4.44021
4.84475
4.99083
5.00863
4.93205
4.79393
4.62064
4.4496
4.27182
4.09817
3.90387
3.71414
3.53986
3.37536
3.22355
3.07912
2.94942
2.83193
2.73323
2.64267
2.54502
2.48091
2.38208
2.3108
2.1707
2.0703
0.169234
0.294656
0.471934
0.726297
1.07185
1.49751
1.98366
2.54021
3.30189
4.13609
4.4752
4.9286
5.08175
5.10767
5.0377
4.90501
4.73664
4.55179
4.3754
4.20608
4.00568
3.83668
3.65723
3.49123
3.33372
3.18438
3.04414
2.91662
2.79438
2.69163
2.5738
2.50303
2.39392
2.31913
2.1798
2.08077
0.169232
0.294909
0.472957
0.730906
1.08133
1.51212
2.00484
2.57218
3.34823
4.21471
4.53107
5.04868
5.20827
5.23614
5.17395
5.0462
4.88061
4.69784
4.50855
4.3321
4.14272
3.98547
3.76807
3.62377
3.43415
3.30127
3.12856
3.01229
2.85758
2.76334
2.62909
2.55601
2.4318
2.3516
2.21888
2.12314
0.171527
0.297034
0.477225
0.73913
1.09646
1.53404
2.03387
2.60944
3.39327
4.27269
4.56542
5.14459
5.30798
5.33842
5.27813
5.15633
4.99338
4.80959
4.61943
4.43101
4.25262
4.08535
3.89122
3.74675
3.52874
3.39817
3.20289
3.09157
2.92297
2.83067
2.6859
2.60255
2.47248
2.3858
2.27108
2.1788
0.169335
0.295889
0.476708
0.738592
1.09576
1.53369
2.03571
2.6104
3.39086
4.27264
4.571
5.1728
5.35361
5.39247
5.33705
5.21897
5.05755
4.87369
4.68195
4.49303
4.31583
4.14762
3.94922
3.80324
3.57749
3.44547
3.24625
3.13294
2.959
2.86526
2.71239
2.62599
2.48928
2.42397
2.40396
2.33642
0.160573
0.289724
0.467684
0.723045
1.07111
1.50277
2.00043
2.57128
3.35158
4.23501
4.53826
5.14855
5.34747
5.39449
5.34444
5.22853
5.06857
4.88552
4.69407
4.51216
4.32894
4.16434
3.9475
3.79671
3.57726
3.44158
3.2468
3.12964
2.95595
2.86073
2.70511
2.62117
2.48132
2.42338
2.40502
2.34293
2.24925
2.06322
1.9449
1.81427
1.71032
1.62531
1.54847
1.47669
1.41006
1.34646
1.28856
1.24009
1.19859
1.16542
1.13494
1.11445
1.09664
1.08806
1.07706
1.07389
1.06551
1.06555
1.06226
1.04029
0.814291
1.63202
2.2466
2.6572
2.91918
3.13463
3.35458
3.55507
3.70495
2.28389
2.09011
1.96397
1.82777
1.71429
1.6215
1.5413
1.46633
1.39863
1.33446
1.27743
1.22578
1.18506
1.15018
1.12319
1.10104
1.08526
1.07214
1.06257
1.05671
1.05177
1.05126
1.05304
1.05
1.02774
1.2667
1.38038
0.796042
1.70994
2.38108
2.75279
2.9847
3.19748
3.4207
3.59111
3.71551
2.21175
2.01524
1.87567
1.7345
1.62645
1.53889
1.46405
1.39395
1.33027
1.27155
1.21679
1.16651
1.12631
1.092
1.06494
1.0409
1.02395
1.00978
1.00211
0.99634
0.995817
0.998028
1.00414
1.01291
1.01142
1.00267
0.969356
0.744859
1.68698
2.33738
2.73171
2.96934
3.16299
3.37307
3.54876
3.64596
2.13511
1.94735
1.78543
1.64028
1.52959
1.44534
1.36806
1.30191
1.23904
1.18023
1.12998
1.08775
1.04768
1.01257
0.982559
0.958983
0.940991
0.929166
0.921577
0.920793
0.922416
0.92847
0.939389
0.950752
0.951605
0.936613
0.902649
0.740853
1.59301
2.28609
2.71225
2.94776
3.13602
3.33523
3.50007
3.60267
2.10543
1.91777
1.73953
1.58279
1.47048
1.37664
1.30108
1.22713
1.16645
1.11776
1.07267
1.0318
0.993926
0.957689
0.924583
0.896518
0.876295
0.861761
0.854217
0.853995
0.859557
0.868977
0.885548
0.900355
0.901201
0.884438
0.847199
0.728204
1.60839
2.30213
2.71521
2.94416
3.13347
3.32422
3.48175
3.58931
2.09585
1.90483
1.71474
1.5531
1.43561
1.34018
1.25944
1.18727
1.13043
1.08314
1.0399
0.997987
0.958819
0.92141
0.887789
0.856087
0.832827
0.817659
0.812422
0.814429
0.823336
0.838108
0.860928
0.879478
0.881062
0.862612
0.825883
0.722577
1.60439
2.30889
2.72487
2.95109
3.13601
3.31979
3.47512
3.58286
2.10646
1.91303
1.71999
1.55456
1.43217
1.33481
1.24966
1.17767
1.12084
1.07363
1.02944
0.987833
0.947222
0.91037
0.874117
0.844573
0.821242
0.805962
0.800151
0.802136
0.811335
0.82586
0.850032
0.868155
0.869411
0.851048
0.811803
0.741316
1.59934
2.27503
2.71761
2.95575
3.13887
3.31995
3.47472
3.58257
2.10769
1.91352
1.73444
1.57354
1.45541
1.35785
1.27567
1.20031
1.14017
1.09118
1.04619
1.0054
0.965333
0.928629
0.895197
0.864541
0.840327
0.822945
0.813504
0.815429
0.822112
0.834584
0.854082
0.868227
0.866273
0.846326
0.80759
0.718211
1.57018
2.24636
2.69545
2.94516
3.1293
3.31186
3.46586
3.57352
2.09643
1.91145
1.74595
1.5963
1.48519
1.3938
1.31473
1.243
1.1776
1.1266
1.0796
1.03903
0.999757
0.965891
0.932117
0.904953
0.883724
0.868269
0.858251
0.85689
0.858246
0.865239
0.875902
0.882949
0.878034
0.858105
0.822423
0.7119
1.54973
2.26602
2.70683
2.94319
3.11948
3.31074
3.4772
3.57833
2.10272
1.92903
1.77728
1.64067
1.5321
1.44823
1.36767
1.30059
1.23469
1.1752
1.12414
1.08202
1.04258
1.00805
0.977222
0.952785
0.933449
0.91957
0.910289
0.906094
0.905643
0.909996
0.913882
0.916428
0.910483
0.892747
0.863131
0.722563
1.56862
2.3006
2.74086
2.96936
3.14255
3.33475
3.50816
3.60322
2.11946
1.94861
1.81845
1.68699
1.58341
1.4982
1.42153
1.35293
1.28875
1.23087
1.17683
1.12796
1.0885
1.05574
1.02963
1.00612
0.988259
0.973651
0.964783
0.958353
0.956187
0.956122
0.956948
0.958718
0.949529
0.939631
0.916551
0.729554
1.58888
2.26581
2.70061
2.94663
3.14767
3.35925
3.53108
3.62842
2.14436
1.97466
1.85321
1.72568
1.62609
1.5407
1.46679
1.39708
1.33408
1.27637
1.22322
1.17463
1.13607
1.10289
1.07736
1.05284
1.03543
1.01925
1.01005
1.00147
0.99772
0.99351
0.994148
0.993027
0.960697
1.16376
1.28107
0.690769
1.41306
2.03559
2.51355
2.82927
3.07944
3.30238
3.49852
3.62657
2.15306
1.97581
1.8525
1.72728
1.63194
1.55028
1.47947
1.41215
1.35099
1.293
1.24226
1.19405
1.15617
1.12259
1.09535
1.06978
1.05223
1.0356
1.02612
1.01632
1.01215
1.00619
1.00614
1.00542
0.972604
1.18148
1.29783
0.037412
0.0490324
0.0592613
0.0674886
0.0743961
0.0803861
0.0855608
0.0899525
0.0936878
0.0968802
0.0997164
0.102479
0.105078
0.107872
0.110919
0.114395
0.11832
0.122859
0.127906
0.133567
0.139653
0.146061
0.152843
0.14521
0.00099721
0.000975108
0.000952983
0.000931513
0.000911515
0.000892873
0.000888089
0.000981333
0.00128479
0.0017578
0.00327237
0.00852536
0.0214164
0.0339988
0.0331882
0.0455131
0.0562019
0.064798
0.0718347
0.0778284
0.0829565
0.0872726
0.0909328
0.0939958
0.0968254
0.0993201
0.101874
0.104446
0.107384
0.110699
0.114526
0.118814
0.123653
0.129046
0.13496
0.141253
0.148032
0.154616
0.148956
0.21521
0.256826
0.000997781
0.00097578
0.000953532
0.000931802
0.000911291
0.000894493
0.000876953
0.000911914
0.0010171
0.00121289
0.0021554
0.00573858
0.0159636
0.0289462
0.0301269
0.0416454
0.0513108
0.0589304
0.0652893
0.0707338
0.0754127
0.0793967
0.0827909
0.0856936
0.0881072
0.0903842
0.092437
0.0946036
0.0969866
0.0997246
0.102894
0.106533
0.110733
0.115515
0.12099
0.12726
0.134554
0.142283
0.149212
0.15419
0.158544
0.000997747
0.000975775
0.000953791
0.000932329
0.000911441
0.000891819
0.000875828
0.000883366
0.000933253
0.00106632
0.00179393
0.00445471
0.0115746
0.0245881
0.0274972
0.0384896
0.0472414
0.054008
0.0595805
0.064334
0.068269
0.0716719
0.0744024
0.0765557
0.0783524
0.0801178
0.0816818
0.0832656
0.0849516
0.0869297
0.0892679
0.0921254
0.0955424
0.0996325
0.10447
0.110073
0.116642
0.123562
0.129829
0.13413
0.139999
0.000997646
0.000975509
0.000953467
0.000932313
0.000912222
0.000892323
0.00087413
0.000873722
0.000903368
0.00102958
0.00168318
0.00389912
0.00969811
0.0235534
0.0269515
0.0376687
0.0459527
0.0521381
0.0571579
0.0611969
0.064545
0.0671486
0.0691641
0.0708677
0.0723402
0.0737858
0.0750403
0.0762846
0.0775221
0.0789105
0.0805623
0.0826227
0.0852245
0.0885071
0.0925581
0.0973071
0.102826
0.108509
0.11383
0.117813
0.122919
0.000997593
0.000975455
0.000953454
0.000932155
0.000911807
0.000893922
0.000874261
0.000873261
0.00089516
0.00102122
0.00171498
0.00412558
0.0103485
0.0238651
0.026948
0.0375245
0.0454856
0.0513247
0.0559575
0.0596128
0.0625308
0.0647529
0.066489
0.0679586
0.069234
0.0704572
0.071465
0.0724243
0.0733684
0.0743331
0.0755365
0.077112
0.0793078
0.0821955
0.0859094
0.0903831
0.0956427
0.101122
0.106416
0.110666
0.115164
0.000997601
0.000975387
0.000953341
0.000932131
0.000911529
0.00089384
0.000874377
0.000869472
0.000887348
0.00102809
0.00176126
0.00429671
0.0109295
0.0248088
0.0276903
0.038377
0.0463083
0.0520407
0.0564909
0.0599595
0.0626372
0.0646556
0.0662105
0.0675018
0.0687048
0.0697194
0.0706157
0.0714237
0.0721898
0.0730498
0.0741482
0.075603
0.0776514
0.0803783
0.0839126
0.0881655
0.0932273
0.0985152
0.103663
0.107557
0.112247
0.000997564
0.000975447
0.000953415
0.00093217
0.000911874
0.000891878
0.000873785
0.000864762
0.000883421
0.00101753
0.00174647
0.00425535
0.0109595
0.0248879
0.0273676
0.0380698
0.0462394
0.0522347
0.0569825
0.0607051
0.0636572
0.0658727
0.0675525
0.0689645
0.0701688
0.0713603
0.0723365
0.0732965
0.0742601
0.07528
0.0764723
0.0779639
0.07998
0.0826878
0.0861607
0.0903242
0.0952005
0.100235
0.105076
0.108823
0.112929
0.000997694
0.000975562
0.000953491
0.000932178
0.000912044
0.00089394
0.000873789
0.00086537
0.000877885
0.00099404
0.00166432
0.00403462
0.0100463
0.0229104
0.0261437
0.0367947
0.0451527
0.0514871
0.0566473
0.0608497
0.064275
0.0670252
0.0690926
0.0707969
0.072324
0.0736944
0.0750138
0.0762999
0.0775774
0.0790167
0.08069
0.0827212
0.0852175
0.0883227
0.0920337
0.0962959
0.10113
0.106044
0.110794
0.114542
0.118823
0.000997659
0.00097554
0.000953434
0.000932276
0.000912105
0.000892801
0.00087369
0.000867411
0.000880816
0.000988305
0.00154028
0.00350694
0.00865607
0.0216262
0.0258788
0.0366999
0.0454211
0.0522715
0.0579175
0.0627104
0.0665999
0.0699362
0.0725492
0.0745742
0.0763144
0.0778911
0.0794621
0.0809622
0.0825601
0.0843979
0.0865505
0.0891275
0.0921985
0.0957833
0.0999571
0.10462
0.109765
0.115025
0.119983
0.124874
0.129703
0.000997642
0.000975522
0.00095354
0.000932393
0.000911909
0.000892757
0.000873743
0.000867952
0.000890315
0.0010061
0.00160088
0.00366018
0.00902106
0.0220121
0.0265518
0.0376303
0.0468314
0.05412
0.0602362
0.0654334
0.0697937
0.0735086
0.0766057
0.0791828
0.081285
0.0832705
0.0850459
0.0869293
0.089003
0.0913643
0.0941134
0.0972709
0.100936
0.10508
0.109789
0.114962
0.120597
0.126455
0.13184
0.137173
0.14307
0.000997659
0.000975493
0.000953411
0.000932154
0.000911834
0.000893787
0.000874159
0.00088222
0.000932107
0.00104646
0.00175835
0.00435242
0.0111403
0.0238861
0.0279602
0.0393106
0.0489395
0.0566375
0.0631708
0.0687354
0.0735271
0.0775923
0.0810939
0.084086
0.086747
0.0890892
0.0914493
0.0937842
0.0964057
0.0992918
0.102614
0.106271
0.110461
0.115076
0.120286
0.125825
0.131946
0.138216
0.130722
0.183285
0.217631
0.00099754
0.000975505
0.000953313
0.000931817
0.000912561
0.000895291
0.000878908
0.000910295
0.00100568
0.00111082
0.00176867
0.00442895
0.0120171
0.0247517
0.0282328
0.0393711
0.0489512
0.0567031
0.0634006
0.0691887
0.0742584
0.078618
0.0824356
0.0857078
0.0886843
0.0913262
0.0940123
0.0966305
0.0995027
0.102619
0.106168
0.110046
0.114468
0.119281
0.124695
0.130445
0.136767
0.143331
0.133544
0.193316
0.231998
0.000743521
0.000746006
0.000755308
0.000771479
0.000793987
0.000823252
0.000859188
0.000901639
0.000950307
0.00100513
0.00106623
0.00113428
0.00120959
0.00129385
0.00138876
0.00149697
0.00162109
0.00176511
0.00193183
0.00212647
0.00235149
0.00260875
0.00288691
0.0029081
0.000997133
0.000974406
0.000951884
0.000930175
0.000909447
0.000889719
0.000870876
0.000852822
0.000835612
0.000819175
0.000803422
0.000788267
0.000773627
0.000758598
0.000742455
0.000743177
0.000750559
0.000764981
0.000785561
0.000812503
0.000845919
0.000885452
0.000931013
0.000982167
0.00103951
0.00110285
0.00117332
0.00125158
0.00134008
0.00144059
0.00155655
0.00169027
0.00184595
0.00202654
0.0022372
0.00248226
0.00277136
0.00307448
0.00299314
0.00491013
0.00593998
0.000997371
0.000974404
0.000952087
0.000930469
0.000909753
0.000889985
0.00087108
0.000853037
0.000835816
0.000819315
0.000803507
0.000788383
0.000773869
0.000758146
0.000741441
0.000740371
0.00074505
0.000755216
0.000770803
0.000791648
0.000817897
0.000849492
0.000886126
0.000927814
0.000974069
0.00102545
0.00108168
0.00114418
0.00121386
0.00129311
0.00138361
0.00148871
0.00161091
0.00175456
0.00192475
0.0021308
0.00238721
0.00270272
0.0030141
0.00332156
0.00357161
0.000997551
0.000974569
0.000952288
0.00093072
0.000910032
0.000890274
0.000871351
0.000853291
0.000836049
0.000819536
0.000803712
0.000788549
0.000774001
0.000757646
0.000740451
0.00073806
0.000740752
0.000747847
0.000759709
0.000775431
0.000795348
0.000819581
0.000847582
0.00087896
0.000913455
0.000951539
0.00099307
0.00103879
0.00108931
0.00114615
0.00121073
0.0012856
0.00137332
0.00147774
0.00160329
0.00175655
0.00194544
0.00217239
0.00240725
0.00265011
0.00289196
0.000997628
0.000974645
0.000952357
0.000930788
0.000910108
0.00089035
0.000871436
0.000853378
0.000836122
0.000819591
0.000803732
0.000788535
0.000773987
0.000757504
0.000740176
0.000737499
0.000739687
0.000745852
0.000756215
0.000769684
0.000786515
0.000806499
0.000829079
0.000854262
0.000881883
0.000912379
0.000945515
0.000981947
0.00102183
0.0010662
0.00111588
0.00117283
0.0012389
0.00131736
0.00141123
0.00152406
0.00165896
0.00181427
0.00198334
0.00217003
0.00235999
0.000997617
0.000974631
0.000952339
0.000930761
0.000910076
0.000890326
0.000871421
0.000853356
0.000836116
0.000819594
0.000803753
0.000788547
0.000773953
0.000757489
0.000740145
0.00073744
0.000739429
0.000745218
0.000754699
0.000767015
0.000782295
0.000800203
0.000820301
0.000842602
0.000867006
0.000893847
0.000922859
0.000954505
0.000988909
0.00102667
0.00106849
0.00111598
0.00117102
0.00123635
0.0013146
0.00140834
0.00151982
0.00164861
0.00179601
0.0019615
0.00213157
0.000997634
0.000974648
0.000952356
0.000930782
0.000910094
0.000890344
0.000871427
0.000853341
0.000836114
0.000819609
0.000803759
0.000788535
0.000773913
0.00075758
0.000740408
0.000738081
0.000740501
0.000746674
0.000756225
0.000768724
0.00078392
0.000801418
0.000820832
0.000842201
0.000865607
0.000891122
0.000918673
0.000948604
0.000980941
0.00101643
0.00105575
0.00110038
0.00115206
0.0012133
0.00128636
0.0013734
0.00147682
0.00159735
0.00173621
0.00189348
0.00205435
0.000997601
0.000974603
0.000952308
0.000930744
0.000910079
0.000890348
0.000871425
0.000853339
0.000836119
0.000819622
0.000803764
0.000788531
0.00077391
0.000757505
0.000740259
0.000737815
0.00074017
0.000746391
0.000756684
0.000769743
0.00078562
0.000804155
0.000824876
0.000847796
0.000872788
0.000900229
0.000929857
0.000962187
0.000997368
0.00103607
0.00107876
0.00112689
0.00118202
0.00124686
0.00132361
0.00141447
0.00152169
0.00164555
0.001787
0.00194516
0.00210686
0.000997685
0.000974714
0.000952431
0.000930858
0.000910168
0.000890405
0.000871475
0.000853395
0.000836169
0.000819664
0.000803828
0.000788634
0.000774037
0.000757275
0.0007398
0.000736718
0.000738421
0.000744105
0.000753755
0.00076713
0.000783801
0.000803625
0.00082603
0.000850983
0.000878476
0.000908731
0.000941815
0.000978258
0.00101823
0.00106276
0.00111253
0.00116928
0.00123455
0.00131103
0.00140074
0.00150588
0.00162853
0.00176967
0.00193057
0.00210916
0.00228998
0.000997693
0.000974751
0.00095249
0.000930923
0.000910231
0.000890456
0.000871531
0.000853482
0.000836249
0.000819734
0.000803862
0.000788645
0.000774056
0.000757214
0.00073969
0.000736479
0.000738243
0.000744345
0.000755065
0.000769594
0.000788066
0.000810576
0.00083652
0.000865479
0.000897328
0.000932321
0.000970671
0.00101286
0.00105946
0.00111174
0.00117084
0.00123891
0.00131782
0.00141009
0.00151817
0.00164459
0.00179184
0.00196225
0.00215866
0.00238037
0.00259985
0.000997672
0.000974733
0.000952469
0.000930895
0.000910202
0.000890424
0.000871492
0.00085345
0.000836224
0.000819687
0.00080382
0.000788609
0.000774008
0.000757284
0.00073988
0.000737038
0.000739446
0.000746553
0.000758573
0.000775101
0.000796262
0.000822047
0.000852065
0.000886185
0.000923939
0.00096579
0.00101147
0.00106212
0.00111846
0.00118227
0.00125497
0.00133904
0.00143662
0.00155072
0.00168408
0.00184007
0.00202112
0.00223016
0.00246339
0.00274247
0.00300864
0.00099762
0.000974734
0.00095242
0.000930772
0.000910038
0.000890257
0.000871357
0.000853332
0.0008361
0.000819552
0.000803734
0.000788524
0.000773893
0.000757457
0.000740198
0.000738049
0.000741571
0.000750205
0.000764297
0.000783423
0.000807877
0.000837494
0.000872256
0.000911968
0.000956741
0.0010065
0.00106186
0.00112341
0.00119277
0.00127142
0.00136187
0.00146586
0.00158677
0.00172701
0.00189093
0.00208081
0.00230215
0.00255641
0.00245618
0.00392805
0.00475813
0.00099765
0.000975111
0.000952496
0.000930754
0.000909996
0.000890215
0.000871331
0.000853292
0.000836041
0.000819523
0.000803707
0.000788495
0.00077389
0.000757492
0.000740088
0.000737893
0.000741272
0.000749785
0.000763948
0.000783408
0.000808668
0.000839551
0.000876196
0.000918295
0.000966197
0.00101971
0.00107977
0.00114669
0.00122238
0.00130812
0.00140673
0.00151998
0.00165184
0.00180411
0.00198251
0.00218926
0.00243018
0.00270793
0.00257911
0.00418068
0.00502247
0.000737469
0.000727222
0.000712829
0.000703476
0.000686839
0.000676386
0.000666562
0.00065685
0.000647416
0.000638015
0.000628781
0.000619524
0.000610446
0.000601347
0.000592392
0.000583415
0.00057461
0.000565828
0.000557257
0.000548758
0.000540525
0.000532509
0.000525208
0.000517952
0.000997689
0.00097506
0.000952575
0.000930862
0.000910068
0.000890202
0.000871221
0.000853057
0.000835658
0.000818995
0.000803035
0.000787733
0.00077297
0.00075561
0.000737842
0.000728963
0.000712547
0.000704993
0.000688717
0.000676569
0.000666682
0.000657136
0.000647685
0.000638463
0.000629226
0.000620107
0.000610994
0.000602
0.000593003
0.000584105
0.000575241
0.000566519
0.000557882
0.000549425
0.000541116
0.000533013
0.000525065
0.00051715
0.000510886
0.000507689
0.000501012
0.00099759
0.000974595
0.00095233
0.000930755
0.000909975
0.000890072
0.000871043
0.000852848
0.000835435
0.000818756
0.000802775
0.000787449
0.00077272
0.000756173
0.000739078
0.000727437
0.000713969
0.000703296
0.000691376
0.000676399
0.0006665
0.000656903
0.000647431
0.000638156
0.000628884
0.000619709
0.000610548
0.000601499
0.000592451
0.000583507
0.000574587
0.000565822
0.000557121
0.000548616
0.00054022
0.00053205
0.000523984
0.000516103
0.000508469
0.000501142
0.000494759
0.00099734
0.000974236
0.000951942
0.000930422
0.000909663
0.000889759
0.000870722
0.00085252
0.000835103
0.000818423
0.000802448
0.000787134
0.000772442
0.000756603
0.000739887
0.000726382
0.00071499
0.000701661
0.000694227
0.000676357
0.000664674
0.0006555
0.000646385
0.000637436
0.000628372
0.000619396
0.000610348
0.00060141
0.000592408
0.000583518
0.000574608
0.00056586
0.000557144
0.000548616
0.000540168
0.000531916
0.000523754
0.000515798
0.000508035
0.000500654
0.000494205
0.000997274
0.000974148
0.000951841
0.000930331
0.00090959
0.000889697
0.000870662
0.000852453
0.000835036
0.00081837
0.000802405
0.000787101
0.000772416
0.000756555
0.000739803
0.000726437
0.000714895
0.000701829
0.000693921
0.000677367
0.00066458
0.000655418
0.000646326
0.000637366
0.000628293
0.000619296
0.000610229
0.000601263
0.000592233