/*--------------------------------*- C++ -*----------------------------------*\
  =========                 |
  \\      /  F ield         | OpenFOAM: The Open Source CFD Toolbox
   \\    /   O peration     | Website:  https://openfoam.org
    \\  /    A nd           | Version:  7
     \\/     M anipulation  |
\*---------------------------------------------------------------------------*/
FoamFile
{
    version     2.0;
    format      ascii;
    class       volScalarField;
    location    "800";
    object      nut;
}
// * * * * * * * * * * * * * * * * * * * * * * * * * * * * * * * * * * * * * //

dimensions      [0 2 -1 0 0 0 0];

internalField   nonuniform List<scalar> 
120313
(
0.00161835
0.00193705
0.00204397
0.00211131
0.00214277
0.00215556
0.00215928
0.00215579
0.002144
0.00212366
0.00209002
0.00205617
0.00201946
0.00197299
0.00193238
0.00189676
0.00186551
0.00183205
0.0017975
0.00176205
0.00172257
0.00167331
0.0016022
0.00134056
0.00186918
0.002516
0.0026905
0.0028029
0.00285458
0.00287832
0.00288935
0.0028841
0.00286002
0.00283624
0.00280403
0.00275945
0.00271025
0.00265528
0.00260628
0.00255723
0.00251227
0.00246532
0.00241666
0.00236582
0.0023082
0.00222498
0.00209197
0.00156618
0.00188449
0.00255792
0.00275746
0.00288095
0.00294078
0.0029691
0.00298326
0.00298404
0.00296349
0.00293805
0.00290379
0.00285537
0.00280252
0.00274915
0.00269415
0.0026451
0.00259713
0.0025495
0.00249833
0.00244615
0.00238374
0.00229098
0.00212994
0.00158298
0.00188595
0.00256909
0.00277629
0.00290537
0.00296841
0.00299952
0.00301645
0.00302024
0.0030019
0.00297466
0.00293893
0.00288976
0.00283547
0.00278212
0.00272549
0.00267549
0.00262646
0.00257793
0.00252643
0.00247362
0.00240976
0.00231375
0.00214507
0.00159026
0.00188348
0.0025648
0.00277221
0.00290177
0.00296509
0.0029967
0.00301434
0.00301855
0.00300053
0.00297457
0.00293795
0.00288908
0.00283453
0.00278143
0.00272447
0.00267431
0.00262551
0.00257699
0.00252552
0.00247278
0.00240901
0.00231318
0.0021443
0.00159055
0.00187517
0.00254633
0.00274592
0.00287059
0.00293136
0.00296121
0.00297719
0.00297925
0.00296157
0.00293655
0.00290189
0.00285329
0.00280014
0.00274756
0.00269199
0.00264305
0.00259526
0.00254735
0.00249594
0.00244353
0.00238138
0.00228925
0.00212746
0.00158244
0.00185353
0.0024959
0.0026713
0.00278652
0.00284061
0.00286677
0.00287977
0.00287632
0.00285717
0.00283529
0.00280189
0.0027549
0.00270513
0.00265353
0.002602
0.00255489
0.00250935
0.0024629
0.0024132
0.00236282
0.00230493
0.00222243
0.0020876
0.00156344
0.00160045
0.0019227
0.00203348
0.00210713
0.0021404
0.00215596
0.00216213
0.00215897
0.00214819
0.00212837
0.00209549
0.00206099
0.00202269
0.00197604
0.00193697
0.0019036
0.00187121
0.00183694
0.00180197
0.00176602
0.00172674
0.00167785
0.00160112
0.00133597
0.00125629
0.00233802
0.00327739
0.00415442
0.00498707
0.00576451
0.0064252
0.00688446
0.00818363
0.00869188
0.00979095
0.0106776
0.0113592
0.0117238
0.0119358
0.012041
0.0120824
0.0120864
0.0120414
0.0120205
0.0119622
0.0118694
0.0116986
0.0114957
0.0112553
0.0109787
0.0106863
0.0103767
0.0100873
0.00980999
0.00951242
0.00926592
0.00899207
0.0087578
0.00862083
0.00850904
0.001252
0.00231035
0.00323416
0.00409078
0.00488843
0.00560897
0.00617967
0.00645768
0.00724736
0.0114969
0.0139706
0.015298
0.0161415
0.01657
0.0167671
0.0168206
0.0167939
0.0167001
0.0165394
0.0164647
0.0163766
0.0162167
0.0159472
0.0156473
0.0153185
0.0149693
0.0146096
0.0142472
0.0138927
0.013547
0.0131711
0.0129884
0.0117028
0.0114518
0.00883311
0.00825769
0.00120451
0.00227648
0.00320324
0.00405191
0.00483062
0.00551458
0.00602206
0.00615314
0.00654331
0.0105765
0.0138065
0.0153024
0.0164482
0.0168495
0.0169666
0.0169643
0.0168797
0.0167227
0.0167337
0.0166633
0.0165117
0.0162367
0.0159803
0.0156743
0.015341
0.0149948
0.0146466
0.0142979
0.0139545
0.0136184
0.0132371
0.0130424
0.0111422
0.0107224
0.0084481
0.00800813
0.00116295
0.00225441
0.00318196
0.0040225
0.00478295
0.00543256
0.00588475
0.00592748
0.00616619
0.0101442
0.0136286
0.015298
0.0162301
0.0166675
0.0167964
0.0167619
0.0166186
0.0166503
0.0166265
0.0165267
0.0163332
0.0160763
0.0157808
0.0154637
0.0151257
0.0147868
0.0144494
0.0141247
0.0138058
0.0134987
0.013146
0.012906
0.0109162
0.0103993
0.00826191
0.00786014
0.00119452
0.00226205
0.00317711
0.00400505
0.00474915
0.00537531
0.00580038
0.00581797
0.00602619
0.00999382
0.0135306
0.0152358
0.0161118
0.0165322
0.01666
0.0166196
0.0164875
0.0165906
0.0165154
0.0164058
0.0161958
0.0159284
0.0156196
0.0152932
0.0149435
0.0146165
0.0142907
0.0139938
0.0136955
0.013417
0.0130921
0.0128407
0.010864
0.0103111
0.00819895
0.00781696
0.00121636
0.00226474
0.00317174
0.00399431
0.0047331
0.00535177
0.00576916
0.00578451
0.00599633
0.0099754
0.01351
0.0152127
0.0160865
0.0165003
0.0166224
0.0165756
0.0164577
0.0165626
0.0164789
0.0163674
0.0161531
0.0158806
0.0155678
0.015237
0.0148912
0.0145667
0.0142445
0.0139491
0.0136556
0.0133828
0.0130664
0.0128168
0.0108667
0.0103049
0.00818508
0.0078108
0.0011957
0.00224322
0.00315326
0.00398424
0.00473469
0.00536757
0.0057969
0.00582203
0.00606271
0.0100926
0.0135581
0.0152332
0.016161
0.0165845
0.0167017
0.0166527
0.0164966
0.0165817
0.0165391
0.0164311
0.0162195
0.0159513
0.0156515
0.0153258
0.0149873
0.0146462
0.0143093
0.0139958
0.0136903
0.0134064
0.0130764
0.0128393
0.0108705
0.0104549
0.00819898
0.00782436
0.00114873
0.00221
0.00312904
0.00397722
0.00475356
0.00542387
0.00589381
0.00596003
0.00630816
0.0105184
0.0137182
0.0152136
0.0163946
0.0167617
0.0168535
0.0168169
0.0166871
0.0166395
0.0166575
0.0165569
0.0163319
0.0160853
0.0158188
0.0155041
0.015172
0.0148238
0.014478
0.0141319
0.0137976
0.0134733
0.0131086
0.0129036
0.0110398
0.0107897
0.00828668
0.00789459
0.00114376
0.0021918
0.00310862
0.00396881
0.00477361
0.00549696
0.00604827
0.00625188
0.00694873
0.0115242
0.0139783
0.0152221
0.016341
0.0166602
0.0167641
0.0167748
0.0166779
0.0165393
0.016495
0.0164581
0.0162964
0.0160984
0.0158397
0.0155335
0.0152073
0.014851
0.0144921
0.0141277
0.0137766
0.0134331
0.0130689
0.0128523
0.0116014
0.0115391
0.00873244
0.0081497
0.00115768
0.00218381
0.00310049
0.00396953
0.00479767
0.00556487
0.00619544
0.00655077
0.0077739
0.0125987
0.0139032
0.0150634
0.0158894
0.0162677
0.0164553
0.0165142
0.0164839
0.0163866
0.0162241
0.0161754
0.0161113
0.0159545
0.0157012
0.0154109
0.015096
0.0147358
0.0143637
0.0139927
0.0136336
0.0132892
0.012937
0.0126661
0.0120678
0.0123031
0.00916792
0.0084173
0.00114092
0.00216682
0.00310062
0.00399274
0.00484983
0.00564979
0.00631535
0.00673013
0.00802998
0.00840126
0.00932058
0.0102254
0.0108792
0.011228
0.0114368
0.0115437
0.0115923
0.0115866
0.0115483
0.0115379
0.011526
0.0114315
0.0112571
0.0110654
0.0108229
0.0105536
0.0102596
0.00996129
0.00967527
0.00940232
0.00913632
0.00888752
0.0086178
0.00844377
0.00843892
0.00842948
0.0010355
0.00213847
0.00311745
0.00405018
0.00496239
0.00584943
0.00665214
0.00731481
0.00867916
0.00913434
0.0101494
0.0110252
0.0117383
0.0121015
0.0123161
0.0124168
0.012463
0.0124487
0.0124574
0.0124736
0.012474
0.0123807
0.0121908
0.0119788
0.0117116
0.0114187
0.011108
0.0107943
0.0104877
0.0101935
0.00990325
0.00962301
0.00935653
0.00914506
0.00899677
0.00882316
0.0153728
0.0166911
0.0178542
0.018476
0.0188617
0.0190261
0.0191077
0.019163
0.0192888
0.0194691
0.0196016
0.0194224
0.0193486
0.0191197
0.0188341
0.0185367
0.0182075
0.0178503
0.0174961
0.0171076
0.0167532
0.0163808
0.0159927
0.0157997
0.00224465
0.00381081
0.00521974
0.00654412
0.00781835
0.00908754
0.0103948
0.0117921
0.0134274
0.0153823
0.0165157
0.0177574
0.0183095
0.0186451
0.0187973
0.018815
0.0188449
0.0189413
0.0191163
0.0193357
0.0193723
0.0193616
0.0189175
0.0186823
0.0183701
0.0180521
0.017672
0.0173192
0.0169335
0.0165851
0.0162187
0.0158868
0.0155471
0.0154157
0.0148736
0.0145003
0.00219897
0.00375051
0.00515733
0.006467
0.00771819
0.00896461
0.0102506
0.011613
0.0132335
0.0150136
0.0160712
0.0174087
0.0179333
0.0182459
0.0183754
0.0183754
0.0184147
0.0185312
0.0187711
0.019017
0.0190551
0.0188965
0.0186453
0.0183832
0.0180338
0.0176983
0.0173178
0.0169714
0.0166018
0.0162741
0.0159151
0.0156577
0.0152766
0.0149998
0.0147331
0.0144067
0.00212577
0.00368325
0.00508701
0.00638266
0.00761021
0.0088244
0.0100621
0.0113445
0.0128214
0.0144931
0.0156487
0.0169035
0.0175123
0.0178697
0.0180041
0.0180635
0.0181859
0.0184938
0.0187586
0.0188339
0.01874
0.0185604
0.0182823
0.0179921
0.0176534
0.0173164
0.0169564
0.0166194
0.0162723
0.0159692
0.0156322
0.0154415
0.0150437
0.0147112
0.0144599
0.0141475
0.00205995
0.00363699
0.00503289
0.00631356
0.00751807
0.0086975
0.00988392
0.0110785
0.0124434
0.0141608
0.0153807
0.0165769
0.017178
0.0175774
0.0177488
0.0178644
0.0181256
0.0185037
0.01861
0.018586
0.0184478
0.0182342
0.0179466
0.0176364
0.0172992
0.0169682
0.0166318
0.0163196
0.0160119
0.015743
0.0154381
0.0152782
0.0149
0.0145638
0.0143198
0.0140274
0.00207994
0.00362904
0.0050034
0.00626733
0.00745481
0.0086114
0.00976711
0.0109145
0.0122412
0.0139993
0.0152382
0.0163936
0.0169938
0.0174136
0.017611
0.0177487
0.0180664
0.0184838
0.018434
0.018412
0.0182554
0.0180131
0.0177067
0.0173819
0.017007
0.0167294
0.0164046
0.0161686
0.015881
0.015681
0.015402
0.0152803
0.0149125
0.0145705
0.01433
0.0140519
0.00209923
0.003622
0.00498193
0.00623787
0.00742012
0.00857047
0.00971802
0.0108538
0.0121847
0.0139763
0.0152087
0.0163683
0.0169663
0.0173809
0.0175781
0.0177239
0.0180489
0.0184544
0.018387
0.0183637
0.0182019
0.01795
0.0176331
0.0173038
0.0169425
0.0166736
0.0163543
0.0161179
0.0158387
0.0156472
0.0153791
0.0152754
0.0149158
0.0145759
0.0143385
0.0140646
0.00206993
0.00359026
0.00495435
0.0062173
0.00740991
0.00857252
0.00973671
0.0108936
0.0122621
0.0140918
0.0152979
0.0164951
0.0170889
0.0174782
0.0176439
0.0177698
0.0180701
0.0184581
0.0184926
0.0184615
0.0183099
0.0180662
0.0177778
0.0174499
0.0171078
0.0167779
0.016431
0.0161654
0.015876
0.0156725
0.0153982
0.0152603
0.0148858
0.0145557
0.0143203
0.0140302
0.0020181
0.00355197
0.0049305
0.00621196
0.00742909
0.00862407
0.00983392
0.0110559
0.0125217
0.0143881
0.0155378
0.0167733
0.0173647
0.017703
0.0178403
0.0179271
0.0181202
0.0184927
0.018671
0.0186648
0.0185374
0.0183382
0.0180729
0.017762
0.0174349
0.0170857
0.0167412
0.0164026
0.0160811
0.0157891
0.015471
0.0152908
0.0149055
0.0145931
0.0143639
0.0140478
0.00201449
0.0035388
0.00492438
0.00622566
0.0074752
0.00871842
0.0100023
0.0113419
0.0129936
0.0148933
0.0159402
0.0172163
0.0177497
0.0180313
0.0181568
0.0181823
0.0182709
0.0185075
0.0187914
0.0189369
0.0188644
0.0187089
0.0184346
0.0181454
0.017802
0.0174551
0.017081
0.0167256
0.0163627
0.0160407
0.0156944
0.0154681
0.0150918
0.014799
0.014566
0.0142148
0.00204427
0.00354138
0.00493437
0.00625588
0.00753631
0.00882561
0.0101787
0.0116366
0.0134511
0.0153636
0.0163156
0.0176163
0.0180877
0.018364
0.0185024
0.0185054
0.0185407
0.0186652
0.0188983
0.0191638
0.0192199
0.0190551
0.0188103
0.0185554
0.0181952
0.0178397
0.0174384
0.0170733
0.0166873
0.0163446
0.0159791
0.015694
0.0153146
0.0150612
0.0148079
0.0144309
0.00203213
0.00352877
0.00494123
0.00629029
0.00760205
0.00892063
0.0103028
0.0117882
0.0135448
0.0154629
0.0165055
0.0177958
0.0183156
0.0186288
0.0187994
0.0188365
0.0188931
0.0190372
0.0192403
0.0195285
0.0195185
0.0193726
0.0190525
0.0188102
0.0184405
0.0180829
0.0176709
0.0172973
0.0168948
0.0165418
0.0161683
0.0158585
0.0154567
0.0153267
0.0147822
0.0144016
0.00194958
0.00349762
0.00494014
0.00631982
0.00766328
0.00900471
0.0103885
0.0118376
0.013508
0.0153287
0.0163612
0.0176607
0.0181908
0.0184911
0.0186423
0.0187286
0.0188402
0.0190781
0.0193348
0.0196262
0.0194536
0.0193241
0.019049
0.0187692
0.01839
0.0180285
0.0176168
0.0172428
0.0168405
0.0164898
0.0161162
0.0158086
0.0153987
0.0153057
0.0148177
0.0144354
0.011278
0.0126961
0.0146806
0.0152313
0.0155714
0.0156952
0.015699
0.0156128
0.0154769
0.0153204
0.0152183
0.0151656
0.0149031
0.0148802
0.0144939
0.0144571
0.0142365
0.0139443
0.0139384
0.013454
0.0135454
0.0130464
0.0130406
0.0129361
0.00243514
0.00350827
0.00444724
0.00550312
0.00652723
0.00757065
0.00868838
0.00993973
0.0108048
0.0113394
0.0126366
0.0148766
0.0154919
0.0158327
0.0159375
0.0159465
0.0158594
0.0157185
0.0155542
0.015402
0.0152918
0.0151944
0.0150083
0.0149335
0.0145346
0.0145809
0.0139785
0.0140766
0.0135465
0.0136509
0.0131766
0.0132068
0.0128195
0.0131203
0.0131814
0.0132957
0.0023823
0.00342696
0.0043445
0.0053562
0.00637316
0.00741268
0.00855713
0.0098563
0.0108208
0.0112288
0.0123895
0.014651
0.0151875
0.0155131
0.0156527
0.0156726
0.0155917
0.015462
0.0153334
0.0152092
0.0151027
0.0150421
0.0147417
0.014755
0.0141422
0.014191
0.013631
0.0137293
0.0132393
0.0133814
0.0129406
0.0130254
0.0127303
0.0126695
0.0124456
0.0123812
0.00231838
0.00336404
0.00427224
0.00525696
0.00623724
0.00725114
0.00839222
0.00970909
0.0107018
0.0109322
0.0123671
0.0140809
0.0146566
0.0149596
0.0151028
0.0151039
0.0150249
0.0149522
0.0148702
0.0148414
0.0146266
0.014622
0.0142028
0.0141464
0.0137925
0.0136958
0.0133427
0.013288
0.0129244
0.0129742
0.0126142
0.0127975
0.0124469
0.012495
0.0121342
0.0119563
0.00225778
0.00332741
0.0042219
0.00518174
0.00614183
0.00712844
0.00824441
0.00954998
0.0105416
0.0106882
0.012277
0.0136672
0.0142312
0.0145044
0.0146052
0.014584
0.0145148
0.0144636
0.0143929
0.0143809
0.0141368
0.0139948
0.013745
0.0135572
0.0133453
0.0131756
0.0129914
0.0128603
0.0127285
0.0126787
0.0124426
0.0125963
0.0123381
0.0124532
0.0119126
0.0116776
0.00226145
0.00330158
0.00417426
0.00511825
0.00607753
0.007051
0.00814972
0.00943969
0.0104298
0.0105557
0.0121955
0.013454
0.0140032
0.0142422
0.0143163
0.0142687
0.0141764
0.0141838
0.0141067
0.0140479
0.013806
0.013574
0.0133036
0.0131167
0.012748
0.0129618
0.0127037
0.012921
0.0126923
0.0129344
0.0126449
0.0128729
0.012574
0.0126505
0.012039
0.0117506
0.00227293
0.00328281
0.00414035
0.00507161
0.00603187
0.00700084
0.00810179
0.00938993
0.0103845
0.0105393
0.0121535
0.013436
0.0139793
0.0142051
0.0142669
0.014207
0.0141123
0.0141198
0.0140264
0.0139558
0.0137054
0.0134544
0.0131323
0.0129963
0.0126832
0.0129385
0.0126676
0.0128836
0.0126576
0.0129183
0.0126402
0.0129676
0.0126576
0.0127235
0.0120706
0.0117564
0.00224935
0.00325676
0.00412167
0.00506104
0.00601147
0.00697802
0.00808523
0.00938681
0.0103972
0.0106249
0.0121778
0.0135909
0.0141371
0.0143794
0.0144499
0.0143972
0.0142982
0.0142691
0.014191
0.014142
0.0139159
0.0136705
0.0134555
0.0132358
0.0129715
0.0128898
0.0125946
0.012807
0.0126143
0.0128924
0.0126318
0.0127672
0.012478
0.0125725
0.0119025
0.0116101
0.00221134
0.00323713
0.00411223
0.00506344
0.00601951
0.00699503
0.00811302
0.00943688
0.0104772
0.010811
0.0122776
0.0139293
0.0144528
0.0147223
0.0148167
0.0147827
0.0146931
0.0145894
0.0145302
0.0145156
0.0142504
0.0141684
0.0139317
0.0137265
0.0135165
0.0133123
0.0131058
0.0129504
0.0127672
0.0127153
0.0124335
0.0125767
0.0122844
0.0124004
0.0117789
0.0115218
0.00221405
0.00323607
0.00411926
0.00507064
0.00604543
0.00705352
0.00820381
0.0095591
0.0106323
0.0110701
0.0124267
0.0144075
0.0148871
0.0151542
0.0152815
0.0152639
0.0151696
0.0150782
0.0149659
0.0149127
0.0147298
0.0147591
0.0142614
0.0142639
0.0138238
0.0137927
0.0133479
0.0133416
0.0129148
0.0129884
0.012602
0.0127744
0.0123819
0.0124688
0.0119238
0.0117216
0.0022414
0.00323653
0.00412646
0.00509438
0.00608707
0.00712547
0.00830172
0.00967595
0.0107486
0.0112458
0.0124877
0.0147833
0.0152317
0.015502
0.0156325
0.0156432
0.0155576
0.0154419
0.0153282
0.0152153
0.0151275
0.0150817
0.0147731
0.0148002
0.0141595
0.0141867
0.0135962
0.0136768
0.013167
0.0132973
0.0128582
0.0129728
0.0125645
0.0125818
0.0122432
0.0120659
0.00222905
0.00322284
0.00413868
0.00515524
0.00616435
0.00721488
0.00837937
0.00972281
0.0107177
0.0112502
0.012487
0.0148675
0.0153713
0.0156692
0.0158056
0.0158262
0.0157453
0.0156169
0.0154922
0.0153822
0.0153109
0.0152678
0.0149447
0.0149751
0.0143013
0.0143467
0.0137554
0.0138432
0.0133171
0.0134561
0.0129758
0.0130734
0.0126182
0.0126715
0.0128543
0.0129806
0.00217806
0.00324702
0.00419628
0.00524372
0.00627548
0.00731641
0.00845729
0.00973919
0.010613
0.0111401
0.0123621
0.0147558
0.0153064
0.0156268
0.0157809
0.0158065
0.0157303
0.0156058
0.0154816
0.0154142
0.0152959
0.0152871
0.0148434
0.0148492
0.0142445
0.0142685
0.0137277
0.0137884
0.013275
0.0134043
0.0129075
0.0130268
0.0125423
0.0126377
0.0128485
0.0130506
0.00400374
0.00403029
0.0041714
0.00421509
0.00433773
0.00448471
0.00459669
0.00466904
0.00472123
0.00474255
0.00476927
0.00479452
0.00482482
0.00488684
0.00495202
0.00504628
0.00514909
0.00528391
0.00540428
0.00555406
0.00566961
0.00584593
0.00597962
0.0061459
0.00142955
0.00191928
0.00249711
0.00306652
0.00361483
0.00420269
0.00486775
0.00550613
0.00590096
0.00402706
0.00406078
0.00420254
0.00423651
0.00431606
0.00444972
0.00455795
0.00462636
0.00467862
0.00469923
0.00473124
0.00473403
0.004766
0.00481487
0.00489638
0.00498898
0.00509656
0.00521158
0.00532979
0.00547304
0.00560224
0.00577853
0.0059633
0.00608702
0.00627445
0.00762445
0.00838135
0.00146071
0.00195276
0.00260559
0.00312841
0.00364426
0.00423602
0.00492845
0.00551295
0.00593235
0.00391838
0.00392417
0.00401256
0.00401851
0.00413048
0.00425459
0.00436187
0.00442642
0.00448561
0.00450092
0.00448557
0.00446465
0.00447688
0.00451159
0.00457905
0.00466032
0.00477006
0.00487909
0.00501412
0.00514706
0.00531266
0.00547674
0.00570283
0.00589402
0.0061212
0.00618103
0.00632766
0.00144129
0.00190485
0.00255216
0.00309047
0.00358597
0.00413865
0.00480595
0.00540724
0.00580133
0.00378671
0.00379858
0.00380442
0.00379822
0.00390178
0.00402028
0.004088
0.00417179
0.00417277
0.00413369
0.0041113
0.0041161
0.0041095
0.00412155
0.00415285
0.00421713
0.00430629
0.00444081
0.00457924
0.00474999
0.00492156
0.00510072
0.00533597
0.0055336
0.0057583
0.0057955
0.00588021
0.00136446
0.00185647
0.00250876
0.00304945
0.0035432
0.00408119
0.00471811
0.00529405
0.00570238
0.0037257
0.00373487
0.0036922
0.00365592
0.00375062
0.00381848
0.00390181
0.00390859
0.00390131
0.00390584
0.00390092
0.00390334
0.00390229
0.00389665
0.00389386
0.00391258
0.00397502
0.00406822
0.00420983
0.00438759
0.00458566
0.00478254
0.00504793
0.00525966
0.00547264
0.00549929
0.0055432
0.00138022
0.00184283
0.0025204
0.00305217
0.00353514
0.00408653
0.00471438
0.00527395
0.00568336
0.00370672
0.00370785
0.00363082
0.00358256
0.00365775
0.00371351
0.0037764
0.00377792
0.00377991
0.00378602
0.0037862
0.00377703
0.00376456
0.00374683
0.00372871
0.00371863
0.00374768
0.00384856
0.00399904
0.00419845
0.00442212
0.00465949
0.00497176
0.00520878
0.0054188
0.00542128
0.0054655
0.00135766
0.00183988
0.00252992
0.00306082
0.00354664
0.00409305
0.00471466
0.0052757
0.00566729
0.00372399
0.00372569
0.00364406
0.00358493
0.00364743
0.00369801
0.00374637
0.00374833
0.00374966
0.00375458
0.00375162
0.00374113
0.00371926
0.00370353
0.00366169
0.00367715
0.00370413
0.00380108
0.00394195
0.00414397
0.00436929
0.00460458
0.00492998
0.00516553
0.00537102
0.0053742
0.00538597
0.00137643
0.00182872
0.00249466
0.00304905
0.00355375
0.00409352
0.00471181
0.00527631
0.00566383
0.00372371
0.00372451
0.00367941
0.00362981
0.003708
0.00376277
0.0038235
0.0038212
0.00381409
0.00381602
0.00381001
0.00380972
0.00379295
0.00378166
0.00377216
0.00376682
0.00378732
0.0038601
0.00397763
0.0041866
0.00439935
0.00462651
0.00491957
0.00512915
0.00531697
0.00530627
0.00532374
0.00135615
0.00179465
0.0024577
0.00302256
0.00352671
0.00405996
0.00467484
0.00523321
0.00564486
0.00370632
0.00371936
0.00370808
0.00369038
0.00378957
0.00387132
0.00393941
0.00396925
0.00394407
0.0039396
0.00392953
0.00393428
0.00392785
0.00393745
0.00393173
0.00395826
0.00401636
0.00410507
0.00423022
0.00440581
0.00457543
0.00476815
0.00499446
0.00515923
0.00533436
0.0053277
0.00537708
0.00131743
0.00180278
0.00248145
0.00301893
0.00351047
0.00402119
0.00464803
0.00522557
0.00560612
0.00372185
0.0037603
0.00379073
0.00380884
0.00391623
0.00403542
0.00409016
0.00417184
0.0041591
0.00411749
0.00409381
0.0040966
0.00409383
0.0041054
0.00413051
0.0041862
0.00426678
0.00438193
0.00451481
0.00466115
0.00482651
0.00500626
0.00519097
0.00533148
0.00550808
0.00552048
0.00562414
0.00133577
0.00182916
0.00252144
0.00306081
0.00353736
0.00405353
0.00467885
0.00526917
0.00564092
0.00375174
0.00379686
0.00389184
0.00391955
0.0040515
0.0041696
0.00425448
0.00432112
0.00435609
0.00434655
0.00431637
0.00429034
0.0042959
0.0043277
0.00439379
0.00446392
0.00457209
0.00467987
0.00481226
0.0049385
0.00509721
0.00523977
0.00542589
0.00556527
0.00573854
0.00579581
0.00596716
0.00135341
0.0017964
0.00249015
0.00303958
0.00353519
0.00409662
0.00474598
0.0053212
0.00568707
0.003776
0.00383233
0.00396015
0.00400265
0.00414379
0.00426928
0.00437677
0.00444058
0.0045008
0.00452043
0.00451621
0.00450338
0.00452524
0.00456701
0.00464265
0.00472573
0.00482917
0.00492707
0.00505137
0.00517112
0.00531341
0.0054379
0.00563738
0.00574398
0.00584674
0.00699369
0.00777138
0.00126513
0.00166685
0.00224173
0.00284847
0.00341057
0.00402672
0.00467737
0.00529747
0.00568146
0.00377002
0.0038078
0.00393144
0.00398522
0.00414534
0.00428488
0.00440588
0.0044787
0.0045486
0.00457073
0.0045823
0.00457544
0.0046047
0.00465017
0.00471922
0.0048024
0.00490422
0.00500282
0.00512491
0.00524178
0.00538213
0.00549894
0.0056934
0.00580813
0.00590841
0.00710553
0.007875
9.15581e-05
0.000129262
0.000168361
0.000205616
0.000242714
0.000280405
0.000318134
0.000355193
0.000391476
0.00042679
0.000461781
0.00049731
0.000532996
0.000570799
0.000611081
0.000655047
0.000703249
0.000756818
0.000815327
0.000879815
0.000948784
0.00102119
0.00109873
0.0010657
8.97932e-06
9.1431e-06
9.19968e-06
9.16889e-06
9.17338e-06
9.17038e-06
8.13437e-06
4.92367e-06
3.65484e-06
4.14209e-06
7.18399e-06
1.82165e-05
4.62131e-05
7.09375e-05
8.03295e-05
0.000119278
0.000159102
0.000196942
0.000233729
0.000270763
0.000307725
0.000343937
0.00037939
0.000413714
0.000448185
0.000481912
0.0005167
0.000552629
0.000591713
0.000634125
0.000681156
0.000732475
0.000788901
0.000850876
0.00091818
0.000988888
0.00106512
0.00114822
0.00112708
0.00167163
0.00205548
8.98999e-06
9.16581e-06
9.20207e-06
9.1816e-06
9.16806e-06
9.14174e-06
8.80947e-06
6.42267e-06
4.67198e-06
4.26495e-06
5.5715e-06
1.308e-05
3.64712e-05
6.21214e-05
7.41706e-05
0.000110359
0.000146269
0.000179946
0.000213522
0.000247391
0.000281301
0.000314653
0.00034749
0.000379334
0.000409702
0.000439708
0.000469385
0.000500363
0.000533582
0.000569979
0.000610494
0.000655498
0.000705475
0.000760965
0.000823246
0.000893054
0.000973429
0.00105707
0.00114111
0.00120674
0.00128963
8.98943e-06
9.16653e-06
9.21087e-06
9.18812e-06
9.16557e-06
9.13863e-06
8.96245e-06
7.54134e-06
5.72336e-06
4.75758e-06
5.17346e-06
1.05939e-05
2.68734e-05
5.44952e-05
6.81485e-05
0.000102449
0.000134916
0.000165078
0.000195104
0.000225418
0.000255072
0.000284762
0.000312822
0.000338833
0.000363686
0.000388697
0.000413266
0.000438405
0.000464797
0.000493697
0.000525857
0.000562756
0.000604806
0.000653111
0.000708423
0.000771191
0.000843795
0.000921501
0.000996814
0.00105486
0.00113238
9.04986e-06
9.19765e-06
9.21113e-06
9.2019e-06
9.17712e-06
9.14858e-06
9.05951e-06
7.95055e-06
6.29994e-06
4.99144e-06
5.05499e-06
9.47506e-06
2.27805e-05
5.18782e-05
6.67984e-05
0.000100183
0.000131049
0.000159105
0.000186819
0.000213811
0.000240643
0.00026594
0.000289654
0.000312509
0.000334739
0.000357068
0.00037893
0.000401017
0.000423455
0.000447194
0.00047332
0.000502959
0.000537536
0.000578298
0.000626151
0.000680732
0.000743302
0.000808901
0.000875005
0.000930072
0.000997274
9.04987e-06
9.16955e-06
9.18878e-06
9.20202e-06
9.16516e-06
9.12474e-06
9.03348e-06
7.98408e-06
6.58672e-06
5.10641e-06
5.13172e-06
9.95518e-06
2.4314e-05
5.27216e-05
6.68184e-05
9.98346e-05
0.000129637
0.00015647
0.000182736
0.000208123
0.000232901
0.000256133
0.000278116
0.000299368
0.000320115
0.000340744
0.000360686
0.000380509
0.000400502
0.000420775
0.000443058
0.00046862
0.000499514
0.00053672
0.000581446
0.000633422
0.000693678
0.000757502
0.000822885
0.000879274
0.000941834
9.05017e-06
9.16837e-06
9.18489e-06
9.21225e-06
9.15704e-06
9.12378e-06
9.04179e-06
8.2176e-06
6.89523e-06
5.10666e-06
5.1946e-06
1.03048e-05
2.57124e-05
5.41999e-05
6.8739e-05
0.00010228
0.000132121
0.000158763
0.000184454
0.000209227
0.000233099
0.000255499
0.000276669
0.000297106
0.000317356
0.000336956
0.000356145
0.00037501
0.000393712
0.000413285
0.000434817
0.000459452
0.000489422
0.000525662
0.000568812
0.000618921
0.000677582
0.00073982
0.000803635
0.000857704
0.000919403
9.04832e-06
9.20226e-06
9.20858e-06
9.23231e-06
9.15817e-06
9.1269e-06
9.0707e-06
8.51798e-06
7.00324e-06
5.13787e-06
5.17656e-06
1.02349e-05
2.59e-05
5.44833e-05
6.78423e-05
0.000101347
0.000131919
0.000159366
0.000186189
0.000212019
0.000237137
0.000260587
0.000282566
0.000303784
0.000324391
0.000345103
0.000365083
0.000385158
0.000405525
0.000426418
0.000448828
0.000473823
0.000503469
0.00053976
0.000582668
0.000632319
0.000689625
0.000749725
0.000810915
0.000863607
0.000921499
8.98742e-06
9.16614e-06
9.24486e-06
9.21508e-06
9.17552e-06
9.11767e-06
9.06026e-06
8.44163e-06
7.17307e-06
5.32945e-06
5.10185e-06
9.80386e-06
2.36115e-05
5.06474e-05
6.476e-05
9.78203e-05
0.000128763
0.000157152
0.000185485
0.000212871
0.000239875
0.000265808
0.000289731
0.000312617
0.000335018
0.000357072
0.000379188
0.000401577
0.000424277
0.000448399
0.000474709
0.000504206
0.000538048
0.000577581
0.000622892
0.000673852
0.000731127
0.000790547
0.000851364
0.000904283
0.000964669
9.05097e-06
9.18487e-06
9.18448e-06
9.22269e-06
9.16672e-06
9.109e-06
9.10224e-06
8.30769e-06
7.00536e-06
5.34582e-06
4.94185e-06
8.72818e-06
2.04031e-05
4.75787e-05
6.40928e-05
9.77732e-05
0.000129877
0.000160055
0.00019004
0.000220184
0.000249293
0.000278339
0.00030545
0.000330508
0.000354622
0.000378397
0.00040252
0.000426813
0.000452248
0.000479808
0.000510272
0.000545111
0.000584395
0.000628368
0.000678134
0.000733157
0.000793806
0.000857004
0.000918726
0.000985759
0.00105227
9.04954e-06
9.19474e-06
9.21266e-06
9.21779e-06
9.1891e-06
9.10269e-06
9.0948e-06
8.26432e-06
6.68688e-06
5.18192e-06
4.99898e-06
9.04288e-06
2.14261e-05
4.80748e-05
6.59424e-05
0.00010038
0.000134171
0.000165988
0.000197962
0.000230397
0.00026171
0.000292836
0.000323026
0.000351788
0.000378936
0.000405736
0.000432151
0.000459737
0.000489337
0.000521525
0.000557413
0.000597216
0.000641853
0.000691192
0.000746316
0.000806379
0.000872315
0.00094162
0.00100841
0.00107256
0.00115854
8.9877e-06
9.15973e-06
9.20938e-06
9.20298e-06
9.16156e-06
9.11313e-06
9.03087e-06
7.52676e-06
5.6492e-06
4.73929e-06
5.10619e-06
1.03701e-05
2.61573e-05
5.22393e-05
6.86984e-05
0.000103959
0.000139394
0.000172954
0.000206804
0.000240746
0.000274685
0.000307977
0.000340861
0.000372813
0.000403986
0.000434246
0.000465238
0.000497041
0.000531486
0.000568711
0.000610709
0.000655177
0.000704803
0.000758889
0.000818979
0.00088306
0.000954201
0.00102743
0.000991277
0.0013954
0.00171868
9.04644e-06
9.18838e-06
9.19054e-06
9.23015e-06
9.17612e-06
9.15066e-06
8.73456e-06
6.25579e-06
4.46614e-06
4.09177e-06
4.83898e-06
1.02268e-05
2.74612e-05
5.27425e-05
6.84258e-05
0.00010294
0.000138037
0.000171671
0.000206093
0.000240939
0.000276148
0.00031088
0.000345433
0.000379011
0.000412139
0.000444381
0.000477606
0.000511544
0.000548008
0.000587229
0.00063047
0.000677251
0.000729134
0.00078532
0.000847553
0.00091392
0.000986733
0.0010637
0.00100921
0.00150028
0.00186556
8.53659e-06
8.26806e-06
7.98824e-06
7.76561e-06
7.62057e-06
7.57457e-06
7.63373e-06
7.79761e-06
8.06331e-06
8.4274e-06
8.88897e-06
9.45085e-06
1.01166e-05
1.08999e-05
1.18178e-05
1.28965e-05
1.41662e-05
1.56708e-05
1.74494e-05
1.95634e-05
2.20535e-05
2.49494e-05
2.81376e-05
2.91895e-05
8.9919e-06
8.97362e-06
8.95641e-06
8.94005e-06
8.92437e-06
8.90958e-06
8.89526e-06
8.88124e-06
8.86843e-06
8.85638e-06
8.84443e-06
8.83317e-06
8.82361e-06
8.83557e-06
8.61303e-06
8.36023e-06
8.08031e-06
7.85433e-06
7.6943e-06
7.62678e-06
7.66136e-06
7.79833e-06
8.03503e-06
8.36702e-06
8.79461e-06
9.31587e-06
9.93753e-06
1.0667e-05
1.15251e-05
1.25318e-05
1.37223e-05
1.51266e-05
1.67927e-05
1.87637e-05
2.11027e-05
2.38662e-05
2.71696e-05
3.08634e-05
3.05706e-05
5.31123e-05
6.24857e-05
8.99927e-06
8.98279e-06
8.9665e-06
8.95058e-06
8.93517e-06
8.92065e-06
8.90678e-06
8.89361e-06
8.88122e-06
8.86927e-06
8.85789e-06
8.84736e-06
8.83813e-06
8.78264e-06
8.64636e-06
8.41709e-06
8.17016e-06
7.95555e-06
7.7995e-06
7.71464e-06
7.71546e-06
7.8043e-06
7.98032e-06
8.24095e-06
8.58121e-06
9.00108e-06
9.49957e-06
1.0086e-05
1.07703e-05
1.15738e-05
1.25176e-05
1.36367e-05
1.49634e-05
1.65479e-05
1.84533e-05
2.07853e-05
2.37134e-05
2.73638e-05
3.11431e-05
3.50133e-05
3.83688e-05
9.00254e-06
8.98681e-06
8.97098e-06
8.95543e-06
8.9403e-06
8.92592e-06
8.91211e-06
8.89901e-06
8.88657e-06
8.87472e-06
8.86368e-06
8.85307e-06
8.84291e-06
8.78297e-06
8.66067e-06
8.45714e-06
8.23683e-06
8.03317e-06
7.88617e-06
7.78955e-06
7.76354e-06
7.81327e-06
7.93527e-06
8.12418e-06
8.37504e-06
8.6878e-06
9.06106e-06
9.49918e-06
1.00079e-05
1.06003e-05
1.12922e-05
1.21102e-05
1.30843e-05
1.42584e-05
1.56869e-05
1.74478e-05
1.96429e-05
2.23219e-05
2.52088e-05
2.82867e-05
3.14062e-05
9.0036e-06
8.98802e-06
8.97215e-06
8.95642e-06
8.94129e-06
8.92704e-06
8.91349e-06
8.90047e-06
8.88781e-06
8.87544e-06
8.86357e-06
8.85318e-06
8.84296e-06
8.78143e-06
8.66356e-06
8.46278e-06
8.24837e-06
8.0505e-06
7.90716e-06
7.81009e-06
7.776e-06
7.80829e-06
7.9021e-06
8.05321e-06
8.25732e-06
8.51409e-06
8.82157e-06
9.18279e-06
9.59951e-06
1.00798e-05
1.06335e-05
1.12793e-05
1.20401e-05
1.29514e-05
1.40524e-05
1.53891e-05
1.70095e-05
1.89123e-05
2.10472e-05
2.34526e-05
2.5929e-05
9.00363e-06
8.98801e-06
8.97198e-06
8.95615e-06
8.94094e-06
8.92682e-06
8.9134e-06
8.90052e-06
8.88819e-06
8.87607e-06
8.86448e-06
8.8535e-06
8.84384e-06
8.78063e-06
8.66304e-06
8.46231e-06
8.24967e-06
8.05568e-06
7.91228e-06
7.81595e-06
7.78107e-06
7.80758e-06
7.89034e-06
8.02533e-06
8.20859e-06