/*--------------------------------*- C++ -*----------------------------------*\
  =========                 |
  \\      /  F ield         | OpenFOAM: The Open Source CFD Toolbox
   \\    /   O peration     | Website:  https://openfoam.org
    \\  /    A nd           | Version:  7
     \\/     M anipulation  |
\*---------------------------------------------------------------------------*/
FoamFile
{
    version     2.0;
    format      ascii;
    class       volScalarField;
    location    "800";
    object      p;
}
// * * * * * * * * * * * * * * * * * * * * * * * * * * * * * * * * * * * * * //

dimensions      [0 2 -2 0 0 0 0];

internalField   nonuniform List<scalar> 
120313
(
-20.5447
-19.8511
-18.817
-17.5287
-16.0865
-14.5764
-13.0521
-11.5431
-10.0969
-8.75004
-7.46443
-6.29213
-5.25867
-4.35425
-3.57299
-2.89736
-2.32846
-1.84781
-1.44476
-1.11308
-0.830401
-0.60625
-0.399777
-0.221879
-20.5169
-19.8718
-18.8469
-17.5632
-16.1122
-14.5914
-13.0885
-11.627
-10.1571
-8.76315
-7.48072
-6.30955
-5.27802
-4.37327
-3.58436
-2.91025
-2.34351
-1.86258
-1.45815
-1.12638
-0.84285
-0.617708
-0.40397
-0.23465
-20.4985
-19.8552
-18.8318
-17.5504
-16.0993
-14.5748
-13.073
-11.6274
-10.1554
-8.747
-7.46371
-6.29541
-5.26745
-4.36413
-3.57369
-2.90015
-2.33743
-1.85634
-1.452
-1.12035
-0.837432
-0.610217
-0.396676
-0.239773
-20.491
-19.8532
-18.8319
-17.5515
-16.1002
-14.5753
-13.0766
-11.6274
-10.1486
-8.7362
-7.45203
-6.28453
-5.25799
-4.35527
-3.56553
-2.89298
-2.33335
-1.85279
-1.44889
-1.11774
-0.835228
-0.607932
-0.395194
-0.238872
-20.487
-19.8518
-18.8316
-17.5525
-16.1012
-14.5759
-13.0777
-11.6257
-10.1448
-8.73125
-7.44647
-6.27926
-5.25307
-4.35061
-3.56128
-2.88945
-2.33069
-1.85045
-1.44697
-1.11627
-0.834215
-0.607226
-0.394934
-0.236878
-20.4888
-19.8504
-18.8326
-17.5541
-16.1025
-14.5762
-13.076
-11.6222
-10.1447
-8.73289
-7.44685
-6.2798
-5.2531
-4.35046
-3.56087
-2.88874
-2.32867
-1.84878
-1.4459
-1.11572
-0.834176
-0.607583
-0.394611
-0.239404
-20.5067
-19.8651
-18.8498
-17.5698
-16.1171
-14.5932
-13.0911
-11.6178
-10.1409
-8.74083
-7.45291
-6.28479
-5.2553
-4.35179
-3.56391
-2.89196
-2.32897
-1.84995
-1.44793
-1.11843
-0.83747
-0.613382
-0.40135
-0.235277
-20.5305
-19.8447
-18.8213
-17.5366
-16.0904
-14.5748
-13.0429
-11.5252
-10.0809
-8.717
-7.42614
-6.25812
-5.22835
-4.32868
-3.54765
-2.87369
-2.30625
-1.82817
-1.42839
-1.10029
-0.821926
-0.599303
-0.394491
-0.221194
-19.3078
-19.5605
-19.8417
-20.1302
-20.419
-20.6861
-20.903
-21.0956
-21.0127
-20.7667
-20.1986
-19.2601
-18.046
-16.6587
-15.1829
-13.6769
-12.1746
-10.7124
-9.31393
-8.00697
-6.80087
-5.70242
-4.74245
-3.92098
-3.19759
-2.6037
-2.0981
-1.67156
-1.31601
-1.02002
-0.767195
-0.553809
-0.363616
-0.210863
-0.0754607
-0.0059174
-19.3169
-19.5676
-19.8473
-20.1346
-20.4221
-20.6871
-20.9007
-21.1081
-21.0335
-20.6817
-20.1284
-19.073
-17.8068
-16.3932
-14.913
-13.4128
-11.9234
-10.4713
-9.09071
-7.78839
-6.59517
-5.54094
-4.61119
-3.80969
-3.12472
-2.54679
-2.06114
-1.64719
-1.30321
-1.00776
-0.773778
-0.550875
-0.388146
-0.28077
-0.0133048
-0.0707795
-19.3272
-19.5728
-19.8524
-20.1395
-20.4261
-20.6896
-20.9001
-21.102
-21.0334
-20.6941
-20.1923
-19.1186
-17.8467
-16.4325
-14.9542
-13.4611
-11.9763
-10.502
-9.09731
-7.80014
-6.61387
-5.56295
-4.64137
-3.83636
-3.14686
-2.57162
-2.08477
-1.66899
-1.32341
-1.02555
-0.78888
-0.558914
-0.416305
-0.302683
-0.0147834
-0.0996098
-19.3333
-19.5793
-19.8587
-20.1449
-20.4302
-20.6913
-20.8971
-21.0852
-21.0008
-20.6801
-20.2157
-19.1338
-17.8593
-16.4427
-14.9639
-13.4732
-11.987
-10.5012
-9.0831
-7.78868
-6.60529
-5.55792
-4.63831
-3.82988
-3.14204
-2.57019
-2.08448
-1.66859
-1.32385
-1.02454
-0.790091
-0.558522
-0.433267
-0.317511
-0.0147998
-0.10897
-19.3452
-19.591
-19.8669
-20.1502
-20.433
-20.6907
-20.8919
-21.076
-20.9866
-20.6739
-20.2257
-19.1415
-17.8671
-16.4503
-14.9716
-13.4808
-11.9917
-10.4972
-9.0746
-7.78086
-6.59771
-5.55234
-4.63369
-3.82423
-3.13852
-2.56942
-2.08481
-1.66935
-1.32514
-1.02572
-0.792012
-0.560894
-0.446306
-0.315831
-0.0108625
-0.112305
-19.356
-19.6012
-19.873
-20.1533
-20.4337
-20.6889
-20.8869
-21.0689
-20.9767
-20.6666
-20.2238
-19.1421
-17.8691
-16.4528
-14.9739
-13.4821
-11.9905
-10.4933
-9.06985
-7.77518
-6.5922
-5.54726
-4.62898
-3.81956
-3.13493
-2.56687
-2.0825
-1.66751
-1.32372
-1.02483
-0.791709
-0.561526
-0.449802
-0.311293
-0.0108687
-0.115036
-19.3686
-19.6071
-19.8752
-20.1532
-20.4324
-20.6864
-20.8835
-21.0662
-20.9768
-20.6604
-20.209
-19.1353
-17.8653
-16.4505
-14.971
-13.4773
-11.9856
-10.4928
-9.07125
-7.77496
-6.59164
-5.54561
-4.62744
-3.81831
-3.13316
-2.56454
-2.08
-1.66571
-1.32216
-1.02422
-0.790756
-0.559926
-0.436946
-0.320814
-0.0161911
-0.114356
-19.3785
-19.6087
-19.8739
-20.1505
-20.4287
-20.6824
-20.8809
-21.0673
-20.9858
-20.6686
-20.1829
-19.1221
-17.8573
-16.4458
-14.9659
-13.468
-11.9756
-10.4913
-9.07963
-7.77813
-6.5937
-5.54508
-4.62596
-3.82007
-3.13489
-2.56379
-2.07803
-1.66399
-1.32026
-1.0242
-0.790038
-0.562916
-0.424403
-0.31154
-0.0213561
-0.112488
-19.3866
-19.6117
-19.8722
-20.1461
-20.4226
-20.6755
-20.8755
-21.073
-21.0069
-20.6504
-20.1169
-19.0765
-17.819
-16.4091
-14.9268
-13.4201
-11.9227
-10.4607
-9.06924
-7.75925
-6.57131
-5.51821
-4.59181
-3.7933
-3.11247
-2.53756
-2.05243
-1.64021
-1.29822
-1.0064
-0.775732
-0.556223
-0.399949
-0.301714
-0.0236856
-0.106544
-19.3984
-19.6152
-19.8692
-20.1398
-20.4143
-20.6661
-20.8659
-21.0683
-21.0221
-20.6328
-20.0338
-19.0355
-17.7896
-16.3858
-14.9031
-13.3928
-11.8939
-10.4388
-9.05345
-7.75876
-6.57302
-5.51265
-4.58907
-3.78872
-3.0937
-2.52181
-2.0352
-1.62364
-1.27971
-0.989472
-0.749518
-0.548557
-0.379784
-0.279673
-0.0198501
-0.0934816
-19.4138
-19.6174
-19.8652
-20.1342
-20.4089
-20.6616
-20.8625
-21.0539
-20.9626
-20.7131
-20.1646
-19.2495
-18.0513
-16.6702
-15.1941
-13.6783
-12.1666
-10.6937
-9.28941
-7.97726
-6.77675
-5.67507
-4.71666
-3.89444
-3.17354
-2.58204
-2.07746
-1.65444
-1.30392
-1.0072
-0.758645
-0.545548
-0.36995
-0.229231
-0.103112
-0.0718638
-19.4304
-19.6105
-19.8588
-20.13
-20.4075
-20.6645
-20.8706
-21.0736
-20.9716
-20.7056
-20.1527
-19.2508
-18.0562
-16.6816
-15.2091
-13.6953
-12.1849
-10.7145
-9.31415
-8.00441
-6.80782
-5.69801
-4.73965
-3.91416
-3.19619
-2.60032
-2.09436
-1.67421
-1.32011
-1.02131
-0.766464
-0.550443
-0.37581
-0.226801
-0.103346
-0.0755334
-20.7469
-20.0748
-19.1549
-17.892
-16.5015
-15.0384
-13.5473
-12.0576
-10.6119
-9.23566
-7.95517
-6.78448
-5.73618
-4.81759
-4.01654
-3.32538
-2.73586
-2.23642
-1.81282
-1.45665
-1.15137
-0.892608
-0.678916
-0.516281
-19.454
-19.654
-19.8918
-20.1623
-20.4483
-20.7184
-20.9339
-21.0928
-21.0888
-20.7558
-20.1132
-19.1488
-17.8935
-16.5004
-15.0369
-13.5462
-12.0587
-10.6129
-9.23485
-7.95118
-6.77825
-5.73258
-4.8141
-4.01172
-3.31785
-2.72682
-2.22534
-1.80126
-1.44327
-1.14019
-0.882859
-0.668932
-0.472915
-0.362034
-0.0432994
-0.0393385
-19.4601
-19.6568
-19.8954
-20.1658
-20.4511
-20.7187
-20.9293
-21.0899
-21.0692
-20.7398
-20.1352
-19.1524
-17.9018
-16.512
-15.0506
-13.5617
-12.0754
-10.6247
-9.24547
-7.95723
-6.78502
-5.74408
-4.82581
-4.02438
-3.3306
-2.74
-2.2385
-1.81142
-1.452
-1.14584
-0.890469
-0.674961
-0.489217
-0.329073
-0.210561
0.0403367
-19.468
-19.6617
-19.9004
-20.1714
-20.4562
-20.721
-20.9261
-21.0833
-21.0533
-20.7469
-20.1582
-19.1617
-17.913
-16.5263
-15.0679
-13.5838
-12.0977
-10.6305
-9.24264
-7.96244
-6.79488
-5.75613
-4.8404
-4.03737
-3.34257
-2.75353
-2.25095
-1.82204
-1.46132
-1.15303
-0.896925
-0.680404
-0.500716
-0.329427
-0.218943
0.0773408
-19.4744
-19.6675
-19.9063
-20.1772
-20.4611
-20.7232
-20.9228
-21.0726
-21.0327
-20.7363
-20.1665
-19.1639
-17.9154
-16.5266
-15.0693
-13.5876
-12.0989
-10.624
-9.23302
-7.95511
-6.78881
-5.75213
-4.83775
-4.0337
-3.34013
-2.75358
-2.2515
-1.82252
-1.46174
-1.15219
-0.897428
-0.678598
-0.507626
-0.335183
-0.225963
0.0867893
-19.4859
-19.6762
-19.9128
-20.1816
-20.464
-20.7237
-20.9186
-21.0629
-21.0215
-20.7284
-20.1702
-19.1664
-17.9189
-16.5293
-15.0723
-13.5906
-12.0994
-10.6209
-9.22783
-7.94951
-6.78344
-5.74832
-4.83456
-4.03062
-3.33936
-2.75611
-2.25462
-1.82542
-1.46472
-1.15461
-0.900153
-0.679014
-0.510865
-0.337141
-0.230786
0.0891383
-19.496
-19.684
-19.9172
-20.1837
-20.4649
-20.7226
-20.9138
-21.0548
-21.0138
-20.7211
-20.1675
-19.1675
-17.9215
-16.5324
-15.0749
-13.5915
-12.0979
-10.618
-9.22389
-7.9446
-6.77845
-5.74372
-4.83038
-4.02761
-3.33747
-2.75412
-2.25289
-1.82419
-1.46387
-1.1542
-0.900395
-0.679419
-0.511588
-0.336608
-0.232641
0.0889534
-19.5046
-19.6883
-19.9182
-20.1831
-20.4635
-20.7198
-20.9088
-21.0485
-21.0087
-20.7166
-20.1596
-19.1659
-17.9224
-16.5356
-15.0769
-13.5909
-12.0956
-10.6166
-9.2233
-7.94378
-6.77741
-5.74169
-4.82856
-4.02488
-3.33323
-2.7494
-2.24937
-1.82247
-1.46273
-1.15354
-0.898597
-0.678958
-0.508733
-0.335431
-0.231927
0.08641
-19.5101
-19.6893
-19.9168
-20.1806
-20.4594
-20.7141
-20.903
-21.0436
-21.0083
-20.7223
-20.1529
-19.1643
-17.9228
-16.54
-15.0788
-13.5884
-12.0923
-10.6175
-9.22673
-7.94511
-6.7786
-5.74091
-4.8271
-4.02482
-3.33291
-2.74683
-2.24561
-1.81832
-1.45841
-1.15112
-0.896125
-0.681039
-0.504888
-0.331252
-0.231042
0.0810247
-19.5157
-19.6896
-19.9139
-20.1767
-20.4529
-20.7055
-20.8951
-21.0367
-21.0046
-20.7174
-20.1341
-19.1553
-17.9146
-16.532
-15.067
-13.5696
-12.0738
-10.612
-9.22541
-7.93722
-6.76944
-5.72925
-4.81351
-4.01493
-3.32444
-2.73606
-2.23454
-1.80788
-1.44907
-1.14456
-0.891049
-0.676154
-0.4938
-0.332616
-0.236123
0.0672694
-19.5237
-19.6911
-19.9099
-20.1707
-20.4454
-20.6972
-20.8881
-21.0326
-21.0046
-20.7033
-20.1078
-19.1449
-17.9057
-16.5216
-15.055
-13.5542
-12.0579
-10.6006
-9.21567
-7.93079
-6.7643
-5.72118
-4.80453
-4.00406
-3.30916
-2.72201
-2.22151
-1.79643
-1.43774
-1.13521
-0.87886
-0.667853
-0.483897
-0.337075
-0.235805
0.026638
-19.5325
-19.6924
-19.9053
-20.164
-20.4397
-20.694
-20.8884
-21.0363
-21.0167
-20.7032
-20.0955
-19.144
-17.9012
-16.5164
-15.0483
-13.5456
-12.0487
-10.5927
-9.20956
-7.92905
-6.76406
-5.71817
-4.7994
-3.99857
-3.30637
-2.71924
-2.21958
-1.79686
-1.43899
-1.13759
-0.8774
-0.668462
-0.472867
-0.364715
-0.0487403
-0.0723078
-19.5367
-19.6909
-19.9015
-20.1598
-20.4374
-20.695
-20.8939
-21.0419
-21.0146
-20.7099
-20.1128
-19.1575
-17.9048
-16.5187
-15.0493
-13.5453
-12.0469
-10.5898
-9.20693
-7.92894
-6.76469
-5.71933
-4.80095
-4.00245
-3.31399
-2.72915
-2.23112
-1.80991
-1.45176
-1.14963
-0.885828
-0.677344
-0.471531
-0.382434
-0.0133812
-0.0443963
-20.4478
-19.729
-18.8754
-17.7245
-16.4019
-14.9961
-13.538
-12.0692
-10.639
-9.28064
-8.01966
-6.87054
-5.84347
-4.94263
-4.1493
-3.46461
-2.87555
-2.37687
-1.94506
-1.58275
-1.26306
-1.00769
-0.759397
-0.617947
-19.5266
-19.6672
-19.9043
-20.1809
-20.4626
-20.7246
-20.9286
-21.0451
-20.882
-20.4924
-19.7835
-18.9168
-17.7616
-16.4305
-15.0177
-13.5565
-12.0841
-10.6477
-9.28233
-8.0187
-6.86904
-5.84571
-4.94316
-4.15017
-3.46093
-2.87207
-2.36849
-1.93886
-1.57231
-1.25997
-0.994976
-0.768024
-0.558678
-0.450353
-0.0988326
-0.0264984
-19.5362
-19.673
-19.9063
-20.1799
-20.4606
-20.7181
-20.9167
-21.0282
-20.8661
-20.4963
-19.7781
-18.9033
-17.7584
-16.4298
-15.0118
-13.5492
-12.0757
-10.6329
-9.26871
-8.00824
-6.86424
-5.84417
-4.94179
-4.15118
-3.46306
-2.87366
-2.36888
-1.93832
-1.57078
-1.2572
-0.992411
-0.763976
-0.569292
-0.387151
-0.245439
-0.0414176
-19.5456
-19.6773
-19.9106
-20.1882
-20.4668
-20.7186
-20.9079
-21.0121
-20.8539
-20.5004
-19.7864
-18.9085
-17.7609
-16.4295
-15.0092
-13.546
-12.0686
-10.6185
-9.25963
-8.00895
-6.86849
-5.84959
-4.94596
-4.1534
-3.46573
-2.87755
-2.37273
-1.94111
-1.5732
-1.25813
-0.992983
-0.761969
-0.569953
-0.377989
-0.245581
-0.0353853
-19.5505
-19.6774
-19.9172
-20.1972
-20.4741
-20.7233
-20.9039
-21.0002
-20.8415
-20.496
-19.7947
-18.9139
-17.7594
-16.4242
-15.0028
-13.5374
-12.0578
-10.6099
-9.25642
-8.00859
-6.86834
-5.84849
-4.94487
-4.15127
-3.46328
-2.87546
-2.37049
-1.939
-1.57097
-1.25586
-0.99172
-0.759501
-0.570715
-0.376738
-0.24592
-0.0307455
-19.5575
-19.6847
-19.9244
-20.2001
-20.4772
-20.726
-20.9001
-20.9896
-20.83
-20.4915
-19.7981
-18.9178
-17.7606
-16.4237
-15.002
-13.5351
-12.0539
-10.6084
-9.25522
-8.00764
-6.86854
-5.84844
-4.94542
-4.15152
-3.46176
-2.87335
-2.36822
-1.93733
-1.56951
-1.25523
-0.992179
-0.760558
-0.573308
-0.377824
-0.248346
-0.0299114
-19.5661
-19.6932
-19.9285
-20.2003
-20.4789
-20.725
-20.8944
-20.9801
-20.8193
-20.4858
-19.7976
-18.9201
-17.7648
-16.4281
-15.005
-13.5357
-12.0522
-10.6066
-9.25209
-8.00378
-6.86479
-5.84465
-4.94196
-4.14729
-3.45734
-2.87005
-2.36537
-1.93487
-1.56729
-1.25353
-0.990809
-0.759835
-0.572766
-0.377297
-0.249433
-0.0300039
-19.5767
-19.6979
-19.9264
-20.1993
-20.48
-20.7229
-20.8879
-20.9705
-20.8115
-20.4825
-19.7926
-18.9199
-17.7714
-16.4373
-15.0126
-13.5407
-12.0544
-10.6053
-9.24977
-8.0008
-6.86106
-5.84064
-4.9378
-4.14498
-3.45742
-2.87052
-2.36537
-1.93444
-1.56694
-1.25337
-0.990672
-0.759657
-0.571242
-0.376225
-0.249683
-0.0318527
-19.5827
-19.6979
-19.925
-20.1984
-20.4756
-20.7164
-20.8799
-20.9607
-20.8056
-20.4821
-19.7891
-18.9212
-17.78
-16.4486
-15.0212
-13.547
-12.0586
-10.605
-9.24631
-7.99646
-6.85595
-5.83519
-4.93275
-4.14116
-3.45557
-2.86934
-2.3649
-1.9345
-1.56713
-1.2536
-0.989295
-0.758934
-0.568274
-0.37438
-0.249351
-0.0348798
-19.5901
-19.6911
-19.9213
-20.1989
-20.4672
-20.7039
-20.8707
-20.9526
-20.8005
-20.472
-19.7805
-18.9195
-17.7859
-16.4557
-15.0258
-13.5495
-12.0622
-10.6085
-9.24299
-7.98726
-6.84764
-5.82777
-4.92614
-4.13681
-3.45234
-2.86563
-2.36186
-1.93156
-1.56459
-1.25204
-0.987253
-0.758517
-0.566271
-0.378049
-0.255007
-0.0416819
-19.5995
-19.6923
-19.9141
-20.193
-20.4592
-20.6948
-20.8646
-20.9485
-20.7942
-20.4497
-19.7637
-18.9155
-17.7893
-16.4602
-15.0292
-13.5512
-12.0653
-10.6138
-9.24269
-7.98255
-6.84361
-5.82306
-4.92229
-4.13494
-3.44966
-2.86265
-2.35875
-1.92896
-1.56165
-1.25058
-0.983518
-0.759751
-0.565773
-0.389431
-0.264522
-0.0519175
-19.6071
-19.6942
-19.9034
-20.1827
-20.4562
-20.698
-20.8707
-20.9561
-20.7845
-20.43
-19.7513
-18.9091
-17.7839
-16.4607
-15.0316
-13.5534
-12.0688
-10.6212
-9.25048
-7.99119
-6.85176
-5.83009
-4.9271
-4.13985
-3.45476
-2.86805
-2.36326
-1.93457
-1.56604
-1.25599
-0.983889
-0.769197
-0.559866
-0.449003
-0.103309
-0.0427985
-19.6021
-19.6901
-19.9004
-20.1804
-20.4603
-20.7062
-20.8823
-20.9715
-20.7748
-20.4178
-19.7331
-18.895
-17.7701
-16.4517
-15.0249
-13.548
-12.0649
-10.6212
-9.25452
-7.99981
-6.86126
-5.83934
-4.93582
-4.14904
-3.46505
-2.87913
-2.37375
-1.94525
-1.575
-1.26419
-0.989222
-0.773766
-0.558811
-0.480417
-0.0715494
-0.0035881
-19.7406
-18.6902
-18.074
-17.1852
-15.9838
-14.6521
-13.2745
-11.8959
-10.5522
-9.25894
-8.06138
-6.98143
-5.99828
-5.11721
-4.33591
-3.66154
-3.07169
-2.56703
-2.12157
-1.73983
-1.40209
-1.11181
-0.854569
-0.609877
-19.4088
-19.5921
-19.7623
-19.9461
-20.1848
-20.4137
-20.5769
-20.5467
-20.1723
-19.8116
-18.7016
-18.0802
-17.1972
-15.9976
-14.6669
-13.2874
-11.9068
-10.561
-9.26467
-8.06512
-6.98157
-6.00233
-5.11769
-4.34001
-3.66214
-3.07467
-2.56276
-2.12011
-1.7342
-1.40034
-1.10773
-0.847747
-0.613789
-0.39886
-0.0409984
-0.0129521
-19.3979
-19.6016
-19.7452
-19.919
-20.1699
-20.3885
-20.5495
-20.5111
-20.1248
-19.8007
-18.6612
-18.0426
-17.1611
-15.9583
-14.6361
-13.2701
-11.8956
-10.5459
-9.25694
-8.06077
-6.98398
-6.00706
-5.12413
-4.34698
-3.67091
-3.07899
-2.56481
-2.11975
-1.73376
-1.39802
-1.10748
-0.849628
-0.623902
-0.416357
-0.240803
-0.0703576
-19.4332
-19.5996
-19.7519
-19.9391
-20.1815
-20.3882
-20.533
-20.4744
-20.1006
-19.7948
-18.6468
-18.044
-17.146
-15.9422
-14.6254
-13.2646
-11.89
-10.5377
-9.25177
-8.06348
-6.99265
-6.01832
-5.13405
-4.3548
-3.67702
-3.0849
-2.56968
-2.12375
-1.7369
-1.40045
-1.10944
-0.852239
-0.63061
-0.419383
-0.245061
-0.0739288
-19.4538
-19.5918
-19.7791
-19.9562
-20.1926
-20.4009
-20.5308
-20.4621
-20.0951
-19.7789
-18.6518
-18.0496
-17.138
-15.9312
-14.6158
-13.2554
-11.8811
-10.5278
-9.24507
-8.06429
-6.99664
-6.02136
-5.13761
-4.3579
-3.67922
-3.08627
-2.57081
-2.12426
-1.73641
-1.40082
-1.11033
-0.852831
-0.632774
-0.422015
-0.251412
-0.0773467
-19.444
-19.6075
-19.7881
-19.9582
-20.1979
-20.4113
-20.5328
-20.4523
-20.0853
-19.7759
-18.6542
-18.0541
-17.1367
-15.9285
-14.6132
-13.253
-11.877
-10.524
-9.24307
-8.06686
-7.00141
-6.02596
-5.14363
-4.3633
-3.68071
-3.08467
-2.56894
-2.12283
-1.73514
-1.40021
-1.11134
-0.856073
-0.638224
-0.428474
-0.258349
-0.0796836
-19.4442
-19.6236
-19.7975
-19.9553
-20.2018
-20.4098
-20.5282
-20.4468
-20.0704
-19.7704
-18.6554
-18.0562
-17.1398
-15.9311
-14.6147
-13.2525
-11.8747
-10.5214
-9.23751
-8.0652
-7.00005
-6.02334
-5.14076
-4.3582
-3.67482
-3.08202
-2.5673
-2.12119
-1.73372
-1.39889
-1.11028
-0.855249
-0.639228
-0.429643
-0.259336
-0.0800946
-19.4737
-19.6187
-19.7933
-19.9527
-20.2071
-20.4082
-20.5211
-20.4347
-20.052
-19.7827
-18.6477
-18.0578
-17.1484
-15.9407
-14.6222
-13.2572
-11.8777
-10.5221
-9.23709
-8.05983
-6.99425
-6.01818
-5.13561
-4.35734
-3.67906
-3.08623
-2.56895
-2.12053
-1.73275
-1.39854
-1.11134
-0.85672
-0.639506
-0.429158
-0.259173
-0.0802375
-19.4815
-19.6249
-19.7918
-19.9543
-20.2002
-20.4031
-20.5114
-20.4161
-20.0277
-19.7872
-18.638
-18.0489
-17.1549
-15.9497
-14.6281
-13.2598
-11.8796
-10.524
-9.23441
-8.05205
-6.98244
-6.00979
-5.12809
-4.35038
-3.6741
-3.08311
-2.56755
-2.12105
-1.73442
-1.39951
-1.11039
-0.854283
-0.635725
-0.424424
-0.254259
-0.0792144
-19.532
-19.5964
-19.7943
-19.9621
-20.1807
-20.3829
-20.501
-20.3996
-19.999
-19.7933
-18.6373
-18.0357
-17.1597
-15.9584
-14.6334
-13.2624
-11.8806
-10.5274
-9.2363
-8.0446
-6.9726
-6.00367
-5.12317
-4.34509
-3.66986
-3.08036
-2.56551
-2.11941
-1.73307
-1.39776
-1.10839
-0.853594
-0.633846
-0.422591
-0.251372
-0.0786603
-19.5385
-19.6031
-19.7804
-19.9567
-20.1691
-20.3657
-20.4882
-20.3858
-19.9766
-19.7878
-18.632
-18.0272
-17.1661
-15.9671
-14.6382
-13.2634
-11.8812
-10.5282
-9.23604
-8.0383
-6.96546
-5.99521
-5.11678
-4.34105
-3.66709
-3.07757
-2.56239
-2.11664
-1.73042
-1.39586
-1.10678
-0.853565
-0.630225
-0.41768
-0.248733
-0.077442
-19.573
-19.5889
-19.7506
-19.9427
-20.1746
-20.3763
-20.4963
-20.4054
-19.9964
-19.7617
-18.6378
-18.0285
-17.1741
-15.9756
-14.6446
-13.2673
-11.8855
-10.5335
-9.23755
-8.04119
-6.96601
-5.99747
-5.11788
-4.34448
-3.66757
-3.07997
-2.5629
-2.12091
-1.73181
-1.4004
-1.10641
-0.855845
-0.629319
-0.392394
-0.0658745
-0.03442
-19.5612
-19.5952
-19.7667
-19.9549
-20.1964
-20.395
-20.5186
-20.4537
-20.0276
-19.7632
-18.6377
-18.0268
-17.1721
-15.9723
-14.6402
-13.2617
-11.8805
-10.5319
-9.23693
-8.04135
-6.9681
-6.0015
-5.12264
-4.34895
-3.67107
-3.08424
-2.56729
-2.12641
-1.73612
-1.40481
-1.10722
-0.858021
-0.627561
-0.406855
-0.0301528
0.00649344
-18.4793
-17.9448
-17.313
-16.4214
-15.3201
-14.1284
-12.9103
-11.6945
-10.4751
-9.27886
-8.1827
-7.20974
-6.29841
-5.43313
-4.66349
-4.00019
-3.40126
-2.87424
-2.39899
-1.98672
-1.61361
-1.2918
-1.01279
-0.743236
-17.913
-17.8515
-17.8078
-17.6771
-17.5114
-18.2117
-18.7845
-19.0847
-19.3942
-19.6491
-19.8278
-19.871
-19.7357
-19.2592
-18.4546
-17.9394
-17.3075
-16.42
-15.3254
-14.1353
-12.9178
-11.6966
-10.4901
-9.29134
-8.18227
-7.20442
-6.30213
-5.44361
-4.66781
-3.99632
-3.40443
-2.87327
-2.40382
-1.98514
-1.61865
-1.2874
-0.999332
-0.738543
-0.507295
-0.333277
-0.105641
-17.8781
-17.875
-17.837
-17.7324
-17.6207
-18.1743
-18.7843
-19.1445
-19.4359
-19.6699
-19.8343
-19.9058
-19.7
-19.2444
-18.44
-17.9279
-17.2998
-16.418
-15.3185
-14.1346
-12.9151
-11.6975
-10.4859
-9.2984
-8.17372
-7.20178
-6.30788
-5.44889
-4.66852
-3.9961
-3.40233
-2.87376
-2.40223
-1.9861
-1.61649
-1.28736
-0.994973
-0.736767
-0.500161
-0.294457
-0.116185
-17.8814
-17.8882
-17.859
-17.7651
-17.6505
-18.1981
-18.8012
-19.1673
-19.4445
-19.6899
-19.8518
-19.8784
-19.6738
-19.2337
-18.4054
-17.9008
-17.3018
-16.4241
-15.323
-14.1386
-12.9211
-11.702
-10.4886
-9.29748
-8.18002
-7.21047
-6.31601
-5.45415
-4.67486
-4.00066
-3.40509
-2.8763
-2.40398
-1.98957
-1.61839
-1.29356
-0.99456
-0.736705
-0.48895
-0.277894
-0.110316
-17.8909
-17.9005
-17.8763
-17.7859
-17.6606
-18.253
-18.819
-19.1814
-19.4498
-19.6946
-19.8637
-19.8695
-19.6654
-19.2237
-18.3917
-17.8935
-17.3024
-16.4342
-15.3288
-14.144
-12.924
-11.7054
-10.4854
-9.29263
-8.18357
-7.21765
-6.31617
-5.45289
-4.67453
-4.00313
-3.4057
-2.87697
-2.40314
-1.98954
-1.619
-1.29433
-0.992669
-0.729944
-0.48105
-0.270627
-0.108399
-17.9006
-17.9119
-17.8918
-17.8117
-17.7093
-18.235
-18.8229
-19.1839
-19.4592
-19.7093
-19.8624
-19.8613
-19.667
-19.2195
-18.3842
-17.8895
-17.3035
-16.4368
-15.3318
-14.1461
-12.9269
-11.7067
-10.4867
-9.29299
-8.18957
-7.22299
-6.31884
-5.45594
-4.68
-4.00739
-3.40817
-2.87869
-2.40451
-1.99142
-1.62084
-1.29661
-0.994452
-0.730638
-0.479478
-0.271497
-0.111265
-17.9084
-17.9209
-17.9045
-17.833
-17.7476
-18.244
-18.8252
-19.2096
-19.4938
-19.7197
-19.8696
-19.8553
-19.6695
-19.2093
-18.3783
-17.8844
-17.3048
-16.4424
-15.3356
-14.1487
-12.9277
-11.707
-10.4869
-9.27946
-8.19096
-7.22999
-6.31366
-5.45195
-4.67742
-4.00635
-3.40613
-2.87642
-2.40228
-1.98951
-1.61916
-1.29542
-0.993086
-0.730181
-0.478828
-0.269438
-0.10856
-17.913
-17.926
-17.9104
-17.8434
-17.7678
-18.2656
-18.8448
-19.2327
-19.4976
-19.7141
-19.8655
-19.8526
-19.667
-19.2082
-18.3751
-17.8816
-17.3055
-16.437
-15.3328
-14.1462
-12.9254
-11.7048
-10.483
-9.28489
-8.18591
-7.22108
-6.31431
-5.45112
-4.67601
-4.00589
-3.40717
-2.87774
-2.40302
-1.99043
-1.61991
-1.29687
-0.995363
-0.733628
-0.48209
-0.273843
-0.112152
-17.9143
-17.927
-17.9095
-17.8377
-17.7441
-18.272
-18.8446
-19.2052
-19.4788
-19.7093
-19.8601
-19.8536
-19.6541
-19.1998
-18.3898
-17.8824
-17.2933
-16.4266
-15.3272
-14.1421
-12.9204
-11.6992
-10.4857
-9.28349
-8.17685
-7.20835
-6.30614
-5.4528
-4.67185
-3.99905
-3.40204
-2.87495
-2.40122
-1.98926
-1.61837
-1.29572
-0.994588
-0.734818
-0.482725
-0.275801
-0.113679
-17.9134
-17.9249
-17.9043
-17.8249
-17.7202
-18.3246
-18.8582
-19.1938
-19.4547
-19.6949
-19.8498
-19.8495
-19.6439
-19.1834
-18.4312
-17.885
-17.2711
-16.4118
-15.3211
-14.1368
-12.9161
-11.693
-10.4858
-9.28818
-8.1688
-7.19382
-6.30292
-5.45468
-4.6712
-3.99534
-3.39984
-2.87374
-2.40165
-1.98991
-1.61796
-1.29724
-0.996277
-0.74151
-0.489345
-0.283942
-0.116905
-17.9125
-17.9204
-17.8954
-17.8125
-17.7073
-18.3242
-18.8535
-19.187
-19.441
-19.6812
-19.8411
-19.8397
-19.6317
-19.173
-18.4634
-17.8846
-17.2553
-16.3966
-15.3107
-14.1282
-12.9076
-11.6859
-10.4789
-9.29286
-8.15872
-7.1829
-6.30058
-5.4513
-4.66911
-3.99201
-3.39763
-2.87178
-2.40093
-1.98815
-1.61728
-1.29565
-0.999984
-0.746801
-0.497495
-0.295677
-0.117792
-17.9195
-17.9132
-17.8821
-17.7915
-17.6979
-18.306
-18.8436
-19.1685
-19.4226
-19.6665
-19.8226
-19.8459
-19.6369
-19.1765
-18.4601
-17.8966
-17.2617
-16.3997
-15.3144
-14.1285
-12.9095
-11.686
-10.484
-9.2863
-8.16416
-7.18577
-6.29858
-5.45309
-4.67127
-3.99327
-3.40231
-2.87413
-2.40541
-1.98863
-1.62099
-1.29217
-1.00098
-0.760868
-0.500484
-0.339571
-0.126761
-17.9848
-17.8972
-17.8645
-17.7503
-17.6138
-18.3452
-18.8495
-19.1244
-19.3867
-19.6436
-19.8152
-19.8218
-19.6443
-19.1981
-18.4364
-17.8988
-17.2635
-16.3918
-15.3058
-14.119
-12.9022
-11.6784
-10.4804
-9.28336
-8.16292
-7.18377
-6.29847
-5.45443
-4.6729
-3.99449
-3.40516
-2.8755
-2.4086
-1.989
-1.62336
-1.29067
-1.0038
-0.772381
-0.509144
-0.347973
-0.100476
-18.011
-17.4225
-16.7067
-15.8364
-14.8439
-13.7824
-12.6797
-11.5666
-10.4536
-9.37656
-8.35373
-7.41011
-6.52497
-5.70295
-4.9499
-4.27734
-3.66818
-3.12269
-2.63208
-2.19502
-1.79936
-1.4431
-1.13521
-0.846693
-17.9422
-17.9293
-17.9141
-17.9055
-17.9858
-18.299
-18.6422
-18.8831
-19.0636
-19.1956
-19.2573
-19.2205
-19.061
-18.6454
-17.9784
-17.4292
-16.7059
-15.834
-14.8458
-13.783
-12.6832
-11.5666
-10.458
-9.37703
-8.35479
-7.40676
-6.52591
-5.70364
-4.95152
-4.2772
-3.6699
-3.1238
-2.63271
-2.19564
-1.79825
-1.43907
-1.11064
-0.827013
-0.58839
-0.385902
-0.15387
-17.9423
-17.9373
-17.9267
-17.9251
-18.0097
-18.3092
-18.6503
-18.8969
-19.0733
-19.1988
-19.2601
-19.2201
-19.0551
-18.6338
-17.9762
-17.436
-16.7106
-15.8363
-14.844
-13.7832
-12.6807
-11.5664
-10.4546
-9.37669
-8.35107
-7.40432
-6.52386
-5.70438
-4.94925
-4.27751
-3.66808
-3.12481
-2.63099
-2.19579
-1.79741
-1.43829
-1.10561
-0.821727
-0.563691
-0.336446
-0.145665
-17.9486
-17.9472
-17.9412
-17.9446
-18.0301
-18.3242
-18.6628
-18.91
-19.0835
-19.2083
-19.2622
-19.2156
-19.0478
-18.6166
-17.9587
-17.4379
-16.7221
-15.8418
-14.8472
-13.7835
-12.683
-11.5661
-10.4555
-9.37571
-8.35313
-7.4061
-6.52668
-5.70599
-4.95151
-4.27836
-3.6692
-3.12529
-2.63203
-2.19703
-1.79988
-1.44578
-1.11305
-0.822491
-0.558918
-0.325673
-0.137979
-17.9575
-17.9575
-17.9546
-17.9608
-18.0467
-18.3402
-18.6761
-18.9204
-19.0926
-19.2179
-19.265
-19.2125
-19.042
-18.6081
-17.9485
-17.4422
-16.7349
-15.8523
-14.8505
-13.7859
-12.6816
-11.5646
-10.4503
-9.37196
-8.34954
-7.4057
-6.52383
-5.70458
-4.94871
-4.27693
-3.66625
-3.12362
-2.63014
-2.19699
-1.79933
-1.44754
-1.11555
-0.817821
-0.546486
-0.316342
-0.135066
-17.9659
-17.967
-17.9668
-17.977
-18.0651
-18.3529
-18.6851
-18.9282
-19.0954
-19.2181
-19.2674
-19.2104
-19.039
-18.6054
-17.9439
-17.4411
-16.7394
-15.8551
-14.8533
-13.7873
-12.684
-11.5654
-10.4519
-9.37282
-8.35267
-7.40868
-6.52599
-5.70608
-4.95143
-4.27874
-3.66755
-3.12442
-2.63134
-2.19835
-1.80121
-1.44956
-1.11986
-0.82337
-0.548092
-0.312053
-0.130698
-17.9727
-17.9748
-17.9768
-17.9901
-18.0806
-18.3636
-18.6917
-18.9356
-19.098
-19.2169
-19.2676
-19.207
-19.0319
-18.6072
-17.944
-17.4443
-16.7432
-15.8594
-14.8543
-13.7878
-12.6822
-11.5637
-10.4485
-9.36864
-8.34746
-7.40856
-6.5228
-5.70323
-4.94821
-4.27575
-3.66403
-3.12151
-2.62869
-2.19631
-1.79948
-1.44866
-1.11956
-0.825244
-0.547501
-0.311848
-0.131803
-17.9768
-17.9793
-17.9817
-17.9966
-18.0885
-18.3711
-18.6972
-18.9402
-19.1005
-19.2161
-19.2656
-19.2037
-19.0274
-18.5939
-17.9399
-17.4382
-16.7336
-15.8515
-14.8503
-13.7841
-12.6801
-11.5618
-10.4478
-9.3679
-8.34779
-7.4064
-6.52343
-5.70403
-4.94908
-4.27738
-3.66688
-3.12454
-2.63133
-2.19894
-1.80186
-1.45132
-1.12284
-0.829983
-0.555839
-0.315224
-0.13009
-17.9786
-17.9807
-17.9826
-17.9964
-18.0881
-18.375
-18.7011
-18.9394
-19.0991
-19.2155
-19.2616
-19.1989
-19.0205
-18.5892
-17.9369
-17.4259
-16.7181
-15.8436
-14.8465
-13.7822
-12.6777
-11.5609
-10.4475
-9.36794
-8.34304
-7.4023
-6.51945
-5.70292
-4.9471
-4.27569
-3.66572
-3.12435
-2.63078
-2.19872
-1.80124
-1.45095
-1.12121
-0.82726
-0.554894
-0.317099
-0.132618
-17.9783
-17.9794
-17.9797
-17.9915
-18.084
-18.3787
-18.7032
-18.9348
-19.0947
-19.2146
-19.2549
-19.1928
-19.0133
-18.5872
-17.9365
-17.4059
-16.6993
-15.8341
-14.845
-13.7812
-12.6783
-11.5611
-10.4501
-9.36972
-8.34265
-7.39888
-6.51954
-5.70396
-4.94916
-4.2768
-3.66835
-3.12713
-2.6338
-2.20096
-1.80384
-1.45337
-1.1229
-0.829706
-0.563128
-0.328155
-0.135086
-17.977
-17.9765
-17.9739
-17.9839
-18.0777
-18.376
-18.6995
-18.9282
-19.0889
-19.2066
-19.2488
-19.1892
-19.0095
-18.5943
-17.9379
-17.392
-16.6771
-15.8185
-14.8345
-13.7737
-12.6723
-11.5573
-10.4478
-9.36911
-8.3416
-7.39495
-6.51883
-5.70361
-4.94925
-4.27705
-3.66902
-3.12782
-2.63436
-2.20084
-1.80334
-1.45291
-1.12626
-0.839623
-0.572624
-0.339201
-0.138409
-17.977
-17.9727
-17.9665
-17.9736
-18.0679
-18.3707
-18.6931
-18.9199
-19.0812
-19.1947
-19.2448
-19.1881
-19.0106
-18.5902
-17.9412
-17.3949
-16.6815
-15.8201
-14.8381
-13.7749
-12.6754
-11.5581
-10.452
-9.36916
-8.34428
-7.39605
-6.52192
-5.70515
-4.95277
-4.27894
-3.67268
-3.12969
-2.63746
-2.20222
-1.80431
-1.4512
-1.1223
-0.844676
-0.577413
-0.381108
-0.164902
-17.9819
-17.9689
-17.961
-17.9641
-18.055
-18.3674
-18.689
-18.9108
-19.0729
-19.188
-19.2414
-19.1874
-19.013
-18.5872
-17.9212
-17.3776
-16.6666
-15.8067
-14.8281
-13.7673
-12.6702
-11.554
-10.4501
-9.36789
-8.34464
-7.39577
-6.52263
-5.70623
-4.95439
-4.28004
-3.67432
-3.13028
-2.63903
-2.20216
-1.80495
-1.44901
-1.12113
-0.850498
-0.591778
-0.395945
-0.151523
-17.4108
-16.8045
-16.1305
-15.3408
-14.4498
-13.4851
-12.4775
-11.4518
-10.428
-9.42424
-8.45788
-7.55018
-6.6987
-5.90388
-5.16592
-4.49621
-3.88503
-3.33247
-2.82917
-2.37475
-1.95962
-1.58514
-1.2524
-0.937336
-17.9958
-17.9968
-18.0063
-18.0407
-18.1339
-18.3068
-18.5069
-18.6732
-18.788
-18.8447
-18.8296
-18.7253
-18.5185
-18.106
-17.3953
-16.8131
-16.1309
-15.3379
-14.4492
-13.485
-12.4796
-11.453
-10.431
-9.42697
-8.46178
-7.55092
-6.70234
-5.9062
-5.1709
-4.49761
-3.88933
-3.33333
-2.83342
-2.37496
-1.96357
-1.58083
-1.23715
-0.907403
-0.649441
-0.427433
-0.164212
-17.9994
-18.002
-18.0139
-18.0508
-18.1441
-18.3144
-18.5134
-18.6799
-18.7936
-18.848
-18.831
-18.7252
-18.5186
-18.0957
-17.3997
-16.8178
-16.1279
-15.3373
-14.4468
-13.4849
-12.4771
-11.4523
-10.4275
-9.42574
-8.45725
-7.54873
-6.6981
-5.90583
-5.16675
-4.49739
-3.88443
-3.334
-2.82817
-2.37699
-1.9581
-1.58374
-1.23109
-0.921996
-0.627085
-0.370084
-0.143336
-18.0056
-18.0095
-18.0236
-18.0623
-18.1562
-18.3248
-18.5219
-18.6878
-18.8
-18.8523
-18.832
-18.7226
-18.5128
-18.0916
-17.3943
-16.8167
-16.131
-15.3397
-14.4513
-13.4874
-12.4821
-11.4544
-10.432
-9.42685
-8.46134
-7.55067
-6.70292
-5.90742
-5.17109
-4.49853
-3.88839
-3.33472
-2.83201
-2.378
-1.96284
-1.58653
-1.23883
-0.922348
-0.628898
-0.360881
-0.13572
-18.0129
-18.0176
-18.0332
-18.0736
-18.1678
-18.3352
-18.5308
-18.6951
-18.8055
-18.8561
-18.8332
-18.7209
-18.5088
-18.0845
-17.3906
-16.8194
-16.1336
-15.343
-14.4514
-13.4884
-12.48
-11.4531
-10.4278
-9.42361
-8.45623
-7.54861
-6.69845
-5.90474
-5.16607
-4.4961
-3.88381
-3.33282
-2.8283
-2.37693
-1.96036
-1.58672
-1.23692
-0.920293
-0.622646
-0.353296
-0.13322
-18.0199
-18.0252
-18.0421
-18.0839
-18.1784
-18.3444
-18.538
-18.7009
-18.8093
-18.858
-18.8336
-18.7188
-18.5045
-18.0805
-17.3901
-16.8189
-16.1361
-15.3442
-14.4542
-13.4899
-12.4829
-11.4545
-10.4304
-9.42459
-8.45933
-7.55099
-6.70144
-5.90629
-5.1688
-4.4981
-3.88645