/*--------------------------------*- C++ -*----------------------------------*\
  =========                 |
  \\      /  F ield         | OpenFOAM: The Open Source CFD Toolbox
   \\    /   O peration     | Website:  https://openfoam.org
    \\  /    A nd           | Version:  7
     \\/     M anipulation  |
\*---------------------------------------------------------------------------*/
FoamFile
{
    version     2.0;
    format      ascii;
    class       volVectorField;
    location    "800";
    object      U;
}
// * * * * * * * * * * * * * * * * * * * * * * * * * * * * * * * * * * * * * //

dimensions      [0 1 -1 0 0 0 0];

internalField   nonuniform List<vector> 
120313
(
(-2.92349 -0.0356078 0.00178679)
(-2.91986 -0.0240916 -0.0469592)
(-2.88403 -0.0334244 -0.0666747)
(-2.77238 -0.0369501 -0.0949072)
(-2.61616 -0.0420882 -0.114319)
(-2.42391 -0.0452338 -0.130378)
(-2.206 -0.0447502 -0.145305)
(-1.96705 -0.0464861 -0.160682)
(-1.71709 -0.0571699 -0.179003)
(-1.41528 -0.0647072 -0.197318)
(-1.06369 -0.0663066 -0.180576)
(-0.802678 -0.0624705 -0.172163)
(-0.495717 -0.0541105 -0.180045)
(-0.226771 -0.0511332 -0.182328)
(0.040692 -0.0491145 -0.18655)
(0.295467 -0.0471636 -0.162693)
(0.541549 -0.0459463 -0.140162)
(0.767518 -0.0438241 -0.130738)
(0.986768 -0.045596 -0.116998)
(1.17327 -0.0417308 -0.107511)
(1.37497 -0.0456765 -0.0945351)
(1.51159 -0.0391902 -0.0967776)
(1.71803 -0.0442556 -0.0883252)
(1.79483 -0.0379329 -0.0584339)
(-2.79526 -0.0111243 -0.0070297)
(-2.75628 -0.00502359 -0.0411861)
(-2.71986 -0.00781849 -0.0754832)
(-2.59742 -0.0102045 -0.108899)
(-2.43769 -0.0137113 -0.133334)
(-2.24299 -0.0156712 -0.155276)
(-2.03148 -0.0137347 -0.179782)
(-1.76719 -0.0143545 -0.204411)
(-1.43812 -0.0443453 -0.196898)
(-1.18857 -0.054457 -0.195121)
(-0.88133 -0.0473845 -0.200705)
(-0.607659 -0.0459325 -0.200134)
(-0.321361 -0.041471 -0.205166)
(-0.052369 -0.0399269 -0.215747)
(0.214967 -0.0384181 -0.197416)
(0.456121 -0.0393237 -0.165818)
(0.69759 -0.0359503 -0.153878)
(0.91455 -0.0340581 -0.145057)
(1.12905 -0.0339444 -0.132738)
(1.30731 -0.0327214 -0.12281)
(1.50808 -0.0328782 -0.111601)
(1.63579 -0.0320677 -0.106389)
(1.82676 -0.0334293 -0.0971496)
(1.85613 -0.0286001 -0.0630496)
(-2.7986 -0.0127247 -0.00468951)
(-2.75964 -0.0110074 -0.0454317)
(-2.71965 -0.0126387 -0.085173)
(-2.59351 -0.0141296 -0.119523)
(-2.42956 -0.0164404 -0.142656)
(-2.22954 -0.0193588 -0.165104)
(-2.01134 -0.0217982 -0.192508)
(-1.75403 -0.0266558 -0.222819)
(-1.41045 -0.0419671 -0.213961)
(-1.17349 -0.0456368 -0.204181)
(-0.857692 -0.044849 -0.214009)
(-0.585057 -0.043114 -0.214135)
(-0.299199 -0.0402872 -0.221993)
(-0.0316366 -0.0393012 -0.232461)
(0.240084 -0.0387141 -0.208691)
(0.474393 -0.0385146 -0.173754)
(0.718935 -0.034436 -0.161903)
(0.936299 -0.0322765 -0.153813)
(1.15152 -0.0310378 -0.140529)
(1.33293 -0.030275 -0.131232)
(1.53208 -0.029074 -0.118168)
(1.66671 -0.0295996 -0.115315)
(1.8511 -0.0285813 -0.103805)
(1.87076 -0.0257137 -0.0673222)
(-2.79588 -0.00336033 -0.00458485)
(-2.76116 -0.00179573 -0.0449082)
(-2.71896 -0.00231378 -0.0870508)
(-2.59078 -0.00345548 -0.122415)
(-2.42474 -0.00540989 -0.146308)
(-2.22249 -0.00793494 -0.169889)
(-2.00321 -0.0108552 -0.198688)
(-1.73833 -0.0167337 -0.22995)
(-1.40011 -0.0240179 -0.220816)
(-1.15893 -0.0252854 -0.210838)
(-0.841715 -0.026141 -0.222095)
(-0.56929 -0.0256582 -0.222014)
(-0.284252 -0.0249263 -0.230808)
(-0.0163242 -0.0243422 -0.2409)
(0.257661 -0.0236948 -0.214356)
(0.488603 -0.0229802 -0.177422)
(0.734512 -0.020558 -0.165583)
(0.951959 -0.019128 -0.157523)
(1.16772 -0.0181286 -0.144233)
(1.35095 -0.0174855 -0.13485)
(1.55019 -0.0166271 -0.12167)
(1.68786 -0.0166051 -0.119023)
(1.87086 -0.0154629 -0.106897)
(1.89074 -0.0162995 -0.0722226)
(-2.79476 -0.000519365 -0.00401623)
(-2.75571 0.000525864 -0.0468841)
(-2.71601 0.0013596 -0.0870017)
(-2.58795 0.00113038 -0.122443)
(-2.4218 0.000131171 -0.146547)
(-2.2191 -0.00126054 -0.170457)
(-1.99955 -0.00271056 -0.199646)
(-1.73148 -0.00426566 -0.230714)
(-1.39557 -0.00369388 -0.220645)
(-1.15201 -0.00472405 -0.211661)
(-0.835203 -0.00583607 -0.222088)
(-0.5618 -0.00575937 -0.222567)
(-0.277109 -0.0063658 -0.231671)
(-0.00890524 -0.00627929 -0.241469)
(0.265481 -0.00625553 -0.213382)
(0.495303 -0.00593931 -0.176106)
(0.741825 -0.00617507 -0.165299)
(0.959414 -0.00627578 -0.157205)
(1.17553 -0.00596873 -0.14403)
(1.35913 -0.00578071 -0.134635)
(1.55877 -0.00539111 -0.121536)
(1.69692 -0.00511984 -0.1189)
(1.87996 -0.00466497 -0.10696)
(1.90125 -0.00454117 -0.0749916)
(-2.78144 0.0104529 -0.00327738)
(-2.74905 0.0100068 -0.0435584)
(-2.70981 0.0119687 -0.0841884)
(-2.58399 0.0117838 -0.119404)
(-2.41951 0.0109877 -0.143264)
(-2.21812 0.010093 -0.166854)
(-1.99915 0.00841217 -0.195631)
(-1.7325 0.00711354 -0.225904)
(-1.39471 0.0164731 -0.216928)
(-1.15078 0.0172558 -0.208767)
(-0.835736 0.0148411 -0.218636)
(-0.560652 0.0145387 -0.219595)
(-0.276413 0.0121097 -0.227788)
(-0.00798074 0.0117842 -0.237374)
(0.265742 0.0116659 -0.209788)
(0.496605 0.0120797 -0.174026)
(0.742615 0.00965847 -0.164023)
(0.959962 0.00839121 -0.1554)
(1.17575 0.0082492 -0.142062)
(1.35812 0.00799975 -0.13237)
(1.55808 0.00802275 -0.119579)
(1.69447 0.00866279 -0.117136)
(1.87984 0.00933887 -0.106027)
(1.90011 0.00781897 -0.0692229)
(-2.76542 0.00924792 -0.00610985)
(-2.73232 0.00356415 -0.0399683)
(-2.69663 0.00606915 -0.0759681)
(-2.57512 0.00674557 -0.110248)
(-2.41496 0.00733602 -0.136012)
(-2.21867 0.00581495 -0.158964)
(-2.00645 1.23437e-05 -0.184662)
(-1.72667 -0.00253887 -0.209215)
(-1.40858 0.0252799 -0.202869)
(-1.14716 0.030038 -0.203284)
(-0.844618 0.0238996 -0.208206)
(-0.566815 0.0239169 -0.208779)
(-0.282323 0.0204383 -0.214913)
(-0.0128354 0.0201686 -0.224451)
(0.257955 0.0188358 -0.199947)
(0.493096 0.0199811 -0.167997)
(0.737109 0.0165272 -0.158536)
(0.954419 0.0144282 -0.149015)
(1.16963 0.0146753 -0.136413)
(1.34907 0.0132833 -0.126679)
(1.55069 0.0145601 -0.115061)
(1.68022 0.0138629 -0.111384)
(1.87262 0.0170867 -0.102713)
(1.90486 0.014033 -0.0683597)
(-2.8709 0.0305448 -0.00083407)
(-2.87005 0.0204828 -0.0496172)
(-2.83623 0.0312561 -0.0687206)
(-2.72488 0.035752 -0.096581)
(-2.57047 0.0404806 -0.116107)
(-2.37784 0.0416033 -0.133362)
(-2.1581 0.0384611 -0.150028)
(-1.91706 0.0394341 -0.16748)
(-1.66869 0.0493682 -0.188662)
(-1.34199 0.0578223 -0.202562)
(-1.01704 0.0586429 -0.183676)
(-0.741905 0.0552557 -0.181645)
(-0.445053 0.0490019 -0.187448)
(-0.174178 0.0466471 -0.190662)
(0.090085 0.0439428 -0.189345)
(0.345557 0.044577 -0.166788)
(0.590351 0.0409077 -0.145514)
(0.815967 0.037677 -0.134375)
(1.03458 0.0390074 -0.120601)
(1.223 0.0337882 -0.111182)
(1.42378 0.0384982 -0.0998102)
(1.56729 0.0319124 -0.104951)
(1.77523 0.0399659 -0.093647)
(1.85454 0.0399143 -0.0627739)
(-0.367675 0.00994087 0.379894)
(-0.700431 0.00225504 0.299826)
(-0.955243 -0.0026132 0.252616)
(-1.18092 -0.00558025 0.232921)
(-1.39101 -0.00753354 0.220747)
(-1.58356 -0.00867002 0.206978)
(-1.75134 -0.00841187 0.189007)
(-1.90509 -0.0067254 0.166631)
(-2.04115 -0.0028681 0.137356)
(-2.17299 0.0101179 0.0820088)
(-2.1981 0.01042 0.0147745)
(-2.14732 0.000530285 -0.0408106)
(-2.03416 -0.00279616 -0.0885641)
(-1.87523 -0.00551389 -0.120308)
(-1.68271 -0.00652559 -0.14367)
(-1.46565 -0.00786146 -0.161996)
(-1.22838 -0.00973159 -0.17682)
(-0.974402 -0.012504 -0.188974)
(-0.707701 -0.0150182 -0.198019)
(-0.430238 -0.0172097 -0.206454)
(-0.150433 -0.0206061 -0.212512)
(0.127545 -0.018778 -0.208798)
(0.397792 -0.0156973 -0.203133)
(0.653533 -0.0149464 -0.196128)
(0.899202 -0.0150346 -0.18295)
(1.12953 -0.0138439 -0.169383)
(1.34295 -0.0138974 -0.155837)
(1.54211 -0.0136474 -0.142448)
(1.72936 -0.0133691 -0.130925)
(1.90346 -0.0125374 -0.122158)
(2.06332 -0.0109413 -0.113639)
(2.21264 -0.00822771 -0.106995)
(2.35046 -0.00777489 -0.0972424)
(2.48297 -0.00330756 -0.0874661)
(2.591 0.00634058 -0.0836995)
(2.72292 0.0263406 -0.0803323)
(-0.39429 0.0184015 0.375318)
(-0.710871 0.000858356 0.295844)
(-0.962015 -0.00665752 0.249371)
(-1.18728 -0.0114888 0.229602)
(-1.39827 -0.0150883 0.217244)
(-1.59261 -0.0176642 0.203541)
(-1.76498 -0.0188554 0.18614)
(-1.9382 -0.0160428 0.165302)
(-2.06651 -0.00707728 0.1363)
(-1.82592 0.0113429 0.106631)
(-1.65391 0.0250202 -0.00026994)
(-1.56643 0.0057888 -0.088131)
(-1.41648 0.0024176 -0.155871)
(-1.24179 -0.00141793 -0.201429)
(-1.03878 -0.00376023 -0.235582)
(-0.816103 -0.00560392 -0.265081)
(-0.57654 -0.0101392 -0.290862)
(-0.323794 -0.0203862 -0.312622)
(-0.0582569 -0.0289267 -0.332103)
(0.210349 -0.0350219 -0.332637)
(0.47126 -0.0374214 -0.327991)
(0.731968 -0.0353649 -0.322868)
(0.980148 -0.0341009 -0.312517)
(1.21947 -0.033013 -0.301082)
(1.44709 -0.030735 -0.284115)
(1.66053 -0.0285374 -0.264898)
(1.85877 -0.0260917 -0.246416)
(2.04266 -0.0251266 -0.22668)
(2.211 -0.0233475 -0.210033)
(2.37054 -0.0243532 -0.192548)
(2.50645 -0.0202563 -0.176413)
(2.63814 -0.0206853 -0.169719)
(2.71861 -0.0165791 -0.139487)
(2.75131 -0.00377756 -0.116892)
(2.64286 -0.00203111 -0.115875)
(2.71212 0.0110206 -0.0965868)
(-0.357738 0.00593274 0.374288)
(-0.682383 -0.00377147 0.295395)
(-0.937698 -0.00954639 0.246794)
(-1.1642 -0.0145062 0.225698)
(-1.37524 -0.0184098 0.211785)
(-1.56889 -0.0211625 0.195903)
(-1.74055 -0.0223736 0.175114)
(-1.91464 -0.0221749 0.148477)
(-2.04468 -0.00838145 0.122527)
(-1.77896 0.0192522 0.108671)
(-1.48538 0.0285276 0.00279216)
(-1.36412 0.0168319 -0.104631)
(-1.1934 0.0133922 -0.179345)
(-1.00864 0.0102399 -0.231085)
(-0.7981 0.00846987 -0.26897)
(-0.568932 0.0077192 -0.308212)
(-0.324056 0.00355033 -0.347641)
(-0.0698267 -0.00979241 -0.361813)
(0.186924 -0.0214026 -0.368646)
(0.449383 -0.0248914 -0.372777)
(0.704813 -0.0257846 -0.368279)
(0.956383 -0.0244875 -0.36077)
(1.19832 -0.0224769 -0.350188)
(1.42978 -0.0219243 -0.335793)
(1.6483 -0.0216328 -0.315885)
(1.85529 -0.0200534 -0.295705)
(2.04644 -0.0185575 -0.276163)
(2.22464 -0.0180548 -0.255691)
(2.38531 -0.0169797 -0.238123)
(2.54035 -0.0178201 -0.220523)
(2.66123 -0.0159584 -0.200589)
(2.78632 -0.0186478 -0.194647)
(2.80743 -0.0158595 -0.154371)
(2.79705 -0.00959647 -0.124619)
(2.68373 -0.0116582 -0.130896)
(2.74594 -0.00567397 -0.104673)
(-0.329543 0.0169388 0.37829)
(-0.665166 0.00113917 0.294642)
(-0.922528 -0.00862086 0.244163)
(-1.14963 -0.0147146 0.221935)
(-1.3613 -0.0186272 0.206678)
(-1.55611 -0.0209111 0.189034)
(-1.73083 -0.0208213 0.166461)
(-1.91322 -0.0168264 0.140397)
(-2.05342 -0.00610029 0.117554)
(-1.77296 0.00704488 0.116956)
(-1.4266 0.0167923 0.0099947)
(-1.28631 0.0119297 -0.108756)
(-1.10258 0.0104543 -0.187303)
(-0.909637 0.00848546 -0.240351)
(-0.692137 0.00685076 -0.280941)
(-0.456827 0.00521925 -0.324145)
(-0.207312 0.000724958 -0.369311)
(0.0485117 -0.00909275 -0.385043)
(0.301499 -0.0172212 -0.389502)
(0.563472 -0.020225 -0.39337)
(0.8164 -0.0214049 -0.38778)
(1.06529 -0.0209396 -0.379938)
(1.30421 -0.0200493 -0.370296)
(1.53286 -0.0202461 -0.354537)
(1.74855 -0.0197807 -0.332908)
(1.95349 -0.0180863 -0.311867)
(2.14228 -0.0165621 -0.291457)
(2.31868 -0.015798 -0.270177)
(2.47686 -0.0148212 -0.252046)
(2.63038 -0.0151108 -0.23382)
(2.74514 -0.0139872 -0.214164)
(2.8674 -0.0155262 -0.20273)
(2.85877 -0.012552 -0.159119)
(2.84083 -0.0110002 -0.133935)
(2.72291 -0.0136306 -0.138111)
(2.78476 -0.0113608 -0.108758)
(-0.358633 0.0239439 0.375194)
(-0.679221 0.00371741 0.290712)
(-0.930291 -0.00724613 0.241423)
(-1.15523 -0.0128688 0.219616)
(-1.36656 -0.0156528 0.204352)
(-1.56171 -0.0164458 0.186545)
(-1.73621 -0.0149356 0.164045)
(-1.91664 -0.0112932 0.138507)
(-2.05328 -0.00462198 0.11804)
(-1.76858 0.0010505 0.11934)
(-1.40546 0.00676878 0.0113276)
(-1.25862 0.00670577 -0.110178)
(-1.0684 0.00708899 -0.190958)
(-0.870773 0.00656664 -0.24475)
(-0.648844 0.00544277 -0.287056)
(-0.409843 0.00356185 -0.332771)
(-0.157076 -4.66097e-05 -0.379272)
(0.09891 -0.00548631 -0.395657)
(0.35169 -0.00954 -0.400009)
(0.614597 -0.0117259 -0.403431)
(0.866967 -0.0128841 -0.397477)
(1.11519 -0.0130813 -0.389496)
(1.35343 -0.0128907 -0.380427)
(1.58105 -0.0129664 -0.364198)
(1.79597 -0.0124729 -0.341359)
(2.00034 -0.0113794 -0.319389)
(2.18903 -0.0104695 -0.298263)
(2.36538 -0.00989652 -0.276531)
(2.52356 -0.00937521 -0.258181)
(2.6771 -0.00928593 -0.23954)
(2.79047 -0.00885991 -0.220357)
(2.91111 -0.00918849 -0.206824)
(2.89278 -0.00814492 -0.16233)
(2.87165 -0.00919773 -0.139059)
(2.75453 -0.0113048 -0.14437)
(2.81666 -0.0102823 -0.112797)
(-0.372546 0.0206681 0.371104)
(-0.685706 0.00103653 0.287168)
(-0.932428 -0.00702123 0.239451)
(-1.15561 -0.0103793 0.218407)
(-1.36635 -0.0114391 0.20345)
(-1.56093 -0.0109903 0.185775)
(-1.73441 -0.00909574 0.163644)
(-1.91352 -0.00659947 0.139045)
(-2.04825 -0.00377928 0.119065)
(-1.76359 -0.00683082 0.119142)
(-1.40187 -0.0049968 0.0121019)
(-1.25494 -0.000751548 -0.109726)
(-1.06456 0.00130609 -0.190857)
(-0.866378 0.00224858 -0.244914)
(-0.643475 0.00176605 -0.287864)
(-0.403209 0.000216277 -0.334362)
(-0.149064 -0.00134494 -0.380962)
(0.107578 -0.00160709 -0.397728)
(0.361267 -0.00187997 -0.402345)
(0.624885 -0.00290311 -0.405705)
(0.877908 -0.00346167 -0.399919)
(1.12628 -0.0040088 -0.391891)
(1.36473 -0.00424151 -0.382879)
(1.59214 -0.00424057 -0.366156)
(1.8073 -0.00409486 -0.342813)
(2.0119 -0.00405285 -0.320949)
(2.20074 -0.00409649 -0.299817)
(2.3773 -0.00390879 -0.278005)
(2.53576 -0.00394153 -0.25958)
(2.68969 -0.00365463 -0.240865)
(2.80332 -0.00383162 -0.22165)
(2.92459 -0.00346779 -0.208045)
(2.90606 -0.00449692 -0.163734)
(2.88413 -0.00413719 -0.140576)
(2.77035 -0.00549245 -0.145785)
(2.83339 -0.00575651 -0.114422)
(-0.360849 0.0163648 0.366462)
(-0.671816 -0.00251443 0.285794)
(-0.918842 -0.00668299 0.238846)
(-1.14238 -0.00738844 0.218006)
(-1.35345 -0.00651921 0.202941)
(-1.54826 -0.00481127 0.185065)
(-1.72226 -0.00276011 0.163151)
(-1.90203 -0.00171169 0.139344)
(-2.03696 -0.00147492 0.118626)
(-1.75727 -0.00995504 0.118372)
(-1.41457 -0.0149373 0.0130224)
(-1.27411 -0.00655131 -0.106366)
(-1.08965 -0.00299431 -0.186465)
(-0.894869 -0.000743078 -0.240677)
(-0.674533 -0.000777944 -0.283251)
(-0.435564 -0.00234777 -0.329236)
(-0.181938 -0.00219853 -0.374373)
(0.076052 0.00260722 -0.390867)
(0.331597 0.00650843 -0.396357)
(0.595397 0.00656477 -0.400053)
(0.849799 0.0066674 -0.394642)
(1.09905 0.00579437 -0.386483)
(1.3385 0.00503716 -0.376979)
(1.56694 0.00526552 -0.360386)
(1.78271 0.00534523 -0.337798)
(1.98776 0.00453894 -0.316619)
(2.17664 0.00359586 -0.295731)
(2.35341 0.00330927 -0.273957)
(2.51245 0.00256745 -0.255545)
(2.6671 0.00304684 -0.237282)
(2.78263 0.00207 -0.217935)
(2.90598 0.00370426 -0.206821)
(2.89706 0.00108833 -0.163278)
(2.87959 0.000626218 -0.137916)
(2.76946 0.000730694 -0.143906)
(2.8328 5.84285e-05 -0.113533)
(-0.329512 0.0106757 0.364076)
(-0.647658 -0.00271711 0.286607)
(-0.898066 -0.00513629 0.239775)
(-1.12263 -0.00422085 0.21895)
(-1.33352 -0.00171526 0.203807)
(-1.52758 0.00156967 0.1859)
(-1.70093 0.00492501 0.164014)
(-1.88135 0.00618081 0.139638)
(-2.02019 0.0029218 0.114413)
(-1.75078 -0.0209148 0.113292)
(-1.46203 -0.0270295 0.0072433)
(-1.33837 -0.0131062 -0.101416)
(-1.16611 -0.00787015 -0.178646)
(-0.978584 -0.00445626 -0.233299)
(-0.763922 -0.0043155 -0.2742)
(-0.529473 -0.00657814 -0.317532)
(-0.278288 -0.00549363 -0.356804)
(-0.0202198 0.00444752 -0.371979)
(0.24035 0.0125355 -0.380428)
(0.503527 0.0137885 -0.384365)
(0.760713 0.0143821 -0.379467)
(1.01241 0.0129032 -0.37098)
(1.25448 0.0110547 -0.360734)
(1.48561 0.0111195 -0.344994)
(1.70384 0.0113094 -0.323936)
(1.91081 0.0100414 -0.303722)
(2.10165 0.00854816 -0.283864)
(2.28009 0.00805375 -0.263194)
(2.44106 0.00669967 -0.245607)
(2.59693 0.00763474 -0.228162)
(2.71799 0.00580211 -0.208542)
(2.84383 0.00881861 -0.202665)
(2.86443 0.00676901 -0.163465)
(2.8553 0.00292811 -0.130614)
(2.75246 0.00534319 -0.136974)
(2.81648 0.00439208 -0.109104)
(-0.333456 0.0203669 0.360954)
(-0.648085 -0.000387136 0.286323)
(-0.896072 -0.00427436 0.241933)
(-1.11987 -0.00273762 0.222346)
(-1.33026 0.000770706 0.208328)
(-1.52384 0.0050026 0.19197)
(-1.69695 0.00927548 0.172307)
(-1.87602 0.0133787 0.151745)
(-2.02061 0.00847431 0.127905)
(-1.78793 -0.015647 0.113381)
(-1.60967 -0.0213724 0.00585597)
(-1.51925 -0.0021241 -0.0851984)
(-1.36699 0.00345931 -0.155895)
(-1.18997 0.0075764 -0.206713)
(-0.982566 0.00834922 -0.243994)
(-0.754035 0.00747153 -0.276981)
(-0.508768 0.0100091 -0.304909)
(-0.250462 0.0183599 -0.328885)
(0.0193933 0.0259377 -0.345211)
(0.286176 0.0308243 -0.345044)
(0.54872 0.0323559 -0.341222)
(0.806972 0.0298576 -0.334574)
(1.05449 0.0278926 -0.324436)
(1.29268 0.0266023 -0.311623)
(1.51903 0.0243422 -0.29402)
(1.73141 0.0224187 -0.274123)
(1.92862 0.0202072 -0.255198)
(2.11218 0.0194976 -0.235617)
(2.28011 0.0170402 -0.219151)
(2.43975 0.017951 -0.202137)
(2.57494 0.0133506 -0.186265)
(2.70584 0.0149443 -0.179491)
(2.78146 0.0127192 -0.147307)
(2.81183 0.00431663 -0.12268)
(2.72107 0.00722185 -0.132631)
(2.7879 0.00427624 -0.105578)
(-0.346763 0.0152147 0.354059)
(-0.650271 -0.00459 0.286028)
(-0.894562 -0.00654664 0.244826)
(-1.11763 -0.00384057 0.22728)
(-1.32756 3.64566e-05 0.215494)
(-1.51959 0.00396229 0.202111)
(-1.6881 0.00728635 0.186209)
(-1.85388 0.00750062 0.169924)
(-1.98121 0.00237493 0.145513)
(-1.82802 -0.021237 0.105264)
(-1.77771 -0.0233479 0.00354361)
(-1.70815 -0.0027593 -0.0655843)
(-1.57335 0.00263695 -0.128853)
(-1.40243 0.00700064 -0.173089)
(-1.19903 0.00846524 -0.206968)
(-0.972862 0.00923599 -0.235461)
(-0.728131 0.0119666 -0.25902)
(-0.468904 0.0176411 -0.277999)
(-0.199706 0.0239341 -0.289126)
(0.0724205 0.0304804 -0.292962)
(0.342842 0.0340813 -0.294738)
(0.605781 0.032169 -0.289882)
(0.859945 0.0310175 -0.28136)
(1.10309 0.0299535 -0.270282)
(1.33092 0.0272419 -0.253237)
(1.54769 0.0247925 -0.235951)
(1.74866 0.0218379 -0.218565)
(1.935 0.020536 -0.200825)
(2.10764 0.0183994 -0.185077)
(2.26788 0.01843 -0.170417)
(2.41497 0.0139193 -0.156338)
(2.54813 0.0137369 -0.14777)
(2.67581 0.0114729 -0.130069)
(2.76245 0.000308212 -0.11944)
(2.69409 0.00488653 -0.130606)
(2.76548 -0.000262628 -0.102528)
(-0.352234 0.00960392 0.347739)
(-0.63849 -0.0121838 0.286607)
(-0.881516 -0.00935796 0.24645)
(-1.10719 -0.00531427 0.229129)
(-1.32059 -0.00205128 0.217857)
(-1.51661 -0.000218886 0.205492)
(-1.68885 -0.00055203 0.191563)
(-1.8601 -0.00583805 0.177139)
(-2.03112 -0.0213493 0.132981)
(-2.19184 -0.0138145 0.0793092)
(-2.21905 -0.00700565 0.0197087)
(-2.17961 0.00793468 -0.033239)
(-2.06764 0.015326 -0.0830004)
(-1.90967 0.0190481 -0.115964)
(-1.71601 0.0202369 -0.141373)
(-1.49552 0.0207312 -0.162101)
(-1.25363 0.0219499 -0.178854)
(-0.994491 0.024542 -0.19234)
(-0.722532 0.0274891 -0.20128)
(-0.441995 0.0304847 -0.205927)
(-0.158764 0.0329445 -0.217844)
(0.120497 0.0283498 -0.213574)
(0.392502 0.0247613 -0.207454)
(0.651604 0.0225014 -0.201096)
(0.896367 0.0206013 -0.187313)
(1.12829 0.0184457 -0.173481)
(1.3433 0.0156199 -0.159244)
(1.54399 0.0138218 -0.145032)
(1.7304 0.0125248 -0.133266)
(1.90318 0.0114145 -0.123561)
(2.06389 0.00916014 -0.114656)
(2.21394 0.0057352 -0.105368)
(2.35401 0.00252729 -0.0953303)
(2.48585 -0.0042615 -0.0854048)
(2.61232 0.000506528 -0.0811583)
(2.74444 -0.00705745 -0.0920667)
(-0.275189 -0.0408818 0.339124)
(-0.575575 -0.0164557 0.294364)
(-0.833636 -0.0067139 0.248128)
(-1.06621 -0.0027158 0.227846)
(-1.2835 -0.000469292 0.213862)
(-1.483 0.000817941 0.197409)
(-1.65966 0.0007262 0.177071)
(-1.81671 -0.00344911 0.157999)
(-1.9556 -0.0173413 0.147497)
(-2.09193 -0.00854172 0.0801274)
(-2.12139 -0.00191805 0.0136723)
(-2.07708 0.00263343 -0.0437256)
(-1.96911 0.00544806 -0.0936153)
(-1.81246 0.0074388 -0.126926)
(-1.62077 0.0088378 -0.152487)
(-1.40198 0.010122 -0.172566)
(-1.16147 0.0116106 -0.188094)
(-0.903307 0.0137026 -0.199298)
(-0.631371 0.0160459 -0.207058)
(-0.350826 0.0181079 -0.211847)
(-0.0687165 0.0208011 -0.222754)
(0.208044 0.0202581 -0.217363)
(0.481185 0.0205068 -0.208316)
(0.740155 0.0194448 -0.199912)
(0.986358 0.0180024 -0.187257)
(1.21867 0.0154581 -0.174944)
(1.43517 0.0129328 -0.162689)
(1.63715 0.0110881 -0.151481)
(1.82377 0.00951664 -0.141568)
(1.99666 0.00787162 -0.133703)
(2.15605 0.00586061 -0.124126)
(2.30411 0.00350901 -0.115152)
(2.439 0.00269512 -0.103574)
(2.56986 -0.000365532 -0.0999181)
(2.67833 -0.00122535 -0.0926845)
(2.80553 -0.00331354 -0.10655)
(0.0460486 -0.00832626 0.0492341)
(0.0646765 -0.00710195 -0.127223)
(0.21724 -0.00528282 -0.243423)
(0.375067 -0.00250677 -0.334909)
(0.559809 -0.00191457 -0.400741)
(0.760053 -0.00163909 -0.448846)
(0.973321 -0.00143884 -0.487206)
(1.1939 -0.00121329 -0.516831)
(1.41679 -0.00139142 -0.536195)
(1.63873 -0.00192586 -0.547422)
(1.85824 -0.00256161 -0.551054)
(2.07063 -0.00327966 -0.545122)
(2.27387 -0.00308275 -0.52902)
(2.46485 -0.00276774 -0.505832)
(2.64647 -0.00260368 -0.480501)
(2.81414 -0.00264309 -0.451068)
(2.97113 -0.00251995 -0.42148)
(3.11604 -0.00260736 -0.391701)
(3.24889 -0.00262863 -0.363777)
(3.37177 -0.00303831 -0.336384)
(3.48532 -0.00288387 -0.312919)
(3.5879 -0.0032503 -0.288979)
(3.68424 0.000102795 -0.271095)
(3.77363 0.000539803 -0.25106)
(-0.207128 0.0132206 0.625417)
(-0.336907 0.00629953 0.482397)
(-0.42859 0.00211507 0.415119)
(-0.516546 -0.00101673 0.388561)
(-0.594384 -0.0039066 0.362912)
(-0.650347 -0.00687502 0.326677)
(-0.679509 -0.0102003 0.278898)
(-0.674332 -0.0126976 0.226762)
(-0.485623 -0.0160744 0.166455)
(-0.0881328 0.00564638 0.0664213)
(-0.0102435 0.0193951 -0.121262)
(0.140161 0.0088529 -0.231967)
(0.300171 0.00852515 -0.322723)
(0.484654 0.00812612 -0.388323)
(0.685129 0.00756464 -0.437228)
(0.897936 0.0071754 -0.475966)
(1.11943 0.0068564 -0.506118)
(1.34411 0.00432242 -0.52625)
(1.57034 0.00141197 -0.537882)
(1.79295 -0.0021829 -0.539833)
(2.00864 -0.00485395 -0.533559)
(2.21544 -0.00473674 -0.519337)
(2.41038 -0.00428292 -0.497318)
(2.59354 -0.00386034 -0.472082)
(2.76556 -0.00377887 -0.444143)
(2.92415 -0.00350125 -0.415503)
(3.07203 -0.00357584 -0.387056)
(3.20594 -0.00384103 -0.358797)
(3.33135 -0.00467258 -0.33242)
(3.44445 -0.00496772 -0.3078)
(3.55035 -0.00568268 -0.285424)
(3.64085 -0.00348936 -0.264599)
(3.74488 -0.00806787 -0.247885)
(3.80503 -0.00643078 -0.224241)
(3.70761 -0.000441834 -0.219114)
(3.76772 0.00156017 -0.204694)
(-0.211942 0.0249544 0.625876)
(-0.33371 0.00994087 0.480383)
(-0.423241 0.00303611 0.411265)
(-0.509774 -0.00205454 0.383408)
(-0.586717 -0.00672761 0.356367)
(-0.644126 -0.0113519 0.319273)
(-0.682874 -0.0159833 0.27215)
(-0.705925 -0.0198392 0.22497)
(-0.558454 -0.0197524 0.176089)
(-0.0684121 0.00740849 0.058049)
(0.101255 0.0222823 -0.141097)
(0.278897 0.0150673 -0.249221)
(0.456724 0.0143957 -0.338378)
(0.649972 0.0140053 -0.403487)
(0.856262 0.013276 -0.453986)
(1.07159 0.0128416 -0.49401)
(1.29225 0.0116629 -0.524795)
(1.51429 0.00559567 -0.544141)
(1.73631 -0.000685332 -0.554491)
(1.95271 -0.00488995 -0.553269)
(2.16213 -0.00746708 -0.54371)
(2.36306 -0.00773976 -0.527723)
(2.55272 -0.00723875 -0.505346)
(2.73019 -0.0068928 -0.480638)
(2.89747 -0.00669428 -0.454052)
(3.05127 -0.00604372 -0.425691)
(3.19479 -0.00526768 -0.398338)
(3.32484 -0.00536104 -0.370197)
(3.44488 -0.00512877 -0.344573)
(3.55283 -0.00625834 -0.318861)
(3.64909 -0.0050507 -0.297117)
(3.72947 -0.00611517 -0.274773)
(3.79171 -0.00128926 -0.25652)
(3.85067 -0.00828416 -0.232092)
(3.8991 -0.00027003 -0.237789)
(4.10792 -0.00420191 -0.250468)
(-0.19184 0.021202 0.625134)
(-0.315009 0.00907069 0.479966)
(-0.405591 0.00250848 0.407887)
(-0.492062 -0.00319071 0.377973)
(-0.568718 -0.00792589 0.348498)
(-0.626704 -0.0120889 0.308788)
(-0.670388 -0.0152885 0.260044)
(-0.707412 -0.0159351 0.215205)
(-0.569232 -0.00918596 0.17329)
(-0.00757633 0.0123764 0.0534092)
(0.240973 0.0250877 -0.155258)
(0.451677 0.0216151 -0.268544)
(0.651523 0.0204903 -0.357883)
(0.857827 0.0192318 -0.425959)
(1.0737 0.0183469 -0.479344)
(1.29509 0.018126 -0.522337)
(1.51789 0.0165788 -0.556557)
(1.73786 0.00951709 -0.575198)
(1.95341 0.00182646 -0.582491)
(2.16517 -0.00174775 -0.581521)
(2.36904 -0.00380271 -0.570333)
(2.56292 -0.00445579 -0.552426)
(2.74668 -0.00406609 -0.530727)
(2.91772 -0.00437714 -0.505333)
(3.07829 -0.00474678 -0.476812)
(3.22709 -0.00432902 -0.447668)
(3.36453 -0.00379175 -0.419872)
(3.48945 -0.00395981 -0.391155)
(3.60245 -0.00361669 -0.365143)
(3.70413 -0.00481857 -0.338651)
(3.78633 -0.0039211 -0.315862)
(3.85519 -0.00612836 -0.29127)
(3.8772 -0.00427633 -0.272143)
(3.91993 -0.00556029 -0.245594)
(3.95389 -0.00182208 -0.256435)
(4.19912 -0.000953495 -0.266614)
(-0.171569 0.026381 0.625735)
(-0.300091 0.0116528 0.47855)
(-0.391378 0.00185446 0.404497)
(-0.477788 -0.00483067 0.373278)
(-0.554665 -0.00929366 0.342398)
(-0.613262 -0.0125736 0.300837)
(-0.65823 -0.0143284 0.250995)
(-0.697394 -0.0133449 0.208241)
(-0.560912 -0.0071723 0.173026)
(0.0207208 0.00394269 0.0586312)
(0.314331 0.015394 -0.157346)
(0.546046 0.0160617 -0.276345)
(0.764691 0.0164076 -0.367984)
(0.981666 0.015598 -0.437873)
(1.2053 0.0150136 -0.493182)
(1.43246 0.0145541 -0.537443)
(1.65933 0.0125755 -0.574614)
(1.8787 0.00767028 -0.595449)
(2.093 0.00239426 -0.602215)
(2.30329 -0.000929411 -0.600843)
(2.50461 -0.00315805 -0.588125)
(2.69642 -0.00406064 -0.569797)
(2.87704 -0.00418516 -0.548417)
(3.04547 -0.00473247 -0.522368)
(3.20302 -0.00489547 -0.493068)
(3.34952 -0.00432293 -0.463291)
(3.48408 -0.0037674 -0.435039)
(3.60647 -0.00379196 -0.405534)
(3.71549 -0.00346367 -0.379208)
(3.8137 -0.00436617 -0.351657)
(3.8869 -0.00375121 -0.329019)
(3.94767 -0.0057424 -0.302579)
(3.94974 -0.00478666 -0.283237)
(3.98221 -0.00511337 -0.256638)
(4.01295 -0.00260098 -0.270464)
(4.26622 -0.00180665 -0.278032)
(-0.184554 0.0302569 0.621976)
(-0.302235 0.011626 0.472908)
(-0.389239 -0.000153371 0.400042)
(-0.473949 -0.0069123 0.369507)
(-0.550651 -0.010814 0.338856)
(-0.609452 -0.0130359 0.296974)
(-0.654184 -0.0133042 0.247229)
(-0.692202 -0.0111878 0.205663)
(-0.552784 -0.00676804 0.172502)
(0.0348891 -0.0032719 0.0611042)
(0.345494 0.00390274 -0.157462)
(0.586494 0.00697248 -0.279178)
(0.814499 0.00901158 -0.37238)
(1.03757 0.00989392 -0.443466)
(1.26603 0.0101268 -0.500328)
(1.49695 0.00960619 -0.545868)
(1.72638 0.00778916 -0.584242)
(1.94632 0.00482834 -0.606305)
(2.16147 0.00186427 -0.61298)
(2.37237 -0.000530685 -0.610717)
(2.57306 -0.00221984 -0.597738)
(2.76447 -0.00307483 -0.579424)
(2.94454 -0.0034229 -0.558459)
(3.1114 -0.00369306 -0.5322)
(3.26877 -0.00359526 -0.502623)
(3.41442 -0.00317929 -0.472031)
(3.55021 -0.00283309 -0.443357)
(3.67171 -0.00277072 -0.413355)
(3.78081 -0.00264379 -0.38688)
(3.87752 -0.00302764 -0.358685)
(3.94794 -0.00286548 -0.336086)
(4.00487 -0.00386286 -0.30867)
(3.99918 -0.00367707 -0.290314)
(4.02688 -0.00455197 -0.262605)
(4.0564 -0.0032291 -0.27769)
(4.31114 -0.00261451 -0.284642)
(-0.191936 0.0269112 0.616614)
(-0.30428 0.00618419 0.46741)
(-0.387879 -0.0039578 0.39658)
(-0.47133 -0.00915606 0.367367)
(-0.547934 -0.0119478 0.337092)
(-0.606562 -0.013171 0.295097)
(-0.65052 -0.0125206 0.245616)
(-0.686994 -0.0101528 0.204558)
(-0.546439 -0.00788221 0.171039)
(0.038499 -0.0100745 0.061249)
(0.346784 -0.00814521 -0.156193)
(0.588189 -0.00389603 -0.278061)
(0.816793 -0.000545258 -0.371823)
(1.04105 0.00212451 -0.443541)
(1.271 0.00322046 -0.50113)
(1.50361 0.00276338 -0.547473)
(1.73473 0.00140675 -0.586474)
(1.95583 0.000381886 -0.60907)
(2.17243 -0.000292606 -0.615857)
(2.38436 -0.00124333 -0.613465)
(2.58578 -0.0018927 -0.600608)
(2.7775 -0.00245697 -0.582271)
(2.95796 -0.00275306 -0.561443)
(3.12461 -0.00285468 -0.534844)
(3.28314 -0.00285626 -0.504956)
(3.42905 -0.0028848 -0.474461)
(3.56505 -0.00278888 -0.445843)
(3.68672 -0.00250561 -0.41577)
(3.79604 -0.00250821 -0.38922)
(3.89299 -0.00237257 -0.360863)
(3.96353 -0.00269833 -0.338194)
(4.02086 -0.00260093 -0.31058)
(4.0151 -0.00295384 -0.29288)
(4.04318 -0.00353212 -0.264632)
(4.07295 -0.0033691 -0.279938)
(4.32793 -0.00309171 -0.287139)
(-0.185163 0.021786 0.610908)
(-0.297149 -0.000390587 0.465172)
(-0.380957 -0.00808157 0.395663)
(-0.465001 -0.0116471 0.367267)
(-0.542251 -0.0131203 0.336749)
(-0.601068 -0.0130559 0.294151)
(-0.64492 -0.011581 0.244508)
(-0.681422 -0.00909342 0.203872)
(-0.54391 -0.00826729 0.169735)
(0.0290463 -0.0141007 0.0605543)
(0.318777 -0.0179136 -0.153505)
(0.55257 -0.0134298 -0.273534)
(0.773636 -0.00927022 -0.366704)
(0.994191 -0.00521638 -0.438347)
(1.22197 -0.00362251 -0.495842)
(1.45401 -0.00421766 -0.542361)
(1.68551 -0.00508849 -0.580967)
(1.90845 -0.00404682 -0.603051)
(2.12633 -0.00227837 -0.610372)
(2.33942 -0.00184263 -0.608642)
(2.54268 -0.0013417 -0.596009)
(2.7355 -0.00149523 -0.57756)
(2.91721 -0.00175501 -0.55616)
(3.08564 -0.00154764 -0.529555)
(3.24389 -0.00131741 -0.499966)
(3.39032 -0.00144292 -0.470129)
(3.52597 -0.00168823 -0.441731)
(3.64859 -0.00151468 -0.411751)
(3.75952 -0.00189026 -0.385197)
(3.85844 -0.00132347 -0.357346)
(3.93228 -0.00209504 -0.334877)
(3.99335 -0.000855845 -0.308521)
(3.99443 -0.00149346 -0.290056)
(4.02821 -0.00220836 -0.26357)
(4.05934 -0.00294366 -0.277733)
(4.31435 -0.00294264 -0.285487)
(-0.171173 0.0150917 0.606006)
(-0.288366 -0.00425284 0.465822)
(-0.374878 -0.0110505 0.397353)
(-0.460413 -0.0140244 0.369017)
(-0.538308 -0.0144606 0.338273)
(-0.597295 -0.0129527 0.295508)
(-0.64116 -0.0103081 0.245681)
(-0.678294 -0.0074933 0.204923)
(-0.5473 -0.00815805 0.169182)
(0.0016322 -0.0201287 0.0579504)
(0.251251 -0.0274002 -0.149128)
(0.467688 -0.0211438 -0.265446)
(0.673373 -0.0162667 -0.357065)
(0.886528 -0.0119546 -0.428153)
(1.10918 -0.0105254 -0.484824)
(1.33793 -0.011788 -0.530688)
(1.56811 -0.012384 -0.567063)
(1.79297 -0.00851684 -0.587542)
(2.0132 -0.00432975 -0.596546)
(2.22734 -0.00309332 -0.595561)
(2.43369 -0.00176958 -0.583416)
(2.62884 -0.00156032 -0.564806)
(2.81294 -0.00193706 -0.542837)
(2.98417 -0.00120826 -0.516661)
(3.14444 -0.000376357 -0.487557)
(3.29337 -0.000430349 -0.458385)
(3.43042 -0.000978065 -0.430509)
(3.55556 -0.000962993 -0.401617)