/*--------------------------------*- C++ -*----------------------------------*\
  =========                 |
  \\      /  F ield         | OpenFOAM: The Open Source CFD Toolbox
   \\    /   O peration     | Website:  https://openfoam.org
    \\  /    A nd           | Version:  7
     \\/     M anipulation  |
\*---------------------------------------------------------------------------*/
FoamFile
{
    version     2.0;
    format      ascii;
    class       volVectorField;
    location    "35";
    object      ddtCorrDdt0(hU);
}
// * * * * * * * * * * * * * * * * * * * * * * * * * * * * * * * * * * * * * //

dimensions      [0 2 -2 0 0 0 0];

internalField   nonuniform List<vector> 
400
(
(-7.87896e-11 -1.54569e-10 0)
(-1.99293e-10 -8.96857e-10 0)
(7.78001e-10 -1.1154e-09 0)
(2.33816e-09 -7.2191e-10 0)
(3.25059e-09 5.45527e-10 0)
(1.39055e-09 8.42048e-10 0)
(1.98741e-09 5.2936e-09 0)
(6.19359e-09 2.62158e-09 0)
(-2.18657e-09 3.53585e-09 0)
(-2.24544e-09 2.89224e-09 0)
(-2.54012e-09 5.71979e-10 0)
(-3.19078e-09 -1.63285e-09 0)
(-3.25484e-09 -3.07079e-09 0)
(-1.90795e-09 -3.11667e-09 0)
(-8.45845e-10 -2.198e-09 0)
(2.12653e-10 -1.08353e-09 0)
(-6.20517e-11 5.25538e-10 0)
(-1.20942e-09 7.75166e-10 0)
(-1.45296e-09 2.25916e-09 0)
(-5.14625e-09 2.23721e-09 0)
(-1.10803e-10 5.96167e-10 0)
(-7.15718e-10 -5.21936e-11 0)
(7.35247e-10 -8.9521e-11 0)
(2.74943e-09 -5.29735e-10 0)
(3.4139e-09 -1.09929e-10 0)
(4.00995e-09 -1.66876e-09 0)
(3.63124e-09 1.09217e-09 0)
(-2.69511e-09 -1.23086e-09 0)
(4.67273e-10 5.60791e-10 0)
(-2.69579e-09 1.38161e-09 0)
(-4.46576e-09 4.87914e-10 0)
(-4.54182e-09 -6.11354e-10 0)
(-3.879e-09 -1.44755e-09 0)
(-2.2467e-09 -1.93825e-09 0)
(-1.02584e-09 -2.11848e-09 0)
(2.97114e-10 -2.46597e-09 0)
(4.81279e-10 -1.44448e-09 0)
(-5.28964e-10 -7.66603e-10 0)
(-1.05266e-09 9.00877e-10 0)
(-4.7954e-09 2.09337e-09 0)
(7.94313e-11 -1.64388e-10 0)
(-2.17786e-10 -1.96989e-09 0)
(7.38181e-10 -2.5136e-09 0)
(2.0077e-09 -2.10877e-09 0)
(2.15661e-09 -6.62024e-10 0)
(2.15191e-09 1.28643e-09 0)
(1.53869e-09 2.60167e-09 0)
(8.49633e-10 5.42552e-09 0)
(6.91535e-10 5.37081e-09 0)
(-1.75746e-09 3.57699e-09 0)
(-3.47446e-09 3.28472e-10 0)
(-3.5463e-09 -2.93182e-09 0)
(-2.75594e-09 -5.50319e-09 0)
(-1.28239e-09 -6.27598e-09 0)
(-5.13323e-10 -5.3668e-09 0)
(3.80935e-10 -4.11057e-09 0)
(1.51641e-10 -5.74161e-10 0)
(-8.68164e-10 6.96889e-10 0)
(-1.06344e-09 4.4143e-09 0)
(-4.70953e-09 5.39085e-09 0)
(-8.92686e-11 -5.62232e-10 0)
(-5.82146e-10 -2.37992e-09 0)
(6.09636e-10 -3.64905e-09 0)
(2.962e-09 -3.12502e-09 0)
(3.73266e-09 -2.0634e-09 0)
(3.70511e-09 8.23734e-10 0)
(2.91403e-09 2.88821e-09 0)
(1.84358e-09 5.89362e-09 0)
(-1.26988e-10 6.21871e-09 0)
(-3.00938e-09 4.47651e-09 0)
(-4.62422e-09 1.06602e-09 0)
(-4.39437e-09 -2.60094e-09 0)
(-3.52606e-09 -6.08474e-09 0)
(-2.14168e-09 -7.58305e-09 0)
(-1.2538e-09 -6.71076e-09 0)
(7.80055e-11 -5.25723e-09 0)
(5.89304e-10 -7.48894e-10 0)
(-4.79423e-11 5.51245e-10 0)
(-4.68799e-10 5.08766e-09 0)
(-4.17627e-09 6.95501e-09 0)
(-1.92549e-10 -3.63179e-10 0)
(1.54093e-10 -1.93692e-09 0)
(1.03159e-09 -2.87577e-09 0)
(1.92275e-09 -2.81492e-09 0)
(1.70316e-09 -2.33423e-09 0)
(1.35731e-09 -3.28707e-10 0)
(1.22411e-09 2.0784e-09 0)
(1.4474e-09 4.72403e-09 0)
(1.61261e-10 5.29569e-09 0)
(-1.67321e-09 3.67151e-09 0)
(-2.3973e-09 1.33805e-10 0)
(-2.14695e-09 -3.64402e-09 0)
(-1.92037e-09 -7.24118e-09 0)
(-1.52259e-09 -8.86833e-09 0)
(-1.30517e-09 -7.97402e-09 0)
(-5.8593e-10 -6.49297e-09 0)
(-2.55563e-10 -1.22934e-09 0)
(-7.32818e-10 6.23675e-10 0)
(-7.67317e-10 6.04026e-09 0)
(-3.33738e-09 8.1596e-09 0)
(-2.92096e-10 -1.1052e-09 0)
(1.03569e-10 -3.61075e-09 0)
(1.33129e-09 -4.76408e-09 0)
(2.80178e-09 -4.51048e-09 0)
(3.50231e-09 -2.7104e-09 0)
(3.15716e-09 6.66735e-10 0)
(2.4329e-09 5.02589e-09 0)
(1.19805e-09 8.30414e-09 0)
(-1.074e-09 8.65559e-09 0)
(-3.01314e-09 6.10613e-09 0)
(-3.79279e-09 6.79495e-10 0)
(-3.49328e-09 -5.19798e-09 0)
(-2.7465e-09 -1.03917e-08 0)
(-1.34417e-09 -1.21614e-08 0)
(-2.11789e-10 -1.02094e-08 0)
(1.15742e-09 -7.46938e-09 0)
(1.27052e-09 -5.43539e-10 0)
(4.40947e-10 1.42873e-09 0)
(-2.1403e-10 8.18432e-09 0)
(-3.55035e-09 1.04874e-08 0)
(-1.20317e-10 -1.05381e-09 0)
(5.0379e-10 -3.06721e-09 0)
(9.61557e-10 -4.56773e-09 0)
(1.35046e-09 -5.48092e-09 0)
(1.56486e-09 -4.73607e-09 0)
(1.2413e-09 -2.39759e-09 0)
(1.29121e-09 1.36506e-09 0)
(1.05851e-09 4.52179e-09 0)
(3.85017e-10 5.84292e-09 0)
(-3.28395e-10 4.59413e-09 0)
(-9.55888e-10 2.27168e-10 0)
(-1.34795e-09 -4.93891e-09 0)
(-1.74902e-09 -9.93545e-09 0)
(-1.68025e-09 -1.19472e-08 0)
(-1.35446e-09 -1.03693e-08 0)
(-7.00722e-10 -8.20754e-09 0)
(-3.72917e-10 -1.36036e-09 0)
(-7.35921e-10 7.01872e-10 0)
(-5.30322e-10 7.70403e-09 0)
(-1.85548e-09 1.07925e-08 0)
(-1.19274e-10 -1.51141e-09 0)
(4.86149e-10 -3.7656e-09 0)
(7.78779e-10 -5.37269e-09 0)
(1.16235e-09 -6.14107e-09 0)
(1.54682e-09 -4.91276e-09 0)
(1.63277e-09 -1.42037e-09 0)
(1.4832e-09 3.28863e-09 0)
(7.51609e-10 6.85351e-09 0)
(-2.33802e-10 7.72204e-09 0)
(-1.35788e-09 5.04115e-09 0)
(-1.97997e-09 -1.07807e-09 0)
(-1.93719e-09 -7.55085e-09 0)
(-1.55476e-09 -1.31618e-08 0)
(-5.89916e-10 -1.4791e-08 0)
(2.28e-10 -1.22286e-08 0)
(1.01096e-09 -9.04076e-09 0)
(8.94788e-10 -8.83781e-10 0)
(2.67525e-10 1.53248e-09 0)
(-9.2055e-11 9.49183e-09 0)
(-1.98452e-09 1.22959e-08 0)
(-8.50671e-11 -1.864e-09 0)
(3.31624e-10 -4.00779e-09 0)
(4.94969e-10 -5.72723e-09 0)
(8.33093e-10 -6.65569e-09 0)
(9.91447e-10 -5.74628e-09 0)
(8.13758e-10 -2.51319e-09 0)
(4.33019e-10 1.88781e-09 0)
(2.4676e-10 5.66171e-09 0)
(8.65357e-11 6.93833e-09 0)
(-3.08582e-10 4.88934e-09 0)
(-5.35162e-10 -6.21006e-10 0)
(-6.48371e-10 -6.79903e-09 0)
(-6.89985e-10 -1.24375e-08 0)
(-3.9855e-10 -1.44411e-08 0)
(-1.84038e-10 -1.24085e-08 0)
(-1.795e-10 -9.78724e-09 0)
(-3.75189e-10 -1.69334e-09 0)
(-6.99017e-10 8.41895e-10 0)
(-5.02992e-10 9.13052e-09 0)
(-6.79002e-10 1.26159e-08 0)
(-2.74703e-11 -2.11075e-09 0)
(1.01741e-10 -4.20194e-09 0)
(1.73631e-10 -5.93463e-09 0)
(2.27346e-10 -7.08303e-09 0)
(2.42427e-10 -6.24962e-09 0)
(2.60354e-10 -2.83693e-09 0)
(3.07865e-10 1.94977e-09 0)
(2.99427e-10 5.98853e-09 0)
(9.94425e-11 7.08005e-09 0)
(-2.10154e-10 4.64761e-09 0)
(-4.46624e-10 -1.33545e-09 0)
(-5.87893e-10 -7.86382e-09 0)
(-5.68826e-10 -1.35446e-08 0)
(-2.72131e-10 -1.53137e-08 0)
(-1.03168e-11 -1.29803e-08 0)
(3.05481e-10 -9.99794e-09 0)
(3.60537e-10 -1.41362e-09 0)
(3.12768e-10 1.32011e-09 0)
(3.1207e-10 9.91761e-09 0)
(-2.56594e-10 1.31134e-08 0)
(4.82491e-11 -2.12075e-09 0)
(-1.42405e-10 -4.20368e-09 0)
(-1.76232e-10 -5.91234e-09 0)
(-2.15987e-10 -7.07131e-09 0)
(-2.22358e-10 -6.25393e-09 0)
(-2.9255e-10 -2.84949e-09 0)
(-3.37586e-10 1.95234e-09 0)
(-3.0965e-10 5.9656e-09 0)
(-1.45673e-10 7.0845e-09 0)
(2.20453e-10 4.62638e-09 0)
(4.08197e-10 -1.3716e-09 0)
(4.80187e-10 -7.84516e-09 0)
(5.32815e-10 -1.35175e-08 0)
(2.67102e-10 -1.53203e-08 0)
(-5.42428e-11 -1.29785e-08 0)
(-3.93579e-10 -9.96567e-09 0)
(-4.59646e-10 -1.37151e-09 0)
(-4.39572e-10 1.39072e-09 0)
(-3.40516e-10 1.00274e-08 0)
(4.78564e-10 1.31755e-08 0)
(9.92031e-11 -1.88082e-09 0)
(-3.19293e-10 -4.01679e-09 0)
(-5.15377e-10 -5.67867e-09 0)
(-8.39498e-10 -6.64119e-09 0)
(-1.005e-09 -5.73403e-09 0)
(-7.97348e-10 -2.54072e-09 0)
(-4.6242e-10 1.90685e-09 0)
(-2.25414e-10 5.62221e-09 0)
(-1.01618e-10 6.94108e-09 0)
(2.73059e-10 4.88116e-09 0)
(5.88334e-10 -6.90382e-10 0)
(6.63868e-10 -6.7985e-09 0)
(6.35483e-10 -1.23838e-08 0)
(3.79728e-10 -1.44191e-08 0)
(2.03005e-10 -1.2384e-08 0)
(1.74731e-10 -9.71898e-09 0)
(3.33435e-10 -1.60002e-09 0)
(6.44798e-10 1.01035e-09 0)
(4.94195e-10 9.38668e-09 0)
(7.66753e-10 1.27544e-08 0)
(1.14603e-10 -1.51854e-09 0)
(-4.35462e-10 -3.79648e-09 0)
(-7.98162e-10 -5.35865e-09 0)
(-1.18e-09 -6.13076e-09 0)
(-1.58398e-09 -4.87287e-09 0)
(-1.58855e-09 -1.44584e-09 0)
(-1.48773e-09 3.32133e-09 0)
(-7.38666e-10 6.85296e-09 0)
(3.01663e-10 7.69573e-09 0)
(1.29256e-09 5.09448e-09 0)
(2.005e-09 -1.06968e-09 0)
(2.07338e-09 -7.57792e-09 0)
(1.60117e-09 -1.31355e-08 0)
(5.94097e-10 -1.47349e-08 0)
(-1.75552e-10 -1.21811e-08 0)
(-9.51005e-10 -8.98705e-09 0)
(-8.43293e-10 -8.07989e-10 0)
(-2.14239e-10 1.68219e-09 0)
(9.28108e-11 9.71487e-09 0)
(1.88291e-09 1.24115e-08 0)
(8.29588e-11 -1.03833e-09 0)
(-4.59355e-10 -3.12008e-09 0)
(-9.41477e-10 -4.6095e-09 0)
(-1.36391e-09 -5.4755e-09 0)
(-1.59607e-09 -4.7472e-09 0)
(-1.23505e-09 -2.36698e-09 0)
(-1.24024e-09 1.35495e-09 0)
(-1.1297e-09 4.62886e-09 0)
(-2.67293e-10 5.81342e-09 0)
(3.7892e-10 4.6144e-09 0)
(9.02417e-10 3.11553e-10 0)
(1.42575e-09 -4.92667e-09 0)
(1.8685e-09 -9.94382e-09 0)
(1.74406e-09 -1.19226e-08 0)
(1.40625e-09 -1.03505e-08 0)
(7.61375e-10 -8.20422e-09 0)
(4.58713e-10 -1.35478e-09 0)
(8.33204e-10 7.30103e-10 0)
(5.17971e-10 7.74824e-09 0)
(1.64714e-09 1.08085e-08 0)
(2.27697e-10 -1.06071e-09 0)
(-1.07773e-10 -3.63909e-09 0)
(-1.2798e-09 -4.80852e-09 0)
(-2.80755e-09 -4.54249e-09 0)
(-3.47971e-09 -2.76769e-09 0)
(-3.25368e-09 7.81178e-10 0)
(-2.29489e-09 4.91601e-09 0)
(-1.28579e-09 8.39645e-09 0)
(9.67019e-10 8.76504e-09 0)
(3.1284e-09 6.08016e-09 0)
(3.7813e-09 7.09385e-10 0)
(3.46667e-09 -5.17373e-09 0)
(2.80223e-09 -1.04197e-08 0)
(1.39182e-09 -1.21935e-08 0)
(2.31682e-10 -1.02491e-08 0)
(-1.13405e-09 -7.52446e-09 0)
(-1.21239e-09 -6.10334e-10 0)
(-3.66426e-10 1.3394e-09 0)
(2.10851e-10 8.07509e-09 0)
(3.38974e-09 1.0419e-08 0)
(1.28742e-10 -3.74506e-10 0)
(-2.16536e-10 -1.89848e-09 0)
(-9.96695e-10 -2.88903e-09 0)
(-1.90228e-09 -2.88945e-09 0)
(-1.65793e-09 -2.29317e-09 0)
(-1.43195e-09 -3.36974e-10 0)
(-1.24945e-09 2.02933e-09 0)
(-1.15527e-09 4.49437e-09 0)
(-3.43719e-10 5.41577e-09 0)
(1.55671e-09 3.72879e-09 0)
(2.38217e-09 1.31267e-10 0)
(2.08807e-09 -3.63711e-09 0)
(1.90134e-09 -7.26757e-09 0)
(1.52727e-09 -8.91961e-09 0)
(1.2932e-09 -8.03756e-09 0)
(5.69573e-10 -6.56649e-09 0)
(2.61638e-10 -1.32037e-09 0)
(7.63704e-10 4.96938e-10 0)
(7.87954e-10 5.88009e-09 0)
(3.29375e-09 8.06699e-09 0)
(1.46384e-10 -6.38248e-10 0)
(4.89349e-10 -2.35262e-09 0)
(-6.37877e-10 -3.64825e-09 0)
(-2.91863e-09 -3.18437e-09 0)
(-3.74069e-09 -1.86431e-09 0)
(-3.60637e-09 4.79437e-10 0)
(-3.21757e-09 3.14999e-09 0)
(-1.53311e-09 5.402e-09 0)
(4.26015e-10 6.04243e-09 0)
(2.8707e-09 4.55767e-09 0)
(4.50818e-09 1.11153e-09 0)
(4.30461e-09 -2.5841e-09 0)
(3.45891e-09 -6.09572e-09 0)
(2.10028e-09 -7.61131e-09 0)
(1.21472e-09 -6.74028e-09 0)
(-1.15391e-10 -5.27662e-09 0)
(-6.07679e-10 -7.76231e-10 0)
(5.44726e-11 4.88703e-10 0)
(5.18807e-10 5.00384e-09 0)
(4.2408e-09 6.9009e-09 0)
(5.2022e-11 -1.7669e-10 0)
(1.35606e-10 -1.93963e-09 0)
(-7.6335e-10 -2.50591e-09 0)
(-1.92466e-09 -2.03031e-09 0)
(-2.2932e-09 -6.01594e-10 0)
(-1.8625e-09 8.828e-10 0)
(-2.12377e-09 3.11884e-09 0)
(-1.1872e-09 5.03782e-09 0)
(5.91225e-11 5.08101e-09 0)
(1.95324e-09 3.54831e-09 0)
(3.38346e-09 3.37514e-10 0)
(3.42461e-09 -2.92726e-09 0)
(2.66238e-09 -5.49402e-09 0)
(1.23157e-09 -6.26303e-09 0)
(4.82586e-10 -5.34363e-09 0)
(-4.05412e-10 -4.06461e-09 0)
(-1.69197e-10 -5.24788e-10 0)
(8.58126e-10 7.24209e-10 0)
(1.10386e-09 4.41434e-09 0)
(4.80077e-09 5.3778e-09 0)
(1.43178e-10 6.2797e-10 0)
(7.31425e-10 -2.63855e-11 0)
(-7.51877e-10 -6.22475e-11 0)
(-2.72843e-09 -3.65405e-10 0)
(-3.67553e-09 -5.70629e-10 0)
(-3.54493e-09 -8.24909e-10 0)
(-3.13632e-09 3.64736e-10 0)
(1.56878e-09 1.62469e-10 0)
(3.03711e-10 7.90518e-10 0)
(3.01102e-09 1.09739e-09 0)
(4.44411e-09 3.12477e-10 0)
(4.50532e-09 -6.3807e-10 0)
(3.86571e-09 -1.39669e-09 0)
(2.25107e-09 -1.8678e-09 0)
(1.03935e-09 -2.0411e-09 0)
(-2.8141e-10 -2.36791e-09 0)
(-4.7892e-10 -1.34027e-09 0)
(5.07773e-10 -6.84942e-10 0)
(1.05378e-09 9.51546e-10 0)
(4.84367e-09 2.10354e-09 0)
(-2.89908e-12 -1.46328e-10 0)
(3.58009e-10 -9.11289e-10 0)
(-7.81468e-10 -1.09702e-09 0)
(-2.48771e-09 -6.51978e-10 0)
(-2.86312e-09 1.57261e-10 0)
(-2.1175e-09 1.8225e-09 0)
(-1.70073e-09 4.26999e-09 0)
(-5.20172e-09 4.13676e-09 0)
(5.3037e-10 3.8724e-09 0)
(1.92129e-09 2.66033e-09 0)
(2.81766e-09 4.33951e-10 0)
(3.41716e-09 -1.63943e-09 0)
(3.32947e-09 -3.02506e-09 0)
(1.91724e-09 -3.06571e-09 0)
(8.57324e-10 -2.1502e-09 0)
(-1.91886e-10 -1.02996e-09 0)
(6.26787e-11 5.81072e-10 0)
(1.16207e-09 8.16417e-10 0)
(1.41513e-09 2.29055e-09 0)
(5.16049e-09 2.24772e-09 0)
)
;

boundaryField
{
    sides
    {
        type            calculated;
        value           nonuniform List<vector> 
40
(
(-2.89908e-12 0 0)
(3.58009e-10 0 0)
(-7.81468e-10 0 0)
(-2.48771e-09 0 0)
(-2.86312e-09 0 0)
(-2.1175e-09 0 0)
(-1.70073e-09 0 0)
(-5.20172e-09 0 0)
(5.3037e-10 0 0)
(1.92129e-09 0 0)
(2.81766e-09 0 0)
(3.41716e-09 0 0)
(3.32947e-09 0 0)
(1.91724e-09 0 0)
(8.57324e-10 0 0)
(-1.91886e-10 0 0)
(6.26787e-11 0 0)
(1.16207e-09 0 0)
(1.41513e-09 0 0)
(5.16049e-09 0 0)
(-7.87896e-11 0 0)
(-1.99293e-10 0 0)
(7.78001e-10 0 0)
(2.33816e-09 0 0)
(3.25059e-09 0 0)
(1.39055e-09 0 0)
(1.98741e-09 0 0)
(6.19359e-09 0 0)
(-2.18657e-09 0 0)
(-2.24544e-09 0 0)
(-2.54012e-09 0 0)
(-3.19078e-09 0 0)
(-3.25484e-09 0 0)
(-1.90795e-09 0 0)
(-8.45845e-10 0 0)
(2.12653e-10 0 0)
(-6.20517e-11 0 0)
(-1.20942e-09 0 0)
(-1.45296e-09 0 0)
(-5.14625e-09 0 0)
)
;
    }
    inlet
    {
        type            calculated;
        value           uniform (0 0 0);
    }
    outlet
    {
        type            calculated;
        value           nonuniform List<vector> 
20
(
(-5.14625e-09 2.23721e-09 0)
(-4.7954e-09 2.09337e-09 0)
(-4.70953e-09 5.39085e-09 0)
(-4.17627e-09 6.95501e-09 0)
(-3.33738e-09 8.1596e-09 0)
(-3.55035e-09 1.04874e-08 0)
(-1.85548e-09 1.07925e-08 0)
(-1.98452e-09 1.22959e-08 0)
(-6.79002e-10 1.26159e-08 0)
(-2.56594e-10 1.31134e-08 0)
(4.78564e-10 1.31755e-08 0)
(7.66753e-10 1.27544e-08 0)
(1.88291e-09 1.24115e-08 0)
(1.64714e-09 1.08085e-08 0)
(3.38974e-09 1.0419e-08 0)
(3.29375e-09 8.06699e-09 0)
(4.2408e-09 6.9009e-09 0)
(4.80077e-09 5.3778e-09 0)
(4.84367e-09 2.10354e-09 0)
(5.16049e-09 2.24772e-09 0)
)
;
    }
    frontAndBack
    {
        type            empty;
    }
}


// ************************************************************************* //
