/*--------------------------------*- C++ -*----------------------------------*\
  =========                 |
  \\      /  F ield         | OpenFOAM: The Open Source CFD Toolbox
   \\    /   O peration     | Website:  https://openfoam.org
    \\  /    A nd           | Version:  7
     \\/     M anipulation  |
\*---------------------------------------------------------------------------*/
FoamFile
{
    version     2.0;
    format      ascii;
    class       volVectorField;
    location    "35";
    object      hU;
}
// * * * * * * * * * * * * * * * * * * * * * * * * * * * * * * * * * * * * * //

dimensions      [0 2 -1 0 0 0 0];

internalField   nonuniform List<vector> 
400
(
(0.000999999 -8.53361e-09 0)
(0.001 -2.29044e-08 0)
(0.001 -3.41561e-08 0)
(0.001 -4.38294e-08 0)
(0.00100001 -5.32263e-08 0)
(0.00100001 -6.36325e-08 0)
(0.00100002 -7.4672e-08 0)
(0.00100003 -8.74764e-08 0)
(0.00100004 -9.97441e-08 0)
(0.00100006 -1.13069e-07 0)
(0.00100007 -1.2449e-07 0)
(0.0010001 -1.3773e-07 0)
(0.00100012 -1.47019e-07 0)
(0.00100016 -1.62151e-07 0)
(0.00100018 -1.69824e-07 0)
(0.00100024 -1.93052e-07 0)
(0.00100026 -1.97757e-07 0)
(0.00100038 -2.40599e-07 0)
(0.00100038 -2.37179e-07 0)
(0.0010006 -3.31982e-07 0)
(0.001 3.83464e-09 0)
(0.00100001 1.16083e-08 0)
(0.00100001 1.96643e-08 0)
(0.00100002 2.7468e-08 0)
(0.00100002 3.50728e-08 0)
(0.00100002 4.20521e-08 0)
(0.00100003 4.89476e-08 0)
(0.00100004 5.43381e-08 0)
(0.00100005 5.96838e-08 0)
(0.00100006 6.3089e-08 0)
(0.00100008 6.7057e-08 0)
(0.00100011 6.82053e-08 0)
(0.00100013 7.21089e-08 0)
(0.00100016 6.96975e-08 0)
(0.00100019 7.42184e-08 0)
(0.00100024 6.2614e-08 0)
(0.00100026 6.86916e-08 0)
(0.00100035 3.32004e-08 0)
(0.00100037 4.17597e-08 0)
(0.0010005 -5.44716e-08 0)
(0.001 -3.99717e-09 0)
(0.001 -1.23621e-08 0)
(0.001 -2.0892e-08 0)
(0.001 -2.99191e-08 0)
(0.00100001 -3.91797e-08 0)
(0.00100001 -4.93938e-08 0)
(0.00100002 -6.05957e-08 0)
(0.00100003 -7.39367e-08 0)
(0.00100004 -8.78768e-08 0)
(0.00100005 -1.03957e-07 0)
(0.00100007 -1.18152e-07 0)
(0.00100009 -1.35236e-07 0)
(0.00100011 -1.48016e-07 0)
(0.00100014 -1.68822e-07 0)
(0.00100016 -1.81889e-07 0)
(0.00100021 -2.15693e-07 0)
(0.00100023 -2.29733e-07 0)
(0.00100031 -2.92496e-07 0)
(0.00100033 -3.01354e-07 0)
(0.00100046 -4.22184e-07 0)
(0.001 -5.38489e-11 0)
(0.001 1.07601e-09 0)
(0.00100001 3.51267e-09 0)
(0.00100001 6.2724e-09 0)
(0.00100001 8.68383e-09 0)
(0.00100002 9.57822e-09 0)
(0.00100003 8.71316e-09 0)
(0.00100003 4.954e-09 0)
(0.00100004 1.94615e-11 0)
(0.00100005 -7.77134e-09 0)
(0.00100007 -1.40876e-08 0)
(0.00100009 -2.37748e-08 0)
(0.00100011 -2.93541e-08 0)
(0.00100014 -4.33437e-08 0)
(0.00100016 -5.02069e-08 0)
(0.0010002 -7.88484e-08 0)
(0.00100022 -8.85432e-08 0)
(0.00100028 -1.48775e-07 0)
(0.0010003 -1.54888e-07 0)
(0.00100039 -2.75966e-07 0)
(0.001 -2.92805e-09 0)
(0.001 -8.54019e-09 0)
(0.001 -1.42631e-08 0)
(0.001 -2.06147e-08 0)
(0.00100001 -2.75556e-08 0)
(0.00100001 -3.59932e-08 0)
(0.00100002 -4.60965e-08 0)
(0.00100002 -5.94162e-08 0)
(0.00100003 -7.41871e-08 0)
(0.00100004 -9.21639e-08 0)
(0.00100005 -1.08762e-07 0)
(0.00100007 -1.28893e-07 0)
(0.00100009 -1.45018e-07 0)
(0.00100011 -1.6984e-07 0)
(0.00100013 -1.87493e-07 0)
(0.00100017 -2.27289e-07 0)
(0.00100018 -2.47484e-07 0)
(0.00100024 -3.19289e-07 0)
(0.00100025 -3.34069e-07 0)
(0.00100033 -4.64195e-07 0)
(0.001 -2.23583e-09 0)
(0.001 -5.28759e-09 0)
(0.001 -7.16244e-09 0)
(0.00100001 -8.9246e-09 0)
(0.00100001 -1.11856e-08 0)
(0.00100001 -1.56033e-08 0)
(0.00100002 -2.25727e-08 0)
(0.00100002 -3.36686e-08 0)
(0.00100003 -4.65728e-08 0)
(0.00100004 -6.26832e-08 0)
(0.00100005 -7.69597e-08 0)
(0.00100007 -9.41414e-08 0)
(0.00100008 -1.0687e-07 0)
(0.0010001 -1.28061e-07 0)
(0.00100012 -1.43056e-07 0)
(0.00100014 -1.80652e-07 0)
(0.00100016 -2.00119e-07 0)
(0.0010002 -2.71163e-07 0)
(0.00100021 -2.85229e-07 0)
(0.00100027 -4.15075e-07 0)
(0.001 -2.56709e-09 0)
(0.001 -7.1376e-09 0)
(0.001 -1.15153e-08 0)
(0.001 -1.62386e-08 0)
(0.00100001 -2.15194e-08 0)
(0.00100001 -2.89343e-08 0)
(0.00100001 -3.88964e-08 0)
(0.00100002 -5.31088e-08 0)
(0.00100002 -6.94803e-08 0)
(0.00100003 -8.9755e-08 0)
(0.00100004 -1.08933e-07 0)
(0.00100005 -1.31654e-07 0)
(0.00100006 -1.50198e-07 0)
(0.00100008 -1.77249e-07 0)
(0.00100009 -1.9766e-07 0)
(0.00100011 -2.40577e-07 0)
(0.00100012 -2.64354e-07 0)
(0.00100015 -3.40472e-07 0)
(0.00100016 -3.57625e-07 0)
(0.00100021 -4.9214e-07 0)
(0.001 -2.69626e-09 0)
(0.001 -7.32704e-09 0)
(0.001 -1.15963e-08 0)
(0.001 -1.59794e-08 0)
(0.001 -2.08733e-08 0)
(0.00100001 -2.81944e-08 0)
(0.00100001 -3.86029e-08 0)
(0.00100001 -5.36925e-08 0)
(0.00100002 -7.09893e-08 0)
(0.00100002 -9.18534e-08 0)
(0.00100003 -1.10943e-07 0)
(0.00100004 -1.32827e-07 0)
(0.00100005 -1.5017e-07 0)
(0.00100006 -1.75787e-07 0)
(0.00100007 -1.95515e-07 0)
(0.00100008 -2.37886e-07 0)
(0.00100009 -2.62302e-07 0)
(0.00100011 -3.38663e-07 0)
(0.00100012 -3.56475e-07 0)
(0.00100015 -4.90706e-07 0)
(0.001 -2.71078e-09 0)
(0.001 -7.42244e-09 0)
(0.001 -1.1972e-08 0)
(0.001 -1.67431e-08 0)
(0.001 -2.21174e-08 0)
(0.001 -2.99342e-08 0)
(0.00100001 -4.07853e-08 0)
(0.00100001 -5.63518e-08 0)
(0.00100001 -7.43914e-08 0)
(0.00100001 -9.64743e-08 0)
(0.00100002 -1.17255e-07 0)
(0.00100002 -1.41222e-07 0)
(0.00100003 -1.60751e-07 0)
(0.00100003 -1.8853e-07 0)
(0.00100004 -2.10086e-07 0)
(0.00100005 -2.5424e-07 0)
(0.00100005 -2.79764e-07 0)
(0.00100007 -3.5782e-07 0)
(0.00100007 -3.76121e-07 0)
(0.00100009 -5.12578e-07 0)
(0.001 -2.7257e-09 0)
(0.001 -7.50183e-09 0)
(0.001 -1.22195e-08 0)
(0.001 -1.71305e-08 0)
(0.001 -2.25597e-08 0)
(0.001 -3.05125e-08 0)
(0.001 -4.17725e-08 0)
(0.001 -5.80201e-08 0)
(0.001 -7.6823e-08 0)
(0.001 -9.95193e-08 0)
(0.00100001 -1.20651e-07 0)
(0.00100001 -1.4469e-07 0)
(0.00100001 -1.64165e-07 0)
(0.00100001 -1.91816e-07 0)
(0.00100001 -2.13523e-07 0)
(0.00100002 -2.57822e-07 0)
(0.00100002 -2.83913e-07 0)
(0.00100002 -3.62251e-07 0)
(0.00100002 -3.81099e-07 0)
(0.00100003 -5.17397e-07 0)
(0.001 -2.73133e-09 0)
(0.001 -7.5054e-09 0)
(0.001 -1.222e-08 0)
(0.000999999 -1.71299e-08 0)
(0.000999999 -2.25589e-08 0)
(0.000999999 -3.05102e-08 0)
(0.000999998 -4.17682e-08 0)
(0.000999997 -5.80161e-08 0)
(0.000999997 -7.68162e-08 0)
(0.000999996 -9.95141e-08 0)
(0.000999994 -1.20646e-07 0)
(0.000999992 -1.44681e-07 0)
(0.000999991 -1.64156e-07 0)
(0.000999988 -1.91809e-07 0)
(0.000999986 -2.13515e-07 0)
(0.000999983 -2.57812e-07 0)
(0.000999982 -2.83905e-07 0)
(0.000999978 -3.6224e-07 0)
(0.000999977 -3.81086e-07 0)
(0.000999971 -5.17388e-07 0)
(0.001 -2.72371e-09 0)
(0.000999999 -7.4313e-09 0)
(0.000999999 -1.19735e-08 0)
(0.000999998 -1.6743e-08 0)
(0.000999997 -2.21147e-08 0)
(0.000999996 -2.99302e-08 0)
(0.000999994 -4.07762e-08 0)
(0.000999992 -5.63438e-08 0)
(0.00099999 -7.43784e-08 0)
(0.000999986 -9.64611e-08 0)
(0.000999982 -1.17244e-07 0)
(0.000999978 -1.41201e-07 0)
(0.000999973 -1.60725e-07 0)
(0.000999966 -1.88501e-07 0)
(0.000999961 -2.10057e-07 0)
(0.000999952 -2.54201e-07 0)
(0.000999946 -2.79733e-07 0)
(0.000999934 -3.5777e-07 0)
(0.00099993 -3.76071e-07 0)
(0.000999911 -5.1251e-07 0)
(0.001 -2.70743e-09 0)
(0.000999999 -7.33649e-09 0)
(0.000999998 -1.15994e-08 0)
(0.000999997 -1.59811e-08 0)
(0.000999995 -2.08718e-08 0)
(0.000999993 -2.81955e-08 0)
(0.000999991 -3.85971e-08 0)
(0.000999988 -5.36871e-08 0)
(0.000999984 -7.09832e-08 0)
(0.000999978 -9.18424e-08 0)
(0.000999971 -1.10938e-07 0)
(0.000999962 -1.32822e-07 0)
(0.000999954 -1.50159e-07 0)
(0.000999943 -1.75771e-07 0)
(0.000999934 -1.95504e-07 0)
(0.000999919 -2.37873e-07 0)
(0.000999911 -2.62302e-07 0)
(0.00099989 -3.38649e-07 0)
(0.000999884 -3.56466e-07 0)
(0.000999854 -4.9069e-07 0)
(0.001 -2.56766e-09 0)
(0.000999999 -7.14252e-09 0)
(0.000999997 -1.15186e-08 0)
(0.000999996 -1.6239e-08 0)
(0.000999994 -2.1522e-08 0)
(0.000999991 -2.8935e-08 0)
(0.000999987 -3.88964e-08 0)
(0.000999982 -5.30974e-08 0)
(0.000999977 -6.94755e-08 0)
(0.00099997 -8.97426e-08 0)
(0.000999961 -1.0892e-07 0)
(0.00099995 -1.31642e-07 0)
(0.00099994 -1.50184e-07 0)
(0.000999924 -1.77219e-07 0)
(0.000999911 -1.97633e-07 0)
(0.000999889 -2.40531e-07 0)
(0.000999877 -2.6432e-07 0)
(0.000999846 -3.40393e-07 0)
(0.000999839 -3.57556e-07 0)
(0.000999793 -4.92004e-07 0)
(0.001 -2.22723e-09 0)
(0.000999998 -5.28704e-09 0)
(0.000999995 -7.16416e-09 0)
(0.000999993 -8.92927e-09 0)
(0.000999991 -1.11978e-08 0)
(0.000999988 -1.56067e-08 0)
(0.000999983 -2.25932e-08 0)
(0.000999978 -3.36733e-08 0)
(0.000999971 -4.65809e-08 0)
(0.000999961 -6.27017e-08 0)
(0.000999949 -7.69797e-08 0)
(0.000999934 -9.41642e-08 0)
(0.000999919 -1.06896e-07 0)
(0.0009999 -1.28079e-07 0)
(0.000999883 -1.43078e-07 0)
(0.000999857 -1.80667e-07 0)
(0.000999841 -2.00149e-07 0)
(0.000999803 -2.71173e-07 0)
(0.000999791 -2.85255e-07 0)
(0.000999735 -4.15075e-07 0)
(0.001 -2.91954e-09 0)
(0.000999999 -8.53314e-09 0)
(0.000999998 -1.4259e-08 0)
(0.000999996 -2.06152e-08 0)
(0.000999993 -2.75471e-08 0)
(0.000999989 -3.59855e-08 0)
(0.000999984 -4.61018e-08 0)
(0.000999977 -5.94236e-08 0)
(0.000999969 -7.41705e-08 0)
(0.000999958 -9.21512e-08 0)
(0.000999945 -1.08759e-07 0)
(0.000999928 -1.28889e-07 0)
(0.000999912 -1.45024e-07 0)
(0.000999887 -1.69832e-07 0)
(0.000999869 -1.87493e-07 0)
(0.000999834 -2.27257e-07 0)
(0.000999816 -2.47471e-07 0)
(0.000999764 -3.19217e-07 0)
(0.000999753 -3.34023e-07 0)
(0.000999672 -4.64044e-07 0)
(0.001 -5.48515e-11 0)
(0.000999997 1.07314e-09 0)
(0.000999992 3.50636e-09 0)
(0.000999989 6.26259e-09 0)
(0.000999985 8.69987e-09 0)
(0.000999981 9.55357e-09 0)
(0.000999975 8.71389e-09 0)
(0.000999968 4.90158e-09 0)
(0.000999958 2.37324e-12 0)
(0.000999945 -7.76777e-09 0)
(0.00099993 -1.40901e-08 0)
(0.00099991 -2.3779e-08 0)
(0.000999891 -2.93631e-08 0)
(0.000999864 -4.33445e-08 0)
(0.000999841 -5.02116e-08 0)
(0.000999803 -7.88329e-08 0)
(0.000999779 -8.85435e-08 0)
(0.000999721 -1.48745e-07 0)
(0.000999702 -1.54879e-07 0)
(0.000999615 -2.7592e-07 0)
(0.001 -4.00258e-09 0)
(0.001 -1.23611e-08 0)
(0.000999999 -2.08929e-08 0)
(0.000999997 -2.99121e-08 0)
(0.000999994 -3.91696e-08 0)
(0.000999989 -4.94234e-08 0)
(0.000999983 -6.05871e-08 0)
(0.000999974 -7.39736e-08 0)
(0.000999965 -8.78891e-08 0)
(0.00099995 -1.0395e-07 0)
(0.000999935 -1.18148e-07 0)
(0.000999912 -1.35229e-07 0)
(0.000999892 -1.4802e-07 0)
(0.00099986 -1.68815e-07 0)
(0.000999837 -1.81899e-07 0)
(0.000999788 -2.15673e-07 0)
(0.000999766 -2.29746e-07 0)
(0.000999688 -2.92456e-07 0)
(0.000999675 -3.01362e-07 0)
(0.000999542 -4.2211e-07 0)
(0.001 3.82396e-09 0)
(0.000999995 1.1613e-08 0)
(0.000999989 1.96699e-08 0)
(0.000999984 2.7489e-08 0)
(0.000999981 3.50315e-08 0)
(0.000999976 4.21065e-08 0)
(0.00099997 4.89546e-08 0)
(0.000999961 5.44648e-08 0)
(0.000999951 5.96845e-08 0)
(0.000999936 6.30668e-08 0)
(0.000999919 6.70568e-08 0)
(0.000999895 6.8233e-08 0)
(0.000999874 7.21401e-08 0)
(0.00099984 6.97403e-08 0)
(0.000999815 7.42484e-08 0)
(0.000999764 6.26698e-08 0)
(0.000999737 6.87248e-08 0)
(0.000999654 3.32796e-08 0)
(0.000999632 4.18076e-08 0)
(0.000999499 -5.43508e-08 0)
(0.001 -8.54152e-09 0)
(0.001 -2.29061e-08 0)
(0.000999998 -3.41581e-08 0)
(0.000999996 -4.38286e-08 0)
(0.000999993 -5.32807e-08 0)
(0.000999987 -6.3587e-08 0)
(0.00099998 -7.46884e-08 0)
(0.00099997 -8.73697e-08 0)
(0.00099996 -9.97769e-08 0)
(0.000999943 -1.13132e-07 0)
(0.000999927 -1.24539e-07 0)
(0.000999901 -1.37765e-07 0)
(0.000999882 -1.47055e-07 0)
(0.000999842 -1.62188e-07 0)
(0.000999822 -1.69873e-07 0)
(0.000999757 -1.931e-07 0)
(0.000999741 -1.97819e-07 0)
(0.000999623 -2.40668e-07 0)
(0.000999621 -2.37258e-07 0)
(0.000999397 -3.32114e-07 0)
)
;

boundaryField
{
    sides
    {
        type            slip;
    }
    inlet
    {
        type            fixedValue;
        value           uniform (0.001 0 0);
    }
    outlet
    {
        type            zeroGradient;
    }
    frontAndBack
    {
        type            empty;
    }
}


// ************************************************************************* //
