/*--------------------------------*- C++ -*----------------------------------*\
  =========                 |
  \\      /  F ield         | OpenFOAM: The Open Source CFD Toolbox
   \\    /   O peration     | Website:  https://openfoam.org
    \\  /    A nd           | Version:  7
     \\/     M anipulation  |
\*---------------------------------------------------------------------------*/
FoamFile
{
    version     2.0;
    format      ascii;
    class       volVectorField;
    location    "35";
    object      hU_0;
}
// * * * * * * * * * * * * * * * * * * * * * * * * * * * * * * * * * * * * * //

dimensions      [0 2 -1 0 0 0 0];

internalField   nonuniform List<vector> 
400
(
(0.001 -8.5085e-09 0)
(0.001 -2.28115e-08 0)
(0.001 -3.40337e-08 0)
(0.001 -4.3751e-08 0)
(0.00100001 -5.32435e-08 0)
(0.00100001 -6.37281e-08 0)
(0.00100002 -7.51587e-08 0)
(0.00100003 -8.78468e-08 0)
(0.00100004 -1.00068e-07 0)
(0.00100006 -1.1335e-07 0)
(0.00100007 -1.24568e-07 0)
(0.0010001 -1.37588e-07 0)
(0.00100012 -1.46717e-07 0)
(0.00100016 -1.61829e-07 0)
(0.00100018 -1.69588e-07 0)
(0.00100024 -1.92926e-07 0)
(0.00100026 -1.97797e-07 0)
(0.00100038 -2.40669e-07 0)
(0.00100038 -2.37395e-07 0)
(0.0010006 -3.32205e-07 0)
(0.001 3.79114e-09 0)
(0.00100001 1.15769e-08 0)
(0.00100001 1.96478e-08 0)
(0.00100002 2.74974e-08 0)
(0.00100002 3.51055e-08 0)
(0.00100002 4.21953e-08 0)
(0.00100003 4.88666e-08 0)
(0.00100004 5.43927e-08 0)
(0.00100005 5.96832e-08 0)
(0.00100006 6.29832e-08 0)
(0.00100008 6.70024e-08 0)
(0.00100011 6.82556e-08 0)
(0.00100013 7.22548e-08 0)
(0.00100016 6.99014e-08 0)
(0.00100019 7.44393e-08 0)
(0.00100024 6.28678e-08 0)
(0.00100026 6.8844e-08 0)
(0.00100035 3.32841e-08 0)
(0.00100037 4.16839e-08 0)
(0.0010005 -5.46743e-08 0)
(0.001 -3.98777e-09 0)
(0.001 -1.2199e-08 0)
(0.001 -2.06584e-08 0)
(0.001 -2.97045e-08 0)
(0.00100001 -3.90983e-08 0)
(0.00100001 -4.94758e-08 0)
(0.00100002 -6.08352e-08 0)
(0.00100003 -7.4398e-08 0)
(0.00100004 -8.83955e-08 0)
(0.00100005 -1.04321e-07 0)
(0.00100007 -1.18204e-07 0)
(0.00100009 -1.34959e-07 0)
(0.00100011 -1.47467e-07 0)
(0.00100014 -1.68176e-07 0)
(0.00100016 -1.81327e-07 0)
(0.00100021 -2.15252e-07 0)
(0.00100023 -2.29648e-07 0)
(0.00100031 -2.92545e-07 0)
(0.00100033 -3.01767e-07 0)
(0.00100046 -4.22718e-07 0)
(0.001 -1.79733e-11 0)
(0.001 1.31374e-09 0)
(0.00100001 3.88347e-09 0)
(0.00100001 6.60997e-09 0)
(0.00100001 8.90265e-09 0)
(0.00100002 9.54809e-09 0)
(0.00100002 8.45968e-09 0)
(0.00100003 4.42588e-09 0)
(0.00100004 -5.86683e-10 0)
(0.00100006 -8.22443e-09 0)
(0.00100007 -1.4202e-08 0)
(0.00100009 -2.35164e-08 0)
(0.00100011 -2.87398e-08 0)
(0.00100014 -4.25637e-08 0)
(0.00100016 -4.95044e-08 0)
(0.0010002 -7.82813e-08 0)
(0.00100022 -8.8426e-08 0)
(0.00100028 -1.488e-07 0)
(0.0010003 -1.55357e-07 0)
(0.00100039 -2.76651e-07 0)
(0.001 -2.90593e-09 0)
(0.001 -8.35528e-09 0)
(0.001 -1.39739e-08 0)
(0.001 -2.03163e-08 0)
(0.00100001 -2.73016e-08 0)
(0.00100001 -3.59231e-08 0)
(0.00100002 -4.62537e-08 0)
(0.00100002 -5.98391e-08 0)
(0.00100003 -7.46966e-08 0)
(0.00100004 -9.25282e-08 0)
(0.00100006 -1.08775e-07 0)
(0.00100007 -1.28526e-07 0)
(0.00100009 -1.44289e-07 0)
(0.00100011 -1.68934e-07 0)
(0.00100013 -1.86666e-07 0)
(0.00100017 -2.26593e-07 0)
(0.00100018 -2.47307e-07 0)
(0.00100024 -3.1931e-07 0)
(0.00100025 -3.34625e-07 0)
(0.00100033 -4.64999e-07 0)
(0.001 -2.13415e-09 0)
(0.001 -4.93085e-09 0)
(0.001 -6.67053e-09 0)
(0.00100001 -8.44645e-09 0)
(0.00100001 -1.08606e-08 0)
(0.00100001 -1.56086e-08 0)
(0.00100002 -2.29974e-08 0)
(0.00100002 -3.44434e-08 0)
(0.00100003 -4.74151e-08 0)
(0.00100004 -6.32921e-08 0)
(0.00100005 -7.7044e-08 0)
(0.00100007 -9.36434e-08 0)
(0.00100008 -1.05843e-07 0)
(0.0010001 -1.26826e-07 0)
(0.00100012 -1.41994e-07 0)
(0.00100014 -1.79843e-07 0)
(0.00100016 -1.99998e-07 0)
(0.0010002 -2.71257e-07 0)
(0.00100021 -2.85989e-07 0)
(0.00100027 -4.16111e-07 0)
(0.001 -2.46155e-09 0)
(0.001 -6.82867e-09 0)
(0.001 -1.10486e-08 0)
(0.001 -1.56731e-08 0)
(0.00100001 -2.10038e-08 0)
(0.00100001 -2.86376e-08 0)
(0.00100001 -3.89645e-08 0)
(0.00100002 -5.35094e-08 0)
(0.00100002 -7.00289e-08 0)
(0.00100003 -9.02058e-08 0)
(0.00100004 -1.08975e-07 0)
(0.00100005 -1.31188e-07 0)
(0.00100006 -1.49226e-07 0)
(0.00100008 -1.76044e-07 0)
(0.00100009 -1.96591e-07 0)
(0.00100011 -2.39702e-07 0)
(0.00100012 -2.64156e-07 0)
(0.00100015 -3.40496e-07 0)
(0.00100016 -3.58334e-07 0)
(0.00100021 -4.93204e-07 0)
(0.001 -2.5386e-09 0)
(0.001 -6.93568e-09 0)
(0.001 -1.10395e-08 0)
(0.001 -1.53298e-08 0)
(0.001 -2.03278e-08 0)
(0.00100001 -2.79767e-08 0)
(0.00100001 -3.88582e-08 0)
(0.00100001 -5.43266e-08 0)
(0.00100002 -7.1741e-08 0)
(0.00100002 -9.23815e-08 0)
(0.00100003 -1.10888e-07 0)
(0.00100004 -1.32127e-07 0)
(0.00100005 -1.4889e-07 0)
(0.00100006 -1.74302e-07 0)
(0.00100007 -1.94257e-07 0)
(0.00100008 -2.36924e-07 0)
(0.00100009 -2.62151e-07 0)
(0.00100011 -3.3877e-07 0)
(0.00100012 -3.57362e-07 0)
(0.00100015 -4.91922e-07 0)
(0.001 -2.51302e-09 0)
(0.001 -6.9971e-09 0)
(0.001 -1.1372e-08 0)
(0.001 -1.60368e-08 0)
(0.001 -2.1485e-08 0)
(0.001 -2.9609e-08 0)
(0.00100001 -4.0903e-08 0)
(0.00100001 -5.68642e-08 0)
(0.00100001 -7.50693e-08 0)
(0.00100001 -9.69916e-08 0)
(0.00100002 -1.17251e-07 0)
(0.00100002 -1.40607e-07 0)
(0.00100003 -1.59556e-07 0)
(0.00100003 -1.87094e-07 0)
(0.00100004 -2.08826e-07 0)
(0.00100005 -2.53217e-07 0)
(0.00100005 -2.79538e-07 0)
(0.00100007 -3.57861e-07 0)
(0.00100007 -3.76969e-07 0)
(0.00100009 -5.13823e-07 0)
(0.001 -2.50146e-09 0)
(0.001 -7.05314e-09 0)
(0.001 -1.15912e-08 0)
(0.001 -1.6378e-08 0)
(0.001 -2.18709e-08 0)
(0.001 -3.01519e-08 0)
(0.001 -4.18917e-08 0)
(0.001 -5.85652e-08 0)
(0.001 -7.75222e-08 0)
(0.001 -1.0002e-07 0)
(0.00100001 -1.20586e-07 0)
(0.00100001 -1.43978e-07 0)
(0.00100001 -1.62864e-07 0)
(0.00100001 -1.90296e-07 0)
(0.00100001 -2.12211e-07 0)
(0.00100002 -2.5678e-07 0)
(0.00100002 -2.83714e-07 0)
(0.00100002 -3.62336e-07 0)
(0.00100002 -3.82024e-07 0)
(0.00100003 -5.18694e-07 0)
(0.001 -2.5073e-09 0)
(0.001 -7.0564e-09 0)
(0.001 -1.15945e-08 0)
(0.000999999 -1.63782e-08 0)
(0.000999999 -2.18703e-08 0)
(0.000999999 -3.01472e-08 0)
(0.000999998 -4.18868e-08 0)
(0.000999997 -5.85582e-08 0)
(0.000999997 -7.75141e-08 0)
(0.000999996 -1.00013e-07 0)
(0.000999994 -1.20576e-07 0)
(0.000999992 -1.43967e-07 0)
(0.000999991 -1.62857e-07 0)
(0.000999988 -1.90288e-07 0)
(0.000999986 -2.12201e-07 0)
(0.000999983 -2.56771e-07 0)
(0.000999982 -2.83708e-07 0)
(0.000999978 -3.62332e-07 0)
(0.000999977 -3.82019e-07 0)
(0.000999971 -5.1869e-07 0)
(0.001 -2.527e-09 0)
(0.001 -7.00554e-09 0)
(0.000999999 -1.13783e-08 0)
(0.000999998 -1.60382e-08 0)
(0.000999997 -2.1484e-08 0)
(0.000999996 -2.96006e-08 0)
(0.000999994 -4.08932e-08 0)
(0.000999992 -5.68518e-08 0)
(0.00099999 -7.50525e-08 0)
(0.000999986 -9.6977e-08 0)
(0.000999982 -1.17233e-07 0)
(0.000999977 -1.40581e-07 0)
(0.000999973 -1.59531e-07 0)
(0.000999966 -1.87064e-07 0)
(0.000999961 -2.08796e-07 0)
(0.000999952 -2.53181e-07 0)
(0.000999946 -2.79514e-07 0)
(0.000999933 -3.57824e-07 0)
(0.00099993 -3.7694e-07 0)
(0.000999911 -5.13767e-07 0)
(0.001 -2.55134e-09 0)
(0.000999999 -6.94329e-09 0)
(0.000999998 -1.10432e-08 0)
(0.000999997 -1.53336e-08 0)
(0.000999995 -2.03285e-08 0)
(0.000999993 -2.79767e-08 0)
(0.000999991 -3.88525e-08 0)
(0.000999988 -5.43224e-08 0)
(0.000999984 -7.17303e-08 0)
(0.000999978 -9.23718e-08 0)
(0.000999971 -1.10884e-07 0)
(0.000999962 -1.32119e-07 0)
(0.000999954 -1.48879e-07 0)
(0.000999943 -1.74288e-07 0)
(0.000999934 -1.94249e-07 0)
(0.000999919 -2.36914e-07 0)
(0.000999911 -2.62157e-07 0)
(0.00099989 -3.38769e-07 0)
(0.000999884 -3.57372e-07 0)
(0.000999853 -4.91916e-07 0)
(0.001 -2.46328e-09 0)
(0.000999999 -6.82956e-09 0)
(0.000999997 -1.10477e-08 0)
(0.000999996 -1.56736e-08 0)
(0.000999994 -2.10049e-08 0)
(0.000999991 -2.86458e-08 0)
(0.000999987 -3.89627e-08 0)
(0.000999982 -5.3508e-08 0)
(0.000999977 -7.00268e-08 0)
(0.00099997 -9.01935e-08 0)
(0.000999961 -1.08969e-07 0)
(0.00099995 -1.31181e-07 0)
(0.000999939 -1.49212e-07 0)
(0.000999924 -1.76016e-07 0)
(0.000999911 -1.96565e-07 0)
(0.000999889 -2.39657e-07 0)
(0.000999877 -2.64124e-07 0)
(0.000999846 -3.40421e-07 0)
(0.000999839 -3.5827e-07 0)
(0.000999793 -4.93069e-07 0)
(0.001 -2.12704e-09 0)
(0.000999998 -4.92839e-09 0)
(0.000999996 -6.66756e-09 0)
(0.000999993 -8.44611e-09 0)
(0.000999991 -1.08712e-08 0)
(0.000999988 -1.56203e-08 0)
(0.000999984 -2.30133e-08 0)
(0.000999978 -3.44484e-08 0)
(0.000999971 -4.74369e-08 0)
(0.00099996 -6.33138e-08 0)
(0.000999948 -7.70679e-08 0)
(0.000999933 -9.36717e-08 0)
(0.000999919 -1.0587e-07 0)
(0.000999899 -1.26844e-07 0)
(0.000999883 -1.42015e-07 0)
(0.000999857 -1.79854e-07 0)
(0.000999841 -2.00025e-07 0)
(0.000999803 -2.71261e-07 0)
(0.000999791 -2.86006e-07 0)
(0.000999734 -4.16105e-07 0)
(0.001 -2.89306e-09 0)
(0.000999999 -8.35227e-09 0)
(0.000999998 -1.39676e-08 0)
(0.000999996 -2.03115e-08 0)
(0.000999994 -2.72981e-08 0)
(0.000999989 -3.59048e-08 0)
(0.000999984 -4.62625e-08 0)
(0.000999977 -5.98222e-08 0)
(0.000999969 -7.46808e-08 0)
(0.000999958 -9.25236e-08 0)
(0.000999945 -1.08776e-07 0)
(0.000999928 -1.28526e-07 0)
(0.000999912 -1.44295e-07 0)
(0.000999887 -1.68924e-07 0)
(0.000999869 -1.86661e-07 0)
(0.000999834 -2.26556e-07 0)
(0.000999816 -2.47287e-07 0)
(0.000999764 -3.19226e-07 0)
(0.000999753 -3.34565e-07 0)
(0.000999671 -4.6484e-07 0)
(0.001 -9.04843e-12 0)
(0.000999997 1.30638e-09 0)
(0.000999992 3.87749e-09 0)
(0.000999989 6.59892e-09 0)
(0.000999986 8.90897e-09 0)
(0.000999981 9.55796e-09 0)
(0.000999975 8.42714e-09 0)
(0.000999968 4.39757e-09 0)
(0.000999958 -5.75099e-10 0)
(0.000999945 -8.21994e-09 0)
(0.00099993 -1.42078e-08 0)
(0.00099991 -2.35227e-08 0)
(0.000999891 -2.8749e-08 0)
(0.000999863 -4.25634e-08 0)
(0.000999841 -4.95072e-08 0)
(0.000999803 -7.82642e-08 0)
(0.000999779 -8.84235e-08 0)
(0.000999721 -1.48763e-07 0)
(0.000999702 -1.5534e-07 0)
(0.000999614 -2.76601e-07 0)
(0.001 -3.99514e-09 0)
(0.001 -1.21986e-08 0)
(0.000999999 -2.06619e-08 0)
(0.000999997 -2.97059e-08 0)
(0.000999995 -3.90852e-08 0)
(0.000999989 -4.94783e-08 0)
(0.000999983 -6.09004e-08 0)
(0.000999974 -7.44308e-08 0)
(0.000999965 -8.83818e-08 0)
(0.00099995 -1.04303e-07 0)
(0.000999934 -1.18198e-07 0)
(0.000999912 -1.3495e-07 0)
(0.000999892 -1.4747e-07 0)
(0.00099986 -1.68169e-07 0)
(0.000999837 -1.81338e-07 0)
(0.000999788 -2.15235e-07 0)
(0.000999766 -2.29663e-07 0)
(0.000999688 -2.92506e-07 0)
(0.000999675 -3.01776e-07 0)
(0.000999542 -4.22643e-07 0)
(0.001 3.76998e-09 0)
(0.000999995 1.15862e-08 0)
(0.000999989 1.96474e-08 0)
(0.000999985 2.75165e-08 0)
(0.000999981 3.50907e-08 0)
(0.000999976 4.21615e-08 0)
(0.00099997 4.90033e-08 0)
(0.000999962 5.44398e-08 0)
(0.000999951 5.96304e-08 0)
(0.000999935 6.29732e-08 0)
(0.000999918 6.70213e-08 0)
(0.000999895 6.82924e-08 0)
(0.000999873 7.22861e-08 0)
(0.000999839 6.99401e-08 0)
(0.000999815 7.44634e-08 0)
(0.000999764 6.29157e-08 0)
(0.000999737 6.88688e-08 0)
(0.000999654 3.33562e-08 0)
(0.000999632 4.17263e-08 0)
(0.000999498 -5.4555e-08 0)
(0.001 -8.52044e-09 0)
(0.001 -2.28087e-08 0)
(0.000999998 -3.4039e-08 0)
(0.000999996 -4.37464e-08 0)
(0.000999993 -5.32796e-08 0)
(0.000999987 -6.37754e-08 0)
(0.00099998 -7.49983e-08 0)
(0.00099997 -8.78165e-08 0)
(0.00099996 -1.0016e-07 0)
(0.000999943 -1.13406e-07 0)
(0.000999927 -1.24603e-07 0)
(0.0009999 -1.37617e-07 0)
(0.000999882 -1.46754e-07 0)
(0.000999841 -1.61869e-07 0)
(0.000999822 -1.6964e-07 0)
(0.000999757 -1.92979e-07 0)
(0.000999741 -1.97864e-07 0)
(0.000999623 -2.40742e-07 0)
(0.000999621 -2.37477e-07 0)
(0.000999396 -3.32339e-07 0)
)
;

boundaryField
{
    sides
    {
        type            slip;
    }
    inlet
    {
        type            fixedValue;
        value           uniform (0.001 0 0);
    }
    outlet
    {
        type            zeroGradient;
    }
    frontAndBack
    {
        type            empty;
    }
}


// ************************************************************************* //
