/*--------------------------------*- C++ -*----------------------------------*\
  =========                 |
  \\      /  F ield         | OpenFOAM: The Open Source CFD Toolbox
   \\    /   O peration     | Website:  https://openfoam.org
    \\  /    A nd           | Version:  7
     \\/     M anipulation  |
\*---------------------------------------------------------------------------*/
FoamFile
{
    version     2.0;
    format      ascii;
    class       surfaceScalarField;
    location    "35";
    object      phi_0;
}
// * * * * * * * * * * * * * * * * * * * * * * * * * * * * * * * * * * * * * //

dimensions      [0 4 -1 0 0 0 0];

internalField   nonuniform List<scalar> 
760
(
4.99999e-06
1.04665e-11
5e-06
-2.89603e-12
5.00001e-06
-9.01451e-12
5.00003e-06
-1.2758e-11
5.00005e-06
-1.72402e-11
5.00008e-06
-2.60933e-11
5.00012e-06
-3.28236e-11
5.00017e-06
-5.54807e-11
5.00024e-06
-6.02593e-11
5.00033e-06
-7.91981e-11
5.00042e-06
-9.35268e-11
5.00055e-06
-1.17413e-10
5.00068e-06
-1.28187e-10
5.00085e-06
-1.64667e-10
5.00102e-06
-1.71888e-10
5.00127e-06
-2.47151e-10
5.00152e-06
-2.46158e-10
5.00194e-06
-4.23147e-10
5.00234e-06
-4.05946e-10
-8.92678e-10
5.00003e-06
-1.33897e-11
5.00005e-06
-1.77647e-11
5.00006e-06
-2.16532e-11
5.00008e-06
-2.83237e-11
5.0001e-06
-3.62076e-11
5.00013e-06
-4.85988e-11
5.00017e-06
-6.58082e-11
5.00022e-06
-9.13206e-11
5.00028e-06
-1.19552e-10
5.00036e-06
-1.57689e-10
5.00046e-06
-1.86424e-10
5.00058e-06
-2.30868e-10
5.00071e-06
-2.54432e-10
5.00087e-06
-3.18771e-10
5.00104e-06
-3.41882e-10
5.00126e-06
-4.66435e-10
5.0015e-06
-4.88039e-10
5.00183e-06
-7.50236e-10
5.00217e-06
-7.43377e-10
-1.26375e-09
4.99999e-06
-3.69946e-12
5e-06
-1.57604e-11
5.00001e-06
-2.61601e-11
5.00002e-06
-3.74912e-11
5.00004e-06
-5.11391e-11
5.00007e-06
-7.0579e-11
5.0001e-06
-9.66584e-11
5.00015e-06
-1.34333e-10
5.00021e-06
-1.76131e-10
5.00029e-06
-2.292e-10
5.00038e-06
-2.74741e-10
5.00049e-06
-3.35295e-10
5.00062e-06
-3.77336e-10
5.00076e-06
-4.59092e-10
5.00093e-06
-5.07528e-10
5.00112e-06
-6.57383e-10
5.00135e-06
-7.17156e-10
5.00161e-06
-1.01534e-09
5.00193e-06
-1.05889e-09
-1.69275e-09
5.00001e-06
-1.29699e-11
5.00003e-06
-2.75779e-11
5.00005e-06
-3.88405e-11
5.00006e-06
-5.14555e-11
5.00008e-06
-6.6692e-11
5.00011e-06
-9.09366e-11
5.00014e-06
-1.24237e-10
5.00018e-06
-1.74007e-10
5.00024e-06
-2.287e-10
5.00031e-06
-2.97436e-10
5.0004e-06
-3.56377e-10
5.0005e-06
-4.32629e-10
5.00061e-06
-4.86863e-10
5.00074e-06
-5.86507e-10
5.00088e-06
-6.4977e-10
5.00105e-06
-8.26921e-10
5.00124e-06
-9.06196e-10
5.00147e-06
-1.24584e-09
5.00172e-06
-1.29954e-09
-1.90182e-09
5e-06
-1.00271e-11
5.00001e-06
-2.73707e-11
5.00001e-06
-4.24844e-11
5.00003e-06
-5.94991e-11
5.00004e-06
-7.97396e-11
5.00007e-06
-1.09567e-10
5.0001e-06
-1.49835e-10
5.00013e-06
-2.08052e-10
5.00018e-06
-2.73718e-10
5.00024e-06
-3.54278e-10
5.00032e-06
-4.26778e-10
5.0004e-06
-5.15313e-10
5.0005e-06
-5.84075e-10
5.00061e-06
-6.96215e-10
5.00074e-06
-7.77554e-10
5.00088e-06
-9.69034e-10
5.00105e-06
-1.06951e-09
5.00122e-06
-1.42166e-09
5.00142e-06
-1.49457e-09
-2.16696e-09
5.00001e-06
-1.25669e-11
5.00002e-06
-3.25404e-11
5.00003e-06
-4.97092e-11
5.00004e-06
-6.81197e-11
5.00005e-06
-8.98359e-11
5.00007e-06
-1.23467e-10
5.00009e-06
-1.70578e-10
5.00013e-06
-2.38573e-10
5.00017e-06
-3.14976e-10
5.00023e-06
-4.07632e-10
5.00029e-06
-4.9078e-10
5.00037e-06
-5.8958e-10
5.00045e-06
-6.6627e-10
5.00054e-06
-7.87418e-10
5.00064e-06
-8.7781e-10
5.00076e-06
-1.08255e-09
5.00088e-06
-1.19568e-09
5.00103e-06
-1.56911e-09
5.00119e-06
-1.65351e-09
-2.29916e-09
5e-06
-1.27485e-11
5.00001e-06
-3.39345e-11
5.00002e-06
-5.3514e-11
5.00003e-06
-7.44789e-11
5.00004e-06
-9.91468e-11
5.00005e-06
-1.36304e-10
5.00007e-06
-1.88262e-10
5.0001e-06
-2.61919e-10
5.00013e-06
-3.45213e-10
5.00017e-06
-4.45745e-10
5.00022e-06
-5.3765e-10
5.00028e-06
-6.45058e-10
5.00034e-06
-7.31098e-10
5.00041e-06
-8.60534e-10
5.0005e-06
-9.60894e-10
5.00059e-06
-1.17403e-09
5.00069e-06
-1.29713e-09
5.0008e-06
-1.67685e-09
5.00091e-06
-1.7642e-09
-2.44729e-09
5e-06
-1.26459e-11
5.00001e-06
-3.49617e-11
5.00001e-06
-5.63967e-11
5.00002e-06
-7.90751e-11
5.00003e-06
-1.05214e-10
5.00004e-06
-1.44485e-10
5.00005e-06
-2.0008e-10
5.00007e-06
-2.79337e-10
5.0001e-06
-3.69489e-10
5.00013e-06
-4.77194e-10
5.00017e-06
-5.7542e-10
5.00021e-06
-6.88283e-10
5.00026e-06
-7.78849e-10
5.00031e-06
-9.12503e-10
5.00037e-06
-1.01766e-09
5.00043e-06
-1.23615e-09
5.0005e-06
-1.36534e-09
5.00057e-06
-1.75345e-09
5.00066e-06
-1.84934e-09
-2.5225e-09
5e-06
-1.25917e-11
5e-06
-3.5452e-11
5.00001e-06
-5.78304e-11
5.00001e-06
-8.14433e-11
5.00002e-06
-1.08827e-10
5.00002e-06
-1.5019e-10
5.00003e-06
-2.08394e-10
5.00005e-06
-2.90614e-10
5.00006e-06
-3.83874e-10
5.00008e-06
-4.94893e-10
5.0001e-06
-5.96617e-10
5.00012e-06
-7.12918e-10
5.00015e-06
-8.06919e-10
5.00018e-06
-9.43888e-10
5.00022e-06
-1.05282e-09
5.00026e-06
-1.27514e-09
5.0003e-06
-1.40825e-09
5.00035e-06
-1.80013e-09
5.00039e-06
-1.89551e-09
-2.57867e-09
5e-06
-1.25781e-11
5e-06
-3.55246e-11
5e-06
-5.82792e-11
5e-06
-8.24558e-11
5.00001e-06
-1.10349e-10
5.00001e-06
-1.52054e-10
5.00001e-06
-2.10649e-10
5.00001e-06
-2.9368e-10
5.00002e-06
-3.88274e-10
5.00003e-06
-5.00963e-10
5.00003e-06
-6.04344e-10
5.00004e-06
-7.22091e-10
5.00005e-06
-8.17268e-10
5.00006e-06
-9.54949e-10
5.00008e-06
-1.06456e-09
5.00009e-06
-1.28708e-09
5.0001e-06
-1.42103e-09
5.00011e-06
-1.81343e-09
5.00013e-06
-1.91146e-09
-2.59478e-09
5e-06
-1.26506e-11
5e-06
-3.5486e-11
5e-06
-5.7864e-11
5e-06
-8.14439e-11
4.99999e-06
-1.08818e-10
4.99999e-06
-1.5014e-10
4.99999e-06
-2.08345e-10
4.99999e-06
-2.90548e-10
4.99998e-06
-3.83799e-10
4.99997e-06
-4.94832e-10
4.99997e-06
-5.96527e-10
4.99996e-06
-7.12811e-10
4.99995e-06
-8.06834e-10
4.99994e-06
-9.43791e-10
4.99992e-06
-1.05271e-09
4.99991e-06
-1.27503e-09
4.9999e-06
-1.40819e-09
4.99989e-06
-1.80005e-09
4.99987e-06
-1.89545e-09
-2.57853e-09
5e-06
-1.27278e-11
5e-06
-3.50154e-11
4.99999e-06
-5.6426e-11
4.99999e-06
-7.90858e-11
4.99998e-06
-1.0521e-10
4.99998e-06
-1.44449e-10
4.99997e-06
-2.00027e-10
4.99995e-06
-2.79275e-10
4.99994e-06
-3.69393e-10
4.99992e-06
-4.77114e-10
4.9999e-06
-5.7534e-10
4.99988e-06
-6.8816e-10
4.99985e-06
-7.78717e-10
4.99982e-06
-9.12362e-10
4.99978e-06
-1.01753e-09
4.99974e-06
-1.23599e-09
4.9997e-06
-1.36525e-09
4.99965e-06
-1.75331e-09
4.99961e-06
-1.84924e-09
-2.5223e-09
5e-06
-1.27932e-11
4.99999e-06
-3.39625e-11
4.99999e-06
-5.3527e-11
4.99998e-06
-7.45057e-11
4.99997e-06
-9.91513e-11
4.99996e-06
-1.36333e-10
4.99995e-06
-1.8825e-10
4.99993e-06
-2.61921e-10
4.9999e-06
-3.45179e-10
4.99987e-06
-4.45689e-10
4.99983e-06
-5.37645e-10
4.99979e-06
-6.45038e-10
4.99974e-06
-7.3104e-10
4.99969e-06
-8.60433e-10
4.99963e-06
-9.6082e-10
4.99957e-06
-1.17391e-09
4.9995e-06
-1.29709e-09
4.99943e-06
-1.67669e-09
4.99934e-06
-1.7641e-09
-2.44697e-09
5e-06
-1.25407e-11
4.99999e-06
-3.25324e-11
4.99998e-06
-4.97042e-11
4.99997e-06
-6.81167e-11
4.99996e-06
-8.98674e-11
4.99995e-06
-1.23554e-10
4.99993e-06
-1.70605e-10
4.9999e-06
-2.38601e-10
4.99987e-06
-3.15051e-10
4.99983e-06
-4.07649e-10
4.99978e-06
-4.9082e-10
4.99972e-06
-5.89637e-10
4.99966e-06
-6.66312e-10
4.99959e-06
-7.87394e-10
4.9995e-06
-8.77799e-10
4.99941e-06
-1.08247e-09
4.99931e-06
-1.19567e-09
4.9992e-06
-1.56892e-09
4.99909e-06
-1.65339e-09
-2.29879e-09
4.99999e-06
-9.96462e-12
4.99998e-06
-2.73569e-11
4.99997e-06
-4.24683e-11
4.99996e-06
-5.9489e-11
4.99995e-06
-7.97997e-11
4.99993e-06
-1.09523e-10
4.99991e-06
-1.49917e-10
4.99987e-06
-2.07975e-10
4.99983e-06
-2.73756e-10
4.99977e-06
-3.54365e-10
4.99971e-06
-4.26864e-10
4.99963e-06
-5.15405e-10
4.99955e-06
-5.84187e-10
4.99946e-06
-6.96261e-10
4.99936e-06
-7.77612e-10
4.99924e-06
-9.68983e-10
4.99912e-06
-1.06953e-09
4.99897e-06
-1.42145e-09
4.99881e-06
-1.49445e-09
-2.16654e-09
5e-06
-1.29081e-11
4.99999e-06
-2.75766e-11
4.99999e-06
-3.88307e-11
4.99997e-06
-5.14699e-11
4.99996e-06
-6.66681e-11
4.99993e-06
-9.08122e-11
4.9999e-06
-1.24363e-10
4.99987e-06
-1.7401e-10
4.99982e-06
-2.28583e-10
4.99976e-06
-2.9741e-10
4.99968e-06
-3.56404e-10
4.9996e-06
-4.32647e-10
4.9995e-06
-4.86912e-10
4.99939e-06
-5.86495e-10
4.99926e-06
-6.49783e-10
4.99912e-06
-8.26804e-10
4.99895e-06
-9.06168e-10
4.99878e-06
-1.24558e-09
4.99858e-06
-1.29938e-09
-1.90132e-09
4.99999e-06
-3.70549e-12
4.99997e-06
-1.57317e-11
4.99995e-06
-2.61786e-11
4.99994e-06
-3.75204e-11
4.99992e-06
-5.10555e-11
4.99989e-06
-7.06571e-11
4.99986e-06
-9.68117e-11
4.99982e-06
-1.34575e-10
4.99976e-06
-1.76119e-10
4.99969e-06
-2.29122e-10
4.9996e-06
-2.74711e-10
4.9995e-06
-3.35273e-10
4.99939e-06
-3.77358e-10
4.99926e-06
-4.5907e-10
4.99912e-06
-5.07555e-10
4.99895e-06
-6.57281e-10
4.99876e-06
-7.17159e-10
4.99853e-06
-1.01512e-09
4.99829e-06
-1.05883e-09
-1.69239e-09
5.00001e-06
-1.3496e-11
5e-06
-1.7733e-11
4.99999e-06
-2.16696e-11
4.99998e-06
-2.8263e-11
4.99996e-06
-3.61465e-11
4.99993e-06
-4.89486e-11
4.9999e-06
-6.53844e-11
4.99985e-06
-9.15932e-11
4.99979e-06
-1.19685e-10
4.99971e-06
-1.5763e-10
4.99962e-06
-1.86342e-10
4.99951e-06
-2.3075e-10
4.99938e-06
-2.54364e-10
4.99924e-06
-3.18649e-10
4.99907e-06
-3.41851e-10
4.99888e-06
-4.66259e-10
4.99865e-06
-4.88014e-10
4.99839e-06
-7.49951e-10
4.99807e-06
-7.43295e-10
-1.26329e-09
4.99997e-06
1.0379e-11
4.99995e-06
-2.87426e-12
4.99994e-06
-9.02659e-12
4.99992e-06
-1.27008e-11
4.9999e-06
-1.74736e-11
4.99987e-06
-2.59772e-11
4.99983e-06
-3.51785e-11
4.99978e-06
-5.48332e-11
4.99972e-06
-6.04141e-11
4.99964e-06
-7.93542e-11
4.99954e-06
-9.35955e-11
4.99942e-06
-1.17405e-10
4.99929e-06
-1.2819e-10
4.99913e-06
-1.6466e-10
4.99896e-06
-1.71939e-10
4.99874e-06
-2.47152e-10
4.9985e-06
-2.46239e-10
4.99817e-06
-4.23141e-10
4.99783e-06
-4.06037e-10
-8.92705e-10
5.00001e-06
5e-06
4.99999e-06
4.99997e-06
4.99995e-06
4.99992e-06
4.99988e-06
4.99982e-06
4.99976e-06
4.99967e-06
4.99958e-06
4.99945e-06
4.99932e-06
4.99915e-06
4.99898e-06
4.99873e-06
4.99848e-06
4.99806e-06
4.99765e-06
)
;

boundaryField
{
    sides
    {
        type            calculated;
        value           uniform 0;
    }
    inlet
    {
        type            calculated;
        value           nonuniform List<scalar> 
20
(
-5e-06
-5e-06
-5e-06
-5e-06
-5e-06
-5e-06
-5e-06
-5e-06
-5e-06
-5e-06
-5e-06
-5e-06
-5e-06
-5e-06
-5e-06
-5e-06
-5e-06
-5e-06
-5e-06
-5e-06
)
;
    }
    outlet
    {
        type            calculated;
        value           nonuniform List<scalar> 
20
(
5.00324e-06
5.00254e-06
5.00236e-06
5.00192e-06
5.00168e-06
5.00132e-06
5.00106e-06
5.00073e-06
5.00045e-06
5.00015e-06
4.99985e-06
4.99955e-06
4.99927e-06
4.99894e-06
4.99868e-06
4.99832e-06
4.99808e-06
4.99764e-06
4.99746e-06
4.99676e-06
)
;
    }
    frontAndBack
    {
        type            empty;
        value           nonuniform 0();
    }
}


// ************************************************************************* //
