/*--------------------------------*- C++ -*----------------------------------*\
  =========                 |
  \\      /  F ield         | OpenFOAM: The Open Source CFD Toolbox
   \\    /   O peration     | Website:  https://openfoam.org
    \\  /    A nd           | Version:  7
     \\/     M anipulation  |
\*---------------------------------------------------------------------------*/
FoamFile
{
    version     2.0;
    format      ascii;
    class       volVectorField;
    location    "35";
    object      U;
}
// * * * * * * * * * * * * * * * * * * * * * * * * * * * * * * * * * * * * * //

dimensions      [0 1 -1 0 0 0 0];

internalField   nonuniform List<vector> 
400
(
(0.099993 -8.53301e-07 0)
(0.0999931 -2.29029e-06 0)
(0.0999933 -3.41538e-06 0)
(0.0999936 -4.38264e-06 0)
(0.099994 -5.32227e-06 0)
(0.0999947 -6.36282e-06 0)
(0.0999955 -7.4667e-06 0)
(0.0999966 -8.74708e-06 0)
(0.0999977 -9.97378e-06 0)
(0.0999996 -1.13062e-05 0)
(0.100001 -1.24483e-05 0)
(0.100004 -1.37723e-05 0)
(0.100006 -1.47011e-05 0)
(0.100011 -1.62143e-05 0)
(0.100013 -1.69816e-05 0)
(0.10002 -1.93044e-05 0)
(0.100022 -1.9775e-05 0)
(0.100035 -2.40592e-05 0)
(0.100036 -2.37175e-05 0)
(0.100059 -3.31979e-05 0)
(0.0999942 3.83441e-07 0)
(0.0999948 1.16077e-06 0)
(0.0999955 1.96632e-06 0)
(0.099996 2.74665e-06 0)
(0.0999964 3.50709e-06 0)
(0.099997 4.20498e-06 0)
(0.0999977 4.8945e-06 0)
(0.0999987 5.43353e-06 0)
(0.0999998 5.96808e-06 0)
(0.100002 6.30859e-06 0)
(0.100003 6.70539e-06 0)
(0.100006 6.82023e-06 0)
(0.100008 7.21059e-06 0)
(0.100012 6.96948e-06 0)
(0.100015 7.42158e-06 0)
(0.100021 6.26121e-06 0)
(0.100024 6.86899e-06 0)
(0.100033 3.31998e-06 0)
(0.100036 4.17592e-06 0)
(0.10005 -5.44713e-06 0)
(0.0999947 -3.99696e-07 0)
(0.0999947 -1.23614e-06 0)
(0.0999949 -2.08909e-06 0)
(0.0999951 -2.99176e-06 0)
(0.0999954 -3.91777e-06 0)
(0.099996 -4.93913e-06 0)
(0.0999967 -6.05927e-06 0)
(0.0999977 -7.39331e-06 0)
(0.0999988 -8.78727e-06 0)
(0.1 -1.03952e-05 0)
(0.100002 -1.18147e-05 0)
(0.100005 -1.35231e-05 0)
(0.100007 -1.4801e-05 0)
(0.10001 -1.68816e-05 0)
(0.100013 -1.81883e-05 0)
(0.100018 -2.15687e-05 0)
(0.100021 -2.29728e-05 0)
(0.100029 -2.92491e-05 0)
(0.100031 -3.01351e-05 0)
(0.100045 -4.22182e-05 0)
(0.0999955 -5.38465e-09 0)
(0.0999959 1.07597e-07 0)
(0.0999964 3.51252e-07 0)
(0.0999969 6.27213e-07 0)
(0.0999973 8.68347e-07 0)
(0.0999978 9.57782e-07 0)
(0.0999985 8.71281e-07 0)
(0.0999993 4.9538e-07 0)
(0.1 1.94607e-09 0)
(0.100002 -7.77106e-07 0)
(0.100003 -1.40871e-06 0)
(0.100006 -2.3774e-06 0)
(0.100008 -2.93532e-06 0)
(0.100011 -4.33425e-06 0)
(0.100013 -5.02056e-06 0)
(0.100018 -7.88467e-06 0)
(0.10002 -8.85416e-06 0)
(0.100027 -1.48774e-05 0)
(0.100029 -1.54887e-05 0)
(0.100038 -2.75965e-05 0)
(0.0999962 -2.92794e-07 0)
(0.0999963 -8.53987e-07 0)
(0.0999965 -1.42626e-06 0)
(0.0999967 -2.06139e-06 0)
(0.099997 -2.75546e-06 0)
(0.0999975 -3.5992e-06 0)
(0.0999981 -4.60948e-06 0)
(0.0999989 -5.94142e-06 0)
(0.0999998 -7.41846e-06 0)
(0.100001 -9.21609e-06 0)
(0.100002 -1.08758e-05 0)
(0.100004 -1.28889e-05 0)
(0.100006 -1.45014e-05 0)
(0.100009 -1.69836e-05 0)
(0.100011 -1.87489e-05 0)
(0.100015 -2.27285e-05 0)
(0.100017 -2.4748e-05 0)
(0.100022 -3.19285e-05 0)
(0.100024 -3.34066e-05 0)
(0.100033 -4.64194e-05 0)
(0.0999969 -2.23576e-07 0)
(0.0999971 -5.28743e-07 0)
(0.0999974 -7.16222e-07 0)
(0.0999977 -8.92434e-07 0)
(0.099998 -1.11853e-06 0)
(0.0999984 -1.56029e-06 0)
(0.0999989 -2.2572e-06 0)
(0.0999995 -3.36677e-06 0)
(0.1 -4.65716e-06 0)
(0.100001 -6.26817e-06 0)
(0.100003 -7.69579e-06 0)
(0.100004 -9.41393e-06 0)
(0.100006 -1.06868e-05 0)
(0.100008 -1.28058e-05 0)
(0.10001 -1.43054e-05 0)
(0.100013 -1.8065e-05 0)
(0.100015 -2.00117e-05 0)
(0.100019 -2.7116e-05 0)
(0.10002 -2.85227e-05 0)
(0.100026 -4.15074e-05 0)
(0.0999976 -2.56703e-07 0)
(0.0999977 -7.13743e-07 0)
(0.0999979 -1.15151e-06 0)
(0.0999981 -1.62382e-06 0)
(0.0999984 -2.15189e-06 0)
(0.0999987 -2.89336e-06 0)
(0.0999991 -3.88955e-06 0)
(0.0999997 -5.31077e-06 0)
(0.1 -6.94789e-06 0)
(0.100001 -8.97532e-06 0)
(0.100002 -1.08931e-05 0)
(0.100003 -1.31651e-05 0)
(0.100004 -1.50196e-05 0)
(0.100006 -1.77246e-05 0)
(0.100008 -1.97657e-05 0)
(0.10001 -2.40575e-05 0)
(0.100011 -2.64351e-05 0)
(0.100015 -3.40469e-05 0)
(0.100016 -3.57623e-05 0)
(0.100021 -4.9214e-05 0)
(0.0999983 -2.69622e-07 0)
(0.0999984 -7.32692e-07 0)
(0.0999985 -1.15961e-06 0)
(0.0999987 -1.59791e-06 0)
(0.0999989 -2.0873e-06 0)
(0.0999991 -2.8194e-06 0)
(0.0999994 -3.86023e-06 0)
(0.0999998 -5.36918e-06 0)
(0.1 -7.09883e-06 0)
(0.100001 -9.18521e-06 0)
(0.100002 -1.10941e-05 0)
(0.100003 -1.32825e-05 0)
(0.100003 -1.50168e-05 0)
(0.100005 -1.75785e-05 0)
(0.100006 -1.95513e-05 0)
(0.100007 -2.37884e-05 0)
(0.100008 -2.62301e-05 0)
(0.100011 -3.38662e-05 0)
(0.100011 -3.56474e-05 0)
(0.100015 -4.90705e-05 0)
(0.099999 -2.71075e-07 0)
(0.099999 -7.42237e-07 0)
(0.0999991 -1.19719e-06 0)
(0.0999992 -1.67429e-06 0)
(0.0999993 -2.21172e-06 0)
(0.0999995 -2.99339e-06 0)
(0.0999997 -4.0785e-06 0)
(0.0999999 -5.63513e-06 0)
(0.1 -7.43908e-06 0)
(0.100001 -9.64735e-06 0)
(0.100001 -1.17254e-05 0)
(0.100002 -1.41221e-05 0)
(0.100002 -1.6075e-05 0)
(0.100003 -1.88529e-05 0)
(0.100003 -2.10085e-05 0)
(0.100004 -2.54239e-05 0)
(0.100005 -2.79763e-05 0)
(0.100006 -3.57819e-05 0)
(0.100007 -3.7612e-05 0)
(0.100009 -5.12577e-05 0)
(0.0999997 -2.72569e-07 0)
(0.0999997 -7.5018e-07 0)
(0.0999997 -1.22194e-06 0)
(0.0999997 -1.71305e-06 0)
(0.0999998 -2.25596e-06 0)
(0.0999998 -3.05124e-06 0)
(0.0999999 -4.17723e-06 0)
(0.1 -5.802e-06 0)
(0.1 -7.68228e-06 0)
(0.1 -9.9519e-06 0)
(0.1 -1.20651e-05 0)
(0.100001 -1.44689e-05 0)
(0.100001 -1.64164e-05 0)
(0.100001 -1.91815e-05 0)
(0.100001 -2.13522e-05 0)
(0.100002 -2.57822e-05 0)
(0.100002 -2.83912e-05 0)
(0.100002 -3.62251e-05 0)
(0.100002 -3.81098e-05 0)
(0.100003 -5.17397e-05 0)
(0.1 -2.73134e-07 0)
(0.1 -7.50543e-07 0)
(0.1 -1.22201e-06 0)
(0.1 -1.713e-06 0)
(0.1 -2.2559e-06 0)
(0.1 -3.05103e-06 0)
(0.1 -4.17683e-06 0)
(0.1 -5.80162e-06 0)
(0.0999999 -7.68164e-06 0)
(0.0999998 -9.95144e-06 0)
(0.0999997 -1.20647e-05 0)
(0.0999995 -1.44681e-05 0)
(0.0999993 -1.64156e-05 0)
(0.099999 -1.91809e-05 0)
(0.0999988 -2.13516e-05 0)
(0.0999985 -2.57813e-05 0)
(0.0999983 -2.83905e-05 0)
(0.0999979 -3.6224e-05 0)
(0.0999978 -3.81086e-05 0)
(0.0999971 -5.17389e-05 0)
(0.100001 -2.72374e-07 0)
(0.100001 -7.43137e-07 0)
(0.100001 -1.19736e-06 0)
(0.100001 -1.67432e-06 0)
(0.100001 -2.21149e-06 0)
(0.100001 -2.99305e-06 0)
(0.1 -4.07765e-06 0)
(0.1 -5.63443e-06 0)
(0.0999998 -7.4379e-06 0)
(0.0999994 -9.64619e-06 0)
(0.099999 -1.17245e-05 0)
(0.0999985 -1.41202e-05 0)
(0.099998 -1.60726e-05 0)
(0.0999972 -1.88502e-05 0)
(0.0999966 -2.10058e-05 0)
(0.0999956 -2.54203e-05 0)
(0.099995 -2.79734e-05 0)
(0.0999936 -3.57771e-05 0)
(0.0999932 -3.76071e-05 0)
(0.0999912 -5.12511e-05 0)
(0.100002 -2.70747e-07 0)
(0.100002 -7.33662e-07 0)
(0.100001 -1.15996e-06 0)
(0.100001 -1.59814e-06 0)
(0.100001 -2.08721e-06 0)
(0.100001 -2.81959e-06 0)
(0.100001 -3.85977e-06 0)
(0.1 -5.36878e-06 0)
(0.0999998 -7.09842e-06 0)
(0.0999991 -9.18436e-06 0)
(0.0999984 -1.10939e-05 0)
(0.0999974 -1.32824e-05 0)
(0.0999965 -1.50161e-05 0)
(0.0999953 -1.75773e-05 0)
(0.0999943 -1.95506e-05 0)
(0.0999927 -2.37875e-05 0)
(0.0999917 -2.62304e-05 0)
(0.0999895 -3.3865e-05 0)
(0.0999887 -3.56467e-05 0)
(0.0999854 -4.9069e-05 0)
(0.100002 -2.56772e-07 0)
(0.100002 -7.14269e-07 0)
(0.100002 -1.15188e-06 0)
(0.100002 -1.62394e-06 0)
(0.100002 -2.15225e-06 0)
(0.100001 -2.89357e-06 0)
(0.100001 -3.88972e-06 0)
(0.1 -5.30985e-06 0)
(0.0999997 -6.94769e-06 0)
(0.0999989 -8.97443e-06 0)
(0.099998 -1.08922e-05 0)
(0.0999968 -1.31644e-05 0)
(0.0999956 -1.50187e-05 0)
(0.0999939 -1.77221e-05 0)
(0.0999924 -1.97635e-05 0)
(0.09999 -2.40533e-05 0)
(0.0999886 -2.64322e-05 0)
(0.0999853 -3.40395e-05 0)
(0.0999843 -3.57557e-05 0)
(0.0999794 -4.92005e-05 0)
(0.100003 -2.2273e-07 0)
(0.100003 -5.2872e-07 0)
(0.100003 -7.16438e-07 0)
(0.100002 -8.92953e-07 0)
(0.100002 -1.11981e-06 0)
(0.100002 -1.56072e-06 0)
(0.100001 -2.25938e-06 0)
(0.1 -3.36742e-06 0)
(0.0999997 -4.65821e-06 0)
(0.0999985 -6.27033e-06 0)
(0.0999972 -7.69815e-06 0)
(0.0999956 -9.41663e-06 0)
(0.099994 -1.06898e-05 0)
(0.0999918 -1.28082e-05 0)
(0.09999 -1.43081e-05 0)
(0.0999871 -1.80669e-05 0)
(0.0999853 -2.00152e-05 0)
(0.0999812 -2.71175e-05 0)
(0.0999796 -2.85256e-05 0)
(0.0999736 -4.15075e-05 0)
(0.100004 -2.91965e-07 0)
(0.100004 -8.53346e-07 0)
(0.100003 -1.42596e-06 0)
(0.100003 -2.06159e-06 0)
(0.100003 -2.75481e-06 0)
(0.100002 -3.59868e-06 0)
(0.100002 -4.61034e-06 0)
(0.100001 -5.94256e-06 0)
(0.1 -7.41729e-06 0)
(0.0999989 -9.21541e-06 0)
(0.0999975 -1.08763e-05 0)
(0.0999956 -1.28893e-05 0)
(0.0999938 -1.45028e-05 0)
(0.0999912 -1.69837e-05 0)
(0.0999891 -1.87497e-05 0)
(0.0999853 -2.27261e-05 0)
(0.0999831 -2.47475e-05 0)
(0.0999775 -3.1922e-05 0)
(0.0999761 -3.34026e-05 0)
(0.0999674 -4.64045e-05 0)
(0.100004 -5.48539e-09 0)
(0.100004 1.07319e-07 0)
(0.100004 3.50651e-07 0)
(0.100003 6.26286e-07 0)
(0.100003 8.70024e-07 0)
(0.100002 9.55396e-07 0)
(0.100002 8.71424e-07 0)
(0.100001 4.90177e-07 0)
(0.0999996 2.37333e-10 0)
(0.0999982 -7.76805e-07 0)
(0.0999965 -1.40906e-06 0)
(0.0999943 -2.37798e-06 0)
(0.0999922 -2.9364e-06 0)
(0.0999892 -4.33457e-06 0)
(0.0999866 -5.02129e-06 0)
(0.0999824 -7.88346e-06 0)
(0.0999796 -8.85451e-06 0)
(0.0999734 -1.48747e-05 0)
(0.099971 -1.5488e-05 0)
(0.0999617 -2.75921e-05 0)
(0.100005 -4.00279e-07 0)
(0.100005 -1.23618e-06 0)
(0.100005 -2.0894e-06 0)
(0.100005 -2.99137e-06 0)
(0.100005 -3.91716e-06 0)
(0.100004 -4.94259e-06 0)
(0.100003 -6.05901e-06 0)
(0.100002 -7.39772e-06 0)
(0.100001 -8.78932e-06 0)
(0.0999996 -1.03955e-05 0)
(0.0999978 -1.18153e-05 0)
(0.0999954 -1.35234e-05 0)
(0.0999931 -1.48026e-05 0)
(0.0999896 -1.68821e-05 0)
(0.099987 -1.81905e-05 0)
(0.0999817 -2.15679e-05 0)
(0.099979 -2.29751e-05 0)
(0.0999706 -2.92461e-05 0)
(0.0999686 -3.01366e-05 0)
(0.0999547 -4.22112e-05 0)
(0.100006 3.82418e-07 0)
(0.100005 1.16137e-06 0)
(0.100004 1.9671e-06 0)
(0.100004 2.74905e-06 0)
(0.100004 3.50334e-06 0)
(0.100003 4.21088e-06 0)
(0.100002 4.89572e-06 0)
(0.100001 5.44677e-06 0)
(0.1 5.96875e-06 0)
(0.0999984 6.30699e-06 0)
(0.0999965 6.70599e-06 0)
(0.0999939 6.8236e-06 0)
(0.0999915 7.21431e-06 0)
(0.0999878 6.9743e-06 0)
(0.099985 7.4251e-06 0)
(0.0999794 6.26718e-06 0)
(0.0999762 6.87265e-06 0)
(0.0999674 3.32802e-06 0)
(0.0999644 4.18081e-06 0)
(0.0999503 -5.4351e-06 0)
(0.100007 -8.54211e-07 0)
(0.100007 -2.29076e-06 0)
(0.100007 -3.41604e-06 0)
(0.100006 -4.38315e-06 0)
(0.100006 -5.32843e-06 0)
(0.100005 -6.35912e-06 0)
(0.100005 -7.46933e-06 0)
(0.100003 -8.73753e-06 0)
(0.100002 -9.97832e-06 0)
(0.1 -1.13139e-05 0)
(0.0999986 -1.24546e-05 0)
(0.0999958 -1.37773e-05 0)
(0.0999936 -1.47063e-05 0)
(0.0999892 -1.62197e-05 0)
(0.0999869 -1.69881e-05 0)
(0.0999799 -1.93108e-05 0)
(0.0999777 -1.97827e-05 0)
(0.0999653 -2.40675e-05 0)
(0.099964 -2.37263e-05 0)
(0.0999405 -3.32117e-05 0)
)
;

boundaryField
{
    sides
    {
        type            calculated;
        value           nonuniform List<vector> 
40
(
(0.100007 0 0)
(0.100007 0 0)
(0.100007 0 0)
(0.100006 0 0)
(0.100006 0 0)
(0.100005 0 0)
(0.100005 0 0)
(0.100003 0 0)
(0.100002 0 0)
(0.1 0 0)
(0.0999986 0 0)
(0.0999958 0 0)
(0.0999936 0 0)
(0.0999892 0 0)
(0.0999869 0 0)
(0.0999799 0 0)
(0.0999777 0 0)
(0.0999653 0 0)
(0.099964 0 0)
(0.0999405 0 0)
(0.099993 0 0)
(0.0999931 0 0)
(0.0999933 0 0)
(0.0999936 0 0)
(0.099994 0 0)
(0.0999947 0 0)
(0.0999955 0 0)
(0.0999966 0 0)
(0.0999977 0 0)
(0.0999996 0 0)
(0.100001 0 0)
(0.100004 0 0)
(0.100006 0 0)
(0.100011 0 0)
(0.100013 0 0)
(0.10002 0 0)
(0.100022 0 0)
(0.100035 0 0)
(0.100036 0 0)
(0.100059 0 0)
)
;
    }
    inlet
    {
        type            calculated;
        value           nonuniform List<vector> 
20
(
(0.0999931 0 0)
(0.0999942 0 0)
(0.0999947 0 0)
(0.0999956 0 0)
(0.0999962 0 0)
(0.0999969 0 0)
(0.0999976 0 0)
(0.0999983 0 0)
(0.099999 0 0)
(0.0999997 0 0)
(0.1 0 0)
(0.100001 0 0)
(0.100002 0 0)
(0.100002 0 0)
(0.100003 0 0)
(0.100004 0 0)
(0.100004 0 0)
(0.100005 0 0)
(0.100006 0 0)
(0.100007 0 0)
)
;
    }
    outlet
    {
        type            calculated;
        value           nonuniform List<vector> 
20
(
(0.10006 -3.31982e-05 0)
(0.10005 -5.44716e-06 0)
(0.100046 -4.22184e-05 0)
(0.100039 -2.75966e-05 0)
(0.100033 -4.64195e-05 0)
(0.100027 -4.15075e-05 0)
(0.100021 -4.9214e-05 0)
(0.100015 -4.90706e-05 0)
(0.100009 -5.12578e-05 0)
(0.100003 -5.17397e-05 0)
(0.0999971 -5.17388e-05 0)
(0.0999911 -5.1251e-05 0)
(0.0999854 -4.9069e-05 0)
(0.0999793 -4.92004e-05 0)
(0.0999735 -4.15075e-05 0)
(0.0999672 -4.64044e-05 0)
(0.0999615 -2.7592e-05 0)
(0.0999542 -4.2211e-05 0)
(0.0999499 -5.43508e-06 0)
(0.0999397 -3.32114e-05 0)
)
;
    }
    frontAndBack
    {
        type            empty;
    }
}


// ************************************************************************* //
