/*--------------------------------*- C++ -*----------------------------------*\
  =========                 |
  \\      /  F ield         | OpenFOAM: The Open Source CFD Toolbox
   \\    /   O peration     | Website:  https://openfoam.org
    \\  /    A nd           | Version:  7
     \\/     M anipulation  |
\*---------------------------------------------------------------------------*/
FoamFile
{
    version     2.0;
    format      ascii;
    class       volVectorField;
    location    "95";
    object      ddt0(hU);
}
// * * * * * * * * * * * * * * * * * * * * * * * * * * * * * * * * * * * * * //

dimensions      [0 2 -2 0 0 0 0];

internalField   nonuniform List<vector> 
400
(
(1.67671e-10 1.35952e-10 0)
(1.84928e-10 -1.28332e-11 0)
(8.29465e-11 -1.3564e-10 0)
(-1.76819e-10 -1.16254e-10 0)
(1.83958e-10 2.44419e-10 0)
(-1.11232e-09 -1.82599e-10 0)
(-1.82996e-09 3.11659e-10 0)
(-1.41381e-09 2.1592e-09 0)
(1.38587e-09 5.47155e-10 0)
(5.36231e-10 1.2603e-10 0)
(5.84276e-11 -2.13934e-11 0)
(-4.71271e-11 -3.42479e-11 0)
(-8.69442e-11 -1.93958e-11 0)
(-5.12599e-11 -2.12661e-12 0)
(2.07245e-11 -8.01787e-14 0)
(5.87897e-11 -5.69495e-12 0)
(2.74948e-11 -5.28078e-12 0)
(-2.96578e-11 -8.62003e-12 0)
(-5.16128e-11 -5.23854e-12 0)
(-4.39014e-11 8.72754e-13 0)
(-5.58474e-12 2.87927e-10 0)
(2.29021e-12 2.45573e-11 0)
(-3.06607e-11 -2.39914e-10 0)
(1.80668e-10 -1.52956e-10 0)
(-4.38875e-10 -5.07451e-11 0)
(1.08807e-09 3.77002e-10 0)
(2.41557e-09 -2.77461e-10 0)
(5.61072e-10 1.07543e-09 0)
(-9.17076e-10 6.94738e-10 0)
(-1.90259e-10 7.09849e-11 0)
(-1.46128e-10 -5.43122e-11 0)
(-4.82329e-11 -4.28576e-11 0)
(-3.16569e-11 -2.70787e-11 0)
(-9.90173e-12 6.7529e-12 0)
(8.49142e-12 2.36347e-11 0)
(1.98435e-11 8.46444e-12 0)
(2.43272e-12 -1.84702e-11 0)
(-2.85267e-11 -4.36587e-11 0)
(-1.61712e-11 -5.07228e-11 0)
(1.13202e-11 -2.06568e-11 0)
(-1.36557e-10 5.6532e-11 0)
(-2.07097e-10 1.81595e-11 0)
(-1.40505e-10 -6.77466e-11 0)
(8.89527e-11 2.77634e-11 0)
(6.12012e-11 -3.55798e-10 0)
(3.86981e-10 5.71008e-10 0)
(-8.45511e-10 -5.37426e-10 0)
(6.34097e-10 -7.46235e-10 0)
(1.63182e-10 1.96169e-11 0)
(-4.82104e-10 -1.95468e-10 0)
(-9.35243e-11 -4.30532e-11 0)
(-2.17562e-11 -1.75417e-11 0)
(7.25543e-12 -2.6615e-11 0)
(5.13914e-11 -1.07518e-11 0)
(1.44178e-11 1.06412e-11 0)
(-2.79e-11 9.45749e-13 0)
(-4.06803e-11 -3.03488e-11 0)
(-3.34737e-11 -4.69125e-11 0)
(2.9028e-11 -1.96767e-11 0)
(8.04474e-11 6.62989e-12 0)
(-7.4673e-11 -1.79481e-10 0)
(-1.01667e-10 -3.76972e-11 0)
(-2.73159e-11 8.63278e-11 0)
(-2.2867e-11 1.01616e-10 0)
(2.18172e-10 4.09889e-11 0)
(-5.60614e-11 -2.25623e-10 0)
(-1.75815e-11 1.98569e-10 0)
(7.71198e-10 2.74019e-10 0)
(-6.24088e-10 -4.58612e-10 0)
(-2.70536e-10 -1.23462e-10 0)
(1.13893e-10 3.32352e-11 0)
(3.49174e-12 -1.03662e-11 0)
(3.12482e-11 -2.29966e-12 0)
(6.24579e-11 -4.36836e-12 0)
(-4.36228e-12 -1.20885e-11 0)
(-6.84602e-11 -2.54551e-11 0)
(-6.28971e-11 -4.21365e-11 0)
(-1.37048e-11 -1.90927e-11 0)
(5.65444e-11 6.21228e-11 0)
(9.21633e-11 6.13058e-11 0)
(-2.11352e-11 -1.0296e-10 0)
(6.48912e-12 -4.15441e-11 0)
(9.08183e-11 8.59509e-11 0)
(-3.65135e-11 1.14173e-11 0)
(1.74948e-10 2.32699e-10 0)
(-2.26296e-10 -3.43087e-10 0)
(3.21626e-10 2.39878e-10 0)
(-3.38759e-10 -2.7904e-10 0)
(-4.19505e-10 -2.95986e-10 0)
(2.83038e-10 1.5185e-10 0)
(7.17552e-11 5.4767e-11 0)
(-1.71492e-11 -1.03422e-11 0)
(6.79462e-11 2.11918e-11 0)
(2.70023e-11 -6.13443e-12 0)
(-4.08685e-11 -4.56772e-11 0)
(-7.22047e-11 -5.14657e-11 0)
(-4.35911e-11 -2.68025e-11 0)
(3.26777e-11 3.81667e-11 0)
(5.96855e-11 1.41541e-10 0)
(6.79526e-12 1.04888e-10 0)
(1.5884e-11 -1.02273e-11 0)
(4.54337e-11 -4.04035e-11 0)
(9.42046e-11 4.10405e-11 0)
(1.67108e-11 -5.37305e-11 0)
(2.44693e-11 1.09355e-10 0)
(-1.10328e-10 -6.37922e-11 0)
(1.05718e-10 9.16604e-11 0)
(-3.53978e-10 -2.50175e-10 0)
(2.04052e-10 1.9204e-10 0)
(2.4833e-10 1.48486e-10 0)
(-1.11633e-10 -2.52704e-11 0)
(1.8798e-11 2.2098e-11 0)
(6.71817e-11 1.06156e-11 0)
(-6.17108e-11 -5.59345e-11 0)
(-6.84685e-11 -9.0404e-11 0)
(-3.06674e-12 -7.44768e-11 0)
(4.72692e-11 2.0528e-12 0)
(9.17041e-11 8.74384e-11 0)
(3.78976e-11 1.61924e-10 0)
(-1.16784e-10 1.05642e-10 0)
(3.17116e-11 3.225e-11 0)
(5.90368e-11 -4.70785e-12 0)
(2.92583e-11 -6.46867e-11 0)
(5.49846e-11 -1.91879e-11 0)
(-1.01893e-10 -1.18493e-10 0)
(3.88223e-12 8.98653e-11 0)
(-9.31684e-11 -3.16071e-11 0)
(-3.58526e-11 3.58301e-11 0)
(2.59973e-10 2.274e-10 0)
(-6.97734e-11 -4.12301e-11 0)
(-5.05528e-11 -1.48512e-11 0)
(1.03078e-10 6.806e-11 0)
(-2.71877e-11 -5.15565e-11 0)
(-1.27298e-10 -1.06693e-10 0)
(-5.46995e-11 -7.64102e-11 0)
(6.19813e-11 -4.9667e-11 0)
(1.29172e-10 1.23873e-11 0)
(1.1947e-10 4.89171e-11 0)
(-6.85716e-12 5.70932e-11 0)
(-1.83334e-10 4.07482e-11 0)
(1.48421e-11 2.11093e-11 0)
(3.4805e-11 3.77977e-11 0)
(-3.73737e-11 -1.01235e-10 0)
(3.19696e-11 -2.41769e-11 0)
(-9.81235e-11 -1.41533e-10 0)
(4.55699e-11 3.49918e-11 0)
(-1.29802e-10 -4.75741e-11 0)
(1.21547e-10 1.30724e-10 0)
(2.08173e-11 4.99704e-11 0)
(-1.19469e-10 -5.16472e-11 0)
(1.3048e-10 3.5229e-11 0)
(-1.83054e-11 -1.57843e-11 0)
(-1.86072e-10 -1.10188e-10 0)
(-5.60332e-11 -8.55363e-11 0)
(3.69726e-11 -2.55568e-11 0)
(6.15092e-11 4.23201e-12 0)
(1.1311e-10 2.44945e-11 0)
(1.05204e-10 -3.62682e-11 0)
(-1.67218e-11 -8.48619e-11 0)
(-1.38701e-10 -3.08122e-11 0)
(1.51808e-11 4.28986e-12 0)
(9.38598e-12 -7.83875e-12 0)
(-4.70466e-11 -6.6193e-12 0)
(-2.88718e-11 -6.96484e-11 0)
(-2.04635e-11 -3.53743e-11 0)
(3.46111e-11 -4.69468e-11 0)
(-1.25125e-11 -1.38205e-11 0)
(8.44895e-11 8.15601e-11 0)
(-7.56839e-11 -5.44724e-11 0)
(-3.46522e-11 3.86704e-11 0)
(4.98976e-11 -2.49932e-11 0)
(-1.1749e-10 -1.27588e-10 0)
(-9.54428e-11 -2.16754e-11 0)
(8.2684e-11 2.3738e-11 0)
(8.14272e-11 -2.10018e-11 0)
(-1.0405e-11 2.27518e-12 0)
(-2.97502e-11 3.83188e-11 0)
(-1.90862e-11 -6.72594e-11 0)
(-1.11148e-11 -1.53736e-10 0)
(2.79744e-11 -6.56508e-11 0)
(-1.56914e-11 7.60792e-12 0)
(-3.24879e-11 -5.49058e-11 0)
(1.87999e-15 1.70802e-11 0)
(-4.40205e-11 -5.2788e-11 0)
(4.30588e-11 1.62141e-11 0)
(1.29107e-11 -2.95853e-11 0)
(1.10628e-10 1.76871e-11 0)
(-4.68691e-12 4.21903e-11 0)
(-3.06145e-11 -2.85861e-11 0)
(-6.84293e-12 6.25697e-11 0)
(-1.05424e-10 -3.40973e-11 0)
(3.08e-11 -8.87558e-11 0)
(1.23581e-10 3.65404e-11 0)
(1.98414e-11 3.5372e-11 0)
(-1.46351e-11 -5.20215e-11 0)
(-1.3341e-12 -3.83331e-11 0)
(-8.44501e-11 2.00876e-11 0)
(-1.5364e-10 -2.01675e-11 0)
(-3.91784e-11 -5.1682e-11 0)
(1.76106e-10 -8.19867e-12 0)
(-2.60224e-11 -1.82025e-11 0)
(-4.79928e-11 -6.26981e-12 0)
(2.12818e-11 -6.01991e-11 0)
(-4.05096e-11 -2.3992e-12 0)
(5.89323e-11 -7.33859e-12 0)
(-8.94094e-12 4.99346e-11 0)
(1.28479e-10 2.48648e-11 0)
(-3.25751e-11 3.59079e-11 0)
(-1.25361e-11 5.63085e-11 0)
(1.67316e-11 2.34739e-11 0)
(-1.40715e-10 6.31903e-11 0)
(7.12423e-11 4.02637e-11 0)
(1.75208e-10 -6.22744e-11 0)
(-1.59876e-11 -7.68104e-11 0)
(-5.148e-11 -3.02272e-11 0)
(7.84851e-12 -3.8324e-11 0)
(-8.10147e-11 -3.83038e-11 0)
(-1.74104e-10 2.53505e-11 0)
(-5.10274e-11 1.30545e-10 0)
(1.87464e-10 1.03969e-10 0)
(1.23127e-11 -2.98955e-11 0)
(-1.31073e-11 -1.16901e-11 0)
(-1.22611e-11 -6.37088e-11 0)
(-3.29168e-11 4.65511e-11 0)
(1.55981e-11 -6.47172e-12 0)
(-1.22256e-11 7.22181e-11 0)
(2.23346e-11 2.01537e-11 0)
(3.73191e-11 -2.61703e-11 0)
(-5.99507e-11 9.96044e-11 0)
(3.79616e-11 -2.65864e-11 0)
(-1.14729e-11 6.00333e-11 0)
(-9.84707e-11 1.15085e-10 0)
(-4.03123e-12 -8.15735e-11 0)
(8.59842e-11 -1.34583e-10 0)
(5.05402e-11 -4.32585e-11 0)
(-2.47237e-11 -5.29906e-11 0)
(-5.96433e-11 -6.0848e-11 0)
(-5.44334e-11 6.52581e-11 0)
(-9.0986e-12 2.35789e-10 0)
(5.9665e-11 1.64883e-10 0)
(2.47063e-11 -4.17001e-11 0)
(2.66683e-11 -5.90357e-11 0)
(-2.92602e-11 5.11014e-11 0)
(2.26195e-11 2.93849e-12 0)
(-6.83441e-11 5.64525e-11 0)
(1.62545e-11 -2.43007e-11 0)
(-1.29745e-10 4.51723e-11 0)
(1.29742e-10 -1.13541e-10 0)
(-3.39394e-11 4.82521e-11 0)
(-3.91517e-11 2.37076e-11 0)
(1.68179e-10 -4.83967e-11 0)
(-7.69908e-11 2.40201e-11 0)
(-1.72153e-10 3.43842e-12 0)
(3.7549e-11 -6.51678e-11 0)
(9.18556e-11 -8.22803e-11 0)
(2.61553e-11 -7.99982e-11 0)
(4.19438e-11 -3.7925e-11 0)
(5.5209e-11 6.03177e-11 0)
(-2.53939e-11 1.84749e-10 0)
(-1.05986e-10 1.31862e-10 0)
(4.72872e-11 -5.31324e-11 0)
(6.95585e-11 -2.74504e-11 0)
(-3.8127e-12 6.50766e-11 0)
(5.76934e-11 -7.09853e-11 0)
(-1.21865e-10 8.43157e-11 0)
(4.66388e-11 -1.60567e-10 0)
(-1.65046e-10 6.37397e-11 0)
(7.0705e-11 -1.0131e-10 0)
(1.85294e-10 -1.40669e-10 0)
(-1.30465e-10 8.41342e-11 0)
(5.44644e-11 -2.84721e-11 0)
(8.05912e-11 -8.1387e-11 0)
(-8.75054e-11 1.75599e-11 0)
(-6.67693e-11 6.66891e-12 0)
(2.48651e-11 -6.02338e-11 0)
(7.70824e-11 -6.36873e-11 0)
(1.06567e-10 -3.38765e-11 0)
(8.42671e-11 -2.16872e-11 0)
(-3.37019e-11 3.53047e-11 0)
(-1.66372e-10 5.26451e-11 0)
(3.95286e-11 -1.28868e-11 0)
(7.71154e-11 1.28616e-11 0)
(4.26086e-11 -5.95662e-11 0)
(1.96275e-11 -4.39409e-11 0)
(-6.22481e-11 -6.06737e-11 0)
(-1.7037e-11 -7.23673e-11 0)
(-9.54999e-12 3.15564e-11 0)
(-2.49888e-10 1.68268e-10 0)
(3.33983e-10 -2.43128e-10 0)
(1.32903e-10 -4.22949e-11 0)
(-8.93369e-11 3.99167e-11 0)
(6.81578e-11 -5.28134e-11 0)
(2.78992e-11 -2.47939e-11 0)
(-8.45737e-11 -6.10344e-12 0)
(-3.95375e-11 -3.36916e-11 0)
(3.54539e-11 -4.10758e-11 0)
(5.66299e-11 -3.3195e-11 0)
(5.9054e-11 -6.43951e-11 0)
(1.2289e-12 -5.27983e-11 0)
(-1.01917e-10 -1.38615e-12 0)
(-3.69236e-12 1.08633e-10 0)
(3.93148e-11 1.58292e-11 0)
(6.70743e-11 -1.64115e-10 0)
(-5.16367e-11 -1.71017e-11 0)
(1.06989e-10 -2.51938e-10 0)
(-1.72519e-10 2.97547e-10 0)
(3.11416e-10 -2.41588e-10 0)
(-5.67598e-10 5.18765e-10 0)
(-9.78496e-11 8.88998e-11 0)
(3.6289e-10 -1.87195e-10 0)
(2.96822e-11 -2.19727e-11 0)
(1.77159e-11 -3.56921e-13 0)
(4.31399e-11 -2.27699e-11 0)
(-5.24607e-11 -7.61053e-12 0)
(-6.28262e-11 -5.34284e-12 0)
(-2.7339e-11 -1.962e-11 0)
(4.24235e-12 -1.39156e-11 0)
(4.79039e-11 -4.03009e-11 0)
(4.65016e-11 -6.79144e-11 0)
(1.95313e-12 -2.68615e-11 0)
(-8.95842e-11 1.97691e-10 0)
(-9.63943e-11 -8.71422e-12 0)
(-1.01262e-12 -2.14839e-10 0)
(-8.71425e-11 -6.70533e-11 0)
(2.41555e-10 -1.61171e-10 0)
(-2.41076e-10 4.63574e-10 0)
(4.03663e-10 -4.70464e-10 0)
(2.81395e-10 9.88093e-11 0)
(-8.7367e-10 5.31263e-10 0)
(4.18275e-11 -3.91305e-11 0)
(2.0083e-10 -8.54025e-11 0)
(6.40274e-11 -1.39041e-11 0)
(5.27448e-11 -1.65844e-11 0)
(-3.98338e-12 -3.76556e-12 0)
(-6.11372e-11 1.61647e-12 0)
(-6.91514e-11 -5.70295e-12 0)
(-3.0914e-11 1.60406e-11 0)
(1.69866e-11 1.17466e-11 0)
(5.01991e-11 -1.02554e-11 0)
(7.81254e-11 -2.04438e-12 0)
(-1.84287e-10 -4.02587e-11 0)
(-2.2828e-10 -3.64145e-11 0)
(-8.86521e-11 5.64889e-11 0)
(5.35349e-12 -3.11743e-11 0)
(2.58704e-10 2.40562e-10 0)
(-1.28894e-10 8.60377e-11 0)
(-3.57332e-10 -8.00154e-10 0)
(1.29789e-09 -1.10733e-09 0)
(-4.36012e-10 1.80655e-10 0)
(-5.07777e-10 1.90816e-10 0)
(1.16877e-10 2.10671e-12 0)
(1.25796e-10 -1.63481e-11 0)
(7.6329e-11 -3.35226e-11 0)
(2.1347e-11 -2.81284e-11 0)
(-4.89383e-11 -1.24852e-11 0)
(-7.01828e-11 4.00262e-12 0)
(-4.13933e-11 3.33257e-11 0)
(-1.43585e-11 4.13623e-11 0)
(2.92196e-11 4.31398e-11 0)
(9.19529e-11 2.78885e-11 0)
(-2.5559e-11 -3.06985e-10 0)
(-1.81239e-11 -3.88686e-11 0)
(-5.35302e-11 3.66317e-10 0)
(9.8021e-11 1.19527e-10 0)
(4.44277e-11 2.54097e-10 0)
(1.01686e-09 -1.09595e-09 0)
(-1.69934e-09 1.9537e-09 0)
(2.57302e-09 1.86052e-10 0)
(9.81961e-10 -5.27055e-10 0)
(-2.51689e-10 2.55077e-10 0)
(-3.73342e-11 1.61267e-10 0)
(3.61038e-11 -3.93881e-12 0)
(2.72988e-11 -7.14287e-11 0)
(3.52216e-11 -5.13513e-11 0)
(1.55325e-11 3.62457e-13 0)
(-6.63977e-12 3.18299e-11 0)
(-2.21868e-11 3.81901e-11 0)
(-3.19531e-11 3.32546e-11 0)
(-8.29947e-12 3.70845e-11 0)
(3.96441e-11 2.47039e-11 0)
(2.13643e-10 -1.683e-10 0)
(1.90138e-10 -1.84106e-11 0)
(4.32415e-11 1.9703e-10 0)
(-5.53126e-11 9.78992e-11 0)
(-5.20181e-10 8.05546e-12 0)
(-5.66043e-10 -9.79038e-10 0)
(1.47015e-09 2.52848e-09 0)
(-3.56525e-09 1.07068e-09 0)
(4.58811e-11 -3.68694e-10 0)
(4.42922e-10 1.32591e-10 0)
(-2.08264e-10 1.14596e-10 0)
(-1.74182e-10 -9.32639e-12 0)
(-8.75033e-12 -5.69439e-11 0)
(1.06615e-10 -3.77795e-11 0)
(1.02246e-10 1.00776e-12 0)
(3.28097e-11 2.09617e-11 0)
(-3.2239e-11 2.23116e-11 0)
(-5.95158e-11 1.76245e-11 0)
(-4.10178e-11 2.61335e-11 0)
(3.44175e-12 1.87246e-11 0)
)
;

boundaryField
{
    sides
    {
        type            calculated;
        value           nonuniform List<vector> 
40
(
(2.13643e-10 0 0)
(1.90138e-10 0 0)
(4.32415e-11 0 0)
(-5.53126e-11 0 0)
(-5.20181e-10 0 0)
(-5.66043e-10 0 0)
(1.47015e-09 0 0)
(-3.56525e-09 0 0)
(4.58811e-11 0 0)
(4.42922e-10 0 0)
(-2.08264e-10 0 0)
(-1.74182e-10 0 0)
(-8.75033e-12 0 0)
(1.06615e-10 0 0)
(1.02246e-10 0 0)
(3.28097e-11 0 0)
(-3.2239e-11 0 0)
(-5.95158e-11 0 0)
(-4.10178e-11 0 0)
(3.44175e-12 0 0)
(1.67671e-10 0 0)
(1.84928e-10 0 0)
(8.29465e-11 0 0)
(-1.76819e-10 0 0)
(1.83958e-10 0 0)
(-1.11232e-09 0 0)
(-1.82996e-09 0 0)
(-1.41381e-09 0 0)
(1.38587e-09 0 0)
(5.36231e-10 0 0)
(5.84276e-11 0 0)
(-4.71271e-11 0 0)
(-8.69442e-11 0 0)
(-5.12599e-11 0 0)
(2.07245e-11 0 0)
(5.87897e-11 0 0)
(2.74948e-11 0 0)
(-2.96578e-11 0 0)
(-5.16128e-11 0 0)
(-4.39014e-11 0 0)
)
;
    }
    inlet
    {
        type            calculated;
        value           uniform (0 0 0);
    }
    outlet
    {
        type            calculated;
        value           nonuniform List<vector> 
20
(
(-4.39014e-11 8.72754e-13 0)
(1.13202e-11 -2.06568e-11 0)
(8.04474e-11 6.62989e-12 0)
(9.21633e-11 6.13058e-11 0)
(6.79526e-12 1.04888e-10 0)
(-1.16784e-10 1.05642e-10 0)
(-1.83334e-10 4.07482e-11 0)
(-1.38701e-10 -3.08122e-11 0)
(2.79744e-11 -6.56508e-11 0)
(1.76106e-10 -8.19867e-12 0)
(1.87464e-10 1.03969e-10 0)
(5.9665e-11 1.64883e-10 0)
(-1.05986e-10 1.31862e-10 0)
(-1.66372e-10 5.26451e-11 0)
(-1.01917e-10 -1.38615e-12 0)
(1.95313e-12 -2.68615e-11 0)
(7.81254e-11 -2.04438e-12 0)
(9.19529e-11 2.78885e-11 0)
(3.96441e-11 2.47039e-11 0)
(3.44175e-12 1.87246e-11 0)
)
;
    }
    frontAndBack
    {
        type            empty;
    }
}


// ************************************************************************* //
