/*--------------------------------*- C++ -*----------------------------------*\
  =========                 |
  \\      /  F ield         | OpenFOAM: The Open Source CFD Toolbox
   \\    /   O peration     | Website:  https://openfoam.org
    \\  /    A nd           | Version:  7
     \\/     M anipulation  |
\*---------------------------------------------------------------------------*/
FoamFile
{
    version     2.0;
    format      ascii;
    class       surfaceScalarField;
    location    "95";
    object      ddtCorrDdt0(phi);
}
// * * * * * * * * * * * * * * * * * * * * * * * * * * * * * * * * * * * * * //

dimensions      [0 4 -2 0 0 0 0];

internalField   nonuniform List<scalar> 
760
(
1.12891e-12
1.13271e-12
1.24057e-12
-1.11427e-13
-3.56422e-13
-9.71902e-13
-8.94839e-13
-5.29604e-13
-2.14922e-12
1.76309e-12
-3.15021e-12
-3.03414e-10
-1.76507e-11
2.72699e-10
7.29431e-12
4.10171e-10
3.72474e-12
1.51057e-11
1.01976e-12
6.01703e-13
-4.11466e-14
3.52362e-14
-3.71683e-13
-9.9698e-14
-3.48825e-13
-1.29614e-13
-1.05525e-13
-4.33261e-14
1.82611e-13
6.03566e-14
2.90435e-13
7.63609e-14
2.79302e-14
-5.71018e-15
-2.57834e-13
-1.72057e-13
-2.51548e-13
-2.5725e-13
-1.01612e-13
-1.02962e-13
6.41055e-13
7.74487e-14
1.42114e-13
-5.62418e-13
-9.95082e-13
2.50595e-12
-6.47779e-13
-3.84878e-12
-1.87891e-12
1.16187e-11
9.74935e-12
1.20715e-11
-1.43142e-11
-7.52892e-12
-1.79837e-11
-3.5266e-13
1.50347e-12
-1.07857e-12
-2.67051e-13
-3.79643e-13
-3.91951e-13
-1.74982e-13
-1.73778e-13
-7.6546e-14
-1.79275e-13
-5.08874e-14
-1.05059e-13
4.55135e-14
6.23358e-14
1.48859e-13
7.87014e-14
-4.24419e-14
-8.04129e-14
-2.25389e-13
-2.75051e-13
-2.36965e-14
-3.05021e-13
-1.09617e-13
-1.20241e-12
-3.26177e-13
-1.29981e-12
5.06869e-14
3.28272e-13
-1.41034e-13
-3.85497e-13
3.67436e-13
3.89603e-12
-1.61868e-12
-4.87677e-12
2.06268e-12
8.0434e-13
6.13933e-14
3.68283e-12
5.54607e-12
-2.53672e-12
1.66771e-13
-1.16372e-12
-1.46845e-12
-1.48247e-13
-1.91397e-13
-8.68756e-14
-5.70442e-14
1.89517e-13
-8.90255e-14
1.71294e-13
-4.77383e-14
-4.45324e-14
2.92355e-14
-1.15915e-13
-4.4713e-14
-2.01341e-13
-2.22615e-13
-1.76505e-13
-2.31793e-13
2.88597e-13
3.61561e-14
1.34803e-13
-3.85878e-13
-7.63492e-13
-7.72627e-13
-1.77677e-13
6.8084e-13
3.47484e-13
-1.3766e-12
4.4597e-13
3.92928e-12
6.10429e-13
-4.42536e-12
-2.40813e-12
5.17895e-12
1.77256e-12
-4.98517e-13
2.51607e-13
-3.23475e-12
-3.34521e-12
3.87081e-13
6.8209e-14
2.27338e-13
4.30456e-13
-4.72994e-15
-6.43471e-14
2.70523e-13
4.00036e-14
2.05734e-13
2.83156e-14
-1.79321e-13
-9.28154e-14
-3.66554e-13
-1.89054e-13
-2.24099e-13
-2.20912e-13
1.42877e-14
2.36544e-14
3.94189e-13
5.86226e-13
4.78144e-13
2.78507e-13
-3.68167e-13
-7.02325e-14
-2.87403e-13
6.16786e-13
4.36828e-13
-4.11988e-13
-2.08608e-13
6.19399e-13
1.60334e-12
-7.00809e-13
-1.6083e-12
1.79703e-12
8.50657e-13
-4.0593e-12
-2.73862e-12
5.96866e-13
-5.79213e-14
1.1249e-12
1.23693e-12
-1.81049e-13
1.24569e-13
1.7676e-13
-5.22581e-14
2.71795e-13
1.49498e-13
2.8203e-14
-6.3869e-14
-2.83431e-13
-3.45895e-13
-4.38244e-13
-3.57238e-13
-4.51817e-14
-7.68767e-14
3.58583e-13
3.85892e-13
1.83696e-13
9.27558e-13
6.23837e-13
2.24483e-13
8.44569e-14
5.70066e-13
-2.34246e-13
-1.22921e-13
8.06553e-14
9.41802e-13
-3.267e-13
-1.60575e-12
-1.0317e-13
1.32353e-12
5.87377e-13
-1.24834e-12
9.36719e-14
-8.82421e-13
-2.88863e-13
2.13497e-12
1.64945e-12
-5.6483e-14
2.42851e-13
-4.1312e-13
-3.39357e-13
4.12935e-13
2.55858e-13
-7.01625e-15
-1.1551e-14
-3.15233e-13
-4.10031e-13
-1.89468e-13
-5.03233e-13
-7.74216e-14
-4.05755e-13
3.86676e-13
4.01688e-14
6.566e-13
4.68671e-13
-2.14446e-13
6.87272e-13
4.15223e-13
-2.6283e-14
2.5303e-13
8.11965e-13
1.01863e-13
-4.76985e-13
-7.15606e-13
7.07829e-13
1.21179e-13
-1.19431e-12
-9.81102e-13
7.40125e-13
4.85578e-13
-1.36303e-12
-3.01367e-13
1.24658e-12
6.73275e-13
5.39095e-13
6.96381e-13
-7.12655e-13
-5.29048e-13
3.67061e-13
2.00289e-13
2.37741e-13
3.84173e-13
-4.79547e-13
-4.89073e-13
-4.34238e-13
-6.4043e-13
-2.46203e-14
-2.89329e-13
3.40654e-13
-1.20367e-13
7.43208e-13
8.62126e-14
6.28617e-13
3.69923e-14
-5.42877e-13
-8.73135e-14
6.10854e-15
-2.04037e-14
-2.22927e-14
7.98891e-15
2.98449e-13
2.07463e-13
-3.18497e-13
-4.57278e-13
-3.35629e-13
1.03254e-13
-4.47871e-13
-2.36528e-13
-1.47797e-13
-3.96981e-13
-1.83851e-13
1.05072e-12
5.95856e-13
-8.65641e-13
-1.65499e-13
1.84117e-13
3.95444e-14
6.09307e-13
1.27328e-13
-8.26291e-13
-5.03194e-13
-6.46723e-13
-5.18382e-13
8.79258e-14
-1.82003e-13
1.79702e-13
1.43646e-15
3.70602e-13
1.55809e-13
6.52244e-13
1.90744e-13
4.03173e-13
-3.94035e-13
-4.45565e-13
-8.11841e-13
-3.45492e-13
3.18883e-13
5.33723e-14
-5.09253e-13
-2.9906e-13
2.13364e-13
2.95942e-13
-5.41178e-13
-3.66818e-13
4.37506e-13
8.03158e-14
-2.38712e-13
-3.6206e-13
3.387e-13
1.00552e-14
1.39182e-13
1.96708e-13
-6.23693e-13
-3.4656e-13
3.05155e-13
3.20243e-13
-1.26535e-13
-3.759e-13
-7.58931e-13
-7.30265e-13
2.17764e-14
2.6835e-13
4.85391e-13
3.43548e-13
1.75546e-13
-2.49377e-13
-4.30875e-14
-1.17932e-13
-1.77442e-13
2.41296e-13
-1.83935e-13
-2.35301e-13
7.5634e-14
-7.11707e-13
-3.12404e-13
-8.02241e-14
6.87844e-15
1.63999e-14
-2.18419e-13
-3.09235e-13
-7.48855e-14
8.69047e-14
-1.63091e-13
1.01605e-13
6.82636e-14
2.70525e-13
4.74591e-14
5.1988e-13
1.3679e-13
-3.8881e-13
2.03834e-13
1.44331e-13
6.02699e-14
-4.2712e-13
2.71855e-13
-3.40697e-13
5.93514e-14
6.93339e-13
-1.23323e-13
3.31857e-13
4.46332e-14
-2.46348e-13
-3.67077e-14
1.12112e-13
-2.50145e-13
7.78195e-14
-2.39888e-13
-8.15304e-13
-4.214e-14
-9.05336e-13
2.99354e-14
4.50416e-13
1.94082e-13
2.31173e-13
-2.71158e-13
-1.7855e-13
1.78884e-13
1.29632e-13
-3.84617e-13
-5.72306e-13
2.79534e-13
1.32113e-13
-1.23896e-14
-1.22631e-13
2.90115e-13
4.78527e-13
5.27697e-13
1.39776e-13
-5.35e-13
1.64643e-13
4.26109e-13
5.0393e-13
-5.63933e-13
-2.9113e-14
-3.91252e-13
5.49868e-13
1.07066e-12
5.15216e-13
3.44668e-13
-6.30322e-13
-5.09935e-13
-6.99588e-13
6.93907e-14
-5.44419e-14
1.37126e-13
-1.56581e-13
-8.59703e-13
-3.51771e-13
-1.00852e-12
2.16471e-13
4.46156e-13
1.10301e-12
7.9918e-13
1.67443e-13
-1.04068e-13
-3.84781e-13
-3.23349e-13
1.60149e-13
-1.24742e-13
-2.75047e-13
3.43723e-13
3.15962e-13
7.13201e-14
-3.1873e-13
2.73853e-13
4.6724e-13
1.06433e-13
-2.27534e-13
-3.93382e-13
-8.71934e-14
4.84501e-13
2.27328e-13
-1.96457e-13
-4.05286e-13
1.4757e-14
-2.92855e-13
5.62279e-13
2.62749e-13
-1.59479e-13
3.46802e-13
-5.93655e-13
8.92363e-14
-3.80584e-13
-1.63338e-13
-3.98887e-13
-3.41579e-13
-2.76753e-13
-2.84813e-13
4.30531e-13
1.53057e-13
1.27156e-12
8.56718e-13
6.88124e-14
-3.29718e-13
-2.37911e-13
-3.05295e-13
5.1316e-13
6.76596e-13
-6.67383e-13
-3.08145e-13
3.9628e-13
4.84671e-13
-6.68045e-13
-5.39737e-13
-5.36641e-14
3.07967e-13
7.28896e-13
-7.68313e-13
-7.8926e-13
-8.15567e-14
6.50797e-13
4.26382e-13
4.33473e-13
-4.63018e-13
-1.01521e-12
-3.40891e-13
-3.25425e-13
1.8384e-13
5.48113e-13
-7.55375e-15
2.25219e-13
-3.78837e-13
3.232e-14
-3.96573e-13
3.5304e-13
-1.60244e-13
2.52754e-13
1.23294e-13
-3.9241e-13
5.62309e-13
4.65796e-13
4.3264e-14
-2.24039e-13
6.7252e-13
1.17363e-13
-2.91608e-13
-1.39534e-14
1.78377e-13
-4.08281e-13
-5.67609e-13
3.74964e-13
2.19834e-13
-1.1721e-12
-1.15309e-12
3.39696e-13
1.60919e-12
-1.85492e-13
-2.43272e-13
-1.35276e-12
-3.74681e-13
3.77904e-13
6.85486e-13
2.32849e-13
-1.76091e-13
-4.54326e-13
-4.76639e-13
-7.74858e-14
2.53768e-14
2.13761e-14
2.10357e-13
-2.17798e-13
2.97674e-13
-2.20954e-13
6.08203e-13
-1.65126e-13
4.31046e-13
-3.23119e-13
-5.8047e-13
-1.70032e-13
8.38716e-14
3.76787e-13
3.00171e-13
7.16185e-13
1.84423e-13
-6.6689e-13
-7.55831e-13
1.10102e-12
-3.25602e-14
-1.87323e-12
-1.38172e-12
1.66716e-12
5.84758e-13
-1.96817e-12
-2.52045e-14
4.87814e-13
2.21878e-12
1.80922e-12
-1.01938e-12
-3.98285e-13
-9.47154e-13
-1.92253e-14
1.31956e-13
3.69502e-13
-2.13971e-14
-2.27806e-13
-1.42475e-13
-2.94327e-13
-7.20916e-14
7.83463e-15
-7.66245e-14
9.41841e-14
-1.20565e-13
3.29433e-13
-1.27234e-13
4.29724e-13
-3.51582e-13
-2.78636e-13
-4.57082e-13
-1.49255e-13
5.04521e-13
8.45992e-13
6.19343e-14
-9.75749e-15
-1.73571e-14
-9.02887e-13
3.1701e-13
-2.39005e-13
-8.14693e-13
-1.24301e-12
1.17163e-12
3.11683e-12
-4.02386e-13
-2.68778e-12
-3.1766e-12
3.43951e-12
1.88628e-12
2.29866e-12
8.62016e-13
-8.80485e-13
-1.02542e-13
-4.01708e-13
2.71633e-13
2.82882e-14
-6.73878e-14
-1.03834e-13
-2.97618e-13
-7.61613e-14
-1.95137e-13
-2.00197e-14
-1.32741e-13
-4.77152e-14
1.1577e-13
4.24249e-14
3.5212e-13
-4.51273e-14
1.31332e-13
-2.4589e-13
-1.22039e-13
-3.18636e-13
4.39586e-13
-9.7228e-13
-2.93723e-13
8.01789e-13
-1.14334e-13
-1.38384e-12
-2.2214e-13
3.0722e-12
9.15085e-13
-3.69291e-12
-4.62069e-14
6.22941e-12
-8.33922e-13
-4.44495e-12
-6.41325e-12
-1.81998e-12
2.7953e-12
1.24255e-12
1.12572e-12
5.08185e-13
-3.11162e-13
2.94407e-13
-2.02561e-13
1.07998e-13
-1.28787e-13
-1.80508e-13
-3.17376e-14
-3.21485e-13
7.72275e-15
-2.44825e-13
2.04579e-14
-4.13664e-14
1.64492e-13
1.00748e-13
1.85193e-13
3.28729e-13
1.19113e-13
7.61373e-14
-1.30565e-12
-1.08812e-12
-1.86962e-12
-3.40068e-13
1.21593e-12
1.33758e-12
-1.34821e-12
4.31296e-13
5.18987e-12
2.27076e-12
-8.02258e-12
-5.63811e-12
6.8773e-12
-1.0419e-12
2.11994e-12
-9.0896e-12
-4.21842e-12
-1.91573e-12
-2.52451e-13
1.22101e-12
7.32501e-13
4.02054e-13
5.00076e-13
-8.47887e-14
2.51292e-13
-1.82905e-13
-1.19521e-13
-1.21935e-13
-3.29353e-13
-6.88721e-14
-2.18723e-13
-3.29366e-15
-1.24543e-13
1.44035e-13
-9.71724e-14
2.37357e-13
2.98215e-13
3.19847e-13
1.99975e-13
-3.02997e-13
-1.37004e-12
-1.00047e-13
8.95834e-14
-4.17714e-13
1.43955e-12
1.12384e-12
4.96166e-13
5.84067e-12
-7.72901e-13
-9.34899e-12
-1.98222e-10
5.49779e-12
4.56733e-10
1.18807e-11
3.03436e-10
-3.6109e-13
1.08469e-11
-7.70596e-13
1.83909e-13
1.28953e-13
5.7816e-13
1.58467e-13
1.21715e-13
2.03032e-13
-2.07806e-13
8.58312e-14
-2.32101e-13
-1.66022e-14
-9.54962e-14
-4.04616e-15
2.59076e-14
-1.15786e-13
1.08536e-13
-1.95393e-13
1.70934e-13
6.81192e-14
2.5377e-13
1.52987e-13
9.0489e-13
1.86257e-12
-1.13148e-12
4.99494e-13
-1.18358e-11
1.83779e-11
-1.60731e-11
-8.49762e-12
3.87161e-12
-2.04679e-13
-1.14304e-12
-4.77398e-13
4.01288e-13
5.701e-13
2.86961e-13
1.56273e-14
-2.27429e-13
-2.92504e-13
-8.81864e-14
)
;

boundaryField
{
    sides
    {
        type            calculated;
        value           uniform 0;
    }
    inlet
    {
        type            calculated;
        value           uniform 0;
    }
    outlet
    {
        type            calculated;
        value           nonuniform List<scalar> 
20
(
-2.05967e-13
1.8506e-13
6.43462e-13
6.56422e-13
-6.3936e-14
-9.97401e-13
-1.40399e-12
-9.8026e-13
2.53106e-13
1.39977e-12
1.48987e-12
4.68758e-13
-7.63406e-13
-1.24378e-12
-8.79433e-13
-1.1728e-13
5.21258e-13
6.72026e-13
3.21223e-13
4.48143e-14
)
;
    }
    frontAndBack
    {
        type            empty;
        value           nonuniform 0();
    }
}


// ************************************************************************* //
