/*--------------------------------*- C++ -*----------------------------------*\
  =========                 |
  \\      /  F ield         | OpenFOAM: The Open Source CFD Toolbox
   \\    /   O peration     | Website:  https://openfoam.org
    \\  /    A nd           | Version:  7
     \\/     M anipulation  |
\*---------------------------------------------------------------------------*/
FoamFile
{
    version     2.0;
    format      ascii;
    class       surfaceScalarField;
    location    "95";
    object      phi;
}
// * * * * * * * * * * * * * * * * * * * * * * * * * * * * * * * * * * * * * //

dimensions      [0 4 -1 0 0 0 0];

internalField   nonuniform List<scalar> 
760
(
4.99999e-06
1.00693e-11
4.99999e-06
-4.33482e-12
5.00001e-06
-1.29208e-11
5.00003e-06
-1.95408e-11
5.00005e-06
-2.64421e-11
5.00009e-06
-3.5629e-11
5.00013e-06
-4.71923e-11
5.00018e-06
-4.65671e-11
5.00025e-06
-6.23549e-11
5.00032e-06
-7.81119e-11
5.00041e-06
-9.01478e-11
5.00053e-06
-1.14036e-10
5.00066e-06
-1.26922e-10
5.00082e-06
-1.67837e-10
5.001e-06
-1.7807e-10
5.00126e-06
-2.56862e-10
5.00151e-06
-2.56166e-10
5.00195e-06
-4.31707e-10
5.00236e-06
-4.14092e-10
-8.91587e-10
5.00002e-06
-1.17449e-11
5.00004e-06
-1.89565e-11
5.00005e-06
-2.92733e-11
5.00008e-06
-4.17874e-11
5.0001e-06
-5.44421e-11
5.00014e-06
-6.86764e-11
5.00018e-06
-8.48732e-11
5.00023e-06
-1.04667e-10
5.00029e-06
-1.23647e-10
5.00037e-06
-1.53304e-10
5.00045e-06
-1.7715e-10
5.00056e-06
-2.22125e-10
5.00069e-06
-2.50328e-10
5.00084e-06
-3.24124e-10
5.00102e-06
-3.53906e-10
5.00125e-06
-4.86086e-10
5.0015e-06
-5.09199e-10
5.00184e-06
-7.67877e-10
5.00218e-06
-7.59874e-10
-1.262e-09
4.99999e-06
-4.72249e-12
4.99999e-06
-2.03559e-11
5e-06
-3.75426e-11
5.00002e-06
-5.65145e-11
5.00004e-06
-7.64601e-11
5.00007e-06
-9.90249e-11
5.00011e-06
-1.22743e-10
5.00016e-06
-1.52262e-10
5.00021e-06
-1.82627e-10
5.00029e-06
-2.23986e-10
5.00037e-06
-2.62429e-10
5.00047e-06
-3.23342e-10
5.00059e-06
-3.71935e-10
5.00074e-06
-4.67475e-10
5.00091e-06
-5.25679e-10
5.00111e-06
-6.86683e-10
5.00135e-06
-7.4787e-10
5.00162e-06
-1.04112e-09
5.00194e-06
-1.08316e-09
-1.68956e-09
5.00001e-06
-1.27125e-11
5.00002e-06
-3.33229e-11
5.00004e-06
-5.42344e-11
5.00006e-06
-7.73964e-11
5.00008e-06
-1.01693e-10
5.00011e-06
-1.30488e-10
5.00015e-06
-1.60092e-10
5.0002e-06
-1.97967e-10
5.00025e-06
-2.36464e-10
5.00032e-06
-2.88859e-10
5.00039e-06
-3.38427e-10
5.00049e-06
-4.15327e-10
5.00059e-06
-4.78335e-10
5.00072e-06
-5.96357e-10
5.00087e-06
-6.7268e-10
5.00105e-06
-8.64938e-10
5.00124e-06
-9.46818e-10
5.00148e-06
-1.27995e-09
5.00173e-06
-1.33138e-09
-1.89804e-09
5e-06
-1.1616e-11
5e-06
-3.6414e-11
5.00001e-06
-6.19396e-11
5.00002e-06
-8.99749e-11
5.00004e-06
-1.1972e-10
5.00006e-06
-1.5442e-10
5.0001e-06
-1.91208e-10
5.00013e-06
-2.36527e-10
5.00018e-06
-2.83543e-10
5.00024e-06
-3.45465e-10
5.00031e-06
-4.06786e-10
5.00039e-06
-4.95634e-10
5.00048e-06
-5.74119e-10
5.00059e-06
-7.07139e-10
5.00072e-06
-8.0334e-10
5.00087e-06
-1.01238e-09
5.00104e-06
-1.11638e-09
5.00122e-06
-1.46151e-09
5.00142e-06
-1.53277e-09
-2.16286e-09
5e-06
-1.38227e-11
5.00001e-06
-4.30879e-11
5.00002e-06
-7.28105e-11
5.00003e-06
-1.04841e-10
5.00005e-06
-1.38752e-10
5.00008e-06
-1.77742e-10
5.00011e-06
-2.19717e-10
5.00014e-06
-2.70835e-10
5.00018e-06
-3.24469e-10
5.00023e-06
-3.94615e-10
5.00029e-06
-4.64326e-10
5.00036e-06
-5.63856e-10
5.00043e-06
-6.53026e-10
5.00053e-06
-7.99867e-10
5.00063e-06
-9.08482e-10
5.00075e-06
-1.13422e-09
5.00089e-06
-1.25097e-09
5.00104e-06
-1.61578e-09
5.00121e-06
-1.6972e-09
-2.29358e-09
5e-06
-1.5642e-11
5.00001e-06
-4.75272e-11
5.00001e-06
-8.01159e-11
5.00002e-06
-1.1483e-10
5.00004e-06
-1.52039e-10
5.00005e-06
-1.9479e-10
5.00008e-06
-2.41131e-10
5.0001e-06
-2.97055e-10
5.00013e-06
-3.56501e-10
5.00017e-06
-4.32837e-10
5.00022e-06
-5.09799e-10
5.00027e-06
-6.17218e-10
5.00033e-06
-7.15664e-10
5.00041e-06
-8.71924e-10
5.00049e-06
-9.91578e-10
5.00058e-06
-1.22749e-09
5.00069e-06
-1.35538e-09
5.0008e-06
-1.72644e-09
5.00091e-06
-1.81213e-09
-2.44218e-09
5e-06
-1.67595e-11
5e-06
-5.05717e-11
5.00001e-06
-8.5089e-11
5.00002e-06
-1.22328e-10
5.00003e-06
-1.621e-10
5.00004e-06
-2.07852e-10
5.00006e-06
-2.57354e-10
5.00008e-06
-3.16947e-10
5.0001e-06
-3.80426e-10
5.00013e-06
-4.61244e-10
5.00016e-06
-5.43279e-10
5.0002e-06
-6.56506e-10
5.00025e-06
-7.60998e-10
5.0003e-06
-9.24229e-10
5.00036e-06
-1.05077e-09
5.00042e-06
-1.2942e-09
5.0005e-06
-1.42842e-09
5.00058e-06
-1.80719e-09
5.00067e-06
-1.90045e-09
-2.51631e-09
5e-06
-1.73411e-11
5e-06
-5.24441e-11
5.00001e-06
-8.8207e-11
5.00001e-06
-1.27032e-10
5.00002e-06
-1.68412e-10
5.00002e-06
-2.15905e-10
5.00003e-06
-2.6723e-10
5.00005e-06
-3.28968e-10
5.00006e-06
-3.94788e-10
5.00008e-06
-4.7828e-10
5.0001e-06
-5.63391e-10
5.00012e-06
-6.79981e-10
5.00015e-06
-7.88139e-10
5.00018e-06
-9.55444e-10
5.00022e-06
-1.08621e-09
5.00026e-06
-1.3339e-09
5.0003e-06
-1.47217e-09
5.00035e-06
-1.85431e-09
5.00039e-06
-1.94782e-09
-2.57228e-09
5e-06
-1.74951e-11
5e-06
-5.30285e-11
5e-06
-8.93382e-11
5e-06
-1.2866e-10
5.00001e-06
-1.70605e-10
5.00001e-06
-2.18608e-10
5.00001e-06
-2.70551e-10
5.00002e-06
-3.32956e-10
5.00002e-06
-3.99541e-10
5.00003e-06
-4.83954e-10
5.00003e-06
-5.70058e-10
5.00004e-06
-6.87784e-10
5.00005e-06
-7.97292e-10
5.00006e-06
-9.65899e-10
5.00007e-06
-1.09805e-09
5.00009e-06
-1.34704e-09
5.0001e-06
-1.48669e-09
5.00012e-06
-1.86959e-09
5.00013e-06
-1.96491e-09
-2.58851e-09
5e-06
-1.72734e-11
5e-06
-5.23553e-11
5e-06
-8.82955e-11
5e-06
-1.27063e-10
4.99999e-06
-1.68515e-10
4.99999e-06
-2.15912e-10
4.99999e-06
-2.67279e-10
4.99998e-06
-3.28966e-10
4.99998e-06
-3.94724e-10
4.99997e-06
-4.78278e-10
4.99997e-06
-5.63288e-10
4.99996e-06
-6.79906e-10
4.99995e-06
-7.88248e-10
4.99994e-06
-9.5552e-10
4.99993e-06
-1.08614e-09
4.99991e-06
-1.33379e-09
4.9999e-06
-1.47213e-09
4.99988e-06
-1.85422e-09
4.99987e-06
-1.94766e-09
-2.57207e-09
5e-06
-1.66922e-11
5e-06
-5.05786e-11
4.99999e-06
-8.5104e-11
4.99999e-06
-1.22296e-10
4.99998e-06
-1.62108e-10
4.99998e-06
-2.07841e-10
4.99997e-06
-2.57371e-10
4.99995e-06
-3.16998e-10
4.99994e-06
-3.80349e-10
4.99992e-06
-4.61221e-10
4.9999e-06
-5.43217e-10
4.99988e-06
-6.56384e-10
4.99985e-06
-7.60999e-10
4.99982e-06
-9.2427e-10
4.99978e-06
-1.05074e-09
4.99974e-06
-1.29406e-09
4.9997e-06
-1.42833e-09
4.99965e-06
-1.80701e-09
4.99961e-06
-1.90021e-09
-2.51603e-09
5e-06
-1.57122e-11
5e-06
-4.75898e-11
4.99999e-06
-7.99882e-11
4.99998e-06
-1.14789e-10
4.99997e-06
-1.51875e-10
4.99996e-06
-1.94817e-10
4.99994e-06
-2.41086e-10
4.99992e-06
-2.97173e-10
4.9999e-06
-3.56524e-10
4.99987e-06
-4.32749e-10
4.99984e-06
-5.09812e-10
4.9998e-06
-6.17182e-10
4.99975e-06
-7.15579e-10
4.9997e-06
-8.71867e-10
4.99964e-06
-9.91566e-10
4.99958e-06
-1.22737e-09
4.9995e-06
-1.3553e-09
4.99942e-06
-1.72627e-09
4.99933e-06
-1.81196e-09
-2.44181e-09
5e-06
-1.3962e-11
4.99999e-06
-4.31145e-11
4.99999e-06
-7.27526e-11
4.99998e-06
-1.0478e-10
4.99996e-06
-1.38609e-10
4.99995e-06
-1.77853e-10
4.99992e-06
-2.19692e-10
4.9999e-06
-2.70916e-10
4.99987e-06
-3.24714e-10
4.99983e-06
-3.94595e-10
4.99978e-06
-4.64295e-10
4.99973e-06
-5.63846e-10
4.99967e-06
-6.52961e-10
4.99959e-06
-7.9977e-10
4.99951e-06
-9.08457e-10
4.99942e-06
-1.13412e-09
4.99931e-06
-1.25091e-09
4.9992e-06
-1.61559e-09
4.99909e-06
-1.69704e-09
-2.29319e-09
5e-06
-1.16578e-11
4.99999e-06
-3.63948e-11
4.99998e-06
-6.19959e-11
4.99997e-06
-8.99608e-11
4.99995e-06
-1.19919e-10
4.99992e-06
-1.54348e-10
4.99989e-06
-1.91256e-10
4.99986e-06
-2.36259e-10
4.99982e-06
-2.83742e-10
4.99977e-06
-3.45668e-10
4.99971e-06
-4.06828e-10
4.99964e-06
-4.95628e-10
4.99957e-06
-5.74108e-10
4.99947e-06
-7.0706e-10
4.99937e-06
-8.03338e-10
4.99925e-06
-1.01233e-09
4.99911e-06
-1.11635e-09
4.99896e-06
-1.46128e-09
4.99879e-06
-1.53264e-09
-2.16245e-09
5e-06
-1.25659e-11
5e-06
-3.32692e-11
4.99999e-06
-5.4362e-11
4.99998e-06
-7.75321e-11
4.99996e-06
-1.01952e-10
4.99994e-06
-1.3007e-10
4.9999e-06
-1.60331e-10
4.99987e-06
-1.97595e-10
4.99982e-06
-2.36124e-10
4.99976e-06
-2.8897e-10
4.99969e-06
-3.3852e-10
4.99961e-06
-4.1532e-10
4.99952e-06
-4.78327e-10
4.99941e-06
-5.96255e-10
4.99928e-06
-6.72646e-10
4.99913e-06
-8.64834e-10
4.99896e-06
-9.46759e-10
4.99878e-06
-1.27964e-09
4.99858e-06
-1.33119e-09
-1.89754e-09
4.99999e-06
-4.56299e-12
4.99998e-06
-2.0358e-11
4.99996e-06
-3.76227e-11
4.99994e-06
-5.66543e-11
4.99992e-06
-7.63754e-11
4.99988e-06
-9.89611e-11
4.99985e-06
-1.22972e-10
4.9998e-06
-1.52696e-10
4.99975e-06
-1.82307e-10
4.99968e-06
-2.23827e-10
4.99961e-06
-2.62487e-10
4.99952e-06
-3.23391e-10
4.99941e-06
-3.71995e-10
4.99928e-06
-4.67434e-10
4.99913e-06
-5.25687e-10
4.99895e-06
-6.866e-10
4.99876e-06
-7.47876e-10
4.99852e-06
-1.04091e-09
4.99827e-06
-1.08307e-09
-1.68918e-09
5.00001e-06
-1.18289e-11
5.00001e-06
-1.90321e-11
5e-06
-2.91723e-11
4.99998e-06
-4.16676e-11
4.99996e-06
-5.39972e-11
4.99993e-06
-6.96007e-11
4.99989e-06
-8.3736e-11
4.99984e-06
-1.04664e-10
4.99978e-06
-1.23675e-10
4.99971e-06
-1.53068e-10
4.99963e-06
-1.77055e-10
4.99953e-06
-2.2209e-10
4.99941e-06
-2.50368e-10
4.99926e-06
-3.24062e-10
4.99909e-06
-3.53895e-10
4.99889e-06
-4.8593e-10
4.99865e-06
-5.092e-10
4.99838e-06
-7.67631e-10
4.99805e-06
-7.59768e-10
-1.26152e-09
4.99998e-06
9.90542e-12
4.99996e-06
-4.40621e-12
4.99995e-06
-1.27453e-11
4.99992e-06
-1.93807e-11
4.9999e-06
-2.66852e-11
4.99986e-06
-3.2287e-11
4.99982e-06
-3.40382e-11
4.99977e-06
-4.49877e-11
4.99971e-06
-6.25676e-11
4.99963e-06
-7.81221e-11
4.99955e-06
-9.01183e-11
4.99944e-06
-1.14059e-10
4.99932e-06
-1.27023e-10
4.99916e-06
-1.67906e-10
4.99898e-06
-1.78144e-10
4.99875e-06
-2.56866e-10
4.9985e-06
-2.56252e-10
4.99817e-06
-4.31726e-10
4.99782e-06
-4.1417e-10
-8.91595e-10
5.00001e-06
5.00001e-06
4.99999e-06
4.99997e-06
4.99995e-06
4.99991e-06
4.99987e-06
4.99982e-06
4.99975e-06
4.99968e-06
4.99959e-06
4.99947e-06
4.99934e-06
4.99918e-06
4.999e-06
4.99874e-06
4.99848e-06
4.99805e-06
4.99764e-06
)
;

boundaryField
{
    sides
    {
        type            calculated;
        value           uniform 0;
    }
    inlet
    {
        type            calculated;
        value           nonuniform List<scalar> 
20
(
-5e-06
-5e-06
-5e-06
-5e-06
-5e-06
-5e-06
-5e-06
-5e-06
-5e-06
-5e-06
-5e-06
-5e-06
-5e-06
-5e-06
-5e-06
-5e-06
-5e-06
-5e-06
-5e-06
-5e-06
)
;
    }
    outlet
    {
        type            calculated;
        value           nonuniform List<scalar> 
20
(
5.00325e-06
5.00255e-06
5.00237e-06
5.00194e-06
5.00169e-06
5.00134e-06
5.00106e-06
5.00074e-06
5.00045e-06
5.00015e-06
4.99985e-06
4.99955e-06
4.99926e-06
4.99894e-06
4.99866e-06
4.99831e-06
4.99806e-06
4.99763e-06
4.99745e-06
4.99675e-06
)
;
    }
    frontAndBack
    {
        type            empty;
        value           nonuniform 0();
    }
}


// ************************************************************************* //
