/*--------------------------------*- C++ -*----------------------------------*\
  =========                 |
  \\      /  F ield         | OpenFOAM: The Open Source CFD Toolbox
   \\    /   O peration     | Website:  https://openfoam.org
    \\  /    A nd           | Version:  7
     \\/     M anipulation  |
\*---------------------------------------------------------------------------*/
FoamFile
{
    version     2.0;
    format      ascii;
    class       volVectorField;
    location    "67";
    object      ddtCorrDdt0(hU);
}
// * * * * * * * * * * * * * * * * * * * * * * * * * * * * * * * * * * * * * //

dimensions      [0 2 -2 0 0 0 0];

internalField   nonuniform List<vector> 
400
(
(-1.00554e-10 -1.1647e-10 0)
(-2.34153e-10 9.85347e-12 0)
(-2.27013e-10 1.41129e-10 0)
(-1.14615e-10 -4.58908e-11 0)
(2.14108e-10 -3.02553e-10 0)
(1.29716e-09 -4.21787e-10 0)
(4.14634e-10 -9.53396e-10 0)
(4.17439e-10 -1.65918e-09 0)
(-6.14233e-10 -1.89087e-10 0)
(1.2378e-11 -1.00093e-10 0)
(-2.57816e-10 6.8601e-11 0)
(-8.33664e-11 2.01117e-10 0)
(3.37459e-11 1.83533e-10 0)
(1.4916e-11 7.0989e-11 0)
(-7.57152e-11 -3.26311e-11 0)
(-2.0357e-10 -1.24505e-10 0)
(-1.49462e-10 -1.58494e-10 0)
(-2.76771e-11 -1.32234e-10 0)
(1.71248e-10 -1.48224e-10 0)
(2.79711e-10 -2.17178e-11 0)
(4.45426e-11 -2.8639e-10 0)
(1.23538e-11 -4.61547e-11 0)
(-2.22188e-10 2.01695e-10 0)
(-1.62522e-10 2.67795e-10 0)
(-4.60956e-10 -1.76559e-10 0)
(-1.09499e-09 2.06493e-10 0)
(4.04893e-10 -1.22599e-09 0)
(-1.60302e-09 -1.27371e-09 0)
(9.31033e-10 -3.15047e-11 0)
(1.74626e-10 -2.86395e-10 0)
(9.95064e-11 -4.30249e-11 0)
(1.12236e-10 1.64906e-10 0)
(-1.3429e-11 1.66766e-10 0)
(-1.13672e-10 8.07187e-11 0)
(-1.68223e-10 -2.01712e-11 0)
(-2.08841e-10 -8.02614e-11 0)
(-1.09082e-10 -8.02099e-11 0)
(1.4443e-12 -1.05665e-11 0)
(1.32806e-10 -3.18594e-11 0)
(2.08335e-10 -3.78654e-11 0)
(8.83332e-11 -6.33026e-11 0)
(1.61445e-10 -7.18899e-12 0)
(3.53746e-11 -9.52756e-11 0)
(-3.65112e-11 6.70618e-11 0)
(-2.038e-10 -2.5197e-10 0)
(5.58185e-12 2.12707e-10 0)
(-1.31083e-09 -5.65267e-10 0)
(8.46619e-10 5.58292e-10 0)
(4.38118e-10 3.05457e-11 0)
(-5.78645e-11 -1.18768e-10 0)
(3.36597e-10 2.05472e-10 0)
(1.42918e-10 2.69154e-10 0)
(-1.22097e-10 2.13983e-10 0)
(-2.30639e-10 8.5271e-11 0)
(-2.52308e-10 -5.25881e-11 0)
(-2.1749e-10 -1.8886e-10 0)
(-2.20575e-11 -2.50376e-10 0)
(6.22684e-11 -1.98425e-10 0)
(1.64743e-10 -2.91472e-10 0)
(2.09874e-10 -1.06632e-10 0)
(8.17225e-11 1.91873e-10 0)
(5.41329e-11 1.25818e-10 0)
(-3.88683e-11 -8.98356e-11 0)
(-1.83139e-10 -1.97483e-10 0)
(-4.3998e-11 -1.9248e-10 0)
(-3.07162e-10 -4.70399e-10 0)
(-5.28132e-11 3.68022e-11 0)
(9.55286e-10 2.63626e-10 0)
(-2.86227e-10 -3.63149e-10 0)
(1.60059e-10 1.16178e-10 0)
(4.23948e-10 2.9657e-10 0)
(1.97272e-11 1.81524e-10 0)
(-1.7321e-10 1.54097e-10 0)
(-2.25203e-10 5.1279e-11 0)
(-2.20703e-10 -6.28025e-11 0)
(-1.47528e-10 -1.7633e-10 0)
(2.55216e-11 -2.82829e-10 0)
(7.7973e-11 -3.06251e-10 0)
(8.85209e-11 -4.95067e-10 0)
(1.1775e-10 -2.1632e-10 0)
(7.10145e-11 1.39006e-10 0)
(-3.07244e-11 7.94646e-11 0)
(-2.89387e-11 3.05144e-13 0)
(-2.06351e-10 -2.4227e-10 0)
(1.89985e-11 -7.16912e-11 0)
(-2.97983e-10 -5.65886e-10 0)
(3.77823e-10 5.66318e-11 0)
(-1.72518e-10 -3.85776e-10 0)
(-2.23211e-10 -3.03161e-10 0)
(4.30518e-10 2.35679e-10 0)
(2.15237e-11 1.47244e-10 0)
(-2.23904e-10 9.27169e-11 0)
(-1.59445e-10 1.9078e-10 0)
(-1.58905e-10 1.18543e-10 0)
(-1.07984e-10 2.98688e-12 0)
(-2.29831e-11 -1.10058e-10 0)
(6.91268e-11 -2.74813e-10 0)
(5.65443e-11 -3.76889e-10 0)
(7.87516e-11 -6.20938e-10 0)
(1.39657e-10 -2.90271e-10 0)
(1.59021e-11 8.08511e-11 0)
(-9.45778e-11 9.26772e-12 0)
(-1.34876e-10 -5.14738e-11 0)
(-2.16314e-10 -3.67794e-10 0)
(-9.23893e-11 -3.94254e-10 0)
(-7.70555e-11 -6.39014e-10 0)
(2.34244e-10 -4.66522e-10 0)
(-1.59766e-10 -7.13731e-10 0)
(3.6859e-10 -1.10259e-10 0)
(2.84973e-10 2.41319e-11 0)
(-2.41574e-10 2.55228e-11 0)
(-1.42788e-10 2.51507e-10 0)
(-5.88141e-11 3.78638e-10 0)
(-1.80448e-10 2.40871e-10 0)
(-1.41514e-10 8.75797e-11 0)
(-6.81984e-11 -1.39004e-10 0)
(-4.31259e-11 -4.1324e-10 0)
(-6.7111e-11 -5.3746e-10 0)
(1.00923e-10 -8.23821e-10 0)
(2.98185e-10 -3.42186e-10 0)
(-3.90063e-11 1.62014e-11 0)
(-7.54096e-11 1.38548e-11 0)
(-1.42823e-10 -3.58245e-11 0)
(-7.14933e-11 -9.17349e-11 0)
(-7.68609e-11 -3.63427e-10 0)
(1.05249e-10 -3.55451e-10 0)
(-8.08168e-12 -5.78109e-10 0)
(-3.94897e-11 -5.12183e-10 0)
(1.60212e-10 -2.07311e-10 0)
(-2.3484e-10 -2.64433e-10 0)
(-1.86536e-10 4.53359e-11 0)
(1.17407e-10 3.73816e-10 0)
(9.69845e-11 3.89189e-10 0)
(-2.85237e-12 2.65052e-10 0)
(2.76966e-11 1.72658e-10 0)
(1.29233e-11 -9.05302e-11 0)
(-9.9844e-11 -4.15257e-10 0)
(-1.73931e-10 -4.73021e-10 0)
(-4.00491e-11 -7.18737e-10 0)
(2.09673e-10 -3.23261e-10 0)
(-4.42765e-11 -4.24546e-11 0)
(-2.3382e-11 6.21266e-12 0)
(-1.11651e-10 -1.06243e-10 0)
(-1.60781e-11 -8.80637e-11 0)
(-6.91833e-11 -3.82686e-10 0)
(1.01667e-10 -4.53022e-10 0)
(-9.02569e-11 -6.87021e-10 0)
(1.09641e-10 -4.94356e-10 0)
(1.0453e-13 -3.61933e-10 0)
(-1.22717e-10 -1.04005e-10 0)
(1.84664e-10 3.78512e-10 0)
(1.20325e-10 5.45397e-10 0)
(-3.74721e-11 4.69872e-10 0)
(2.86251e-11 3.03253e-10 0)
(2.59877e-11 1.32776e-10 0)
(-1.11579e-10 -2.33951e-10 0)
(-1.64079e-10 -5.76665e-10 0)
(-1.42386e-10 -5.25661e-10 0)
(2.27309e-11 -6.81628e-10 0)
(2.10529e-10 -2.49839e-10 0)
(1.098e-11 -2.90077e-11 0)
(1.80738e-11 -5.49909e-11 0)
(-2.85538e-11 -8.97988e-11 0)
(-3.88459e-12 -1.99786e-10 0)
(-1.19442e-11 -3.11138e-10 0)
(6.24074e-12 -5.06072e-10 0)
(-6.75418e-11 -6.01207e-10 0)
(4.1881e-11 -4.73509e-10 0)
(-5.07818e-11 -3.88772e-10 0)
(4.88386e-11 5.86749e-11 0)
(1.57624e-10 3.7177e-10 0)
(-2.25713e-11 4.31905e-10 0)
(-3.51689e-11 5.06589e-10 0)
(1.05312e-10 3.40167e-10 0)
(5.29729e-11 4.71255e-11 0)
(-8.49862e-11 -3.15309e-10 0)
(-6.83737e-11 -5.8024e-10 0)
(2.00956e-11 -4.78949e-10 0)
(4.42374e-11 -6.53059e-10 0)
(8.86555e-12 -2.59763e-10 0)
(2.82841e-11 1.2525e-11 0)
(-8.64925e-13 -8.18281e-11 0)
(5.73507e-11 -8.19546e-11 0)
(8.70556e-12 -2.59838e-10 0)
(9.94071e-12 -3.72569e-10 0)
(-1.08681e-10 -5.91413e-10 0)
(-4.37207e-11 -6.23175e-10 0)
(-7.86348e-11 -5.12981e-10 0)
(1.13158e-11 -3.3823e-10 0)
(1.17654e-10 9.75677e-11 0)
(2.19962e-12 3.51381e-10 0)
(2.29299e-11 4.55767e-10 0)
(4.35192e-11 5.62161e-10 0)
(-7.39414e-11 3.35494e-10 0)
(-1.21264e-10 -9.1745e-12 0)
(-4.45971e-11 -3.5067e-10 0)
(8.21916e-11 -5.87791e-10 0)
(1.34289e-10 -5.31149e-10 0)
(7.87499e-11 -7.63961e-10 0)
(-6.98347e-11 -3.09247e-10 0)
(1.70516e-11 1.09465e-11 0)
(-1.14551e-11 1.43206e-12 0)
(8.1786e-11 -1.19432e-10 0)
(1.74873e-11 -2.47638e-10 0)
(3.18824e-11 -4.84638e-10 0)
(-1.1348e-10 -6.06203e-10 0)
(-1.65408e-12 -6.63675e-10 0)
(-8.95605e-11 -5.32928e-10 0)
(2.16558e-11 -2.87409e-10 0)
(1.0517e-10 -1.97555e-11 0)
(-8.12142e-11 3.22206e-10 0)
(-5.27479e-12 5.00968e-10 0)
(2.66928e-11 4.78243e-10 0)
(-1.39587e-10 2.81765e-10 0)
(-1.42928e-10 1.05242e-10 0)
(3.88001e-11 -1.86617e-10 0)
(1.7747e-10 -5.18667e-10 0)
(2.07065e-10 -6.04063e-10 0)
(8.23681e-11 -9.16314e-10 0)
(-1.31176e-10 -3.92723e-10 0)
(1.65747e-12 3.88576e-11 0)
(1.79407e-11 2.78837e-11 0)
(3.51514e-11 -1.29678e-10 0)
(3.53049e-11 -2.43628e-10 0)
(6.73345e-11 -5.23858e-10 0)
(-1.32841e-12 -5.76189e-10 0)
(-1.41465e-12 -6.22056e-10 0)
(-8.76401e-12 -5.29006e-10 0)
(-7.66273e-11 -2.16304e-10 0)
(6.90849e-11 -1.11606e-10 0)
(5.38422e-11 2.14359e-10 0)
(-6.5226e-11 4.83953e-10 0)
(-2.93804e-11 4.47465e-10 0)
(3.85078e-11 2.7157e-10 0)
(-6.85942e-12 1.78256e-10 0)
(-5.93454e-11 -5.51436e-11 0)
(-1.52485e-11 -4.07982e-10 0)
(6.63381e-11 -5.85194e-10 0)
(6.6291e-11 -9.77693e-10 0)
(-2.90195e-11 -4.52369e-10 0)
(-5.59093e-11 7.81401e-11 0)
(8.58515e-12 -1.30656e-11 0)
(-2.86891e-11 -6.37005e-11 0)
(8.25502e-11 -2.91008e-10 0)
(7.06616e-11 -4.11314e-10 0)
(1.67937e-10 -5.93687e-10 0)
(-3.29065e-11 -5.26384e-10 0)
(9.10223e-11 -5.40812e-10 0)
(-1.74089e-10 -1.49789e-10 0)
(-1.64243e-10 5.99151e-11 0)
(1.55454e-10 1.89041e-10 0)
(2.5666e-11 4.18916e-10 0)
(-4.65633e-11 5.16165e-10 0)
(1.32411e-10 3.03694e-10 0)
(1.41444e-10 8.19957e-11 0)
(1.52328e-11 -1.50297e-10 0)
(-8.57924e-11 -4.08444e-10 0)
(-7.56728e-11 -5.4131e-10 0)
(-6.31457e-11 -9.18281e-10 0)
(-2.89664e-11 -4.0568e-10 0)
(-6.70976e-11 4.51664e-11 0)
(-2.31124e-11 -5.52238e-12 0)
(-4.31944e-11 -1.77937e-11 0)
(9.30994e-11 -2.03648e-10 0)
(-1.17167e-12 -1.42204e-10 0)
(2.13078e-10 -5.12422e-10 0)
(-2.5667e-11 -3.7932e-10 0)
(9.1069e-11 -4.75751e-10 0)
(5.01453e-11 -3.10527e-10 0)
(-3.43888e-10 1.49997e-10 0)
(-5.81398e-11 1.91274e-10 0)
(1.51569e-10 2.06464e-10 0)
(5.57988e-11 3.66197e-10 0)
(4.33022e-11 2.5163e-10 0)
(7.77982e-11 3.00704e-11 0)
(4.30508e-11 -1.72062e-10 0)
(-9.92307e-11 -3.58813e-10 0)
(-1.78312e-10 -4.00515e-10 0)
(-8.96538e-11 -6.9191e-10 0)
(5.63081e-11 -3.20363e-10 0)
(-1.9914e-11 -1.32923e-11 0)
(-1.06617e-11 1.24883e-11 0)
(7.59229e-11 -8.45191e-11 0)
(1.209e-10 -1.19425e-10 0)
(4.87414e-11 -3.09773e-10 0)
(9.03678e-11 -5.67113e-10 0)
(7.70113e-11 -5.9739e-10 0)
(-2.63966e-10 -3.90813e-10 0)
(1.54492e-10 -5.11269e-10 0)
(-1.98208e-10 4.58102e-11 0)
(-3.97856e-10 3.84988e-10 0)
(9.06517e-12 3.36336e-10 0)
(2.04445e-10 3.28053e-10 0)
(1.781e-10 1.8784e-10 0)
(2.1172e-10 -1.59173e-11 0)
(2.28997e-10 -2.79964e-10 0)
(1.05304e-11 -4.78389e-10 0)
(-1.53788e-10 -4.23357e-10 0)
(-2.20476e-10 -5.86574e-10 0)
(-1.59256e-10 -2.12231e-10 0)
(3.98644e-11 -9.25867e-11 0)
(8.72744e-12 4.25609e-11 0)
(1.35729e-10 3.57623e-11 0)
(5.62049e-12 1.36968e-10 0)
(7.79309e-11 -3.18118e-10 0)
(-1.69022e-10 -5.50667e-11 0)
(3.90827e-10 -7.23747e-10 0)
(-3.94583e-10 4.63538e-11 0)
(-7.39276e-13 -2.78027e-10 0)
(2.73765e-10 -2.44189e-10 0)
(-1.97125e-10 2.10379e-10 0)
(-1.48241e-10 3.13984e-10 0)
(7.36377e-11 2.36467e-10 0)
(1.1479e-10 1.18164e-10 0)
(1.4421e-10 -2.98839e-12 0)
(1.84596e-10 -2.17232e-10 0)
(6.80227e-11 -3.93653e-10 0)
(-4.78355e-11 -3.06015e-10 0)
(-1.69389e-10 -3.91479e-10 0)
(-2.13094e-10 -1.60683e-10 0)
(5.64147e-11 -1.53174e-10 0)
(1.17048e-10 2.00522e-11 0)
(2.68782e-10 9.30979e-11 0)
(9.67531e-11 1.0848e-11 0)
(2.33677e-10 -4.91531e-10 0)
(-3.27686e-10 -5.35113e-11 0)
(4.81367e-10 -1.0746e-09 0)
(1.94465e-10 -5.66027e-10 0)
(-8.42367e-10 1.37161e-10 0)
(7.4898e-11 -1.65015e-10 0)
(3.57547e-11 8.84659e-11 0)
(-1.70106e-10 2.86415e-10 0)
(-3.1155e-11 2.41704e-10 0)
(1.214e-10 1.05901e-10 0)
(1.81357e-10 -2.62642e-12 0)
(2.31975e-10 -1.96195e-10 0)
(1.76525e-10 -3.74462e-10 0)
(6.9752e-11 -3.38763e-10 0)
(-1.4357e-10 -4.32097e-10 0)
(-3.05533e-10 -1.67386e-10 0)
(8.94002e-11 1.19779e-10 0)
(2.72115e-10 6.18032e-11 0)
(3.00753e-10 2.86936e-11 0)
(6.13469e-11 -2.56472e-10 0)
(1.24116e-10 -2.46009e-10 0)
(-2.94648e-10 -5.55183e-10 0)
(-6.84917e-10 -1.32051e-09 0)
(1.68906e-09 -4.57043e-10 0)
(-1.34962e-10 1.58155e-10 0)
(-3.36888e-10 1.26954e-10 0)
(1.13068e-10 2.0523e-11 0)
(-4.40972e-11 1.59018e-10 0)
(-2.05482e-11 2.11287e-10 0)
(1.18285e-10 1.27414e-10 0)
(1.68379e-10 3.83697e-11 0)
(2.16386e-10 -1.08831e-10 0)
(1.5663e-10 -2.69397e-10 0)
(8.67441e-11 -3.08527e-10 0)
(-1.63432e-10 -3.92885e-10 0)
(-3.60921e-10 -1.39295e-10 0)
(-8.43923e-12 3.7893e-10 0)
(6.18908e-11 9.65235e-11 0)
(7.60252e-11 -2.46456e-10 0)
(1.23837e-10 -3.80018e-10 0)
(-1.33614e-10 5.18415e-10 0)
(-8.75935e-10 -3.08291e-10 0)
(-3.85592e-10 2.69647e-09 0)
(-1.69906e-11 -1.67155e-10 0)
(-6.06867e-11 -5.90524e-10 0)
(-5.18742e-10 -4.66723e-12 0)
(-1.61817e-10 -8.91659e-11 0)
(2.72706e-11 -7.07243e-12 0)
(6.10819e-11 1.02678e-10 0)
(1.25761e-10 1.06705e-10 0)
(1.35798e-10 7.40363e-11 0)
(1.38424e-10 2.5022e-11 0)
(8.46418e-11 -6.35706e-11 0)
(5.59203e-11 -1.1691e-10 0)
(-7.4479e-11 -1.72287e-10 0)
(-2.33248e-10 -9.74924e-11 0)
(-2.10204e-10 1.80357e-10 0)
(-2.27593e-10 1.83972e-11 0)
(-5.88317e-11 -2.89595e-10 0)
(3.66892e-10 -3.27583e-10 0)
(1.98106e-10 2.69274e-10 0)
(1.6824e-09 -1.18928e-10 0)
(3.26531e-10 3.20472e-09 0)
(-1.60719e-09 -5.23715e-10 0)
(3.30066e-10 -6.0812e-10 0)
(2.27155e-10 -4.16508e-11 0)
(-3.40882e-13 8.81385e-11 0)
(1.58001e-10 1.41633e-10 0)
(1.33001e-10 1.5812e-10 0)
(1.04899e-10 8.60498e-11 0)
(7.15074e-11 9.00609e-12 0)
(5.97231e-11 -8.30547e-11 0)
(6.30958e-12 -1.51463e-10 0)
(2.94478e-11 -1.72141e-10 0)
(-6.72359e-11 -2.07299e-10 0)
(-2.06734e-10 -4.93076e-11 0)
)
;

boundaryField
{
    sides
    {
        type            calculated;
        value           nonuniform List<vector> 
40
(
(-2.10204e-10 0 0)
(-2.27593e-10 0 0)
(-5.88317e-11 0 0)
(3.66892e-10 0 0)
(1.98106e-10 0 0)
(1.6824e-09 0 0)
(3.26531e-10 0 0)
(-1.60719e-09 0 0)
(3.30066e-10 0 0)
(2.27155e-10 0 0)
(-3.40882e-13 0 0)
(1.58001e-10 0 0)
(1.33001e-10 0 0)
(1.04899e-10 0 0)
(7.15074e-11 0 0)
(5.97231e-11 0 0)
(6.30958e-12 0 0)
(2.94478e-11 0 0)
(-6.72359e-11 0 0)
(-2.06734e-10 0 0)
(-1.00554e-10 0 0)
(-2.34153e-10 0 0)
(-2.27013e-10 0 0)
(-1.14615e-10 0 0)
(2.14108e-10 0 0)
(1.29716e-09 0 0)
(4.14634e-10 0 0)
(4.17439e-10 0 0)
(-6.14233e-10 0 0)
(1.2378e-11 0 0)
(-2.57816e-10 0 0)
(-8.33664e-11 0 0)
(3.37459e-11 0 0)
(1.4916e-11 0 0)
(-7.57152e-11 0 0)
(-2.0357e-10 0 0)
(-1.49462e-10 0 0)
(-2.76771e-11 0 0)
(1.71248e-10 0 0)
(2.79711e-10 0 0)
)
;
    }
    inlet
    {
        type            calculated;
        value           uniform (0 0 0);
    }
    outlet
    {
        type            calculated;
        value           nonuniform List<vector> 
20
(
(2.79711e-10 -2.17178e-11 0)
(2.08335e-10 -3.78654e-11 0)
(2.09874e-10 -1.06632e-10 0)
(1.1775e-10 -2.1632e-10 0)
(1.39657e-10 -2.90271e-10 0)
(2.98185e-10 -3.42186e-10 0)
(2.09673e-10 -3.23261e-10 0)
(2.10529e-10 -2.49839e-10 0)
(8.86555e-12 -2.59763e-10 0)
(-6.98347e-11 -3.09247e-10 0)
(-1.31176e-10 -3.92723e-10 0)
(-2.90195e-11 -4.52369e-10 0)
(-2.89664e-11 -4.0568e-10 0)
(5.63081e-11 -3.20363e-10 0)
(-1.59256e-10 -2.12231e-10 0)
(-2.13094e-10 -1.60683e-10 0)
(-3.05533e-10 -1.67386e-10 0)
(-3.60921e-10 -1.39295e-10 0)
(-2.33248e-10 -9.74924e-11 0)
(-2.06734e-10 -4.93076e-11 0)
)
;
    }
    frontAndBack
    {
        type            empty;
    }
}


// ************************************************************************* //
