/*--------------------------------*- C++ -*----------------------------------*\
  =========                 |
  \\      /  F ield         | OpenFOAM: The Open Source CFD Toolbox
   \\    /   O peration     | Website:  https://openfoam.org
    \\  /    A nd           | Version:  7
     \\/     M anipulation  |
\*---------------------------------------------------------------------------*/
FoamFile
{
    version     2.0;
    format      ascii;
    class       volVectorField;
    location    "67";
    object      U;
}
// * * * * * * * * * * * * * * * * * * * * * * * * * * * * * * * * * * * * * //

dimensions      [0 1 -1 0 0 0 0];

internalField   nonuniform List<vector> 
400
(
(0.0999931 -8.75453e-07 0)
(0.099993 -2.38235e-06 0)
(0.0999931 -3.60824e-06 0)
(0.0999934 -4.68076e-06 0)
(0.0999939 -5.69846e-06 0)
(0.0999947 -6.74939e-06 0)
(0.0999955 -7.81692e-06 0)
(0.0999966 -8.91442e-06 0)
(0.0999978 -9.98177e-06 0)
(0.0999996 -1.11794e-05 0)
(0.100001 -1.22571e-05 0)
(0.100004 -1.36148e-05 0)
(0.100006 -1.46597e-05 0)
(0.10001 -1.63477e-05 0)
(0.100013 -1.72317e-05 0)
(0.10002 -1.96443e-05 0)
(0.100022 -2.00863e-05 0)
(0.100035 -2.43053e-05 0)
(0.100036 -2.39077e-05 0)
(0.10006 -3.31696e-05 0)
(0.0999943 3.95351e-07 0)
(0.0999947 1.20893e-06 0)
(0.0999952 2.02396e-06 0)
(0.0999958 2.79476e-06 0)
(0.0999963 3.5098e-06 0)
(0.099997 4.15649e-06 0)
(0.0999978 4.75011e-06 0)
(0.0999989 5.29393e-06 0)
(0.1 5.8361e-06 0)
(0.100002 6.22703e-06 0)
(0.100003 6.69534e-06 0)
(0.100006 6.85624e-06 0)
(0.100008 7.26387e-06 0)
(0.100012 6.9785e-06 0)
(0.100014 7.39226e-06 0)
(0.10002 6.15619e-06 0)
(0.100024 6.70794e-06 0)
(0.100033 3.17097e-06 0)
(0.100036 3.98388e-06 0)
(0.10005 -5.45307e-06 0)
(0.0999948 -4.00202e-07 0)
(0.0999947 -1.31218e-06 0)
(0.0999947 -2.32251e-06 0)
(0.099995 -3.38461e-06 0)
(0.0999954 -4.43763e-06 0)
(0.099996 -5.50684e-06 0)
(0.0999967 -6.563e-06 0)
(0.0999977 -7.72359e-06 0)
(0.0999988 -8.87146e-06 0)
(0.1 -1.0238e-05 0)
(0.100002 -1.15167e-05 0)
(0.100004 -1.32424e-05 0)
(0.100006 -1.46647e-05 0)
(0.10001 -1.70272e-05 0)
(0.100013 -1.85412e-05 0)
(0.100018 -2.21431e-05 0)
(0.100021 -2.35849e-05 0)
(0.100029 -2.97667e-05 0)
(0.100032 -3.06112e-05 0)
(0.100046 -4.21909e-05 0)
(0.0999956 -1.70963e-08 0)
(0.0999958 -1.90354e-08 0)
(0.0999962 3.4169e-08 0)
(0.0999967 1.00064e-07 0)
(0.0999972 1.71496e-07 0)
(0.0999978 1.70548e-07 0)
(0.0999986 1.49423e-07 0)
(0.0999995 -2.59494e-08 0)
(0.100001 -2.25645e-07 0)
(0.100002 -6.90162e-07 0)
(0.100003 -1.11268e-06 0)
(0.100005 -2.05142e-06 0)
(0.100007 -2.73604e-06 0)
(0.10001 -4.45905e-06 0)
(0.100013 -5.39084e-06 0)
(0.100017 -8.53703e-06 0)
(0.10002 -9.57291e-06 0)
(0.100027 -1.5482e-05 0)
(0.100029 -1.6089e-05 0)
(0.100039 -2.75537e-05 0)
(0.0999963 -2.92856e-07 0)
(0.0999963 -9.35861e-07 0)
(0.0999964 -1.65161e-06 0)
(0.0999966 -2.46426e-06 0)
(0.0999969 -3.33204e-06 0)
(0.0999974 -4.29864e-06 0)
(0.099998 -5.29447e-06 0)
(0.0999988 -6.45306e-06 0)
(0.0999997 -7.63659e-06 0)
(0.100001 -9.10872e-06 0)
(0.100002 -1.05539e-05 0)
(0.100004 -1.25448e-05 0)
(0.100006 -1.42932e-05 0)
(0.100008 -1.71273e-05 0)
(0.100011 -1.91623e-05 0)
(0.100014 -2.34762e-05 0)
(0.100017 -2.56068e-05 0)
(0.100022 -3.26735e-05 0)
(0.100024 -3.4149e-05 0)
(0.100033 -4.6407e-05 0)
(0.099997 -2.64053e-07 0)
(0.0999971 -7.77154e-07 0)
(0.0999972 -1.25697e-06 0)
(0.0999975 -1.73724e-06 0)
(0.0999979 -2.21055e-06 0)
(0.0999984 -2.75239e-06 0)
(0.099999 -3.32693e-06 0)
(0.0999997 -4.07335e-06 0)
(0.1 -4.86693e-06 0)
(0.100002 -5.9875e-06 0)
(0.100003 -7.11345e-06 0)
(0.100004 -8.82739e-06 0)
(0.100006 -1.03453e-05 0)
(0.100008 -1.2993e-05 0)
(0.10001 -1.4888e-05 0)
(0.100013 -1.90869e-05 0)
(0.100015 -2.11365e-05 0)
(0.100019 -2.80733e-05 0)
(0.100021 -2.94425e-05 0)
(0.100027 -4.14506e-05 0)
(0.0999976 -2.98053e-07 0)
(0.0999977 -9.11138e-07 0)
(0.0999978 -1.55226e-06 0)
(0.099998 -2.26329e-06 0)
(0.0999983 -3.03699e-06 0)
(0.0999986 -3.9275e-06 0)
(0.0999991 -4.89097e-06 0)
(0.0999996 -6.04822e-06 0)
(0.1 -7.27661e-06 0)
(0.100001 -8.84963e-06 0)
(0.100002 -1.04394e-05 0)
(0.100003 -1.26418e-05 0)
(0.100004 -1.46576e-05 0)
(0.100006 -1.78299e-05 0)
(0.100007 -2.02357e-05 0)
(0.10001 -2.49796e-05 0)
(0.100011 -2.75107e-05 0)
(0.100015 -3.49807e-05 0)
(0.100016 -3.67171e-05 0)
(0.100021 -4.91732e-05 0)
(0.0999983 -3.28333e-07 0)
(0.0999984 -1.00156e-06 0)
(0.0999985 -1.69562e-06 0)
(0.0999986 -2.44154e-06 0)
(0.0999988 -3.2251e-06 0)
(0.0999991 -4.10123e-06 0)
(0.0999994 -5.02938e-06 0)
(0.0999998 -6.1408e-06 0)
(0.1 -7.3242e-06 0)
(0.100001 -8.85443e-06 0)
(0.100002 -1.04163e-05 0)
(0.100002 -1.26033e-05 0)
(0.100003 -1.46221e-05 0)
(0.100004 -1.78012e-05 0)
(0.100005 -2.02368e-05 0)
(0.100007 -2.49948e-05 0)
(0.100008 -2.75668e-05 0)
(0.100011 -3.50059e-05 0)
(0.100012 -3.67478e-05 0)
(0.100015 -4.90264e-05 0)
(0.099999 -3.45898e-07 0)
(0.099999 -1.0527e-06 0)
(0.0999991 -1.77577e-06 0)
(0.0999992 -2.55064e-06 0)
(0.0999993 -3.36377e-06 0)
(0.0999994 -4.28255e-06 0)
(0.0999996 -5.26667e-06 0)
(0.0999999 -6.4544e-06 0)
(0.1 -7.73018e-06 0)
(0.100001 -9.37068e-06 0)
(0.100001 -1.10593e-05 0)
(0.100001 -1.33928e-05 0)
(0.100002 -1.55655e-05 0)
(0.100003 -1.89237e-05 0)
(0.100003 -2.15329e-05 0)
(0.100004 -2.64908e-05 0)
(0.100005 -2.92217e-05 0)
(0.100006 -3.6861e-05 0)
(0.100007 -3.87064e-05 0)
(0.100009 -5.11917e-05 0)
(0.0999997 -3.54381e-07 0)
(0.0999997 -1.07728e-06 0)
(0.0999997 -1.81593e-06 0)
(0.0999997 -2.60965e-06 0)
(0.0999998 -3.44567e-06 0)
(0.0999998 -4.3917e-06 0)
(0.0999999 -5.407e-06 0)
(0.1 -6.62968e-06 0)
(0.1 -7.9433e-06 0)
(0.1 -9.62375e-06 0)
(0.1 -1.13548e-05 0)
(0.1 -1.37279e-05 0)
(0.100001 -1.5943e-05 0)
(0.100001 -1.93384e-05 0)
(0.100001 -2.19893e-05 0)
(0.100001 -2.6974e-05 0)
(0.100002 -2.97421e-05 0)
(0.100002 -3.73863e-05 0)
(0.100002 -3.92597e-05 0)
(0.100003 -5.16873e-05 0)
(0.1 -3.55314e-07 0)
(0.1 -1.07709e-06 0)
(0.1 -1.81622e-06 0)
(0.1 -2.60911e-06 0)
(0.1 -3.44585e-06 0)
(0.1 -4.39104e-06 0)
(0.1 -5.40689e-06 0)
(0.1 -6.6295e-06 0)
(0.0999999 -7.94313e-06 0)
(0.0999998 -9.62477e-06 0)
(0.0999997 -1.13549e-05 0)
(0.0999995 -1.37275e-05 0)
(0.0999993 -1.59432e-05 0)
(0.0999991 -1.9338e-05 0)
(0.0999989 -2.19882e-05 0)
(0.0999986 -2.69731e-05 0)
(0.0999983 -2.9742e-05 0)
(0.0999979 -3.7387e-05 0)
(0.0999977 -3.9261e-05 0)
(0.0999971 -5.16878e-05 0)
(0.100001 -3.4698e-07 0)
(0.100001 -1.05282e-06 0)
(0.100001 -1.77627e-06 0)
(0.100001 -2.55035e-06 0)
(0.100001 -3.36466e-06 0)
(0.100001 -4.2819e-06 0)
(0.1 -5.26634e-06 0)
(0.1 -6.45434e-06 0)
(0.0999998 -7.7295e-06 0)
(0.0999995 -9.3727e-06 0)
(0.0999991 -1.10607e-05 0)
(0.0999986 -1.33923e-05 0)
(0.099998 -1.55651e-05 0)
(0.0999973 -1.89224e-05 0)
(0.0999967 -2.1531e-05 0)
(0.0999957 -2.64881e-05 0)
(0.099995 -2.922e-05 0)
(0.0999936 -3.68595e-05 0)
(0.0999932 -3.8707e-05 0)
(0.0999912 -5.11881e-05 0)
(0.100002 -3.27554e-07 0)
(0.100002 -1.00178e-06 0)
(0.100002 -1.69566e-06 0)
(0.100001 -2.44357e-06 0)
(0.100001 -3.22627e-06 0)
(0.100001 -4.10232e-06 0)
(0.100001 -5.02839e-06 0)
(0.1 -6.14131e-06 0)
(0.0999997 -7.32328e-06 0)
(0.0999991 -8.85499e-06 0)
(0.0999985 -1.04195e-05 0)
(0.0999976 -1.26054e-05 0)
(0.0999968 -1.46226e-05 0)
(0.0999956 -1.78015e-05 0)
(0.0999945 -2.02382e-05 0)
(0.0999929 -2.49951e-05 0)
(0.0999917 -2.7567e-05 0)
(0.0999894 -3.50065e-05 0)
(0.0999885 -3.67508e-05 0)
(0.0999853 -4.90271e-05 0)
(0.100002 -2.95978e-07 0)
(0.100002 -9.10323e-07 0)
(0.100002 -1.55231e-06 0)
(0.100002 -2.26575e-06 0)
(0.100002 -3.03681e-06 0)
(0.100001 -3.92945e-06 0)
(0.100001 -4.88913e-06 0)
(0.1 -6.04771e-06 0)
(0.0999998 -7.27624e-06 0)
(0.099999 -8.84617e-06 0)
(0.0999981 -1.04392e-05 0)
(0.0999969 -1.2643e-05 0)
(0.0999958 -1.46574e-05 0)
(0.0999941 -1.78281e-05 0)
(0.0999926 -2.02347e-05 0)
(0.0999903 -2.49756e-05 0)
(0.0999887 -2.7506e-05 0)
(0.0999854 -3.4972e-05 0)
(0.0999843 -3.67099e-05 0)
(0.0999793 -4.91595e-05 0)
(0.100003 -2.62633e-07 0)
(0.100003 -7.76108e-07 0)
(0.100003 -1.25747e-06 0)
(0.100002 -1.73683e-06 0)
(0.100002 -2.21045e-06 0)
(0.100002 -2.75345e-06 0)
(0.100001 -3.32774e-06 0)
(0.1 -4.07175e-06 0)
(0.0999995 -4.86998e-06 0)
(0.0999985 -5.98694e-06 0)
(0.0999974 -7.11217e-06 0)
(0.0999959 -8.82893e-06 0)
(0.0999944 -1.03483e-05 0)
(0.0999923 -1.29952e-05 0)
(0.0999904 -1.48905e-05 0)
(0.0999874 -1.90881e-05 0)
(0.0999853 -2.11378e-05 0)
(0.0999811 -2.80721e-05 0)
(0.0999793 -2.94413e-05 0)
(0.0999733 -4.14482e-05 0)
(0.100004 -2.95087e-07 0)
(0.100004 -9.3636e-07 0)
(0.100004 -1.65081e-06 0)
(0.100003 -2.45956e-06 0)
(0.100003 -3.33188e-06 0)
(0.100003 -4.29491e-06 0)
(0.100002 -5.29954e-06 0)
(0.100001 -6.44939e-06 0)
(0.1 -7.63673e-06 0)
(0.0999991 -9.11016e-06 0)
(0.0999978 -1.05515e-05 0)
(0.099996 -1.25418e-05 0)
(0.0999943 -1.42927e-05 0)
(0.0999916 -1.71258e-05 0)
(0.0999895 -1.91612e-05 0)
(0.0999856 -2.34722e-05 0)
(0.0999833 -2.56045e-05 0)
(0.0999776 -3.26646e-05 0)
(0.099976 -3.4141e-05 0)
(0.0999673 -4.63902e-05 0)
(0.100004 -2.27581e-08 0)
(0.100004 -2.19312e-08 0)
(0.100004 3.62956e-08 0)
(0.100003 1.05152e-07 0)
(0.100003 1.7029e-07 0)
(0.100002 1.7307e-07 0)
(0.100001 1.36321e-07 0)
(0.1 -3.12047e-08 0)
(0.0999994 -2.23454e-07 0)
(0.0999981 -6.92394e-07 0)
(0.0999966 -1.11325e-06 0)
(0.0999946 -2.04975e-06 0)
(0.0999926 -2.73572e-06 0)
(0.0999897 -4.45871e-06 0)
(0.0999871 -5.39104e-06 0)
(0.0999828 -8.53583e-06 0)
(0.0999798 -9.57294e-06 0)
(0.0999734 -1.54791e-05 0)
(0.0999707 -1.60861e-05 0)
(0.0999614 -2.75473e-05 0)
(0.100005 -3.99076e-07 0)
(0.100005 -1.31239e-06 0)
(0.100005 -2.32225e-06 0)
(0.100005 -3.38667e-06 0)
(0.100005 -4.43914e-06 0)
(0.100004 -5.51362e-06 0)
(0.100003 -6.57665e-06 0)
(0.100002 -7.73151e-06 0)
(0.100001 -8.87188e-06 0)
(0.0999996 -1.02387e-05 0)
(0.0999981 -1.152e-05 0)
(0.0999957 -1.32435e-05 0)
(0.0999936 -1.4666e-05 0)
(0.0999901 -1.70273e-05 0)
(0.0999875 -1.85434e-05 0)
(0.0999821 -2.21427e-05 0)
(0.0999791 -2.35881e-05 0)
(0.0999706 -2.9765e-05 0)
(0.0999683 -3.06128e-05 0)
(0.0999544 -4.21837e-05 0)
(0.100006 4.01101e-07 0)
(0.100005 1.21156e-06 0)
(0.100005 2.01961e-06 0)
(0.100004 2.78432e-06 0)
(0.100004 3.51239e-06 0)
(0.100003 4.1551e-06 0)
(0.100002 4.78968e-06 0)
(0.100001 5.29833e-06 0)
(0.1 5.83285e-06 0)
(0.0999984 6.2287e-06 0)
(0.0999967 6.69462e-06 0)
(0.0999943 6.85698e-06 0)
(0.0999921 7.26578e-06 0)
(0.0999885 6.98226e-06 0)
(0.0999856 7.39475e-06 0)
(0.0999799 6.16085e-06 0)
(0.0999764 6.71046e-06 0)
(0.0999674 3.17798e-06 0)
(0.0999642 3.98885e-06 0)
(0.09995 -5.44081e-06 0)
(0.100007 -8.7405e-07 0)
(0.100007 -2.38185e-06 0)
(0.100007 -3.61248e-06 0)
(0.100007 -4.68875e-06 0)
(0.100006 -5.69796e-06 0)
(0.100005 -6.74754e-06 0)
(0.100004 -7.77639e-06 0)
(0.100003 -8.9134e-06 0)
(0.100002 -9.98904e-06 0)
(0.1 -1.11839e-05 0)
(0.0999989 -1.2263e-05 0)
(0.0999962 -1.36209e-05 0)
(0.0999941 -1.46659e-05 0)
(0.0999898 -1.63537e-05 0)
(0.0999874 -1.72387e-05 0)
(0.0999803 -1.96516e-05 0)
(0.0999779 -2.00944e-05 0)
(0.0999653 -2.43141e-05 0)
(0.0999638 -2.39165e-05 0)
(0.0999402 -3.3183e-05 0)
)
;

boundaryField
{
    sides
    {
        type            calculated;
        value           nonuniform List<vector> 
40
(
(0.100007 0 0)
(0.100007 0 0)
(0.100007 0 0)
(0.100007 0 0)
(0.100006 0 0)
(0.100005 0 0)
(0.100004 0 0)
(0.100003 0 0)
(0.100002 0 0)
(0.1 0 0)
(0.0999989 0 0)
(0.0999962 0 0)
(0.0999941 0 0)
(0.0999898 0 0)
(0.0999874 0 0)
(0.0999803 0 0)
(0.0999779 0 0)
(0.0999653 0 0)
(0.0999638 0 0)
(0.0999402 0 0)
(0.0999931 0 0)
(0.099993 0 0)
(0.0999931 0 0)
(0.0999934 0 0)
(0.0999939 0 0)
(0.0999947 0 0)
(0.0999955 0 0)
(0.0999966 0 0)
(0.0999978 0 0)
(0.0999996 0 0)
(0.100001 0 0)
(0.100004 0 0)
(0.100006 0 0)
(0.10001 0 0)
(0.100013 0 0)
(0.10002 0 0)
(0.100022 0 0)
(0.100035 0 0)
(0.100036 0 0)
(0.10006 0 0)
)
;
    }
    inlet
    {
        type            calculated;
        value           nonuniform List<vector> 
20
(
(0.0999931 0 0)
(0.0999943 0 0)
(0.0999948 0 0)
(0.0999956 0 0)
(0.0999963 0 0)
(0.099997 0 0)
(0.0999976 0 0)
(0.0999983 0 0)
(0.099999 0 0)
(0.0999997 0 0)
(0.1 0 0)
(0.100001 0 0)
(0.100002 0 0)
(0.100002 0 0)
(0.100003 0 0)
(0.100004 0 0)
(0.100004 0 0)
(0.100005 0 0)
(0.100006 0 0)
(0.100007 0 0)
)
;
    }
    outlet
    {
        type            calculated;
        value           nonuniform List<vector> 
20
(
(0.100061 -3.31699e-05 0)
(0.10005 -5.45309e-06 0)
(0.100046 -4.21911e-05 0)
(0.100039 -2.75537e-05 0)
(0.100033 -4.64071e-05 0)
(0.100027 -4.14507e-05 0)
(0.100021 -4.91732e-05 0)
(0.100015 -4.90265e-05 0)
(0.100009 -5.11918e-05 0)
(0.100003 -5.16873e-05 0)
(0.099997 -5.16878e-05 0)
(0.0999911 -5.11881e-05 0)
(0.0999852 -4.9027e-05 0)
(0.0999792 -4.91594e-05 0)
(0.0999731 -4.14481e-05 0)
(0.099967 -4.63901e-05 0)
(0.0999611 -2.75472e-05 0)
(0.0999539 -4.21835e-05 0)
(0.0999496 -5.44079e-06 0)
(0.0999394 -3.31827e-05 0)
)
;
    }
    frontAndBack
    {
        type            empty;
    }
}


// ************************************************************************* //
