/*--------------------------------*- C++ -*----------------------------------*\
  =========                 |
  \\      /  F ield         | OpenFOAM: The Open Source CFD Toolbox
   \\    /   O peration     | Website:  https://openfoam.org
    \\  /    A nd           | Version:  7
     \\/     M anipulation  |
\*---------------------------------------------------------------------------*/
FoamFile
{
    version     2.0;
    format      ascii;
    class       volScalarField;
    location    "54";
    object      ddt0(h);
}
// * * * * * * * * * * * * * * * * * * * * * * * * * * * * * * * * * * * * * //

dimensions      [0 1 -1 0 0 0 0];

internalField   nonuniform List<scalar> 
400
(
-1.51777e-09
-2.49598e-09
-2.23147e-09
-4.69086e-09
2.5429e-09
-1.43756e-08
-1.30184e-08
-1.32526e-08
9.2534e-10
-1.56993e-09
-1.37297e-09
6.03473e-10
1.39362e-09
1.44334e-09
1.43492e-09
1.05184e-09
4.58821e-10
2.08003e-10
2.92872e-10
1.65511e-10
-2.19998e-09
-1.94382e-09
-9.06306e-10
-2.99227e-10
-2.64153e-09
1.31513e-08
1.38463e-08
1.08625e-08
1.06164e-09
8.08557e-10
9.36459e-10
1.12008e-09
8.97776e-10
8.43737e-10
8.05887e-10
5.55325e-10
3.0703e-10
2.6064e-10
3.6031e-10
1.99054e-10
-3.29514e-09
-1.61277e-09
-1.55414e-09
1.04898e-09
-3.85628e-09
1.59585e-09
-4.32794e-09
7.91483e-10
-6.87008e-10
2.37052e-10
1.73762e-09
1.06532e-09
3.6445e-10
3.43888e-10
2.12148e-10
5.11711e-11
2.02515e-10
3.62203e-10
4.14299e-10
1.97444e-10
-2.1116e-09
-8.22078e-10
-8.53858e-10
8.05483e-10
-5.78879e-10
-4.39372e-10
7.72368e-10
2.92463e-09
-9.38403e-10
5.30614e-10
1.44158e-09
2.3828e-10
-1.4459e-10
9.12667e-11
-1.6581e-11
-3.47981e-11
3.47176e-10
5.52919e-10
4.58806e-10
1.83082e-10
-1.80021e-09
-1.13016e-09
-6.27297e-10
-9.19448e-10
8.08389e-10
-2.20081e-09
9.95071e-10
-7.06562e-10
-1.14842e-09
1.28276e-09
4.82539e-11
-9.58218e-10
-5.63726e-10
-2.12896e-10
-1.55786e-10
1.13367e-10
5.83631e-10
7.44365e-10
4.82314e-10
1.24096e-10
-8.95161e-10
-8.12261e-10
1.28272e-10
-1.03808e-09
6.48508e-10
-6.38762e-10
1.02693e-09
-9.88104e-10
7.46026e-10
6.50286e-10
-1.0166e-09
-8.15216e-10
-1.7562e-10
-2.36681e-10
-1.15219e-10
3.20313e-10
5.91625e-10
5.36571e-10
2.00816e-10
-1.97543e-11
-3.80564e-10
-6.46691e-10
-6.81677e-11
-2.95149e-10
-5.45447e-10
3.1604e-10
2.31023e-10
-1.67288e-10
4.20509e-10
-8.01153e-10
-9.44237e-10
-9.21141e-12
1.41009e-10
-1.67779e-10
1.07061e-10
5.14278e-10
4.3087e-10
5.04131e-11
-4.26662e-10
-3.42957e-10
-2.62241e-10
2.6545e-12
-3.81169e-10
3.94166e-10
-3.93993e-10
5.66974e-10
-2.46035e-10
1.22355e-10
-3.47915e-10
-9.27285e-10
8.9799e-11
2.5484e-10
-1.70602e-10
-6.41451e-11
3.26844e-10
3.84264e-10
5.77519e-11
-3.98651e-10
-8.64752e-10
-5.46124e-10
-2.04776e-10
3.97146e-10
-7.83856e-11
1.26149e-10
-1.66519e-10
1.62583e-10
-3.22855e-10
6.53761e-11
-4.65295e-10
-2.81947e-10
2.95979e-10
-1.20012e-10
-3.3204e-10
3.43133e-11
1.28052e-10
-1.50843e-10
-3.87032e-10
-4.91802e-10
-5.29215e-10
-2.66609e-10
1.24872e-10
-3.94126e-11
2.19695e-10
-1.71464e-10
7.86111e-11
-3.86299e-10
-4.8693e-11
-2.29449e-10
-8.32728e-12
2.67138e-10
-5.1991e-11
5.61605e-11
6.71627e-11
-2.90509e-10
-5.44754e-10
-5.2161e-10
-4.27173e-10
-2.4358e-10
2.09185e-10
2.47977e-10
1.82072e-10
-3.19192e-10
1.72669e-10
-1.9455e-10
2.99231e-10
-3.92361e-10
1.25248e-10
-1.94462e-10
3.07081e-10
5.77669e-10
-4.28485e-11
2.02145e-10
2.70442e-10
-2.76781e-10
-5.92319e-10
-4.26638e-10
-2.03816e-10
8.64156e-11
7.49485e-10
5.89976e-10
-1.09206e-10
2.83059e-12
-1.10393e-10
8.58196e-11
3.62281e-10
1.63601e-10
-3.86672e-11
1.84578e-10
6.32044e-11
4.08603e-10
3.47674e-10
-4.73377e-11
2.43851e-11
3.60863e-10
3.12156e-10
9.78149e-11
4.2248e-11
1.91679e-10
6.18473e-10
4.48642e-10
5.00463e-12
2.21377e-10
-3.577e-10
6.02925e-10
4.80884e-11
6.05985e-10
-3.45231e-10
3.67236e-10
-1.10027e-10
-2.52242e-10
5.77789e-10
3.13235e-10
4.10856e-11
5.21283e-10
8.04874e-10
5.69754e-10
2.04642e-10
1.77798e-12
4.83608e-12
3.20596e-11
6.37365e-10
2.51853e-10
1.4449e-10
3.61838e-10
-6.07451e-10
5.29545e-10
-2.78598e-10
6.46446e-11
3.40487e-10
-8.78569e-10
-3.52822e-10
4.7451e-10
4.1602e-10
2.89032e-10
4.74078e-10
4.46713e-10
6.18587e-11
-2.3075e-10
-3.67928e-10
-2.03786e-10
1.34827e-09
6.7419e-10
6.31867e-10
-9.13389e-10
-2.00313e-10
-3.48034e-11
2.03753e-10
-6.50656e-10
1.03913e-09
-4.59225e-11
-1.13392e-09
-2.513e-10
2.76416e-10
-3.82631e-11
-6.71922e-11
4.91335e-11
-8.39426e-11
-1.79889e-10
-3.21314e-10
-2.13111e-10
1.97867e-09
1.42632e-09
9.2118e-10
-7.49666e-10
1.49631e-09
-1.26354e-09
2.04104e-09
-1.82739e-09
5.58945e-10
1.39816e-09
-4.39179e-10
-6.82269e-10
-1.36449e-10
-2.70117e-10
-4.62424e-10
-3.13965e-10
-1.28503e-10
-5.50885e-11
-2.19803e-10
-1.74862e-10
1.56948e-09
1.22796e-09
1.59959e-10
6.53417e-10
1.45151e-09
-1.72472e-09
2.29143e-09
1.25387e-09
-2.5598e-09
9.94113e-10
5.14477e-10
-6.35305e-10
-5.52197e-10
-4.63611e-10
-6.50024e-10
-4.88188e-10
-1.21996e-10
-3.67189e-11
-2.26206e-10
-1.69567e-10
1.93882e-09
1.88076e-09
9.30039e-10
3.62533e-09
1.28606e-09
1.09564e-10
1.0208e-09
5.01967e-09
-7.91425e-10
2.3546e-10
1.14269e-09
2.38403e-11
-4.50314e-10
-4.61111e-10
-6.79866e-10
-6.65163e-10
-3.55287e-10
-2.26902e-10
-2.65785e-10
-1.18163e-10
2.25248e-09
1.48348e-09
1.05958e-09
2.39436e-09
-3.79698e-10
2.20678e-09
-2.81023e-09
-2.95317e-08
1.92715e-10
-8.5528e-10
-3.48392e-10
-3.87776e-10
-7.0594e-10
-7.06946e-10
-7.12802e-10
-7.79893e-10
-6.65598e-10
-4.55672e-10
-2.71594e-10
-8.00496e-11
2.75294e-09
2.26358e-09
2.80628e-09
-8.26427e-10
3.42872e-10
2.03662e-09
-1.13338e-09
2.5872e-08
1.38023e-09
-1.79948e-09
-1.44968e-09
-4.6322e-10
-6.75959e-10
-7.51244e-10
-6.18893e-10
-7.80611e-10
-9.21714e-10
-6.81966e-10
-3.03564e-10
-5.57983e-11
)
;

boundaryField
{
    sides
    {
        type            calculated;
        value           nonuniform List<scalar> 
40
(
2.75294e-09
2.26358e-09
2.80628e-09
-8.26427e-10
3.42872e-10
2.03662e-09
-1.13338e-09
2.5872e-08
1.38023e-09
-1.79948e-09
-1.44968e-09
-4.6322e-10
-6.75959e-10
-7.51244e-10
-6.18893e-10
-7.80611e-10
-9.21714e-10
-6.81966e-10
-3.03564e-10
-5.57983e-11
-1.51777e-09
-2.49598e-09
-2.23147e-09
-4.69086e-09
2.5429e-09
-1.43756e-08
-1.30184e-08
-1.32526e-08
9.2534e-10
-1.56993e-09
-1.37297e-09
6.03473e-10
1.39362e-09
1.44334e-09
1.43492e-09
1.05184e-09
4.58821e-10
2.08003e-10
2.92872e-10
1.65511e-10
)
;
    }
    inlet
    {
        type            calculated;
        value           nonuniform List<scalar> 
20
(
-1.51777e-09
-2.19998e-09
-3.29514e-09
-2.1116e-09
-1.80021e-09
-8.95161e-10
-3.80564e-10
-2.62241e-10
-2.04776e-10
1.24872e-10
1.82072e-10
-1.09206e-10
5.00463e-12
6.37365e-10
1.34827e-09
1.97867e-09
1.56948e-09
1.93882e-09
2.25248e-09
2.75294e-09
)
;
    }
    outlet
    {
        type            calculated;
        value           uniform 0;
    }
    frontAndBack
    {
        type            empty;
    }
}


// ************************************************************************* //
