/*--------------------------------*- C++ -*----------------------------------*\
  =========                 |
  \\      /  F ield         | OpenFOAM: The Open Source CFD Toolbox
   \\    /   O peration     | Website:  https://openfoam.org
    \\  /    A nd           | Version:  7
     \\/     M anipulation  |
\*---------------------------------------------------------------------------*/
FoamFile
{
    version     2.0;
    format      ascii;
    class       surfaceScalarField;
    location    "54";
    object      phi;
}
// * * * * * * * * * * * * * * * * * * * * * * * * * * * * * * * * * * * * * //

dimensions      [0 4 -1 0 0 0 0];

internalField   nonuniform List<scalar> 
760
(
4.99999e-06
9.86515e-12
5e-06
-4.52556e-12
5.00001e-06
-1.29818e-11
5.00003e-06
-1.95722e-11
5.00005e-06
-2.64677e-11
5.00009e-06
-3.59164e-11
5.00013e-06
-4.73078e-11
5.00018e-06
-5.64399e-11
5.00024e-06
-6.21476e-11
5.00032e-06
-7.78815e-11
5.00041e-06
-9.03399e-11
5.00053e-06
-1.14732e-10
5.00065e-06
-1.28117e-10
5.00082e-06
-1.69139e-10
5.001e-06
-1.7916e-10
5.00126e-06
-2.5746e-10
5.00151e-06
-2.55797e-10
5.00195e-06
-4.30905e-10
5.00236e-06
-4.12031e-10
-8.90042e-10
5.00002e-06
-1.21253e-11
5.00004e-06
-1.96026e-11
5.00005e-06
-2.99124e-11
5.00008e-06
-4.20318e-11
5.00011e-06
-5.38884e-11
5.00014e-06
-6.75062e-11
5.00018e-06
-8.24273e-11
5.00023e-06
-1.01796e-10
5.00029e-06
-1.22003e-10
5.00036e-06
-1.52658e-10
5.00045e-06
-1.77808e-10
5.00056e-06
-2.23897e-10
5.00068e-06
-2.53e-10
5.00084e-06
-3.26822e-10
5.00102e-06
-3.56157e-10
5.00125e-06
-4.87343e-10
5.0015e-06
-5.08524e-10
5.00184e-06
-7.66372e-10
5.00218e-06
-7.55855e-10
-1.25903e-09
4.99999e-06
-5.20334e-12
5e-06
-2.1214e-11
5e-06
-3.85119e-11
5.00002e-06
-5.67993e-11
5.00004e-06
-7.5477e-11
5.00007e-06
-9.67279e-11
5.00011e-06
-1.19325e-10
5.00016e-06
-1.49051e-10
5.00021e-06
-1.80011e-10
5.00028e-06
-2.22953e-10
5.00037e-06
-2.63455e-10
5.00047e-06
-3.26073e-10
5.00059e-06
-3.75965e-10
5.00074e-06
-4.71524e-10
5.00091e-06
-5.29016e-10
5.00111e-06
-6.88415e-10
5.00135e-06
-7.46543e-10
5.00162e-06
-1.0385e-09
5.00194e-06
-1.0766e-09
-1.68477e-09
5.00001e-06
-1.33923e-11
5.00002e-06
-3.47729e-11
5.00004e-06
-5.59045e-11
5.00006e-06
-7.82111e-11
5.00009e-06
-1.00639e-10
5.00012e-06
-1.2729e-10
5.00015e-06
-1.5556e-10
5.0002e-06
-1.932e-10
5.00025e-06
-2.32938e-10
5.00031e-06
-2.87603e-10
5.00039e-06
-3.3991e-10
5.00048e-06
-4.19025e-10
5.00059e-06
-4.8367e-10
5.00072e-06
-6.01654e-10
5.00087e-06
-6.77011e-10
5.00105e-06
-8.67198e-10
5.00125e-06
-9.45109e-10
5.00148e-06
-1.27661e-09
5.00173e-06
-1.32312e-09
-1.89196e-09
5e-06
-1.24388e-11
5e-06
-3.8118e-11
5.00001e-06
-6.37294e-11
5.00002e-06
-9.08023e-11
5.00004e-06
-1.18561e-10
5.00007e-06
-1.5098e-10
5.0001e-06
-1.86224e-10
5.00013e-06
-2.31314e-10
5.00018e-06
-2.79709e-10
5.00024e-06
-3.44015e-10
5.00031e-06
-4.08355e-10
5.00039e-06
-4.9963e-10
5.00048e-06
-5.7994e-10
5.00059e-06
-7.12967e-10
5.00072e-06
-8.08155e-10
5.00087e-06
-1.01492e-09
5.00104e-06
-1.11441e-09
5.00122e-06
-1.45775e-09
5.00142e-06
-1.52318e-09
-2.15572e-09
5e-06
-1.49093e-11
5.00001e-06
-4.53805e-11
5.00002e-06
-7.51523e-11
5.00004e-06
-1.05961e-10
5.00006e-06
-1.37374e-10
5.00008e-06
-1.73594e-10
5.00011e-06
-2.13578e-10
5.00014e-06
-2.64532e-10
5.00018e-06
-3.19823e-10
5.00023e-06
-3.92883e-10
5.00029e-06
-4.66243e-10
5.00035e-06
-5.68659e-10
5.00043e-06
-6.6002e-10
5.00053e-06
-8.06853e-10
5.00063e-06
-9.14184e-10
5.00076e-06
-1.13705e-09
5.00089e-06
-1.24841e-09
5.00104e-06
-1.61107e-09
5.00121e-06
-1.68557e-09
-2.28507e-09
5e-06
-1.68503e-11
5.00001e-06
-5.01204e-11
5.00001e-06
-8.26133e-11
5.00002e-06
-1.15949e-10
5.00004e-06
-1.50588e-10
5.00005e-06
-1.90473e-10
5.00008e-06
-2.34739e-10
5.0001e-06
-2.90424e-10
5.00013e-06
-3.51456e-10
5.00017e-06
-4.30755e-10
5.00022e-06
-5.11474e-10
5.00027e-06
-6.21925e-10
5.00033e-06
-7.22803e-10
5.0004e-06
-8.79212e-10
5.00049e-06
-9.97585e-10
5.00058e-06
-1.23061e-09
5.00069e-06
-1.35285e-09
5.0008e-06
-1.72171e-09
5.00091e-06
-1.79992e-09
-2.43303e-09
5e-06
-1.80463e-11
5e-06
-5.34165e-11
5.00001e-06
-8.79436e-11
5.00002e-06
-1.23693e-10
5.00003e-06
-1.60711e-10
5.00004e-06
-2.03261e-10
5.00006e-06
-2.50433e-10
5.00008e-06
-3.09609e-10
5.0001e-06
-3.74758e-10
5.00013e-06
-4.58822e-10
5.00016e-06
-5.44935e-10
5.0002e-06
-6.61533e-10
5.00025e-06
-7.68778e-10
5.0003e-06
-9.32189e-10
5.00036e-06
-1.05732e-09
5.00043e-06
-1.29756e-09
5.0005e-06
-1.42561e-09
5.00058e-06
-1.80182e-09
5.00067e-06
-1.88688e-09
-2.50628e-09
5e-06
-1.87626e-11
5e-06
-5.5515e-11
5.00001e-06
-9.12826e-11
5.00001e-06
-1.28478e-10
5.00002e-06
-1.66929e-10
5.00002e-06
-2.11085e-10
5.00003e-06
-2.60004e-10
5.00005e-06
-3.21317e-10
5.00006e-06
-3.88926e-10
5.00008e-06
-4.75795e-10
5.0001e-06
-5.65124e-10
5.00012e-06
-6.85202e-10
5.00015e-06
-7.96133e-10
5.00018e-06
-9.63522e-10
5.00022e-06
-1.09277e-09
5.00026e-06
-1.33721e-09
5.0003e-06
-1.46918e-09
5.00035e-06
-1.84876e-09
5.00039e-06
-1.93396e-09
-2.562e-09
5e-06
-1.90163e-11
5e-06
-5.62127e-11
5e-06
-9.24296e-11
5e-06
-1.30072e-10
5.00001e-06
-1.6906e-10
5.00001e-06
-2.13745e-10
5.00001e-06
-2.63261e-10
5.00002e-06
-3.25245e-10
5.00002e-06
-3.93611e-10
5.00003e-06
-4.81401e-10
5.00003e-06
-5.71777e-10
5.00004e-06
-6.93026e-10
5.00005e-06
-8.05356e-10
5.00006e-06
-9.74126e-10
5.00007e-06
-1.10486e-09
5.00009e-06
-1.35053e-09
5.0001e-06
-1.48366e-09
5.00012e-06
-1.86384e-09
5.00013e-06
-1.95063e-09
-2.57802e-09
5e-06
-1.87662e-11
5e-06
-5.54784e-11
5e-06
-9.13099e-11
5e-06
-1.2847e-10
4.99999e-06
-1.66991e-10
4.99999e-06
-2.11082e-10
4.99999e-06
-2.60013e-10
4.99998e-06
-3.21336e-10
4.99998e-06
-3.88939e-10
4.99997e-06
-4.75918e-10
4.99997e-06
-5.65221e-10
4.99996e-06
-6.85251e-10
4.99995e-06
-7.96201e-10
4.99994e-06
-9.63514e-10
4.99993e-06
-1.09267e-09
4.99991e-06
-1.33703e-09
4.9999e-06
-1.46898e-09
4.99988e-06
-1.84859e-09
4.99987e-06
-1.93393e-09
-2.56191e-09
5e-06
-1.80335e-11
5e-06
-5.34383e-11
4.99999e-06
-8.79428e-11
4.99999e-06
-1.23729e-10
4.99998e-06
-1.60767e-10
4.99998e-06
-2.03282e-10
4.99997e-06
-2.50394e-10
4.99995e-06
-3.09612e-10
4.99994e-06
-3.74726e-10
4.99992e-06
-4.58888e-10
4.9999e-06
-5.45081e-10
4.99988e-06
-6.61614e-10
4.99985e-06
-7.68786e-10
4.99982e-06
-9.32126e-10
4.99978e-06
-1.05725e-09
4.99974e-06
-1.29739e-09
4.9997e-06
-1.42538e-09
4.99965e-06
-1.80155e-09
4.99961e-06
-1.88677e-09
-2.50612e-09
5e-06
-1.68512e-11
5e-06
-5.01393e-11
4.99999e-06
-8.26061e-11
4.99998e-06
-1.16057e-10
4.99997e-06
-1.50568e-10
4.99996e-06
-1.90511e-10
4.99994e-06
-2.34644e-10
4.99992e-06
-2.90378e-10
4.9999e-06
-3.51373e-10
4.99987e-06
-4.30603e-10
4.99984e-06
-5.11502e-10
4.9998e-06
-6.22027e-10
4.99975e-06
-7.22825e-10
4.9997e-06
-8.79155e-10
4.99964e-06
-9.97586e-10
4.99957e-06
-1.23054e-09
4.9995e-06
-1.35276e-09
4.99942e-06
-1.72146e-09
4.99933e-06
-1.79974e-09
-2.43268e-09
5e-06
-1.49206e-11
4.99999e-06
-4.53759e-11
4.99999e-06
-7.51974e-11
4.99998e-06
-1.0594e-10
4.99996e-06
-1.37282e-10
4.99995e-06
-1.73661e-10
4.99992e-06
-2.13541e-10
4.9999e-06
-2.64479e-10
4.99987e-06
-3.1985e-10
4.99983e-06
-3.9267e-10
4.99978e-06
-4.66037e-10
4.99973e-06
-5.68624e-10
4.99967e-06
-6.60064e-10
4.9996e-06
-8.06854e-10
4.99951e-06
-9.14228e-10
4.99942e-06
-1.13703e-09
4.99931e-06
-1.24842e-09
4.9992e-06
-1.61084e-09
4.99909e-06
-1.6853e-09
-2.28463e-09
5e-06
-1.24723e-11
4.99999e-06
-3.81269e-11
4.99998e-06
-6.37452e-11
4.99996e-06
-9.06214e-11
4.99994e-06
-1.18619e-10
4.99992e-06
-1.50926e-10
4.99989e-06
-1.86304e-10
4.99986e-06
-2.31129e-10
4.99982e-06
-2.79803e-10
4.99977e-06
-3.44028e-10
4.99971e-06
-4.08147e-10
4.99965e-06
-4.99446e-10
4.99957e-06
-5.79928e-10
4.99947e-06
-7.12972e-10
4.99937e-06
-8.08202e-10
4.99924e-06
-1.01489e-09
4.99911e-06
-1.11446e-09
4.99896e-06
-1.45756e-09
4.99879e-06
-1.52298e-09
-2.15524e-09
5e-06
-1.34194e-11
5e-06
-3.47979e-11
4.99999e-06
-5.58546e-11
4.99998e-06
-7.80864e-11
4.99996e-06
-1.00777e-10
4.99993e-06
-1.27071e-10
4.9999e-06
-1.55904e-10
4.99987e-06
-1.9316e-10
4.99982e-06
-2.32853e-10
4.99976e-06
-2.87752e-10
4.99969e-06
-3.39872e-10
4.99961e-06
-4.18798e-10
4.99952e-06
-4.83531e-10
4.99941e-06
-6.01537e-10
4.99928e-06
-6.76963e-10
4.99913e-06
-8.67054e-10
4.99896e-06
-9.45084e-10
4.99878e-06
-1.2764e-09
4.99858e-06
-1.32295e-09
-1.89145e-09
4.99999e-06
-5.19305e-12
4.99998e-06
-2.12211e-11
4.99996e-06
-3.84747e-11
4.99994e-06
-5.69368e-11
4.99991e-06
-7.55304e-11
4.99988e-06
-9.6778e-11
4.99985e-06
-1.199e-10
4.9998e-06
-1.49601e-10
4.99975e-06
-1.80082e-10
4.99969e-06
-2.23101e-10
4.99961e-06
-2.63616e-10
4.99952e-06
-3.26023e-10
4.99941e-06
-3.75875e-10
4.99928e-06
-4.71399e-10
4.99913e-06
-5.28971e-10
4.99895e-06
-6.88275e-10
4.99876e-06
-7.46542e-10
4.99852e-06
-1.03834e-09
4.99827e-06
-1.07657e-09
-1.68442e-09
5.00001e-06
-1.20342e-11
5e-06
-1.95856e-11
5e-06
-2.99694e-11
4.99998e-06
-4.23819e-11
4.99996e-06
-5.37493e-11
4.99993e-06
-6.77648e-11
4.99989e-06
-8.17929e-11
4.99984e-06
-1.01891e-10
4.99979e-06
-1.22125e-10
4.99972e-06
-1.52688e-10
4.99963e-06
-1.78013e-10
4.99953e-06
-2.2401e-10
4.99941e-06
-2.53028e-10
4.99926e-06
-3.26709e-10
4.99909e-06
-3.56105e-10
4.99889e-06
-4.87146e-10
4.99865e-06
-5.08492e-10
4.99838e-06
-7.66121e-10
4.99806e-06
-7.55787e-10
-1.25858e-09
4.99998e-06
9.95528e-12
4.99996e-06
-4.54869e-12
4.99995e-06
-1.32122e-11
4.99992e-06
-1.97219e-11
4.99989e-06
-2.60626e-11
4.99986e-06
-3.41563e-11
4.99982e-06
-3.39737e-11
4.99977e-06
-6.02935e-11
4.99971e-06
-6.2329e-11
4.99964e-06
-7.79817e-11
4.99955e-06
-9.06672e-11
4.99944e-06
-1.15059e-10
4.99932e-06
-1.28328e-10
4.99916e-06
-1.69209e-10
4.99898e-06
-1.79215e-10
4.99875e-06
-2.5744e-10
4.9985e-06
-2.55851e-10
4.99817e-06
-4.30894e-10
4.99782e-06
-4.12108e-10
-8.90056e-10
5.00001e-06
5e-06
4.99999e-06
4.99997e-06
4.99994e-06
4.99991e-06
4.99987e-06
4.99982e-06
4.99976e-06
4.99968e-06
4.99959e-06
4.99947e-06
4.99934e-06
4.99918e-06
4.999e-06
4.99874e-06
4.99848e-06
4.99805e-06
4.99764e-06
)
;

boundaryField
{
    sides
    {
        type            calculated;
        value           uniform 0;
    }
    inlet
    {
        type            calculated;
        value           nonuniform List<scalar> 
20
(
-5e-06
-5e-06
-5e-06
-5e-06
-5e-06
-5e-06
-5e-06
-5e-06
-5e-06
-5e-06
-5e-06
-5e-06
-5e-06
-5e-06
-5e-06
-5e-06
-5e-06
-5e-06
-5e-06
-5e-06
)
;
    }
    outlet
    {
        type            calculated;
        value           nonuniform List<scalar> 
20
(
5.00325e-06
5.00255e-06
5.00237e-06
5.00194e-06
5.00169e-06
5.00134e-06
5.00106e-06
5.00074e-06
5.00045e-06
5.00015e-06
4.99985e-06
4.99955e-06
4.99926e-06
4.99894e-06
4.99867e-06
4.99831e-06
4.99806e-06
4.99763e-06
4.99745e-06
4.99675e-06
)
;
    }
    frontAndBack
    {
        type            empty;
        value           nonuniform 0();
    }
}


// ************************************************************************* //
