/*--------------------------------*- C++ -*----------------------------------*\
  =========                 |
  \\      /  F ield         | OpenFOAM: The Open Source CFD Toolbox
   \\    /   O peration     | Website:  https://openfoam.org
    \\  /    A nd           | Version:  7
     \\/     M anipulation  |
\*---------------------------------------------------------------------------*/
FoamFile
{
    version     2.0;
    format      ascii;
    class       surfaceScalarField;
    location    "54";
    object      phi_0;
}
// * * * * * * * * * * * * * * * * * * * * * * * * * * * * * * * * * * * * * //

dimensions      [0 4 -1 0 0 0 0];

internalField   nonuniform List<scalar> 
760
(
4.99999e-06
9.80014e-12
5e-06
-4.47007e-12
5.00001e-06
-1.27974e-11
5.00003e-06
-1.91564e-11
5.00006e-06
-2.62834e-11
5.00009e-06
-3.0121e-11
5.00013e-06
-3.61e-11
5.00018e-06
-5.08586e-11
5.00024e-06
-6.18708e-11
5.00032e-06
-7.77516e-11
5.00041e-06
-9.02893e-11
5.00053e-06
-1.14778e-10
5.00066e-06
-1.28156e-10
5.00082e-06
-1.69097e-10
5.001e-06
-1.79058e-10
5.00126e-06
-2.57275e-10
5.00152e-06
-2.55607e-10
5.00195e-06
-4.3073e-10
5.00236e-06
-4.11941e-10
-8.90144e-10
5.00002e-06
-1.21677e-11
5.00004e-06
-1.94474e-11
5.00006e-06
-2.96413e-11
5.00008e-06
-4.15671e-11
5.00011e-06
-5.33008e-11
5.00014e-06
-6.72752e-11
5.00018e-06
-8.14383e-11
5.00023e-06
-1.02194e-10
5.00029e-06
-1.21987e-10
5.00036e-06
-1.52662e-10
5.00045e-06
-1.77874e-10
5.00056e-06
-2.23992e-10
5.00069e-06
-2.53004e-10
5.00084e-06
-3.26679e-10
5.00102e-06
-3.55923e-10
5.00125e-06
-4.86975e-10
5.0015e-06
-5.08155e-10
5.00184e-06
-7.66048e-10
5.00218e-06
-7.55673e-10
-1.2592e-09
4.99999e-06
-5.0541e-12
5e-06
-2.10026e-11
5e-06
-3.81569e-11
5.00002e-06
-5.63595e-11
5.00004e-06
-7.47728e-11
5.00007e-06
-9.63298e-11
5.00011e-06
-1.18774e-10
5.00015e-06
-1.48747e-10
5.00021e-06
-1.80067e-10
5.00028e-06
-2.23068e-10
5.00037e-06
-2.63658e-10
5.00047e-06
-3.26197e-10
5.00059e-06
-3.75904e-10
5.00074e-06
-4.71252e-10
5.00091e-06
-5.28614e-10
5.00111e-06
-6.87804e-10
5.00135e-06
-7.45975e-10
5.00162e-06
-1.03801e-09
5.00194e-06
-1.07635e-09
-1.68509e-09
5.00001e-06
-1.3215e-11
5.00002e-06
-3.45002e-11
5.00004e-06
-5.54388e-11
5.00006e-06
-7.76414e-11
5.00009e-06
-9.98602e-11
5.00012e-06
-1.26531e-10
5.00015e-06
-1.55141e-10
5.0002e-06
-1.93212e-10
5.00025e-06
-2.32907e-10
5.00031e-06
-2.87821e-10
5.00039e-06
-3.40219e-10
5.00048e-06
-4.19136e-10
5.00059e-06
-4.83556e-10
5.00072e-06
-6.01302e-10
5.00087e-06
-6.76488e-10
5.00105e-06
-8.66419e-10
5.00125e-06
-9.44398e-10
5.00148e-06
-1.276e-09
5.00173e-06
-1.32276e-09
-1.89231e-09
5e-06
-1.22866e-11
5e-06
-3.78009e-11
5.00001e-06
-6.31934e-11
5.00002e-06
-9.00473e-11
5.00004e-06
-1.1779e-10
5.00007e-06
-1.50059e-10
5.0001e-06
-1.85709e-10
5.00013e-06
-2.30987e-10
5.00018e-06
-2.7966e-10
5.00024e-06
-3.44311e-10
5.00031e-06
-4.08592e-10
5.00039e-06
-4.99658e-10
5.00048e-06
-5.79795e-10
5.00059e-06
-7.12582e-10
5.00072e-06
-8.07582e-10
5.00087e-06
-1.01407e-09
5.00104e-06
-1.11364e-09
5.00122e-06
-1.45703e-09
5.00142e-06
-1.52271e-09
-2.15612e-09
5e-06
-1.48409e-11
5.00001e-06
-4.50584e-11
5.00002e-06
-7.45602e-11
5.00004e-06
-1.05009e-10
5.00006e-06
-1.36379e-10
5.00008e-06
-1.72629e-10
5.0001e-06
-2.12965e-10
5.00014e-06
-2.6421e-10
5.00018e-06
-3.19961e-10
5.00023e-06
-3.9321e-10
5.00029e-06
-4.6646e-10
5.00035e-06
-5.68745e-10
5.00043e-06
-6.59915e-10
5.00053e-06
-8.06415e-10
5.00063e-06
-9.13517e-10
5.00076e-06
-1.13605e-09
5.00089e-06
-1.2475e-09
5.00104e-06
-1.61021e-09
5.00121e-06
-1.68501e-09
-2.28554e-09
5e-06
-1.68217e-11
5.00001e-06
-4.97664e-11
5.00001e-06
-8.19452e-11
5.00002e-06
-1.14996e-10
5.00004e-06
-1.4947e-10
5.00005e-06
-1.89492e-10
5.00008e-06
-2.34053e-10
5.0001e-06
-2.9013e-10
5.00013e-06
-3.5157e-10
5.00017e-06
-4.31009e-10
5.00022e-06
-5.11744e-10
5.00027e-06
-6.22138e-10
5.00033e-06
-7.22762e-10
5.00041e-06
-8.78769e-10
5.00049e-06
-9.9692e-10
5.00058e-06
-1.22959e-09
5.00069e-06
-1.35188e-09
5.0008e-06
-1.72076e-09
5.00091e-06
-1.79928e-09
-2.43352e-09
5e-06
-1.80002e-11
5e-06
-5.30604e-11
5.00001e-06
-8.72219e-11
5.00002e-06
-1.22737e-10
5.00003e-06
-1.59596e-10
5.00004e-06
-2.02277e-10
5.00006e-06
-2.4973e-10
5.00008e-06
-3.09375e-10
5.0001e-06
-3.74894e-10
5.00013e-06
-4.59188e-10
5.00016e-06
-5.45387e-10
5.0002e-06
-6.61846e-10
5.00025e-06
-7.68766e-10
5.0003e-06
-9.31747e-10
5.00036e-06
-1.05663e-09
5.00043e-06
-1.29644e-09
5.0005e-06
-1.42448e-09
5.00058e-06
-1.80074e-09
5.00067e-06
-1.8862e-09
-2.50683e-09
5e-06
-1.86871e-11
5e-06
-5.51449e-11
5.00001e-06
-9.05705e-11
5.00001e-06
-1.27508e-10
5.00002e-06
-1.65843e-10
5.00002e-06
-2.1011e-10
5.00003e-06
-2.59324e-10
5.00005e-06
-3.21122e-10
5.00006e-06
-3.89078e-10
5.00008e-06
-4.76237e-10
5.0001e-06
-5.65621e-10
5.00012e-06
-6.8549e-10
5.00015e-06
-7.9612e-10
5.00018e-06
-9.63097e-10
5.00022e-06
-1.09205e-09
5.00026e-06
-1.33602e-09
5.0003e-06
-1.468e-09
5.00035e-06
-1.84766e-09
5.00039e-06
-1.93329e-09
-2.56257e-09
5e-06
-1.89531e-11
5e-06
-5.58388e-11
5e-06
-9.17199e-11
5e-06
-1.29092e-10
5.00001e-06
-1.67953e-10
5.00001e-06
-2.12738e-10
5.00001e-06
-2.62577e-10
5.00002e-06
-3.25025e-10
5.00002e-06
-3.93775e-10
5.00003e-06
-4.8183e-10
5.00003e-06
-5.72239e-10
5.00004e-06
-6.9331e-10
5.00005e-06
-8.05329e-10
5.00006e-06
-9.73654e-10
5.00007e-06
-1.10408e-09
5.00009e-06
-1.34929e-09
5.0001e-06
-1.48247e-09
5.00012e-06
-1.86275e-09
5.00013e-06
-1.94998e-09
-2.57862e-09
5e-06
-1.87363e-11
5e-06
-5.51184e-11
5e-06
-9.05948e-11
5e-06
-1.27465e-10
4.99999e-06
-1.65831e-10
4.99999e-06
-2.10029e-10
4.99999e-06
-2.59325e-10
4.99998e-06
-3.21095e-10
4.99998e-06
-3.89138e-10
4.99997e-06
-4.76321e-10
4.99997e-06
-5.65621e-10
4.99996e-06
-6.8551e-10
4.99995e-06
-7.96122e-10
4.99994e-06
-9.62961e-10
4.99993e-06
-1.09185e-09
4.99991e-06
-1.33583e-09
4.9999e-06
-1.46789e-09
4.99988e-06
-1.8476e-09
4.99987e-06
-1.93332e-09
-2.5625e-09
5e-06
-1.80038e-11
5e-06
-5.30814e-11
4.99999e-06
-8.72579e-11
4.99999e-06
-1.22717e-10
4.99998e-06
-1.59631e-10
4.99998e-06
-2.02228e-10
4.99997e-06
-2.49724e-10
4.99995e-06
-3.09366e-10
4.99994e-06
-3.74922e-10
4.99992e-06
-4.59306e-10
4.9999e-06
-5.4545e-10
4.99988e-06
-6.6183e-10
4.99985e-06
-7.68734e-10
4.99982e-06
-9.31646e-10
4.99978e-06
-1.05646e-09
4.99974e-06
-1.29621e-09
4.9997e-06
-1.42432e-09
4.99965e-06
-1.80059e-09
4.99961e-06
-1.88616e-09
-2.50669e-09
5e-06
-1.67765e-11
5e-06
-4.97905e-11
4.99999e-06
-8.19304e-11
4.99998e-06
-1.15103e-10
4.99997e-06
-1.49557e-10
4.99996e-06
-1.89541e-10
4.99994e-06
-2.34018e-10
4.99992e-06
-2.90152e-10
4.9999e-06
-3.51503e-10
4.99987e-06
-4.31036e-10
4.99984e-06
-5.11901e-10
4.9998e-06
-6.22202e-10
4.99975e-06
-7.22768e-10
4.9997e-06
-8.78765e-10
4.99964e-06
-9.96918e-10
4.99957e-06
-1.22947e-09
4.9995e-06
-1.35176e-09
4.99942e-06
-1.72053e-09
4.99933e-06
-1.79913e-09
-2.43318e-09
5e-06
-1.48123e-11
4.99999e-06
-4.50316e-11
4.99999e-06
-7.45486e-11
4.99998e-06
-1.05131e-10
4.99996e-06
-1.36313e-10
4.99995e-06
-1.72734e-10
4.99992e-06
-2.12891e-10
4.9999e-06
-2.64255e-10
4.99987e-06
-3.19878e-10
4.99983e-06
-3.93013e-10
4.99978e-06
-4.66475e-10
4.99973e-06
-5.68846e-10
4.99967e-06
-6.59999e-10
4.9996e-06
-8.06462e-10
4.99951e-06
-9.13598e-10
4.99942e-06
-1.13601e-09
4.99931e-06
-1.24741e-09
4.9992e-06
-1.60991e-09
4.99909e-06
-1.68474e-09
-2.28511e-09
5e-06
-1.23292e-11
4.99999e-06
-3.77882e-11
4.99998e-06
-6.32099e-11
4.99996e-06
-8.9955e-11
4.99994e-06
-1.17684e-10
4.99992e-06
-1.50205e-10
4.99989e-06
-1.85618e-10
4.99986e-06
-2.3095e-10
4.99982e-06
-2.79757e-10
4.99977e-06
-3.44118e-10
4.99971e-06
-4.08393e-10
4.99965e-06
-4.99621e-10
4.99957e-06
-5.79859e-10
4.99947e-06
-7.12608e-10
4.99937e-06
-8.07675e-10
4.99924e-06
-1.01405e-09
4.99911e-06
-1.11361e-09
4.99896e-06
-1.45676e-09
4.99879e-06
-1.52249e-09
-2.15566e-09
5e-06
-1.33027e-11
5e-06
-3.45254e-11
4.99999e-06
-5.54359e-11
4.99998e-06
-7.73986e-11
4.99996e-06
-9.99013e-11
4.99993e-06
-1.26436e-10
4.9999e-06
-1.55164e-10
4.99987e-06
-1.92832e-10
4.99982e-06
-2.32977e-10
4.99976e-06
-2.87817e-10
4.99969e-06
-3.39977e-10
4.99961e-06
-4.18906e-10
4.99952e-06
-4.83465e-10
4.99941e-06
-6.012e-10
4.99928e-06
-6.76484e-10
4.99913e-06
-8.66335e-10
4.99896e-06
-9.44379e-10
4.99878e-06
-1.27575e-09
4.99858e-06
-1.32256e-09
-1.89179e-09
4.99999e-06
-5.09159e-12
4.99998e-06
-2.10317e-11
4.99996e-06
-3.81343e-11
4.99994e-06
-5.63009e-11
4.99991e-06
-7.49476e-11
4.99988e-06
-9.61564e-11
4.99985e-06
-1.19442e-10
4.9998e-06
-1.48912e-10
4.99975e-06
-1.80013e-10
4.99969e-06
-2.23213e-10
4.99961e-06
-2.63643e-10
4.99952e-06
-3.26027e-10
4.99941e-06
-3.75794e-10
4.99928e-06
-4.7113e-10
4.99913e-06
-5.28593e-10
4.99895e-06
-6.87728e-10
4.99875e-06
-7.46037e-10
4.99852e-06
-1.03786e-09
4.99827e-06
-1.07629e-09
-1.68471e-09
5.00001e-06
-1.20292e-11
5e-06
-1.94671e-11
5e-06
-2.96671e-11
4.99998e-06
-4.18688e-11
4.99996e-06
-5.34557e-11
4.99993e-06
-6.70925e-11
4.99989e-06
-8.24293e-11
4.99984e-06
-1.02685e-10
4.99979e-06
-1.22053e-10
4.99972e-06
-1.52819e-10
4.99963e-06
-1.78081e-10
4.99953e-06
-2.23995e-10
4.99941e-06
-2.52954e-10
4.99926e-06
-3.26527e-10
4.99909e-06
-3.55848e-10
4.99889e-06
-4.86798e-10
4.99865e-06
-5.08186e-10
4.99838e-06
-7.65837e-10
4.99806e-06
-7.55594e-10
-1.25874e-09
4.99998e-06
9.95048e-12
4.99996e-06
-4.47989e-12
4.99995e-06
-1.29948e-11
4.99992e-06
-1.95567e-11
4.99989e-06
-2.59521e-11
4.99986e-06
-3.35043e-11
4.99982e-06
-4.18676e-11
4.99977e-06
-4.54446e-11
4.99971e-06
-6.18615e-11
4.99964e-06
-7.80829e-11
4.99955e-06
-9.07074e-11
4.99944e-06
-1.15024e-10
4.99932e-06
-1.28264e-10
4.99916e-06
-1.691e-10
4.99898e-06
-1.79069e-10
4.99875e-06
-2.57249e-10
4.9985e-06
-2.557e-10
4.99817e-06
-4.30759e-10
4.99782e-06
-4.12024e-10
-8.90154e-10
5.00001e-06
5e-06
4.99999e-06
4.99997e-06
4.99995e-06
4.99991e-06
4.99987e-06
4.99982e-06
4.99976e-06
4.99968e-06
4.99959e-06
4.99947e-06
4.99934e-06
4.99918e-06
4.999e-06
4.99874e-06
4.99848e-06
4.99805e-06
4.99764e-06
)
;

boundaryField
{
    sides
    {
        type            calculated;
        value           uniform 0;
    }
    inlet
    {
        type            calculated;
        value           nonuniform List<scalar> 
20
(
-5e-06
-5e-06
-5e-06
-5e-06
-5e-06
-5e-06
-5e-06
-5e-06
-5e-06
-5e-06
-5e-06
-5e-06
-5e-06
-5e-06
-5e-06
-5e-06
-5e-06
-5e-06
-5e-06
-5e-06
)
;
    }
    outlet
    {
        type            calculated;
        value           nonuniform List<scalar> 
20
(
5.00325e-06
5.00255e-06
5.00237e-06
5.00194e-06
5.00169e-06
5.00134e-06
5.00106e-06
5.00074e-06
5.00045e-06
5.00015e-06
4.99985e-06
4.99955e-06
4.99926e-06
4.99894e-06
4.99867e-06
4.99831e-06
4.99806e-06
4.99763e-06
4.99745e-06
4.99675e-06
)
;
    }
    frontAndBack
    {
        type            empty;
        value           nonuniform 0();
    }
}


// ************************************************************************* //
