/*--------------------------------*- C++ -*----------------------------------*\
  =========                 |
  \\      /  F ield         | OpenFOAM: The Open Source CFD Toolbox
   \\    /   O peration     | Website:  https://openfoam.org
    \\  /    A nd           | Version:  7
     \\/     M anipulation  |
\*---------------------------------------------------------------------------*/
FoamFile
{
    version     2.0;
    format      ascii;
    class       volVectorField;
    location    "54";
    object      U;
}
// * * * * * * * * * * * * * * * * * * * * * * * * * * * * * * * * * * * * * //

dimensions      [0 1 -1 0 0 0 0];

internalField   nonuniform List<vector> 
400
(
(0.0999931 -8.75182e-07 0)
(0.0999931 -2.37809e-06 0)
(0.0999932 -3.59512e-06 0)
(0.0999935 -4.65265e-06 0)
(0.099994 -5.65528e-06 0)
(0.0999947 -6.68821e-06 0)
(0.0999955 -7.75134e-06 0)
(0.0999967 -8.86301e-06 0)
(0.0999978 -9.95088e-06 0)
(0.0999995 -1.11736e-05 0)
(0.100001 -1.22726e-05 0)
(0.100004 -1.36436e-05 0)
(0.100006 -1.4694e-05 0)
(0.10001 -1.63726e-05 0)
(0.100013 -1.72433e-05 0)
(0.10002 -1.96328e-05 0)
(0.100022 -2.0052e-05 0)
(0.100035 -2.42631e-05 0)
(0.100036 -2.38482e-05 0)
(0.10006 -3.31486e-05 0)
(0.0999943 3.95244e-07 0)
(0.0999948 1.20604e-06 0)
(0.0999953 2.0147e-06 0)
(0.0999959 2.77683e-06 0)
(0.0999964 3.49028e-06 0)
(0.099997 4.14985e-06 0)
(0.0999978 4.75268e-06 0)
(0.0999989 5.29934e-06 0)
(0.1 5.84012e-06 0)
(0.100002 6.23025e-06 0)
(0.100003 6.69387e-06 0)
(0.100006 6.84778e-06 0)
(0.100008 7.24876e-06 0)
(0.100012 6.96264e-06 0)
(0.100014 7.37832e-06 0)
(0.10002 6.14609e-06 0)
(0.100024 6.71012e-06 0)
(0.100033 3.17728e-06 0)
(0.100036 4.01224e-06 0)
(0.10005 -5.42802e-06 0)
(0.0999948 -4.03655e-07 0)
(0.0999947 -1.3166e-06 0)
(0.0999948 -2.31991e-06 0)
(0.099995 -3.36449e-06 0)
(0.0999954 -4.39203e-06 0)
(0.099996 -5.44198e-06 0)
(0.0999967 -6.49085e-06 0)
(0.0999977 -7.6626e-06 0)
(0.0999988 -8.83846e-06 0)
(0.1 -1.0239e-05 0)
(0.100002 -1.15508e-05 0)
(0.100004 -1.32964e-05 0)
(0.100006 -1.47283e-05 0)
(0.10001 -1.70775e-05 0)
(0.100013 -1.85723e-05 0)
(0.100018 -2.21395e-05 0)
(0.100021 -2.35376e-05 0)
(0.100029 -2.97035e-05 0)
(0.100032 -3.0497e-05 0)
(0.100046 -4.21323e-05 0)
(0.0999956 -2.77416e-08 0)
(0.0999958 -2.99181e-08 0)
(0.0999962 3.45377e-08 0)
(0.0999967 1.26757e-07 0)
(0.0999972 2.30845e-07 0)
(0.0999979 2.56188e-07 0)
(0.0999986 2.47129e-07 0)
(0.0999995 6.02264e-08 0)
(0.100001 -1.69487e-07 0)
(0.100002 -6.78776e-07 0)
(0.100003 -1.14503e-06 0)
(0.100005 -2.1121e-06 0)
(0.100007 -2.81294e-06 0)
(0.10001 -4.52266e-06 0)
(0.100013 -5.43233e-06 0)
(0.100017 -8.53586e-06 0)
(0.10002 -9.51375e-06 0)
(0.100027 -1.54028e-05 0)
(0.100029 -1.59405e-05 0)
(0.100039 -2.74718e-05 0)
(0.0999963 -3.05323e-07 0)
(0.0999963 -9.54174e-07 0)
(0.0999964 -1.66634e-06 0)
(0.0999967 -2.4621e-06 0)
(0.099997 -3.29969e-06 0)
(0.0999974 -4.23488e-06 0)
(0.099998 -5.21498e-06 0)
(0.0999988 -6.37913e-06 0)
(0.0999997 -7.59114e-06 0)
(0.100001 -9.10427e-06 0)
(0.100002 -1.0593e-05 0)
(0.100004 -1.26135e-05 0)
(0.100006 -1.43782e-05 0)
(0.100008 -1.71975e-05 0)
(0.100011 -1.92082e-05 0)
(0.100014 -2.34787e-05 0)
(0.100017 -2.55467e-05 0)
(0.100022 -3.25926e-05 0)
(0.100024 -3.39905e-05 0)
(0.100033 -4.63143e-05 0)
(0.099997 -2.74657e-07 0)
(0.0999971 -7.92485e-07 0)
(0.0999973 -1.25612e-06 0)
(0.0999976 -1.69716e-06 0)
(0.099998 -2.11657e-06 0)
(0.0999984 -2.61344e-06 0)
(0.099999 -3.17074e-06 0)
(0.0999997 -3.93831e-06 0)
(0.1 -4.78552e-06 0)
(0.100001 -5.97471e-06 0)
(0.100003 -7.16847e-06 0)
(0.100004 -8.92481e-06 0)
(0.100006 -1.04634e-05 0)
(0.100008 -1.30869e-05 0)
(0.10001 -1.4946e-05 0)
(0.100013 -1.90783e-05 0)
(0.100015 -2.10418e-05 0)
(0.100019 -2.79489e-05 0)
(0.100021 -2.92181e-05 0)
(0.100027 -4.1333e-05 0)
(0.0999976 -3.11104e-07 0)
(0.0999977 -9.36219e-07 0)
(0.0999979 -1.57032e-06 0)
(0.0999981 -2.25551e-06 0)
(0.0999983 -2.9841e-06 0)
(0.0999987 -3.82896e-06 0)
(0.0999991 -4.76592e-06 0)
(0.0999996 -5.93207e-06 0)
(0.1 -7.19936e-06 0)
(0.100001 -8.82926e-06 0)
(0.100002 -1.04802e-05 0)
(0.100003 -1.27235e-05 0)
(0.100004 -1.47637e-05 0)
(0.100006 -1.79193e-05 0)
(0.100007 -2.02959e-05 0)
(0.10001 -2.49815e-05 0)
(0.100011 -2.74279e-05 0)
(0.100015 -3.48701e-05 0)
(0.100016 -3.64988e-05 0)
(0.100021 -4.90457e-05 0)
(0.0999983 -3.44532e-07 0)
(0.0999984 -1.03172e-06 0)
(0.0999985 -1.71225e-06 0)
(0.0999986 -2.41875e-06 0)
(0.0999988 -3.14336e-06 0)
(0.0999991 -3.96475e-06 0)
(0.0999994 -4.86699e-06 0)
(0.0999998 -5.99693e-06 0)
(0.1 -7.23537e-06 0)
(0.100001 -8.84148e-06 0)
(0.100001 -1.04788e-05 0)
(0.100002 -1.27125e-05 0)
(0.100003 -1.47548e-05 0)
(0.100004 -1.79066e-05 0)
(0.100006 -2.03007e-05 0)
(0.100007 -2.49837e-05 0)
(0.100008 -2.74577e-05 0)
(0.100011 -3.48656e-05 0)
(0.100012 -3.64915e-05 0)
(0.100015 -4.88875e-05 0)
(0.099999 -3.64826e-07 0)
(0.099999 -1.08553e-06 0)
(0.0999991 -1.79216e-06 0)
(0.0999992 -2.52452e-06 0)
(0.0999993 -3.28036e-06 0)
(0.0999995 -4.14696e-06 0)
(0.0999996 -5.10597e-06 0)
(0.0999999 -6.30854e-06 0)
(0.1 -7.63426e-06 0)
(0.100001 -9.34536e-06 0)
(0.100001 -1.11064e-05 0)
(0.100001 -1.34881e-05 0)
(0.100002 -1.56901e-05 0)
(0.100003 -1.90281e-05 0)
(0.100003 -2.16021e-05 0)
(0.100004 -2.64907e-05 0)
(0.100005 -2.91224e-05 0)
(0.100006 -3.67278e-05 0)
(0.100007 -3.84474e-05 0)
(0.100009 -5.10442e-05 0)
(0.0999997 -3.74538e-07 0)
(0.0999997 -1.1122e-06 0)
(0.0999997 -1.83417e-06 0)
(0.0999997 -2.58438e-06 0)
(0.0999998 -3.36013e-06 0)
(0.0999998 -4.24949e-06 0)
(0.0999999 -5.23615e-06 0)
(0.1 -6.47461e-06 0)
(0.1 -7.84364e-06 0)
(0.1 -9.60123e-06 0)
(0.1 -1.14098e-05 0)
(0.1 -1.3833e-05 0)
(0.100001 -1.60755e-05 0)
(0.100001 -1.94449e-05 0)
(0.100001 -2.20552e-05 0)
(0.100001 -2.69646e-05 0)
(0.100002 -2.96304e-05 0)
(0.100002 -3.72405e-05 0)
(0.100002 -3.89879e-05 0)
(0.100003 -5.15368e-05 0)
(0.1 -3.74587e-07 0)
(0.1 -1.11189e-06 0)
(0.1 -1.83447e-06 0)
(0.1 -2.58435e-06 0)
(0.1 -3.36076e-06 0)
(0.1 -4.24945e-06 0)
(0.1 -5.23624e-06 0)
(0.1 -6.47481e-06 0)
(0.0999999 -7.84379e-06 0)
(0.0999998 -9.60251e-06 0)
(0.0999997 -1.14108e-05 0)
(0.0999995 -1.38335e-05 0)
(0.0999993 -1.60762e-05 0)
(0.0999991 -1.94449e-05 0)
(0.0999989 -2.20542e-05 0)
(0.0999985 -2.6963e-05 0)
(0.0999983 -2.96286e-05 0)
(0.0999979 -3.72392e-05 0)
(0.0999977 -3.89878e-05 0)
(0.0999971 -5.15368e-05 0)
(0.100001 -3.64751e-07 0)
(0.100001 -1.08545e-06 0)
(0.100001 -1.7925e-06 0)
(0.100001 -2.52491e-06 0)
(0.100001 -3.2816e-06 0)
(0.100001 -4.14718e-06 0)
(0.1 -5.10573e-06 0)
(0.1 -6.30884e-06 0)
(0.0999998 -7.63417e-06 0)
(0.0999995 -9.34741e-06 0)
(0.0999991 -1.11089e-05 0)
(0.0999985 -1.34894e-05 0)
(0.099998 -1.56909e-05 0)
(0.0999973 -1.90272e-05 0)
(0.0999967 -2.16e-05 0)
(0.0999957 -2.64865e-05 0)
(0.099995 -2.91175e-05 0)
(0.0999936 -3.67223e-05 0)
(0.0999932 -3.84448e-05 0)
(0.0999912 -5.10395e-05 0)
(0.100002 -3.44401e-07 0)
(0.100002 -1.03213e-06 0)
(0.100002 -1.71222e-06 0)
(0.100001 -2.4202e-06 0)
(0.100001 -3.14383e-06 0)
(0.100001 -3.96556e-06 0)
(0.100001 -4.86595e-06 0)
(0.1 -5.99693e-06 0)
(0.0999997 -7.23473e-06 0)
(0.0999992 -8.84136e-06 0)
(0.0999985 -1.04815e-05 0)
(0.0999976 -1.27154e-05 0)
(0.0999968 -1.47562e-05 0)
(0.0999956 -1.79068e-05 0)
(0.0999945 -2.03015e-05 0)
(0.0999928 -2.49835e-05 0)
(0.0999917 -2.74566e-05 0)
(0.0999894 -3.48636e-05 0)
(0.0999885 -3.64916e-05 0)
(0.0999853 -4.8887e-05 0)
(0.100002 -3.11237e-07 0)
(0.100002 -9.36318e-07 0)
(0.100002 -1.57059e-06 0)
(0.100002 -2.25639e-06 0)
(0.100002 -2.98314e-06 0)
(0.100001 -3.82998e-06 0)
(0.100001 -4.76454e-06 0)
(0.1 -5.93093e-06 0)
(0.0999998 -7.19851e-06 0)
(0.099999 -8.82521e-06 0)
(0.0999981 -1.04782e-05 0)
(0.0999969 -1.27237e-05 0)
(0.0999958 -1.47637e-05 0)
(0.0999941 -1.79176e-05 0)
(0.0999926 -2.02951e-05 0)
(0.0999902 -2.49786e-05 0)
(0.0999887 -2.74248e-05 0)
(0.0999853 -3.48616e-05 0)
(0.0999843 -3.64905e-05 0)
(0.0999794 -4.90315e-05 0)
(0.100003 -2.75133e-07 0)
(0.100003 -7.92635e-07 0)
(0.100003 -1.25699e-06 0)
(0.100002 -1.69591e-06 0)
(0.100002 -2.11643e-06 0)
(0.100002 -2.61422e-06 0)
(0.100001 -3.1718e-06 0)
(0.1 -3.93706e-06 0)
(0.0999995 -4.78769e-06 0)
(0.0999985 -5.97379e-06 0)
(0.0999974 -7.16577e-06 0)
(0.0999959 -8.92459e-06 0)
(0.0999944 -1.04657e-05 0)
(0.0999922 -1.30894e-05 0)
(0.0999903 -1.49494e-05 0)
(0.0999874 -1.90812e-05 0)
(0.0999852 -2.10454e-05 0)
(0.099981 -2.79495e-05 0)
(0.0999793 -2.92176e-05 0)
(0.0999734 -4.13308e-05 0)
(0.100004 -3.05747e-07 0)
(0.100004 -9.54395e-07 0)
(0.100004 -1.6662e-06 0)
(0.100003 -2.45905e-06 0)
(0.100003 -3.30096e-06 0)
(0.100003 -4.23191e-06 0)
(0.100002 -5.21828e-06 0)
(0.100001 -6.3761e-06 0)
(0.1 -7.59105e-06 0)
(0.0999991 -9.1055e-06 0)
(0.0999978 -1.059e-05 0)
(0.099996 -1.26088e-05 0)
(0.0999942 -1.43763e-05 0)
(0.0999916 -1.71956e-05 0)
(0.0999894 -1.92078e-05 0)
(0.0999856 -2.34757e-05 0)
(0.0999833 -2.5546e-05 0)
(0.0999776 -3.25858e-05 0)
(0.099976 -3.39845e-05 0)
(0.0999673 -4.62984e-05 0)
(0.100004 -2.8324e-08 0)
(0.100004 -3.06371e-08 0)
(0.100004 3.54468e-08 0)
(0.100003 1.28125e-07 0)
(0.100003 2.27073e-07 0)
(0.100002 2.59752e-07 0)
(0.100001 2.36633e-07 0)
(0.1 5.53673e-08 0)
(0.0999995 -1.71015e-07 0)
(0.0999981 -6.82404e-07 0)
(0.0999966 -1.14538e-06 0)
(0.0999946 -2.10881e-06 0)
(0.0999926 -2.8106e-06 0)
(0.0999897 -4.52099e-06 0)
(0.0999871 -5.43198e-06 0)
(0.0999827 -8.53439e-06 0)
(0.0999797 -9.51402e-06 0)
(0.0999733 -1.54008e-05 0)
(0.0999707 -1.5939e-05 0)
(0.0999614 -2.74663e-05 0)
(0.100005 -4.03789e-07 0)
(0.100005 -1.31678e-06 0)
(0.100005 -2.31901e-06 0)
(0.100005 -3.36694e-06 0)
(0.100005 -4.3938e-06 0)
(0.100004 -5.44695e-06 0)
(0.100003 -6.50286e-06 0)
(0.100002 -7.66941e-06 0)
(0.100001 -8.83819e-06 0)
(0.0999996 -1.02389e-05 0)
(0.0999981 -1.15542e-05 0)
(0.0999957 -1.32982e-05 0)
(0.0999936 -1.47297e-05 0)
(0.0999901 -1.70772e-05 0)
(0.0999874 -1.85737e-05 0)
(0.099982 -2.21383e-05 0)
(0.0999791 -2.35403e-05 0)
(0.0999706 -2.97018e-05 0)
(0.0999684 -3.04993e-05 0)
(0.0999545 -4.21257e-05 0)
(0.100006 3.97179e-07 0)
(0.100005 1.20651e-06 0)
(0.100005 2.01161e-06 0)
(0.100004 2.77034e-06 0)
(0.100004 3.49879e-06 0)
(0.100003 4.14576e-06 0)
(0.100002 4.78416e-06 0)
(0.100001 5.30134e-06 0)
(0.1 5.83977e-06 0)
(0.0999984 6.22877e-06 0)
(0.0999967 6.68627e-06 0)
(0.0999943 6.84265e-06 0)
(0.0999921 7.2478e-06 0)
(0.0999884 6.96592e-06 0)
(0.0999855 7.3819e-06 0)
(0.0999799 6.15236e-06 0)
(0.0999764 6.71371e-06 0)
(0.0999674 3.18457e-06 0)
(0.0999642 4.01687e-06 0)
(0.09995 -5.41606e-06 0)
(0.100007 -8.73672e-07 0)
(0.100007 -2.37844e-06 0)
(0.100007 -3.59956e-06 0)
(0.100006 -4.6584e-06 0)
(0.100006 -5.64991e-06 0)
(0.100005 -6.68923e-06 0)
(0.100004 -7.71957e-06 0)
(0.100003 -8.86492e-06 0)
(0.100002 -9.95941e-06 0)
(0.1 -1.11835e-05 0)
(0.0999989 -1.22849e-05 0)
(0.0999961 -1.36539e-05 0)
(0.0999941 -1.47017e-05 0)
(0.0999898 -1.63786e-05 0)
(0.0999874 -1.72495e-05 0)
(0.0999803 -1.9639e-05 0)
(0.0999779 -2.00595e-05 0)
(0.0999653 -2.42717e-05 0)
(0.0999638 -2.38571e-05 0)
(0.0999403 -3.31621e-05 0)
)
;

boundaryField
{
    sides
    {
        type            calculated;
        value           nonuniform List<vector> 
40
(
(0.100007 0 0)
(0.100007 0 0)
(0.100007 0 0)
(0.100006 0 0)
(0.100006 0 0)
(0.100005 0 0)
(0.100004 0 0)
(0.100003 0 0)
(0.100002 0 0)
(0.1 0 0)
(0.0999989 0 0)
(0.0999961 0 0)
(0.0999941 0 0)
(0.0999898 0 0)
(0.0999874 0 0)
(0.0999803 0 0)
(0.0999779 0 0)
(0.0999653 0 0)
(0.0999638 0 0)
(0.0999403 0 0)
(0.0999931 0 0)
(0.0999931 0 0)
(0.0999932 0 0)
(0.0999935 0 0)
(0.099994 0 0)
(0.0999947 0 0)
(0.0999955 0 0)
(0.0999967 0 0)
(0.0999978 0 0)
(0.0999995 0 0)
(0.100001 0 0)
(0.100004 0 0)
(0.100006 0 0)
(0.10001 0 0)
(0.100013 0 0)
(0.10002 0 0)
(0.100022 0 0)
(0.100035 0 0)
(0.100036 0 0)
(0.10006 0 0)
)
;
    }
    inlet
    {
        type            calculated;
        value           nonuniform List<vector> 
20
(
(0.0999931 0 0)
(0.0999943 0 0)
(0.0999948 0 0)
(0.0999956 0 0)
(0.0999963 0 0)
(0.099997 0 0)
(0.0999977 0 0)
(0.0999983 0 0)
(0.099999 0 0)
(0.0999997 0 0)
(0.1 0 0)
(0.100001 0 0)
(0.100002 0 0)
(0.100002 0 0)
(0.100003 0 0)
(0.100004 0 0)
(0.100004 0 0)
(0.100005 0 0)
(0.100006 0 0)
(0.100007 0 0)
)
;
    }
    outlet
    {
        type            calculated;
        value           nonuniform List<vector> 
20
(
(0.100061 -3.31489e-05 0)
(0.10005 -5.42805e-06 0)
(0.100046 -4.21325e-05 0)
(0.100039 -2.74718e-05 0)
(0.100033 -4.63144e-05 0)
(0.100027 -4.1333e-05 0)
(0.100021 -4.90458e-05 0)
(0.100015 -4.88875e-05 0)
(0.100009 -5.10442e-05 0)
(0.100003 -5.15369e-05 0)
(0.099997 -5.15368e-05 0)
(0.0999911 -5.10395e-05 0)
(0.0999852 -4.88869e-05 0)
(0.0999792 -4.90315e-05 0)
(0.0999732 -4.13307e-05 0)
(0.099967 -4.62983e-05 0)
(0.0999612 -2.74662e-05 0)
(0.099954 -4.21255e-05 0)
(0.0999496 -5.41603e-06 0)
(0.0999394 -3.31618e-05 0)
)
;
    }
    frontAndBack
    {
        type            empty;
    }
}


// ************************************************************************* //
