/*--------------------------------*- C++ -*----------------------------------*\
  =========                 |
  \\      /  F ield         | OpenFOAM: The Open Source CFD Toolbox
   \\    /   O peration     | Website:  https://openfoam.org
    \\  /    A nd           | Version:  7
     \\/     M anipulation  |
\*---------------------------------------------------------------------------*/
FoamFile
{
    version     2.0;
    format      ascii;
    class       volScalarField;
    location    "58";
    object      ddt0(h);
}
// * * * * * * * * * * * * * * * * * * * * * * * * * * * * * * * * * * * * * //

dimensions      [0 1 -1 0 0 0 0];

internalField   nonuniform List<scalar> 
400
(
2.59394e-10
-1.96413e-09
-1.23593e-09
-7.3325e-10
-3.03499e-10
-1.39446e-08
-1.03588e-08
-3.97447e-08
-2.96562e-09
-1.20402e-09
-3.16601e-09
-3.51761e-09
-2.80325e-09
-1.92809e-09
-1.31686e-09
-9.93998e-10
-8.31888e-10
-6.09589e-10
-2.77441e-10
-6.32892e-11
-7.46947e-10
-1.02429e-09
-1.55858e-09
-2.47816e-09
-2.59179e-09
6.26505e-09
9.20854e-09
2.90586e-08
6.36983e-10
-3.07149e-09
-2.62109e-09
-2.1362e-09
-1.80942e-09
-1.51963e-09
-1.23231e-09
-9.88218e-10
-8.29623e-10
-5.76413e-10
-1.80839e-10
1.22721e-11
-9.97308e-10
-2.18524e-11
-1.39767e-09
-1.06187e-09
-2.80427e-09
3.11539e-09
-8.27541e-09
3.65416e-09
-3.82013e-09
-4.02664e-09
-2.2836e-09
-1.48529e-09
-1.23818e-09
-1.23274e-09
-1.24499e-09
-1.11636e-09
-8.88719e-10
-5.24237e-10
-1.13216e-10
3.00598e-11
-9.7428e-10
-5.86732e-10
-1.17744e-09
-1.128e-09
-1.98643e-09
-1.84771e-09
-9.73395e-10
-8.73766e-10
-3.62122e-09
-2.15209e-09
-1.25881e-09
-1.12211e-09
-1.1851e-09
-1.30107e-09
-1.30389e-09
-1.11497e-09
-7.36664e-10
-3.19252e-10
-9.38674e-11
-3.20875e-11
-3.25427e-10
-4.39695e-10
-4.34968e-10
-1.57531e-09
-3.44617e-10
-2.94877e-09
6.53954e-11
-2.04785e-09
-2.13808e-09
-3.61198e-10
-7.49529e-10
-1.0598e-09
-1.24318e-09
-1.4641e-09
-1.40071e-09
-1.06373e-09
-5.77332e-10
-2.99958e-10
-3.27592e-10
-2.00252e-10
-1.40973e-10
-5.60754e-10
-3.9987e-10
-1.62833e-09
-4.07631e-10
-1.65064e-09
-2.25062e-10
-2.21082e-09
-1.92027e-10
-2.58318e-10
-1.47876e-09
-1.34668e-09
-1.33445e-09
-1.5438e-09
-1.40964e-09
-9.00246e-10
-4.34042e-10
-4.84731e-10
-6.6061e-10
-3.37231e-10
-5.52631e-11
-4.16389e-10
-5.94055e-10
-4.27481e-10
-1.18248e-09
-1.58778e-10
-8.8582e-10
-7.70187e-10
1.30308e-10
-1.49171e-09
-1.48113e-09
-1.07266e-09
-1.15312e-09
-1.15691e-09
-1.0616e-09
-6.79077e-10
-3.88693e-10
-6.99229e-10
-9.60651e-10
-4.67302e-10
-2.95461e-10
3.74021e-11
-8.45294e-10
2.08639e-10
-8.13275e-10
1.47349e-10
-1.14814e-09
-3.3389e-11
-8.27568e-10
-1.35054e-09
-5.00483e-10
-9.93844e-10
-1.01774e-09
-3.57824e-10
-3.53469e-10
-4.75286e-10
-3.7376e-10
-5.16523e-10
-7.1527e-10
-3.73302e-10
-3.6808e-10
-4.40994e-12
-2.53701e-10
-4.26153e-11
-5.12685e-12
1.60669e-11
-4.36909e-10
-1.27591e-10
-8.39367e-10
-3.68525e-10
-2.01955e-10
-8.32096e-10
-4.91712e-10
2.0526e-10
1.29018e-10
-2.98393e-10
-3.71745e-10
-8.51707e-11
1.1729e-10
6.60482e-11
-1.69979e-11
-3.69607e-10
1.55401e-10
-1.81031e-10
2.90901e-10
-1.30872e-10
2.33145e-10
-4.18381e-10
-1.78368e-10
2.32496e-10
-1.5552e-10
5.89199e-11
1.06878e-11
-2.42514e-10
3.55522e-11
4.60013e-11
-1.93577e-10
2.43603e-10
8.48135e-10
5.09671e-10
1.41898e-10
-3.30011e-10
4.04763e-10
-1.58986e-10
3.30997e-10
-2.3634e-10
4.53015e-10
-4.01331e-10
9.85936e-11
5.17435e-10
2.58294e-11
5.11175e-10
2.67512e-10
-3.72048e-10
-6.45726e-12
1.66348e-10
-1.1407e-10
3.41669e-10
1.02477e-09
6.05318e-10
-1.02256e-11
1.9626e-10
4.89421e-10
4.18061e-11
2.98793e-10
-1.01069e-10
2.17785e-10
1.26739e-10
-1.9281e-10
5.56863e-10
4.9623e-10
2.90809e-10
4.09807e-10
4.50226e-10
3.64578e-10
8.15861e-12
-2.18025e-10
1.78083e-10
5.84202e-10
3.26477e-10
1.31144e-10
6.63621e-10
-5.36323e-11
5.65107e-10
-9.21204e-11
5.89139e-10
-4.00094e-11
1.11146e-09
3.95736e-11
1.78336e-10
1.05597e-09
5.08775e-10
4.24886e-10
8.38807e-10
6.76456e-10
2.79698e-10
8.64259e-11
-2.60923e-11
-1.88219e-10
-1.39368e-10
6.6262e-10
4.01229e-10
-9.27425e-11
7.88889e-10
-3.12058e-10
1.37728e-09
4.11164e-10
1.58111e-09
1.53162e-09
1.13237e-10
7.76602e-10
1.02679e-09
8.62787e-10
8.66603e-10
7.67013e-10
7.69357e-10
6.00497e-10
-2.66497e-11
-5.24584e-10
-3.10105e-10
8.29079e-10
2.50188e-10
5.50345e-10
4.08564e-10
1.17598e-09
1.3292e-09
1.759e-09
6.77259e-10
2.803e-09
1.73975e-09
8.3988e-10
1.12815e-09
1.20256e-09
1.03483e-09
9.98651e-10
1.15172e-09
1.01368e-09
2.92347e-10
-3.0477e-10
-2.13116e-10
5.5715e-10
2.37205e-10
9.36877e-10
5.35123e-10
2.39219e-09
-2.92474e-10
2.45291e-09
1.36936e-10
1.23249e-09
2.79454e-09
1.80958e-09
1.42766e-09
1.34846e-09
1.21858e-09
1.21713e-09
1.26704e-09
1.17713e-09
6.83552e-10
8.53377e-11
-6.87831e-11
-6.75931e-11
1.07815e-09
1.72797e-09
1.72114e-09
1.8373e-09
-2.66457e-11
3.32588e-09
1.43007e-09
3.45699e-10
1.98456e-09
2.49364e-09
2.05431e-09
1.66079e-09
1.41966e-09
1.27103e-09
1.13292e-09
1.01567e-09
7.42333e-10
3.02931e-10
4.29986e-11
-1.08701e-09
1.67345e-09
2.32953e-09
1.97701e-09
2.52106e-10
2.54681e-09
7.77117e-10
5.38758e-09
-6.65601e-10
1.2127e-09
2.36568e-09
2.28972e-09
1.84836e-09
1.47479e-09
1.20624e-09
1.01093e-09
8.56633e-10
6.75763e-10
4.49863e-10
1.75719e-10
4.09775e-10
1.05215e-09
1.6038e-09
1.44096e-09
-5.76757e-10
2.39809e-08
-5.73095e-09
-1.14831e-08
1.32344e-09
1.46465e-09
2.01851e-09
2.17171e-09
1.94383e-09
1.61925e-09
1.25954e-09
9.2125e-10
6.37523e-10
4.92415e-10
4.27858e-10
2.03469e-10
2.0822e-09
1.19564e-10
-1.59128e-10
1.72561e-09
4.84175e-09
-1.80268e-08
9.17489e-09
1.49527e-08
7.30418e-09
3.49372e-09
2.01593e-09
2.09524e-09
2.2888e-09
1.97837e-09
1.38903e-09
8.59513e-10
5.53925e-10
5.0433e-10
4.97495e-10
2.29745e-10
)
;

boundaryField
{
    sides
    {
        type            calculated;
        value           nonuniform List<scalar> 
40
(
2.0822e-09
1.19564e-10
-1.59128e-10
1.72561e-09
4.84175e-09
-1.80268e-08
9.17489e-09
1.49527e-08
7.30418e-09
3.49372e-09
2.01593e-09
2.09524e-09
2.2888e-09
1.97837e-09
1.38903e-09
8.59513e-10
5.53925e-10
5.0433e-10
4.97495e-10
2.29745e-10
2.59394e-10
-1.96413e-09
-1.23593e-09
-7.3325e-10
-3.03499e-10
-1.39446e-08
-1.03588e-08
-3.97447e-08
-2.96562e-09
-1.20402e-09
-3.16601e-09
-3.51761e-09
-2.80325e-09
-1.92809e-09
-1.31686e-09
-9.93998e-10
-8.31888e-10
-6.09589e-10
-2.77441e-10
-6.32892e-11
)
;
    }
    inlet
    {
        type            calculated;
        value           nonuniform List<scalar> 
20
(
2.59394e-10
-7.46947e-10
-9.97308e-10
-9.7428e-10
-3.25427e-10
-1.40973e-10
-5.52631e-11
-2.95461e-10
-3.6808e-10
-1.69979e-11
1.41898e-10
-1.02256e-11
1.31144e-10
6.6262e-10
8.29079e-10
5.5715e-10
-6.75931e-11
-1.08701e-09
4.09775e-10
2.0822e-09
)
;
    }
    outlet
    {
        type            calculated;
        value           uniform 0;
    }
    frontAndBack
    {
        type            empty;
    }
}


// ************************************************************************* //
