/*--------------------------------*- C++ -*----------------------------------*\
  =========                 |
  \\      /  F ield         | OpenFOAM: The Open Source CFD Toolbox
   \\    /   O peration     | Website:  https://openfoam.org
    \\  /    A nd           | Version:  7
     \\/     M anipulation  |
\*---------------------------------------------------------------------------*/
FoamFile
{
    version     2.0;
    format      ascii;
    class       volVectorField;
    location    "58";
    object      ddtCorrDdt0(hU);
}
// * * * * * * * * * * * * * * * * * * * * * * * * * * * * * * * * * * * * * //

dimensions      [0 2 -2 0 0 0 0];

internalField   nonuniform List<vector> 
400
(
(8.40765e-11 6.46233e-11 0)
(1.05337e-10 6.86728e-11 0)
(1.64958e-10 6.53737e-11 0)
(9.20001e-11 4.09007e-10 0)
(7.0027e-10 9.48118e-10 0)
(-7.82009e-10 1.74865e-12 0)
(2.04761e-10 1.08457e-09 0)
(-3.6691e-09 -1.74618e-09 0)
(-9.56974e-10 3.16146e-10 0)
(3.62575e-10 -2.72107e-10 0)
(-3.42768e-10 -5.26977e-10 0)
(-3.81662e-10 -4.37163e-10 0)
(-8.3811e-12 -2.81907e-10 0)
(3.59195e-10 -8.91534e-11 0)
(4.32313e-10 5.34462e-11 0)
(3.426e-10 2.19621e-10 0)
(2.82267e-11 3.36351e-10 0)
(-1.40956e-10 3.35639e-10 0)
(-4.40196e-10 3.79214e-10 0)
(-6.73237e-10 6.80221e-11 0)
(-6.38506e-11 2.41215e-11 0)
(1.17125e-10 -7.52595e-11 0)
(3.23781e-10 -1.66625e-10 0)
(6.02347e-10 1.8248e-10 0)
(-9.88448e-11 3.00281e-10 0)
(1.26637e-09 -5.5207e-11 0)
(6.1449e-10 -1.25103e-10 0)
(2.57903e-09 -1.10533e-09 0)
(1.26564e-09 3.56051e-10 0)
(-4.23595e-10 -3.76433e-10 0)
(-2.94758e-10 -5.16365e-10 0)
(-1.59833e-11 -3.28568e-10 0)
(2.03942e-10 -1.69669e-10 0)
(3.79118e-10 -1.05316e-10 0)
(3.86019e-10 -9.88365e-11 0)
(3.32057e-10 -6.78988e-11 0)
(8.86171e-11 7.10754e-11 0)
(-8.7536e-11 1.36002e-10 0)
(-3.6898e-10 2.29031e-10 0)
(-6.2343e-10 1.41111e-10 0)
(-1.65891e-10 2.10786e-11 0)
(8.59747e-11 1.43891e-10 0)
(3.8712e-10 2.29462e-10 0)
(5.14951e-10 4.14981e-10 0)
(1.5908e-10 1.84321e-10 0)
(4.08876e-10 1.1753e-09 0)
(-7.00669e-10 -9.89951e-11 0)
(1.0515e-09 1.72229e-09 0)
(-2.5515e-10 2.38293e-10 0)
(-7.35893e-10 -2.57355e-10 0)
(-5.44349e-11 -4.69751e-10 0)
(3.16652e-10 -5.7604e-10 0)
(4.58997e-10 -5.83946e-10 0)
(4.94569e-10 -3.87091e-10 0)
(3.99062e-10 -1.39189e-10 0)
(3.50224e-10 2.07057e-10 0)
(9.08493e-11 5.32481e-10 0)
(-6.77148e-11 5.5339e-10 0)
(-4.66626e-10 7.08511e-10 0)
(-7.54401e-10 2.31598e-10 0)
(-7.92969e-11 2.78808e-11 0)
(1.55286e-10 2.83506e-10 0)
(4.0216e-10 3.88884e-10 0)
(3.86532e-10 4.06022e-10 0)
(3.88062e-10 5.87803e-10 0)
(1.84888e-11 7.86903e-10 0)
(6.32693e-11 1.08607e-09 0)
(2.43468e-10 9.74057e-10 0)
(-7.31226e-10 1.44882e-10 0)
(-4.64657e-10 7.65499e-11 0)
(-1.66567e-11 -1.84694e-10 0)
(1.70588e-10 -5.02821e-10 0)
(2.54597e-10 -6.83784e-10 0)
(3.13363e-10 -5.2337e-10 0)
(3.09936e-10 -2.10107e-10 0)
(3.25756e-10 2.63009e-10 0)
(1.68271e-10 6.85442e-10 0)
(2.0198e-12 6.79457e-10 0)
(-3.12626e-10 9.15934e-10 0)
(-5.69169e-10 3.44531e-10 0)
(-7.14064e-12 2.03675e-11 0)
(1.14537e-10 1.20219e-10 0)
(2.70548e-10 1.96793e-10 0)
(1.43725e-10 1.71575e-10 0)
(2.38417e-10 5.14315e-10 0)
(-4.96618e-11 3.14097e-10 0)
(3.32721e-10 9.33319e-10 0)
(-5.46493e-11 4.95714e-10 0)
(-2.70514e-10 2.97365e-10 0)
(2.10049e-10 2.24805e-10 0)
(2.37717e-10 -2.46558e-10 0)
(1.57518e-10 -6.51506e-10 0)
(1.16396e-10 -8.39003e-10 0)
(1.07586e-10 -6.46952e-10 0)
(1.46048e-10 -2.70517e-10 0)
(2.12071e-10 2.67068e-10 0)
(6.33489e-11 7.44233e-10 0)
(-5.81145e-11 7.17657e-10 0)
(-2.78448e-10 9.6266e-10 0)
(-4.36057e-10 3.83017e-10 0)
(-4.48913e-12 7.432e-11 0)
(8.55296e-11 1.57164e-10 0)
(2.60918e-10 3.70176e-10 0)
(2.5561e-10 5.41789e-10 0)
(2.39654e-10 9.92333e-10 0)
(6.19494e-11 1.1184e-09 0)
(2.00128e-10 1.39489e-09 0)
(-3.51508e-10 9.96563e-10 0)
(-1.15338e-10 8.7187e-10 0)
(-2.80824e-11 2.46786e-10 0)
(-1.9609e-10 -5.93149e-10 0)
(-2.46331e-11 -1.04456e-09 0)
(1.45205e-10 -1.19577e-09 0)
(2.63366e-10 -7.84099e-10 0)
(3.70679e-10 -1.75732e-10 0)
(4.15456e-10 5.67585e-10 0)
(1.19596e-10 1.16657e-09 0)
(-1.15857e-10 1.12225e-09 0)
(-3.95395e-10 1.39061e-09 0)
(-4.99949e-10 4.68707e-10 0)
(-2.70167e-11 -3.98294e-12 0)
(1.54107e-11 4.89949e-11 0)
(8.70556e-11 1.74893e-10 0)
(1.79094e-10 4.29342e-10 0)
(5.47019e-11 6.16388e-10 0)
(1.72306e-10 1.03003e-09 0)
(1.16415e-10 1.09737e-09 0)
(8.24178e-11 1.03945e-09 0)
(2.39766e-10 9.03743e-10 0)
(-1.31517e-10 1.26907e-10 0)
(-1.57615e-10 -5.22439e-10 0)
(-4.91859e-11 -9.04909e-10 0)
(-7.25164e-11 -1.13238e-09 0)
(3.75355e-12 -7.59116e-10 0)
(1.14298e-10 -1.74999e-10 0)
(1.66577e-10 4.78238e-10 0)
(2.98604e-11 1.10186e-09 0)
(-1.26286e-10 1.15517e-09 0)
(-1.83621e-10 1.50845e-09 0)
(-1.5336e-10 6.01797e-10 0)
(-4.7527e-11 -8.93897e-11 0)
(8.74532e-12 2.85544e-11 0)
(4.61349e-11 1.939e-10 0)
(1.91114e-10 6.02977e-10 0)
(9.5781e-11 8.39028e-10 0)
(2.08361e-10 1.26967e-09 0)
(-6.5524e-12 1.26588e-09 0)
(1.06309e-10 1.22163e-09 0)
(-1.26731e-10 6.75497e-10 0)
(-3.21177e-10 -8.67619e-11 0)
(-6.50215e-11 -7.23479e-10 0)
(-7.37073e-11 -1.19014e-09 0)
(-1.18496e-12 -1.33122e-09 0)
(2.75806e-10 -7.92856e-10 0)
(3.34873e-10 -1.15321e-10 0)
(2.55017e-10 6.31969e-10 0)
(5.82575e-11 1.32639e-09 0)
(-9.26604e-11 1.40675e-09 0)
(-2.80807e-10 1.80641e-09 0)
(-3.05306e-10 6.6709e-10 0)
(-1.18155e-11 -1.06655e-10 0)
(2.96738e-11 -3.40486e-11 0)
(6.93314e-11 2.69261e-10 0)
(1.09349e-10 5.81677e-10 0)
(8.16349e-11 9.4786e-10 0)
(6.00143e-11 1.19878e-09 0)
(-1.95622e-11 1.31837e-09 0)
(4.07249e-11 1.21802e-09 0)
(-1.27104e-10 6.75491e-10 0)
(-6.5342e-11 1.57026e-10 0)
(2.27e-11 -5.68839e-10 0)
(-6.44513e-11 -1.0806e-09 0)
(3.7218e-11 -1.13989e-09 0)
(1.98803e-10 -7.17789e-10 0)
(1.50279e-10 -2.24203e-10 0)
(4.71479e-11 4.8439e-10 0)
(1.34631e-11 1.24648e-09 0)
(-2.70051e-13 1.36578e-09 0)
(-5.61619e-11 1.84481e-09 0)
(-1.10417e-10 7.4649e-10 0)
(-7.19603e-13 -5.91853e-11 0)
(1.15651e-11 -6.80005e-11 0)
(8.42403e-11 2.60846e-10 0)
(2.58138e-11 5.30035e-10 0)
(4.74383e-11 9.48591e-10 0)
(-2.77725e-11 1.22423e-09 0)
(3.18358e-11 1.43512e-09 0)
(-5.43785e-11 1.28115e-09 0)
(-2.38525e-11 7.67876e-10 0)
(2.16185e-11 1.85923e-10 0)
(-7.13759e-11 -6.13726e-10 0)
(3.71837e-11 -1.09191e-09 0)
(7.77405e-11 -1.12508e-09 0)
(-3.24734e-11 -6.91538e-10 0)
(-1.61409e-11 -1.60749e-10 0)
(1.00842e-10 6.05994e-10 0)
(1.44288e-10 1.35629e-09 0)
(1.68275e-10 1.39648e-09 0)
(7.96908e-11 1.81904e-09 0)
(-9.72991e-11 6.90553e-10 0)
(-5.51242e-12 -3.46794e-11 0)
(-2.61833e-11 1.65912e-11 0)
(3.6062e-11 1.84937e-10 0)
(-4.21863e-11 5.13428e-10 0)
(2.214e-11 8.42367e-10 0)
(-7.01888e-11 1.23216e-09 0)
(6.51715e-12 1.41116e-09 0)
(-1.24079e-10 1.30861e-09 0)
(-7.96713e-13 8.72573e-10 0)
(1.01463e-10 1.58168e-10 0)
(-1.11266e-11 -5.4733e-10 0)
(1.49068e-10 -1.03721e-09 0)
(1.15772e-10 -1.24848e-09 0)
(-1.59671e-10 -7.56133e-10 0)
(-1.9654e-10 -4.50935e-11 0)
(-1.00165e-10 7.48486e-10 0)
(2.20562e-13 1.40453e-09 0)
(8.24473e-11 1.35227e-09 0)
(1.67577e-10 1.73631e-09 0)
(1.09959e-10 6.43649e-10 0)
(7.06623e-12 -2.58874e-11 0)
(-4.95507e-11 4.36587e-11 0)
(-8.55972e-11 1.75568e-10 0)
(-1.17626e-10 5.38846e-10 0)
(-2.52078e-11 8.16799e-10 0)
(-4.32105e-11 1.20964e-09 0)
(-1.63764e-11 1.3579e-09 0)
(-7.59578e-12 1.24711e-09 0)
(-4.46934e-11 9.57088e-10 0)
(8.80492e-11 1.90654e-10 0)
(2.45522e-11 -4.70207e-10 0)
(-4.94295e-11 -9.3162e-10 0)
(-5.31476e-12 -1.26613e-09 0)
(-2.3349e-11 -8.34026e-10 0)
(-1.04971e-10 -8.41083e-11 0)
(-1.64267e-10 7.26285e-10 0)
(-8.5397e-11 1.3733e-09 0)
(6.9382e-11 1.29435e-09 0)
(1.6445e-10 1.65081e-09 0)
(1.36365e-10 6.28587e-10 0)
(2.9902e-12 -5.16458e-11 0)
(-6.60967e-11 -5.81193e-13 0)
(-1.89626e-10 2.68094e-10 0)
(-1.28611e-10 5.30463e-10 0)
(-1.31058e-10 9.43398e-10 0)
(-2.14453e-11 1.19173e-09 0)
(-1.26073e-10 1.431e-09 0)
(1.43691e-10 1.15849e-09 0)
(4.68313e-11 8.57692e-10 0)
(5.80348e-11 1.46266e-10 0)
(1.70886e-10 -6.578e-10 0)
(-6.62403e-11 -1.0896e-09 0)
(-1.6719e-10 -1.27148e-09 0)
(-9.18809e-11 -8.4423e-10 0)
(-1.53646e-10 -1.52518e-10 0)
(-3.06425e-10 7.26346e-10 0)
(-2.25668e-10 1.44433e-09 0)
(-9.35617e-11 1.36954e-09 0)
(1.60078e-10 1.6397e-09 0)
(3.64019e-10 5.6405e-10 0)
(5.14195e-11 -1.00206e-10 0)
(-5.14422e-11 3.95727e-11 0)
(-2.25767e-10 3.17097e-10 0)
(-1.26702e-10 4.55842e-10 0)
(-1.75123e-10 8.23178e-10 0)
(2.45101e-11 8.43509e-10 0)
(-1.52554e-10 1.14854e-09 0)
(3.65153e-11 9.53934e-10 0)
(1.64504e-10 5.79215e-10 0)
(-1.1746e-10 2.46224e-10 0)
(-3.36878e-11 -4.19232e-10 0)
(-1.75598e-11 -8.84168e-10 0)
(-6.85385e-11 -1.03271e-09 0)
(-2.30101e-11 -7.58623e-10 0)
(-2.38796e-12 -3.09238e-10 0)
(-8.6916e-11 4.10314e-10 0)
(-1.51014e-10 1.13111e-09 0)
(-1.7473e-10 1.17483e-09 0)
(-2.84513e-11 1.51573e-09 0)
(2.47935e-10 6.09977e-10 0)
(1.12466e-10 -6.8292e-11 0)
(-1.78676e-11 1.84054e-10 0)
(-2.58277e-10 4.27317e-10 0)
(-3.32267e-10 7.20402e-10 0)
(-3.09988e-10 9.43998e-10 0)
(-1.54035e-10 1.1408e-09 0)
(5.32784e-11 1.19496e-09 0)
(-3.95567e-11 1.1678e-09 0)
(5.69927e-10 3.83926e-10 0)
(4.75028e-10 -1.26971e-10 0)
(7.85037e-11 -6.28799e-10 0)
(-9.65894e-11 -1.02515e-09 0)
(-2.83278e-10 -1.11809e-09 0)
(-4.14107e-10 -7.47161e-10 0)
(-3.3492e-10 -2.59225e-10 0)
(-2.55946e-10 4.4648e-10 0)
(-1.0947e-10 1.12855e-09 0)
(-5.73496e-11 1.21661e-09 0)
(2.53068e-10 1.56908e-09 0)
(5.32076e-10 5.6898e-10 0)
(1.37035e-10 1.63645e-11 0)
(5.45146e-11 1.06433e-10 0)
(-1.45578e-10 1.08542e-10 0)
(-3.28551e-10 2.88526e-10 0)
(-1.70278e-10 2.46649e-10 0)
(-3.47435e-10 8.21811e-10 0)
(6.78971e-11 5.04499e-10 0)
(-3.63733e-10 8.10621e-10 0)
(-1.50735e-10 4.19916e-10 0)
(3.81561e-10 -2.27376e-10 0)
(1.47395e-10 -5.56662e-10 0)
(-7.51189e-11 -7.36901e-10 0)
(-1.99706e-10 -8.07019e-10 0)
(-2.82475e-10 -5.66249e-10 0)
(-1.82282e-10 -2.4383e-10 0)
(-7.52456e-11 1.81569e-10 0)
(7.13174e-11 6.80879e-10 0)
(8.84533e-11 8.18269e-10 0)
(2.15793e-10 1.14622e-09 0)
(3.50267e-10 4.74279e-10 0)
(1.09705e-11 1.77713e-10 0)
(-4.43263e-11 2.65648e-10 0)
(-2.38553e-10 1.87452e-10 0)
(-4.5153e-10 3.85136e-10 0)
(-1.81209e-10 5.71256e-10 0)
(-3.88945e-10 1.15881e-09 0)
(3.50594e-11 5.71602e-10 0)
(1.61244e-10 1.04711e-09 0)
(-1.7794e-10 8.01565e-10 0)
(2.94987e-10 1.50904e-11 0)
(4.62391e-10 -5.19199e-10 0)
(1.72076e-10 -7.26193e-10 0)
(-1.62809e-10 -7.58886e-10 0)
(-4.04882e-10 -4.66272e-10 0)
(-4.05085e-10 -1.26387e-10 0)
(-2.8562e-10 2.46151e-10 0)
(-5.46508e-12 6.14167e-10 0)
(1.37321e-10 6.80558e-10 0)
(3.01014e-10 9.65389e-10 0)
(4.35321e-10 3.67462e-10 0)
(-7.90662e-11 1.15513e-10 0)
(-3.33075e-11 1.43126e-10 0)
(-2.25129e-10 1.73915e-10 0)
(-3.12288e-10 1.94254e-10 0)
(-1.62066e-10 6.87521e-10 0)
(-3.94122e-10 7.13837e-10 0)
(-2.44659e-10 -1.09615e-10 0)
(8.16747e-10 -1.97626e-10 0)
(-6.33338e-10 4.99542e-10 0)
(-2.08727e-10 9.38084e-11 0)
(1.79335e-10 -3.85545e-10 0)
(6.83217e-11 -6.56152e-10 0)
(-2.17472e-10 -6.92449e-10 0)
(-4.63454e-10 -4.027e-10 0)
(-4.92238e-10 -6.29265e-11 0)
(-3.96525e-10 2.59647e-10 0)
(2.74794e-12 4.8197e-10 0)
(2.01867e-10 4.47094e-10 0)
(5.00805e-10 6.18655e-10 0)
(6.65833e-10 1.97998e-10 0)
(-8.31298e-12 1.57545e-11 0)
(-2.30281e-10 -1.19875e-10 0)
(-4.24149e-10 8.22038e-11 0)
(-2.87296e-10 6.93114e-12 0)
(-2.04425e-10 5.77685e-11 0)
(1.03167e-09 -8.15728e-10 0)
(-1.81428e-09 1.67959e-09 0)
(-2.95648e-10 -8.84402e-11 0)
(7.04133e-10 -2.73038e-10 0)
(-7.98842e-11 3.63821e-10 0)
(1.17258e-10 1.70473e-10 0)
(7.18296e-11 -1.23631e-10 0)
(-8.54468e-11 -2.50927e-10 0)
(-2.86832e-10 -1.79118e-10 0)
(-4.0296e-10 -5.11662e-11 0)
(-4.23539e-10 1.59822e-11 0)
(-1.30917e-10 5.63162e-11 0)
(1.36965e-10 1.05363e-11 0)
(4.35537e-10 9.59713e-11 0)
(6.26495e-10 9.07177e-11 0)
(9.49245e-11 5.07407e-11 0)
(-2.65864e-10 3.47628e-11 0)
(-3.42514e-10 2.63356e-10 0)
(-3.77093e-10 4.21938e-10 0)
(-5.72893e-10 3.27272e-10 0)
(-9.78155e-10 -3.05388e-10 0)
(1.34948e-09 2.66445e-09 0)
(-3.06581e-10 1.14072e-09 0)
(6.18679e-10 -1.97659e-10 0)
(5.78436e-10 1.87175e-10 0)
(-2.0164e-10 -5.32898e-11 0)
(-2.32379e-10 -2.8479e-10 0)
(-1.41785e-10 -3.21455e-10 0)
(-2.15618e-10 -1.35507e-10 0)
(-3.54809e-10 6.9322e-11 0)
(-4.54574e-10 2.59399e-10 0)
(-1.71438e-10 3.34652e-10 0)
(1.2703e-10 2.80939e-10 0)
(5.34662e-10 3.17258e-10 0)
(7.53557e-10 4.37478e-11 0)
)
;

boundaryField
{
    sides
    {
        type            calculated;
        value           nonuniform List<vector> 
40
(
(9.49245e-11 0 0)
(-2.65864e-10 0 0)
(-3.42514e-10 0 0)
(-3.77093e-10 0 0)
(-5.72893e-10 0 0)
(-9.78155e-10 0 0)
(1.34948e-09 0 0)
(-3.06581e-10 0 0)
(6.18679e-10 0 0)
(5.78436e-10 0 0)
(-2.0164e-10 0 0)
(-2.32379e-10 0 0)
(-1.41785e-10 0 0)
(-2.15618e-10 0 0)
(-3.54809e-10 0 0)
(-4.54574e-10 0 0)
(-1.71438e-10 0 0)
(1.2703e-10 0 0)
(5.34662e-10 0 0)
(7.53557e-10 0 0)
(8.40765e-11 0 0)
(1.05337e-10 0 0)
(1.64958e-10 0 0)
(9.20001e-11 0 0)
(7.0027e-10 0 0)
(-7.82009e-10 0 0)
(2.04761e-10 0 0)
(-3.6691e-09 0 0)
(-9.56974e-10 0 0)
(3.62575e-10 0 0)
(-3.42768e-10 0 0)
(-3.81662e-10 0 0)
(-8.3811e-12 0 0)
(3.59195e-10 0 0)
(4.32313e-10 0 0)
(3.426e-10 0 0)
(2.82267e-11 0 0)
(-1.40956e-10 0 0)
(-4.40196e-10 0 0)
(-6.73237e-10 0 0)
)
;
    }
    inlet
    {
        type            calculated;
        value           uniform (0 0 0);
    }
    outlet
    {
        type            calculated;
        value           nonuniform List<vector> 
20
(
(-6.73237e-10 6.80221e-11 0)
(-6.2343e-10 1.41111e-10 0)
(-7.54401e-10 2.31598e-10 0)
(-5.69169e-10 3.44531e-10 0)
(-4.36057e-10 3.83017e-10 0)
(-4.99949e-10 4.68707e-10 0)
(-1.5336e-10 6.01797e-10 0)
(-3.05306e-10 6.6709e-10 0)
(-1.10417e-10 7.4649e-10 0)
(-9.72991e-11 6.90553e-10 0)
(1.09959e-10 6.43649e-10 0)
(1.36365e-10 6.28587e-10 0)
(3.64019e-10 5.6405e-10 0)
(2.47935e-10 6.09977e-10 0)
(5.32076e-10 5.6898e-10 0)
(3.50267e-10 4.74279e-10 0)
(4.35321e-10 3.67462e-10 0)
(6.65833e-10 1.97998e-10 0)
(6.26495e-10 9.07177e-11 0)
(7.53557e-10 4.37478e-11 0)
)
;
    }
    frontAndBack
    {
        type            empty;
    }
}


// ************************************************************************* //
