/*--------------------------------*- C++ -*----------------------------------*\
  =========                 |
  \\      /  F ield         | OpenFOAM: The Open Source CFD Toolbox
   \\    /   O peration     | Website:  https://openfoam.org
    \\  /    A nd           | Version:  7
     \\/     M anipulation  |
\*---------------------------------------------------------------------------*/
FoamFile
{
    version     2.0;
    format      ascii;
    class       surfaceScalarField;
    location    "58";
    object      ddtCorrDdt0(phi);
}
// * * * * * * * * * * * * * * * * * * * * * * * * * * * * * * * * * * * * * //

dimensions      [0 4 -2 0 0 0 0];

internalField   nonuniform List<scalar> 
760
(
9.79978e-13
4.35312e-13
1.67977e-12
-1.2681e-13
-3.92103e-13
-1.51731e-13
-7.78918e-14
2.09579e-12
3.83367e-12
6.91528e-13
-5.85213e-12
-3.22924e-10
-1.10011e-12
2.70168e-10
-1.99591e-11
-5.67874e-11
2.78753e-12
-6.93442e-12
-2.79689e-13
-7.51373e-13
-2.30361e-12
-2.0466e-12
-1.1631e-12
-1.88728e-12
1.05221e-12
-1.22027e-12
2.19099e-12
-5.39029e-13
1.89628e-12
-1.30729e-13
8.16958e-13
2.94758e-13
-3.50955e-13
8.66314e-13
-1.36674e-12
1.06286e-12
-2.81566e-12
1.37804e-12
5.05641e-13
7.31245e-13
3.65272e-14
1.00231e-12
5.41892e-13
1.44169e-12
4.08321e-13
4.70674e-12
1.56243e-12
-3.44519e-12
1.47717e-12
1.41639e-11
1.02858e-11
-3.86796e-12
-1.14215e-11
1.85128e-11
1.19623e-11
-4.09292e-13
3.05336e-12
-1.93969e-12
-1.72034e-12
-7.57316e-13
-2.54228e-12
4.63083e-13
-2.37438e-12
1.55258e-12
-2.129e-12
1.97585e-12
-1.38759e-12
1.68747e-12
-5.85719e-13
9.85053e-13
4.98007e-13
8.66654e-15
1.75518e-12
-1.03872e-12
1.95019e-12
-2.54159e-12
2.53579e-12
9.72864e-13
-1.66106e-13
-1.47089e-12
9.66815e-13
9.34017e-13
3.09807e-12
1.1597e-12
1.18497e-12
1.88448e-12
2.23915e-12
1.2156e-12
-2.52761e-12
5.62024e-12
1.73219e-12
1.67564e-12
3.49175e-12
7.18669e-12
-4.22195e-12
-4.11601e-13
-1.65385e-12
-1.12815e-12
8.69651e-13
-1.66344e-12
2.03463e-12
-2.31703e-12
2.4507e-12
-2.7771e-12
2.23518e-12
-2.10854e-12
1.70723e-12
-9.01306e-13
1.07844e-12
9.96575e-13
1.09162e-13
2.79686e-12
-1.26883e-12
2.86864e-12
-3.17347e-12
3.86533e-12
1.40641e-12
7.99066e-13
7.45803e-14
1.18913e-12
9.81669e-13
2.48377e-12
1.44263e-12
4.40428e-13
1.82741e-12
3.84574e-12
2.91138e-12
-3.29277e-12
2.00472e-12
3.67795e-12
6.45696e-12
-2.41065e-12
3.13004e-12
-3.32083e-12
9.05512e-13
-7.99376e-13
3.78576e-13
4.96396e-13
-1.26336e-12
1.0799e-12
-3.13519e-12
1.40852e-12
-4.05338e-12
1.51308e-12
-3.06802e-12
1.48403e-12
-1.22766e-12
1.27483e-12
1.44745e-12
4.57678e-13
3.74256e-12
-7.22887e-13
3.58913e-12
-2.25332e-12
4.8211e-12
1.84747e-12
8.04763e-13
3.54476e-13
7.76385e-13
7.37199e-13
1.2222e-12
1.51826e-12
4.39078e-13
1.68083e-12
1.24631e-12
4.13549e-12
-1.99867e-14
3.0284e-12
1.80041e-12
5.6076e-12
-2.13308e-12
3.39618e-12
2.64344e-13
2.94799e-12
1.49547e-12
2.02232e-12
9.23353e-13
-1.5012e-12
6.97835e-13
-3.93798e-12
4.79979e-13
-4.8615e-12
5.83538e-13
-3.47629e-12
9.39187e-13
-1.13902e-12
7.38286e-13
1.99003e-12
-1.05336e-13
4.60466e-12
-8.09881e-13
4.36087e-12
-1.79386e-12
5.67601e-12
2.08799e-12
5.80356e-13
1.44534e-13
1.05489e-12
2.88863e-13
8.02583e-13
1.26637e-12
1.87886e-12
2.03242e-12
-1.1779e-13
3.83841e-12
1.59118e-12
5.57909e-12
-6.82716e-13
6.33093e-12
-1.82703e-12
5.0471e-12
4.77884e-13
5.05641e-12
-6.9481e-13
9.28222e-13
-6.38996e-13
-3.22868e-12
3.48194e-13
-5.16895e-12
9.02662e-13
-5.97983e-12
1.54609e-12
-3.90633e-12
2.13565e-12
-7.9722e-13
1.39583e-12
2.79859e-12
-2.49642e-13
5.87792e-12
-1.24002e-12
5.85609e-12
-2.15913e-12
7.2863e-12
2.64188e-12
3.95031e-15
-2.2496e-13
6.53608e-13
2.41707e-13
-7.82211e-14
8.87412e-13
1.33733e-12
3.0966e-12
-1.60687e-13
3.61577e-12
1.69196e-12
6.10482e-12
-4.50957e-13
5.78482e-12
1.36831e-12
5.86588e-12
3.23942e-13
3.90213e-12
-1.01267e-12
-3.02775e-13
-3.31363e-13
-3.12313e-12
-3.58414e-13
-5.10962e-12
-2.8506e-13
-6.2617e-12
3.52552e-13
-3.99571e-12
8.78636e-13
-7.21299e-13
5.16694e-13
2.75756e-12
-4.70645e-13
6.04391e-12
-8.48527e-13
6.43243e-12
-7.82539e-13
8.34917e-12
3.19823e-12
1.22309e-14
-6.46398e-13
9.81938e-14
1.75458e-13
6.76821e-13
1.15766e-12
4.81148e-13
2.94672e-12
1.01573e-12
4.45653e-12
5.1834e-13
6.06495e-12
-7.40721e-14
6.38386e-12
5.8311e-13
6.14118e-12
-1.6857e-12
3.16893e-12
-8.08835e-13
2.12433e-13
-1.22898e-13
-3.11481e-12
-5.01328e-13
-5.77216e-12
6.92874e-13
-6.29374e-12
1.71061e-12
-3.78113e-12
1.50529e-12
-8.41059e-13
7.74195e-13
2.72892e-12
-1.74839e-13
6.35921e-12
-9.90358e-13
6.97126e-12
-1.46424e-12
9.26947e-12
3.61482e-12
4.23455e-13
-4.26178e-13
-9.99524e-14
-4.65202e-13
7.88638e-13
1.49706e-12
4.89841e-14
2.74081e-12
7.69698e-13
4.99719e-12
-2.11787e-13
6.09374e-12
2.47038e-13
7.08383e-12
-1.40525e-13
6.20465e-12
-7.54166e-13
3.50131e-12
1.30106e-13
9.05222e-13
-1.4866e-13
-3.1591e-12
-2.39098e-13
-5.5168e-12
7.20937e-13
-5.37666e-12
9.60294e-13
-3.32467e-12
3.77377e-13
-1.03704e-12
1.51653e-13
2.63007e-12
1.34961e-13
6.52079e-12
-1.37393e-13
6.93285e-12
-4.73048e-13
9.10795e-12
3.53798e-12
2.59086e-14
-1.77957e-13
3.99821e-13
-2.0006e-13
1.46451e-13
1.14887e-12
2.47799e-13
2.58682e-12
3.4501e-14
4.50978e-12
-5.72594e-14
6.06872e-12
9.59069e-14
7.06373e-12
-4.547e-13
6.42528e-12
2.69267e-13
4.14612e-12
-2.84891e-13
1.0503e-12
-2.26338e-13
-2.73919e-12
6.02656e-13
-5.16466e-12
1.50555e-13
-5.76871e-12
-3.38225e-13
-3.59319e-12
8.50961e-14
-6.54176e-13
7.27926e-13
3.21447e-12
9.80018e-13
6.78729e-12
5.93273e-13
6.8437e-12
-1.57229e-13
8.9626e-12
3.3908e-12
-3.15873e-13
-1.54537e-13
3.32036e-13
4.08696e-13
-2.63995e-13
7.00372e-13
1.80082e-13
2.56484e-12
-2.67736e-13
3.91859e-12
-1.85976e-13
6.1602e-12
-1.4897e-13
6.85867e-12
-6.50565e-13
6.47731e-12
7.09797e-13
4.54277e-12
-4.56892e-14
6.7973e-13
1.61645e-13
-2.50646e-12
1.09995e-12
-4.96876e-12
-1.09617e-13
-6.5318e-12
-1.18248e-12
-3.95548e-12
-8.6074e-13
5.16406e-14
-1.42285e-13
4.01861e-12
4.09306e-13
7.0089e-12
6.37494e-13
6.49326e-12
6.31067e-13
8.30168e-12
3.11153e-12
-6.51393e-14
-7.20566e-14
-6.46308e-13
5.48426e-14
-2.57581e-13
9.83247e-13
-5.39847e-13
2.69751e-12
1.32219e-13
4.20066e-12
-4.93095e-13
6.11463e-12
2.10016e-13
7.03207e-12
-3.34944e-13
6.17369e-12
1.69328e-13
4.88478e-12
3.81285e-13
8.54105e-13
-2.40467e-13
-2.74636e-12
-9.61537e-14
-4.8489e-12
6.65245e-14
-6.32926e-12
-3.0186e-13
-4.27357e-12
-8.13994e-13
-5.70194e-13
-7.07221e-13
3.73186e-12
6.08433e-14
7.12112e-12
5.9917e-13
6.67046e-12
7.37383e-13
8.18901e-12
2.96907e-12
-2.92761e-13
-4.51264e-13
-1.02796e-12
-1.01999e-14
-3.07566e-13
1.83398e-12
-1.09285e-12
2.61412e-12
1.13937e-13
4.97566e-12
-7.10503e-13
5.31757e-12
3.68063e-14
6.7853e-12
8.53366e-13
5.20184e-12
-2.3654e-13
3.87678e-12
8.22712e-13
1.33429e-12
3.33458e-13
-2.74476e-12
-8.8616e-13
-5.00964e-12
-5.6558e-13
-5.6682e-12
-3.80946e-13
-4.00227e-12
-1.16823e-12
-1.29544e-12
-1.48528e-12
2.73758e-12
-8.43052e-13
6.42639e-12
1.19868e-13
6.31949e-12
1.37663e-12
7.80164e-12
2.88612e-12
-4.55761e-13
-6.36672e-13
-4.92782e-13
4.63928e-13
-1.03609e-12
1.70884e-12
-3.87178e-13
2.85903e-12
-8.4057e-13
4.53773e-12
1.61625e-13
4.3783e-12
-1.05771e-12
5.73146e-12
1.31839e-12
4.86955e-12
-1.88052e-13
1.67443e-12
-5.33402e-13
2.22674e-13
6.91922e-14
-2.63417e-12
-3.9353e-13
-5.02851e-12
-3.02167e-13
-5.60398e-12
7.71567e-14
-3.90885e-12
-6.03856e-14
-1.53093e-12
-6.50045e-13
2.16378e-12
-9.95097e-13
5.76991e-12
-6.17526e-13
6.13176e-12
6.62659e-13
7.86792e-12
3.00555e-12
-1.34008e-13
-1.65086e-13
-4.61355e-13
9.44417e-13
-1.80241e-12
1.49933e-12
-7.24826e-13
2.71286e-12
-2.59545e-12
2.39686e-12
1.00649e-12
4.83184e-12
-7.61441e-13
4.17482e-12
1.37365e-12
5.71699e-12
3.13553e-12
1.69503e-12
1.07204e-12
-1.33698e-12
-5.88371e-14
-2.79588e-12
-9.43341e-13
-4.0302e-12
-1.8863e-12
-4.53734e-12
-1.89245e-12
-3.18976e-12
-1.21368e-12
-1.32924e-12
-8.70043e-13
1.36401e-12
-5.93451e-13
4.32802e-12
3.74854e-13
5.00713e-12
2.06436e-12
6.79757e-12
2.66274e-12
4.85414e-13
4.79632e-13
-2.03693e-13
9.09785e-13
-1.03716e-12
8.04379e-13
-1.34942e-12
1.6347e-12
-1.78732e-12
2.06224e-12
-5.10423e-13
6.2026e-12
2.89974e-14
3.00978e-12
-2.5728e-12
4.01918e-12
1.1976e-12
3.78715e-12
1.45655e-12
-6.58812e-13
9.96075e-14
-3.25073e-12
-6.8394e-13
-4.03566e-12
-1.38292e-12
-4.13052e-12
-1.2928e-12
-2.61928e-12
-4.50416e-13
-8.40642e-13
1.19466e-13
1.19823e-12
3.4963e-13
3.42997e-12
7.50181e-13
3.97811e-12
1.4839e-12
5.48475e-12
2.13004e-12
-2.1745e-13
-4.11972e-13
-1.19502e-12
5.86306e-13
-8.86977e-13
6.01715e-13
-2.97981e-12
1.09935e-12
6.88516e-13
3.2145e-12
-3.53714e-12
3.40283e-12
2.7963e-12
1.07268e-12
-9.90123e-13
6.31763e-12
-1.88576e-13
3.19286e-12
2.28622e-12
7.35305e-13
1.75651e-12
-1.97992e-12
5.58374e-14
-3.23353e-12
-1.57706e-12
-3.33554e-12
-2.18396e-12
-1.95723e-12
-1.67745e-12
-4.21052e-13
-6.12921e-13
1.10669e-12
4.52457e-13
2.46291e-12
1.08541e-12
2.56344e-12
1.80429e-12
3.71321e-12
1.34727e-12
1.94169e-13
1.28121e-13
-1.89682e-12
7.55305e-14
-5.83671e-13
7.05134e-13
-2.27669e-12
1.07758e-12
1.76453e-12
3.46315e-12
-7.19513e-12
-3.64578e-12
6.87441e-12
3.10957e-12
-1.65878e-12
-1.47618e-11
-2.73234e-12
2.04379e-12
2.06253e-13
1.43821e-12
8.7366e-13
-6.42339e-13
-2.97972e-13
-2.16814e-12
-1.78296e-12
-2.58183e-12
-2.53398e-12
-1.59019e-12
-2.26247e-12
-3.11431e-13
-9.35051e-13
8.30039e-13
7.22393e-13
1.56753e-12
1.76636e-12
1.28689e-12
2.90532e-12
1.92214e-12
7.34342e-13
-1.23173e-12
-5.75649e-14
-1.74615e-12
-5.635e-14
-2.33848e-12
1.21605e-12
1.65356e-13
9.33167e-13
4.08353e-12
8.60722e-12
-8.69181e-12
-1.167e-10
-1.70226e-12
4.62016e-10
3.37852e-12
2.67729e-10
-7.23373e-13
6.87505e-13
1.64505e-13
3.30041e-13
5.59737e-13
1.5822e-13
4.7381e-14
-7.67512e-13
-8.81856e-13
-1.25755e-12
-1.7248e-12
-8.00618e-13
-2.12758e-12
-3.24728e-14
-1.46324e-12
6.15018e-13
1.46032e-13
8.63539e-13
1.44063e-12
5.90675e-13
2.65713e-12
8.63836e-13
2.82284e-13
-2.16676e-12
-3.93634e-13
-1.69132e-12
-1.70188e-12
-1.05753e-11
1.41268e-11
-7.67896e-12
2.22701e-12
5.10177e-12
1.5958e-14
-1.3342e-12
-8.83415e-13
-7.18558e-13
-1.32578e-12
-2.07052e-12
-1.7198e-12
-5.20485e-14
1.67201e-12
3.29125e-12
)
;

boundaryField
{
    sides
    {
        type            calculated;
        value           uniform 0;
    }
    inlet
    {
        type            calculated;
        value           uniform 0;
    }
    outlet
    {
        type            calculated;
        value           nonuniform List<scalar> 
20
(
-3.42095e-12
-3.17531e-12
-3.78813e-12
-2.91234e-12
-2.23724e-12
-2.54456e-12
-6.72906e-13
-1.43788e-12
-5.77338e-13
-4.57178e-13
5.02095e-13
7.41351e-13
1.95449e-12
1.42109e-12
2.72937e-12
1.62478e-12
2.06478e-12
3.23552e-12
3.13754e-12
3.81322e-12
)
;
    }
    frontAndBack
    {
        type            empty;
        value           nonuniform 0();
    }
}


// ************************************************************************* //
