/*--------------------------------*- C++ -*----------------------------------*\
  =========                 |
  \\      /  F ield         | OpenFOAM: The Open Source CFD Toolbox
   \\    /   O peration     | Website:  https://openfoam.org
    \\  /    A nd           | Version:  7
     \\/     M anipulation  |
\*---------------------------------------------------------------------------*/
FoamFile
{
    version     2.0;
    format      ascii;
    class       volVectorField;
    location    "58";
    object      hU;
}
// * * * * * * * * * * * * * * * * * * * * * * * * * * * * * * * * * * * * * //

dimensions      [0 2 -1 0 0 0 0];

internalField   nonuniform List<vector> 
400
(
(0.001 -8.69544e-09 0)
(0.000999999 -2.36439e-08 0)
(0.001 -3.58301e-08 0)
(0.001 -4.65178e-08 0)
(0.00100001 -5.66698e-08 0)
(0.00100001 -6.7259e-08 0)
(0.00100002 -7.80612e-08 0)
(0.00100003 -8.9536e-08 0)
(0.00100004 -1.0025e-07 0)
(0.00100006 -1.12211e-07 0)
(0.00100007 -1.22819e-07 0)
(0.0010001 -1.36141e-07 0)
(0.00100011 -1.46307e-07 0)
(0.00100015 -1.62989e-07 0)
(0.00100017 -1.71796e-07 0)
(0.00100024 -1.95962e-07 0)
(0.00100026 -2.00661e-07 0)
(0.00100038 -2.4301e-07 0)
(0.00100038 -2.39384e-07 0)
(0.00100061 -3.32161e-07 0)
(0.001 4.00875e-09 0)
(0.001 1.21533e-08 0)
(0.00100001 2.02837e-08 0)
(0.00100001 2.80598e-08 0)
(0.00100002 3.53732e-08 0)
(0.00100002 4.19089e-08 0)
(0.00100003 4.79348e-08 0)
(0.00100004 5.31535e-08 0)
(0.00100005 5.85196e-08 0)
(0.00100007 6.23286e-08 0)
(0.00100008 6.69636e-08 0)
(0.0010001 6.86092e-08 0)
(0.00100012 7.27709e-08 0)
(0.00100016 7.00248e-08 0)
(0.00100018 7.42066e-08 0)
(0.00100023 6.1895e-08 0)
(0.00100026 6.73426e-08 0)
(0.00100035 3.18867e-08 0)
(0.00100037 3.98987e-08 0)
(0.00100051 -5.46937e-08 0)
(0.001 -3.86848e-09 0)
(0.000999999 -1.27701e-08 0)
(0.001 -2.26921e-08 0)
(0.001 -3.32207e-08 0)
(0.001 -4.38134e-08 0)
(0.00100001 -5.47222e-08 0)
(0.00100002 -6.55856e-08 0)
(0.00100003 -7.73688e-08 0)
(0.00100004 -8.91099e-08 0)
(0.00100005 -1.02848e-07 0)
(0.00100006 -1.15473e-07 0)
(0.00100009 -1.32398e-07 0)
(0.0010001 -1.46197e-07 0)
(0.00100014 -1.69446e-07 0)
(0.00100016 -1.8447e-07 0)
(0.00100021 -2.20455e-07 0)
(0.00100023 -2.35314e-07 0)
(0.00100031 -2.9743e-07 0)
(0.00100033 -3.06473e-07 0)
(0.00100046 -4.22731e-07 0)
(0.001 -4.00329e-12 0)
(0.001 3.50476e-10 0)
(0.00100001 1.18565e-09 0)
(0.00100001 1.99084e-09 0)
(0.00100001 2.65432e-09 0)
(0.00100002 2.44912e-09 0)
(0.00100003 1.84267e-09 0)
(0.00100003 -3.15696e-10 0)
(0.00100004 -2.60429e-09 0)
(0.00100006 -7.37055e-09 0)
(0.00100007 -1.14149e-08 0)
(0.00100009 -2.04244e-08 0)
(0.00100011 -2.67681e-08 0)
(0.00100013 -4.35216e-08 0)
(0.00100016 -5.26775e-08 0)
(0.00100019 -8.40604e-08 0)
(0.00100022 -9.49571e-08 0)
(0.00100028 -1.54424e-07 0)
(0.0010003 -1.61255e-07 0)
(0.00100039 -2.76578e-07 0)
(0.001 -2.75971e-09 0)
(0.001 -8.88835e-09 0)
(0.001 -1.58076e-08 0)
(0.001 -2.3756e-08 0)
(0.00100001 -3.23965e-08 0)
(0.00100001 -4.22106e-08 0)
(0.00100002 -5.24946e-08 0)
(0.00100002 -6.4458e-08 0)
(0.00100003 -7.66073e-08 0)
(0.00100004 -9.14929e-08 0)
(0.00100005 -1.05799e-07 0)
(0.00100007 -1.25347e-07 0)
(0.00100009 -1.42317e-07 0)
(0.00100011 -1.70133e-07 0)
(0.00100013 -1.90284e-07 0)
(0.00100016 -2.33307e-07 0)
(0.00100018 -2.55166e-07 0)
(0.00100024 -3.26253e-07 0)
(0.00100025 -3.41808e-07 0)
(0.00100033 -4.65161e-07 0)
(0.001 -2.36992e-09 0)
(0.001 -7.0257e-09 0)
(0.001 -1.14596e-08 0)
(0.00100001 -1.60668e-08 0)
(0.00100001 -2.08708e-08 0)
(0.00100001 -2.6648e-08 0)
(0.00100002 -3.29582e-08 0)
(0.00100002 -4.10299e-08 0)
(0.00100003 -4.94142e-08 0)
(0.00100004 -6.07662e-08 0)
(0.00100005 -7.17184e-08 0)
(0.00100007 -8.82486e-08 0)
(0.00100008 -1.02611e-07 0)
(0.0010001 -1.28326e-07 0)
(0.00100011 -1.47015e-07 0)
(0.00100014 -1.889e-07 0)
(0.00100016 -2.10237e-07 0)
(0.0010002 -2.80184e-07 0)
(0.00100021 -2.95048e-07 0)
(0.00100027 -4.161e-07 0)
(0.001 -2.72211e-09 0)
(0.001 -8.38106e-09 0)
(0.001 -1.44306e-08 0)
(0.001 -2.1305e-08 0)
(0.00100001 -2.90003e-08 0)
(0.00100001 -3.81319e-08 0)
(0.00100001 -4.82284e-08 0)
(0.00100002 -6.03774e-08 0)
(0.00100002 -7.31332e-08 0)
(0.00100003 -8.91105e-08 0)
(0.00100004 -1.04844e-07 0)
(0.00100005 -1.26379e-07 0)
(0.00100006 -1.458e-07 0)
(0.00100007 -1.76773e-07 0)
(0.00100009 -2.00546e-07 0)
(0.00100011 -2.4781e-07 0)
(0.00100012 -2.73866e-07 0)
(0.00100015 -3.49116e-07 0)
(0.00100016 -3.67588e-07 0)
(0.00100021 -4.93238e-07 0)
(0.001 -3.02534e-09 0)
(0.001 -9.22487e-09 0)
(0.001 -1.5736e-08 0)
(0.001 -2.29436e-08 0)
(0.001 -3.08027e-08 0)
(0.00100001 -3.99199e-08 0)
(0.00100001 -4.98247e-08 0)
(0.00100001 -6.16452e-08 0)
(0.00100002 -7.40024e-08 0)
(0.00100002 -8.95055e-08 0)
(0.00100003 -1.04799e-07 0)
(0.00100004 -1.25962e-07 0)
(0.00100004 -1.45196e-07 0)
(0.00100006 -1.761e-07 0)
(0.00100006 -2.00163e-07 0)
(0.00100008 -2.47629e-07 0)
(0.00100009 -2.74311e-07 0)
(0.00100011 -3.49377e-07 0)
(0.00100012 -3.68136e-07 0)
(0.00100015 -4.92076e-07 0)
(0.001 -3.19538e-09 0)
(0.001 -9.70214e-09 0)
(0.001 -1.64867e-08 0)
(0.001 -2.3992e-08 0)
(0.001 -3.21531e-08 0)
(0.001 -4.16699e-08 0)
(0.00100001 -5.20883e-08 0)
(0.00100001 -6.46408e-08 0)
(0.00100001 -7.79267e-08 0)
(0.00100001 -9.45793e-08 0)
(0.00100002 -1.1121e-07 0)
(0.00100002 -1.33906e-07 0)
(0.00100003 -1.54726e-07 0)
(0.00100003 -1.87416e-07 0)
(0.00100004 -2.13174e-07 0)
(0.00100005 -2.62565e-07 0)
(0.00100005 -2.90777e-07 0)
(0.00100007 -3.67825e-07 0)
(0.00100007 -3.87601e-07 0)
(0.00100009 -5.1371e-07 0)
(0.001 -3.26783e-09 0)
(0.001 -9.92754e-09 0)
(0.001 -1.68622e-08 0)
(0.001 -2.45386e-08 0)
(0.001 -3.29082e-08 0)
(0.001 -4.27048e-08 0)
(0.001 -5.34849e-08 0)
(0.001 -6.64519e-08 0)
(0.001 -8.01498e-08 0)
(0.001 -9.71842e-08 0)
(0.00100001 -1.14177e-07 0)
(0.00100001 -1.37198e-07 0)
(0.00100001 -1.58382e-07 0)
(0.00100001 -1.91413e-07 0)
(0.00100001 -2.17601e-07 0)
(0.00100002 -2.67302e-07 0)
(0.00100002 -2.95974e-07 0)
(0.00100002 -3.73121e-07 0)
(0.00100002 -3.93245e-07 0)
(0.00100003 -5.18763e-07 0)
(0.001 -3.26423e-09 0)
(0.001 -9.91896e-09 0)
(0.001 -1.68678e-08 0)
(0.000999999 -2.45413e-08 0)
(0.000999999 -3.29188e-08 0)
(0.000999999 -4.2706e-08 0)
(0.000999998 -5.34879e-08 0)
(0.000999997 -6.64473e-08 0)
(0.000999996 -8.01428e-08 0)
(0.000999995 -9.71877e-08 0)
(0.000999994 -1.14174e-07 0)
(0.000999993 -1.37196e-07 0)
(0.000999991 -1.58391e-07 0)
(0.000999989 -1.91415e-07 0)
(0.000999987 -2.17593e-07 0)
(0.000999984 -2.67291e-07 0)
(0.000999982 -2.95971e-07 0)
(0.000999978 -3.7313e-07 0)
(0.000999977 -3.93262e-07 0)
(0.00099997 -5.18769e-07 0)
(0.001 -3.18323e-09 0)
(0.001 -9.69173e-09 0)
(0.000999999 -1.64968e-08 0)
(0.000999998 -2.39992e-08 0)
(0.000999997 -3.217e-08 0)
(0.000999996 -4.16706e-08 0)
(0.000999994 -5.20854e-08 0)
(0.000999992 -6.46285e-08 0)
(0.000999989 -7.7902e-08 0)
(0.000999986 -9.45772e-08 0)
(0.000999982 -1.11204e-07 0)
(0.000999978 -1.33895e-07 0)
(0.000999973 -1.54734e-07 0)
(0.000999967 -1.87416e-07 0)
(0.000999961 -2.13159e-07 0)
(0.000999952 -2.62532e-07 0)
(0.000999946 -2.90755e-07 0)
(0.000999933 -3.67816e-07 0)
(0.00099993 -3.87616e-07 0)
(0.000999911 -5.13676e-07 0)
(0.001 -3.01382e-09 0)
(0.001 -9.22501e-09 0)
(0.000999999 -1.57363e-08 0)
(0.000999998 -2.29533e-08 0)
(0.000999996 -3.08008e-08 0)
(0.000999994 -3.99214e-08 0)
(0.000999991 -4.98066e-08 0)
(0.000999987 -6.16358e-08 0)
(0.000999983 -7.39752e-08 0)
(0.000999977 -8.94854e-08 0)
(0.000999971 -1.04794e-07 0)
(0.000999963 -1.25955e-07 0)
(0.000999956 -1.45198e-07 0)
(0.000999945 -1.76113e-07 0)
(0.000999936 -2.00179e-07 0)
(0.000999921 -2.47624e-07 0)
(0.000999911 -2.74308e-07 0)
(0.00099989 -3.4939e-07 0)
(0.000999882 -3.68176e-07 0)
(0.000999852 -4.92085e-07 0)
(0.001 -2.7261e-09 0)
(0.000999999 -8.38343e-09 0)
(0.000999998 -1.44209e-08 0)
(0.000999996 -2.13038e-08 0)
(0.000999994 -2.89796e-08 0)
(0.000999991 -3.81374e-08 0)
(0.000999987 -4.8211e-08 0)
(0.000999982 -6.03713e-08 0)
(0.000999977 -7.31319e-08 0)
(0.000999969 -8.90766e-08 0)
(0.000999962 -1.04817e-07 0)
(0.000999951 -1.2635e-07 0)
(0.00099994 -1.45771e-07 0)
(0.000999925 -1.76746e-07 0)
(0.000999913 -2.00532e-07 0)
(0.000999891 -2.47763e-07 0)
(0.000999878 -2.73813e-07 0)
(0.000999846 -3.49027e-07 0)
(0.000999839 -3.67516e-07 0)
(0.000999792 -4.931e-07 0)
(0.001 -2.38684e-09 0)
(0.000999999 -7.02744e-09 0)
(0.000999997 -1.14536e-08 0)
(0.000999995 -1.6054e-08 0)
(0.000999992 -2.08685e-08 0)
(0.000999987 -2.66532e-08 0)
(0.000999982 -3.29749e-08 0)
(0.000999976 -4.10335e-08 0)
(0.000999968 -4.94603e-08 0)
(0.000999959 -6.07892e-08 0)
(0.000999948 -7.1718e-08 0)
(0.000999935 -8.8241e-08 0)
(0.000999922 -1.02604e-07 0)
(0.000999903 -1.28322e-07 0)
(0.000999886 -1.47028e-07 0)
(0.000999859 -1.88909e-07 0)
(0.000999841 -2.10245e-07 0)
(0.000999802 -2.80162e-07 0)
(0.000999788 -2.95028e-07 0)
(0.000999731 -4.16071e-07 0)
(0.001 -2.77407e-09 0)
(0.001 -8.88797e-09 0)
(0.000999999 -1.58043e-08 0)
(0.000999997 -2.37357e-08 0)
(0.000999994 -3.24081e-08 0)
(0.00099999 -4.21763e-08 0)
(0.000999984 -5.25313e-08 0)
(0.000999977 -6.4442e-08 0)
(0.000999969 -7.66211e-08 0)
(0.000999958 -9.15307e-08 0)
(0.000999946 -1.05816e-07 0)
(0.00099993 -1.25334e-07 0)
(0.000999914 -1.42295e-07 0)
(0.000999891 -1.70089e-07 0)
(0.000999872 -1.90255e-07 0)
(0.000999837 -2.3326e-07 0)
(0.000999817 -2.55135e-07 0)
(0.000999764 -3.26146e-07 0)
(0.000999752 -3.41712e-07 0)
(0.00099967 -4.64986e-07 0)
(0.001 -9.42833e-12 0)
(0.000999998 3.5313e-10 0)
(0.000999995 1.17675e-09 0)
(0.000999991 1.99242e-09 0)
(0.000999986 2.65206e-09 0)
(0.00099998 2.47601e-09 0)
(0.000999974 1.77876e-09 0)
(0.000999965 -3.3364e-10 0)
(0.000999955 -2.60486e-09 0)
(0.000999943 -7.42258e-09 0)
(0.000999929 -1.14707e-08 0)
(0.000999911 -2.04534e-08 0)
(0.000999893 -2.67799e-08 0)
(0.000999867 -4.35102e-08 0)
(0.000999845 -5.267e-08 0)
(0.000999805 -8.40479e-08 0)
(0.000999779 -9.49601e-08 0)
(0.00099972 -1.54388e-07 0)
(0.000999699 -1.61218e-07 0)
(0.000999611 -2.76511e-07 0)
(0.001 -3.85368e-09 0)
(0.001 -1.27711e-08 0)
(0.001 -2.27036e-08 0)
(0.000999998 -3.32498e-08 0)
(0.000999995 -4.37796e-08 0)
(0.00099999 -5.46711e-08 0)
(0.000999983 -6.55993e-08 0)
(0.000999974 -7.74778e-08 0)
(0.000999963 -8.91063e-08 0)
(0.000999949 -1.02834e-07 0)
(0.000999935 -1.15481e-07 0)
(0.000999914 -1.32412e-07 0)
(0.000999895 -1.46223e-07 0)
(0.000999864 -1.69449e-07 0)
(0.000999841 -1.84482e-07 0)
(0.000999791 -2.20442e-07 0)
(0.000999767 -2.35341e-07 0)
(0.000999687 -2.97408e-07 0)
(0.000999672 -3.06483e-07 0)
(0.000999539 -4.22654e-07 0)
(0.001 4.04011e-09 0)
(0.000999996 1.21353e-08 0)
(0.000999991 2.02783e-08 0)
(0.000999987 2.80391e-08 0)
(0.000999982 3.53303e-08 0)
(0.000999976 4.17604e-08 0)
(0.000999969 4.80926e-08 0)
(0.000999959 5.32338e-08 0)
(0.000999948 5.8562e-08 0)
(0.000999934 6.24417e-08 0)
(0.000999919 6.70276e-08 0)
(0.000999897 6.86221e-08 0)
(0.000999877 7.27547e-08 0)
(0.000999844 7.00289e-08 0)
(0.000999819 7.42155e-08 0)
(0.000999767 6.19369e-08 0)
(0.000999738 6.73616e-08 0)
(0.000999654 3.19484e-08 0)
(0.000999629 3.99409e-08 0)
(0.000999495 -5.45719e-08 0)
(0.001 -8.67835e-09 0)
(0.001 -2.36562e-08 0)
(0.001 -3.58316e-08 0)
(0.000999997 -4.65181e-08 0)
(0.000999993 -5.67456e-08 0)
(0.000999986 -6.74668e-08 0)
(0.000999979 -7.79404e-08 0)
(0.000999968 -8.93898e-08 0)
(0.000999958 -1.00241e-07 0)
(0.000999942 -1.12172e-07 0)
(0.000999928 -1.2282e-07 0)
(0.000999903 -1.36182e-07 0)
(0.000999885 -1.46368e-07 0)
(0.000999846 -1.63047e-07 0)
(0.000999826 -1.71857e-07 0)
(0.00099976 -1.9602e-07 0)
(0.000999742 -2.0073e-07 0)
(0.000999623 -2.43088e-07 0)
(0.000999618 -2.39468e-07 0)
(0.000999394 -3.32292e-07 0)
)
;

boundaryField
{
    sides
    {
        type            slip;
    }
    inlet
    {
        type            fixedValue;
        value           uniform (0.001 0 0);
    }
    outlet
    {
        type            zeroGradient;
    }
    frontAndBack
    {
        type            empty;
    }
}


// ************************************************************************* //
