/*--------------------------------*- C++ -*----------------------------------*\
  =========                 |
  \\      /  F ield         | OpenFOAM: The Open Source CFD Toolbox
   \\    /   O peration     | Website:  https://openfoam.org
    \\  /    A nd           | Version:  7
     \\/     M anipulation  |
\*---------------------------------------------------------------------------*/
FoamFile
{
    version     2.0;
    format      ascii;
    class       volVectorField;
    location    "58";
    object      hU_0;
}
// * * * * * * * * * * * * * * * * * * * * * * * * * * * * * * * * * * * * * //

dimensions      [0 2 -1 0 0 0 0];

internalField   nonuniform List<vector> 
400
(
(0.001 -8.70434e-09 0)
(0.000999999 -2.36477e-08 0)
(0.001 -3.5839e-08 0)
(0.001 -4.65624e-08 0)
(0.00100001 -5.67591e-08 0)
(0.00100001 -6.72296e-08 0)
(0.00100002 -7.82213e-08 0)
(0.00100003 -8.945e-08 0)
(0.00100004 -1.00262e-07 0)
(0.00100006 -1.12196e-07 0)
(0.00100007 -1.22769e-07 0)
(0.0010001 -1.36092e-07 0)
(0.00100011 -1.46272e-07 0)
(0.00100015 -1.62975e-07 0)
(0.00100017 -1.71798e-07 0)
(0.00100024 -1.95982e-07 0)
(0.00100026 -2.00695e-07 0)
(0.00100038 -2.43044e-07 0)
(0.00100038 -2.39422e-07 0)
(0.00100061 -3.3217e-07 0)
(0.001 4.00259e-09 0)
(0.001 1.21663e-08 0)
(0.00100001 2.02971e-08 0)
(0.00100001 2.8045e-08 0)
(0.00100002 3.53415e-08 0)
(0.00100002 4.19615e-08 0)
(0.00100003 4.78819e-08 0)
(0.00100004 5.32492e-08 0)
(0.00100005 5.8498e-08 0)
(0.00100007 6.23461e-08 0)
(0.00100008 6.70113e-08 0)
(0.0010001 6.86501e-08 0)
(0.00100012 7.27972e-08 0)
(0.00100016 7.00408e-08 0)
(0.00100018 7.42179e-08 0)
(0.00100023 6.19017e-08 0)
(0.00100026 6.7336e-08 0)
(0.00100035 3.18746e-08 0)
(0.00100037 3.98771e-08 0)
(0.00100051 -5.47078e-08 0)
(0.001 -3.87093e-09 0)
(0.000999999 -1.27813e-08 0)
(0.001 -2.27121e-08 0)
(0.001 -3.32526e-08 0)
(0.001 -4.38371e-08 0)
(0.00100001 -5.48331e-08 0)
(0.00100002 -6.55681e-08 0)
(0.00100003 -7.74716e-08 0)
(0.00100004 -8.91521e-08 0)
(0.00100005 -1.02828e-07 0)
(0.00100006 -1.15424e-07 0)
(0.00100009 -1.32336e-07 0)
(0.0010001 -1.46133e-07 0)
(0.00100014 -1.69404e-07 0)
(0.00100016 -1.84453e-07 0)
(0.00100021 -2.20473e-07 0)
(0.00100023 -2.35365e-07 0)
(0.00100031 -2.97484e-07 0)
(0.00100033 -3.06544e-07 0)
(0.00100046 -4.22757e-07 0)
(0.001 -3.67739e-12 0)
(0.001 3.24548e-10 0)
(0.00100001 1.15346e-09 0)
(0.00100001 1.95001e-09 0)
(0.00100001 2.60443e-09 0)
(0.00100002 2.34972e-09 0)
(0.00100003 1.76936e-09 0)
(0.00100003 -4.24312e-10 0)
(0.00100004 -2.62875e-09 0)
(0.00100006 -7.3659e-09 0)
(0.00100007 -1.13884e-08 0)
(0.00100009 -2.03718e-08 0)
(0.00100011 -2.66986e-08 0)
(0.00100013 -4.34679e-08 0)
(0.00100016 -5.26543e-08 0)
(0.00100019 -8.40822e-08 0)
(0.00100022 -9.50217e-08 0)
(0.00100028 -1.5449e-07 0)
(0.0010003 -1.61348e-07 0)
(0.00100039 -2.76617e-07 0)
(0.001 -2.75748e-09 0)
(0.001 -8.89808e-09 0)
(0.001 -1.58219e-08 0)
(0.001 -2.37752e-08 0)
(0.00100001 -3.24356e-08 0)
(0.00100001 -4.22496e-08 0)
(0.00100002 -5.25725e-08 0)
(0.00100002 -6.4521e-08 0)
(0.00100003 -7.66304e-08 0)
(0.00100004 -9.15048e-08 0)
(0.00100005 -1.05775e-07 0)
(0.00100007 -1.25285e-07 0)
(0.00100009 -1.42234e-07 0)
(0.00100011 -1.70067e-07 0)
(0.00100013 -1.90254e-07 0)
(0.00100016 -2.33327e-07 0)
(0.00100018 -2.55236e-07 0)
(0.00100024 -3.26325e-07 0)
(0.00100025 -3.41909e-07 0)
(0.00100033 -4.65205e-07 0)
(0.001 -2.37403e-09 0)
(0.001 -7.04004e-09 0)
(0.001 -1.14937e-08 0)
(0.00100001 -1.61159e-08 0)
(0.00100001 -2.09657e-08 0)
(0.00100001 -2.67499e-08 0)
(0.00100002 -3.30962e-08 0)
(0.00100002 -4.11324e-08 0)
(0.00100003 -4.94915e-08 0)
(0.00100004 -6.07963e-08 0)
(0.00100005 -7.16693e-08 0)
(0.00100007 -8.81487e-08 0)
(0.00100008 -1.02491e-07 0)
(0.0010001 -1.28242e-07 0)
(0.00100011 -1.46989e-07 0)
(0.00100014 -1.88947e-07 0)
(0.00100016 -2.10348e-07 0)
(0.0010002 -2.80297e-07 0)
(0.00100021 -2.95193e-07 0)
(0.00100027 -4.16155e-07 0)
(0.001 -2.72143e-09 0)
(0.001 -8.38272e-09 0)
(0.001 -1.44479e-08 0)
(0.001 -2.13374e-08 0)
(0.00100001 -2.90613e-08 0)
(0.00100001 -3.82217e-08 0)
(0.00100001 -4.83403e-08 0)
(0.00100002 -6.0475e-08 0)
(0.00100002 -7.3223e-08 0)
(0.00100003 -8.91361e-08 0)
(0.00100004 -1.04797e-07 0)
(0.00100005 -1.2629e-07 0)
(0.00100006 -1.45686e-07 0)
(0.00100007 -1.76688e-07 0)
(0.00100009 -2.00517e-07 0)
(0.00100011 -2.47848e-07 0)
(0.00100012 -2.73971e-07 0)
(0.00100015 -3.49229e-07 0)
(0.00100016 -3.6774e-07 0)
(0.00100021 -4.93304e-07 0)
(0.001 -3.0187e-09 0)
(0.001 -9.22369e-09 0)
(0.001 -1.57525e-08 0)
(0.001 -2.29957e-08 0)
(0.001 -3.08803e-08 0)
(0.00100001 -4.00399e-08 0)
(0.00100001 -4.99518e-08 0)
(0.00100001 -6.17652e-08 0)
(0.00100002 -7.40802e-08 0)
(0.00100002 -8.95036e-08 0)
(0.00100003 -1.04727e-07 0)
(0.00100004 -1.25845e-07 0)
(0.00100004 -1.4506e-07 0)
(0.00100006 -1.76009e-07 0)
(0.00100006 -2.00138e-07 0)
(0.00100008 -2.47682e-07 0)
(0.00100009 -2.74439e-07 0)
(0.00100011 -3.49513e-07 0)
(0.00100012 -3.68312e-07 0)
(0.00100015 -4.92146e-07 0)
(0.001 -3.18509e-09 0)
(0.001 -9.69869e-09 0)
(0.001 -1.65057e-08 0)
(0.001 -2.40471e-08 0)
(0.001 -3.22386e-08 0)
(0.001 -4.17876e-08 0)
(0.00100001 -5.22147e-08 0)
(0.00100001 -6.47648e-08 0)
(0.00100001 -7.80005e-08 0)
(0.00100001 -9.45941e-08 0)
(0.00100002 -1.11157e-07 0)
(0.00100002 -1.33798e-07 0)
(0.00100003 -1.54605e-07 0)
(0.00100003 -1.87336e-07 0)
(0.00100004 -2.13143e-07 0)
(0.00100005 -2.62605e-07 0)
(0.00100005 -2.90896e-07 0)
(0.00100007 -3.67955e-07 0)
(0.00100007 -3.87779e-07 0)
(0.00100009 -5.13786e-07 0)
(0.001 -3.26005e-09 0)
(0.001 -9.92173e-09 0)
(0.001 -1.6881e-08 0)
(0.001 -2.45889e-08 0)
(0.001 -3.29962e-08 0)
(0.001 -4.28256e-08 0)
(0.001 -5.36234e-08 0)
(0.001 -6.6583e-08 0)
(0.001 -8.02302e-08 0)
(0.001 -9.72039e-08 0)
(0.00100001 -1.14121e-07 0)
(0.00100001 -1.37087e-07 0)
(0.00100001 -1.58261e-07 0)
(0.00100001 -1.91338e-07 0)
(0.00100001 -2.1758e-07 0)
(0.00100002 -2.67355e-07 0)
(0.00100002 -2.96104e-07 0)
(0.00100002 -3.73257e-07 0)
(0.00100002 -3.93425e-07 0)
(0.00100003 -5.18836e-07 0)
(0.001 -3.26044e-09 0)
(0.001 -9.91604e-09 0)
(0.001 -1.68828e-08 0)
(0.000999999 -2.4588e-08 0)
(0.000999999 -3.30003e-08 0)
(0.000999999 -4.28254e-08 0)
(0.000999998 -5.36284e-08 0)
(0.000999997 -6.65779e-08 0)
(0.000999996 -8.02346e-08 0)
(0.000999995 -9.721e-08 0)
(0.000999994 -1.14122e-07 0)
(0.000999993 -1.37094e-07 0)
(0.000999991 -1.58264e-07 0)
(0.000999989 -1.9133e-07 0)
(0.000999987 -2.17577e-07 0)
(0.000999984 -2.67357e-07 0)
(0.000999982 -2.96107e-07 0)
(0.000999978 -3.73265e-07 0)
(0.000999977 -3.93439e-07 0)
(0.00099997 -5.18841e-07 0)
(0.001 -3.18003e-09 0)
(0.001 -9.68972e-09 0)
(0.000999999 -1.65146e-08 0)
(0.000999999 -2.40463e-08 0)
(0.000999997 -3.22515e-08 0)
(0.000999996 -4.17843e-08 0)
(0.000999994 -5.22217e-08 0)
(0.000999992 -6.47496e-08 0)
(0.000999989 -7.79987e-08 0)
(0.000999986 -9.46061e-08 0)
(0.000999982 -1.11158e-07 0)
(0.000999978 -1.33804e-07 0)
(0.000999973 -1.54608e-07 0)
(0.000999967 -1.87324e-07 0)
(0.000999961 -2.13137e-07 0)
(0.000999952 -2.62593e-07 0)
(0.000999946 -2.90886e-07 0)
(0.000999933 -3.67946e-07 0)
(0.00099993 -3.87789e-07 0)
(0.000999911 -5.13749e-07 0)
(0.001 -3.00587e-09 0)
(0.001 -9.22315e-09 0)
(0.000999999 -1.57612e-08 0)
(0.000999998 -2.3001e-08 0)
(0.000999996 -3.08914e-08 0)
(0.000999994 -4.00329e-08 0)
(0.000999991 -4.99447e-08 0)
(0.000999987 -6.17504e-08 0)
(0.000999983 -7.40553e-08 0)
(0.000999977 -8.95061e-08 0)
(0.000999971 -1.04735e-07 0)
(0.000999963 -1.25846e-07 0)
(0.000999956 -1.45067e-07 0)
(0.000999945 -1.76021e-07 0)
(0.000999936 -2.00154e-07 0)
(0.000999921 -2.47684e-07 0)
(0.000999911 -2.74443e-07 0)
(0.00099989 -3.49526e-07 0)
(0.000999882 -3.68348e-07 0)
(0.000999852 -4.92151e-07 0)
(0.001 -2.71476e-09 0)
(0.000999999 -8.38708e-09 0)
(0.000999998 -1.44457e-08 0)
(0.000999996 -2.13474e-08 0)
(0.000999994 -2.90498e-08 0)
(0.000999991 -3.822e-08 0)
(0.000999987 -4.83149e-08 0)
(0.000999982 -6.04709e-08 0)
(0.000999977 -7.31865e-08 0)
(0.000999969 -8.90955e-08 0)
(0.000999962 -1.0478e-07 0)
(0.000999951 -1.26263e-07 0)
(0.00099994 -1.45663e-07 0)
(0.000999925 -1.76665e-07 0)
(0.000999913 -2.00495e-07 0)
(0.000999891 -2.47794e-07 0)
(0.000999878 -2.73917e-07 0)
(0.000999846 -3.4914e-07 0)
(0.000999839 -3.67669e-07 0)
(0.000999792 -4.93166e-07 0)
(0.001 -2.38161e-09 0)
(0.000999999 -7.04308e-09 0)
(0.000999997 -1.14886e-08 0)
(0.000999995 -1.61208e-08 0)
(0.000999992 -2.09504e-08 0)
(0.000999987 -2.67714e-08 0)
(0.000999982 -3.30884e-08 0)
(0.000999976 -4.11532e-08 0)
(0.000999968 -4.95129e-08 0)
(0.000999959 -6.07747e-08 0)
(0.000999948 -7.16533e-08 0)
(0.000999935 -8.81384e-08 0)
(0.000999922 -1.02488e-07 0)
(0.000999903 -1.28241e-07 0)
(0.000999886 -1.46995e-07 0)
(0.000999859 -1.88945e-07 0)
(0.000999841 -2.1035e-07 0)
(0.000999802 -2.80278e-07 0)
(0.000999788 -2.95182e-07 0)
(0.000999731 -4.16132e-07 0)
(0.001 -2.7786e-09 0)
(0.001 -8.8938e-09 0)
(0.000999999 -1.581e-08 0)
(0.000999997 -2.37551e-08 0)
(0.000999994 -3.24334e-08 0)
(0.00099999 -4.22522e-08 0)
(0.000999984 -5.25833e-08 0)
(0.000999977 -6.4514e-08 0)
(0.000999969 -7.66747e-08 0)
(0.000999958 -9.15183e-08 0)
(0.000999946 -1.05759e-07 0)
(0.00099993 -1.25257e-07 0)
(0.000999914 -1.4221e-07 0)
(0.000999891 -1.70026e-07 0)
(0.000999872 -1.90225e-07 0)
(0.000999837 -2.33274e-07 0)
(0.000999817 -2.552e-07 0)
(0.000999764 -3.26224e-07 0)
(0.000999752 -3.41823e-07 0)
(0.00099967 -4.65035e-07 0)
(0.001 -2.98376e-11 0)
(0.000999998 3.33672e-10 0)
(0.000999995 1.16282e-09 0)
(0.000999991 1.96195e-09 0)
(0.000999986 2.58838e-09 0)
(0.00099998 2.38576e-09 0)
(0.000999974 1.69734e-09 0)
(0.000999965 -4.11169e-10 0)
(0.000999955 -2.68654e-09 0)
(0.000999943 -7.43837e-09 0)
(0.000999929 -1.14243e-08 0)
(0.000999911 -2.03795e-08 0)
(0.000999893 -2.67003e-08 0)
(0.000999867 -4.3458e-08 0)
(0.000999845 -5.26525e-08 0)
(0.000999805 -8.40698e-08 0)
(0.000999779 -9.50215e-08 0)
(0.00099972 -1.54455e-07 0)
(0.000999699 -1.61314e-07 0)
(0.000999611 -2.7655e-07 0)
(0.001 -3.86047e-09 0)
(0.001 -1.27851e-08 0)
(0.001 -2.27209e-08 0)
(0.000999998 -3.32721e-08 0)
(0.000999995 -4.38477e-08 0)
(0.00099999 -5.4699e-08 0)
(0.000999983 -6.5704e-08 0)
(0.000999974 -7.74828e-08 0)
(0.000999963 -8.91418e-08 0)
(0.000999949 -1.02845e-07 0)
(0.000999935 -1.15448e-07 0)
(0.000999914 -1.3235e-07 0)
(0.000999895 -1.46153e-07 0)
(0.000999864 -1.69405e-07 0)
(0.000999841 -1.84471e-07 0)
(0.000999791 -2.20465e-07 0)
(0.000999767 -2.3539e-07 0)
(0.000999687 -2.97454e-07 0)
(0.000999672 -3.06546e-07 0)
(0.000999539 -4.22676e-07 0)
(0.001 4.05201e-09 0)
(0.000999996 1.21392e-08 0)
(0.000999991 2.02631e-08 0)
(0.000999987 2.80366e-08 0)
(0.000999982 3.53453e-08 0)
(0.000999976 4.17843e-08 0)
(0.000999969 4.80871e-08 0)
(0.000999959 5.32228e-08 0)
(0.000999948 5.86082e-08 0)
(0.000999934 6.24267e-08 0)
(0.000999919 6.7012e-08 0)
(0.000999897 6.86311e-08 0)
(0.000999877 7.27794e-08 0)
(0.000999844 7.00493e-08 0)
(0.000999819 7.42235e-08 0)
(0.000999767 6.19365e-08 0)
(0.000999738 6.73548e-08 0)
(0.000999654 3.19455e-08 0)
(0.000999629 3.99306e-08 0)
(0.000999495 -5.45814e-08 0)
(0.001 -8.67571e-09 0)
(0.001 -2.36638e-08 0)
(0.001 -3.58618e-08 0)
(0.000999997 -4.65559e-08 0)
(0.000999993 -5.67599e-08 0)
(0.000999986 -6.75205e-08 0)
(0.000999979 -7.79518e-08 0)
(0.000999968 -8.94804e-08 0)
(0.000999958 -1.0022e-07 0)
(0.000999942 -1.12176e-07 0)
(0.000999928 -1.22814e-07 0)
(0.000999903 -1.36155e-07 0)
(0.000999885 -1.46334e-07 0)
(0.000999846 -1.63031e-07 0)
(0.000999826 -1.7186e-07 0)
(0.00099976 -1.96044e-07 0)
(0.000999742 -2.00764e-07 0)
(0.000999623 -2.43117e-07 0)
(0.000999618 -2.395e-07 0)
(0.000999393 -3.32298e-07 0)
)
;

boundaryField
{
    sides
    {
        type            slip;
    }
    inlet
    {
        type            fixedValue;
        value           uniform (0.001 0 0);
    }
    outlet
    {
        type            zeroGradient;
    }
    frontAndBack
    {
        type            empty;
    }
}


// ************************************************************************* //
