/*--------------------------------*- C++ -*----------------------------------*\
  =========                 |
  \\      /  F ield         | OpenFOAM: The Open Source CFD Toolbox
   \\    /   O peration     | Website:  https://openfoam.org
    \\  /    A nd           | Version:  7
     \\/     M anipulation  |
\*---------------------------------------------------------------------------*/
FoamFile
{
    version     2.0;
    format      ascii;
    class       surfaceScalarField;
    location    "58";
    object      phi;
}
// * * * * * * * * * * * * * * * * * * * * * * * * * * * * * * * * * * * * * //

dimensions      [0 4 -1 0 0 0 0];

internalField   nonuniform List<scalar> 
760
(
4.99999e-06
1.02392e-11
4.99999e-06
-3.84519e-12
5.00001e-06
-1.21967e-11
5.00003e-06
-1.8486e-11
5.00005e-06
-2.52758e-11
5.00009e-06
-3.47546e-11
5.00013e-06
-4.72619e-11
5.00018e-06
-6.3316e-11
5.00025e-06
-6.32965e-11
5.00033e-06
-7.85943e-11
5.00042e-06
-9.04206e-11
5.00053e-06
-1.13893e-10
5.00066e-06
-1.26269e-10
5.00083e-06
-1.66746e-10
5.001e-06
-1.76889e-10
5.00126e-06
-2.55664e-10
5.00151e-06
-2.55505e-10
5.00195e-06
-4.31407e-10
5.00236e-06
-4.14505e-10
-8.92612e-10
5.00002e-06
-1.1546e-11
5.00004e-06
-1.77718e-11
5.00005e-06
-2.77241e-11
5.00007e-06
-3.99377e-11
5.0001e-06
-5.2529e-11
5.00014e-06
-6.73305e-11
5.00018e-06
-8.41213e-11
5.00023e-06
-1.04168e-10
5.00029e-06
-1.24201e-10
5.00037e-06
-1.54205e-10
5.00046e-06
-1.77726e-10
5.00056e-06
-2.21957e-10
5.00069e-06
-2.49162e-10
5.00084e-06
-3.22057e-10
5.00102e-06
-3.51562e-10
5.00125e-06
-4.83689e-10
5.0015e-06
-5.07821e-10
5.00184e-06
-7.67267e-10
5.00218e-06
-7.60593e-10
-1.2638e-09
4.99999e-06
-3.88833e-12
4.99999e-06
-1.89553e-11
5e-06
-3.55036e-11
5.00002e-06
-5.41291e-11
5.00004e-06
-7.40424e-11
5.00007e-06
-9.70442e-11
5.00011e-06
-1.21759e-10
5.00016e-06
-1.52099e-10
5.00022e-06
-1.83445e-10
5.00029e-06
-2.251e-10
5.00037e-06
-2.63121e-10
5.00047e-06
-3.23005e-10
5.0006e-06
-3.70171e-10
5.00074e-06
-4.64339e-10
5.00091e-06
-5.22127e-10
5.00111e-06
-6.82987e-10
5.00135e-06
-7.45802e-10
5.00162e-06
-1.04018e-09
5.00194e-06
-1.08447e-09
-1.69268e-09
5.00001e-06
-1.18756e-11
5.00002e-06
-3.13846e-11
5.00004e-06
-5.15139e-11
5.00006e-06
-7.41935e-11
5.00008e-06
-9.85349e-11
5.00011e-06
-1.27917e-10
5.00015e-06
-1.58756e-10
5.0002e-06
-1.98091e-10
5.00025e-06
-2.37607e-10
5.00032e-06
-2.90631e-10
5.0004e-06
-3.39593e-10
5.00049e-06
-4.15081e-10
5.00059e-06
-4.76136e-10
5.00072e-06
-5.92286e-10
5.00087e-06
-6.67989e-10
5.00105e-06
-8.60047e-10
5.00124e-06
-9.44009e-10
5.00148e-06
-1.27871e-09
5.00173e-06
-1.33303e-09
-1.90191e-09
5e-06
-1.07303e-11
5e-06
-3.42144e-11
5.00001e-06
-5.88175e-11
5.00002e-06
-8.63045e-11
5.00004e-06
-1.16139e-10
5.00006e-06
-1.51554e-10
5.0001e-06
-1.89717e-10
5.00013e-06
-2.36546e-10
5.00018e-06
-2.84937e-10
5.00024e-06
-3.4746e-10
5.00031e-06
-4.08131e-10
5.00039e-06
-4.9542e-10
5.00048e-06
-5.71658e-10
5.00059e-06
-7.02458e-10
5.00072e-06
-7.97894e-10
5.00087e-06
-1.00664e-09
5.00104e-06
-1.11309e-09
5.00122e-06
-1.46003e-09
5.00142e-06
-1.53466e-09
-2.1675e-09
5e-06
-1.30061e-11
5.00001e-06
-4.06596e-11
5.00002e-06
-6.91553e-11
5.00003e-06
-1.00457e-10
5.00005e-06
-1.3441e-10
5.00008e-06
-1.74428e-10
5.0001e-06
-2.1814e-10
5.00014e-06
-2.71328e-10
5.00018e-06
-3.26539e-10
5.00023e-06
-3.97344e-10
5.00029e-06
-4.66178e-10
5.00036e-06
-5.63661e-10
5.00044e-06
-6.49954e-10
5.00053e-06
-7.94069e-10
5.00063e-06
-9.01769e-10
5.00075e-06
-1.12725e-09
5.00089e-06
-1.24704e-09
5.00104e-06
-1.61407e-09
5.00121e-06
-1.69956e-09
-2.29907e-09
5e-06
-1.48002e-11
5.00001e-06
-4.49167e-11
5.00001e-06
-7.61469e-11
5.00002e-06
-1.10173e-10
5.00004e-06
-1.47443e-10
5.00005e-06
-1.91269e-10
5.00007e-06
-2.39457e-10
5.0001e-06
-2.97514e-10
5.00013e-06
-3.58591e-10
5.00017e-06
-4.35651e-10
5.00022e-06
-5.11728e-10
5.00027e-06
-6.17019e-10
5.00033e-06
-7.1247e-10
5.00041e-06
-8.65835e-10
5.00049e-06
-9.84479e-10
5.00058e-06
-1.22004e-09
5.00069e-06
-1.35105e-09
5.0008e-06
-1.72438e-09
5.00091e-06
-1.81426e-09
-2.44789e-09
5e-06
-1.58647e-11
5e-06
-4.7847e-11
5.00001e-06
-8.09482e-11
5.00002e-06
-1.1741e-10
5.00003e-06
-1.5726e-10
5.00004e-06
-2.04102e-10
5.00006e-06
-2.55598e-10
5.00008e-06
-3.17529e-10
5.0001e-06
-3.82807e-10
5.00013e-06
-4.64398e-10
5.00016e-06
-5.45411e-10
5.0002e-06
-6.56288e-10
5.00025e-06
-7.57527e-10
5.0003e-06
-9.17627e-10
5.00036e-06
-1.04306e-09
5.00042e-06
-1.28611e-09
5.0005e-06
-1.42373e-09
5.00058e-06
-1.8049e-09
5.00067e-06
-1.90275e-09
-2.52248e-09
5e-06
-1.64093e-11
5e-06
-4.96236e-11
5.00001e-06
-8.39378e-11
5.00001e-06
-1.21994e-10
5.00002e-06
-1.63508e-10
5.00002e-06
-2.12141e-10
5.00003e-06
-2.65499e-10
5.00005e-06
-3.29617e-10
5.00006e-06
-3.97243e-10
5.00008e-06
-4.81486e-10
5.0001e-06
-5.65507e-10
5.00012e-06
-6.79672e-10
5.00015e-06
-7.84533e-10
5.00018e-06
-9.48662e-10
5.00022e-06
-1.07833e-09
5.00026e-06
-1.32567e-09
5.0003e-06
-1.46744e-09
5.00035e-06
-1.85206e-09
5.00039e-06
-1.95019e-09
-2.57861e-09
5e-06
-1.65689e-11
5e-06
-5.0171e-11
5e-06
-8.50053e-11
5e-06
-1.23595e-10
5.00001e-06
-1.65705e-10
5.00001e-06
-2.14844e-10
5.00001e-06
-2.68783e-10
5.00002e-06
-3.33554e-10
5.00002e-06
-4.01993e-10
5.00003e-06
-4.87234e-10
5.00003e-06
-5.72303e-10
5.00004e-06
-6.876e-10
5.00005e-06
-7.93716e-10
5.00006e-06
-9.59044e-10
5.00007e-06
-1.09003e-09
5.00009e-06
-1.33859e-09
5.0001e-06
-1.48177e-09
5.00011e-06
-1.86726e-09
5.00013e-06
-1.9675e-09
-2.59507e-09
5e-06
-1.63718e-11
5e-06
-4.95318e-11
5e-06
-8.39938e-11
5e-06
-1.22021e-10
4.99999e-06
-1.63617e-10
4.99999e-06
-2.12157e-10
4.99999e-06
-2.65529e-10
4.99998e-06
-3.29573e-10
4.99998e-06
-3.97175e-10
4.99997e-06
-4.81519e-10
4.99997e-06
-5.65477e-10
4.99996e-06
-6.79657e-10
4.99995e-06
-7.84619e-10
4.99994e-06
-9.48684e-10
4.99993e-06
-1.07825e-09
4.99991e-06
-1.32555e-09
4.9999e-06
-1.4674e-09
4.99989e-06
-1.85212e-09
4.99987e-06
-1.95034e-09
-2.57858e-09
5e-06
-1.57774e-11
5e-06
-4.78295e-11
4.99999e-06
-8.09935e-11
4.99999e-06
-1.17457e-10
4.99998e-06
-1.57326e-10
4.99998e-06
-2.04094e-10
4.99997e-06
-2.55535e-10
4.99995e-06
-3.17448e-10
4.99994e-06
-3.8263e-10
4.99992e-06
-4.64341e-10
4.9999e-06
-5.45375e-10
4.99988e-06
-6.56213e-10
4.99985e-06
-7.57536e-10
4.99982e-06
-9.17658e-10
4.99978e-06
-1.04304e-09
4.99974e-06
-1.28598e-09
4.9997e-06
-1.42363e-09
4.99965e-06
-1.80489e-09
4.99961e-06
-1.90288e-09
-2.52241e-09
5e-06
-1.4773e-11
5e-06
-4.49412e-11
4.99999e-06
-7.61045e-11
4.99998e-06
-1.10228e-10
4.99997e-06
-1.47357e-10
4.99996e-06
-1.91285e-10
4.99994e-06
-2.39328e-10
4.99992e-06
-2.97481e-10
4.9999e-06
-3.58477e-10
4.99987e-06
-4.35468e-10
4.99984e-06
-5.11664e-10
4.9998e-06
-6.16949e-10
4.99975e-06
-7.12404e-10
4.9997e-06
-8.65822e-10
4.99964e-06
-9.84525e-10
4.99958e-06
-1.21994e-09
4.9995e-06
-1.35094e-09
4.99942e-06
-1.72424e-09
4.99933e-06
-1.81424e-09
-2.4476e-09
5e-06
-1.30757e-11
4.99999e-06
-4.0664e-11
4.99999e-06
-6.9106e-11
4.99998e-06
-1.00393e-10
4.99996e-06
-1.343e-10
4.99995e-06
-1.74501e-10
4.99993e-06
-2.18141e-10
4.9999e-06
-2.71358e-10
4.99987e-06
-3.26724e-10
4.99983e-06
-3.97292e-10
4.99978e-06
-4.66064e-10
4.99973e-06
-5.63552e-10
4.99967e-06
-6.49849e-10
4.99959e-06
-7.93984e-10
4.99951e-06
-9.0177e-10
4.99942e-06
-1.12715e-09
4.99931e-06
-1.24691e-09
4.9992e-06
-1.61376e-09
4.99909e-06
-1.69929e-09
-2.29862e-09
5e-06
-1.08386e-11
4.99999e-06
-3.42096e-11
4.99998e-06
-5.87774e-11
4.99997e-06
-8.61894e-11
4.99995e-06
-1.16223e-10
4.99992e-06
-1.51484e-10
4.9999e-06
-1.89854e-10
4.99986e-06
-2.36485e-10
4.99982e-06
-2.85167e-10
4.99977e-06
-3.47714e-10
4.99971e-06
-4.08198e-10
4.99964e-06
-4.95356e-10
4.99956e-06
-5.71567e-10
4.99947e-06
-7.02323e-10
4.99937e-06
-7.97845e-10
4.99925e-06
-1.00655e-09
4.99911e-06
-1.11302e-09
4.99896e-06
-1.45967e-09
4.99879e-06
-1.53432e-09
-2.16696e-09
5e-06
-1.1929e-11
5e-06
-3.13797e-11
4.99999e-06
-5.15223e-11
4.99998e-06
-7.41696e-11
4.99996e-06
-9.86171e-11
4.99994e-06
-1.27586e-10
4.9999e-06
-1.59072e-10
4.99987e-06
-1.98054e-10
4.99982e-06
-2.37574e-10
4.99976e-06
-2.90853e-10
4.99969e-06
-3.39806e-10
4.99961e-06
-4.1513e-10
4.99952e-06
-4.76105e-10
4.99941e-06
-5.92133e-10
4.99928e-06
-6.67892e-10
4.99913e-06
-8.59915e-10
4.99896e-06
-9.43966e-10
4.99878e-06
-1.27837e-09
4.99858e-06
-1.33271e-09
-1.90132e-09
4.99999e-06
-3.836e-12
4.99998e-06
-1.89777e-11
4.99996e-06
-3.55746e-11
4.99994e-06
-5.42037e-11
4.99992e-06
-7.39271e-11
4.99989e-06
-9.70328e-11
4.99985e-06
-1.21989e-10
4.9998e-06
-1.52349e-10
4.99975e-06
-1.83276e-10
4.99968e-06
-2.25113e-10
4.99961e-06
-2.63301e-10
4.99951e-06
-3.23163e-10
4.99941e-06
-3.7029e-10
4.99928e-06
-4.64317e-10
4.99913e-06
-5.22122e-10
4.99895e-06
-6.82906e-10
4.99876e-06
-7.4586e-10
4.99852e-06
-1.04002e-09
4.99827e-06
-1.08438e-09
-1.69228e-09
5.00001e-06
-1.1449e-11
5.00001e-06
-1.78625e-11
5e-06
-2.78305e-11
4.99998e-06
-4.00365e-11
4.99996e-06
-5.23078e-11
4.99993e-06
-6.81598e-11
4.99989e-06
-8.27729e-11
4.99984e-06
-1.05008e-10
4.99978e-06
-1.24095e-10
4.99971e-06
-1.53889e-10
4.99963e-06
-1.77607e-10
4.99953e-06
-2.21964e-10
4.9994e-06
-2.49271e-10
4.99926e-06
-3.22052e-10
4.99909e-06
-3.51575e-10
4.99889e-06
-4.83542e-10
4.99865e-06
-5.07857e-10
4.99838e-06
-7.67084e-10
4.99806e-06
-7.60547e-10
-1.26334e-09
4.99998e-06
1.03251e-11
4.99996e-06
-3.91335e-12
4.99995e-06
-1.21621e-11
4.99993e-06
-1.8603e-11
4.9999e-06
-2.58854e-11
4.99986e-06
-3.08119e-11
4.99982e-06
-3.3637e-11
4.99977e-06
-5.53505e-11
4.99971e-06
-6.30749e-11
4.99963e-06
-7.83395e-11
4.99954e-06
-9.02382e-11
4.99944e-06
-1.13883e-10
4.99931e-06
-1.2641e-10
4.99916e-06
-1.6687e-10
4.99898e-06
-1.77003e-10
4.99875e-06
-2.55691e-10
4.9985e-06
-2.55615e-10
4.99817e-06
-4.31465e-10
4.99782e-06
-4.14629e-10
-8.92634e-10
5.00001e-06
5.00001e-06
4.99999e-06
4.99997e-06
4.99995e-06
4.99992e-06
4.99987e-06
4.99982e-06
4.99975e-06
4.99967e-06
4.99958e-06
4.99947e-06
4.99934e-06
4.99917e-06
4.999e-06
4.99874e-06
4.99849e-06
4.99805e-06
4.99764e-06
)
;

boundaryField
{
    sides
    {
        type            calculated;
        value           uniform 0;
    }
    inlet
    {
        type            calculated;
        value           nonuniform List<scalar> 
20
(
-5e-06
-5e-06
-5e-06
-5e-06
-5e-06
-5e-06
-5e-06
-5e-06
-5e-06
-5e-06
-5e-06
-5e-06
-5e-06
-5e-06
-5e-06
-5e-06
-5e-06
-5e-06
-5e-06
-5e-06
)
;
    }
    outlet
    {
        type            calculated;
        value           nonuniform List<scalar> 
20
(
5.00325e-06
5.00255e-06
5.00237e-06
5.00194e-06
5.00169e-06
5.00134e-06
5.00106e-06
5.00074e-06
5.00045e-06
5.00015e-06
4.99985e-06
4.99955e-06
4.99926e-06
4.99894e-06
4.99866e-06
4.99831e-06
4.99806e-06
4.99763e-06
4.99745e-06
4.99675e-06
)
;
    }
    frontAndBack
    {
        type            empty;
        value           nonuniform 0();
    }
}


// ************************************************************************* //
