/*--------------------------------*- C++ -*----------------------------------*\
  =========                 |
  \\      /  F ield         | OpenFOAM: The Open Source CFD Toolbox
   \\    /   O peration     | Website:  https://openfoam.org
    \\  /    A nd           | Version:  7
     \\/     M anipulation  |
\*---------------------------------------------------------------------------*/
FoamFile
{
    version     2.0;
    format      ascii;
    class       volVectorField;
    location    "58";
    object      U;
}
// * * * * * * * * * * * * * * * * * * * * * * * * * * * * * * * * * * * * * //

dimensions      [0 1 -1 0 0 0 0];

internalField   nonuniform List<vector> 
400
(
(0.0999931 -8.69484e-07 0)
(0.099993 -2.36423e-06 0)
(0.0999931 -3.58276e-06 0)
(0.0999934 -4.65146e-06 0)
(0.0999939 -5.66659e-06 0)
(0.0999946 -6.72544e-06 0)
(0.0999955 -7.8056e-06 0)
(0.0999966 -8.95301e-06 0)
(0.0999978 -1.00243e-05 0)
(0.0999996 -1.12204e-05 0)
(0.100001 -1.22811e-05 0)
(0.100004 -1.36133e-05 0)
(0.100006 -1.46299e-05 0)
(0.10001 -1.6298e-05 0)
(0.100013 -1.71787e-05 0)
(0.10002 -1.95954e-05 0)
(0.100022 -2.00654e-05 0)
(0.100035 -2.43003e-05 0)
(0.100036 -2.39379e-05 0)
(0.10006 -3.32159e-05 0)
(0.0999943 4.00852e-07 0)
(0.0999947 1.21526e-06 0)
(0.0999952 2.02825e-06 0)
(0.0999957 2.80583e-06 0)
(0.0999962 3.53713e-06 0)
(0.0999969 4.19066e-06 0)
(0.0999977 4.79322e-06 0)
(0.0999988 5.31507e-06 0)
(0.1 5.85166e-06 0)
(0.100002 6.23255e-06 0)
(0.100003 6.69604e-06 0)
(0.100006 6.8606e-06 0)
(0.100008 7.27677e-06 0)
(0.100012 7.0022e-06 0)
(0.100015 7.42039e-06 0)
(0.10002 6.1893e-06 0)
(0.100024 6.73408e-06 0)
(0.100033 3.18861e-06 0)
(0.100036 3.98982e-06 0)
(0.10005 -5.46935e-06 0)
(0.0999947 -3.86828e-07 0)
(0.0999947 -1.27694e-06 0)
(0.0999947 -2.26909e-06 0)
(0.0999949 -3.3219e-06 0)
(0.0999953 -4.38111e-06 0)
(0.0999959 -5.47194e-06 0)
(0.0999967 -6.55823e-06 0)
(0.0999977 -7.73649e-06 0)
(0.0999988 -8.91056e-06 0)
(0.1 -1.02844e-05 0)
(0.100002 -1.15468e-05 0)
(0.100004 -1.32392e-05 0)
(0.100006 -1.46191e-05 0)
(0.10001 -1.6944e-05 0)
(0.100013 -1.84463e-05 0)
(0.100018 -2.20449e-05 0)
(0.100021 -2.35308e-05 0)
(0.100029 -2.97425e-05 0)
(0.100032 -3.06469e-05 0)
(0.100046 -4.22729e-05 0)
(0.0999956 -4.00311e-10 0)
(0.0999958 3.50461e-08 0)
(0.0999962 1.1856e-07 0)
(0.0999966 1.99076e-07 0)
(0.0999971 2.65421e-07 0)
(0.0999978 2.44902e-07 0)
(0.0999985 1.84259e-07 0)
(0.0999995 -3.15683e-08 0)
(0.100001 -2.60419e-07 0)
(0.100002 -7.37028e-07 0)
(0.100003 -1.14145e-06 0)
(0.100005 -2.04237e-06 0)
(0.100007 -2.67672e-06 0)
(0.10001 -4.35203e-06 0)
(0.100013 -5.26762e-06 0)
(0.100017 -8.40585e-06 0)
(0.10002 -9.49554e-06 0)
(0.100027 -1.54422e-05 0)
(0.100029 -1.61253e-05 0)
(0.100039 -2.76577e-05 0)
(0.0999962 -2.7596e-07 0)
(0.0999963 -8.88802e-07 0)
(0.0999964 -1.5807e-06 0)
(0.0999966 -2.37551e-06 0)
(0.0999969 -3.23953e-06 0)
(0.0999974 -4.22091e-06 0)
(0.099998 -5.24928e-06 0)
(0.0999988 -6.44558e-06 0)
(0.0999997 -7.66047e-06 0)
(0.100001 -9.14899e-06 0)
(0.100002 -1.05796e-05 0)
(0.100004 -1.25343e-05 0)
(0.100006 -1.42313e-05 0)
(0.100008 -1.70128e-05 0)
(0.100011 -1.9028e-05 0)
(0.100014 -2.33303e-05 0)
(0.100017 -2.55162e-05 0)
(0.100022 -3.26249e-05 0)
(0.100024 -3.41805e-05 0)
(0.100033 -4.6516e-05 0)
(0.0999969 -2.36984e-07 0)
(0.099997 -7.02549e-07 0)
(0.0999972 -1.14593e-06 0)
(0.0999975 -1.60663e-06 0)
(0.0999979 -2.08702e-06 0)
(0.0999984 -2.66472e-06 0)
(0.0999989 -3.29573e-06 0)
(0.0999997 -4.10287e-06 0)
(0.1 -4.94129e-06 0)
(0.100002 -6.07646e-06 0)
(0.100003 -7.17166e-06 0)
(0.100004 -8.82465e-06 0)
(0.100006 -1.02609e-05 0)
(0.100008 -1.28324e-05 0)
(0.10001 -1.47013e-05 0)
(0.100013 -1.88897e-05 0)
(0.100015 -2.10234e-05 0)
(0.100019 -2.80182e-05 0)
(0.100021 -2.95047e-05 0)
(0.100027 -4.161e-05 0)
(0.0999976 -2.72205e-07 0)
(0.0999977 -8.38086e-07 0)
(0.0999978 -1.44302e-06 0)
(0.099998 -2.13045e-06 0)
(0.0999983 -2.89996e-06 0)
(0.0999986 -3.8131e-06 0)
(0.099999 -4.82273e-06 0)
(0.0999996 -6.0376e-06 0)
(0.1 -7.31316e-06 0)
(0.100001 -8.91087e-06 0)
(0.100002 -1.04842e-05 0)
(0.100003 -1.26376e-05 0)
(0.100004 -1.45798e-05 0)
(0.100006 -1.7677e-05 0)
(0.100007 -2.00544e-05 0)
(0.10001 -2.47808e-05 0)
(0.100011 -2.73863e-05 0)
(0.100015 -3.49113e-05 0)
(0.100016 -3.67586e-05 0)
(0.100021 -4.93237e-05 0)
(0.0999983 -3.02529e-07 0)
(0.0999984 -9.22471e-07 0)
(0.0999984 -1.57358e-06 0)
(0.0999986 -2.29432e-06 0)
(0.0999988 -3.08022e-06 0)
(0.099999 -3.99193e-06 0)
(0.0999994 -4.98239e-06 0)
(0.0999998 -6.16443e-06 0)
(0.1 -7.40013e-06 0)
(0.100001 -8.95042e-06 0)
(0.100002 -1.04797e-05 0)
(0.100002 -1.25961e-05 0)
(0.100003 -1.45194e-05 0)
(0.100004 -1.76098e-05 0)
(0.100006 -2.00161e-05 0)
(0.100007 -2.47627e-05 0)
(0.100008 -2.74309e-05 0)
(0.100011 -3.49376e-05 0)
(0.100011 -3.68135e-05 0)
(0.100015 -4.92075e-05 0)
(0.099999 -3.19534e-07 0)
(0.099999 -9.70204e-07 0)
(0.0999991 -1.64865e-06 0)
(0.0999992 -2.39917e-06 0)
(0.0999993 -3.21528e-06 0)
(0.0999994 -4.16695e-06 0)
(0.0999996 -5.20878e-06 0)
(0.0999999 -6.46402e-06 0)
(0.1 -7.7926e-06 0)
(0.100001 -9.45785e-06 0)
(0.100001 -1.11209e-05 0)
(0.100001 -1.33905e-05 0)
(0.100002 -1.54725e-05 0)
(0.100003 -1.87414e-05 0)
(0.100003 -2.13172e-05 0)
(0.100004 -2.62564e-05 0)
(0.100005 -2.90776e-05 0)
(0.100006 -3.67824e-05 0)
(0.100007 -3.876e-05 0)
(0.100009 -5.13709e-05 0)
(0.0999997 -3.26781e-07 0)
(0.0999997 -9.92751e-07 0)
(0.0999997 -1.68621e-06 0)
(0.0999997 -2.45385e-06 0)
(0.0999998 -3.29081e-06 0)
(0.0999998 -4.27047e-06 0)
(0.0999999 -5.34848e-06 0)
(0.1 -6.64517e-06 0)
(0.1 -8.01495e-06 0)
(0.1 -9.71839e-06 0)
(0.1 -1.14177e-05 0)
(0.1 -1.37197e-05 0)
(0.100001 -1.58381e-05 0)
(0.100001 -1.91412e-05 0)
(0.100001 -2.17601e-05 0)
(0.100001 -2.67302e-05 0)
(0.100002 -2.95973e-05 0)
(0.100002 -3.73121e-05 0)
(0.100002 -3.93245e-05 0)
(0.100003 -5.18763e-05 0)
(0.1 -3.26424e-07 0)
(0.1 -9.919e-07 0)
(0.1 -1.68678e-06 0)
(0.1 -2.45413e-06 0)
(0.1 -3.29189e-06 0)
(0.1 -4.27062e-06 0)
(0.1 -5.3488e-06 0)
(0.1 -6.64475e-06 0)
(0.0999999 -8.0143e-06 0)
(0.0999998 -9.7188e-06 0)
(0.0999997 -1.14174e-05 0)
(0.0999995 -1.37197e-05 0)
(0.0999993 -1.58391e-05 0)
(0.0999991 -1.91415e-05 0)
(0.0999989 -2.17593e-05 0)
(0.0999986 -2.67292e-05 0)
(0.0999983 -2.95971e-05 0)
(0.0999979 -3.7313e-05 0)
(0.0999977 -3.93262e-05 0)
(0.0999971 -5.18769e-05 0)
(0.100001 -3.18326e-07 0)
(0.100001 -9.69182e-07 0)
(0.100001 -1.64969e-06 0)
(0.100001 -2.39994e-06 0)
(0.100001 -3.21704e-06 0)
(0.100001 -4.1671e-06 0)
(0.1 -5.20859e-06 0)
(0.1 -6.46291e-06 0)
(0.0999998 -7.79027e-06 0)
(0.0999995 -9.4578e-06 0)
(0.0999991 -1.11204e-05 0)
(0.0999985 -1.33896e-05 0)
(0.099998 -1.54735e-05 0)
(0.0999973 -1.87417e-05 0)
(0.0999967 -2.1316e-05 0)
(0.0999957 -2.62533e-05 0)
(0.099995 -2.90756e-05 0)
(0.0999936 -3.67817e-05 0)
(0.0999931 -3.87616e-05 0)
(0.0999912 -5.13677e-05 0)
(0.100002 -3.01387e-07 0)
(0.100002 -9.22517e-07 0)
(0.100002 -1.57366e-06 0)
(0.100001 -2.29537e-06 0)
(0.100001 -3.08013e-06 0)
(0.100001 -3.99221e-06 0)
(0.100001 -4.98074e-06 0)
(0.1 -6.16368e-06 0)
(0.0999998 -7.39763e-06 0)
(0.0999991 -8.94867e-06 0)
(0.0999985 -1.04796e-05 0)
(0.0999976 -1.25957e-05 0)
(0.0999967 -1.45199e-05 0)
(0.0999956 -1.76114e-05 0)
(0.0999945 -2.00181e-05 0)
(0.0999929 -2.47626e-05 0)
(0.0999917 -2.7431e-05 0)
(0.0999894 -3.49392e-05 0)
(0.0999885 -3.68177e-05 0)
(0.0999853 -4.92085e-05 0)
(0.100002 -2.72616e-07 0)
(0.100002 -8.38363e-07 0)
(0.100002 -1.44212e-06 0)
(0.100002 -2.13043e-06 0)
(0.100002 -2.89803e-06 0)
(0.100001 -3.81383e-06 0)
(0.100001 -4.82121e-06 0)
(0.1 -6.03726e-06 0)
(0.0999998 -7.31334e-06 0)
(0.099999 -8.90784e-06 0)
(0.0999981 -1.04819e-05 0)
(0.0999969 -1.26352e-05 0)
(0.0999957 -1.45773e-05 0)
(0.099994 -1.76748e-05 0)
(0.0999926 -2.00535e-05 0)
(0.0999902 -2.47766e-05 0)
(0.0999887 -2.73816e-05 0)
(0.0999853 -3.4903e-05 0)
(0.0999843 -3.67517e-05 0)
(0.0999793 -4.93101e-05 0)
(0.100003 -2.38692e-07 0)
(0.100003 -7.02766e-07 0)
(0.100003 -1.14539e-06 0)
(0.100002 -1.60544e-06 0)
(0.100002 -2.08691e-06 0)
(0.100002 -2.66539e-06 0)
(0.100001 -3.29758e-06 0)
(0.1 -4.10346e-06 0)
(0.0999995 -4.94616e-06 0)
(0.0999985 -6.07908e-06 0)
(0.0999973 -7.17197e-06 0)
(0.0999958 -8.82431e-06 0)
(0.0999943 -1.02606e-05 0)
(0.0999922 -1.28325e-05 0)
(0.0999904 -1.47031e-05 0)
(0.0999874 -1.88911e-05 0)
(0.0999853 -2.10247e-05 0)
(0.0999811 -2.80164e-05 0)
(0.0999793 -2.95029e-05 0)
(0.0999733 -4.16072e-05 0)
(0.100004 -2.77418e-07 0)
(0.100004 -8.88831e-07 0)
(0.100004 -1.58049e-06 0)
(0.100003 -2.37366e-06 0)
(0.100003 -3.24093e-06 0)
(0.100003 -4.21778e-06 0)
(0.100002 -5.25332e-06 0)
(0.100001 -6.44442e-06 0)
(0.1 -7.66237e-06 0)
(0.0999991 -9.15337e-06 0)
(0.0999977 -1.05819e-05 0)
(0.0999959 -1.25337e-05 0)
(0.0999942 -1.42299e-05 0)
(0.0999916 -1.70093e-05 0)
(0.0999894 -1.90259e-05 0)
(0.0999856 -2.33265e-05 0)
(0.0999833 -2.55139e-05 0)
(0.0999776 -3.2615e-05 0)
(0.099976 -3.41714e-05 0)
(0.0999673 -4.64987e-05 0)
(0.100004 -9.42874e-10 0)
(0.100004 3.53146e-08 0)
(0.100004 1.1768e-07 0)
(0.100003 1.99251e-07 0)
(0.100003 2.65217e-07 0)
(0.100002 2.47612e-07 0)
(0.100001 1.77883e-07 0)
(0.100001 -3.33653e-08 0)
(0.0999995 -2.60496e-07 0)
(0.0999981 -7.42286e-07 0)
(0.0999966 -1.14711e-06 0)
(0.0999945 -2.04541e-06 0)
(0.0999925 -2.67807e-06 0)
(0.0999896 -4.35115e-06 0)
(0.0999871 -5.26714e-06 0)
(0.0999828 -8.40498e-06 0)
(0.0999798 -9.49618e-06 0)
(0.0999734 -1.5439e-05 0)
(0.0999707 -1.61219e-05 0)
(0.0999614 -2.76511e-05 0)
(0.100005 -3.85389e-07 0)
(0.100005 -1.27717e-06 0)
(0.100005 -2.27048e-06 0)
(0.100005 -3.32516e-06 0)
(0.100005 -4.37818e-06 0)
(0.100004 -5.46739e-06 0)
(0.100003 -6.56026e-06 0)
(0.100002 -7.74816e-06 0)
(0.100001 -8.91106e-06 0)
(0.0999996 -1.02839e-05 0)
(0.099998 -1.15487e-05 0)
(0.0999957 -1.32418e-05 0)
(0.0999936 -1.46229e-05 0)
(0.0999901 -1.69455e-05 0)
(0.0999874 -1.84488e-05 0)
(0.0999821 -2.20448e-05 0)
(0.0999791 -2.35347e-05 0)
(0.0999706 -2.97413e-05 0)
(0.0999684 -3.06487e-05 0)
(0.0999544 -4.22656e-05 0)
(0.100006 4.04035e-07 0)
(0.100005 1.2136e-06 0)
(0.100005 2.02795e-06 0)
(0.100004 2.80407e-06 0)
(0.100004 3.53322e-06 0)
(0.100003 4.17626e-06 0)
(0.100002 4.80952e-06 0)
(0.100001 5.32366e-06 0)
(0.1 5.8565e-06 0)
(0.0999983 6.24448e-06 0)
(0.0999967 6.70308e-06 0)
(0.0999943 6.86253e-06 0)
(0.099992 7.27579e-06 0)
(0.0999884 7.00317e-06 0)
(0.0999855 7.42182e-06 0)
(0.0999799 6.19389e-06 0)
(0.0999764 6.73634e-06 0)
(0.0999674 3.1949e-06 0)
(0.0999642 3.99414e-06 0)
(0.09995 -5.45722e-06 0)
(0.100007 -8.67895e-07 0)
(0.100007 -2.36578e-06 0)
(0.100007 -3.5834e-06 0)
(0.100007 -4.65213e-06 0)
(0.100006 -5.67494e-06 0)
(0.100005 -6.74714e-06 0)
(0.100005 -7.79455e-06 0)
(0.100003 -8.93956e-06 0)
(0.100002 -1.00248e-05 0)
(0.1 -1.12179e-05 0)
(0.0999988 -1.22828e-05 0)
(0.0999961 -1.36189e-05 0)
(0.099994 -1.46376e-05 0)
(0.0999898 -1.63056e-05 0)
(0.0999874 -1.71865e-05 0)
(0.0999803 -1.96028e-05 0)
(0.0999779 -2.00738e-05 0)
(0.0999653 -2.43095e-05 0)
(0.0999638 -2.39472e-05 0)
(0.0999402 -3.32294e-05 0)
)
;

boundaryField
{
    sides
    {
        type            calculated;
        value           nonuniform List<vector> 
40
(
(0.100007 0 0)
(0.100007 0 0)
(0.100007 0 0)
(0.100007 0 0)
(0.100006 0 0)
(0.100005 0 0)
(0.100005 0 0)
(0.100003 0 0)
(0.100002 0 0)
(0.1 0 0)
(0.0999988 0 0)
(0.0999961 0 0)
(0.099994 0 0)
(0.0999898 0 0)
(0.0999874 0 0)
(0.0999803 0 0)
(0.0999779 0 0)
(0.0999653 0 0)
(0.0999638 0 0)
(0.0999402 0 0)
(0.0999931 0 0)
(0.099993 0 0)
(0.0999931 0 0)
(0.0999934 0 0)
(0.0999939 0 0)
(0.0999946 0 0)
(0.0999955 0 0)
(0.0999966 0 0)
(0.0999978 0 0)
(0.0999996 0 0)
(0.100001 0 0)
(0.100004 0 0)
(0.100006 0 0)
(0.10001 0 0)
(0.100013 0 0)
(0.10002 0 0)
(0.100022 0 0)
(0.100035 0 0)
(0.100036 0 0)
(0.10006 0 0)
)
;
    }
    inlet
    {
        type            calculated;
        value           nonuniform List<vector> 
20
(
(0.0999931 0 0)
(0.0999942 0 0)
(0.0999947 0 0)
(0.0999956 0 0)
(0.0999962 0 0)
(0.0999969 0 0)
(0.0999976 0 0)
(0.0999983 0 0)
(0.099999 0 0)
(0.0999997 0 0)
(0.1 0 0)
(0.100001 0 0)
(0.100002 0 0)
(0.100002 0 0)
(0.100003 0 0)
(0.100004 0 0)
(0.100004 0 0)
(0.100005 0 0)
(0.100006 0 0)
(0.100007 0 0)
)
;
    }
    outlet
    {
        type            calculated;
        value           nonuniform List<vector> 
20
(
(0.100061 -3.32161e-05 0)
(0.100051 -5.46937e-06 0)
(0.100046 -4.22731e-05 0)
(0.100039 -2.76578e-05 0)
(0.100033 -4.65161e-05 0)
(0.100027 -4.161e-05 0)
(0.100021 -4.93238e-05 0)
(0.100015 -4.92076e-05 0)
(0.100009 -5.1371e-05 0)
(0.100003 -5.18763e-05 0)
(0.099997 -5.18769e-05 0)
(0.0999911 -5.13676e-05 0)
(0.0999852 -4.92085e-05 0)
(0.0999792 -4.931e-05 0)
(0.0999731 -4.16071e-05 0)
(0.099967 -4.64986e-05 0)
(0.0999611 -2.76511e-05 0)
(0.0999539 -4.22654e-05 0)
(0.0999495 -5.45719e-06 0)
(0.0999394 -3.32292e-05 0)
)
;
    }
    frontAndBack
    {
        type            empty;
    }
}


// ************************************************************************* //
