/*--------------------------------*- C++ -*----------------------------------*\
  =========                 |
  \\      /  F ield         | OpenFOAM: The Open Source CFD Toolbox
   \\    /   O peration     | Website:  https://openfoam.org
    \\  /    A nd           | Version:  7
     \\/     M anipulation  |
\*---------------------------------------------------------------------------*/
FoamFile
{
    version     2.0;
    format      ascii;
    class       surfaceScalarField;
    location    "13";
    object      ddtCorrDdt0(phi);
}
// * * * * * * * * * * * * * * * * * * * * * * * * * * * * * * * * * * * * * //

dimensions      [0 4 -2 0 0 0 0];

internalField   nonuniform List<scalar> 
760
(
-2.85708e-11
8.53939e-11
-4.05497e-11
1.05138e-10
-3.6355e-11
1.00643e-10
-7.05388e-12
7.43368e-11
1.88468e-14
-3.60643e-11
6.43995e-11
1.31276e-10
9.68589e-11
-2.72897e-11
1.24589e-10
-9.95003e-11
1.16672e-10
-8.55805e-11
8.5859e-11
-2.36332e-11
3.27655e-11
1.87675e-12
-3.87414e-11
1.48293e-11
-1.00897e-10
8.34559e-12
-1.33386e-10
-1.05194e-11
-1.34326e-10
-3.00103e-11
-9.62719e-11
-5.85411e-11
-2.59092e-11
-8.20031e-11
6.12157e-11
-9.33713e-11
1.60606e-10
-1.01972e-10
-3.17648e-11
-1.60601e-11
1.13899e-10
-5.02754e-11
1.36667e-10
-4.84693e-11
8.4464e-11
-6.44972e-11
2.30572e-11
-2.1429e-11
-1.18401e-11
1.0927e-11
-1.14798e-10
1.24009e-10
-1.98169e-10
1.63807e-10
-2.35334e-10
1.75258e-10
-1.32464e-10
1.36498e-10
-5.93479e-11
4.05841e-11
2.92255e-11
-5.84677e-11
6.21255e-11
-1.36305e-10
4.66432e-11
-1.70353e-10
-6.66417e-12
-1.56733e-10
-6.58279e-11
-9.90846e-11
-1.31053e-10
-9.10553e-12
-1.80254e-10
8.18316e-11
-1.87775e-10
1.73052e-10
-1.93094e-10
-5.80097e-11
-8.12238e-12
1.22539e-10
-3.04151e-11
1.57195e-10
-3.73496e-11
8.43992e-11
-2.06104e-11
3.24837e-11
-2.66132e-11
-8.97122e-11
1.73939e-11
-1.17313e-10
4.99502e-11
-2.43525e-10
6.48471e-11
-2.48079e-10
7.80989e-11
-1.43151e-10
5.92259e-11
-6.45265e-11
3.22662e-11
2.95239e-11
-1.42455e-11
8.01934e-11
-6.35329e-11
7.38866e-11
-9.69623e-11
1.04767e-11
-1.04305e-10
-7.11282e-11
-7.33661e-11
-1.70703e-10
-1.35182e-11
-2.44214e-10
6.20254e-11
-2.62749e-10
1.40329e-10
-2.68285e-10
-7.70364e-11
-1.8162e-11
1.29969e-10
-4.08594e-11
1.63841e-10
-6.78421e-11
9.0341e-11
-7.8418e-11
6.52808e-12
-4.55798e-11
-8.85672e-11
-3.62389e-11
-2.33393e-10
5.99117e-11
-3.03898e-10
1.69513e-10
-3.00978e-10
1.98518e-10
-1.71462e-10
1.293e-10
8.06773e-12
3.32236e-11
1.28135e-10
-5.67957e-11
1.65924e-10
-1.21292e-10
1.33163e-10
-1.49899e-10
3.72402e-11
-1.40518e-10
-8.04233e-11
-8.77553e-11
-2.20947e-10
-3.79913e-13
-3.25532e-10
9.28216e-11
-3.47663e-10
1.79486e-10
-3.47424e-10
-9.74682e-11
-1.03107e-11
1.04783e-10
-2.13042e-11
1.27627e-10
-4.42313e-11
6.10417e-11
-6.6369e-11
-3.81877e-11
-9.45152e-12
-1.26791e-10
-4.05363e-12
-3.04685e-10
5.80159e-11
-3.28367e-10
3.14265e-11
-3.8851e-10
-9.08402e-12
-2.58342e-10
3.24546e-11
-5.51615e-11
2.97096e-11
1.37054e-10
-5.19606e-12
2.20157e-10
-4.60563e-11
1.94634e-10
-7.0433e-11
8.15336e-11
-7.08904e-11
-6.2031e-11
-4.18275e-11
-2.33288e-10
8.39595e-12
-3.59954e-10
6.70253e-11
-3.92696e-10
1.23379e-10
-3.93233e-10
-1.0612e-10
-1.7288e-11
4.38341e-11
-2.15592e-11
6.71184e-11
-6.30851e-11
4.54279e-12
-4.36061e-11
-5.79054e-11
-8.68364e-11
-2.13005e-10
2.09207e-11
-3.14406e-10
-4.63273e-11
-4.60922e-10
9.64334e-11
-3.29668e-10
1.48026e-10
-1.66553e-10
7.36982e-11
4.53882e-11
7.00572e-12
2.1126e-10
-4.66618e-11
2.91002e-10
-8.6123e-11
2.65138e-10
-1.05749e-10
1.38908e-10
-9.67507e-11
-3.34112e-11
-5.17362e-11
-2.45451e-10
1.87592e-11
-4.05502e-10
9.0923e-11
-4.46742e-10
1.51519e-10
-4.40954e-10
-1.1328e-10
-1.16147e-11
-1.80916e-11
-2.87396e-11
-1.70647e-11
-3.06494e-11
-4.53848e-11
-6.41444e-11
-1.39028e-10
-3.17288e-11
-2.70763e-10
-2.38227e-11
-4.36464e-10
5.74495e-11
-5.04965e-10
-9.52201e-12
-5.03064e-10
4.27095e-12
-2.7139e-10
2.43444e-11
2.59957e-11
3.87126e-12
2.57548e-10
-2.36933e-11
3.56364e-10
-4.47818e-11
3.31388e-10
-5.25277e-11
1.96021e-10
-4.42179e-11
6.70058e-12
-1.64612e-11
-2.31123e-10
2.41275e-11
-4.13617e-10
6.68716e-11
-4.67325e-10
1.02917e-10
-4.65745e-10
-1.17274e-10
-7.62512e-12
-5.0484e-11
-1.97613e-11
-7.48887e-11
-3.30091e-11
-7.61458e-11
-5.07481e-11
-1.6684e-10
-4.08667e-11
-3.08213e-10
-1.7387e-11
-4.64971e-10
-2.18617e-11
-5.51895e-10
3.58721e-11
-4.65633e-10
3.54075e-11
-2.43913e-10
1.68546e-11
4.41193e-11
-6.84363e-12
2.86115e-10
-2.77966e-11
4.0147e-10
-4.48979e-11
3.89532e-10
-5.60903e-11
2.53748e-10
-5.0504e-11
4.87441e-11
-2.10518e-11
-2.15959e-10
2.33941e-11
-4.21749e-10
6.54248e-11
-4.86898e-10
9.56023e-11
-4.87048e-10
-1.18263e-10
-1.40192e-11
-8.43394e-11
-2.88215e-12
-1.04541e-10
-2.4899e-11
-1.09949e-10
-2.24253e-11
-1.90657e-10
-2.31345e-11
-3.53283e-10
-1.15056e-11
-5.11961e-10
7.47971e-12
-5.88795e-10
1.96432e-11
-5.08243e-10
1.33917e-11
-2.70592e-10
-2.61841e-13
4.21871e-11
-1.44573e-11
3.07785e-10
-1.87256e-11
4.38614e-10
-2.26507e-11
4.27819e-10
-2.85148e-11
2.84702e-10
-2.42874e-11
7.15822e-11
-4.86636e-12
-2.02701e-10
2.05886e-11
-4.18227e-10
4.09006e-11
-4.90524e-10
5.44011e-11
-4.92901e-10
-1.17754e-10
-6.32033e-12
-9.96648e-11
-8.30829e-13
-1.20823e-10
-5.71987e-12
-1.22484e-10
-8.7353e-12
-2.07696e-10
-6.21131e-12
-3.64516e-10
-3.84628e-12
-5.29308e-10
5.11293e-12
-6.05475e-10
5.48396e-13
-5.33355e-10
-3.24589e-13
-2.8089e-10
-3.15619e-12
4.49366e-11
-4.2054e-12
3.1905e-10
-1.54412e-12
4.54103e-10
-2.00851e-12
4.42398e-10
-8.69323e-12
2.95154e-10
-1.22731e-11
8.01146e-11
-6.33027e-12
-1.95909e-10
4.66137e-12
-4.15711e-10
1.37761e-11
-4.93199e-10
2.01119e-11
-4.98462e-10
-1.18426e-10
6.30988e-12
-8.43722e-11
8.63532e-13
-1.04616e-10
5.72229e-12
-1.10057e-10
8.78029e-12
-1.90703e-10
6.32786e-12
-3.53245e-10
3.8763e-12
-5.11989e-10
-5.08847e-12
-5.88786e-10
-4.23627e-13
-5.082e-10
5.3436e-13
-2.70592e-10
3.37686e-12
4.21448e-11
4.34181e-12
3.07748e-10
1.63961e-12
4.38643e-10
2.09973e-12
4.27885e-10
8.77618e-12
2.84761e-10
1.2349e-11
7.16072e-11
6.38351e-12
-2.02693e-10
-4.66777e-12
-4.18189e-10
-1.38475e-11
-4.9046e-10
-2.03226e-11
-4.92758e-10
-1.17668e-10
1.39991e-11
-5.05479e-11
2.88564e-12
-7.49925e-11
2.49423e-11
-7.62395e-11
2.25071e-11
-1.66913e-10
2.31738e-11
-3.082e-10
1.15531e-11
-4.64846e-10
-7.40925e-12
-5.51754e-10
-1.95698e-11
-4.6561e-10
-1.32734e-11
-2.43969e-10
4.37536e-13
4.41374e-11
1.46649e-11
2.86198e-10
1.89161e-11
4.01573e-10
2.27865e-11
3.89601e-10
2.85789e-11
2.53771e-10
2.43086e-11
4.87354e-11
4.8721e-12
-2.15954e-10
-2.06238e-11
-4.21667e-10
-4.09937e-11
-4.86778e-10
-5.46193e-11
-4.86782e-10
-1.18094e-10
7.61591e-12
-1.81844e-11
1.97722e-11
-1.71902e-11
3.30781e-11
-4.54836e-11
5.0842e-11
-1.39105e-10
4.09231e-11
-2.70799e-10
1.75286e-11
-4.36414e-10
2.19162e-11
-5.04972e-10
-3.5833e-11
-5.03093e-10
-3.52509e-11
-2.71431e-10
-1.66738e-11
2.59748e-11
7.01474e-12
2.57612e-10
2.794e-11
3.56481e-10
4.49868e-11
3.31449e-10
5.61156e-11
1.96006e-10
5.04948e-11
6.64932e-12
2.10321e-11
-2.31129e-10
-2.34437e-11
-4.13506e-10
-6.55316e-11
-4.67165e-10
-9.58249e-11
-4.65377e-10
-1.17046e-10
1.1633e-11
4.37422e-11
2.87771e-11
6.70128e-11
3.07517e-11
4.43569e-12
6.42462e-11
-5.80299e-11
3.17969e-11
-2.12984e-10
2.39342e-11
-3.14332e-10
-5.7283e-11
-4.60761e-10
9.57523e-12
-3.30201e-10
-4.11697e-12
-1.66783e-10
-2.41928e-11
4.53618e-11
-3.71214e-12
2.11366e-10
2.38076e-11
2.91126e-10
4.48368e-11
2.65186e-10
5.25422e-11
1.38881e-10
4.42086e-11
-3.34769e-11
1.64291e-11
-2.45469e-10
-2.42103e-11
-4.05379e-10
-6.70147e-11
-4.46567e-10
-1.03154e-10
-4.40527e-10
-1.12993e-10
1.73412e-11
1.04731e-10
2.1604e-11
1.27562e-10
6.31712e-11
6.09648e-11
4.37418e-11
-3.82413e-11
8.69035e-11
-1.26858e-10
-2.06599e-11
-3.04409e-10
4.60869e-11
-3.28522e-10
-9.57891e-11
-3.87633e-10
-1.47722e-10
-2.58342e-10
-7.35719e-11
-5.52168e-11
-6.92085e-12
1.37094e-10
4.67284e-11
2.20259e-10
8.61617e-11
1.94693e-10
1.05759e-10
8.15305e-11
9.67194e-11
-6.20794e-11
5.16402e-11
-2.33311e-10
-1.89224e-11
-3.59851e-10
-9.11149e-11
-3.92553e-10
-1.51737e-10
-3.9281e-10
-1.05832e-10
1.03975e-11
1.29937e-10
2.1395e-11
1.63783e-10
4.43751e-11
9.02678e-11
6.64466e-11
6.39397e-12
9.72645e-12
-8.84322e-11
3.95717e-12
-2.33378e-10
-5.75764e-11
-3.03615e-10
-3.16979e-11
-3.01153e-10
9.21191e-12
-1.71462e-10
-3.22931e-11
8.02693e-12
-2.96161e-11
1.28202e-10
5.24698e-12
1.66054e-10
4.60741e-11
1.33231e-10
7.04306e-11
3.72297e-11
7.08577e-11
-8.04932e-11
4.17414e-11
-2.21003e-10
-8.5394e-12
-3.25456e-10
-6.72056e-11
-3.47532e-10
-1.23588e-10
-3.46993e-10
-9.71649e-11
1.82256e-11
1.22539e-10
4.09985e-11
1.57237e-10
6.7938e-11
8.43638e-11
7.85962e-11
3.24631e-11
4.5712e-11
-8.9789e-11
3.65067e-11
-1.16962e-10
-5.95368e-11
-2.43184e-10
-1.6916e-10
-2.47855e-10
-1.98475e-10
-1.4354e-10
-1.29215e-10
-6.45751e-11
-3.3138e-11
2.95623e-11
5.68372e-11
8.02787e-11
1.21278e-10
7.39253e-11
1.49832e-10
1.04634e-11
1.40374e-10
-7.11823e-11
8.754e-11
-1.70751e-10
1.33841e-13
-2.44156e-10
-9.30477e-11
-2.62672e-10
-1.79639e-10
-2.67948e-10
-7.67686e-11
8.2023e-12
1.13901e-10
3.05519e-11
1.36719e-10
3.7522e-11
8.44685e-11
2.07863e-11
2.30632e-11
2.68868e-11
-1.16628e-11
-1.70862e-11
-1.14672e-10
-4.9914e-11
-1.98414e-10
-6.47185e-11
-2.34629e-10
-7.79647e-11
-1.32708e-10
-5.91327e-11
-5.93862e-11
-3.22214e-11
2.92537e-11
1.42453e-11
6.21483e-11
6.35193e-11
4.6623e-11
9.69379e-11
-6.70979e-12
1.04245e-10
-6.5891e-11
7.32563e-11
-1.31085e-10
1.33735e-11
-1.80186e-10
-6.22066e-11
-1.8769e-10
-1.4049e-10
-1.92797e-10
-5.78109e-11
1.61519e-11
8.54057e-11
5.04318e-11
1.05296e-10
4.86769e-11
1.00161e-10
6.47348e-11
7.32593e-11
2.17784e-11
-3.75688e-11
-1.06314e-11
1.28616e-10
-1.23524e-10
-3.1379e-11
-1.63576e-10
-9.95813e-11
-1.75136e-10
-8.5671e-11
-1.3644e-10
-2.39421e-11
-4.05549e-11
1.89364e-12
5.84617e-11
1.48483e-11
1.36251e-10
8.34494e-12
1.70235e-10
-1.05332e-11
1.5654e-10
-3.0033e-11
9.88567e-11
-5.85743e-11
8.89816e-12
-8.19931e-11
-8.19825e-11
-9.33837e-11
-1.73065e-10
-1.01849e-10
-3.1595e-11
2.86283e-11
4.0692e-11
3.65397e-11
7.2819e-12
1.13791e-13
-6.41707e-11
-9.66575e-11
-1.24373e-10
-1.16533e-10
-8.57639e-11
-3.26771e-11
3.88087e-11
1.00921e-10
1.33348e-10
1.34223e-10
9.60878e-11
2.56847e-11
-6.1496e-11
-1.60807e-10
)
;

boundaryField
{
    sides
    {
        type            calculated;
        value           uniform 0;
    }
    inlet
    {
        type            calculated;
        value           uniform 0;
    }
    outlet
    {
        type            calculated;
        value           nonuniform List<scalar> 
20
(
1.91752e-10
1.99995e-10
1.61002e-10
2.02906e-10
1.36322e-10
1.63639e-10
1.096e-10
9.81902e-11
5.66752e-11
2.05808e-11
-2.08791e-11
-5.69757e-11
-9.84692e-11
-1.09908e-10
-1.63868e-10
-1.36555e-10
-2.03031e-10
-1.61097e-10
-1.99994e-10
-1.9181e-10
)
;
    }
    frontAndBack
    {
        type            empty;
        value           nonuniform 0();
    }
}


// ************************************************************************* //
