/*--------------------------------*- C++ -*----------------------------------*\
  =========                 |
  \\      /  F ield         | OpenFOAM: The Open Source CFD Toolbox
   \\    /   O peration     | Website:  https://openfoam.org
    \\  /    A nd           | Version:  7
     \\/     M anipulation  |
\*---------------------------------------------------------------------------*/
FoamFile
{
    version     2.0;
    format      ascii;
    class       volVectorField;
    location    "13";
    object      ddtCorrDdt0(hU);
}
// * * * * * * * * * * * * * * * * * * * * * * * * * * * * * * * * * * * * * //

dimensions      [0 2 -2 0 0 0 0];

internalField   nonuniform List<vector> 
400
(
(4.01988e-09 6.8606e-09 0)
(1.09769e-09 7.37722e-09 0)
(-1.18688e-08 2.09245e-09 0)
(-1.03464e-08 -5.94097e-10 0)
(5.88061e-11 -5.9756e-09 0)
(7.93147e-09 -1.09783e-08 0)
(1.42362e-08 -1.96409e-08 0)
(2.11489e-08 -1.47297e-08 0)
(2.72697e-08 -6.32934e-09 0)
(2.33998e-08 3.72289e-09 0)
(1.28565e-08 1.08094e-08 0)
(-7.00151e-10 8.75546e-09 0)
(-1.40528e-08 4.26568e-09 0)
(-2.42931e-08 -3.79446e-10 0)
(-2.75388e-08 -4.13168e-09 0)
(-2.6235e-08 -1.14944e-08 0)
(-1.17545e-08 -1.70491e-08 0)
(4.61505e-10 -2.04239e-08 0)
(2.47761e-08 -1.97264e-08 0)
(3.73035e-08 -2.50689e-09 0)
(4.65494e-09 1.55116e-08 0)
(5.77844e-10 2.34259e-08 0)
(-1.46016e-08 1.7497e-08 0)
(-1.6068e-08 1.1023e-08 0)
(-1.06238e-08 2.79778e-09 0)
(3.13294e-09 -8.70668e-09 0)
(1.08069e-08 -2.06557e-08 0)
(2.68432e-08 -2.5213e-08 0)
(3.67305e-08 -2.24851e-08 0)
(3.77221e-08 -1.41147e-08 0)
(1.98917e-08 -5.54859e-09 0)
(-3.39729e-09 3.4085e-10 0)
(-2.07481e-08 2.28326e-10 0)
(-3.22078e-08 -4.67987e-09 0)
(-3.43188e-08 -1.04125e-08 0)
(-2.86942e-08 -1.59916e-08 0)
(-1.05124e-08 -2.12018e-08 0)
(5.80634e-09 -2.17154e-08 0)
(2.83403e-08 -2.54093e-08 0)
(3.89744e-08 -1.07643e-08 0)
(3.30943e-09 2.25151e-08 0)
(2.33452e-09 2.99865e-08 0)
(-9.30098e-09 1.78937e-08 0)
(-1.15132e-08 5.30735e-09 0)
(-3.53982e-09 -9.01736e-09 0)
(7.86302e-10 -2.74049e-08 0)
(5.02444e-09 -4.29268e-08 0)
(1.08898e-08 -4.93407e-08 0)
(1.71444e-08 -3.56732e-08 0)
(1.50722e-08 -1.10496e-08 0)
(9.80112e-09 7.95152e-09 0)
(2.81163e-09 1.61305e-08 0)
(-7.39612e-09 1.34743e-08 0)
(-1.67812e-08 8.3701e-10 0)
(-2.11327e-08 -1.42015e-08 0)
(-2.07121e-08 -3.25932e-08 0)
(-8.50587e-09 -4.50228e-08 0)
(2.46114e-09 -4.80975e-08 0)
(2.25628e-08 -4.71214e-08 0)
(3.16402e-08 -1.18477e-08 0)
(1.27974e-09 2.64718e-08 0)
(-1.01267e-09 3.19224e-08 0)
(-1.18192e-08 1.55879e-08 0)
(-2.22426e-08 9.27951e-10 0)
(-8.40713e-09 -1.86973e-08 0)
(-1.05906e-08 -3.84204e-08 0)
(2.25305e-09 -5.54276e-08 0)
(2.20883e-08 -5.01025e-08 0)
(4.04904e-08 -3.0576e-08 0)
(3.84425e-08 -7.85606e-09 0)
(1.73322e-08 1.6002e-08 0)
(-4.22375e-09 2.59565e-08 0)
(-1.87699e-08 2.10083e-08 0)
(-2.8401e-08 4.25262e-09 0)
(-3.07422e-08 -1.60217e-08 0)
(-2.60982e-08 -3.9657e-08 0)
(-8.81357e-09 -5.81704e-08 0)
(7.73302e-09 -6.21452e-08 0)
(3.05211e-08 -6.42092e-08 0)
(3.99069e-08 -1.93492e-08 0)
(-2.65259e-10 2.32699e-08 0)
(9.64283e-10 3.10628e-08 0)
(-7.67945e-09 1.82633e-08 0)
(-1.40765e-08 1.21373e-09 0)
(-1.04986e-08 -1.71213e-08 0)
(5.79219e-09 -4.71588e-08 0)
(4.21283e-10 -5.88013e-08 0)
(1.02318e-08 -6.26291e-08 0)
(3.3547e-09 -3.89066e-08 0)
(3.59436e-09 -4.82767e-09 0)
(7.68433e-09 2.20925e-08 0)
(3.14488e-09 3.48241e-08 0)
(-5.29984e-09 3.1026e-08 0)
(-1.24059e-08 1.15519e-08 0)
(-1.50956e-08 -1.36885e-08 0)
(-1.35716e-08 -4.44758e-08 0)
(-3.44872e-09 -6.68378e-08 0)
(5.90483e-09 -7.24717e-08 0)
(2.07469e-08 -7.18833e-08 0)
(2.73876e-08 -1.96858e-08 0)
(-1.91786e-09 1.50249e-08 0)
(-1.2745e-09 1.95051e-08 0)
(-7.85693e-09 5.56788e-09 0)
(-1.48784e-08 -1.14146e-08 0)
(-1.17379e-08 -3.62079e-08 0)
(-8.07093e-09 -6.66464e-08 0)
(8.26377e-10 -8.54417e-08 0)
(-3.31858e-10 -7.75873e-08 0)
(2.94364e-08 -4.71251e-08 0)
(2.63901e-08 2.6164e-09 0)
(8.23268e-09 4.20399e-08 0)
(-4.90491e-09 5.61744e-08 0)
(-1.36235e-08 4.85039e-08 0)
(-2.01884e-08 2.2426e-08 0)
(-2.19188e-08 -1.09459e-08 0)
(-1.76952e-08 -5.06113e-08 0)
(-3.44885e-09 -8.0298e-08 0)
(9.80561e-09 -8.74013e-08 0)
(2.70805e-08 -8.67715e-08 0)
(3.27571e-08 -2.24182e-08 0)
(-3.5712e-09 2.58793e-09 0)
(-1.50959e-09 4.94702e-09 0)
(-5.63147e-09 -3.90951e-09 0)
(-1.14966e-08 -1.92394e-08 0)
(-1.07208e-08 -4.74688e-08 0)
(-2.99253e-09 -7.33045e-08 0)
(1.192e-09 -9.35933e-08 0)
(7.1701e-09 -7.87503e-08 0)
(-1.31041e-09 -4.31289e-08 0)
(5.28878e-09 1.15348e-10 0)
(3.77317e-09 4.06193e-08 0)
(-2.36371e-09 6.07545e-08 0)
(-7.17951e-09 5.76174e-08 0)
(-1.01958e-08 3.3128e-08 0)
(-1.04811e-08 -1.54262e-09 0)
(-7.77497e-09 -4.54716e-08 0)
(5.64955e-10 -7.9225e-08 0)
(8.01783e-09 -8.92544e-08 0)
(1.83204e-08 -8.90856e-08 0)
(2.24549e-08 -2.32902e-08 0)
(-2.01804e-09 -6.7853e-09 0)
(-1.98202e-09 -8.92424e-09 0)
(-3.40735e-09 -1.17559e-08 0)
(-1.1398e-08 -3.05558e-08 0)
(-8.85621e-09 -5.85329e-08 0)
(-4.73365e-09 -9.16376e-08 0)
(-3.88941e-09 -1.08238e-07 0)
(-7.14325e-10 -9.87293e-08 0)
(9.71852e-09 -4.96206e-08 0)
(6.78177e-09 1.06133e-08 0)
(1.48947e-09 5.75882e-08 0)
(-3.53201e-09 7.85877e-08 0)
(-7.22262e-09 7.41629e-08 0)
(-1.05917e-08 4.57639e-08 0)
(-1.18683e-08 4.62606e-09 0)
(-8.98203e-09 -4.7191e-08 0)
(1.21576e-10 -8.67723e-08 0)
(8.09083e-09 -9.8273e-08 0)
(1.7711e-08 -9.73509e-08 0)
(2.02383e-08 -2.35189e-08 0)
(-1.79828e-09 -1.33857e-08 0)
(-1.42445e-09 -1.79613e-08 0)
(-1.93998e-09 -1.8323e-08 0)
(-6.0517e-09 -3.56681e-08 0)
(-4.78598e-09 -6.63431e-08 0)
(-2.6285e-09 -9.80997e-08 0)
(-1.05925e-09 -1.1427e-07 0)
(3.18294e-09 -9.72189e-08 0)
(4.02269e-09 -5.26708e-08 0)
(2.33192e-09 7.65314e-09 0)
(-1.39782e-09 5.86126e-08 0)
(-3.57743e-09 8.30155e-08 0)
(-4.08414e-09 8.07837e-08 0)
(-5.38062e-09 5.34072e-08 0)
(-5.99439e-09 1.23793e-08 0)
(-3.76578e-09 -4.09432e-08 0)
(1.60127e-09 -8.29315e-08 0)
(5.7011e-09 -9.69628e-08 0)
(1.02939e-08 -9.75609e-08 0)
(1.16176e-08 -2.36731e-08 0)
(-9.37523e-10 -1.83036e-08 0)
(-5.74216e-10 -2.26185e-08 0)
(-5.36247e-10 -2.28318e-08 0)
(-1.61956e-09 -3.9605e-08 0)
(-1.64531e-09 -7.20684e-08 0)
(-7.97305e-10 -1.04784e-07 0)
(9.59019e-11 -1.20186e-07 0)
(5.99357e-10 -1.04598e-07 0)
(2.59074e-10 -5.58015e-08 0)
(-1.02392e-10 8.35347e-09 0)
(-8.13265e-10 6.28221e-08 0)
(-6.45876e-10 8.98757e-08 0)
(-1.12841e-10 8.77462e-08 0)
(-9.69578e-10 5.84176e-08 0)
(-2.37494e-09 1.50379e-08 0)
(-2.34335e-09 -4.06483e-08 0)
(-2.52078e-10 -8.45854e-08 0)
(1.63306e-09 -9.95303e-08 0)
(3.68828e-09 -1e-07 0)
(4.32125e-09 -2.36663e-08 0)
(9.33142e-10 -1.83068e-08 0)
(5.7436e-10 -2.26261e-08 0)
(5.40842e-10 -2.28421e-08 0)
(1.6253e-09 -3.96098e-08 0)
(1.65903e-09 -7.20652e-08 0)
(8.09613e-10 -1.04786e-07 0)
(-8.86116e-11 -1.20185e-07 0)
(-5.8885e-10 -1.04593e-07 0)
(-2.2593e-10 -5.58026e-08 0)
(1.49969e-10 8.34835e-09 0)
(8.5238e-10 6.28163e-08 0)
(6.684e-10 8.98757e-08 0)
(1.31e-10 8.77517e-08 0)
(9.86573e-10 5.84253e-08 0)
(2.39116e-09 1.50446e-08 0)
(2.35557e-09 -4.06434e-08 0)
(2.54426e-10 -8.45796e-08 0)
(-1.63772e-09 -9.95249e-08 0)
(-3.71625e-09 -9.99883e-08 0)
(-4.37574e-09 -2.36591e-08 0)
(1.7909e-09 -1.33952e-08 0)
(1.42137e-09 -1.79795e-08 0)
(1.94884e-09 -1.83429e-08 0)
(6.05961e-09 -3.56797e-08 0)
(4.79534e-09 -6.6339e-08 0)
(2.64499e-09 -9.80915e-08 0)
(1.06174e-09 -1.14252e-07 0)
(-3.16873e-09 -9.72088e-08 0)
(-4.00407e-09 -5.26763e-08 0)
(-2.29983e-09 7.65054e-09 0)
(1.43902e-09 5.86183e-08 0)
(3.61844e-09 8.30296e-08 0)
(4.11812e-09 8.07965e-08 0)
(5.40044e-09 5.34131e-08 0)
(6.00227e-09 1.23778e-08 0)
(3.76697e-09 -4.09425e-08 0)
(-1.60641e-09 -8.29175e-08 0)
(-5.71171e-09 -9.69394e-08 0)
(-1.03251e-08 -9.75142e-08 0)
(-1.1672e-08 -2.36461e-08 0)
(2.01149e-09 -6.80048e-09 0)
(1.97932e-09 -8.94751e-09 0)
(3.4207e-09 -1.17759e-08 0)
(1.14109e-08 -3.0571e-08 0)
(8.86663e-09 -5.85338e-08 0)
(4.75465e-09 -9.16197e-08 0)
(3.91315e-09 -1.08224e-07 0)
(7.14886e-10 -9.87322e-08 0)
(-9.69863e-09 -4.96371e-08 0)
(-6.74279e-09 1.06101e-08 0)
(-1.45136e-09 5.76034e-08 0)
(3.564e-09 7.86125e-08 0)
(7.24661e-09 7.41788e-08 0)
(1.06022e-08 4.57654e-08 0)
(1.18688e-08 4.61752e-09 0)
(8.97814e-09 -4.71988e-08 0)
(-1.305e-10 -8.67625e-08 0)
(-8.1042e-09 -9.82554e-08 0)
(-1.77449e-08 -9.72946e-08 0)
(-2.02895e-08 -2.34777e-08 0)
(3.56685e-09 2.56983e-09 0)
(1.51298e-09 4.92413e-09 0)
(5.64657e-09 -3.93064e-09 0)
(1.15156e-08 -1.92602e-08 0)
(1.07399e-08 -4.74712e-08 0)
(3.00288e-09 -7.32919e-08 0)
(-1.15946e-09 -9.35817e-08 0)
(-7.15078e-09 -7.8802e-08 0)
(1.33042e-09 -4.31463e-08 0)
(-5.25675e-09 1.14969e-10 0)
(-3.73923e-09 4.06308e-08 0)
(2.39252e-09 6.07714e-08 0)
(7.19737e-09 5.76226e-08 0)
(1.02022e-08 3.31239e-08 0)
(1.04814e-08 -1.54748e-09 0)
(7.76932e-09 -4.54589e-08 0)
(-5.77287e-10 -7.91847e-08 0)
(-8.04051e-09 -8.92044e-08 0)
(-1.83598e-08 -8.89934e-08 0)
(-2.25094e-08 -2.32421e-08 0)
(1.91637e-09 1.50103e-08 0)
(1.28165e-09 1.94886e-08 0)
(7.87084e-09 5.55013e-09 0)
(1.48988e-08 -1.14331e-08 0)
(1.17543e-08 -3.62113e-08 0)
(8.10694e-09 -6.66124e-08 0)
(-8.29421e-10 -8.5439e-08 0)
(3.72283e-10 -7.75829e-08 0)
(-2.93322e-08 -4.71585e-08 0)
(-2.63499e-08 2.60333e-09 0)
(-8.21242e-09 4.20615e-08 0)
(4.92076e-09 5.62071e-08 0)
(1.36352e-08 4.85209e-08 0)
(2.01939e-08 2.24197e-08 0)
(2.19177e-08 -1.09697e-08 0)
(1.76809e-08 -5.0637e-08 0)
(3.41958e-09 -8.02967e-08 0)
(-9.84178e-09 -8.73875e-08 0)
(-2.71255e-08 -8.66977e-08 0)
(-3.2797e-08 -2.23521e-08 0)
(2.60549e-10 2.32608e-08 0)
(-9.44028e-10 3.10496e-08 0)
(7.70065e-09 1.82484e-08 0)
(1.40994e-08 1.19526e-09 0)
(1.05332e-08 -1.7117e-08 0)
(-5.77508e-09 -4.71273e-08 0)
(-3.83725e-10 -5.87798e-08 0)
(-1.0223e-08 -6.25777e-08 0)
(-3.37277e-09 -3.89031e-08 0)
(-3.55747e-09 -4.84034e-09 0)
(-7.65634e-09 2.20954e-08 0)
(-3.13095e-09 3.48387e-08 0)
(5.30716e-09 3.10345e-08 0)
(1.24071e-08 1.15554e-08 0)
(1.50939e-08 -1.36871e-08 0)
(1.35578e-08 -4.44621e-08 0)
(3.42467e-09 -6.67988e-08 0)
(-5.93836e-09 -7.24271e-08 0)
(-2.07886e-08 -7.17839e-08 0)
(-2.7429e-08 -1.96351e-08 0)
(-1.28351e-09 2.64679e-08 0)
(1.03113e-09 3.19193e-08 0)
(1.18454e-08 1.5574e-08 0)
(2.22689e-08 9.10208e-10 0)
(8.43199e-09 -1.86876e-08 0)
(1.06354e-08 -3.83974e-08 0)
(-2.20561e-09 -5.53868e-08 0)
(-2.19901e-08 -5.01438e-08 0)
(-4.04591e-08 -3.05956e-08 0)
(-3.84322e-08 -7.85742e-09 0)
(-1.73145e-08 1.60225e-08 0)
(4.23853e-09 2.59845e-08 0)
(1.87745e-08 2.10183e-08 0)
(2.83936e-08 4.24071e-09 0)
(3.0723e-08 -1.60495e-08 0)
(2.60591e-08 -3.96869e-08 0)
(8.76355e-09 -5.81726e-08 0)
(-7.78402e-09 -6.21336e-08 0)
(-3.05642e-08 -6.41376e-08 0)
(-3.99257e-08 -1.92803e-08 0)
(-3.30989e-09 2.25171e-08 0)
(-2.31433e-09 2.99979e-08 0)
(9.33303e-09 1.78925e-08 0)
(1.15445e-08 5.30631e-09 0)
(3.59044e-09 -9.00828e-09 0)
(-7.38779e-10 -2.73734e-08 0)
(-4.98002e-09 -4.29168e-08 0)
(-1.08822e-08 -4.93439e-08 0)
(-1.71113e-08 -3.57005e-08 0)
(-1.50518e-08 -1.10668e-08 0)
(-9.78609e-09 7.9485e-09 0)
(-2.80784e-09 1.61395e-08 0)
(7.39519e-09 1.3483e-08 0)
(1.67771e-08 8.43979e-10 0)
(2.11278e-08 -1.4199e-08 0)
(2.06939e-08 -3.25892e-08 0)
(8.47985e-09 -4.50034e-08 0)
(-2.49379e-09 -4.8083e-08 0)
(-2.26059e-08 -4.70574e-08 0)
(-3.16584e-08 -1.18068e-08 0)
(-4.65131e-09 1.55248e-08 0)
(-5.57398e-10 2.3439e-08 0)
(1.46425e-08 1.74977e-08 0)
(1.61091e-08 1.10226e-08 0)
(1.0681e-08 2.81675e-09 0)
(-3.07831e-09 -8.6945e-09 0)
(-1.07091e-08 -2.06591e-08 0)
(-2.67781e-08 -2.52161e-08 0)
(-3.66961e-08 -2.24845e-08 0)
(-3.77049e-08 -1.41067e-08 0)
(-1.9884e-08 -5.542e-09 0)
(3.40126e-09 3.38837e-10 0)
(2.07444e-08 2.14025e-10 0)
(3.21916e-08 -4.69996e-09 0)
(3.42892e-08 -1.0433e-08 0)
(2.86477e-08 -1.59997e-08 0)
(1.04678e-08 -2.11882e-08 0)
(-5.84944e-09 -2.16911e-08 0)
(-2.83571e-08 -2.53567e-08 0)
(-3.89684e-08 -1.07275e-08 0)
(-4.02532e-09 6.87102e-09 0)
(-1.07983e-09 7.38708e-09 0)
(1.1905e-08 2.09512e-09 0)
(1.03905e-08 -5.95897e-10 0)
(-3.44604e-11 -5.96798e-09 0)
(-7.88529e-09 -1.09798e-08 0)
(-1.42045e-08 -1.96412e-08 0)
(-2.10973e-08 -1.47543e-08 0)
(-2.72338e-08 -6.34815e-09 0)
(-2.33815e-08 3.7171e-09 0)
(-1.28384e-08 1.08178e-08 0)
(7.17285e-10 8.77158e-09 0)
(1.40652e-08 4.28256e-09 0)
(2.4291e-08 -3.65213e-10 0)
(2.75287e-08 -4.12282e-09 0)
(2.62048e-08 -1.15053e-08 0)
(1.1713e-08 -1.70629e-08 0)
(-5.10536e-10 -2.04581e-08 0)
(-2.48418e-08 -1.97279e-08 0)
(-3.73157e-08 -2.47401e-09 0)
)
;

boundaryField
{
    sides
    {
        type            calculated;
        value           nonuniform List<vector> 
40
(
(-4.02532e-09 0 0)
(-1.07983e-09 0 0)
(1.1905e-08 0 0)
(1.03905e-08 0 0)
(-3.44604e-11 0 0)
(-7.88529e-09 0 0)
(-1.42045e-08 0 0)
(-2.10973e-08 0 0)
(-2.72338e-08 0 0)
(-2.33815e-08 0 0)
(-1.28384e-08 0 0)
(7.17285e-10 0 0)
(1.40652e-08 0 0)
(2.4291e-08 0 0)
(2.75287e-08 0 0)
(2.62048e-08 0 0)
(1.1713e-08 0 0)
(-5.10536e-10 0 0)
(-2.48418e-08 0 0)
(-3.73157e-08 0 0)
(4.01988e-09 0 0)
(1.09769e-09 0 0)
(-1.18688e-08 0 0)
(-1.03464e-08 0 0)
(5.88061e-11 0 0)
(7.93147e-09 0 0)
(1.42362e-08 0 0)
(2.11489e-08 0 0)
(2.72697e-08 0 0)
(2.33998e-08 0 0)
(1.28565e-08 0 0)
(-7.00151e-10 0 0)
(-1.40528e-08 0 0)
(-2.42931e-08 0 0)
(-2.75388e-08 0 0)
(-2.6235e-08 0 0)
(-1.17545e-08 0 0)
(4.61505e-10 0 0)
(2.47761e-08 0 0)
(3.73035e-08 0 0)
)
;
    }
    inlet
    {
        type            calculated;
        value           uniform (0 0 0);
    }
    outlet
    {
        type            calculated;
        value           nonuniform List<vector> 
20
(
(3.73035e-08 -2.50689e-09 0)
(3.89744e-08 -1.07643e-08 0)
(3.16402e-08 -1.18477e-08 0)
(3.99069e-08 -1.93492e-08 0)
(2.73876e-08 -1.96858e-08 0)
(3.27571e-08 -2.24182e-08 0)
(2.24549e-08 -2.32902e-08 0)
(2.02383e-08 -2.35189e-08 0)
(1.16176e-08 -2.36731e-08 0)
(4.32125e-09 -2.36663e-08 0)
(-4.37574e-09 -2.36591e-08 0)
(-1.1672e-08 -2.36461e-08 0)
(-2.02895e-08 -2.34777e-08 0)
(-2.25094e-08 -2.32421e-08 0)
(-3.2797e-08 -2.23521e-08 0)
(-2.7429e-08 -1.96351e-08 0)
(-3.99257e-08 -1.92803e-08 0)
(-3.16584e-08 -1.18068e-08 0)
(-3.89684e-08 -1.07275e-08 0)
(-3.73157e-08 -2.47401e-09 0)
)
;
    }
    frontAndBack
    {
        type            empty;
    }
}


// ************************************************************************* //
