/*--------------------------------*- C++ -*----------------------------------*\
  =========                 |
  \\      /  F ield         | OpenFOAM: The Open Source CFD Toolbox
   \\    /   O peration     | Website:  https://openfoam.org
    \\  /    A nd           | Version:  7
     \\/     M anipulation  |
\*---------------------------------------------------------------------------*/
FoamFile
{
    version     2.0;
    format      ascii;
    class       surfaceScalarField;
    location    "13";
    object      phi;
}
// * * * * * * * * * * * * * * * * * * * * * * * * * * * * * * * * * * * * * //

dimensions      [0 4 -1 0 0 0 0];

internalField   nonuniform List<scalar> 
760
(
4.99998e-06
3.35094e-12
4.99999e-06
-3.42668e-11
5.00003e-06
-5.43204e-11
5.00009e-06
-6.32593e-11
5.00014e-06
-6.52374e-11
5.00019e-06
-6.37581e-11
5.00023e-06
-5.17097e-11
5.00023e-06
-3.4847e-11
5.00023e-06
-2.39573e-11
5.00023e-06
-3.90393e-11
5.00026e-06
-6.88863e-11
5.00034e-06
-1.26739e-10
5.00047e-06
-1.75428e-10
5.00067e-06
-2.44666e-10
5.00089e-06
-2.65753e-10
5.0012e-06
-3.4667e-10
5.00149e-06
-3.15956e-10
5.00193e-06
-4.65047e-10
5.00231e-06
-3.9079e-10
-8.25281e-10
5e-06
-1.19656e-11
5.00003e-06
-7.56511e-11
5.00009e-06
-1.19365e-10
5.00016e-06
-1.46254e-10
5.00024e-06
-1.58109e-10
5.00031e-06
-1.49638e-10
5.00034e-06
-1.08871e-10
5.00033e-06
-5.85062e-11
5.0003e-06
-2.70764e-11
5.00027e-06
-5.58794e-11
5.00029e-06
-1.28606e-10
5.00036e-06
-2.50835e-10
5.0005e-06
-3.6207e-10
5.00071e-06
-4.97939e-10
5.00096e-06
-5.48325e-10
5.00125e-06
-6.7163e-10
5.00153e-06
-6.26554e-10
5.00187e-06
-8.20381e-10
5.00217e-06
-7.03583e-10
-1.13601e-09
4.99999e-06
-1.32807e-11
5e-06
-9.92685e-11
5.00002e-06
-1.61125e-10
5.00006e-06
-1.96821e-10
5.00009e-06
-2.16675e-10
5.00013e-06
-2.01721e-10
5.00015e-06
-1.57044e-10
5.00017e-06
-1.05432e-10
5.00019e-06
-7.3903e-11
5.00021e-06
-1.06582e-10
5.00024e-06
-1.99358e-10
5.00031e-06
-3.5727e-10
5.00042e-06
-5.12722e-10
5.00058e-06
-6.96134e-10
5.00078e-06
-7.89087e-10
5.00103e-06
-9.46578e-10
5.0013e-06
-9.15498e-10
5.00158e-06
-1.12118e-09
5.00188e-06
-1.00789e-09
-1.50647e-09
5e-06
-2.4388e-11
5.00003e-06
-1.35752e-10
5.00007e-06
-2.22668e-10
5.00014e-06
-2.81169e-10
5.00021e-06
-3.12292e-10
5.00027e-06
-2.95007e-10
5.00031e-06
-2.2e-10
5.00029e-06
-1.24479e-10
5.00024e-06
-7.1682e-11
5.00022e-06
-1.20562e-10
5.00023e-06
-2.51571e-10
5.00029e-06
-4.65943e-10
5.00042e-06
-6.76219e-10
5.0006e-06
-9.09804e-10
5.00081e-06
-1.02994e-09
5.00106e-06
-1.21094e-09
5.00129e-06
-1.16417e-09
5.00153e-06
-1.37189e-09
5.00173e-06
-1.21606e-09
-1.6561e-09
5.00001e-06
-3.89392e-11
5.00002e-06
-1.60478e-10
5.00004e-06
-2.61169e-10
5.00007e-06
-3.33968e-10
5.0001e-06
-3.68262e-10
5.00012e-06
-3.51236e-10
5.00014e-06
-2.70579e-10
5.00016e-06
-1.88032e-10
5.00018e-06
-1.33956e-10
5.00019e-06
-1.71333e-10
5.00021e-06
-3.12277e-10
5.00026e-06
-5.51073e-10
5.00035e-06
-7.95322e-10
5.00048e-06
-1.06334e-09
5.00064e-06
-1.2131e-09
5.00082e-06
-1.41165e-09
5.00101e-06
-1.36841e-09
5.0012e-06
-1.56916e-09
5.00139e-06
-1.40134e-09
-1.87795e-09
5.00001e-06
-5.35113e-11
5.00002e-06
-1.83822e-10
5.00005e-06
-3.03853e-10
5.00009e-06
-3.98479e-10
5.00013e-06
-4.51473e-10
5.00018e-06
-4.2964e-10
5.0002e-06
-3.34008e-10
5.00019e-06
-2.02645e-10
5.00016e-06
-1.38347e-10
5.00014e-06
-1.95946e-10
5.00015e-06
-3.61726e-10
5.0002e-06
-6.33718e-10
5.00029e-06
-9.13219e-10
5.00042e-06
-1.21549e-09
5.00058e-06
-1.38622e-09
5.00076e-06
-1.59656e-09
5.00092e-06
-1.53665e-09
5.00107e-06
-1.72808e-09
5.0012e-06
-1.52935e-09
-1.96201e-09
5.00001e-06
-6.73316e-11
5.00002e-06
-2.03576e-10
5.00004e-06
-3.36558e-10
5.00006e-06
-4.49644e-10
5.00009e-06
-5.06574e-10
5.00011e-06
-4.8039e-10
5.00012e-06
-3.77674e-10
5.00012e-06
-2.57945e-10
5.00013e-06
-1.79934e-10
5.00013e-06
-2.2795e-10
5.00014e-06
-4.06168e-10
5.00018e-06
-6.96811e-10
5.00024e-06
-9.97524e-10
5.00033e-06
-1.31915e-09
5.00044e-06
-1.50512e-09
5.00056e-06
-1.72373e-09
5.00068e-06
-1.66136e-09
5.0008e-06
-1.84369e-09
5.00089e-06
-1.62844e-09
-2.08071e-09
5.00001e-06
-7.8304e-11
5.00002e-06
-2.16526e-10
5.00003e-06
-3.57732e-10
5.00005e-06
-4.84498e-10
5.00007e-06
-5.49578e-10
5.00009e-06
-5.24716e-10
5.0001e-06
-4.14632e-10
5.0001e-06
-2.76133e-10
5.00009e-06
-1.97647e-10
5.00009e-06
-2.50658e-10
5.00009e-06
-4.3681e-10
5.00012e-06
-7.42098e-10
5.00016e-06
-1.06041e-09
5.00024e-06
-1.40081e-09
5.00033e-06
-1.59972e-09
5.00042e-06
-1.82449e-09
5.00051e-06
-1.75223e-09
5.0006e-06
-1.92658e-09
5.00067e-06
-1.6957e-09
-2.12729e-09
5.00001e-06
-8.67896e-11
5.00001e-06
-2.23532e-10
5.00002e-06
-3.7164e-10
5.00003e-06
-5.06998e-10
5.00004e-06
-5.79046e-10
5.00005e-06
-5.53978e-10
5.00006e-06
-4.3833e-10
5.00006e-06
-2.9482e-10
5.00005e-06
-2.1316e-10
5.00005e-06
-2.6629e-10
5.00006e-06
-4.58009e-10
5.00007e-06
-7.72337e-10
5.00011e-06
-1.10064e-09
5.00015e-06
-1.44928e-09
5.0002e-06
-1.65287e-09
5.00025e-06
-1.87886e-09
5.0003e-06
-1.80268e-09
5.00035e-06
-1.97244e-09
5.00039e-06
-1.73257e-09
-2.17021e-09
5e-06
-8.9809e-11
5e-06
-2.26228e-10
5.00001e-06
-3.76492e-10
5.00001e-06
-5.15593e-10
5.00001e-06
-5.89192e-10
5.00002e-06
-5.63683e-10
5.00002e-06
-4.46555e-10
5.00002e-06
-3.02622e-10
5.00002e-06
-2.19124e-10
5.00002e-06
-2.72439e-10
5.00002e-06
-4.65213e-10
5.00003e-06
-7.81293e-10
5.00003e-06
-1.11199e-09
5.00005e-06
-1.46385e-09
5.00006e-06
-1.67058e-09
5.00008e-06
-1.8988e-09
5.0001e-06
-1.8216e-09
5.00012e-06
-1.98965e-09
5.00013e-06
-1.74684e-09
-2.17938e-09
5e-06
-8.68085e-11
5e-06
-2.23558e-10
4.99999e-06
-3.71673e-10
4.99999e-06
-5.07024e-10
4.99999e-06
-5.79062e-10
4.99998e-06
-5.54009e-10
4.99998e-06
-4.3838e-10
4.99998e-06
-2.94848e-10
4.99998e-06
-2.13188e-10
4.99998e-06
-2.66289e-10
4.99998e-06
-4.58002e-10
4.99997e-06
-7.72331e-10
4.99997e-06
-1.10065e-09
4.99995e-06
-1.44927e-09
4.99994e-06
-1.65285e-09
4.99992e-06
-1.87879e-09
4.9999e-06
-1.80261e-09
4.99988e-06
-1.97232e-09
4.99987e-06
-1.73248e-09
-2.17014e-09
4.99999e-06
-7.83365e-11
4.99999e-06
-2.1657e-10
4.99998e-06
-3.57786e-10
4.99997e-06
-4.84538e-10
4.99996e-06
-5.49604e-10
4.99995e-06
-5.24762e-10
4.99994e-06
-4.14693e-10
4.99994e-06
-2.76207e-10
4.99995e-06
-1.97688e-10
4.99995e-06
-2.50652e-10
4.99994e-06
-4.36793e-10
4.99993e-06
-7.42085e-10
4.99989e-06
-1.06042e-09
4.99985e-06
-1.4008e-09
4.9998e-06
-1.59969e-09
4.99975e-06
-1.82435e-09
4.9997e-06
-1.75209e-09
4.99965e-06
-1.92636e-09
4.99961e-06
-1.69551e-09
-2.12719e-09
4.99999e-06
-6.73714e-11
4.99998e-06
-2.03632e-10
4.99997e-06
-3.36625e-10
4.99995e-06
-4.49692e-10
4.99993e-06
-5.06608e-10
4.99991e-06
-4.80451e-10
4.9999e-06
-3.77782e-10
4.9999e-06
-2.58041e-10
4.99991e-06
-1.79985e-10
4.99992e-06
-2.27937e-10
4.99991e-06
-4.06145e-10
4.99988e-06
-6.968e-10
4.99984e-06
-9.97558e-10
4.99976e-06
-1.31914e-09
4.99967e-06
-1.50509e-09
4.99958e-06
-1.72354e-09
4.99949e-06
-1.66118e-09
4.9994e-06
-1.84338e-09
4.99933e-06
-1.62819e-09
-2.08053e-09
4.99999e-06
-5.35511e-11
4.99998e-06
-1.83881e-10
4.99996e-06
-3.03928e-10
4.99994e-06
-3.98529e-10
4.99991e-06
-4.51497e-10
4.99989e-06
-4.29706e-10
4.99988e-06
-3.34135e-10
4.99988e-06
-2.02801e-10
4.99987e-06
-1.38406e-10
4.99987e-06
-1.95917e-10
4.99986e-06
-3.61689e-10
4.99982e-06
-6.33695e-10
4.99976e-06
-9.13251e-10
4.99967e-06
-1.21546e-09
4.99956e-06
-1.38617e-09
4.99944e-06
-1.59633e-09
4.99932e-06
-1.53641e-09
4.9992e-06
-1.72769e-09
4.99911e-06
-1.52903e-09
-1.96179e-09
4.99999e-06
-3.89672e-11
4.99998e-06
-1.60532e-10
4.99995e-06
-2.61243e-10
4.99991e-06
-3.3402e-10
4.99987e-06
-3.68302e-10
4.99982e-06
-3.51298e-10
4.9998e-06
-2.70724e-10
4.99981e-06
-1.88119e-10
4.99984e-06
-1.34019e-10
4.99986e-06
-1.71324e-10
4.99985e-06
-3.12258e-10
4.9998e-06
-5.51059e-10
4.99971e-06
-7.9537e-10
4.99958e-06
-1.06331e-09
4.99942e-06
-1.21308e-09
4.99924e-06
-1.41143e-09
4.99908e-06
-1.36821e-09
4.99893e-06
-1.56878e-09
4.9988e-06
-1.40104e-09
-1.87771e-09
4.99999e-06
-2.44003e-11
4.99998e-06
-1.35796e-10
4.99996e-06
-2.22728e-10
4.99993e-06
-2.81205e-10
4.9999e-06
-3.12298e-10
4.99988e-06
-2.95063e-10
4.99986e-06
-2.20102e-10
4.99984e-06
-1.24597e-10
4.99982e-06
-7.17143e-11
4.99981e-06
-1.20513e-10
4.99979e-06
-2.51528e-10
4.99974e-06
-4.65904e-10
4.99965e-06
-6.76249e-10
4.99952e-06
-9.09755e-10
4.99936e-06
-1.0299e-09
4.99918e-06
-1.21068e-09
4.99899e-06
-1.16395e-09
4.9988e-06
-1.37145e-09
4.99861e-06
-1.2157e-09
-1.65579e-09
5e-06
-1.32821e-11
4.99997e-06
-9.93014e-11
4.99993e-06
-1.61184e-10
4.99986e-06
-1.96861e-10
4.99979e-06
-2.1671e-10
4.99973e-06
-2.01776e-10
4.99969e-06
-1.5714e-10
4.99971e-06
-1.05523e-10
4.99976e-06
-7.39691e-11
4.99978e-06
-1.06577e-10
4.99977e-06
-1.99355e-10
4.99971e-06
-3.57267e-10
4.99958e-06
-5.12791e-10
4.9994e-06
-6.96131e-10
4.99919e-06
-7.89127e-10
4.99895e-06
-9.46416e-10
4.99871e-06
-9.154e-10
4.99848e-06
-1.12087e-09
4.99827e-06
-1.00766e-09
-1.50626e-09
5.00001e-06
-1.19548e-11
5e-06
-7.56667e-11
4.99998e-06
-1.19397e-10
4.99994e-06
-1.46262e-10
4.99991e-06
-1.58097e-10
4.99987e-06
-1.4965e-10
4.99985e-06
-1.0894e-10
4.99983e-06
-5.85562e-11
4.99981e-06
-2.70941e-11
4.99979e-06
-5.58447e-11
4.99976e-06
-1.28599e-10
4.99969e-06
-2.5081e-10
4.99958e-06
-3.6211e-10
4.99942e-06
-4.97878e-10
4.99922e-06
-5.48322e-10
4.99897e-06
-6.71408e-10
4.9987e-06
-6.26453e-10
4.99842e-06
-8.20025e-10
4.99812e-06
-7.03376e-10
-1.1357e-09
5e-06
3.3498e-12
4.99997e-06
-3.42891e-11
4.99991e-06
-5.43668e-11
4.99984e-06
-6.33114e-11
4.99976e-06
-6.52915e-11
4.99969e-06
-6.38035e-11
4.99966e-06
-5.17232e-11
4.99967e-06
-3.49264e-11
4.9997e-06
-2.40151e-11
4.99973e-06
-3.90649e-11
4.99971e-06
-6.89468e-11
4.99964e-06
-1.26809e-10
4.9995e-06
-1.75542e-10
4.99929e-06
-2.44738e-10
4.99905e-06
-2.65865e-10
4.99875e-06
-3.46685e-10
4.99847e-06
-3.16006e-10
4.99813e-06
-4.65003e-10
4.99783e-06
-3.9073e-10
-8.25316e-10
5.00002e-06
5.00001e-06
4.99997e-06
4.99991e-06
4.99986e-06
4.99981e-06
4.99977e-06
4.99977e-06
4.99977e-06
4.99977e-06
4.99974e-06
4.99966e-06
4.99953e-06
4.99933e-06
4.99911e-06
4.9988e-06
4.99851e-06
4.99807e-06
4.99769e-06
)
;

boundaryField
{
    sides
    {
        type            calculated;
        value           uniform 0;
    }
    inlet
    {
        type            calculated;
        value           nonuniform List<scalar> 
20
(
-5e-06
-5e-06
-5e-06
-5e-06
-5e-06
-5e-06
-5e-06
-5e-06
-5e-06
-5e-06
-5e-06
-5e-06
-5e-06
-5e-06
-5e-06
-5e-06
-5e-06
-5e-06
-5e-06
-5e-06
)
;
    }
    outlet
    {
        type            calculated;
        value           nonuniform List<scalar> 
20
(
5.00313e-06
5.00248e-06
5.00224e-06
5.00187e-06
5.00161e-06
5.00128e-06
5.00101e-06
5.00071e-06
5.00043e-06
5.00014e-06
4.99986e-06
4.99957e-06
4.99929e-06
4.99899e-06
4.99872e-06
4.99839e-06
4.99813e-06
4.99776e-06
4.99753e-06
4.99687e-06
)
;
    }
    frontAndBack
    {
        type            empty;
        value           nonuniform 0();
    }
}


// ************************************************************************* //
