/*--------------------------------*- C++ -*----------------------------------*\
  =========                 |
  \\      /  F ield         | OpenFOAM: The Open Source CFD Toolbox
   \\    /   O peration     | Website:  https://openfoam.org
    \\  /    A nd           | Version:  7
     \\/     M anipulation  |
\*---------------------------------------------------------------------------*/
FoamFile
{
    version     2.0;
    format      ascii;
    class       volVectorField;
    location    "13";
    object      U;
}
// * * * * * * * * * * * * * * * * * * * * * * * * * * * * * * * * * * * * * //

dimensions      [0 1 -1 0 0 0 0];

internalField   nonuniform List<vector> 
400
(
(0.0999943 -1.10026e-06 0)
(0.0999934 -3.25956e-06 0)
(0.0999938 -4.85031e-06 0)
(0.0999956 -5.94027e-06 0)
(0.0999969 -6.80837e-06 0)
(0.0999976 -7.43476e-06 0)
(0.0999984 -7.73279e-06 0)
(0.0999993 -7.95678e-06 0)
(0.0999993 -8.46765e-06 0)
(0.0999992 -9.62387e-06 0)
(0.0999991 -1.14262e-05 0)
(0.100001 -1.37336e-05 0)
(0.100002 -1.55698e-05 0)
(0.100007 -1.77242e-05 0)
(0.10001 -1.88442e-05 0)
(0.100018 -2.12432e-05 0)
(0.100021 -2.10521e-05 0)
(0.100034 -2.47024e-05 0)
(0.100036 -2.3025e-05 0)
(0.100057 -3.18527e-05 0)
(0.0999955 4.53548e-07 0)
(0.0999951 6.77629e-07 0)
(0.0999961 1.1006e-06 0)
(0.0999982 1.7155e-06 0)
(0.0999999 2.4173e-06 0)
(0.100001 3.23975e-06 0)
(0.100002 4.29629e-06 0)
(0.100003 5.423e-06 0)
(0.100002 6.37493e-06 0)
(0.100002 6.84701e-06 0)
(0.100001 7.02151e-06 0)
(0.100002 6.41015e-06 0)
(0.100004 5.89578e-06 0)
(0.100009 4.8244e-06 0)
(0.100013 5.00355e-06 0)
(0.10002 3.76497e-06 0)
(0.100024 5.05006e-06 0)
(0.100033 2.2036e-06 0)
(0.100037 4.23306e-06 0)
(0.100048 -3.97291e-06 0)
(0.0999961 -4.37888e-07 0)
(0.0999954 -2.50211e-06 0)
(0.0999956 -4.2595e-06 0)
(0.0999969 -5.64725e-06 0)
(0.0999978 -6.71847e-06 0)
(0.099998 -7.21739e-06 0)
(0.0999985 -6.99231e-06 0)
(0.0999993 -6.6406e-06 0)
(0.0999995 -6.63775e-06 0)
(0.0999999 -7.90764e-06 0)
(0.1 -1.0311e-05 0)
(0.100002 -1.38491e-05 0)
(0.100003 -1.72628e-05 0)
(0.100007 -2.1165e-05 0)
(0.10001 -2.32707e-05 0)
(0.100016 -2.66772e-05 0)
(0.10002 -2.63972e-05 0)
(0.100028 -3.09493e-05 0)
(0.100031 -2.89751e-05 0)
(0.100043 -3.89137e-05 0)
(0.0999968 -3.87259e-07 0)
(0.0999966 -2.25565e-06 0)
(0.0999973 -3.36122e-06 0)
(0.099999 -3.73459e-06 0)
(0.1 -3.60527e-06 0)
(0.100001 -2.64838e-06 0)
(0.100002 -7.84607e-07 0)
(0.100003 1.29115e-06 0)
(0.100003 2.66721e-06 0)
(0.100001 2.38992e-06 0)
(0.100001 5.80504e-07 0)
(0.100002 -2.83041e-06 0)
(0.100004 -6.11241e-06 0)
(0.100007 -9.90649e-06 0)
(0.100011 -1.16043e-05 0)
(0.100017 -1.46527e-05 0)
(0.100021 -1.34915e-05 0)
(0.100027 -1.72987e-05 0)
(0.10003 -1.42778e-05 0)
(0.100037 -2.32721e-05 0)
(0.0999975 -5.97025e-07 0)
(0.0999974 -2.94296e-06 0)
(0.0999977 -4.98466e-06 0)
(0.0999987 -6.58398e-06 0)
(0.0999994 -7.62404e-06 0)
(0.0999995 -7.74252e-06 0)
(0.0999998 -6.73984e-06 0)
(0.1 -5.48124e-06 0)
(0.1 -4.92441e-06 0)
(0.100001 -6.15122e-06 0)
(0.100001 -9.0064e-06 0)
(0.100002 -1.36041e-05 0)
(0.100003 -1.83425e-05 0)
(0.100006 -2.36142e-05 0)
(0.100008 -2.66535e-05 0)
(0.100013 -3.07554e-05 0)
(0.100016 -3.02361e-05 0)
(0.100022 -3.46581e-05 0)
(0.100024 -3.1796e-05 0)
(0.100031 -4.13273e-05 0)
(0.0999981 -9.14677e-07 0)
(0.0999981 -3.49099e-06 0)
(0.0999984 -5.73004e-06 0)
(0.0999994 -7.32115e-06 0)
(0.1 -8.01659e-06 0)
(0.100001 -7.30104e-06 0)
(0.100001 -5.0935e-06 0)
(0.100002 -2.52881e-06 0)
(0.100001 -9.10828e-07 0)
(0.100001 -1.65194e-06 0)
(0.1 -4.84353e-06 0)
(0.100001 -1.01036e-05 0)
(0.100003 -1.53623e-05 0)
(0.100005 -2.09921e-05 0)
(0.100008 -2.4001e-05 0)
(0.100012 -2.78741e-05 0)
(0.100015 -2.65192e-05 0)
(0.100019 -3.01774e-05 0)
(0.100021 -2.61871e-05 0)
(0.100026 -3.50268e-05 0)
(0.0999986 -1.20344e-06 0)
(0.0999988 -3.8586e-06 0)
(0.099999 -6.37571e-06 0)
(0.0999997 -8.43896e-06 0)
(0.1 -9.5738e-06 0)
(0.1 -9.25136e-06 0)
(0.100001 -7.54813e-06 0)
(0.100001 -5.37801e-06 0)
(0.100001 -4.21515e-06 0)
(0.100001 -5.28594e-06 0)
(0.100001 -8.5518e-06 0)
(0.100001 -1.40413e-05 0)
(0.100002 -1.98176e-05 0)
(0.100004 -2.6116e-05 0)
(0.100006 -2.9847e-05 0)
(0.100009 -3.43441e-05 0)
(0.100011 -3.34004e-05 0)
(0.100014 -3.7363e-05 0)
(0.100016 -3.34682e-05 0)
(0.10002 -4.2518e-05 0)
(0.099999 -1.44823e-06 0)
(0.0999992 -4.18165e-06 0)
(0.0999993 -6.9482e-06 0)
(0.0999998 -9.36995e-06 0)
(0.1 -1.06252e-05 0)
(0.1 -1.01244e-05 0)
(0.100001 -7.87237e-06 0)
(0.100001 -5.11178e-06 0)
(0.100001 -3.42135e-06 0)
(0.1 -4.46701e-06 0)
(0.1 -8.20745e-06 0)
(0.100001 -1.42996e-05 0)
(0.100001 -2.06064e-05 0)
(0.100003 -2.72969e-05 0)
(0.100004 -3.1116e-05 0)
(0.100007 -3.54368e-05 0)
(0.100008 -3.38829e-05 0)
(0.100011 -3.72703e-05 0)
(0.100012 -3.26209e-05 0)
(0.100014 -4.13069e-05 0)
(0.0999994 -1.6472e-06 0)
(0.0999996 -4.38764e-06 0)
(0.0999997 -7.30011e-06 0)
(0.0999999 -9.93181e-06 0)
(0.1 -1.13089e-05 0)
(0.1 -1.07881e-05 0)
(0.1 -8.52655e-06 0)
(0.100001 -5.77819e-06 0)
(0.1 -4.16036e-06 0)
(0.1 -5.23253e-06 0)
(0.1 -9.02448e-06 0)
(0.1 -1.5203e-05 0)
(0.100001 -2.16281e-05 0)
(0.100002 -2.84866e-05 0)
(0.100003 -3.2529e-05 0)
(0.100004 -3.71087e-05 0)
(0.100005 -3.57303e-05 0)
(0.100006 -3.92692e-05 0)
(0.100007 -3.46336e-05 0)
(0.100008 -4.34373e-05 0)
(0.0999998 -1.76339e-06 0)
(0.0999999 -4.48599e-06 0)
(0.0999999 -7.47887e-06 0)
(0.1 -1.02362e-05 0)
(0.1 -1.16956e-05 0)
(0.1 -1.11857e-05 0)
(0.1 -8.86572e-06 0)
(0.1 -6.02733e-06 0)
(0.1 -4.3098e-06 0)
(0.1 -5.35136e-06 0)
(0.1 -9.20209e-06 0)
(0.1 -1.55488e-05 0)
(0.1 -2.22109e-05 0)
(0.100001 -2.92908e-05 0)
(0.100001 -3.34384e-05 0)
(0.100001 -3.79837e-05 0)
(0.100002 -3.64084e-05 0)
(0.100002 -3.97391e-05 0)
(0.100002 -3.4863e-05 0)
(0.100003 -4.35341e-05 0)
(0.1 -1.76359e-06 0)
(0.1 -4.48626e-06 0)
(0.1 -7.47923e-06 0)
(0.1 -1.02365e-05 0)
(0.0999999 -1.16958e-05 0)
(0.0999999 -1.11861e-05 0)
(0.0999999 -8.86625e-06 0)
(0.0999998 -6.02799e-06 0)
(0.0999999 -4.31022e-06 0)
(0.0999999 -5.35149e-06 0)
(0.0999999 -9.20215e-06 0)
(0.0999998 -1.55487e-05 0)
(0.0999997 -2.22107e-05 0)
(0.0999995 -2.92905e-05 0)
(0.0999992 -3.34381e-05 0)
(0.0999987 -3.79832e-05 0)
(0.0999984 -3.6408e-05 0)
(0.0999978 -3.97386e-05 0)
(0.0999976 -3.48626e-05 0)
(0.0999971 -4.35344e-05 0)
(0.100001 -1.64773e-06 0)
(0.1 -4.38838e-06 0)
(0.1 -7.30104e-06 0)
(0.1 -9.93259e-06 0)
(0.0999998 -1.13095e-05 0)
(0.0999997 -1.07889e-05 0)
(0.0999996 -8.52783e-06 0)
(0.0999995 -5.7796e-06 0)
(0.0999996 -4.16115e-06 0)
(0.0999998 -5.23252e-06 0)
(0.0999998 -9.0244e-06 0)
(0.0999995 -1.52031e-05 0)
(0.0999991 -2.16287e-05 0)
(0.0999982 -2.84866e-05 0)
(0.0999973 -3.25286e-05 0)
(0.099996 -3.71062e-05 0)
(0.0999951 -3.57276e-05 0)
(0.0999936 -3.92646e-05 0)
(0.0999931 -3.46298e-05 0)
(0.0999916 -4.34339e-05 0)
(0.100001 -1.44898e-06 0)
(0.100001 -4.18276e-06 0)
(0.100001 -6.94949e-06 0)
(0.1 -9.37095e-06 0)
(0.0999997 -1.06259e-05 0)
(0.0999995 -1.01257e-05 0)
(0.0999993 -7.87454e-06 0)
(0.0999991 -5.11386e-06 0)
(0.0999993 -3.42254e-06 0)
(0.0999996 -4.46701e-06 0)
(0.0999997 -8.20736e-06 0)
(0.0999993 -1.43001e-05 0)
(0.0999986 -2.06082e-05 0)
(0.0999973 -2.72986e-05 0)
(0.0999957 -3.11178e-05 0)
(0.0999933 -3.54364e-05 0)
(0.0999916 -3.38819e-05 0)
(0.0999892 -3.72677e-05 0)
(0.0999881 -3.26183e-05 0)
(0.0999859 -4.13072e-05 0)
(0.100001 -1.20426e-06 0)
(0.100001 -3.8599e-06 0)
(0.100001 -6.37736e-06 0)
(0.1 -8.44018e-06 0)
(0.0999997 -9.57457e-06 0)
(0.0999995 -9.25265e-06 0)
(0.0999994 -7.55028e-06 0)
(0.0999992 -5.38018e-06 0)
(0.0999992 -4.21601e-06 0)
(0.0999994 -5.28551e-06 0)
(0.0999994 -8.55108e-06 0)
(0.0999987 -1.40404e-05 0)
(0.0999978 -1.98172e-05 0)
(0.099996 -2.61138e-05 0)
(0.0999942 -2.98444e-05 0)
(0.0999912 -3.43375e-05 0)
(0.0999891 -3.33944e-05 0)
(0.0999856 -3.73532e-05 0)
(0.0999843 -3.34608e-05 0)
(0.0999803 -4.25102e-05 0)
(0.100002 -9.15372e-07 0)
(0.100002 -3.49224e-06 0)
(0.100002 -5.7318e-06 0)
(0.100001 -7.32262e-06 0)
(0.0999997 -8.01784e-06 0)
(0.0999991 -7.30311e-06 0)
(0.0999985 -5.09705e-06 0)
(0.0999982 -2.53196e-06 0)
(0.0999985 -9.1248e-07 0)
(0.0999994 -1.65178e-06 0)
(0.0999997 -4.84359e-06 0)
(0.0999989 -1.0105e-05 0)
(0.0999975 -1.53659e-05 0)
(0.0999949 -2.09956e-05 0)
(0.0999921 -2.40043e-05 0)
(0.099988 -2.7874e-05 0)
(0.0999849 -2.65177e-05 0)
(0.0999806 -3.01735e-05 0)
(0.0999787 -2.61823e-05 0)
(0.0999745 -3.50266e-05 0)
(0.100003 -5.97477e-07 0)
(0.100003 -2.94402e-06 0)
(0.100002 -4.98605e-06 0)
(0.100001 -6.58487e-06 0)
(0.100001 -7.62445e-06 0)
(0.1 -7.74356e-06 0)
(0.1 -6.74211e-06 0)
(0.0999997 -5.48317e-06 0)
(0.0999995 -4.92576e-06 0)
(0.0999993 -6.15112e-06 0)
(0.099999 -9.00597e-06 0)
(0.099998 -1.36031e-05 0)
(0.0999968 -1.83424e-05 0)
(0.0999942 -2.3612e-05 0)
(0.0999917 -2.66518e-05 0)
(0.0999871 -3.07489e-05 0)
(0.099984 -3.02318e-05 0)
(0.0999782 -3.46483e-05 0)
(0.0999762 -3.17897e-05 0)
(0.0999689 -4.13186e-05 0)
(0.100003 -3.87461e-07 0)
(0.100003 -2.25682e-06 0)
(0.100003 -3.36306e-06 0)
(0.100001 -3.73608e-06 0)
(0.0999995 -3.60645e-06 0)
(0.0999985 -2.65042e-06 0)
(0.0999976 -7.87403e-07 0)
(0.099997 1.28888e-06 0)
(0.0999975 2.66689e-06 0)
(0.0999987 2.391e-06 0)
(0.0999994 5.80963e-07 0)
(0.0999982 -2.83103e-06 0)
(0.0999962 -6.11487e-06 0)
(0.0999926 -9.90806e-06 0)
(0.0999889 -1.16056e-05 0)
(0.0999833 -1.46499e-05 0)
(0.0999791 -1.34876e-05 0)
(0.0999727 -1.72918e-05 0)
(0.0999698 -1.42701e-05 0)
(0.0999628 -2.32679e-05 0)
(0.100004 -4.37683e-07 0)
(0.100005 -2.50241e-06 0)
(0.100004 -4.26035e-06 0)
(0.100003 -5.64787e-06 0)
(0.100002 -6.71899e-06 0)
(0.100002 -7.21855e-06 0)
(0.100001 -6.99457e-06 0)
(0.100001 -6.64331e-06 0)
(0.1 -6.64022e-06 0)
(0.1 -7.9086e-06 0)
(0.0999997 -1.03119e-05 0)
(0.0999983 -1.38497e-05 0)
(0.0999969 -1.72653e-05 0)
(0.0999935 -2.11661e-05 0)
(0.0999904 -2.32742e-05 0)
(0.0999842 -2.66766e-05 0)
(0.0999803 -2.64e-05 0)
(0.0999717 -3.09464e-05 0)
(0.099969 -2.89753e-05 0)
(0.0999569 -3.89111e-05 0)
(0.100005 4.53615e-07 0)
(0.100005 6.77065e-07 0)
(0.100004 1.09986e-06 0)
(0.100002 1.71533e-06 0)
(0.1 2.41763e-06 0)
(0.0999991 3.24003e-06 0)
(0.099998 4.29636e-06 0)
(0.0999972 5.42385e-06 0)
(0.0999975 6.3764e-06 0)
(0.0999984 6.84865e-06 0)
(0.0999991 7.02227e-06 0)
(0.0999978 6.411e-06 0)
(0.0999957 5.89619e-06 0)
(0.0999915 4.8271e-06 0)
(0.0999874 5.0065e-06 0)
(0.0999805 3.77207e-06 0)
(0.0999758 5.05609e-06 0)
(0.0999669 2.21363e-06 0)
(0.0999634 4.24086e-06 0)
(0.0999517 -3.9627e-06 0)
(0.100006 -1.10043e-06 0)
(0.100007 -3.26063e-06 0)
(0.100006 -4.85225e-06 0)
(0.100004 -5.94262e-06 0)
(0.100003 -6.81111e-06 0)
(0.100002 -7.43841e-06 0)
(0.100002 -7.73737e-06 0)
(0.100001 -7.961e-06 0)
(0.100001 -8.47153e-06 0)
(0.100001 -9.62744e-06 0)
(0.100001 -1.14305e-05 0)
(0.0999991 -1.37386e-05 0)
(0.0999975 -1.55767e-05 0)
(0.0999931 -1.77316e-05 0)
(0.0999901 -1.88536e-05 0)
(0.099982 -2.12525e-05 0)
(0.0999786 -2.10615e-05 0)
(0.0999659 -2.47115e-05 0)
(0.0999638 -2.30305e-05 0)
(0.0999427 -3.1865e-05 0)
)
;

boundaryField
{
    sides
    {
        type            calculated;
        value           nonuniform List<vector> 
40
(
(0.100006 0 0)
(0.100007 0 0)
(0.100006 0 0)
(0.100004 0 0)
(0.100003 0 0)
(0.100002 0 0)
(0.100002 0 0)
(0.100001 0 0)
(0.100001 0 0)
(0.100001 0 0)
(0.100001 0 0)
(0.0999991 0 0)
(0.0999975 0 0)
(0.0999931 0 0)
(0.0999901 0 0)
(0.099982 0 0)
(0.0999786 0 0)
(0.0999659 0 0)
(0.0999638 0 0)
(0.0999427 0 0)
(0.0999943 0 0)
(0.0999934 0 0)
(0.0999938 0 0)
(0.0999956 0 0)
(0.0999969 0 0)
(0.0999976 0 0)
(0.0999984 0 0)
(0.0999993 0 0)
(0.0999993 0 0)
(0.0999992 0 0)
(0.0999991 0 0)
(0.100001 0 0)
(0.100002 0 0)
(0.100007 0 0)
(0.10001 0 0)
(0.100018 0 0)
(0.100021 0 0)
(0.100034 0 0)
(0.100036 0 0)
(0.100057 0 0)
)
;
    }
    inlet
    {
        type            calculated;
        value           nonuniform List<vector> 
20
(
(0.0999942 0 0)
(0.0999953 0 0)
(0.099996 0 0)
(0.0999967 0 0)
(0.0999974 0 0)
(0.0999981 0 0)
(0.0999986 0 0)
(0.0999991 0 0)
(0.0999995 0 0)
(0.0999998 0 0)
(0.1 0 0)
(0.100001 0 0)
(0.100001 0 0)
(0.100001 0 0)
(0.100002 0 0)
(0.100003 0 0)
(0.100003 0 0)
(0.100004 0 0)
(0.100005 0 0)
(0.100006 0 0)
)
;
    }
    outlet
    {
        type            calculated;
        value           nonuniform List<vector> 
20
(
(0.100058 -3.1853e-05 0)
(0.100049 -3.97293e-06 0)
(0.100044 -3.89139e-05 0)
(0.100037 -2.32722e-05 0)
(0.100031 -4.13274e-05 0)
(0.100026 -3.50269e-05 0)
(0.10002 -4.25181e-05 0)
(0.100014 -4.1307e-05 0)
(0.100008 -4.34373e-05 0)
(0.100003 -4.35341e-05 0)
(0.0999971 -4.35344e-05 0)
(0.0999915 -4.34339e-05 0)
(0.0999857 -4.13071e-05 0)
(0.0999801 -4.25101e-05 0)
(0.0999743 -3.50266e-05 0)
(0.0999686 -4.13185e-05 0)
(0.0999625 -2.32679e-05 0)
(0.0999565 -3.89109e-05 0)
(0.0999512 -3.96268e-06 0)
(0.0999418 -3.18647e-05 0)
)
;
    }
    frontAndBack
    {
        type            empty;
    }
}


// ************************************************************************* //
