/*--------------------------------*- C++ -*----------------------------------*\
  =========                 |
  \\      /  F ield         | OpenFOAM: The Open Source CFD Toolbox
   \\    /   O peration     | Website:  https://openfoam.org
    \\  /    A nd           | Version:  7
     \\/     M anipulation  |
\*---------------------------------------------------------------------------*/
FoamFile
{
    version     2.0;
    format      ascii;
    class       volVectorField;
    location    "84";
    object      ddt0(hU);
}
// * * * * * * * * * * * * * * * * * * * * * * * * * * * * * * * * * * * * * //

dimensions      [0 2 -2 0 0 0 0];

internalField   nonuniform List<vector> 
400
(
(4.66922e-11 -3.27927e-11 0)
(-1.85403e-10 5.99365e-11 0)
(3.25126e-11 3.02835e-12 0)
(3.97346e-11 -2.79572e-10 0)
(-2.0599e-10 -2.763e-10 0)
(4.15818e-10 7.84558e-10 0)
(1.71818e-09 -5.73497e-11 0)
(-5.02817e-09 -2.44853e-09 0)
(-9.99575e-10 5.27405e-10 0)
(2.46215e-10 -4.91909e-13 0)
(-3.45786e-10 6.60716e-11 0)
(-8.06916e-11 1.36573e-10 0)
(1.93493e-10 7.49138e-11 0)
(2.11464e-10 -3.49901e-11 0)
(2.4188e-11 -1.08641e-10 0)
(-1.53365e-10 -1.19449e-10 0)
(-1.62257e-10 -6.96705e-11 0)
(-5.63998e-11 -1.33469e-11 0)
(5.97657e-11 2.89477e-11 0)
(4.8466e-11 3.84429e-11 0)
(-5.94277e-12 -1.03515e-11 0)
(-4.28029e-11 1.24522e-10 0)
(-1.30267e-10 -3.97571e-11 0)
(3.56514e-11 -1.8744e-10 0)
(1.02099e-11 -4.09598e-10 0)
(-9.97192e-11 9.27834e-10 0)
(-1.01889e-09 -7.38529e-10 0)
(3.89064e-09 -1.11158e-09 0)
(1.64508e-09 3.87774e-10 0)
(-3.34139e-10 -1.91049e-10 0)
(-1.03613e-10 1.87188e-11 0)
(-1.05891e-11 1.94396e-10 0)
(-1.00628e-11 1.48584e-10 0)
(-3.59727e-11 -3.97675e-12 0)
(-9.17923e-11 -1.37236e-10 0)
(-1.07263e-10 -1.75536e-10 0)
(-3.90067e-11 -1.0884e-10 0)
(3.89516e-11 -1.17748e-11 0)
(8.80747e-11 3.23194e-11 0)
(3.46048e-11 2.75335e-11 0)
(-1.62015e-10 -4.86765e-11 0)
(1.98091e-11 -6.80592e-12 0)
(-5.98357e-11 -7.20054e-11 0)
(7.48313e-11 1.40376e-10 0)
(8.35711e-11 -2.05313e-10 0)
(1.00581e-10 -4.2614e-11 0)
(-1.0985e-09 -6.31431e-10 0)
(9.66533e-10 1.38362e-09 0)
(-3.37441e-10 -1.89423e-10 0)
(-2.34622e-10 -1.34991e-10 0)
(2.42568e-10 4.5218e-11 0)
(1.30205e-10 8.96298e-11 0)
(-9.75886e-11 4.42813e-11 0)
(-2.17947e-10 -4.83734e-11 0)
(-2.25693e-10 -1.28825e-10 0)
(-9.78799e-11 -1.55854e-10 0)
(8.255e-11 -9.51727e-11 0)
(1.50407e-10 -2.39234e-11 0)
(1.33533e-10 2.35641e-11 0)
(1.92119e-11 5.38846e-11 0)
(-4.07695e-11 -1.24857e-10 0)
(4.55354e-11 -7.18592e-11 0)
(2.81903e-11 2.63514e-11 0)
(-5.11814e-11 8.63034e-11 0)
(1.193e-10 4.6949e-11 0)
(-1.95264e-10 -3.93191e-10 0)
(1.72736e-11 2.2836e-10 0)
(5.00048e-10 5.87709e-11 0)
(-3.31406e-10 -2.43977e-10 0)
(-2.59728e-11 9.84396e-11 0)
(2.51914e-10 1.40298e-10 0)
(1.76191e-11 -1.06015e-11 0)
(-1.70841e-10 -8.17077e-11 0)
(-2.2739e-10 -1.21e-10 0)
(-1.74555e-10 -1.06396e-10 0)
(-2.39481e-11 -5.41465e-11 0)
(1.30052e-10 -4.42153e-12 0)
(1.50612e-10 -1.58275e-11 0)
(8.4773e-11 -1.33165e-11 0)
(-1.37083e-11 4.47856e-11 0)
(9.64575e-11 -2.71731e-11 0)
(9.72421e-11 -5.03215e-11 0)
(8.37124e-11 5.80535e-12 0)
(-1.26906e-10 -1.00561e-10 0)
(7.20634e-11 1.7117e-10 0)
(-2.79588e-10 -3.39397e-10 0)
(2.86705e-10 2.95967e-10 0)
(-1.15912e-10 -1.01065e-10 0)
(-2.76416e-10 -1.10189e-10 0)
(3.37129e-10 2.2796e-10 0)
(7.49776e-11 7.06684e-11 0)
(-1.69217e-10 -6.97956e-11 0)
(-1.7863e-10 -6.97972e-11 0)
(-1.4276e-10 -7.52643e-11 0)
(-1.86364e-11 -3.40254e-11 0)
(9.76694e-11 3.82909e-11 0)
(1.15995e-10 5.68322e-11 0)
(5.30123e-11 -2.65004e-11 0)
(-1.26371e-11 -6.23154e-11 0)
(-5.69095e-11 2.43372e-11 0)
(9.1846e-11 6.90756e-11 0)
(3.31999e-11 -8.94829e-11 0)
(2.65884e-11 -9.83457e-11 0)
(-6.24214e-11 -2.34612e-10 0)
(-8.07677e-12 -2.86595e-11 0)
(-1.00966e-10 -1.24517e-10 0)
(1.95297e-10 1.21642e-10 0)
(-2.68427e-10 -1.49253e-10 0)
(2.23823e-10 2.28394e-10 0)
(2.05055e-10 1.56378e-10 0)
(-2.47194e-10 -6.31472e-11 0)
(-1.75716e-10 -2.75019e-11 0)
(-7.81447e-11 2.85314e-12 0)
(-4.95715e-11 -7.80037e-12 0)
(9.35087e-11 1.5549e-11 0)
(1.58768e-10 2.03464e-11 0)
(4.05077e-11 2.81701e-12 0)
(-9.1148e-11 -7.53589e-11 0)
(-9.70875e-11 -8.42629e-11 0)
(-4.91091e-11 4.0626e-11 0)
(3.16098e-11 5.95885e-11 0)
(-1.85218e-11 -4.98436e-11 0)
(-4.94743e-11 -1.44089e-10 0)
(2.29679e-11 -1.24233e-10 0)
(-6.63696e-11 -2.31993e-10 0)
(7.4354e-11 -7.42033e-12 0)
(-1.77857e-11 -8.2523e-11 0)
(-1.32489e-11 -2.01048e-11 0)
(1.86254e-10 1.66396e-10 0)
(-2.03461e-10 -9.7902e-11 0)
(-1.95897e-10 -4.12047e-11 0)
(2.29608e-11 8.96973e-11 0)
(3.96692e-11 3.065e-11 0)
(6.99512e-11 7.48434e-12 0)
(1.58696e-10 2.11116e-11 0)
(1.22369e-10 -6.60506e-11 0)
(-6.55206e-11 -1.26736e-10 0)
(-2.1524e-10 -1.34896e-10 0)
(-1.83514e-10 -8.15402e-11 0)
(-3.84966e-11 4.97289e-11 0)
(-2.92615e-11 -1.29016e-11 0)
(-2.81262e-11 -8.58946e-12 0)
(-8.12537e-11 -1.44909e-10 0)
(4.32931e-11 -7.95203e-11 0)
(-3.8026e-11 -2.29679e-10 0)
(1.23944e-10 -7.57223e-11 0)
(-6.52982e-11 -1.65531e-10 0)
(1.26402e-10 5.48359e-12 0)
(-3.11424e-11 -4.42902e-11 0)
(-1.90423e-10 -5.42603e-11 0)
(7.97589e-11 1.26215e-10 0)
(1.90346e-11 1.19697e-10 0)
(-4.39006e-11 1.08031e-11 0)
(1.14157e-10 -3.37577e-11 0)
(1.30641e-10 -8.82206e-11 0)
(1.20038e-12 -2.4034e-10 0)
(-9.69281e-11 -2.86755e-10 0)
(-1.33537e-10 -2.01458e-10 0)
(-8.69014e-11 -4.63683e-11 0)
(6.31846e-12 1.00304e-10 0)
(-1.52904e-11 -4.64467e-11 0)
(-2.07639e-12 -5.81341e-11 0)
(-4.13341e-11 -5.41039e-11 0)
(-2.93144e-12 -1.2099e-10 0)
(9.33221e-12 -1.08263e-10 0)
(5.62384e-11 -1.40152e-10 0)
(-1.16405e-11 -1.26155e-10 0)
(7.58333e-11 -3.89451e-11 0)
(-6.43864e-11 -1.23158e-10 0)
(9.63379e-14 8.42426e-11 0)
(9.06893e-11 1.22521e-10 0)
(-7.53386e-11 3.02435e-11 0)
(-6.03356e-11 5.92283e-11 0)
(7.89173e-11 -1.49541e-11 0)
(1.5452e-11 -1.97336e-10 0)
(-1.06009e-10 -3.4448e-10 0)
(-7.70538e-11 -3.16648e-10 0)
(1.67883e-11 -1.93737e-10 0)
(6.6215e-11 -3.78487e-11 0)
(5.67967e-11 1.05229e-10 0)
(-8.0789e-12 -2.27226e-11 0)
(-9.94523e-12 -1.0096e-10 0)
(3.36268e-11 -4.63477e-11 0)
(-2.91446e-11 -1.35404e-10 0)
(2.44555e-11 -8.30639e-11 0)
(-3.92058e-11 -1.40203e-10 0)
(4.08344e-11 -9.07051e-11 0)
(-4.16535e-11 -5.35591e-11 0)
(1.61628e-11 -8.08141e-11 0)
(9.43036e-11 8.62194e-11 0)
(-4.02529e-11 5.02131e-11 0)
(-4.99537e-12 -3.49249e-12 0)
(-5.71405e-12 7.01655e-11 0)
(-1.58692e-10 -1.1824e-11 0)
(-1.97045e-10 -1.86249e-10 0)
(-8.74873e-11 -2.82722e-10 0)
(4.6103e-11 -2.24413e-10 0)
(1.37936e-10 -1.35079e-10 0)
(1.77776e-10 -2.73678e-11 0)
(1.05196e-10 1.02316e-10 0)
(-3.83222e-12 -1.65656e-11 0)
(-2.04019e-11 -3.15388e-11 0)
(5.97784e-11 -1.29564e-10 0)
(-2.89987e-11 -1.18557e-10 0)
(3.10152e-11 -1.55458e-10 0)
(-7.1536e-11 -1.04376e-10 0)
(4.47246e-11 -1.02129e-10 0)
(-8.76142e-11 -5.18555e-11 0)
(2.61819e-11 -1.03177e-11 0)
(1.16839e-10 -3.7314e-11 0)
(-6.45914e-11 8.30304e-12 0)
(4.95266e-11 1.27936e-11 0)
(5.40933e-11 -4.86131e-11 0)
(-1.8366e-10 -5.52698e-11 0)
(-2.18524e-10 -1.76582e-11 0)
(-6.29152e-11 -6.11114e-11 0)
(6.4965e-11 -9.11789e-11 0)
(1.35131e-10 -9.68447e-11 0)
(1.58954e-10 -3.40012e-11 0)
(8.54249e-11 9.12362e-11 0)
(1.14101e-11 -8.95299e-13 0)
(-5.51993e-12 -2.52404e-11 0)
(1.13236e-11 -1.51523e-10 0)
(-1.39275e-11 -1.07188e-10 0)
(2.54603e-11 -1.9312e-10 0)
(-1.95019e-11 -9.34353e-11 0)
(-1.26334e-11 -9.3106e-11 0)
(-1.64296e-11 -6.30189e-11 0)
(-7.07748e-11 7.83853e-11 0)
(8.22047e-11 -8.93129e-11 0)
(7.20678e-11 -4.47384e-11 0)
(-1.61675e-12 2.57276e-11 0)
(5.95129e-11 -9.76108e-11 0)
(8.67574e-11 -1.03607e-10 0)
(-1.43212e-11 2.65598e-11 0)
(-1.06972e-10 4.77681e-11 0)
(-6.93533e-11 9.75396e-12 0)
(3.22086e-11 -5.56432e-11 0)
(7.95108e-11 -5.05611e-11 0)
(3.75812e-11 6.70889e-11 0)
(-1.08231e-11 -9.75876e-12 0)
(-8.94282e-12 -8.54904e-11 0)
(-4.38626e-11 -5.28214e-11 0)
(3.74374e-11 -1.55795e-10 0)
(-2.03877e-11 -1.01356e-10 0)
(7.34821e-11 -1.44841e-10 0)
(-1.01506e-10 -1.86297e-11 0)
(8.60537e-11 -8.12598e-11 0)
(-1.26286e-10 1.35904e-10 0)
(-1.14105e-10 8.49499e-11 0)
(1.61583e-10 -4.09582e-11 0)
(4.17775e-11 -8.56056e-12 0)
(3.74607e-11 -3.82644e-11 0)
(2.28611e-10 -1.25186e-10 0)
(1.87929e-10 -1.22116e-10 0)
(-7.1846e-12 -5.99644e-11 0)
(-1.13284e-10 6.75183e-12 0)
(-1.22438e-10 -3.64246e-11 0)
(-1.1052e-10 -5.3305e-11 0)
(-4.13028e-11 5.98844e-11 0)
(1.26654e-11 -6.39599e-11 0)
(1.30657e-12 -6.66004e-11 0)
(-5.37149e-11 -5.0128e-12 0)
(5.0916e-11 -1.53458e-10 0)
(-8.30108e-11 2.01298e-11 0)
(1.23607e-10 -2.36072e-10 0)
(-9.43446e-11 2.68529e-12 0)
(8.47008e-11 -1.0329e-10 0)
(8.45215e-11 -3.95497e-11 0)
(-2.76497e-10 2.2891e-10 0)
(-6.85425e-11 1.01616e-10 0)
(6.79783e-11 -1.73159e-12 0)
(4.92809e-11 1.35938e-11 0)
(1.50249e-10 -9.99611e-11 0)
(2.26507e-10 -2.11195e-10 0)
(1.51513e-10 -1.8805e-10 0)
(-3.76982e-11 -9.04916e-11 0)
(-1.86006e-10 -7.39261e-11 0)
(-1.93417e-10 -4.79103e-11 0)
(-5.4242e-11 6.09166e-11 0)
(5.73167e-11 -8.39008e-11 0)
(4.10319e-11 -3.11701e-11 0)
(8.46422e-12 -8.41282e-11 0)
(-6.04436e-12 -5.69654e-11 0)
(-7.07227e-11 -1.07723e-10 0)
(8.0054e-12 -1.78779e-10 0)
(6.64581e-11 -1.01371e-10 0)
(-1.90939e-10 1.04461e-10 0)
(3.32154e-10 -2.00658e-10 0)
(2.29769e-11 1.08932e-10 0)
(-2.38695e-10 2.41754e-10 0)
(-5.31183e-11 1.28163e-10 0)
(1.31928e-11 6.50962e-11 0)
(3.73488e-11 -5.7319e-11 0)
(1.78717e-10 -2.03526e-10 0)
(2.20921e-10 -2.7755e-10 0)
(4.12993e-11 -2.13842e-10 0)
(-1.39261e-10 -1.16023e-10 0)
(-1.84089e-10 -2.44104e-13 0)
(-5.9687e-11 1.00561e-10 0)
(6.79801e-11 9.82509e-12 0)
(7.66814e-11 3.43798e-12 0)
(7.24701e-11 -1.23918e-10 0)
(-9.52468e-11 2.69917e-11 0)
(4.97661e-11 -3.05573e-10 0)
(-1.98949e-10 1.94841e-10 0)
(3.76636e-10 -3.20917e-10 0)
(-3.55281e-10 2.31712e-10 0)
(-1.69025e-11 1.18243e-12 0)
(3.85316e-10 -1.51072e-10 0)
(-4.35473e-11 1.01218e-10 0)
(-1.33151e-10 1.70287e-10 0)
(-1.04942e-10 1.2602e-10 0)
(-1.03415e-10 5.28422e-11 0)
(3.40498e-11 -6.66404e-11 0)
(1.63076e-10 -2.10699e-10 0)
(1.30877e-10 -2.20118e-10 0)
(3.19201e-11 -1.10362e-10 0)
(-5.4573e-11 8.7533e-12 0)
(-3.78705e-11 7.93858e-11 0)
(-3.38816e-11 9.33533e-11 0)
(5.42853e-11 8.52488e-12 0)
(9.51226e-11 -1.62561e-10 0)
(-9.33191e-11 -1.10116e-10 0)
(1.85428e-10 -3.16925e-10 0)
(-3.50259e-10 5.1483e-10 0)
(2.65515e-10 -5.29142e-10 0)
(3.22648e-10 8.19185e-12 0)
(-4.35686e-10 1.73086e-10 0)
(1.66975e-10 -1.20948e-10 0)
(2.64854e-10 -2.49011e-11 0)
(3.50146e-11 1.14759e-10 0)
(-8.10152e-11 1.23043e-10 0)
(-1.43534e-10 9.5693e-11 0)
(-9.56574e-11 2.53528e-11 0)
(4.14953e-11 -1.09592e-10 0)
(1.39494e-10 -1.6303e-10 0)
(1.30264e-10 -1.09544e-10 0)
(2.37744e-11 -1.26644e-11 0)
(-3.32669e-11 6.39136e-11 0)
(-1.20557e-10 1.30738e-11 0)
(3.10228e-11 -5.00656e-11 0)
(3.33515e-11 1.4441e-11 0)
(-2.28383e-11 -2.14328e-10 0)
(2.8319e-10 1.73403e-11 0)
(-2.18856e-10 8.96068e-11 0)
(-4.92093e-10 -9.92904e-10 0)
(7.06621e-10 1.48417e-10 0)
(-3.21454e-10 1.6369e-10 0)
(4.80442e-11 1.10654e-10 0)
(3.45314e-10 -4.00658e-11 0)
(1.7043e-10 -5.79966e-11 0)
(-1.41076e-11 -5.0765e-11 0)
(-1.2852e-10 -6.36456e-13 0)
(-1.53992e-10 5.0903e-11 0)
(-6.0429e-11 1.82375e-11 0)
(6.69825e-11 -4.69444e-11 0)
(1.16301e-10 -8.51005e-11 0)
(3.73888e-11 -4.43047e-11 0)
(-1.92212e-11 3.27494e-11 0)
(-8.9529e-12 -2.84684e-12 0)
(3.22223e-11 -1.50314e-10 0)
(-7.37532e-11 8.14871e-11 0)
(2.61252e-11 6.29089e-11 0)
(-1.28041e-11 5.79701e-10 0)
(3.4739e-10 -1.20972e-09 0)
(-8.48069e-10 2.24816e-09 0)
(-1.28816e-09 -6.87989e-10 0)
(-4.66121e-10 -8.9062e-11 0)
(-1.53188e-10 1.1336e-10 0)
(2.32593e-11 -1.66246e-10 0)
(7.07118e-11 -2.72382e-10 0)
(8.11056e-11 -2.0454e-10 0)
(7.25805e-11 -3.9858e-11 0)
(8.75515e-13 1.10534e-10 0)
(-5.24719e-11 1.35958e-10 0)
(-3.3416e-11 4.91584e-11 0)
(2.57704e-11 -5.0101e-11 0)
(2.15476e-11 -7.32719e-11 0)
(-6.3494e-12 -1.8626e-11 0)
(2.34262e-11 2.84962e-11 0)
(-1.10514e-10 -1.10314e-10 0)
(4.84992e-11 -3.99213e-11 0)
(2.02156e-10 1.35158e-10 0)
(-3.8818e-10 4.12803e-10 0)
(2.50716e-10 -1.01705e-09 0)
(7.49494e-10 2.94438e-09 0)
(6.46702e-10 -8.97421e-10 0)
(9.63687e-10 -1.70868e-10 0)
(-1.72403e-10 3.28625e-11 0)
(-2.58536e-10 -1.09104e-10 0)
(7.94876e-11 -1.57617e-10 0)
(3.17718e-10 -1.05843e-10 0)
(3.41506e-10 -1.81816e-11 0)
(1.39714e-10 4.79309e-11 0)
(-9.12553e-11 4.5453e-11 0)
(-1.64428e-10 5.89182e-12 0)
(-7.55827e-11 -3.68563e-11 0)
(-8.8937e-12 -2.98287e-11 0)
(1.62841e-11 1.26922e-11 0)
)
;

boundaryField
{
    sides
    {
        type            calculated;
        value           nonuniform List<vector> 
40
(
(2.34262e-11 0 0)
(-1.10514e-10 0 0)
(4.84992e-11 0 0)
(2.02156e-10 0 0)
(-3.8818e-10 0 0)
(2.50716e-10 0 0)
(7.49494e-10 0 0)
(6.46702e-10 0 0)
(9.63687e-10 0 0)
(-1.72403e-10 0 0)
(-2.58536e-10 0 0)
(7.94876e-11 0 0)
(3.17718e-10 0 0)
(3.41506e-10 0 0)
(1.39714e-10 0 0)
(-9.12553e-11 0 0)
(-1.64428e-10 0 0)
(-7.55827e-11 0 0)
(-8.8937e-12 0 0)
(1.62841e-11 0 0)
(4.66922e-11 0 0)
(-1.85403e-10 0 0)
(3.25126e-11 0 0)
(3.97346e-11 0 0)
(-2.0599e-10 0 0)
(4.15818e-10 0 0)
(1.71818e-09 0 0)
(-5.02817e-09 0 0)
(-9.99575e-10 0 0)
(2.46215e-10 0 0)
(-3.45786e-10 0 0)
(-8.06916e-11 0 0)
(1.93493e-10 0 0)
(2.11464e-10 0 0)
(2.4188e-11 0 0)
(-1.53365e-10 0 0)
(-1.62257e-10 0 0)
(-5.63998e-11 0 0)
(5.97657e-11 0 0)
(4.8466e-11 0 0)
)
;
    }
    inlet
    {
        type            calculated;
        value           uniform (0 0 0);
    }
    outlet
    {
        type            calculated;
        value           nonuniform List<vector> 
20
(
(4.8466e-11 3.84429e-11 0)
(3.46048e-11 2.75335e-11 0)
(1.92119e-11 5.38846e-11 0)
(-1.37083e-11 4.47856e-11 0)
(-5.69095e-11 2.43372e-11 0)
(-4.91091e-11 4.0626e-11 0)
(-3.84966e-11 4.97289e-11 0)
(6.31846e-12 1.00304e-10 0)
(5.67967e-11 1.05229e-10 0)
(1.05196e-10 1.02316e-10 0)
(8.54249e-11 9.12362e-11 0)
(3.75812e-11 6.70889e-11 0)
(-4.13028e-11 5.98844e-11 0)
(-5.4242e-11 6.09166e-11 0)
(-5.9687e-11 1.00561e-10 0)
(-3.78705e-11 7.93858e-11 0)
(-3.32669e-11 6.39136e-11 0)
(-1.92212e-11 3.27494e-11 0)
(-6.3494e-12 -1.8626e-11 0)
(1.62841e-11 1.26922e-11 0)
)
;
    }
    frontAndBack
    {
        type            empty;
    }
}


// ************************************************************************* //
