/*--------------------------------*- C++ -*----------------------------------*\
  =========                 |
  \\      /  F ield         | OpenFOAM: The Open Source CFD Toolbox
   \\    /   O peration     | Website:  https://openfoam.org
    \\  /    A nd           | Version:  7
     \\/     M anipulation  |
\*---------------------------------------------------------------------------*/
FoamFile
{
    version     2.0;
    format      ascii;
    class       volScalarField;
    location    "84";
    object      ddt0(h);
}
// * * * * * * * * * * * * * * * * * * * * * * * * * * * * * * * * * * * * * //

dimensions      [0 1 -1 0 0 0 0];

internalField   nonuniform List<scalar> 
400
(
1.44641e-09
-5.76888e-10
-1.46412e-09
-2.26079e-09
4.88629e-09
3.41322e-09
-4.30702e-10
-4.41831e-08
1.04546e-09
5.82006e-11
-1.00632e-09
-1.54622e-10
8.20718e-10
9.31027e-10
3.27741e-10
-3.14454e-10
-4.97057e-10
-2.29151e-10
4.73333e-11
5.10805e-11
-9.50652e-11
-2.76307e-10
2.35498e-10
5.49868e-10
-3.25797e-09
-4.04235e-09
4.5346e-09
4.01167e-08
2.12049e-09
-5.59981e-10
-1.58774e-10
2.09359e-10
2.20443e-10
5.28501e-11
-1.53978e-10
-2.13407e-10
-1.12472e-10
7.64099e-11
2.61528e-10
1.70851e-10
-1.99209e-09
6.07465e-10
7.82557e-10
1.76918e-09
-3.1429e-09
2.98603e-09
-7.75121e-09
4.50953e-09
-1.92259e-09
-5.36168e-10
1.00186e-09
6.67966e-10
-1.18541e-10
-5.75786e-10
-5.79972e-10
-1.88189e-10
2.06205e-10
3.70069e-10
4.5205e-10
2.54801e-10
-9.66785e-10
1.7938e-10
1.79501e-10
8.37214e-10
-2.08723e-10
-7.20922e-10
1.53276e-09
1.36758e-09
-1.58289e-09
1.32067e-10
1.05826e-09
2.47049e-10
-4.61454e-10
-6.2695e-10
-3.5675e-10
1.116e-10
4.26151e-10
4.39063e-10
3.23495e-10
1.32223e-10
2.04323e-11
-2.50568e-10
2.0028e-10
-6.80534e-10
1.59437e-09
-2.07488e-09
1.87193e-09
-9.03192e-10
-1.12404e-09
1.41494e-09
3.103e-10
-4.92743e-10
-5.5819e-10
-3.69858e-10
1.0423e-10
4.47965e-10
4.40279e-10
1.88694e-10
-1.34283e-10
-1.49118e-10
4.83316e-10
-3.60365e-10
1.85417e-10
-1.11264e-09
7.45889e-10
-5.51336e-10
1.05958e-09
-1.56267e-09
1.12778e-09
7.95579e-10
-8.48816e-10
-5.02397e-10
-5.47296e-11
1.07e-10
4.73525e-10
5.89722e-10
2.26624e-10
-3.26464e-10
-7.01769e-10
-4.03414e-10
4.30777e-10
-2.93557e-10
-3.39936e-10
-7.05827e-11
-8.35315e-10
5.39133e-10
-2.8198e-10
-6.20274e-12
9.11895e-10
-7.39868e-10
-6.42902e-10
1.48641e-10
4.12081e-10
5.45883e-10
6.05124e-10
4.32944e-10
-1.96418e-11
-6.32685e-10
-9.83837e-10
-5.11851e-10
-1.34262e-10
2.1578e-10
-7.76921e-10
4.66817e-10
-5.97919e-10
5.63758e-10
-6.44117e-10
6.75737e-10
-5.61794e-11
-5.89992e-10
4.61726e-10
1.87761e-10
1.85516e-10
7.31401e-10
5.00627e-10
-1.85657e-11
-1.84104e-10
-3.48042e-10
-5.88867e-10
-3.38773e-10
-4.54917e-10
1.51586e-10
-1.68805e-10
9.58918e-11
1.93109e-11
1.3801e-10
-1.92121e-10
4.59007e-10
-2.33694e-10
2.52747e-11
3.67492e-10
-2.13111e-10
-6.65412e-11
4.11941e-10
7.40242e-11
-4.0025e-10
-2.23674e-10
2.11833e-10
3.50687e-10
1.57216e-10
-1.22708e-10
-3.68047e-10
2.86786e-10
-9.4429e-11
2.88469e-10
-3.45363e-10
2.28575e-10
-1.70455e-10
3.57296e-12
1.54504e-10
-2.73627e-10
3.25203e-11
-1.13875e-10
-6.9671e-10
-6.53594e-10
-2.65183e-10
6.33293e-11
5.63121e-10
1.0019e-09
5.60796e-10
1.55922e-10
-3.93796e-10
4.05306e-10
-1.82283e-10
3.43405e-10
-4.89366e-10
3.29775e-10
-3.65509e-10
7.94156e-11
2.53494e-10
-3.4335e-10
2.58607e-10
-6.46339e-12
-9.31423e-10
-7.51839e-10
-1.60311e-10
4.04514e-11
4.36558e-10
1.00414e-09
6.15526e-10
6.29957e-11
1.89601e-10
2.06116e-10
-1.25875e-10
2.65112e-10
-1.539e-10
2.30999e-11
6.89576e-11
-2.4865e-10
2.94393e-10
2.50381e-10
3.39703e-11
1.14342e-10
1.57921e-10
-1.10156e-11
-2.99187e-10
-3.95923e-10
-5.17645e-11
4.17256e-10
3.00661e-10
1.24399e-10
5.71592e-10
-5.03213e-10
4.5172e-10
-1.8116e-10
4.53613e-10
-5.94703e-10
5.58798e-10
-4.86125e-10
-3.32282e-10
6.63426e-10
9.38747e-11
6.91455e-11
6.93524e-10
5.65681e-10
-8.25239e-12
-3.7558e-10
-5.4333e-10
-5.5058e-10
-2.50684e-10
4.72481e-10
5.00276e-11
-4.46781e-10
6.59466e-10
-8.93103e-10
9.73826e-10
-6.94979e-10
4.49555e-10
2.88438e-10
-1.08884e-09
-2.43816e-10
1.29875e-10
1.39779e-10
4.53257e-10
5.92672e-10
4.21304e-10
-4.65155e-11
-6.91603e-10
-1.03643e-09
-5.28894e-10
4.91173e-10
-2.83347e-10
2.68962e-10
-5.08153e-10
1.00465e-10
5.41072e-10
3.64407e-10
-9.27832e-10
1.44861e-09
-8.43103e-11
-1.02803e-09
-4.55239e-10
-1.82847e-10
-6.04237e-11
3.19478e-10
5.30241e-10
2.74517e-10
-2.78347e-10
-7.16424e-10
-4.2399e-10
1.92707e-10
-1.78269e-10
5.76991e-10
-8.46433e-10
1.78806e-09
-1.78149e-09
1.91687e-09
-2.25896e-09
1.21867e-11
1.29522e-09
-3.52375e-10
-6.56504e-10
-5.69301e-10
-4.89333e-10
-9.9477e-11
2.65003e-10
4.18237e-10
3.22481e-10
-3.29772e-11
-1.30214e-10
-5.72054e-10
3.86429e-10
5.26494e-10
1.08609e-10
1.13669e-09
-2.90072e-09
2.6799e-09
1.2424e-09
-1.83484e-09
7.01591e-10
7.39225e-10
-6.97472e-11
-4.96739e-10
-6.39085e-10
-4.93825e-10
-1.23839e-10
3.17972e-10
5.56385e-10
4.39463e-10
1.50609e-10
-1.24871e-09
9.74116e-10
9.60153e-10
1.23166e-09
-1.88186e-09
9.2944e-11
-6.73389e-10
1.66542e-09
-1.33001e-09
2.44488e-10
1.03582e-09
4.60286e-10
-1.76874e-10
-5.62028e-10
-6.57785e-10
-3.70186e-10
7.04154e-11
3.51009e-10
4.52519e-10
2.45359e-10
1.01794e-10
5.36708e-11
1.34931e-10
1.27072e-09
-3.96273e-09
1.41754e-08
-8.16277e-09
-2.63826e-08
-1.41053e-09
-3.61768e-10
-3.90307e-12
1.06455e-10
7.63636e-11
-1.26059e-11
-1.81366e-10
-2.41531e-10
-1.77e-10
-5.4111e-11
1.28744e-10
1.20611e-10
1.60499e-09
-3.97948e-10
-1.24904e-09
-1.55957e-09
3.79315e-09
-1.08176e-08
4.88341e-09
2.56452e-08
3.1902e-09
-1.078e-09
-9.87925e-10
-3.30769e-11
7.66376e-10
8.78834e-10
3.76094e-10
-1.95663e-10
-4.52391e-10
-3.60326e-10
-1.34187e-10
-2.29411e-11
)
;

boundaryField
{
    sides
    {
        type            calculated;
        value           nonuniform List<scalar> 
40
(
1.60499e-09
-3.97948e-10
-1.24904e-09
-1.55957e-09
3.79315e-09
-1.08176e-08
4.88341e-09
2.56452e-08
3.1902e-09
-1.078e-09
-9.87925e-10
-3.30769e-11
7.66376e-10
8.78834e-10
3.76094e-10
-1.95663e-10
-4.52391e-10
-3.60326e-10
-1.34187e-10
-2.29411e-11
1.44641e-09
-5.76888e-10
-1.46412e-09
-2.26079e-09
4.88629e-09
3.41322e-09
-4.30702e-10
-4.41831e-08
1.04546e-09
5.82006e-11
-1.00632e-09
-1.54622e-10
8.20718e-10
9.31027e-10
3.27741e-10
-3.14454e-10
-4.97057e-10
-2.29151e-10
4.73333e-11
5.10805e-11
)
;
    }
    inlet
    {
        type            calculated;
        value           nonuniform List<scalar> 
20
(
1.44641e-09
-9.50652e-11
-1.99209e-09
-9.66785e-10
2.04323e-11
4.83316e-10
4.30777e-10
-1.34262e-10
-4.54917e-10
-1.22708e-10
1.55922e-10
6.29957e-11
1.24399e-10
4.72481e-10
4.91173e-10
1.92707e-10
-5.72054e-10
-1.24871e-09
1.01794e-10
1.60499e-09
)
;
    }
    outlet
    {
        type            calculated;
        value           uniform 0;
    }
    frontAndBack
    {
        type            empty;
    }
}


// ************************************************************************* //
