/*--------------------------------*- C++ -*----------------------------------*\
  =========                 |
  \\      /  F ield         | OpenFOAM: The Open Source CFD Toolbox
   \\    /   O peration     | Website:  https://openfoam.org
    \\  /    A nd           | Version:  7
     \\/     M anipulation  |
\*---------------------------------------------------------------------------*/
FoamFile
{
    version     2.0;
    format      ascii;
    class       surfaceScalarField;
    location    "84";
    object      phi;
}
// * * * * * * * * * * * * * * * * * * * * * * * * * * * * * * * * * * * * * //

dimensions      [0 4 -1 0 0 0 0];

internalField   nonuniform List<scalar> 
760
(
4.99999e-06
9.86366e-12
4.99999e-06
-4.29864e-12
5.00001e-06
-1.27682e-11
5.00003e-06
-1.96093e-11
5.00005e-06
-2.67832e-11
5.00009e-06
-3.34292e-11
5.00013e-06
-4.76687e-11
5.00018e-06
-6.27852e-11
5.00025e-06
-6.28407e-11
5.00032e-06
-7.8097e-11
5.00041e-06
-9.00626e-11
5.00053e-06
-1.13977e-10
5.00066e-06
-1.26964e-10
5.00082e-06
-1.67966e-10
5.001e-06
-1.78218e-10
5.00126e-06
-2.56975e-10
5.00151e-06
-2.56188e-10
5.00195e-06
-4.31665e-10
5.00236e-06
-4.13965e-10
-8.91481e-10
5.00002e-06
-1.19862e-11
5.00004e-06
-1.89967e-11
5.00005e-06
-2.9198e-11
5.00008e-06
-4.16915e-11
5.0001e-06
-5.45052e-11
5.00014e-06
-6.90638e-11
5.00018e-06
-8.52077e-11
5.00023e-06
-1.03468e-10
5.00029e-06
-1.23618e-10
5.00037e-06
-1.53228e-10
5.00045e-06
-1.77068e-10
5.00056e-06
-2.22136e-10
5.00069e-06
-2.50477e-10
5.00084e-06
-3.24353e-10
5.00102e-06
-3.54136e-10
5.00125e-06
-4.86258e-10
5.0015e-06
-5.09225e-10
5.00184e-06
-7.67809e-10
5.00218e-06
-7.59658e-10
-1.26182e-09
4.99999e-06
-4.7469e-12
4.99999e-06
-2.04385e-11
5e-06
-3.76439e-11
5.00002e-06
-5.6561e-11
5.00004e-06
-7.64305e-11
5.00007e-06
-9.90269e-11
5.00011e-06
-1.22605e-10
5.00016e-06
-1.52307e-10
5.00021e-06
-1.82488e-10
5.00029e-06
-2.23783e-10
5.00037e-06
-2.62381e-10
5.00047e-06
-3.23465e-10
5.00059e-06
-3.72195e-10
5.00074e-06
-4.67775e-10
5.00091e-06
-5.25941e-10
5.00111e-06
-6.86857e-10
5.00135e-06
-7.47854e-10
5.00162e-06
-1.04102e-09
5.00194e-06
-1.08287e-09
-1.68929e-09
5.00001e-06
-1.26569e-11
5.00002e-06
-3.34409e-11
5.00004e-06
-5.44586e-11
5.00006e-06
-7.7597e-11
5.00008e-06
-1.01727e-10
5.00012e-06
-1.30371e-10
5.00015e-06
-1.59814e-10
5.0002e-06
-1.97675e-10
5.00025e-06
-2.36146e-10
5.00032e-06
-2.8871e-10
5.00039e-06
-3.38457e-10
5.00048e-06
-4.15522e-10
5.00059e-06
-4.78639e-10
5.00072e-06
-5.96678e-10
5.00087e-06
-6.72957e-10
5.00105e-06
-8.65127e-10
5.00124e-06
-9.46794e-10
5.00148e-06
-1.27985e-09
5.00173e-06
-1.33107e-09
-1.89774e-09
5e-06
-1.16267e-11
5e-06
-3.65732e-11
5.00001e-06
-6.21811e-11
5.00002e-06
-9.02013e-11
5.00004e-06
-1.19812e-10
5.00006e-06
-1.54338e-10
5.0001e-06
-1.91001e-10
5.00013e-06
-2.36233e-10
5.00018e-06
-2.83329e-10
5.00024e-06
-3.45362e-10
5.00031e-06
-4.06852e-10
5.00039e-06
-4.95819e-10
5.00048e-06
-5.74378e-10
5.00059e-06
-7.07422e-10
5.00072e-06
-8.0361e-10
5.00087e-06
-1.0126e-09
5.00104e-06
-1.11638e-09
5.00122e-06
-1.46145e-09
5.00142e-06
-1.53244e-09
-2.16251e-09
5e-06
-1.39247e-11
5.00001e-06
-4.32955e-11
5.00002e-06
-7.30414e-11
5.00003e-06
-1.05029e-10
5.00005e-06
-1.38831e-10
5.00008e-06
-1.77676e-10
5.00011e-06
-2.1951e-10
5.00014e-06
-2.70577e-10
5.00018e-06
-3.24242e-10
5.00023e-06
-3.94497e-10
5.00029e-06
-4.64355e-10
5.00036e-06
-5.64002e-10
5.00043e-06
-6.53288e-10
5.00053e-06
-8.00208e-10
5.00063e-06
-9.08838e-10
5.00075e-06
-1.13451e-09
5.00089e-06
-1.25101e-09
5.00104e-06
-1.6157e-09
5.00121e-06
-1.69673e-09
-2.29311e-09
5e-06
-1.57773e-11
5.00001e-06
-4.77369e-11
5.00001e-06
-8.03136e-11
5.00002e-06
-1.14964e-10
5.00004e-06
-1.52085e-10
5.00005e-06
-1.94727e-10
5.00008e-06
-2.40958e-10
5.0001e-06
-2.96823e-10
5.00013e-06
-3.56282e-10
5.00017e-06
-4.32677e-10
5.00022e-06
-5.09756e-10
5.00027e-06
-6.1732e-10
5.00033e-06
-7.15964e-10
5.00041e-06
-8.72369e-10
5.00049e-06
-9.92048e-10
5.00058e-06
-1.22789e-09
5.00069e-06
-1.35547e-09
5.0008e-06
-1.72632e-09
5.00091e-06
-1.81152e-09
-2.44161e-09
5e-06
-1.68546e-11
5e-06
-5.07591e-11
5.00001e-06
-8.52955e-11
5.00002e-06
-1.22491e-10
5.00003e-06
-1.62175e-10
5.00004e-06
-2.07806e-10
5.00006e-06
-2.57187e-10
5.00008e-06
-3.16708e-10
5.0001e-06
-3.80177e-10
5.00013e-06
-4.61038e-10
5.00016e-06
-5.43206e-10
5.0002e-06
-6.56648e-10
5.00025e-06
-7.61431e-10
5.0003e-06
-9.24846e-10
5.00036e-06
-1.05138e-09
5.00042e-06
-1.29469e-09
5.0005e-06
-1.42853e-09
5.00058e-06
-1.80699e-09
5.00067e-06
-1.89968e-09
-2.51563e-09
5e-06
-1.73888e-11
5e-06
-5.26175e-11
5.00001e-06
-8.84381e-11
5.00001e-06
-1.27238e-10
5.00002e-06
-1.68517e-10
5.00002e-06
-2.1587e-10
5.00003e-06
-2.6706e-10
5.00005e-06
-3.28719e-10
5.00006e-06
-3.94534e-10
5.00008e-06
-4.78084e-10
5.0001e-06
-5.63354e-10
5.00012e-06
-6.80186e-10
5.00015e-06
-7.8864e-10
5.00018e-06
-9.56107e-10
5.00022e-06
-1.08684e-09
5.00026e-06
-1.33439e-09
5.0003e-06
-1.47226e-09
5.00035e-06
-1.8541e-09
5.00039e-06
-1.94705e-09
-2.5716e-09
5e-06
-1.75462e-11
5e-06
-5.32023e-11
5e-06
-8.95658e-11
5e-06
-1.28856e-10
5.00001e-06
-1.7069e-10
5.00001e-06
-2.18549e-10
5.00001e-06
-2.70361e-10
5.00002e-06
-3.32697e-10
5.00002e-06
-3.99294e-10
5.00003e-06
-4.83795e-10
5.00003e-06
-5.70073e-10
5.00004e-06
-6.88005e-10
5.00005e-06
-7.97739e-10
5.00006e-06
-9.66467e-10
5.00007e-06
-1.0986e-09
5.00009e-06
-1.34747e-09
5.0001e-06
-1.48675e-09
5.00012e-06
-1.86943e-09
5.00013e-06
-1.96426e-09
-2.5879e-09
5e-06
-1.73547e-11
5e-06
-5.25353e-11
5e-06
-8.85144e-11
5e-06
-1.27244e-10
4.99999e-06
-1.68584e-10
4.99999e-06
-2.15834e-10
4.99999e-06
-2.67069e-10
4.99998e-06
-3.28688e-10
4.99998e-06
-3.94479e-10
4.99997e-06
-4.78157e-10
4.99997e-06
-5.63361e-10
4.99996e-06
-6.80143e-10
4.99995e-06
-7.88623e-10
4.99994e-06
-9.55965e-10
4.99993e-06
-1.08658e-09
4.99991e-06
-1.33413e-09
4.9999e-06
-1.47215e-09
4.99988e-06
-1.85411e-09
4.99987e-06
-1.94716e-09
-2.57155e-09
5e-06
-1.67727e-11
5e-06
-5.07642e-11
4.99999e-06
-8.5345e-11
4.99999e-06
-1.22517e-10
4.99998e-06
-1.62219e-10
4.99998e-06
-2.07783e-10
4.99997e-06
-2.57164e-10
4.99995e-06
-3.16703e-10
4.99994e-06
-3.80079e-10
4.99992e-06
-4.61084e-10
4.9999e-06
-5.43297e-10
4.99988e-06
-6.56642e-10
4.99985e-06
-7.61385e-10
4.99982e-06
-9.24713e-10
4.99978e-06
-1.05117e-09
4.99974e-06
-1.29439e-09
4.9997e-06
-1.42832e-09
4.99965e-06
-1.80691e-09
4.99961e-06
-1.89975e-09
-2.51554e-09
5e-06
-1.57682e-11
5e-06
-4.77779e-11
4.99999e-06
-8.02522e-11
4.99998e-06
-1.1504e-10
4.99997e-06
-1.52001e-10
4.99996e-06
-1.94766e-10
4.99994e-06
-2.40883e-10
4.99992e-06
-2.96877e-10
4.9999e-06
-3.56226e-10
4.99987e-06
-4.32561e-10
4.99984e-06
-5.09839e-10
4.9998e-06
-6.17423e-10
4.99975e-06
-7.15997e-10
4.9997e-06
-8.72362e-10
4.99964e-06
-9.92033e-10
4.99958e-06
-1.22771e-09
4.9995e-06
-1.35528e-09
4.99942e-06
-1.72612e-09
4.99933e-06
-1.81147e-09
-2.44132e-09
5e-06
-1.40223e-11
4.99999e-06
-4.32944e-11
4.99999e-06
-7.2988e-11
4.99998e-06
-1.04984e-10
4.99996e-06
-1.38695e-10
4.99995e-06
-1.77805e-10
4.99992e-06
-2.19512e-10
4.9999e-06
-2.70643e-10
4.99987e-06
-3.24404e-10
4.99983e-06
-3.94346e-10
4.99978e-06
-4.64235e-10
4.99973e-06
-5.64022e-10
4.99967e-06
-6.53373e-10
4.99959e-06
-8.00301e-10
4.99951e-06
-9.08963e-10
4.99942e-06
-1.13448e-09
4.99931e-06
-1.25091e-09
4.9992e-06
-1.61538e-09
4.99909e-06
-1.69645e-09
-2.29267e-09
5e-06
-1.17656e-11
4.99999e-06
-3.65509e-11
4.99998e-06
-6.2135e-11
4.99997e-06
-9.00468e-11
4.99995e-06
-1.19965e-10
4.99992e-06
-1.54345e-10
4.99989e-06
-1.91164e-10
4.99986e-06
-2.36069e-10
4.99982e-06
-2.83503e-10
4.99977e-06
-3.45437e-10
4.99971e-06
-4.06707e-10
4.99964e-06
-4.95692e-10
4.99957e-06
-5.74394e-10
4.99947e-06
-7.07483e-10
4.99937e-06
-8.03767e-10
4.99925e-06
-1.01266e-09
4.99911e-06
-1.1164e-09
4.99896e-06
-1.46111e-09
4.99879e-06
-1.53209e-09
-2.16197e-09
5e-06
-1.27161e-11
5e-06
-3.34063e-11
4.99999e-06
-5.44376e-11
4.99998e-06
-7.75707e-11
4.99996e-06
-1.02029e-10
4.99994e-06
-1.30089e-10
4.9999e-06
-1.60238e-10
4.99987e-06
-1.97601e-10
4.99982e-06
-2.35988e-10
4.99976e-06
-2.88805e-10
4.99969e-06
-3.3842e-10
4.99961e-06
-4.15333e-10
4.99952e-06
-4.78513e-10
4.99941e-06
-5.96568e-10
4.99928e-06
-6.72987e-10
4.99913e-06
-8.65124e-10
4.99896e-06
-9.46832e-10
4.99878e-06
-1.27954e-09
4.99858e-06
-1.33074e-09
-1.89714e-09
4.99999e-06
-4.65633e-12
4.99998e-06
-2.04362e-11
4.99996e-06
-3.77028e-11
4.99994e-06
-5.67557e-11
4.99992e-06
-7.64606e-11
4.99988e-06
-9.89001e-11
4.99985e-06
-1.23023e-10
4.9998e-06
-1.52331e-10
4.99975e-06
-1.82358e-10
4.99968e-06
-2.23823e-10
4.99961e-06
-2.62472e-10
4.99952e-06
-3.23416e-10
4.99941e-06
-3.72111e-10
4.99928e-06
-4.67633e-10
4.99913e-06
-5.25909e-10
4.99896e-06
-6.86797e-10
4.99876e-06
-7.47936e-10
4.99852e-06
-1.04087e-09
4.99827e-06
-1.08278e-09
-1.68889e-09
5.00001e-06
-1.17392e-11
5.00001e-06
-1.91128e-11
5e-06
-2.93792e-11
4.99998e-06
-4.18974e-11
4.99996e-06
-5.40073e-11
4.99993e-06
-6.92012e-11
4.99989e-06
-8.34642e-11
4.99984e-06
-1.04514e-10
4.99979e-06
-1.23544e-10
4.99971e-06
-1.53151e-10
4.99963e-06
-1.77176e-10
4.99953e-06
-2.22202e-10
4.99941e-06
-2.50482e-10
4.99926e-06
-3.24183e-10
4.99909e-06
-3.54007e-10
4.99889e-06
-4.86025e-10
4.99865e-06
-5.0923e-10
4.99838e-06
-7.67637e-10
4.99805e-06
-7.59639e-10
-1.26138e-09
4.99998e-06
1.00653e-11
4.99996e-06
-4.47535e-12
4.99995e-06
-1.29648e-11
4.99992e-06
-1.93847e-11
4.9999e-06
-2.63456e-11
4.99986e-06
-2.91205e-11
4.99982e-06
-3.37883e-11
4.99977e-06
-6.28117e-11
4.99971e-06
-6.30229e-11
4.99963e-06
-7.82078e-11
4.99955e-06
-9.02798e-11
4.99944e-06
-1.14188e-10
4.99932e-06
-1.27094e-10
4.99916e-06
-1.67941e-10
4.99898e-06
-1.78168e-10
4.99875e-06
-2.56891e-10
4.9985e-06
-2.56259e-10
4.99817e-06
-4.31736e-10
4.99782e-06
-4.1412e-10
-8.91525e-10
5.00001e-06
5.00001e-06
4.99999e-06
4.99997e-06
4.99995e-06
4.99991e-06
4.99987e-06
4.99982e-06
4.99975e-06
4.99968e-06
4.99959e-06
4.99947e-06
4.99934e-06
4.99918e-06
4.999e-06
4.99874e-06
4.99848e-06
4.99805e-06
4.99764e-06
)
;

boundaryField
{
    sides
    {
        type            calculated;
        value           uniform 0;
    }
    inlet
    {
        type            calculated;
        value           nonuniform List<scalar> 
20
(
-5e-06
-5e-06
-5e-06
-5e-06
-5e-06
-5e-06
-5e-06
-5e-06
-5e-06
-5e-06
-5e-06
-5e-06
-5e-06
-5e-06
-5e-06
-5e-06
-5e-06
-5e-06
-5e-06
-5e-06
)
;
    }
    outlet
    {
        type            calculated;
        value           nonuniform List<scalar> 
20
(
5.00325e-06
5.00255e-06
5.00237e-06
5.00194e-06
5.00169e-06
5.00134e-06
5.00106e-06
5.00074e-06
5.00045e-06
5.00015e-06
4.99985e-06
4.99955e-06
4.99926e-06
4.99894e-06
4.99866e-06
4.99831e-06
4.99806e-06
4.99763e-06
4.99745e-06
4.99675e-06
)
;
    }
    frontAndBack
    {
        type            empty;
        value           nonuniform 0();
    }
}


// ************************************************************************* //
