/*--------------------------------*- C++ -*----------------------------------*\
  =========                 |
  \\      /  F ield         | OpenFOAM: The Open Source CFD Toolbox
   \\    /   O peration     | Website:  https://openfoam.org
    \\  /    A nd           | Version:  7
     \\/     M anipulation  |
\*---------------------------------------------------------------------------*/
FoamFile
{
    version     2.0;
    format      ascii;
    class       surfaceScalarField;
    location    "84";
    object      phi_0;
}
// * * * * * * * * * * * * * * * * * * * * * * * * * * * * * * * * * * * * * //

dimensions      [0 4 -1 0 0 0 0];

internalField   nonuniform List<scalar> 
760
(
4.99999e-06
9.80598e-12
4.99999e-06
-4.32065e-12
5.00001e-06
-1.26778e-11
5.00003e-06
-1.94378e-11
5.00005e-06
-2.69434e-11
5.00009e-06
-3.66017e-11
5.00013e-06
-3.84595e-11
5.00018e-06
-4.53843e-11
5.00025e-06
-6.23522e-11
5.00032e-06
-7.8101e-11
5.00041e-06
-9.00449e-11
5.00053e-06
-1.14006e-10
5.00066e-06
-1.27022e-10
5.00082e-06
-1.68005e-10
5.001e-06
-1.78206e-10
5.00126e-06
-2.56918e-10
5.00151e-06
-2.5613e-10
5.00195e-06
-4.31635e-10
5.00236e-06
-4.1396e-10
-8.9149e-10
5.00002e-06
-1.20028e-11
5.00004e-06
-1.90125e-11
5.00005e-06
-2.91643e-11
5.00008e-06
-4.16061e-11
5.0001e-06
-5.43171e-11
5.00014e-06
-6.93442e-11
5.00018e-06
-8.42478e-11
5.00023e-06
-1.04442e-10
5.00029e-06
-1.23801e-10
5.00037e-06
-1.53181e-10
5.00045e-06
-1.77037e-10
5.00056e-06
-2.2217e-10
5.00069e-06
-2.50528e-10
5.00084e-06
-3.24372e-10
5.00102e-06
-3.54102e-10
5.00125e-06
-4.86183e-10
5.0015e-06
-5.09158e-10
5.00184e-06
-7.67777e-10
5.00218e-06
-7.59654e-10
-1.26183e-09
4.99999e-06
-4.6733e-12
4.99999e-06
-2.04365e-11
5e-06
-3.76515e-11
5.00002e-06
-5.66139e-11
5.00004e-06
-7.62721e-11
5.00007e-06
-9.91318e-11
5.00011e-06
-1.22095e-10
5.00016e-06
-1.52412e-10
5.00021e-06
-1.82439e-10
5.00029e-06
-2.23738e-10
5.00037e-06
-2.62416e-10
5.00047e-06
-3.23512e-10
5.00059e-06
-3.72206e-10
5.00074e-06
-4.67736e-10
5.00091e-06
-5.25872e-10
5.00111e-06
-6.8679e-10
5.00135e-06
-7.47816e-10
5.00162e-06
-1.04101e-09
5.00194e-06
-1.08287e-09
-1.68932e-09
5.00001e-06
-1.25874e-11
5.00002e-06
-3.34203e-11
5.00004e-06
-5.44512e-11
5.00006e-06
-7.76594e-11
5.00008e-06
-1.01697e-10
5.00012e-06
-1.30264e-10
5.00015e-06
-1.5992e-10
5.0002e-06
-1.97809e-10
5.00025e-06
-2.36045e-10
5.00032e-06
-2.88709e-10
5.00039e-06
-3.38547e-10
5.00048e-06
-4.15553e-10
5.00059e-06
-4.78613e-10
5.00072e-06
-5.96615e-10
5.00087e-06
-6.72894e-10
5.00105e-06
-8.65098e-10
5.00124e-06
-9.46799e-10
5.00148e-06
-1.27985e-09
5.00173e-06
-1.33108e-09
-1.89777e-09
5e-06
-1.16145e-11
5e-06
-3.6542e-11
5.00001e-06
-6.21526e-11
5.00002e-06
-9.01474e-11
5.00004e-06
-1.19892e-10
5.00006e-06
-1.54176e-10
5.0001e-06
-1.91099e-10
5.00013e-06
-2.36181e-10
5.00018e-06
-2.83269e-10
5.00024e-06
-3.45485e-10
5.00031e-06
-4.06912e-10
5.00039e-06
-4.95799e-10
5.00048e-06
-5.7434e-10
5.00059e-06
-7.07381e-10
5.00072e-06
-8.03588e-10
5.00087e-06
-1.0126e-09
5.00104e-06
-1.11641e-09
5.00122e-06
-1.46145e-09
5.00142e-06
-1.53243e-09
-2.16253e-09
5e-06
-1.39591e-11
5.00001e-06
-4.32632e-11
5.00002e-06
-7.30098e-11
5.00003e-06
-1.049e-10
5.00005e-06
-1.38814e-10
5.00008e-06
-1.77627e-10
5.00011e-06
-2.19562e-10
5.00014e-06
-2.70509e-10
5.00018e-06
-3.24352e-10
5.00023e-06
-3.94569e-10
5.00029e-06
-4.64321e-10
5.00036e-06
-5.63987e-10
5.00043e-06
-6.53279e-10
5.00053e-06
-8.00192e-10
5.00063e-06
-9.0884e-10
5.00075e-06
-1.13451e-09
5.00089e-06
-1.251e-09
5.00104e-06
-1.61566e-09
5.00121e-06
-1.6967e-09
-2.29313e-09
5e-06
-1.58151e-11
5.00001e-06
-4.77102e-11
5.00001e-06
-8.02511e-11
5.00002e-06
-1.14901e-10
5.00004e-06
-1.51953e-10
5.00005e-06
-1.9469e-10
5.00008e-06
-2.40904e-10
5.0001e-06
-2.96793e-10
5.00013e-06
-3.56323e-10
5.00017e-06
-4.32629e-10
5.00022e-06
-5.09739e-10
5.00027e-06
-6.17373e-10
5.00033e-06
-7.15986e-10
5.00041e-06
-8.72358e-10
5.00049e-06
-9.92039e-10
5.00058e-06
-1.22784e-09
5.00069e-06
-1.35538e-09
5.0008e-06
-1.72622e-09
5.00091e-06
-1.81146e-09
-2.44164e-09
5e-06
-1.68483e-11
5e-06
-5.07579e-11
5.00001e-06
-8.52294e-11
5.00002e-06
-1.22447e-10
5.00003e-06
-1.62076e-10
5.00004e-06
-2.07752e-10
5.00006e-06
-2.571e-10
5.00008e-06
-3.16692e-10
5.0001e-06
-3.80139e-10
5.00013e-06
-4.61029e-10
5.00016e-06
-5.43271e-10
5.0002e-06
-6.56698e-10
5.00025e-06
-7.61455e-10
5.0003e-06
-9.24848e-10
5.00036e-06
-1.05134e-09
5.00042e-06
-1.29456e-09
5.0005e-06
-1.42837e-09
5.00058e-06
-1.80686e-09
5.00067e-06
-1.8996e-09
-2.51565e-09
5e-06
-1.73611e-11
5e-06
-5.25881e-11
5.00001e-06
-8.84058e-11
5.00001e-06
-1.27181e-10
5.00002e-06
-1.68464e-10
5.00002e-06
-2.15814e-10
5.00003e-06
-2.66996e-10
5.00005e-06
-3.2871e-10
5.00006e-06
-3.94486e-10
5.00008e-06
-4.78122e-10
5.0001e-06
-5.63414e-10
5.00012e-06
-6.8019e-10
5.00015e-06
-7.88682e-10
5.00018e-06
-9.56144e-10
5.00022e-06
-1.08677e-09
5.00026e-06
-1.33422e-09
5.0003e-06
-1.47211e-09
5.00035e-06
-1.854e-09
5.00039e-06
-1.947e-09
-2.57163e-09
5e-06
-1.75281e-11
5e-06
-5.31658e-11
5e-06
-8.95181e-11
5e-06
-1.28796e-10
5.00001e-06
-1.70631e-10
5.00001e-06
-2.18494e-10
5.00001e-06
-2.70312e-10
5.00002e-06
-3.32674e-10
5.00002e-06
-3.99269e-10
5.00003e-06
-4.838e-10
5.00003e-06
-5.70087e-10
5.00004e-06
-6.88002e-10
5.00005e-06
-7.97746e-10
5.00006e-06
-9.66463e-10
5.00007e-06
-1.09856e-09
5.00009e-06
-1.34738e-09
5.0001e-06
-1.48667e-09
5.00012e-06
-1.86938e-09
5.00013e-06
-1.96424e-09
-2.58794e-09
5e-06
-1.73516e-11
5e-06
-5.25112e-11
5e-06
-8.84462e-11
5e-06
-1.27183e-10
4.99999e-06
-1.68497e-10
4.99999e-06
-2.15769e-10
4.99999e-06
-2.67025e-10
4.99998e-06
-3.28646e-10
4.99998e-06
-3.94495e-10
4.99997e-06
-4.78123e-10
4.99997e-06
-5.63334e-10
4.99996e-06
-6.80153e-10
4.99995e-06
-7.88575e-10
4.99994e-06
-9.55886e-10
4.99993e-06
-1.08656e-09
4.99991e-06
-1.33414e-09
4.9999e-06
-1.47215e-09
4.99988e-06
-1.8541e-09
4.99987e-06
-1.94717e-09
-2.57161e-09
5e-06
-1.67741e-11
5e-06
-5.07193e-11
4.99999e-06
-8.53137e-11
4.99999e-06
-1.22442e-10
4.99998e-06
-1.62151e-10
4.99998e-06
-2.07704e-10
4.99997e-06
-2.57145e-10
4.99995e-06
-3.16657e-10
4.99994e-06
-3.80128e-10
4.99992e-06
-4.61097e-10
4.9999e-06
-5.43264e-10
4.99988e-06
-6.56646e-10
4.99985e-06
-7.61356e-10
4.99982e-06
-9.24637e-10
4.99978e-06
-1.05112e-09
4.99974e-06
-1.29437e-09
4.9997e-06
-1.42832e-09
4.99965e-06
-1.80691e-09
4.99961e-06
-1.89977e-09
-2.5156e-09
5e-06
-1.57374e-11
5e-06
-4.77545e-11
4.99999e-06
-8.02464e-11
4.99998e-06
-1.14955e-10
4.99997e-06
-1.52001e-10
4.99996e-06
-1.9467e-10
4.99994e-06
-2.40876e-10
4.99992e-06
-2.96845e-10
4.9999e-06
-3.56236e-10
4.99987e-06
-4.32665e-10
4.99984e-06
-5.09887e-10
4.9998e-06
-6.17421e-10
4.99975e-06
-7.15994e-10
4.9997e-06
-8.72321e-10
4.99964e-06
-9.91949e-10
4.99958e-06
-1.22762e-09
4.9995e-06
-1.35525e-09
4.99942e-06
-1.72609e-09
4.99933e-06
-1.81146e-09
-2.44136e-09
5e-06
-1.3989e-11
4.99999e-06
-4.32881e-11
4.99999e-06
-7.29386e-11
4.99998e-06
-1.04978e-10
4.99996e-06
-1.38653e-10
4.99995e-06
-1.77707e-10
4.99992e-06
-2.19444e-10
4.9999e-06
-2.70661e-10
4.99987e-06
-3.24309e-10
4.99983e-06
-3.94394e-10
4.99978e-06
-4.64358e-10
4.99973e-06
-5.64088e-10
4.99967e-06
-6.5341e-10
4.99959e-06
-8.00286e-10
4.99951e-06
-9.08875e-10
4.99942e-06
-1.13436e-09
4.99931e-06
-1.25081e-09
4.9992e-06
-1.61531e-09
4.99909e-06
-1.69641e-09
-2.2927e-09
5e-06
-1.17633e-11
4.99999e-06
-3.65423e-11
4.99998e-06
-6.2079e-11
4.99997e-06
-9.00492e-11
4.99995e-06
-1.19787e-10
4.99992e-06
-1.54417e-10
4.99989e-06
-1.91033e-10
4.99986e-06
-2.36204e-10
4.99982e-06
-2.83498e-10
4.99977e-06
-3.45363e-10
4.99971e-06
-4.06754e-10
4.99964e-06
-4.95776e-10
4.99957e-06
-5.74462e-10
4.99947e-06
-7.07507e-10
4.99937e-06
-8.03728e-10
4.99925e-06
-1.01256e-09
4.99911e-06
-1.11628e-09
4.99896e-06
-1.46102e-09
4.99879e-06
-1.53206e-09
-2.162e-09
5e-06
-1.27666e-11
5e-06
-3.33878e-11
4.99999e-06
-5.43823e-11
4.99998e-06
-7.749e-11
4.99996e-06
-1.01914e-10
4.99994e-06
-1.30273e-10
4.9999e-06
-1.60047e-10
4.99987e-06
-1.97483e-10
4.99982e-06
-2.36133e-10
4.99976e-06
-2.88781e-10
4.99969e-06
-3.38381e-10
4.99961e-06
-4.15364e-10
4.99952e-06
-4.78567e-10
4.99941e-06
-5.96615e-10
4.99928e-06
-6.73001e-10
4.99913e-06
-8.65069e-10
4.99896e-06
-9.46745e-10
4.99878e-06
-1.27948e-09
4.99858e-06
-1.33072e-09
-1.89716e-09
4.99999e-06
-4.70061e-12
4.99998e-06
-2.04081e-11
4.99996e-06
-3.76682e-11
4.99994e-06
-5.66519e-11
4.99992e-06
-7.65682e-11
4.99988e-06
-9.88234e-11
4.99985e-06
-1.23064e-10
4.9998e-06
-1.52303e-10
4.99975e-06
-1.82365e-10
4.99968e-06
-2.23853e-10
4.99961e-06
-2.62438e-10
4.99952e-06
-3.2339e-10
4.99941e-06
-3.72111e-10
4.99928e-06
-4.67657e-10
4.99913e-06
-5.25941e-10
4.99895e-06
-6.86794e-10
4.99876e-06
-7.47903e-10
4.99852e-06
-1.04083e-09
4.99827e-06
-1.08276e-09
-1.68891e-09
5.00001e-06
-1.16906e-11
5.00001e-06
-1.90701e-11
5e-06
-2.94042e-11
4.99998e-06
-4.18855e-11
4.99996e-06
-5.42446e-11
4.99993e-06
-6.87587e-11
4.99989e-06
-8.47752e-11
4.99984e-06
-1.04344e-10
4.99979e-06
-1.23538e-10
4.99971e-06
-1.53202e-10
4.99963e-06
-1.77179e-10
4.99953e-06
-2.22155e-10
4.99941e-06
-2.50421e-10
4.99926e-06
-3.24146e-10
4.99909e-06
-3.54011e-10
4.99889e-06
-4.86044e-10
4.99865e-06
-5.0924e-10
4.99838e-06
-7.67628e-10
4.99805e-06
-7.5963e-10
-1.26139e-09
4.99998e-06
1.01276e-11
4.99996e-06
-4.44317e-12
4.99995e-06
-1.3038e-11
4.99992e-06
-1.95164e-11
4.9999e-06
-2.62142e-11
4.99986e-06
-3.61549e-11
4.99982e-06
-4.3247e-11
4.99977e-06
-4.5134e-11
4.99971e-06
-6.24585e-11
4.99963e-06
-7.82383e-11
4.99955e-06
-9.0281e-11
4.99944e-06
-1.14136e-10
4.99932e-06
-1.27017e-10
4.99916e-06
-1.67884e-10
4.99898e-06
-1.78158e-10
4.99875e-06
-2.56914e-10
4.9985e-06
-2.56283e-10
4.99817e-06
-4.31739e-10
4.99782e-06
-4.14116e-10
-8.9153e-10
5.00001e-06
5.00001e-06
4.99999e-06
4.99997e-06
4.99995e-06
4.99991e-06
4.99987e-06
4.99982e-06
4.99975e-06
4.99968e-06
4.99959e-06
4.99947e-06
4.99934e-06
4.99918e-06
4.999e-06
4.99874e-06
4.99848e-06
4.99805e-06
4.99764e-06
)
;

boundaryField
{
    sides
    {
        type            calculated;
        value           uniform 0;
    }
    inlet
    {
        type            calculated;
        value           nonuniform List<scalar> 
20
(
-5e-06
-5e-06
-5e-06
-5e-06
-5e-06
-5e-06
-5e-06
-5e-06
-5e-06
-5e-06
-5e-06
-5e-06
-5e-06
-5e-06
-5e-06
-5e-06
-5e-06
-5e-06
-5e-06
-5e-06
)
;
    }
    outlet
    {
        type            calculated;
        value           nonuniform List<scalar> 
20
(
5.00325e-06
5.00255e-06
5.00237e-06
5.00194e-06
5.00169e-06
5.00134e-06
5.00106e-06
5.00074e-06
5.00045e-06
5.00015e-06
4.99985e-06
4.99955e-06
4.99926e-06
4.99894e-06
4.99866e-06
4.99831e-06
4.99806e-06
4.99763e-06
4.99745e-06
4.99675e-06
)
;
    }
    frontAndBack
    {
        type            empty;
        value           nonuniform 0();
    }
}


// ************************************************************************* //
