/*--------------------------------*- C++ -*----------------------------------*\
  =========                 |
  \\      /  F ield         | OpenFOAM: The Open Source CFD Toolbox
   \\    /   O peration     | Website:  https://openfoam.org
    \\  /    A nd           | Version:  7
     \\/     M anipulation  |
\*---------------------------------------------------------------------------*/
FoamFile
{
    version     2.0;
    format      ascii;
    class       volVectorField;
    location    "84";
    object      U;
}
// * * * * * * * * * * * * * * * * * * * * * * * * * * * * * * * * * * * * * //

dimensions      [0 1 -1 0 0 0 0];

internalField   nonuniform List<vector> 
400
(
(0.0999931 -8.7516e-07 0)
(0.099993 -2.37558e-06 0)
(0.0999931 -3.59794e-06 0)
(0.0999934 -4.67257e-06 0)
(0.0999939 -5.693e-06 0)
(0.0999947 -6.73447e-06 0)
(0.0999955 -7.80999e-06 0)
(0.0999966 -8.92449e-06 0)
(0.0999978 -9.98846e-06 0)
(0.0999996 -1.11902e-05 0)
(0.100001 -1.22646e-05 0)
(0.100004 -1.36169e-05 0)
(0.100006 -1.46553e-05 0)
(0.10001 -1.63377e-05 0)
(0.100013 -1.72193e-05 0)
(0.10002 -1.96302e-05 0)
(0.100022 -2.00776e-05 0)
(0.100035 -2.43e-05 0)
(0.100036 -2.39121e-05 0)
(0.10006 -3.31818e-05 0)
(0.0999943 3.94553e-07 0)
(0.0999947 1.211e-06 0)
(0.0999952 2.02494e-06 0)
(0.0999958 2.79291e-06 0)
(0.0999963 3.50909e-06 0)
(0.099997 4.16795e-06 0)
(0.0999978 4.76156e-06 0)
(0.0999988 5.3003e-06 0)
(0.1 5.84204e-06 0)
(0.100002 6.22922e-06 0)
(0.100003 6.69652e-06 0)
(0.100006 6.85729e-06 0)
(0.100008 7.26571e-06 0)
(0.100012 6.98264e-06 0)
(0.100014 7.39817e-06 0)
(0.10002 6.16495e-06 0)
(0.100024 6.71643e-06 0)
(0.100033 3.17812e-06 0)
(0.100036 3.98897e-06 0)
(0.10005 -5.45575e-06 0)
(0.0999948 -3.99028e-07 0)
(0.0999947 -1.30399e-06 0)
(0.0999947 -2.30753e-06 0)
(0.099995 -3.36527e-06 0)
(0.0999953 -4.41884e-06 0)
(0.099996 -5.49801e-06 0)
(0.0999967 -6.56139e-06 0)
(0.0999977 -7.72595e-06 0)
(0.0999988 -8.88542e-06 0)
(0.1 -1.0252e-05 0)
(0.100002 -1.15264e-05 0)
(0.100004 -1.32437e-05 0)
(0.100006 -1.46556e-05 0)
(0.10001 -1.7008e-05 0)
(0.100013 -1.85173e-05 0)
(0.100018 -2.21148e-05 0)
(0.100021 -2.35653e-05 0)
(0.100029 -2.97536e-05 0)
(0.100032 -3.06132e-05 0)
(0.100046 -4.22112e-05 0)
(0.0999956 -1.60352e-08 0)
(0.0999958 -7.57075e-09 0)
(0.0999962 5.78796e-08 0)
(0.0999966 1.31742e-07 0)
(0.0999972 2.03236e-07 0)
(0.0999978 1.938e-07 0)
(0.0999986 1.61186e-07 0)
(0.0999995 -2.81007e-08 0)
(0.100001 -2.35467e-07 0)
(0.100002 -7.04129e-07 0)
(0.100003 -1.1227e-06 0)
(0.100005 -2.05189e-06 0)
(0.100007 -2.7237e-06 0)
(0.10001 -4.43327e-06 0)
(0.100013 -5.35873e-06 0)
(0.100017 -8.49875e-06 0)
(0.10002 -9.54569e-06 0)
(0.100027 -1.54631e-05 0)
(0.100029 -1.60886e-05 0)
(0.100039 -2.75789e-05 0)
(0.0999963 -2.90433e-07 0)
(0.0999963 -9.26257e-07 0)
(0.0999964 -1.63374e-06 0)
(0.0999966 -2.4388e-06 0)
(0.0999969 -3.30311e-06 0)
(0.0999974 -4.27379e-06 0)
(0.099998 -5.27905e-06 0)
(0.0999988 -6.44923e-06 0)
(0.0999997 -7.64232e-06 0)
(0.100001 -9.1202e-06 0)
(0.100002 -1.05626e-05 0)
(0.100004 -1.25446e-05 0)
(0.100006 -1.42796e-05 0)
(0.100008 -1.70988e-05 0)
(0.100011 -1.91268e-05 0)
(0.100014 -2.3434e-05 0)
(0.100017 -2.5576e-05 0)
(0.100022 -3.2652e-05 0)
(0.100024 -3.41462e-05 0)
(0.100033 -4.64329e-05 0)
(0.099997 -2.56848e-07 0)
(0.0999971 -7.57136e-07 0)
(0.0999972 -1.22515e-06 0)
(0.0999975 -1.69719e-06 0)
(0.0999979 -2.16937e-06 0)
(0.0999984 -2.71965e-06 0)
(0.099999 -3.31022e-06 0)
(0.0999997 -4.07527e-06 0)
(0.1 -4.8839e-06 0)
(0.100002 -6.01111e-06 0)
(0.100003 -7.13111e-06 0)
(0.100004 -8.83024e-06 0)
(0.100006 -1.03274e-05 0)
(0.100008 -1.29542e-05 0)
(0.10001 -1.48404e-05 0)
(0.100013 -1.9031e-05 0)
(0.100015 -2.10975e-05 0)
(0.100019 -2.80462e-05 0)
(0.100021 -2.94437e-05 0)
(0.100027 -4.14895e-05 0)
(0.0999976 -2.91235e-07 0)
(0.0999977 -8.91769e-07 0)
(0.0999978 -1.52197e-06 0)
(0.099998 -2.22426e-06 0)
(0.0999983 -2.99424e-06 0)
(0.0999986 -3.88894e-06 0)
(0.0999991 -4.86482e-06 0)
(0.0999996 -6.03914e-06 0)
(0.1 -7.28264e-06 0)
(0.100001 -8.8647e-06 0)
(0.100002 -1.04522e-05 0)
(0.100003 -1.26432e-05 0)
(0.100004 -1.46411e-05 0)
(0.100006 -1.77938e-05 0)
(0.100007 -2.01914e-05 0)
(0.10001 -2.49257e-05 0)
(0.100011 -2.74705e-05 0)
(0.100015 -3.49504e-05 0)
(0.100016 -3.67119e-05 0)
(0.100021 -4.92085e-05 0)
(0.0999983 -3.2194e-07 0)
(0.0999984 -9.79904e-07 0)
(0.0999985 -1.66001e-06 0)
(0.0999986 -2.39577e-06 0)
(0.0999988 -3.17699e-06 0)
(0.0999991 -4.06139e-06 0)
(0.0999994 -5.00725e-06 0)
(0.0999998 -6.14046e-06 0)
(0.1 -7.34142e-06 0)
(0.100001 -8.88001e-06 0)
(0.100002 -1.04356e-05 0)
(0.100002 -1.26059e-05 0)
(0.100003 -1.46014e-05 0)
(0.100004 -1.77574e-05 0)
(0.100005 -2.0184e-05 0)
(0.100007 -2.49326e-05 0)
(0.100008 -2.75228e-05 0)
(0.100011 -3.49743e-05 0)
(0.100012 -3.67474e-05 0)
(0.100015 -4.90702e-05 0)
(0.099999 -3.39096e-07 0)
(0.099999 -1.02952e-06 0)
(0.0999991 -1.73762e-06 0)
(0.0999992 -2.50198e-06 0)
(0.0999993 -3.31265e-06 0)
(0.0999994 -4.23954e-06 0)
(0.0999996 -5.24076e-06 0)
(0.0999999 -6.44984e-06 0)
(0.1 -7.74315e-06 0)
(0.100001 -9.39283e-06 0)
(0.100001 -1.1077e-05 0)
(0.100001 -1.33958e-05 0)
(0.100002 -1.55471e-05 0)
(0.100003 -1.88826e-05 0)
(0.100003 -2.14818e-05 0)
(0.100004 -2.64285e-05 0)
(0.100005 -2.91759e-05 0)
(0.100006 -3.6827e-05 0)
(0.100007 -3.87024e-05 0)
(0.100009 -5.12343e-05 0)
(0.0999997 -3.46197e-07 0)
(0.0999997 -1.05291e-06 0)
(0.0999997 -1.77684e-06 0)
(0.0999997 -2.55921e-06 0)
(0.0999998 -3.39167e-06 0)
(0.0999998 -4.34584e-06 0)
(0.0999999 -5.37987e-06 0)
(0.1 -6.62601e-06 0)
(0.1 -7.9584e-06 0)
(0.1 -9.64788e-06 0)
(0.1 -1.13731e-05 0)
(0.1 -1.37297e-05 0)
(0.100001 -1.59215e-05 0)
(0.100001 -1.92925e-05 0)
(0.100001 -2.19332e-05 0)
(0.100001 -2.69075e-05 0)
(0.100002 -2.96951e-05 0)
(0.100002 -3.7353e-05 0)
(0.100002 -3.92585e-05 0)
(0.100003 -5.17328e-05 0)
(0.1 -3.45877e-07 0)
(0.1 -1.05213e-06 0)
(0.1 -1.77759e-06 0)
(0.1 -2.55929e-06 0)
(0.1 -3.39235e-06 0)
(0.1 -4.3455e-06 0)
(0.1 -5.38e-06 0)
(0.1 -6.62574e-06 0)
(0.0999999 -7.95789e-06 0)
(0.0999998 -9.64867e-06 0)
(0.0999997 -1.13731e-05 0)
(0.0999995 -1.37293e-05 0)
(0.0999993 -1.59214e-05 0)
(0.0999991 -1.92912e-05 0)
(0.0999989 -2.19305e-05 0)
(0.0999986 -2.69051e-05 0)
(0.0999983 -2.96941e-05 0)
(0.0999979 -3.73535e-05 0)
(0.0999977 -3.92598e-05 0)
(0.0999971 -5.17333e-05 0)
(0.100001 -3.37981e-07 0)
(0.100001 -1.02877e-06 0)
(0.100001 -1.73887e-06 0)
(0.100001 -2.50235e-06 0)
(0.100001 -3.31381e-06 0)
(0.100001 -4.23904e-06 0)
(0.1 -5.24075e-06 0)
(0.1 -6.44964e-06 0)
(0.0999998 -7.74177e-06 0)
(0.0999995 -9.3942e-06 0)
(0.0999991 -1.10781e-05 0)
(0.0999985 -1.33953e-05 0)
(0.099998 -1.55465e-05 0)
(0.0999973 -1.88796e-05 0)
(0.0999967 -2.14766e-05 0)
(0.0999957 -2.64223e-05 0)
(0.099995 -2.91721e-05 0)
(0.0999936 -3.68251e-05 0)
(0.0999932 -3.87031e-05 0)
(0.0999912 -5.12307e-05 0)
(0.100002 -3.21031e-07 0)
(0.100002 -9.80302e-07 0)
(0.100002 -1.65993e-06 0)
(0.100001 -2.39681e-06 0)
(0.100001 -3.17672e-06 0)
(0.100001 -4.06177e-06 0)
(0.100001 -5.00654e-06 0)
(0.1 -6.14136e-06 0)
(0.0999997 -7.34034e-06 0)
(0.0999991 -8.88e-06 0)
(0.0999985 -1.04382e-05 0)
(0.0999976 -1.26079e-05 0)
(0.0999968 -1.46024e-05 0)
(0.0999956 -1.77575e-05 0)
(0.0999945 -2.01833e-05 0)
(0.0999929 -2.49299e-05 0)
(0.0999917 -2.7521e-05 0)
(0.0999894 -3.49747e-05 0)
(0.0999885 -3.67508e-05 0)
(0.0999853 -4.9071e-05 0)
(0.100002 -2.921e-07 0)
(0.100002 -8.92173e-07 0)
(0.100002 -1.52084e-06 0)
(0.100002 -2.22461e-06 0)
(0.100002 -2.99212e-06 0)
(0.100001 -3.8904e-06 0)
(0.100001 -4.86383e-06 0)
(0.1 -6.04009e-06 0)
(0.0999998 -7.28333e-06 0)
(0.099999 -8.86158e-06 0)
(0.0999981 -1.04514e-05 0)
(0.0999969 -1.26439e-05 0)
(0.0999957 -1.46415e-05 0)
(0.0999941 -1.77935e-05 0)
(0.0999926 -2.01911e-05 0)
(0.0999903 -2.49214e-05 0)
(0.0999887 -2.74652e-05 0)
(0.0999853 -3.49415e-05 0)
(0.0999843 -3.67047e-05 0)
(0.0999793 -4.91949e-05 0)
(0.100003 -2.59203e-07 0)
(0.100003 -7.57149e-07 0)
(0.100003 -1.22446e-06 0)
(0.100002 -1.69579e-06 0)
(0.100002 -2.16945e-06 0)
(0.100002 -2.72155e-06 0)
(0.100001 -3.31233e-06 0)
(0.1 -4.07539e-06 0)
(0.0999995 -4.88819e-06 0)
(0.0999985 -6.01136e-06 0)
(0.0999973 -7.12976e-06 0)
(0.0999959 -8.83098e-06 0)
(0.0999944 -1.03304e-05 0)
(0.0999923 -1.29582e-05 0)
(0.0999904 -1.48456e-05 0)
(0.0999874 -1.90346e-05 0)
(0.0999853 -2.10997e-05 0)
(0.0999811 -2.80444e-05 0)
(0.0999793 -2.94416e-05 0)
(0.0999733 -4.14867e-05 0)
(0.100004 -2.92088e-07 0)
(0.100004 -9.25654e-07 0)
(0.100004 -1.63342e-06 0)
(0.100003 -2.43684e-06 0)
(0.100003 -3.30647e-06 0)
(0.100003 -4.27125e-06 0)
(0.100002 -5.28369e-06 0)
(0.100001 -6.44616e-06 0)
(0.1 -7.64264e-06 0)
(0.0999991 -9.12173e-06 0)
(0.0999978 -1.05603e-05 0)
(0.099996 -1.25408e-05 0)
(0.0999942 -1.42782e-05 0)
(0.0999916 -1.70978e-05 0)
(0.0999895 -1.91283e-05 0)
(0.0999856 -2.34332e-05 0)
(0.0999833 -2.55755e-05 0)
(0.0999776 -3.26427e-05 0)
(0.099976 -3.41369e-05 0)
(0.0999673 -4.64155e-05 0)
(0.100004 -1.66558e-08 0)
(0.100004 -6.3841e-09 0)
(0.100004 5.79209e-08 0)
(0.100003 1.30243e-07 0)
(0.100003 1.97148e-07 0)
(0.100002 1.99201e-07 0)
(0.100001 1.52819e-07 0)
(0.100001 -2.8914e-08 0)
(0.0999994 -2.33921e-07 0)
(0.0999981 -7.06276e-07 0)
(0.0999966 -1.12297e-06 0)
(0.0999946 -2.0496e-06 0)
(0.0999926 -2.72214e-06 0)
(0.0999897 -4.4321e-06 0)
(0.0999871 -5.35974e-06 0)
(0.0999828 -8.49964e-06 0)
(0.0999798 -9.54742e-06 0)
(0.0999734 -1.54603e-05 0)
(0.0999707 -1.6085e-05 0)
(0.0999614 -2.75721e-05 0)
(0.100005 -3.9715e-07 0)
(0.100005 -1.30449e-06 0)
(0.100005 -2.30765e-06 0)
(0.100005 -3.36876e-06 0)
(0.100005 -4.42101e-06 0)
(0.100004 -5.49569e-06 0)
(0.100003 -6.57065e-06 0)
(0.100002 -7.73157e-06 0)
(0.100001 -8.88183e-06 0)
(0.0999996 -1.02517e-05 0)
(0.099998 -1.15297e-05 0)
(0.0999957 -1.32459e-05 0)
(0.0999936 -1.46573e-05 0)
(0.0999901 -1.70069e-05 0)
(0.0999875 -1.85179e-05 0)
(0.0999821 -2.21139e-05 0)
(0.0999791 -2.35692e-05 0)
(0.0999706 -2.97529e-05 0)
(0.0999684 -3.06154e-05 0)
(0.0999544 -4.22042e-05 0)
(0.100006 3.99896e-07 0)
(0.100005 1.20779e-06 0)
(0.100005 2.0206e-06 0)
(0.100004 2.79322e-06 0)
(0.100004 3.52347e-06 0)
(0.100003 4.15598e-06 0)
(0.100002 4.79329e-06 0)
(0.100001 5.30146e-06 0)
(0.1 5.83906e-06 0)
(0.0999984 6.23002e-06 0)
(0.0999967 6.69298e-06 0)
(0.0999943 6.85512e-06 0)
(0.0999921 7.26709e-06 0)
(0.0999885 6.98895e-06 0)
(0.0999855 7.40438e-06 0)
(0.0999799 6.17198e-06 0)
(0.0999764 6.71896e-06 0)
(0.0999674 3.18349e-06 0)
(0.0999642 3.99212e-06 0)
(0.09995 -5.44422e-06 0)
(0.100007 -8.72101e-07 0)
(0.100007 -2.37796e-06 0)
(0.100007 -3.60296e-06 0)
(0.100007 -4.67231e-06 0)
(0.100006 -5.68232e-06 0)
(0.100005 -6.74901e-06 0)
(0.100005 -7.778e-06 0)
(0.100003 -8.92465e-06 0)
(0.100002 -1.00003e-05 0)
(0.1 -1.11968e-05 0)
(0.0999988 -1.22728e-05 0)
(0.0999961 -1.36243e-05 0)
(0.0999941 -1.4661e-05 0)
(0.0999898 -1.63418e-05 0)
(0.0999874 -1.72241e-05 0)
(0.0999803 -1.96363e-05 0)
(0.0999779 -2.00859e-05 0)
(0.0999653 -2.43098e-05 0)
(0.0999638 -2.39219e-05 0)
(0.0999402 -3.31956e-05 0)
)
;

boundaryField
{
    sides
    {
        type            calculated;
        value           nonuniform List<vector> 
40
(
(0.100007 0 0)
(0.100007 0 0)
(0.100007 0 0)
(0.100007 0 0)
(0.100006 0 0)
(0.100005 0 0)
(0.100005 0 0)
(0.100003 0 0)
(0.100002 0 0)
(0.1 0 0)
(0.0999988 0 0)
(0.0999961 0 0)
(0.0999941 0 0)
(0.0999898 0 0)
(0.0999874 0 0)
(0.0999803 0 0)
(0.0999779 0 0)
(0.0999653 0 0)
(0.0999638 0 0)
(0.0999402 0 0)
(0.0999931 0 0)
(0.099993 0 0)
(0.0999931 0 0)
(0.0999934 0 0)
(0.0999939 0 0)
(0.0999947 0 0)
(0.0999955 0 0)
(0.0999966 0 0)
(0.0999978 0 0)
(0.0999996 0 0)
(0.100001 0 0)
(0.100004 0 0)
(0.100006 0 0)
(0.10001 0 0)
(0.100013 0 0)
(0.10002 0 0)
(0.100022 0 0)
(0.100035 0 0)
(0.100036 0 0)
(0.10006 0 0)
)
;
    }
    inlet
    {
        type            calculated;
        value           nonuniform List<vector> 
20
(
(0.0999931 0 0)
(0.0999943 0 0)
(0.0999948 0 0)
(0.0999956 0 0)
(0.0999963 0 0)
(0.0999969 0 0)
(0.0999976 0 0)
(0.0999983 0 0)
(0.099999 0 0)
(0.0999997 0 0)
(0.1 0 0)
(0.100001 0 0)
(0.100002 0 0)
(0.100002 0 0)
(0.100003 0 0)
(0.100004 0 0)
(0.100004 0 0)
(0.100005 0 0)
(0.100006 0 0)
(0.100007 0 0)
)
;
    }
    outlet
    {
        type            calculated;
        value           nonuniform List<vector> 
20
(
(0.100061 -3.31821e-05 0)
(0.10005 -5.45577e-06 0)
(0.100046 -4.22114e-05 0)
(0.100039 -2.7579e-05 0)
(0.100033 -4.6433e-05 0)
(0.100027 -4.14896e-05 0)
(0.100021 -4.92086e-05 0)
(0.100015 -4.90702e-05 0)
(0.100009 -5.12343e-05 0)
(0.100003 -5.17329e-05 0)
(0.099997 -5.17333e-05 0)
(0.0999911 -5.12307e-05 0)
(0.0999852 -4.9071e-05 0)
(0.0999792 -4.91948e-05 0)
(0.0999731 -4.14866e-05 0)
(0.099967 -4.64153e-05 0)
(0.0999611 -2.7572e-05 0)
(0.0999539 -4.2204e-05 0)
(0.0999496 -5.4442e-06 0)
(0.0999394 -3.31953e-05 0)
)
;
    }
    frontAndBack
    {
        type            empty;
    }
}


// ************************************************************************* //
