/*--------------------------------*- C++ -*----------------------------------*\
  =========                 |
  \\      /  F ield         | OpenFOAM: The Open Source CFD Toolbox
   \\    /   O peration     | Website:  https://openfoam.org
    \\  /    A nd           | Version:  7
     \\/     M anipulation  |
\*---------------------------------------------------------------------------*/
FoamFile
{
    version     2.0;
    format      ascii;
    class       volVectorField;
    location    "94";
    object      ddt0(hU);
}
// * * * * * * * * * * * * * * * * * * * * * * * * * * * * * * * * * * * * * //

dimensions      [0 2 -2 0 0 0 0];

internalField   nonuniform List<vector> 
400
(
(-1.75305e-11 -4.26337e-11 0)
(-1.42535e-10 1.13696e-10 0)
(6.18503e-11 5.91345e-11 0)
(3.29341e-11 -2.45099e-10 0)
(-2.40409e-10 -1.02528e-10 0)
(-1.22497e-09 7.92908e-10 0)
(1.84916e-09 3.15883e-10 0)
(-5.53092e-09 -2.67888e-09 0)
(-1.07122e-09 6.80308e-10 0)
(3.62162e-10 -3.15654e-11 0)
(-2.76202e-10 -2.90778e-12 0)
(-1.0585e-11 6.34315e-11 0)
(1.83205e-10 2.92038e-11 0)
(1.9695e-10 -2.93156e-11 0)
(6.9517e-11 -7.02998e-11 0)
(-9.43425e-11 -6.36628e-11 0)
(-1.42364e-10 -1.53796e-11 0)
(-5.17384e-11 3.44908e-11 0)
(2.46952e-11 5.12062e-11 0)
(1.20325e-11 1.80196e-11 0)
(-2.27345e-11 -5.74323e-11 0)
(2.20614e-13 1.73801e-10 0)
(-8.72389e-11 -1.53674e-11 0)
(6.849e-11 -2.12978e-10 0)
(1.03518e-10 -3.01612e-10 0)
(1.5044e-09 7.83844e-10 0)
(-1.27823e-09 -4.74066e-10 0)
(4.42981e-09 -1.14592e-09 0)
(1.84524e-09 4.82593e-10 0)
(-4.89803e-10 -2.40437e-10 0)
(-1.08746e-10 -1.84952e-11 0)
(4.44613e-11 1.36341e-10 0)
(4.21877e-11 8.66681e-11 0)
(3.17022e-11 -2.2029e-11 0)
(-9.3811e-12 -1.19664e-10 0)
(-4.51034e-11 -1.3988e-10 0)
(-1.98296e-11 -5.78958e-11 0)
(4.0525e-11 4.30195e-11 0)
(4.6867e-11 7.58101e-11 0)
(-1.60217e-11 3.31698e-11 0)
(-8.22892e-11 -5.80683e-11 0)
(3.45149e-11 1.58889e-11 0)
(-4.23586e-11 -2.0586e-11 0)
(1.03508e-10 1.93221e-10 0)
(6.2537e-11 -1.74308e-10 0)
(1.56685e-10 -2.47363e-11 0)
(-9.96979e-10 -7.3708e-10 0)
(1.04728e-09 1.57877e-09 0)
(-4.79566e-10 -3.44385e-10 0)
(-2.67597e-10 -2.085e-10 0)
(2.92033e-10 2.19708e-11 0)
(1.48388e-10 5.35199e-11 0)
(-4.44232e-11 6.17653e-12 0)
(-1.05628e-10 -4.2935e-11 0)
(-1.15916e-10 -8.59093e-11 0)
(-3.46698e-11 -7.58164e-11 0)
(9.27827e-11 -2.95237e-12 0)
(1.39406e-10 5.65402e-11 0)
(6.5206e-11 6.25447e-11 0)
(-4.53945e-11 1.74176e-11 0)
(-1.21028e-11 -8.98981e-11 0)
(6.10854e-11 -7.78233e-11 0)
(6.75576e-11 8.98377e-11 0)
(-1.8343e-11 1.95045e-10 0)
(1.36368e-10 1.39227e-10 0)
(-2.17244e-10 -2.14507e-10 0)
(5.16794e-11 2.51193e-10 0)
(3.58188e-10 2.6718e-11 0)
(-4.31137e-10 -2.82263e-10 0)
(4.90488e-11 1.03532e-10 0)
(2.97334e-10 1.16145e-10 0)
(2.89075e-11 -5.32846e-11 0)
(-1.05566e-10 -9.84194e-11 0)
(-1.16814e-10 -8.89045e-11 0)
(-8.87463e-11 -5.37902e-11 0)
(2.34148e-11 2.95543e-11 0)
(1.4704e-10 8.31674e-11 0)
(1.50553e-10 4.8357e-11 0)
(3.92498e-11 1.1271e-11 0)
(-5.88409e-11 -8.65414e-12 0)
(7.98929e-11 -4.15083e-12 0)
(8.94831e-11 -4.38646e-11 0)
(1.2392e-10 4.36534e-11 0)
(-9.15843e-11 -2.74648e-11 0)
(7.55088e-11 2.43687e-10 0)
(-2.70372e-10 -2.577e-10 0)
(2.87e-10 3.57388e-10 0)
(-1.23781e-10 -1.0594e-10 0)
(-2.10396e-10 -5.98439e-11 0)
(3.9616e-10 2.43838e-10 0)
(8.59787e-11 3.01533e-11 0)
(-1.53487e-10 -1.26731e-10 0)
(-1.01841e-10 -9.19487e-11 0)
(-6.85168e-11 -5.03556e-11 0)
(1.39164e-12 1.08607e-11 0)
(9.81795e-11 1.18892e-10 0)
(1.13625e-10 1.37441e-10 0)
(4.83614e-11 2.68327e-11 0)
(-4.11608e-11 -4.06335e-11 0)
(-5.88878e-11 -3.23061e-11 0)
(5.97767e-11 9.18651e-11 0)
(3.41054e-11 -1.16701e-11 0)
(6.26555e-11 -2.16702e-12 0)
(-3.9576e-11 -1.16045e-10 0)
(-1.99166e-11 8.77796e-11 0)
(-1.01906e-10 1.73718e-12 0)
(1.93906e-10 2.14051e-10 0)
(-2.61686e-10 -7.79886e-11 0)
(2.43623e-10 2.53265e-10 0)
(2.14493e-10 1.24495e-10 0)
(-2.6093e-10 -1.43608e-10 0)
(-1.41541e-10 -1.00787e-10 0)
(1.51343e-11 -3.13519e-11 0)
(9.75562e-12 7.69628e-12 0)
(9.43081e-11 7.75967e-11 0)
(1.49309e-10 1.52978e-10 0)
(1.73931e-11 1.40236e-10 0)
(-1.2771e-10 3.88625e-11 0)
(-1.46966e-10 -2.13538e-11 0)
(-4.02076e-11 -2.96593e-11 0)
(1.00772e-11 6.26865e-11 0)
(-1.3795e-11 1.97337e-11 0)
(-4.04246e-11 -5.13893e-11 0)
(1.45089e-11 -1.46538e-11 0)
(-7.83483e-11 -1.10003e-10 0)
(8.69405e-11 1.23369e-10 0)
(-4.33429e-12 2.63531e-11 0)
(-6.07167e-12 4.92197e-11 0)
(1.96526e-10 1.90146e-10 0)
(-2.16663e-10 -1.29171e-10 0)
(-2.18432e-10 -1.03733e-10 0)
(4.32969e-11 4.45772e-11 0)
(6.87685e-11 -6.98953e-13 0)
(5.71279e-11 5.6151e-12 0)
(1.31675e-10 7.47671e-11 0)
(1.17208e-10 7.16502e-11 0)
(-7.69792e-11 3.68011e-11 0)
(-2.40821e-10 3.39255e-11 0)
(-1.97773e-10 5.24478e-11 0)
(-5.80828e-12 1.76637e-11 0)
(-2.48971e-11 -1.81767e-11 0)
(-1.77904e-11 4.0683e-11 0)
(-7.94028e-11 -3.92757e-11 0)
(3.07578e-11 7.41521e-11 0)
(-4.15243e-11 -4.14069e-11 0)
(1.23839e-10 9.99829e-11 0)
(-7.84231e-11 -3.71477e-11 0)
(9.87437e-11 6.88644e-11 0)
(-4.74824e-11 -4.36775e-11 0)
(-2.03605e-10 -1.17989e-10 0)
(9.15886e-11 4.45057e-11 0)
(5.21906e-11 5.52668e-11 0)
(-3.6372e-11 -3.63339e-11 0)
(1.0482e-10 -2.22891e-11 0)
(1.46519e-10 -5.10164e-13 0)
(2.92923e-11 -6.39407e-11 0)
(-1.04178e-10 -8.22885e-11 0)
(-1.65793e-10 1.97623e-11 0)
(-1.23518e-10 1.30971e-10 0)
(-2.19829e-12 6.98647e-11 0)
(-2.65481e-12 -3.99707e-11 0)
(4.91116e-12 -1.88979e-11 0)
(-3.40254e-11 4.46409e-11 0)
(8.03311e-12 4.77221e-11 0)
(1.85457e-11 1.01087e-10 0)
(5.1826e-11 5.94727e-11 0)
(-3.71536e-11 2.37053e-11 0)
(5.22308e-11 5.4195e-11 0)
(-7.43323e-11 -9.29363e-11 0)
(7.28319e-12 4.87375e-11 0)
(1.21303e-10 5.28959e-11 0)
(-5.44687e-11 -4.70462e-11 0)
(-6.54641e-11 3.55986e-12 0)
(8.11761e-11 6.28436e-12 0)
(4.27311e-11 -1.0473e-10 0)
(-7.79998e-11 -1.74226e-10 0)
(-6.3327e-11 -1.14624e-10 0)
(2.8386e-11 2.48373e-11 0)
(7.27994e-11 1.40011e-10 0)
(3.44849e-11 7.66716e-11 0)
(-6.57255e-12 -2.39068e-12 0)
(-1.15583e-11 -4.739e-11 0)
(4.48993e-11 5.5636e-11 0)
(2.92592e-12 2.17617e-11 0)
(4.97063e-11 1.02455e-10 0)
(-3.92886e-11 4.12586e-11 0)
(2.45198e-11 5.71377e-11 0)
(-5.12774e-11 5.0843e-11 0)
(6.3938e-12 -3.98668e-11 0)
(9.13573e-11 6.34335e-11 0)
(-2.77322e-11 -1.98141e-11 0)
(1.46261e-11 -8.9275e-11 0)
(2.03034e-11 1.58325e-11 0)
(-1.22333e-10 1.59921e-11 0)
(-1.61394e-10 -9.03941e-11 0)
(-6.35631e-11 -1.02223e-10 0)
(7.22166e-11 -1.65118e-11 0)
(1.76353e-10 5.72168e-11 0)
(1.90912e-10 9.86908e-11 0)
(6.24651e-11 4.03661e-11 0)
(-6.85386e-12 9.52385e-12 0)
(-2.76756e-11 3.98917e-11 0)
(5.81823e-11 -1.48805e-11 0)
(-8.67738e-12 1.94824e-11 0)
(5.6753e-11 -9.01801e-12 0)
(-6.23029e-11 4.23931e-11 0)
(5.26931e-11 3.17781e-11 0)
(-8.02139e-11 5.01972e-11 0)
(1.62787e-11 4.17818e-11 0)
(1.0121e-10 -4.00725e-11 0)
(-7.49683e-11 -3.14873e-11 0)
(5.72629e-11 -4.30415e-11 0)
(7.86635e-11 -9.33851e-11 0)
(-1.55066e-10 -4.17666e-11 0)
(-1.9857e-10 5.9231e-11 0)
(-5.15371e-11 1.14672e-10 0)
(8.74131e-11 1.10616e-10 0)
(1.6524e-10 6.18115e-11 0)
(1.75658e-10 4.18952e-11 0)
(6.63562e-11 3.15636e-12 0)
(1.54174e-11 2.70971e-11 0)
(-1.07327e-11 5.17846e-11 0)
(-1.68717e-11 -3.90741e-11 0)
(-3.12733e-11 2.08624e-11 0)
(3.29896e-11 -5.19669e-11 0)
(5.28611e-12 4.44846e-11 0)
(1.83055e-11 3.857e-11 0)
(1.24619e-11 2.60076e-11 0)
(-8.09847e-11 1.30306e-10 0)
(5.57977e-11 -8.27878e-11 0)
(4.65613e-11 -6.47475e-11 0)
(-3.69393e-11 5.18823e-12 0)
(2.6546e-11 -1.13868e-10 0)
(7.42186e-11 -8.42372e-11 0)
(-5.03873e-12 9.44244e-11 0)
(-8.56616e-11 2.05555e-10 0)
(-4.98133e-11 1.83542e-10 0)
(3.20005e-11 7.28531e-11 0)
(6.2963e-11 9.17668e-12 0)
(3.50387e-11 -1.97538e-11 0)
(-6.70471e-12 1.61721e-11 0)
(-7.78055e-12 -2.94866e-11 0)
(-8.27522e-11 3.92748e-11 0)
(-5.28212e-12 -5.94524e-12 0)
(-3.82018e-11 7.60146e-11 0)
(9.39166e-11 1.39324e-11 0)
(-7.17594e-11 1.07007e-10 0)
(1.20691e-10 -2.4519e-11 0)
(-1.15427e-10 1.40071e-10 0)
(-1.33748e-10 5.38937e-11 0)
(1.59709e-10 -1.07684e-10 0)
(1.72214e-11 -6.38296e-11 0)
(-4.42548e-11 -4.54568e-11 0)
(1.36009e-10 -6.6211e-11 0)
(1.32491e-10 -1.7373e-11 0)
(-2.2145e-11 1.06449e-10 0)
(-1.11467e-10 1.63439e-10 0)
(-1.33815e-10 8.63209e-11 0)
(-1.04044e-10 2.05503e-11 0)
(2.98955e-12 -1.55952e-11 0)
(-3.28296e-13 -4.77864e-11 0)
(3.67155e-12 -4.97218e-11 0)
(-6.65896e-11 7.63573e-11 0)
(2.04602e-11 1.65585e-11 0)
(-1.10217e-10 1.97115e-10 0)
(1.07791e-10 -7.31007e-11 0)
(-8.91114e-11 9.71811e-11 0)
(9.17711e-11 -5.77278e-11 0)
(1.05801e-10 -5.67309e-11 0)
(-2.97007e-10 1.9496e-10 0)
(-7.68157e-11 2.83668e-11 0)
(9.87975e-11 -1.0057e-10 0)
(3.7645e-11 -3.77003e-11 0)
(6.94573e-11 -5.49131e-11 0)
(1.3134e-10 -1.04685e-10 0)
(8.6167e-11 -3.5304e-11 0)
(-7.03388e-11 5.19711e-11 0)
(-2.05653e-10 6.05082e-11 0)
(-1.84328e-10 7.01074e-11 0)
(-1.07833e-11 2.93305e-11 0)
(2.76782e-11 -8.0683e-11 0)
(3.24779e-11 -1.14785e-11 0)
(2.2882e-11 3.75382e-11 0)
(-1.21373e-11 1.16953e-10 0)
(-9.78721e-11 6.28899e-11 0)
(-2.29814e-11 -2.83631e-11 0)
(6.70188e-11 -2.51462e-11 0)
(-1.68064e-10 1.19116e-10 0)
(3.82191e-10 -2.37241e-10 0)
(3.87634e-11 3.32343e-11 0)
(-2.89074e-10 1.52099e-10 0)
(-5.78934e-11 3.8696e-12 0)
(3.7185e-11 -3.84676e-11 0)
(-8.26187e-13 -5.36617e-11 0)
(7.54136e-11 -1.01108e-10 0)
(1.21078e-10 -1.01731e-10 0)
(5.86899e-12 -3.70712e-11 0)
(-1.19799e-10 5.39151e-11 0)
(-1.1237e-10 1.30199e-10 0)
(-9.42717e-12 6.49854e-11 0)
(5.02565e-11 -1.13619e-11 0)
(6.71873e-11 3.66935e-11 0)
(1.00793e-10 -3.72044e-11 0)
(-7.8027e-11 5.47977e-11 0)
(1.2585e-11 -2.37199e-10 0)
(-2.36027e-10 2.62206e-10 0)
(2.96079e-10 -2.2008e-10 0)
(-3.30628e-10 2.45445e-10 0)
(6.34993e-12 -1.88928e-11 0)
(3.99111e-10 -1.90095e-10 0)
(-1.01594e-10 6.51925e-11 0)
(-1.79984e-10 1.12399e-10 0)
(-6.01078e-11 3.78253e-11 0)
(-5.04265e-11 5.85789e-12 0)
(1.55336e-11 -3.51319e-11 0)
(9.49004e-11 -9.79285e-11 0)
(8.79536e-11 -7.69943e-11 0)
(3.31066e-11 3.45661e-11 0)
(-1.38244e-11 1.16158e-10 0)
(-3.00371e-11 5.83107e-11 0)
(-3.80328e-12 7.12728e-11 0)
(1.97382e-11 1.02174e-10 0)
(5.843e-11 -5.22432e-11 0)
(-9.55603e-11 -1.26278e-10 0)
(1.8618e-10 -2.41571e-10 0)
(-3.07497e-10 5.34073e-10 0)
(2.38863e-10 -3.77263e-10 0)
(1.61932e-10 2.12e-10 0)
(-3.67255e-10 1.99953e-10 0)
(2.28292e-10 -1.30734e-10 0)
(2.10712e-10 -3.20306e-11 0)
(-8.46111e-11 9.27793e-11 0)
(-1.28186e-10 6.48036e-11 0)
(-1.11923e-10 4.50191e-11 0)
(-7.64717e-11 2.56231e-11 0)
(1.08756e-11 -3.08785e-11 0)
(1.09698e-10 -4.67449e-11 0)
(1.25459e-10 8.03189e-12 0)
(5.73573e-11 5.72759e-11 0)
(-2.29597e-11 2.53267e-11 0)
(-4.05637e-11 2.45821e-11 0)
(-9.64424e-12 5.98337e-12 0)
(-4.2092e-11 3.32842e-11 0)
(-3.20491e-11 -1.65967e-10 0)
(2.60307e-10 9.22568e-11 0)
(-1.57851e-10 4.94881e-10 0)
(-3.61389e-10 -8.50541e-10 0)
(6.93523e-10 -1.93298e-10 0)
(-5.39011e-10 3.21011e-10 0)
(8.42856e-11 1.03084e-10 0)
(2.87841e-10 -9.51522e-11 0)
(-7.45221e-12 -8.13422e-11 0)
(-1.40215e-10 -3.85115e-11 0)
(-1.40302e-10 1.54559e-11 0)
(-1.24816e-10 6.2784e-11 0)
(-5.32395e-11 6.00212e-11 0)
(7.10547e-11 1.40252e-11 0)
(1.22816e-10 -2.39036e-11 0)
(8.62878e-11 -1.62692e-11 0)
(4.35191e-12 -8.14315e-12 0)
(4.24929e-12 4.06801e-11 0)
(2.1822e-11 -1.53191e-10 0)
(-1.32293e-10 -4.80567e-11 0)
(-9.11387e-12 1.91282e-10 0)
(3.63856e-10 5.5784e-10 0)
(-1.73664e-09 -1.42223e-09 0)
(-1.75613e-09 2.01086e-09 0)
(-4.59054e-10 -5.11177e-10 0)
(-2.53754e-11 -1.89538e-10 0)
(-3.27198e-10 6.51504e-11 0)
(-3.21112e-11 -2.24608e-10 0)
(1.74928e-11 -2.1307e-10 0)
(-3.01164e-12 -7.99397e-11 0)
(-1.08577e-11 3.0295e-11 0)
(-4.89736e-11 1.03336e-10 0)
(-7.26319e-11 1.08545e-10 0)
(-2.92166e-11 3.74283e-11 0)
(3.17908e-11 -5.06599e-11 0)
(5.73319e-11 -6.80399e-11 0)
(2.44599e-11 -2.5025e-11 0)
(-2.03046e-11 5.83299e-11 0)
(-1.2774e-10 -8.78782e-11 0)
(2.28269e-11 -8.49429e-11 0)
(1.39948e-10 2.61025e-10 0)
(-7.3238e-10 4.17418e-10 0)
(2.24634e-09 -1.60777e-09 0)
(1.59426e-09 2.65718e-09 0)
(-5.49492e-11 -2.00143e-10 0)
(6.39758e-10 -4.1743e-10 0)
(-9.23445e-11 -5.33466e-11 0)
(-1.26455e-10 -1.57696e-10 0)
(2.04379e-10 -1.19465e-10 0)
(2.19855e-10 -3.02972e-11 0)
(1.21549e-10 3.03061e-11 0)
(-1.15693e-11 6.37158e-11 0)
(-1.29458e-10 6.49916e-11 0)
(-1.37422e-10 2.96448e-11 0)
(-4.85624e-11 -1.52282e-11 0)
(4.48382e-11 -2.71199e-11 0)
(5.84774e-11 -1.44821e-11 0)
)
;

boundaryField
{
    sides
    {
        type            calculated;
        value           nonuniform List<vector> 
40
(
(-2.03046e-11 0 0)
(-1.2774e-10 0 0)
(2.28269e-11 0 0)
(1.39948e-10 0 0)
(-7.3238e-10 0 0)
(2.24634e-09 0 0)
(1.59426e-09 0 0)
(-5.49492e-11 0 0)
(6.39758e-10 0 0)
(-9.23445e-11 0 0)
(-1.26455e-10 0 0)
(2.04379e-10 0 0)
(2.19855e-10 0 0)
(1.21549e-10 0 0)
(-1.15693e-11 0 0)
(-1.29458e-10 0 0)
(-1.37422e-10 0 0)
(-4.85624e-11 0 0)
(4.48382e-11 0 0)
(5.84774e-11 0 0)
(-1.75305e-11 0 0)
(-1.42535e-10 0 0)
(6.18503e-11 0 0)
(3.29341e-11 0 0)
(-2.40409e-10 0 0)
(-1.22497e-09 0 0)
(1.84916e-09 0 0)
(-5.53092e-09 0 0)
(-1.07122e-09 0 0)
(3.62162e-10 0 0)
(-2.76202e-10 0 0)
(-1.0585e-11 0 0)
(1.83205e-10 0 0)
(1.9695e-10 0 0)
(6.9517e-11 0 0)
(-9.43425e-11 0 0)
(-1.42364e-10 0 0)
(-5.17384e-11 0 0)
(2.46952e-11 0 0)
(1.20325e-11 0 0)
)
;
    }
    inlet
    {
        type            calculated;
        value           uniform (0 0 0);
    }
    outlet
    {
        type            calculated;
        value           nonuniform List<vector> 
20
(
(1.20325e-11 1.80196e-11 0)
(-1.60217e-11 3.31698e-11 0)
(-4.53945e-11 1.74176e-11 0)
(-5.88409e-11 -8.65414e-12 0)
(-5.88878e-11 -3.23061e-11 0)
(-4.02076e-11 -2.96593e-11 0)
(-5.80828e-12 1.76637e-11 0)
(-2.19829e-12 6.98647e-11 0)
(3.44849e-11 7.66716e-11 0)
(6.24651e-11 4.03661e-11 0)
(6.63562e-11 3.15636e-12 0)
(3.50387e-11 -1.97538e-11 0)
(2.98955e-12 -1.55952e-11 0)
(-1.07833e-11 2.93305e-11 0)
(-9.42717e-12 6.49854e-11 0)
(-3.00371e-11 5.83107e-11 0)
(-2.29597e-11 2.53267e-11 0)
(4.35191e-12 -8.14315e-12 0)
(2.44599e-11 -2.5025e-11 0)
(5.84774e-11 -1.44821e-11 0)
)
;
    }
    frontAndBack
    {
        type            empty;
    }
}


// ************************************************************************* //
