/*--------------------------------*- C++ -*----------------------------------*\
  =========                 |
  \\      /  F ield         | OpenFOAM: The Open Source CFD Toolbox
   \\    /   O peration     | Website:  https://openfoam.org
    \\  /    A nd           | Version:  7
     \\/     M anipulation  |
\*---------------------------------------------------------------------------*/
FoamFile
{
    version     2.0;
    format      ascii;
    class       volScalarField;
    location    "94";
    object      ddt0(h);
}
// * * * * * * * * * * * * * * * * * * * * * * * * * * * * * * * * * * * * * //

dimensions      [0 1 -1 0 0 0 0];

internalField   nonuniform List<scalar> 
400
(
1.35114e-09
-1.11141e-11
-1.88148e-09
-1.97421e-09
3.97099e-09
-1.19111e-08
5.99507e-10
-5.0804e-08
1.0477e-09
8.23212e-11
-8.76264e-10
-7.30491e-11
4.94318e-10
5.42107e-10
2.29498e-10
-2.0653e-10
-4.28824e-10
-2.72409e-10
4.18503e-13
4.23978e-11
-2.07737e-10
-1.51437e-10
3.27431e-10
2.56486e-10
-2.78697e-09
1.08354e-08
3.65791e-09
4.61739e-08
2.43624e-09
-1.00336e-09
-3.04064e-10
1.10172e-10
6.36758e-11
-8.84745e-12
-7.70011e-11
-1.2882e-10
-1.31684e-10
-8.16496e-12
2.19486e-10
1.72987e-10
-1.57723e-09
2.64519e-10
1.14686e-09
1.74472e-09
-2.77087e-09
3.1389e-09
-8.2693e-09
5.53752e-09
-2.65925e-09
-7.26717e-10
8.78674e-10
4.11801e-10
-2.01339e-10
-4.14968e-10
-4.20765e-10
-1.82195e-10
1.28744e-10
3.29495e-10
4.666e-10
2.71768e-10
-6.97605e-10
-1.88083e-11
3.15535e-10
9.07261e-10
-8.92988e-11
-8.344e-10
1.50372e-09
4.95362e-10
-1.84964e-09
3.05454e-10
9.6111e-10
6.33198e-11
-3.95235e-10
-4.27304e-10
-3.20263e-10
-2.87636e-11
3.4222e-10
4.99171e-10
3.78612e-10
1.34559e-10
2.02609e-10
-2.85457e-10
2.12465e-10
-5.88929e-10
1.61338e-09
-2.00014e-09
1.92215e-09
-8.64504e-10
-8.23767e-10
1.50926e-09
1.79748e-10
-5.47267e-10
-3.92053e-10
-2.82776e-10
-9.16328e-11
1.70708e-10
3.89919e-10
3.01927e-10
-1.24802e-10
-1.94422e-10
5.20141e-10
-2.32649e-10
1.98504e-10
-1.10298e-09
6.60933e-10
-4.67738e-10
1.1287e-09
-1.40098e-09
1.204e-09
7.21721e-10
-1.04064e-09
-5.38177e-10
4.82725e-12
-5.38583e-11
8.08331e-11
2.91788e-10
2.11049e-10
-2.85744e-10
-8.12393e-10
-4.98428e-10
4.66932e-10
-1.09479e-11
-2.16925e-10
-9.73892e-11
-9.58702e-10
4.87188e-10
-3.32599e-10
-1.20358e-10
7.65891e-10
-9.60173e-10
-8.33293e-10
9.78149e-11
2.8364e-10
1.93459e-10
2.19793e-10
2.6447e-10
-4.7892e-11
-7.61913e-10
-1.19427e-09
-6.10962e-10
1.04916e-11
4.26055e-10
-6.36411e-10
4.46979e-10
-6.40587e-10
4.65942e-10
-8.05207e-10
3.93889e-10
-2.86913e-10
-7.51231e-10
4.06658e-10
1.21736e-10
-6.72119e-11
4.06671e-10
3.64616e-10
3.23688e-11
-2.45058e-10
-5.78274e-10
-7.25604e-10
-3.46835e-10
-2.72645e-10
2.22434e-10
-1.5589e-10
1.26615e-10
6.49602e-11
1.62298e-10
-2.99614e-10
2.85974e-10
-3.43031e-10
4.93523e-11
4.33414e-10
-2.80945e-10
-2.28486e-10
3.45475e-10
2.14012e-10
-2.46543e-10
-3.2805e-10
4.78399e-11
4.56765e-10
2.96457e-10
-8.30582e-11
-4.01917e-10
2.33452e-10
-4.35135e-11
3.98116e-10
-2.3942e-10
2.59971e-10
-1.62551e-10
4.51063e-11
2.8125e-10
-1.79186e-10
5.84251e-11
-3.21088e-11
-4.88717e-10
-3.75974e-10
-1.47667e-10
-5.64373e-11
5.52235e-10
1.28419e-09
7.60653e-10
5.78992e-11
-5.38348e-10
3.18007e-10
-1.34121e-10
4.9213e-10
-3.57074e-10
4.64203e-10
-2.72222e-10
1.40777e-10
3.2722e-10
-3.34042e-10
2.81107e-10
1.50403e-10
-6.44212e-10
-4.63398e-10
-7.16918e-11
-4.76362e-12
5.37218e-10
1.20891e-09
7.06706e-10
-6.34425e-11
2.29688e-11
9.45798e-11
-1.23494e-10
2.97091e-10
-7.94122e-11
1.06113e-10
1.68171e-10
-2.65618e-10
2.74396e-10
2.16281e-10
-6.32949e-11
7.32398e-11
2.56915e-10
1.29349e-10
-2.40994e-10
-3.24117e-10
8.20959e-11
3.94963e-10
2.1437e-10
-2.95739e-11
5.47078e-10
-5.12462e-10
3.18129e-10
-3.81262e-10
4.03441e-10
-6.06191e-10
6.3851e-10
-4.73921e-10
-3.92384e-10
7.54513e-10
1.18143e-10
-1.01307e-10
4.93536e-10
4.25554e-10
-5.10696e-11
-2.5128e-10
-4.21363e-10
-6.97717e-10
-4.12305e-10
2.96854e-10
2.41398e-10
-4.2972e-10
3.56107e-10
-1.10685e-09
8.11988e-10
-6.48623e-10
5.1837e-10
4.32396e-10
-1.13192e-09
-1.36313e-10
4.25941e-10
2.27887e-10
2.31489e-10
2.5226e-10
2.48385e-10
5.65686e-11
-5.80929e-10
-1.12607e-09
-6.2421e-10
3.80181e-10
-9.86939e-11
1.05247e-10
-6.38321e-10
6.54685e-11
4.83095e-10
5.11666e-10
-8.07279e-10
1.70444e-09
3.2586e-11
-1.02767e-09
-1.4259e-10
2.37122e-10
6.33544e-11
1.26169e-10
3.56237e-10
3.18232e-10
-2.09101e-10
-7.16467e-10
-4.27627e-10
1.99929e-10
-2.87487e-10
2.70936e-10
-6.44362e-10
1.80937e-09
-1.60714e-09
1.67953e-09
-1.86229e-09
1.56609e-10
1.47633e-09
-4.10745e-10
-5.61918e-10
-1.13759e-10
-4.80104e-11
5.1481e-11
2.43368e-10
4.08826e-10
3.12581e-10
-2.06942e-11
-1.03771e-10
-4.5753e-10
-1.90852e-10
4.90963e-10
6.26414e-10
1.13726e-09
-2.65935e-09
2.65462e-09
1.70271e-10
-1.48619e-09
9.29044e-10
6.47136e-10
-2.76956e-10
-3.4665e-10
-1.93844e-10
-1.00234e-10
3.97286e-11
2.95724e-10
4.87214e-10
4.41624e-10
1.7824e-10
-1.11851e-09
-1.21487e-10
1.30925e-09
1.91173e-09
-2.03383e-09
2.84447e-10
-1.24858e-09
2.19314e-09
-2.07583e-09
5.00429e-10
9.69026e-10
3.83537e-11
-3.70442e-10
-3.3311e-10
-2.55257e-10
-9.95513e-11
1.02306e-10
2.97699e-10
4.71678e-10
2.77817e-10
-1.14154e-10
5.65602e-11
3.63924e-10
1.08892e-09
-3.67949e-09
-7.74765e-09
-9.87159e-09
-1.80352e-08
-1.32128e-09
-5.67954e-10
-7.73273e-12
9.11071e-11
-3.164e-11
-6.7308e-11
-7.82562e-11
-7.22731e-11
-1.03276e-10
-5.05532e-11
1.66354e-10
1.54036e-10
1.13559e-09
5.68345e-10
-1.55389e-09
-2.43571e-09
3.93846e-09
1.0831e-08
7.59408e-09
1.77546e-08
3.65263e-09
-9.55468e-10
-2.9659e-10
6.66261e-10
7.44947e-10
4.296e-10
8.87317e-11
-1.71508e-10
-3.32749e-10
-2.79469e-10
-7.18909e-11
8.44794e-12
)
;

boundaryField
{
    sides
    {
        type            calculated;
        value           nonuniform List<scalar> 
40
(
1.13559e-09
5.68345e-10
-1.55389e-09
-2.43571e-09
3.93846e-09
1.0831e-08
7.59408e-09
1.77546e-08
3.65263e-09
-9.55468e-10
-2.9659e-10
6.66261e-10
7.44947e-10
4.296e-10
8.87317e-11
-1.71508e-10
-3.32749e-10
-2.79469e-10
-7.18909e-11
8.44794e-12
1.35114e-09
-1.11141e-11
-1.88148e-09
-1.97421e-09
3.97099e-09
-1.19111e-08
5.99507e-10
-5.0804e-08
1.0477e-09
8.23212e-11
-8.76264e-10
-7.30491e-11
4.94318e-10
5.42107e-10
2.29498e-10
-2.0653e-10
-4.28824e-10
-2.72409e-10
4.18503e-13
4.23978e-11
)
;
    }
    inlet
    {
        type            calculated;
        value           nonuniform List<scalar> 
20
(
1.35114e-09
-2.07737e-10
-1.57723e-09
-6.97605e-10
2.02609e-10
5.20141e-10
4.66932e-10
1.04916e-11
-2.72645e-10
-8.30582e-11
5.78992e-11
-6.34425e-11
-2.95739e-11
2.96854e-10
3.80181e-10
1.99929e-10
-4.5753e-10
-1.11851e-09
-1.14154e-10
1.13559e-09
)
;
    }
    outlet
    {
        type            calculated;
        value           uniform 0;
    }
    frontAndBack
    {
        type            empty;
    }
}


// ************************************************************************* //
