/*--------------------------------*- C++ -*----------------------------------*\
  =========                 |
  \\      /  F ield         | OpenFOAM: The Open Source CFD Toolbox
   \\    /   O peration     | Website:  https://openfoam.org
    \\  /    A nd           | Version:  7
     \\/     M anipulation  |
\*---------------------------------------------------------------------------*/
FoamFile
{
    version     2.0;
    format      ascii;
    class       volVectorField;
    location    "94";
    object      hU;
}
// * * * * * * * * * * * * * * * * * * * * * * * * * * * * * * * * * * * * * //

dimensions      [0 2 -1 0 0 0 0];

internalField   nonuniform List<vector> 
400
(
(0.001 -8.74932e-09 0)
(0.000999999 -2.37484e-08 0)
(0.001 -3.59721e-08 0)
(0.001 -4.67302e-08 0)
(0.00100001 -5.69341e-08 0)
(0.00100001 -6.74017e-08 0)
(0.00100002 -7.81218e-08 0)
(0.00100003 -8.92919e-08 0)
(0.00100004 -9.99072e-08 0)
(0.00100006 -1.11929e-07 0)
(0.00100007 -1.22658e-07 0)
(0.0010001 -1.36163e-07 0)
(0.00100011 -1.46529e-07 0)
(0.00100015 -1.63348e-07 0)
(0.00100017 -1.7217e-07 0)
(0.00100024 -1.96297e-07 0)
(0.00100026 -2.00796e-07 0)
(0.00100038 -2.43031e-07 0)
(0.00100038 -2.39173e-07 0)
(0.00100061 -3.31851e-07 0)
(0.001 3.94635e-09 0)
(0.001 1.21189e-08 0)
(0.00100001 2.02672e-08 0)
(0.00100001 2.79495e-08 0)
(0.00100002 3.51264e-08 0)
(0.00100002 4.16745e-08 0)
(0.00100003 4.76452e-08 0)
(0.00100004 5.30138e-08 0)
(0.00100005 5.8432e-08 0)
(0.00100007 6.22892e-08 0)
(0.00100008 6.69622e-08 0)
(0.0010001 6.85744e-08 0)
(0.00100012 7.26698e-08 0)
(0.00100016 6.98492e-08 0)
(0.00100018 7.40054e-08 0)
(0.00100023 6.16693e-08 0)
(0.00100026 6.71732e-08 0)
(0.00100035 3.17839e-08 0)
(0.00100037 3.98749e-08 0)
(0.0010005 -5.45794e-08 0)
(0.001 -3.97931e-09 0)
(0.000999999 -1.3017e-08 0)
(0.001 -2.30506e-08 0)
(0.001 -3.36368e-08 0)
(0.00100001 -4.41926e-08 0)
(0.00100001 -5.49944e-08 0)
(0.00100002 -6.56607e-08 0)
(0.00100003 -7.73018e-08 0)
(0.00100004 -8.89083e-08 0)
(0.00100005 -1.02551e-07 0)
(0.00100006 -1.15267e-07 0)
(0.00100009 -1.32416e-07 0)
(0.0010001 -1.46511e-07 0)
(0.00100014 -1.70024e-07 0)
(0.00100016 -1.85124e-07 0)
(0.00100021 -2.2112e-07 0)
(0.00100023 -2.35668e-07 0)
(0.00100031 -2.97572e-07 0)
(0.00100033 -3.06219e-07 0)
(0.00100046 -4.22182e-07 0)
(0.001 -1.40885e-10 0)
(0.001 -3.94272e-11 0)
(0.00100001 6.17246e-10 0)
(0.00100001 1.34578e-09 0)
(0.00100001 2.03765e-09 0)
(0.00100002 1.92971e-09 0)
(0.00100003 1.57059e-09 0)
(0.00100004 -3.33893e-10 0)
(0.00100004 -2.40229e-09 0)
(0.00100006 -7.06848e-09 0)
(0.00100007 -1.12257e-08 0)
(0.00100009 -2.04871e-08 0)
(0.00100011 -2.71731e-08 0)
(0.00100013 -4.42555e-08 0)
(0.00100016 -5.35181e-08 0)
(0.00100019 -8.49416e-08 0)
(0.00100022 -9.54665e-08 0)
(0.00100028 -1.54671e-07 0)
(0.0010003 -1.60997e-07 0)
(0.00100039 -2.75883e-07 0)
(0.001 -2.88712e-09 0)
(0.001 -9.22737e-09 0)
(0.001 -1.62984e-08 0)
(0.001 -2.43548e-08 0)
(0.00100001 -3.30159e-08 0)
(0.00100001 -4.27437e-08 0)
(0.00100002 -5.28198e-08 0)
(0.00100002 -6.45374e-08 0)
(0.00100003 -7.64633e-08 0)
(0.00100004 -9.12295e-08 0)
(0.00100005 -1.05627e-07 0)
(0.00100007 -1.25415e-07 0)
(0.00100009 -1.42732e-07 0)
(0.00100011 -1.70909e-07 0)
(0.00100013 -1.91194e-07 0)
(0.00100016 -2.34286e-07 0)
(0.00100018 -2.55768e-07 0)
(0.00100024 -3.26563e-07 0)
(0.00100025 -3.41583e-07 0)
(0.00100033 -4.64434e-07 0)
(0.001 -2.54619e-09 0)
(0.001 -7.52303e-09 0)
(0.001 -1.22039e-08 0)
(0.00100001 -1.69451e-08 0)
(0.00100001 -2.17035e-08 0)
(0.00100001 -2.72446e-08 0)
(0.00100002 -3.31823e-08 0)
(0.00100002 -4.08454e-08 0)
(0.00100003 -4.89221e-08 0)
(0.00100004 -6.01649e-08 0)
(0.00100005 -7.13157e-08 0)
(0.00100006 -8.82555e-08 0)
(0.00100008 -1.03178e-07 0)
(0.0010001 -1.29424e-07 0)
(0.00100011 -1.48293e-07 0)
(0.00100014 -1.90235e-07 0)
(0.00100016 -2.1099e-07 0)
(0.0010002 -2.80526e-07 0)
(0.00100021 -2.94607e-07 0)
(0.00100027 -4.15034e-07 0)
(0.001 -2.89099e-09 0)
(0.001 -8.86822e-09 0)
(0.001 -1.51628e-08 0)
(0.001 -2.21957e-08 0)
(0.00100001 -2.99218e-08 0)
(0.00100001 -3.89039e-08 0)
(0.00100001 -4.86962e-08 0)
(0.00100002 -6.04588e-08 0)
(0.00100002 -7.28921e-08 0)
(0.00100003 -8.86922e-08 0)
(0.00100004 -1.04525e-07 0)
(0.00100005 -1.26389e-07 0)
(0.00100006 -1.4632e-07 0)
(0.00100007 -1.7782e-07 0)
(0.00100009 -2.01796e-07 0)
(0.00100011 -2.49167e-07 0)
(0.00100012 -2.74703e-07 0)
(0.00100015 -3.49549e-07 0)
(0.00100016 -3.67272e-07 0)
(0.00100021 -4.92223e-07 0)
(0.001 -3.20023e-09 0)
(0.001 -9.75229e-09 0)
(0.001 -1.65434e-08 0)
(0.001 -2.39124e-08 0)
(0.001 -3.17575e-08 0)
(0.00100001 -4.0646e-08 0)
(0.00100001 -5.01439e-08 0)
(0.00100001 -6.14946e-08 0)
(0.00100002 -7.34952e-08 0)
(0.00100002 -8.88492e-08 0)
(0.00100003 -1.04349e-07 0)
(0.00100004 -1.25993e-07 0)
(0.00100004 -1.4589e-07 0)
(0.00100005 -1.77421e-07 0)
(0.00100006 -2.01695e-07 0)
(0.00100008 -2.49224e-07 0)
(0.00100009 -2.75231e-07 0)
(0.00100011 -3.49799e-07 0)
(0.00100012 -3.67652e-07 0)
(0.00100015 -4.90856e-07 0)
(0.001 -3.37433e-09 0)
(0.001 -1.02518e-08 0)
(0.001 -1.73216e-08 0)
(0.001 -2.49744e-08 0)
(0.001 -3.31113e-08 0)
(0.001 -4.24201e-08 0)
(0.00100001 -5.24678e-08 0)
(0.00100001 -6.45759e-08 0)
(0.00100001 -7.7504e-08 0)
(0.00100001 -9.39754e-08 0)
(0.00100002 -1.10768e-07 0)
(0.00100002 -1.33899e-07 0)
(0.00100003 -1.55351e-07 0)
(0.00100003 -1.88671e-07 0)
(0.00100004 -2.14668e-07 0)
(0.00100005 -2.64174e-07 0)
(0.00100005 -2.91751e-07 0)
(0.00100007 -3.68314e-07 0)
(0.00100007 -3.87197e-07 0)
(0.00100009 -5.12501e-07 0)
(0.001 -3.44578e-09 0)
(0.001 -1.0485e-08 0)
(0.001 -1.77125e-08 0)
(0.001 -2.55463e-08 0)
(0.001 -3.39031e-08 0)
(0.001 -4.34869e-08 0)
(0.001 -5.38643e-08 0)
(0.001 -6.63435e-08 0)
(0.001 -7.9661e-08 0)
(0.001 -9.65264e-08 0)
(0.00100001 -1.13724e-07 0)
(0.00100001 -1.3723e-07 0)
(0.00100001 -1.59085e-07 0)
(0.00100001 -1.92764e-07 0)
(0.00100001 -2.19181e-07 0)
(0.00100002 -2.68966e-07 0)
(0.00100002 -2.96948e-07 0)
(0.00100002 -3.73584e-07 0)
(0.00100002 -3.92774e-07 0)
(0.00100003 -5.17495e-07 0)
(0.001 -3.44001e-09 0)
(0.001 -1.04738e-08 0)
(0.001 -1.77179e-08 0)
(0.000999999 -2.55495e-08 0)
(0.000999999 -3.39157e-08 0)
(0.000999999 -4.34896e-08 0)
(0.000999998 -5.387e-08 0)
(0.000999997 -6.6344e-08 0)
(0.000999996 -7.96578e-08 0)
(0.000999995 -9.65351e-08 0)
(0.000999994 -1.13724e-07 0)
(0.000999993 -1.37226e-07 0)
(0.000999991 -1.59088e-07 0)
(0.000999989 -1.92758e-07 0)
(0.000999987 -2.19161e-07 0)
(0.000999984 -2.68945e-07 0)
(0.000999982 -2.9694e-07 0)
(0.000999978 -3.73594e-07 0)
(0.000999977 -3.92795e-07 0)
(0.00099997 -5.17503e-07 0)
(0.001 -3.35717e-09 0)
(0.001 -1.02363e-08 0)
(0.000999999 -1.73304e-08 0)
(0.000999998 -2.49835e-08 0)
(0.000999997 -3.31341e-08 0)
(0.000999996 -4.24267e-08 0)
(0.000999994 -5.2475e-08 0)
(0.000999992 -6.45788e-08 0)
(0.000999989 -7.74926e-08 0)
(0.000999986 -9.39896e-08 0)
(0.000999983 -1.10776e-07 0)
(0.000999978 -1.33892e-07 0)
(0.000999973 -1.55349e-07 0)
(0.000999967 -1.88653e-07 0)
(0.000999961 -2.14631e-07 0)
(0.000999952 -2.6412e-07 0)
(0.000999946 -2.91718e-07 0)
(0.000999934 -3.68307e-07 0)
(0.00099993 -3.8722e-07 0)
(0.000999911 -5.12473e-07 0)
(0.001 -3.18536e-09 0)
(0.001 -9.75079e-09 0)
(0.000999999 -1.65414e-08 0)
(0.000999997 -2.39245e-08 0)
(0.000999996 -3.17587e-08 0)
(0.000999993 -4.06536e-08 0)
(0.000999991 -5.01376e-08 0)
(0.000999987 -6.1503e-08 0)
(0.000999983 -7.34828e-08 0)
(0.000999977 -8.88462e-08 0)
(0.000999971 -1.04372e-07 0)
(0.000999964 -1.26008e-07 0)
(0.000999956 -1.45895e-07 0)
(0.000999945 -1.77423e-07 0)
(0.000999936 -2.01695e-07 0)
(0.000999921 -2.49203e-07 0)
(0.000999911 -2.75218e-07 0)
(0.000999889 -3.49811e-07 0)
(0.000999882 -3.67697e-07 0)
(0.000999852 -4.9087e-07 0)
(0.001 -2.89725e-09 0)
(0.000999999 -8.87503e-09 0)
(0.000999998 -1.51524e-08 0)
(0.000999996 -2.21925e-08 0)
(0.000999994 -2.9892e-08 0)
(0.000999991 -3.89104e-08 0)
(0.000999987 -4.86808e-08 0)
(0.000999982 -6.04625e-08 0)
(0.000999977 -7.28938e-08 0)
(0.000999969 -8.86545e-08 0)
(0.000999962 -1.04513e-07 0)
(0.000999951 -1.2639e-07 0)
(0.000999941 -1.46314e-07 0)
(0.000999925 -1.77804e-07 0)
(0.000999913 -2.01786e-07 0)
(0.000999891 -2.4912e-07 0)
(0.000999878 -2.74648e-07 0)
(0.000999847 -3.49458e-07 0)
(0.000999839 -3.67198e-07 0)
(0.000999792 -4.92086e-07 0)
(0.001 -2.57073e-09 0)
(0.000999999 -7.53034e-09 0)
(0.000999997 -1.21959e-08 0)
(0.000999995 -1.69206e-08 0)
(0.000999991 -2.16913e-08 0)
(0.000999987 -2.72533e-08 0)
(0.000999982 -3.31988e-08 0)
(0.000999975 -4.08446e-08 0)
(0.000999968 -4.89629e-08 0)
(0.000999959 -6.01639e-08 0)
(0.000999949 -7.12984e-08 0)
(0.000999935 -8.826e-08 0)
(0.000999922 -1.03199e-07 0)
(0.000999903 -1.29447e-07 0)
(0.000999886 -1.48327e-07 0)
(0.000999859 -1.90257e-07 0)
(0.000999841 -2.11002e-07 0)
(0.000999802 -2.80497e-07 0)
(0.000999787 -2.94575e-07 0)
(0.000999731 -4.15e-07 0)
(0.001 -2.90874e-09 0)
(0.001 -9.22368e-09 0)
(0.000999999 -1.62881e-08 0)
(0.000999997 -2.43292e-08 0)
(0.000999994 -3.30414e-08 0)
(0.00099999 -4.2715e-08 0)
(0.000999984 -5.28625e-08 0)
(0.000999977 -6.45051e-08 0)
(0.000999969 -7.64692e-08 0)
(0.000999958 -9.12437e-08 0)
(0.000999946 -1.056e-07 0)
(0.00099993 -1.25374e-07 0)
(0.000999915 -1.42713e-07 0)
(0.000999891 -1.70885e-07 0)
(0.000999872 -1.91188e-07 0)
(0.000999837 -2.34258e-07 0)
(0.000999817 -2.55745e-07 0)
(0.000999764 -3.26451e-07 0)
(0.000999752 -3.41475e-07 0)
(0.00099967 -4.64252e-07 0)
(0.001 -1.5569e-10 0)
(0.000999998 -2.62896e-11 0)
(0.000999995 6.27012e-10 0)
(0.000999991 1.32946e-09 0)
(0.000999986 1.97819e-09 0)
(0.00099998 1.96768e-09 0)
(0.000999973 1.49128e-09 0)
(0.000999965 -3.34816e-10 0)
(0.000999955 -2.38666e-09 0)
(0.000999943 -7.09455e-09 0)
(0.00099993 -1.12322e-08 0)
(0.000999912 -2.04697e-08 0)
(0.000999894 -2.71649e-08 0)
(0.000999867 -4.42458e-08 0)
(0.000999845 -5.35211e-08 0)
(0.000999805 -8.49387e-08 0)
(0.000999779 -9.54739e-08 0)
(0.00099972 -1.54633e-07 0)
(0.000999699 -1.60953e-07 0)
(0.000999611 -2.75811e-07 0)
(0.001 -3.96028e-09 0)
(0.001 -1.30164e-08 0)
(0.001 -2.30532e-08 0)
(0.000999998 -3.36745e-08 0)
(0.000999995 -4.42098e-08 0)
(0.000999989 -5.49666e-08 0)
(0.000999983 -6.57308e-08 0)
(0.000999974 -7.73562e-08 0)
(0.000999963 -8.88452e-08 0)
(0.00099995 -1.02538e-07 0)
(0.000999936 -1.15293e-07 0)
(0.000999914 -1.32426e-07 0)
(0.000999896 -1.46516e-07 0)
(0.000999864 -1.70005e-07 0)
(0.000999841 -1.85122e-07 0)
(0.000999791 -2.211e-07 0)
(0.000999767 -2.35695e-07 0)
(0.000999687 -2.97554e-07 0)
(0.000999672 -3.06234e-07 0)
(0.000999539 -4.22108e-07 0)
(0.001 4.00873e-09 0)
(0.000999996 1.2093e-08 0)
(0.000999991 2.01997e-08 0)
(0.000999987 2.7938e-08 0)
(0.000999982 3.524e-08 0)
(0.000999976 4.15704e-08 0)
(0.000999968 4.79288e-08 0)
(0.000999959 5.30168e-08 0)
(0.000999948 5.83868e-08 0)
(0.000999934 6.2299e-08 0)
(0.000999919 6.69354e-08 0)
(0.000999897 6.85681e-08 0)
(0.000999878 7.26885e-08 0)
(0.000999845 6.98996e-08 0)
(0.000999819 7.40482e-08 0)
(0.000999767 6.17267e-08 0)
(0.000999738 6.71914e-08 0)
(0.000999654 3.18344e-08 0)
(0.000999629 3.99045e-08 0)
(0.000999495 -5.44638e-08 0)
(0.001 -8.71238e-09 0)
(0.001 -2.37648e-08 0)
(0.001 -3.60306e-08 0)
(0.000999997 -4.67275e-08 0)
(0.000999993 -5.68444e-08 0)
(0.000999986 -6.75294e-08 0)
(0.000999979 -7.78309e-08 0)
(0.000999968 -8.92711e-08 0)
(0.000999958 -1.00035e-07 0)
(0.000999942 -1.11974e-07 0)
(0.000999928 -1.22711e-07 0)
(0.000999903 -1.36206e-07 0)
(0.000999886 -1.46563e-07 0)
(0.000999846 -1.63376e-07 0)
(0.000999826 -1.7221e-07 0)
(0.00099976 -1.96346e-07 0)
(0.000999742 -2.00865e-07 0)
(0.000999623 -2.43115e-07 0)
(0.000999618 -2.39263e-07 0)
(0.000999394 -3.31984e-07 0)
)
;

boundaryField
{
    sides
    {
        type            slip;
    }
    inlet
    {
        type            fixedValue;
        value           uniform (0.001 0 0);
    }
    outlet
    {
        type            zeroGradient;
    }
    frontAndBack
    {
        type            empty;
    }
}


// ************************************************************************* //
