/*--------------------------------*- C++ -*----------------------------------*\
  =========                 |
  \\      /  F ield         | OpenFOAM: The Open Source CFD Toolbox
   \\    /   O peration     | Website:  https://openfoam.org
    \\  /    A nd           | Version:  7
     \\/     M anipulation  |
\*---------------------------------------------------------------------------*/
FoamFile
{
    version     2.0;
    format      ascii;
    class       volVectorField;
    location    "94";
    object      hU_0;
}
// * * * * * * * * * * * * * * * * * * * * * * * * * * * * * * * * * * * * * //

dimensions      [0 2 -1 0 0 0 0];

internalField   nonuniform List<vector> 
400
(
(0.001 -8.75229e-09 0)
(0.000999999 -2.3758e-08 0)
(0.001 -3.59689e-08 0)
(0.001 -4.67028e-08 0)
(0.00100001 -5.69476e-08 0)
(0.00100001 -6.7418e-08 0)
(0.00100002 -7.82707e-08 0)
(0.00100003 -8.90501e-08 0)
(0.00100004 -9.99355e-08 0)
(0.00100006 -1.11934e-07 0)
(0.00100007 -1.22655e-07 0)
(0.0010001 -1.36167e-07 0)
(0.00100011 -1.46533e-07 0)
(0.00100015 -1.63348e-07 0)
(0.00100017 -1.72166e-07 0)
(0.00100024 -1.96291e-07 0)
(0.00100026 -2.00793e-07 0)
(0.00100038 -2.43033e-07 0)
(0.00100038 -2.39176e-07 0)
(0.00100061 -3.31853e-07 0)
(0.001 3.9382e-09 0)
(0.001 1.21062e-08 0)
(0.00100001 2.02796e-08 0)
(0.00100001 2.79822e-08 0)
(0.00100002 3.51272e-08 0)
(0.00100002 4.16544e-08 0)
(0.00100003 4.75696e-08 0)
(0.00100004 5.31617e-08 0)
(0.00100005 5.83974e-08 0)
(0.00100007 6.23007e-08 0)
(0.00100008 6.69714e-08 0)
(0.0010001 6.85663e-08 0)
(0.00100012 7.26595e-08 0)
(0.00100016 6.98465e-08 0)
(0.00100018 7.40126e-08 0)
(0.00100023 6.16815e-08 0)
(0.00100026 6.71812e-08 0)
(0.00100035 3.17836e-08 0)
(0.00100037 3.98706e-08 0)
(0.0010005 -5.45815e-08 0)
(0.001 -3.97724e-09 0)
(0.000999999 -1.30171e-08 0)
(0.001 -2.30492e-08 0)
(0.001 -3.36481e-08 0)
(0.00100001 -4.41731e-08 0)
(0.00100001 -5.50104e-08 0)
(0.00100002 -6.55559e-08 0)
(0.00100003 -7.74202e-08 0)
(0.00100004 -8.89064e-08 0)
(0.00100005 -1.02529e-07 0)
(0.00100006 -1.15262e-07 0)
(0.00100009 -1.32419e-07 0)
(0.0010001 -1.46513e-07 0)
(0.00100014 -1.70022e-07 0)
(0.00100016 -1.85118e-07 0)
(0.00100021 -2.21113e-07 0)
(0.00100023 -2.35666e-07 0)
(0.00100031 -2.97575e-07 0)
(0.00100033 -3.06224e-07 0)
(0.00100046 -4.22184e-07 0)
(0.001 -1.25989e-10 0)
(0.001 -3.40664e-11 0)
(0.00100001 6.06127e-10 0)
(0.00100001 1.32073e-09 0)
(0.00100001 2.04034e-09 0)
(0.00100002 1.92613e-09 0)
(0.00100003 1.59463e-09 0)
(0.00100004 -3.63601e-10 0)
(0.00100004 -2.38068e-09 0)
(0.00100006 -7.06618e-09 0)
(0.00100007 -1.12364e-08 0)
(0.00100009 -2.04873e-08 0)
(0.00100011 -2.71658e-08 0)
(0.00100013 -4.4247e-08 0)
(0.00100016 -5.35117e-08 0)
(0.00100019 -8.49421e-08 0)
(0.00100022 -9.54725e-08 0)
(0.00100028 -1.54676e-07 0)
(0.0010003 -1.61002e-07 0)
(0.00100039 -2.75884e-07 0)
(0.001 -2.88134e-09 0)
(0.001 -9.22436e-09 0)
(0.001 -1.63022e-08 0)
(0.001 -2.43617e-08 0)
(0.00100001 -3.30307e-08 0)
(0.00100001 -4.2728e-08 0)
(0.00100002 -5.28419e-08 0)
(0.00100002 -6.45411e-08 0)
(0.00100003 -7.64487e-08 0)
(0.00100004 -9.12443e-08 0)
(0.00100005 -1.05637e-07 0)
(0.00100007 -1.25409e-07 0)
(0.00100009 -1.42722e-07 0)
(0.00100011 -1.70902e-07 0)
(0.00100013 -1.91193e-07 0)
(0.00100016 -2.34295e-07 0)
(0.00100018 -2.5578e-07 0)
(0.00100024 -3.2657e-07 0)
(0.00100025 -3.41586e-07 0)
(0.00100033 -4.64434e-07 0)
(0.001 -2.55202e-09 0)
(0.001 -7.52196e-09 0)
(0.001 -1.22047e-08 0)
(0.00100001 -1.69361e-08 0)
(0.00100001 -2.17182e-08 0)
(0.00100001 -2.72385e-08 0)
(0.00100002 -3.32068e-08 0)
(0.00100002 -4.08419e-08 0)
(0.00100003 -4.89346e-08 0)
(0.00100004 -6.01841e-08 0)
(0.00100005 -7.13109e-08 0)
(0.00100006 -8.8245e-08 0)
(0.00100008 -1.03171e-07 0)
(0.0010001 -1.29421e-07 0)
(0.00100011 -1.48298e-07 0)
(0.00100014 -1.90247e-07 0)
(0.00100016 -2.11004e-07 0)
(0.0010002 -2.80535e-07 0)
(0.00100021 -2.94612e-07 0)
(0.00100027 -4.15034e-07 0)
(0.001 -2.89784e-09 0)
(0.001 -8.86802e-09 0)
(0.001 -1.51617e-08 0)
(0.001 -2.21885e-08 0)
(0.00100001 -2.9919e-08 0)
(0.00100001 -3.8909e-08 0)
(0.00100001 -4.87073e-08 0)
(0.00100002 -6.0458e-08 0)
(0.00100002 -7.29109e-08 0)
(0.00100003 -8.86909e-08 0)
(0.00100004 -1.04513e-07 0)
(0.00100005 -1.26388e-07 0)
(0.00100006 -1.46319e-07 0)
(0.00100007 -1.77819e-07 0)
(0.00100009 -2.018e-07 0)
(0.00100011 -2.49175e-07 0)
(0.00100012 -2.74709e-07 0)
(0.00100015 -3.49554e-07 0)
(0.00100016 -3.67277e-07 0)
(0.00100021 -4.92225e-07 0)
(0.001 -3.20214e-09 0)
(0.001 -9.7543e-09 0)
(0.001 -1.65409e-08 0)
(0.001 -2.3916e-08 0)
(0.001 -3.17521e-08 0)
(0.00100001 -4.06544e-08 0)
(0.00100001 -5.01435e-08 0)
(0.00100001 -6.14982e-08 0)
(0.00100002 -7.34971e-08 0)
(0.00100002 -8.88376e-08 0)
(0.00100003 -1.04346e-07 0)
(0.00100004 -1.25997e-07 0)
(0.00100004 -1.45889e-07 0)
(0.00100005 -1.77419e-07 0)
(0.00100006 -2.01694e-07 0)
(0.00100008 -2.4922e-07 0)
(0.00100009 -2.75226e-07 0)
(0.00100011 -3.49798e-07 0)
(0.00100012 -3.67656e-07 0)
(0.00100015 -4.90858e-07 0)
(0.001 -3.37191e-09 0)
(0.001 -1.02531e-08 0)
(0.001 -1.7322e-08 0)
(0.001 -2.49803e-08 0)
(0.001 -3.31157e-08 0)
(0.001 -4.24283e-08 0)
(0.00100001 -5.2467e-08 0)
(0.00100001 -6.45819e-08 0)
(0.00100001 -7.74972e-08 0)
(0.00100001 -9.39738e-08 0)
(0.00100002 -1.10773e-07 0)
(0.00100002 -1.33897e-07 0)
(0.00100003 -1.55351e-07 0)
(0.00100003 -1.88674e-07 0)
(0.00100004 -2.14662e-07 0)
(0.00100005 -2.6416e-07 0)
(0.00100005 -2.9174e-07 0)
(0.00100007 -3.68311e-07 0)
(0.00100007 -3.872e-07 0)
(0.00100009 -5.12503e-07 0)
(0.001 -3.4442e-09 0)
(0.001 -1.04844e-08 0)
(0.001 -1.77147e-08 0)
(0.001 -2.55499e-08 0)
(0.001 -3.39097e-08 0)
(0.001 -4.34935e-08 0)
(0.001 -5.38669e-08 0)
(0.001 -6.63499e-08 0)
(0.001 -7.96574e-08 0)
(0.001 -9.6529e-08 0)
(0.00100001 -1.13725e-07 0)
(0.00100001 -1.37222e-07 0)
(0.00100001 -1.59083e-07 0)
(0.00100001 -1.92768e-07 0)
(0.00100001 -2.19177e-07 0)
(0.00100002 -2.68958e-07 0)
(0.00100002 -2.96945e-07 0)
(0.00100002 -3.73587e-07 0)
(0.00100002 -3.9278e-07 0)
(0.00100003 -5.17497e-07 0)
(0.001 -3.4407e-09 0)
(0.001 -1.0475e-08 0)
(0.001 -1.77177e-08 0)
(0.000999999 -2.55513e-08 0)
(0.000999999 -3.39164e-08 0)
(0.000999999 -4.34928e-08 0)
(0.000999998 -5.38741e-08 0)
(0.000999997 -6.63475e-08 0)
(0.000999996 -7.96627e-08 0)
(0.000999995 -9.65329e-08 0)
(0.000999994 -1.13719e-07 0)
(0.000999993 -1.37222e-07 0)
(0.000999991 -1.59079e-07 0)
(0.000999989 -1.92751e-07 0)
(0.000999987 -2.19163e-07 0)
(0.000999984 -2.68955e-07 0)
(0.000999982 -2.96952e-07 0)
(0.000999978 -3.73603e-07 0)
(0.000999977 -3.92803e-07 0)
(0.00099997 -5.17506e-07 0)
(0.001 -3.35941e-09 0)
(0.001 -1.02362e-08 0)
(0.000999999 -1.73309e-08 0)
(0.000999998 -2.49834e-08 0)
(0.000999997 -3.31347e-08 0)
(0.000999996 -4.24277e-08 0)
(0.000999994 -5.24828e-08 0)
(0.000999992 -6.45791e-08 0)
(0.000999989 -7.75045e-08 0)
(0.000999986 -9.39882e-08 0)
(0.000999983 -1.10767e-07 0)
(0.000999978 -1.33891e-07 0)
(0.000999973 -1.5534e-07 0)
(0.000999967 -1.88641e-07 0)
(0.000999961 -2.14633e-07 0)
(0.000999952 -2.64136e-07 0)
(0.000999946 -2.91735e-07 0)
(0.000999934 -3.68319e-07 0)
(0.00099993 -3.87231e-07 0)
(0.000999911 -5.12477e-07 0)
(0.001 -3.18476e-09 0)
(0.001 -9.74797e-09 0)
(0.000999999 -1.65458e-08 0)
(0.000999997 -2.39239e-08 0)
(0.000999996 -3.17699e-08 0)
(0.000999993 -4.06532e-08 0)
(0.000999991 -5.01483e-08 0)
(0.000999987 -6.15022e-08 0)
(0.000999983 -7.34902e-08 0)
(0.000999977 -8.88561e-08 0)
(0.000999971 -1.04367e-07 0)
(0.000999964 -1.26e-07 0)
(0.000999956 -1.45889e-07 0)
(0.000999945 -1.77417e-07 0)
(0.000999936 -2.01692e-07 0)
(0.000999921 -2.4921e-07 0)
(0.000999911 -2.75231e-07 0)
(0.000999889 -3.49823e-07 0)
(0.000999882 -3.67707e-07 0)
(0.000999852 -4.90873e-07 0)
(0.001 -2.8918e-09 0)
(0.000999999 -8.87313e-09 0)
(0.000999998 -1.51558e-08 0)
(0.000999996 -2.21988e-08 0)
(0.000999994 -2.99048e-08 0)
(0.000999991 -3.89076e-08 0)
(0.000999987 -4.8683e-08 0)
(0.000999982 -6.04648e-08 0)
(0.000999977 -7.28828e-08 0)
(0.000999969 -8.86655e-08 0)
(0.000999962 -1.04522e-07 0)
(0.000999951 -1.26385e-07 0)
(0.000999941 -1.46309e-07 0)
(0.000999925 -1.778e-07 0)
(0.000999913 -2.01778e-07 0)
(0.000999891 -2.49116e-07 0)
(0.000999878 -2.7465e-07 0)
(0.000999847 -3.49463e-07 0)
(0.000999839 -3.67206e-07 0)
(0.000999792 -4.92089e-07 0)
(0.001 -2.56493e-09 0)
(0.000999999 -7.53065e-09 0)
(0.000999997 -1.21969e-08 0)
(0.000999995 -1.69328e-08 0)
(0.000999991 -2.1687e-08 0)
(0.000999987 -2.7261e-08 0)
(0.000999982 -3.31892e-08 0)
(0.000999975 -4.08601e-08 0)
(0.000999968 -4.89496e-08 0)
(0.000999959 -6.01559e-08 0)
(0.000999949 -7.13094e-08 0)
(0.000999935 -8.82649e-08 0)
(0.000999922 -1.03198e-07 0)
(0.000999903 -1.29444e-07 0)
(0.000999886 -1.48319e-07 0)
(0.000999859 -1.90248e-07 0)
(0.000999841 -2.10997e-07 0)
(0.000999802 -2.80498e-07 0)
(0.000999787 -2.94582e-07 0)
(0.000999731 -4.15003e-07 0)
(0.001 -2.91154e-09 0)
(0.001 -9.22683e-09 0)
(0.000999999 -1.6284e-08 0)
(0.000999997 -2.43267e-08 0)
(0.000999994 -3.30219e-08 0)
(0.00099999 -4.27419e-08 0)
(0.000999984 -5.28434e-08 0)
(0.000999977 -6.45175e-08 0)
(0.000999969 -7.64806e-08 0)
(0.000999958 -9.1228e-08 0)
(0.000999946 -1.05597e-07 0)
(0.00099993 -1.25383e-07 0)
(0.000999915 -1.42719e-07 0)
(0.000999891 -1.70887e-07 0)
(0.000999872 -1.91186e-07 0)
(0.000999837 -2.34251e-07 0)
(0.000999817 -2.55738e-07 0)
(0.000999764 -3.26451e-07 0)
(0.000999752 -3.4148e-07 0)
(0.00099967 -4.64255e-07 0)
(0.001 -1.66922e-10 0)
(0.000999998 -3.46599e-11 0)
(0.000999995 6.34994e-10 0)
(0.000999991 1.35003e-09 0)
(0.000999986 1.98226e-09 0)
(0.00099998 1.93731e-09 0)
(0.000999973 1.49323e-09 0)
(0.000999965 -3.32742e-10 0)
(0.000999955 -2.40886e-09 0)
(0.000999943 -7.09055e-09 0)
(0.00099993 -1.12246e-08 0)
(0.000999912 -2.04737e-08 0)
(0.000999894 -2.71712e-08 0)
(0.000999867 -4.4251e-08 0)
(0.000999845 -5.35246e-08 0)
(0.000999805 -8.49378e-08 0)
(0.000999779 -9.54715e-08 0)
(0.00099972 -1.54634e-07 0)
(0.000999699 -1.60957e-07 0)
(0.000999611 -2.75812e-07 0)
(0.001 -3.96057e-09 0)
(0.001 -1.30163e-08 0)
(0.001 -2.3056e-08 0)
(0.000999998 -3.36619e-08 0)
(0.000999995 -4.42314e-08 0)
(0.000999989 -5.49751e-08 0)
(0.000999983 -6.57827e-08 0)
(0.000999973 -7.7318e-08 0)
(0.000999963 -8.88618e-08 0)
(0.00099995 -1.02553e-07 0)
(0.000999935 -1.15289e-07 0)
(0.000999914 -1.32418e-07 0)
(0.000999896 -1.46511e-07 0)
(0.000999864 -1.70005e-07 0)
(0.000999841 -1.85127e-07 0)
(0.000999791 -2.21106e-07 0)
(0.000999767 -2.35699e-07 0)
(0.000999687 -2.97555e-07 0)
(0.000999671 -3.06234e-07 0)
(0.000999539 -4.22107e-07 0)
(0.001 4.01528e-09 0)
(0.000999996 1.21081e-08 0)
(0.000999991 2.01931e-08 0)
(0.000999987 2.79045e-08 0)
(0.000999982 3.52194e-08 0)
(0.000999976 4.16574e-08 0)
(0.000999969 4.79106e-08 0)
(0.000999959 5.30052e-08 0)
(0.000999948 5.84185e-08 0)
(0.000999934 6.22928e-08 0)
(0.000999919 6.69484e-08 0)
(0.000999897 6.85892e-08 0)
(0.000999878 7.27015e-08 0)
(0.000999845 6.99013e-08 0)
(0.000999819 7.40412e-08 0)
(0.000999767 6.1717e-08 0)
(0.000999738 6.71858e-08 0)
(0.000999654 3.18357e-08 0)
(0.000999629 3.99078e-08 0)
(0.000999495 -5.44626e-08 0)
(0.001 -8.71164e-09 0)
(0.001 -2.3756e-08 0)
(0.001 -3.60312e-08 0)
(0.000999997 -4.67614e-08 0)
(0.000999993 -5.6851e-08 0)
(0.000999986 -6.74473e-08 0)
(0.000999979 -7.7808e-08 0)
(0.000999968 -8.93194e-08 0)
(0.000999958 -9.99953e-08 0)
(0.000999942 -1.11967e-07 0)
(0.000999928 -1.22698e-07 0)
(0.000999903 -1.36192e-07 0)
(0.000999886 -1.46556e-07 0)
(0.000999846 -1.63376e-07 0)
(0.000999826 -1.72215e-07 0)
(0.00099976 -1.96352e-07 0)
(0.000999742 -2.00869e-07 0)
(0.000999623 -2.43115e-07 0)
(0.000999618 -2.39262e-07 0)
(0.000999394 -3.31984e-07 0)
)
;

boundaryField
{
    sides
    {
        type            slip;
    }
    inlet
    {
        type            fixedValue;
        value           uniform (0.001 0 0);
    }
    outlet
    {
        type            zeroGradient;
    }
    frontAndBack
    {
        type            empty;
    }
}


// ************************************************************************* //
