/*--------------------------------*- C++ -*----------------------------------*\
  =========                 |
  \\      /  F ield         | OpenFOAM: The Open Source CFD Toolbox
   \\    /   O peration     | Website:  https://openfoam.org
    \\  /    A nd           | Version:  7
     \\/     M anipulation  |
\*---------------------------------------------------------------------------*/
FoamFile
{
    version     2.0;
    format      ascii;
    class       surfaceScalarField;
    location    "94";
    object      phi;
}
// * * * * * * * * * * * * * * * * * * * * * * * * * * * * * * * * * * * * * //

dimensions      [0 4 -1 0 0 0 0];

internalField   nonuniform List<scalar> 
760
(
4.99999e-06
9.88181e-12
4.99999e-06
-4.23925e-12
5.00001e-06
-1.26957e-11
5.00003e-06
-1.95423e-11
5.00005e-06
-2.66961e-11
5.00009e-06
-3.50124e-11
5.00013e-06
-4.74122e-11
5.00018e-06
-6.37122e-11
5.00025e-06
-6.28813e-11
5.00032e-06
-7.81333e-11
5.00041e-06
-9.008e-11
5.00053e-06
-1.13956e-10
5.00066e-06
-1.26889e-10
5.00082e-06
-1.67853e-10
5.001e-06
-1.7811e-10
5.00126e-06
-2.56903e-10
5.00151e-06
-2.56191e-10
5.00195e-06
-4.31703e-10
5.00236e-06
-4.14098e-10
-8.91603e-10
5.00002e-06
-1.19352e-11
5.00004e-06
-1.88819e-11
5.00005e-06
-2.90512e-11
5.00008e-06
-4.15909e-11
5.0001e-06
-5.44288e-11
5.00014e-06
-6.90706e-11
5.00018e-06
-8.53477e-11
5.00023e-06
-1.03429e-10
5.00029e-06
-1.23766e-10
5.00037e-06
-1.53346e-10
5.00045e-06
-1.77083e-10
5.00056e-06
-2.22055e-10
5.00069e-06
-2.50298e-10
5.00084e-06
-3.24128e-10
5.00102e-06
-3.53931e-10
5.00125e-06
-4.8612e-10
5.0015e-06
-5.09232e-10
5.00184e-06
-7.67886e-10
5.00218e-06
-7.59923e-10
-1.26205e-09
4.99999e-06
-4.65042e-12
4.99999e-06
-2.03167e-11
5e-06
-3.7493e-11
5.00002e-06
-5.64476e-11
5.00004e-06
-7.63907e-11
5.00007e-06
-9.90279e-11
5.00011e-06
-1.22785e-10
5.00016e-06
-1.52495e-10
5.00021e-06
-1.82723e-10
5.00029e-06
-2.23896e-10
5.00037e-06
-2.62367e-10
5.00047e-06
-3.23323e-10
5.00059e-06
-3.71918e-10
5.00074e-06
-4.6744e-10
5.00091e-06
-5.25644e-10
5.00111e-06
-6.86661e-10
5.00135e-06
-7.47887e-10
5.00162e-06
-1.04117e-09
5.00194e-06
-1.08332e-09
-1.68968e-09
5.00001e-06
-1.256e-11
5.00002e-06
-3.32565e-11
5.00004e-06
-5.42618e-11
5.00006e-06
-7.74429e-11
5.00008e-06
-1.01688e-10
5.00011e-06
-1.30453e-10
5.00015e-06
-1.60012e-10
5.0002e-06
-1.97987e-10
5.00025e-06
-2.36378e-10
5.00032e-06
-2.88849e-10
5.00039e-06
-3.38447e-10
5.00049e-06
-4.15344e-10
5.00059e-06
-4.78284e-10
5.00072e-06
-5.96247e-10
5.00087e-06
-6.72566e-10
5.00105e-06
-8.64857e-10
5.00124e-06
-9.46834e-10
5.00148e-06
-1.28007e-09
5.00173e-06
-1.33168e-09
-1.89824e-09
5e-06
-1.15233e-11
5e-06
-3.6354e-11
5.00001e-06
-6.19596e-11
5.00002e-06
-9.00454e-11
5.00004e-06
-1.19786e-10
5.00006e-06
-1.54451e-10
5.0001e-06
-1.91244e-10
5.00013e-06
-2.3653e-10
5.00018e-06
-2.83607e-10
5.00024e-06
-3.45546e-10
5.00031e-06
-4.06859e-10
5.00039e-06
-4.95632e-10
5.00048e-06
-5.73989e-10
5.00059e-06
-7.06939e-10
5.00072e-06
-8.03152e-10
5.00087e-06
-1.01226e-09
5.00104e-06
-1.11642e-09
5.00122e-06
-1.46169e-09
5.00142e-06
-1.53314e-09
-2.16311e-09
5e-06
-1.38099e-11
5.00001e-06
-4.3038e-11
5.00002e-06
-7.27701e-11
5.00003e-06
-1.0484e-10
5.00005e-06
-1.38804e-10
5.00008e-06
-1.77832e-10
5.00011e-06
-2.19831e-10
5.00014e-06
-2.70978e-10
5.00018e-06
-3.24611e-10
5.00023e-06
-3.94734e-10
5.00029e-06
-4.64358e-10
5.00036e-06
-5.63752e-10
5.00043e-06
-6.5279e-10
5.00053e-06
-7.99591e-10
5.00063e-06
-9.08243e-10
5.00075e-06
-1.13408e-09
5.00089e-06
-1.25104e-09
5.00104e-06
-1.61598e-09
5.00121e-06
-1.69755e-09
-2.29381e-09
5e-06
-1.56725e-11
5.00001e-06
-4.74943e-11
5.00001e-06
-8.00353e-11
5.00002e-06
-1.14758e-10
5.00004e-06
-1.5203e-10
5.00005e-06
-1.94872e-10
5.00008e-06
-2.41279e-10
5.0001e-06
-2.97231e-10
5.00013e-06
-3.56655e-10
5.00017e-06
-4.32913e-10
5.00022e-06
-5.09744e-10
5.00027e-06
-6.17042e-10
5.00033e-06
-7.1542e-10
5.00041e-06
-8.71684e-10
5.00049e-06
-9.91377e-10
5.00058e-06
-1.22739e-09
5.00069e-06
-1.35545e-09
5.0008e-06
-1.72655e-09
5.00091e-06
-1.81233e-09
-2.44233e-09
5e-06
-1.67668e-11
5e-06
-5.05424e-11
5.00001e-06
-8.50222e-11
5.00002e-06
-1.22257e-10
5.00003e-06
-1.62084e-10
5.00004e-06
-2.0792e-10
5.00006e-06
-2.57494e-10
5.00008e-06
-3.17111e-10
5.0001e-06
-3.8055e-10
5.00013e-06
-4.61271e-10
5.00016e-06
-5.43174e-10
5.0002e-06
-6.56328e-10
5.00025e-06
-7.60809e-10
5.0003e-06
-9.24061e-10
5.00036e-06
-1.05062e-09
5.00042e-06
-1.29414e-09
5.0005e-06
-1.4285e-09
5.00058e-06
-1.80723e-09
5.00067e-06
-1.90054e-09
-2.51641e-09
5e-06
-1.73108e-11
5e-06
-5.24027e-11
5.00001e-06
-8.81636e-11
5.00001e-06
-1.27004e-10
5.00002e-06
-1.68435e-10
5.00002e-06
-2.15993e-10
5.00003e-06
-2.67368e-10
5.00005e-06
-3.29115e-10
5.00006e-06
-3.94899e-10
5.00008e-06
-4.78309e-10
5.0001e-06
-5.63314e-10
5.00012e-06
-6.79851e-10
5.00015e-06
-7.87992e-10
5.00018e-06
-9.55299e-10
5.00022e-06
-1.08608e-09
5.00026e-06
-1.33384e-09
5.0003e-06
-1.47224e-09
5.00035e-06
-1.85435e-09
5.00039e-06
-1.94795e-09
-2.57241e-09
5e-06
-1.74624e-11
5e-06
-5.29743e-11
5e-06
-8.92807e-11
5e-06
-1.28634e-10
5.00001e-06
-1.70641e-10
5.00001e-06
-2.18708e-10
5.00001e-06
-2.70693e-10
5.00002e-06
-3.33109e-10
5.00002e-06
-3.99675e-10
5.00003e-06
-4.84035e-10
5.00003e-06
-5.70048e-10
5.00004e-06
-6.87686e-10
5.00005e-06
-7.9711e-10
5.00006e-06
-9.65682e-10
5.00007e-06
-1.09786e-09
5.00009e-06
-1.34692e-09
5.0001e-06
-1.48672e-09
5.00012e-06
-1.8697e-09
5.00013e-06
-1.96523e-09
-2.58874e-09
5e-06
-1.72512e-11
5e-06
-5.2287e-11
5e-06
-8.82198e-11
5e-06
-1.27036e-10
4.99999e-06
-1.68563e-10
4.99999e-06
-2.16023e-10
4.99999e-06
-2.67426e-10
4.99998e-06
-3.29121e-10
4.99998e-06
-3.94868e-10
4.99997e-06
-4.78394e-10
4.99997e-06
-5.63321e-10
4.99996e-06
-6.79815e-10
4.99995e-06
-7.88018e-10
4.99994e-06
-9.55234e-10
4.99993e-06
-1.08589e-09
4.99991e-06
-1.33363e-09
4.9999e-06
-1.47215e-09
4.99988e-06
-1.85442e-09
4.99987e-06
-1.94814e-09
-2.5724e-09
5e-06
-1.66503e-11
5e-06
-5.05014e-11
4.99999e-06
-8.50568e-11
4.99999e-06
-1.22317e-10
4.99998e-06
-1.62188e-10
4.99998e-06
-2.07958e-10
4.99997e-06
-2.57506e-10
4.99995e-06
-3.17132e-10
4.99994e-06
-3.80467e-10
4.99992e-06
-4.61324e-10
4.9999e-06
-5.43265e-10
4.99988e-06
-6.56317e-10
4.99985e-06
-7.60783e-10
4.99982e-06
-9.23994e-10
4.99978e-06
-1.0505e-09
4.99974e-06
-1.2939e-09
4.9997e-06
-1.42834e-09
4.99965e-06
-1.80722e-09
4.99961e-06
-1.90071e-09
-2.51636e-09
5e-06
-1.56397e-11
5e-06
-4.75277e-11
4.99999e-06
-7.99844e-11
4.99998e-06
-1.14827e-10
4.99997e-06
-1.51935e-10
4.99996e-06
-1.949e-10
4.99994e-06
-2.41191e-10
4.99992e-06
-2.97273e-10
4.9999e-06
-3.56591e-10
4.99987e-06
-4.32787e-10
4.99984e-06
-5.09825e-10
4.9998e-06
-6.1714e-10
4.99975e-06
-7.15434e-10
4.9997e-06
-8.71669e-10
4.99964e-06
-9.91388e-10
4.99958e-06
-1.22725e-09
4.9995e-06
-1.3553e-09
4.99942e-06
-1.72639e-09
4.99933e-06
-1.81232e-09
-2.44206e-09
5e-06
-1.3908e-11
4.99999e-06
-4.30793e-11
4.99999e-06
-7.27236e-11
4.99998e-06
-1.04739e-10
4.99996e-06
-1.38601e-10
4.99995e-06
-1.77908e-10
4.99992e-06
-2.19815e-10
4.9999e-06
-2.71032e-10
4.99987e-06
-3.2477e-10
4.99983e-06
-3.94574e-10
4.99978e-06
-4.64234e-10
4.99973e-06
-5.63775e-10
4.99967e-06
-6.52849e-10
4.99959e-06
-7.99626e-10
4.99951e-06
-9.0832e-10
4.99942e-06
-1.13403e-09
4.99931e-06
-1.25093e-09
4.9992e-06
-1.61564e-09
4.99909e-06
-1.69724e-09
-2.29335e-09
5e-06
-1.16822e-11
4.99999e-06
-3.63728e-11
4.99998e-06
-6.18907e-11
4.99997e-06
-8.98424e-11
4.99995e-06
-1.19887e-10
4.99992e-06
-1.54435e-10
4.99989e-06
-1.91409e-10
4.99986e-06
-2.36402e-10
4.99982e-06
-2.83805e-10
4.99977e-06
-3.4564e-10
4.99971e-06
-4.06723e-10
4.99964e-06
-4.95517e-10
4.99957e-06
-5.74003e-10
4.99947e-06
-7.06953e-10
4.99937e-06
-8.03235e-10
4.99925e-06
-1.01227e-09
4.99911e-06
-1.11639e-09
4.99896e-06
-1.4613e-09
4.99879e-06
-1.53274e-09
-2.16254e-09
5e-06
-1.26557e-11
5e-06
-3.32214e-11
4.99999e-06
-5.4201e-11
4.99998e-06
-7.74187e-11
4.99996e-06
-1.01984e-10
4.99994e-06
-1.30187e-10
4.9999e-06
-1.60444e-10
4.99987e-06
-1.97881e-10
4.99982e-06
-2.36266e-10
4.99976e-06
-2.88979e-10
4.99969e-06
-3.38428e-10
4.99961e-06
-4.15178e-10
4.99952e-06
-4.78191e-10
4.99941e-06
-5.96144e-10
4.99928e-06
-6.72558e-10
4.99913e-06
-8.64803e-10
4.99896e-06
-9.46827e-10
4.99878e-06
-1.27971e-09
4.99858e-06
-1.3313e-09
-1.89763e-09
4.99999e-06
-4.59694e-12
4.99998e-06
-2.02797e-11
4.99996e-06
-3.75512e-11
4.99994e-06
-5.66799e-11
4.99992e-06
-7.64326e-11
4.99988e-06
-9.89947e-11
4.99985e-06
-1.23138e-10
4.9998e-06
-1.52378e-10
4.99975e-06
-1.82503e-10
4.99968e-06
-2.23942e-10
4.99961e-06
-2.62459e-10
4.99952e-06
-3.23283e-10
4.99941e-06
-3.7187e-10
4.99928e-06
-4.6734e-10
4.99913e-06
-5.25624e-10
4.99896e-06
-6.86587e-10
4.99876e-06
-7.47955e-10
4.99852e-06
-1.04101e-09
4.99827e-06
-1.08322e-09
-1.68928e-09
5.00001e-06
-1.1689e-11
5.00001e-06
-1.89443e-11
5e-06
-2.93209e-11
4.99998e-06
-4.18482e-11
4.99996e-06
-5.39876e-11
4.99993e-06
-6.92191e-11
4.99989e-06
-8.34643e-11
4.99984e-06
-1.04976e-10
4.99978e-06
-1.23609e-10
4.99971e-06
-1.53201e-10
4.99963e-06
-1.77156e-10
4.99953e-06
-2.22087e-10
4.99941e-06
-2.50289e-10
4.99926e-06
-3.23981e-10
4.99909e-06
-3.53838e-10
4.99889e-06
-4.8591e-10
4.99865e-06
-5.09252e-10
4.99838e-06
-7.67731e-10
4.99805e-06
-7.59915e-10
-1.26161e-09
4.99998e-06
1.01199e-11
4.99996e-06
-4.40372e-12
4.99995e-06
-1.29814e-11
4.99992e-06
-1.93677e-11
4.9999e-06
-2.63998e-11
4.99986e-06
-3.72267e-11
4.99982e-06
-3.39056e-11
4.99977e-06
-5.99332e-11
4.99971e-06
-6.30508e-11
4.99963e-06
-7.82528e-11
4.99955e-06
-9.02628e-11
4.99944e-06
-1.14096e-10
4.99932e-06
-1.26963e-10
4.99916e-06
-1.67828e-10
4.99898e-06
-1.78095e-10
4.99875e-06
-2.56852e-10
4.9985e-06
-2.56283e-10
4.99817e-06
-4.31793e-10
4.99782e-06
-4.14269e-10
-8.91652e-10
5.00001e-06
5.00001e-06
4.99999e-06
4.99997e-06
4.99995e-06
4.99991e-06
4.99987e-06
4.99982e-06
4.99975e-06
4.99968e-06
4.99959e-06
4.99947e-06
4.99934e-06
4.99918e-06
4.999e-06
4.99874e-06
4.99848e-06
4.99805e-06
4.99764e-06
)
;

boundaryField
{
    sides
    {
        type            calculated;
        value           uniform 0;
    }
    inlet
    {
        type            calculated;
        value           nonuniform List<scalar> 
20
(
-5e-06
-5e-06
-5e-06
-5e-06
-5e-06
-5e-06
-5e-06
-5e-06
-5e-06
-5e-06
-5e-06
-5e-06
-5e-06
-5e-06
-5e-06
-5e-06
-5e-06
-5e-06
-5e-06
-5e-06
)
;
    }
    outlet
    {
        type            calculated;
        value           nonuniform List<scalar> 
20
(
5.00325e-06
5.00255e-06
5.00237e-06
5.00194e-06
5.00169e-06
5.00134e-06
5.00106e-06
5.00074e-06
5.00045e-06
5.00015e-06
4.99985e-06
4.99955e-06
4.99926e-06
4.99894e-06
4.99866e-06
4.99831e-06
4.99806e-06
4.99763e-06
4.99745e-06
4.99675e-06
)
;
    }
    frontAndBack
    {
        type            empty;
        value           nonuniform 0();
    }
}


// ************************************************************************* //
