/*--------------------------------*- C++ -*----------------------------------*\
  =========                 |
  \\      /  F ield         | OpenFOAM: The Open Source CFD Toolbox
   \\    /   O peration     | Website:  https://openfoam.org
    \\  /    A nd           | Version:  7
     \\/     M anipulation  |
\*---------------------------------------------------------------------------*/
FoamFile
{
    version     2.0;
    format      ascii;
    class       volVectorField;
    location    "94";
    object      U;
}
// * * * * * * * * * * * * * * * * * * * * * * * * * * * * * * * * * * * * * //

dimensions      [0 1 -1 0 0 0 0];

internalField   nonuniform List<vector> 
400
(
(0.0999931 -8.74872e-07 0)
(0.099993 -2.37467e-06 0)
(0.0999931 -3.59696e-06 0)
(0.0999934 -4.6727e-06 0)
(0.0999939 -5.69303e-06 0)
(0.0999947 -6.73971e-06 0)
(0.0999955 -7.81166e-06 0)
(0.0999966 -8.92861e-06 0)
(0.0999978 -9.99008e-06 0)
(0.0999996 -1.11922e-05 0)
(0.100001 -1.2265e-05 0)
(0.100004 -1.36155e-05 0)
(0.100006 -1.46521e-05 0)
(0.10001 -1.63339e-05 0)
(0.100013 -1.72162e-05 0)
(0.10002 -1.96289e-05 0)
(0.100022 -2.00789e-05 0)
(0.100035 -2.43024e-05 0)
(0.100036 -2.39168e-05 0)
(0.10006 -3.31849e-05 0)
(0.0999943 3.94613e-07 0)
(0.0999947 1.21183e-06 0)
(0.0999952 2.0266e-06 0)
(0.0999958 2.79479e-06 0)
(0.0999963 3.51245e-06 0)
(0.099997 4.16722e-06 0)
(0.0999978 4.76427e-06 0)
(0.0999988 5.3011e-06 0)
(0.1 5.84289e-06 0)
(0.100002 6.22861e-06 0)
(0.100003 6.6959e-06 0)
(0.100006 6.85713e-06 0)
(0.100008 7.26666e-06 0)
(0.100012 6.98464e-06 0)
(0.100014 7.40027e-06 0)
(0.10002 6.16674e-06 0)
(0.100024 6.71714e-06 0)
(0.100033 3.17832e-06 0)
(0.100036 3.98744e-06 0)
(0.10005 -5.45791e-06 0)
(0.0999948 -3.9791e-07 0)
(0.0999947 -1.30163e-06 0)
(0.0999947 -2.30494e-06 0)
(0.0999949 -3.36351e-06 0)
(0.0999953 -4.41904e-06 0)
(0.0999959 -5.49916e-06 0)
(0.0999967 -6.56574e-06 0)
(0.0999977 -7.72979e-06 0)
(0.0999988 -8.8904e-06 0)
(0.1 -1.02546e-05 0)
(0.100002 -1.15262e-05 0)
(0.100004 -1.3241e-05 0)
(0.100006 -1.46505e-05 0)
(0.10001 -1.70017e-05 0)
(0.100013 -1.85118e-05 0)
(0.100018 -2.21114e-05 0)
(0.100021 -2.35662e-05 0)
(0.100029 -2.97567e-05 0)
(0.100032 -3.06216e-05 0)
(0.100046 -4.2218e-05 0)
(0.0999956 -1.40879e-08 0)
(0.0999958 -3.94255e-09 0)
(0.0999962 6.17219e-08 0)
(0.0999966 1.34572e-07 0)
(0.0999972 2.03757e-07 0)
(0.0999978 1.92963e-07 0)
(0.0999986 1.57052e-07 0)
(0.0999995 -3.3388e-08 0)
(0.100001 -2.40219e-07 0)
(0.100002 -7.06822e-07 0)
(0.100003 -1.12253e-06 0)
(0.100005 -2.04864e-06 0)
(0.100007 -2.71723e-06 0)
(0.10001 -4.42542e-06 0)
(0.100013 -5.35167e-06 0)
(0.100017 -8.49397e-06 0)
(0.10002 -9.54648e-06 0)
(0.100027 -1.54669e-05 0)
(0.100029 -1.60996e-05 0)
(0.100039 -2.75882e-05 0)
(0.0999962 -2.88701e-07 0)
(0.0999963 -9.22702e-07 0)
(0.0999964 -1.62978e-06 0)
(0.0999966 -2.43539e-06 0)
(0.0999969 -3.30147e-06 0)
(0.0999974 -4.27421e-06 0)
(0.099998 -5.28179e-06 0)
(0.0999988 -6.45352e-06 0)
(0.0999997 -7.64607e-06 0)
(0.100001 -9.12265e-06 0)
(0.100002 -1.05623e-05 0)
(0.100004 -1.25411e-05 0)
(0.100006 -1.42728e-05 0)
(0.100008 -1.70904e-05 0)
(0.100011 -1.9119e-05 0)
(0.100014 -2.34282e-05 0)
(0.100017 -2.55764e-05 0)
(0.100022 -3.26559e-05 0)
(0.100024 -3.4158e-05 0)
(0.100033 -4.64433e-05 0)
(0.0999969 -2.54611e-07 0)
(0.099997 -7.5228e-07 0)
(0.0999972 -1.22035e-06 0)
(0.0999975 -1.69446e-06 0)
(0.0999979 -2.17029e-06 0)
(0.0999984 -2.72438e-06 0)
(0.099999 -3.31813e-06 0)
(0.0999997 -4.08443e-06 0)
(0.1 -4.89208e-06 0)
(0.100002 -6.01633e-06 0)
(0.100003 -7.13139e-06 0)
(0.100004 -8.82535e-06 0)
(0.100006 -1.03176e-05 0)
(0.100008 -1.29421e-05 0)
(0.10001 -1.48291e-05 0)
(0.100013 -1.90232e-05 0)
(0.100015 -2.10987e-05 0)
(0.100019 -2.80523e-05 0)
(0.100021 -2.94606e-05 0)
(0.100027 -4.15033e-05 0)
(0.0999976 -2.89092e-07 0)
(0.0999977 -8.86801e-07 0)
(0.0999978 -1.51624e-06 0)
(0.099998 -2.21952e-06 0)
(0.0999983 -2.99212e-06 0)
(0.0999986 -3.8903e-06 0)
(0.0999991 -4.86951e-06 0)
(0.0999996 -6.04575e-06 0)
(0.1 -7.28905e-06 0)
(0.100001 -8.86904e-06 0)
(0.100002 -1.04523e-05 0)
(0.100003 -1.26387e-05 0)
(0.100004 -1.46317e-05 0)
(0.100006 -1.77818e-05 0)
(0.100007 -2.01793e-05 0)
(0.10001 -2.49165e-05 0)
(0.100011 -2.747e-05 0)
(0.100015 -3.49547e-05 0)
(0.100016 -3.67271e-05 0)
(0.100021 -4.92223e-05 0)
(0.0999983 -3.20017e-07 0)
(0.0999984 -9.75212e-07 0)
(0.0999985 -1.65431e-06 0)
(0.0999986 -2.3912e-06 0)
(0.0999988 -3.1757e-06 0)
(0.099999 -4.06454e-06 0)
(0.0999994 -5.01431e-06 0)
(0.0999998 -6.14936e-06 0)
(0.1 -7.34941e-06 0)
(0.100001 -8.88479e-06 0)
(0.100002 -1.04348e-05 0)
(0.100002 -1.25991e-05 0)
(0.100003 -1.45888e-05 0)
(0.100004 -1.77419e-05 0)
(0.100005 -2.01693e-05 0)
(0.100007 -2.49222e-05 0)
(0.100008 -2.75229e-05 0)
(0.100011 -3.49798e-05 0)
(0.100012 -3.67651e-05 0)
(0.100015 -4.90856e-05 0)
(0.099999 -3.37429e-07 0)
(0.099999 -1.02517e-06 0)
(0.0999991 -1.73214e-06 0)
(0.0999992 -2.49742e-06 0)
(0.0999993 -3.3111e-06 0)
(0.0999994 -4.24197e-06 0)
(0.0999996 -5.24673e-06 0)
(0.0999999 -6.45753e-06 0)
(0.1 -7.75033e-06 0)
(0.100001 -9.39746e-06 0)
(0.100001 -1.10767e-05 0)
(0.100001 -1.33898e-05 0)
(0.100002 -1.5535e-05 0)
(0.100003 -1.8867e-05 0)
(0.100003 -2.14666e-05 0)
(0.100004 -2.64172e-05 0)
(0.100005 -2.9175e-05 0)
(0.100006 -3.68313e-05 0)
(0.100007 -3.87196e-05 0)
(0.100009 -5.12501e-05 0)
(0.0999997 -3.44577e-07 0)
(0.0999997 -1.04849e-06 0)
(0.0999997 -1.77124e-06 0)
(0.0999997 -2.55462e-06 0)
(0.0999998 -3.3903e-06 0)
(0.0999998 -4.34868e-06 0)
(0.0999999 -5.38641e-06 0)
(0.1 -6.63433e-06 0)
(0.1 -7.96607e-06 0)
(0.1 -9.65261e-06 0)
(0.1 -1.13724e-05 0)
(0.1 -1.3723e-05 0)
(0.100001 -1.59085e-05 0)
(0.100001 -1.92764e-05 0)
(0.100001 -2.1918e-05 0)
(0.100001 -2.68966e-05 0)
(0.100002 -2.96948e-05 0)
(0.100002 -3.73584e-05 0)
(0.100002 -3.92774e-05 0)
(0.100003 -5.17495e-05 0)
(0.1 -3.44002e-07 0)
(0.1 -1.04738e-06 0)
(0.1 -1.7718e-06 0)
(0.1 -2.55496e-06 0)
(0.1 -3.39158e-06 0)
(0.1 -4.34897e-06 0)
(0.1 -5.38701e-06 0)
(0.1 -6.63442e-06 0)
(0.0999999 -7.9658e-06 0)
(0.0999998 -9.65354e-06 0)
(0.0999997 -1.13724e-05 0)
(0.0999995 -1.37227e-05 0)
(0.0999993 -1.59088e-05 0)
(0.0999991 -1.92758e-05 0)
(0.0999989 -2.19161e-05 0)
(0.0999986 -2.68946e-05 0)
(0.0999983 -2.96941e-05 0)
(0.0999979 -3.73594e-05 0)
(0.0999977 -3.92795e-05 0)
(0.0999971 -5.17503e-05 0)
(0.100001 -3.3572e-07 0)
(0.100001 -1.02364e-06 0)
(0.100001 -1.73306e-06 0)
(0.100001 -2.49837e-06 0)
(0.100001 -3.31345e-06 0)
(0.100001 -4.24271e-06 0)
(0.1 -5.24755e-06 0)
(0.1 -6.45794e-06 0)
(0.0999998 -7.74933e-06 0)
(0.0999995 -9.39904e-06 0)
(0.0999991 -1.10777e-05 0)
(0.0999985 -1.33893e-05 0)
(0.099998 -1.5535e-05 0)
(0.0999973 -1.88654e-05 0)
(0.0999967 -2.14632e-05 0)
(0.0999957 -2.64121e-05 0)
(0.099995 -2.91719e-05 0)
(0.0999936 -3.68308e-05 0)
(0.0999932 -3.87221e-05 0)
(0.0999912 -5.12473e-05 0)
(0.100002 -3.18541e-07 0)
(0.100002 -9.75096e-07 0)
(0.100002 -1.65417e-06 0)
(0.100001 -2.39249e-06 0)
(0.100001 -3.17592e-06 0)
(0.100001 -4.06543e-06 0)
(0.100001 -5.01384e-06 0)
(0.1 -6.15039e-06 0)
(0.0999997 -7.34839e-06 0)
(0.0999991 -8.88475e-06 0)
(0.0999985 -1.04373e-05 0)
(0.0999976 -1.2601e-05 0)
(0.0999968 -1.45897e-05 0)
(0.0999956 -1.77425e-05 0)
(0.0999945 -2.01697e-05 0)
(0.0999929 -2.49205e-05 0)
(0.0999917 -2.7522e-05 0)
(0.0999894 -3.49813e-05 0)
(0.0999885 -3.67698e-05 0)
(0.0999853 -4.9087e-05 0)
(0.100002 -2.89732e-07 0)
(0.100002 -8.87524e-07 0)
(0.100002 -1.51528e-06 0)
(0.100002 -2.2193e-06 0)
(0.100002 -2.98927e-06 0)
(0.100001 -3.89113e-06 0)
(0.100001 -4.86818e-06 0)
(0.1 -6.04638e-06 0)
(0.0999998 -7.28953e-06 0)
(0.099999 -8.86563e-06 0)
(0.0999981 -1.04515e-05 0)
(0.0999969 -1.26393e-05 0)
(0.0999957 -1.46317e-05 0)
(0.0999941 -1.77807e-05 0)
(0.0999926 -2.01788e-05 0)
(0.0999903 -2.49123e-05 0)
(0.0999887 -2.74651e-05 0)
(0.0999853 -3.4946e-05 0)
(0.0999843 -3.672e-05 0)
(0.0999793 -4.92087e-05 0)
(0.100003 -2.57081e-07 0)
(0.100003 -7.53057e-07 0)
(0.100003 -1.21962e-06 0)
(0.100002 -1.69211e-06 0)
(0.100002 -2.16919e-06 0)
(0.100002 -2.72541e-06 0)
(0.100001 -3.31997e-06 0)
(0.1 -4.08458e-06 0)
(0.0999995 -4.89642e-06 0)
(0.0999985 -6.01655e-06 0)
(0.0999973 -7.13002e-06 0)
(0.0999959 -8.8262e-06 0)
(0.0999944 -1.03202e-05 0)
(0.0999923 -1.2945e-05 0)
(0.0999904 -1.4833e-05 0)
(0.0999874 -1.90259e-05 0)
(0.0999853 -2.11004e-05 0)
(0.0999811 -2.80499e-05 0)
(0.0999793 -2.94577e-05 0)
(0.0999733 -4.15001e-05 0)
(0.100004 -2.90885e-07 0)
(0.100004 -9.22403e-07 0)
(0.100004 -1.62887e-06 0)
(0.100003 -2.43301e-06 0)
(0.100003 -3.30427e-06 0)
(0.100003 -4.27165e-06 0)
(0.100002 -5.28644e-06 0)
(0.100001 -6.45074e-06 0)
(0.1 -7.64718e-06 0)
(0.0999991 -9.12467e-06 0)
(0.0999978 -1.05603e-05 0)
(0.099996 -1.25378e-05 0)
(0.0999942 -1.42717e-05 0)
(0.0999916 -1.70889e-05 0)
(0.0999895 -1.91192e-05 0)
(0.0999856 -2.34262e-05 0)
(0.0999833 -2.55749e-05 0)
(0.0999776 -3.26455e-05 0)
(0.099976 -3.41477e-05 0)
(0.0999673 -4.64254e-05 0)
(0.100004 -1.55697e-08 0)
(0.100004 -2.62907e-09 0)
(0.100004 6.27039e-08 0)
(0.100003 1.32951e-07 0)
(0.100003 1.97828e-07 0)
(0.100002 1.96776e-07 0)
(0.100001 1.49134e-07 0)
(0.100001 -3.34829e-08 0)
(0.0999994 -2.38675e-07 0)
(0.0999981 -7.09482e-07 0)
(0.0999966 -1.12327e-06 0)
(0.0999946 -2.04704e-06 0)
(0.0999926 -2.71657e-06 0)
(0.0999897 -4.42471e-06 0)
(0.0999871 -5.35225e-06 0)
(0.0999828 -8.49406e-06 0)
(0.0999798 -9.54756e-06 0)
(0.0999734 -1.54636e-05 0)
(0.0999707 -1.60955e-05 0)
(0.0999614 -2.75812e-05 0)
(0.100005 -3.96049e-07 0)
(0.100005 -1.30171e-06 0)
(0.100005 -2.30544e-06 0)
(0.100005 -3.36762e-06 0)
(0.100005 -4.42121e-06 0)
(0.100004 -5.49694e-06 0)
(0.100003 -6.57341e-06 0)
(0.100002 -7.736e-06 0)
(0.100001 -8.88495e-06 0)
(0.0999996 -1.02543e-05 0)
(0.099998 -1.15298e-05 0)
(0.0999957 -1.32432e-05 0)
(0.0999936 -1.46522e-05 0)
(0.0999901 -1.70012e-05 0)
(0.0999875 -1.85129e-05 0)
(0.0999821 -2.21106e-05 0)
(0.0999791 -2.35701e-05 0)
(0.0999706 -2.9756e-05 0)
(0.0999684 -3.06238e-05 0)
(0.0999544 -4.2211e-05 0)
(0.100006 4.00896e-07 0)
(0.100005 1.20937e-06 0)
(0.100005 2.02009e-06 0)
(0.100004 2.79396e-06 0)
(0.100004 3.5242e-06 0)
(0.100003 4.15726e-06 0)
(0.100002 4.79314e-06 0)
(0.100001 5.30196e-06 0)
(0.1 5.83898e-06 0)
(0.0999984 6.23021e-06 0)
(0.0999967 6.69386e-06 0)
(0.0999943 6.85713e-06 0)
(0.0999921 7.26916e-06 0)
(0.0999885 6.99024e-06 0)
(0.0999855 7.40509e-06 0)
(0.0999799 6.17287e-06 0)
(0.0999764 6.71931e-06 0)
(0.0999674 3.18351e-06 0)
(0.0999642 3.9905e-06 0)
(0.09995 -5.4464e-06 0)
(0.100007 -8.71298e-07 0)
(0.100007 -2.37665e-06 0)
(0.100007 -3.60331e-06 0)
(0.100007 -4.67307e-06 0)
(0.100006 -5.68482e-06 0)
(0.100005 -6.75339e-06 0)
(0.100005 -7.78361e-06 0)
(0.100003 -8.92769e-06 0)
(0.100002 -1.00041e-05 0)
(0.1 -1.11981e-05 0)
(0.0999988 -1.22718e-05 0)
(0.0999961 -1.36213e-05 0)
(0.0999941 -1.46571e-05 0)
(0.0999898 -1.63385e-05 0)
(0.0999874 -1.72219e-05 0)
(0.0999803 -1.96355e-05 0)
(0.0999779 -2.00873e-05 0)
(0.0999653 -2.43122e-05 0)
(0.0999638 -2.39268e-05 0)
(0.0999402 -3.31987e-05 0)
)
;

boundaryField
{
    sides
    {
        type            calculated;
        value           nonuniform List<vector> 
40
(
(0.100007 0 0)
(0.100007 0 0)
(0.100007 0 0)
(0.100007 0 0)
(0.100006 0 0)
(0.100005 0 0)
(0.100005 0 0)
(0.100003 0 0)
(0.100002 0 0)
(0.1 0 0)
(0.0999988 0 0)
(0.0999961 0 0)
(0.0999941 0 0)
(0.0999898 0 0)
(0.0999874 0 0)
(0.0999803 0 0)
(0.0999779 0 0)
(0.0999653 0 0)
(0.0999638 0 0)
(0.0999402 0 0)
(0.0999931 0 0)
(0.099993 0 0)
(0.0999931 0 0)
(0.0999934 0 0)
(0.0999939 0 0)
(0.0999947 0 0)
(0.0999955 0 0)
(0.0999966 0 0)
(0.0999978 0 0)
(0.0999996 0 0)
(0.100001 0 0)
(0.100004 0 0)
(0.100006 0 0)
(0.10001 0 0)
(0.100013 0 0)
(0.10002 0 0)
(0.100022 0 0)
(0.100035 0 0)
(0.100036 0 0)
(0.10006 0 0)
)
;
    }
    inlet
    {
        type            calculated;
        value           nonuniform List<vector> 
20
(
(0.0999931 0 0)
(0.0999943 0 0)
(0.0999948 0 0)
(0.0999956 0 0)
(0.0999962 0 0)
(0.0999969 0 0)
(0.0999976 0 0)
(0.0999983 0 0)
(0.099999 0 0)
(0.0999997 0 0)
(0.1 0 0)
(0.100001 0 0)
(0.100002 0 0)
(0.100002 0 0)
(0.100003 0 0)
(0.100004 0 0)
(0.100004 0 0)
(0.100005 0 0)
(0.100006 0 0)
(0.100007 0 0)
)
;
    }
    outlet
    {
        type            calculated;
        value           nonuniform List<vector> 
20
(
(0.100061 -3.31851e-05 0)
(0.10005 -5.45794e-06 0)
(0.100046 -4.22182e-05 0)
(0.100039 -2.75883e-05 0)
(0.100033 -4.64434e-05 0)
(0.100027 -4.15034e-05 0)
(0.100021 -4.92223e-05 0)
(0.100015 -4.90856e-05 0)
(0.100009 -5.12501e-05 0)
(0.100003 -5.17495e-05 0)
(0.099997 -5.17503e-05 0)
(0.0999911 -5.12473e-05 0)
(0.0999852 -4.9087e-05 0)
(0.0999792 -4.92086e-05 0)
(0.0999731 -4.15e-05 0)
(0.099967 -4.64252e-05 0)
(0.0999611 -2.75811e-05 0)
(0.0999539 -4.22108e-05 0)
(0.0999495 -5.44638e-06 0)
(0.0999394 -3.31984e-05 0)
)
;
    }
    frontAndBack
    {
        type            empty;
    }
}


// ************************************************************************* //
