/*--------------------------------*- C++ -*----------------------------------*\
  =========                 |
  \\      /  F ield         | OpenFOAM: The Open Source CFD Toolbox
   \\    /   O peration     | Website:  https://openfoam.org
    \\  /    A nd           | Version:  7
     \\/     M anipulation  |
\*---------------------------------------------------------------------------*/
FoamFile
{
    version     2.0;
    format      ascii;
    class       volScalarField;
    location    "400";
    object      epsilon;
}
// * * * * * * * * * * * * * * * * * * * * * * * * * * * * * * * * * * * * * //

dimensions      [0 2 -3 0 0 0 0];

internalField   nonuniform List<scalar> 
96800
(
0.000128295
0.000128314
0.000128221
0.000128098
0.000127928
0.000127731
0.00012754
0.000127373
0.000127241
0.000127149
0.000127105
0.000127114
0.000127183
0.000127296
0.000127457
0.000127663
0.000127916
0.000128201
0.000128504
0.000128814
0.000129155
0.000129668
0.000128449
0.000128696
0.000128637
0.000128521
0.000128347
0.000128146
0.000127949
0.000127776
0.000127641
0.000127551
0.000127508
0.000127514
0.000127574
0.000127687
0.000127847
0.000128056
0.00012831
0.000128592
0.000128887
0.000129173
0.000129445
0.000129671
0.00012856
0.000128859
0.000128833
0.000128717
0.000128535
0.000128323
0.000128112
0.000127927
0.000127783
0.000127687
0.000127641
0.000127644
0.000127701
0.00012781
0.000127971
0.00012818
0.00012843
0.000128704
0.000128979
0.000129222
0.000129398
0.000129446
0.00012871
0.000129021
0.000129002
0.000128878
0.000128678
0.000128444
0.000128212
0.00012801
0.000127853
0.00012775
0.0001277
0.000127701
0.000127754
0.000127861
0.000128021
0.000128229
0.000128475
0.000128741
0.000128997
0.000129204
0.000129322
0.000129303
0.000128859
0.000129169
0.000129142
0.000128998
0.000128773
0.000128511
0.000128255
0.000128032
0.00012786
0.000127747
0.000127692
0.000127692
0.000127745
0.000127852
0.000128009
0.000128215
0.000128458
0.000128718
0.000128962
0.00012915
0.00012924
0.000129194
0.000129001
0.000129305
0.00012926
0.000129092
0.000128837
0.000128545
0.000128261
0.000128016
0.00012783
0.000127707
0.000127648
0.000127647
0.000127701
0.000127808
0.000127965
0.000128169
0.000128411
0.000128668
0.000128907
0.000129089
0.000129172
0.000129118
0.000129139
0.000129436
0.000129371
0.000129176
0.000128889
0.000128566
0.000128254
0.000127988
0.000127788
0.000127658
0.000127597
0.000127596
0.00012765
0.000127756
0.000127913
0.000128118
0.00012836
0.000128619
0.000128863
0.000129048
0.000129131
0.000129079
0.000129284
0.000129574
0.000129489
0.000129266
0.000128948
0.000128595
0.000128257
0.000127972
0.000127758
0.000127622
0.000127559
0.000127556
0.000127608
0.000127714
0.000127873
0.00012808
0.000128327
0.000128594
0.000128847
0.000129041
0.000129132
0.000129083
0.000129448
0.000129731
0.000129626
0.000129377
0.00012903
0.000128649
0.000128288
0.000127983
0.000127757
0.000127615
0.000127547
0.000127539
0.00012759
0.000127696
0.000127857
0.000128069
0.000128322
0.0001286
0.000128868
0.000129076
0.00012918
0.00012914
0.000129645
0.000129922
0.0001298
0.000129526
0.000129151
0.000128742
0.000128356
0.000128032
0.000127793
0.000127641
0.000127566
0.000127554
0.000127603
0.000127709
0.00012787
0.000128089
0.000128355
0.000128649
0.000128935
0.000129163
0.000129284
0.000129256
0.00012989
0.00013016
0.000130022
0.000129724
0.000129322
0.000128885
0.000128475
0.000128131
0.000127874
0.000127708
0.000127622
0.000127605
0.000127649
0.000127753
0.000127919
0.000128146
0.000128428
0.000128743
0.000129052
0.000129304
0.000129446
0.00012943
0.000130195
0.000130458
0.000130302
0.000129981
0.000129553
0.000129088
0.00012865
0.000128282
0.000128005
0.00012782
0.000127722
0.000127696
0.000127733
0.000127837
0.000128007
0.000128247
0.000128548
0.000128888
0.000129227
0.000129506
0.000129669
0.000129667
0.000130576
0.000130832
0.000130657
0.000130312
0.000129854
0.000129357
0.000128888
0.000128491
0.000128189
0.000127984
0.000127871
0.000127833
0.000127863
0.000127965
0.000128144
0.000128397
0.000128722
0.000129092
0.000129462
0.000129772
0.000129962
0.000129978
0.000131054
0.000131301
0.000131106
0.000130732
0.00013024
0.000129707
0.000129201
0.00012877
0.000128439
0.000128213
0.000128079
0.000128028
0.00012805
0.000128152
0.000128337
0.000128608
0.000128959
0.000129361
0.000129768
0.000130114
0.000130334
0.000130368
0.000131655
0.000131893
0.000131672
0.000131264
0.000130733
0.000130158
0.000129611
0.000129142
0.000128778
0.000128522
0.000128366
0.000128298
0.000128312
0.000128411
0.000128605
0.000128895
0.000129273
0.00012971
0.000130156
0.00013054
0.000130792
0.000130847
0.000132418
0.000132644
0.000132393
0.000131946
0.000131368
0.000130745
0.000130151
0.000129638
0.000129232
0.00012894
0.000128756
0.000128671
0.000128672
0.000128768
0.00012897
0.000129278
0.000129682
0.000130153
0.000130638
0.000131064
0.000131349
0.000131424
0.000133399
0.000133611
0.000133325
0.000132829
0.000132195
0.000131514
0.000130863
0.000130295
0.00012984
0.000129505
0.000129286
0.000129177
0.000129164
0.000129254
0.000129458
0.00012978
0.000130208
0.000130711
0.000131234
0.000131698
0.000132016
0.000132113
0.000134679
0.000134875
0.000134544
0.000133988
0.000133285
0.00013253
0.000131808
0.000131172
0.000130656
0.000130268
0.000130008
0.000129867
0.000129833
0.000129909
0.000130108
0.000130435
0.000130881
0.000131411
0.000131968
0.000132466
0.000132813
0.000132931
0.000136369
0.000136541
0.000136152
0.00013552
0.000134728
0.000133878
0.000133062
0.00013234
0.000131748
0.000131296
0.000130981
0.000130797
0.000130732
0.000130781
0.000130964
0.000131287
0.00013174
0.000132289
0.000132872
0.000133398
0.000133771
0.000133909
0.000138625
0.000138766
0.000138297
0.000137562
0.00013665
0.000135673
0.000134731
0.000133895
0.000133204
0.000132668
0.000132281
0.000132036
0.000131924
0.000131934
0.000132089
0.000132394
0.000132841
0.000133396
0.000133995
0.000134542
0.000134936
0.000135093
0.000141685
0.000141779
0.000141198
0.000140316
0.000139233
0.000138075
0.000136959
0.000135966
0.000135136
0.000134483
0.000133999
0.000133671
0.00013349
0.00013345
0.000133558
0.000133829
0.000134256
0.000134802
0.000135404
0.000135964
0.000136377
0.000136553
0.000145934
0.000145958
0.000145207
0.000144106
0.000142768
0.000141344
0.000139971
0.000138743
0.000137711
0.000136888
0.000136263
0.000135818
0.00013554
0.000135427
0.00013547
0.000135689
0.000136076
0.0001366
0.000137192
0.000137756
0.000138184
0.000138383
0.000152039
0.000151949
0.000150929
0.000149484
0.000147749
0.000145912
0.000144138
0.000142546
0.0001412
0.000140115
0.000139273
0.000138651
0.000138229
0.000138
0.000137956
0.000138096
0.000138423
0.000138907
0.000139478
0.000140038
0.000140479
0.000140701
0.000161181
0.000160896
0.000159432
0.000157424
0.000155048
0.000152545
0.000150125
0.000147943
0.000146084
0.000144564
0.000143363
0.000142451
0.000141796
0.00014138
0.000141195
0.000141218
0.000141455
0.000141876
0.000142413
0.000142963
0.000143412
0.00014366
0.000175441
0.000174814
0.000172595
0.000169648
0.000166214
0.00016261
0.000159126
0.000155965
0.00015324
0.000150977
0.000149152
0.000147724
0.000146655
0.000145909
0.000145463
0.000145302
0.000145394
0.000145714
0.000146193
0.000146724
0.000147182
0.000147459
0.000198413
0.00019718
0.000193646
0.000189112
0.000183904
0.000178473
0.000173223
0.000168432
0.000164247
0.000160705
0.000157776
0.000155414
0.000153573
0.000152202
0.000151265
0.000150735
0.000150569
0.000150706
0.000151082
0.000151572
0.000152033
0.000152344
0.000236182
0.000233871
0.000228031
0.000220769
0.000212571
0.000204097
0.000195932
0.000188454
0.000181855
0.000176166
0.000171332
0.000167299
0.000164014
0.000161432
0.000159516
0.000158231
0.000157518
0.000157298
0.000157454
0.000157845
0.000158292
0.000158643
0.000298743
0.000294512
0.000284604
0.000272634
0.000259382
0.000245843
0.000232888
0.00022106
0.000210585
0.000201432
0.000193472
0.000186587
0.000180713
0.000175837
0.000171976
0.000169125
0.00016724
0.000166217
0.00016589
0.00016603
0.0001664
0.000166784
0.000402423
0.000394779
0.000377705
0.000357643
0.000335876
0.000313918
0.000293106
0.000274243
0.000257607
0.000243052
0.000230233
0.000218816
0.000208613
0.000199645
0.000192064
0.000186043
0.000181666
0.000178853
0.000177379
0.000176896
0.000177002
0.000177359
0.000574114
0.000560449
0.00053087
0.000496988
0.000460966
0.000425078
0.00039135
0.000360991
0.000334401
0.000311337
0.000291135
0.000272966
0.00025616
0.00024051
0.000226309
0.000214166
0.000204629
0.000197896
0.00019377
0.000191731
0.0001911
0.000191235
0.000859996
0.000835771
0.000784516
0.000727029
0.000667051
0.000608047
0.000553033
0.000503739
0.000460722
0.000423673
0.000391667
0.000363314
0.000336993
0.000311474
0.000286627
0.000263539
0.000243837
0.000228775
0.000218668
0.000212911
0.000210337
0.000209735
0.00134257
0.00129981
0.00121099
0.00111283
0.00101204
0.000914069
0.000823464
0.000742684
0.00067231
0.000611687
0.000559547
0.000514155
0.0004731
0.000433488
0.000393263
0.000352633
0.000314439
0.000282515
0.000259339
0.000244974
0.000237632
0.000234999
0.00217297
0.00209767
0.00194364
0.0017749
0.00160362
0.00143863
0.00128698
0.0011523
0.00103518
0.000934172
0.000846918
0.000770933
0.000703485
0.000640836
0.00057835
0.000512444
0.000444311
0.000380927
0.000330521
0.000296914
0.000278367
0.000270658
0.00362968
0.00349779
0.00323121
0.00294036
0.00264708
0.00236565
0.002107
0.00187669
0.00167577
0.001502
0.00135141
0.00121952
0.00110212
0.000995648
0.000894383
0.00079074
0.000678998
0.000563752
0.000461207
0.000386641
0.000342805
0.000323193
0.00622238
0.0059954
0.00553778
0.00503944
0.00453776
0.00405488
0.00360725
0.0032035
0.00284604
0.00253301
0.00225987
0.00202046
0.00180787
0.00161543
0.0014371
0.00126472
0.00108612
0.000894045
0.000703592
0.000548832
0.000450684
0.000404445
0.010881
0.0104918
0.00972064
0.00888172
0.00803369
0.00720834
0.00642921
0.00570934
0.00505457
0.00446643
0.00394375
0.00348269
0.00307623
0.00271434
0.00238519
0.00207604
0.00177438
0.00146328
0.00113966
0.000845594
0.000639281
0.000536322
0.0192351
0.0185819
0.017324
0.0159542
0.0145545
0.0131646
0.0118146
0.0105237
0.0093062
0.00817457
0.00714065
0.00621364
0.00539646
0.00468192
0.00405118
0.00347904
0.00294138
0.00241714
0.00188743
0.00137544
0.000974801
0.000758616
0.0340697
0.0330291
0.0310685
0.0289266
0.0266967
0.0244118
0.0221019
0.0197961
0.0175284
0.0153407
0.0132799
0.0113919
0.00971213
0.00825498
0.00700509
0.00591905
0.00493906
0.00401903
0.00313371
0.00228415
0.00156582
0.00114116
0.0600294
0.0584567
0.0555785
0.0524209
0.0490321
0.0453916
0.041513
0.03744
0.0332535
0.0290654
0.025006
0.0212069
0.0177807
0.0148008
0.0122816
0.010172
0.00836118
0.00672678
0.00520463
0.00379575
0.0025775
0.00179797
0.104644
0.102418
0.0985268
0.0942344
0.0893865
0.0837966
0.0774186
0.0703287
0.062714
0.0548415
0.0470214
0.0395675
0.0327555
0.0267849
0.0217475
0.0176125
0.0142144
0.011298
0.00866258
0.00628549
0.00426137
0.00290536
0.179775
0.1769
0.17227
0.167118
0.16072
0.152479
0.142208
0.13006
0.116457
0.101988
0.0873248
0.0731437
0.0600387
0.0484552
0.0386399
0.0306287
0.0242158
0.0189716
0.0144236
0.0103882
0.00701665
0.00473093
0.303769
0.300561
0.29631
0.291475
0.28399
0.272364
0.256126
0.235624
0.211771
0.185794
0.159058
0.132915
0.10855
0.0868584
0.0683666
0.0532416
0.0412596
0.0317908
0.0239485
0.0171386
0.0114946
0.00769604
0.504551
0.501986
0.500926
0.499371
0.49243
0.476798
0.451508
0.417361
0.376263
0.330663
0.283198
0.236426
0.192579
0.153331
0.11968
0.0920127
0.0701055
0.0531023
0.039574
0.0281807
0.0187643
0.0124811
0.82435
0.824673
0.832829
0.840849
0.838228
0.818371
0.779361
0.723071
0.653355
0.574932
0.492698
0.411287
0.334684
0.265845
0.206526
0.157459
0.118435
0.088326
0.0650294
0.046077
0.0305192
0.02016
1.32703
1.33479
1.36398
1.39389
1.4029
1.37946
1.3195
1.22744
1.11083
0.978462
0.839114
0.700836
0.570418
0.452845
0.351055
0.26633
0.198516
0.146137
0.10625
0.0748301
0.0494018
0.0324113
2.10996
2.13378
2.20567
2.27981
2.31432
2.28858
2.19647
2.04708
1.85475
1.63528
1.40381
1.1738
0.956409
0.759755
0.588668
0.445379
0.32991
0.240345
0.172646
0.120698
0.0795047
0.0519552
3.32353
3.37878
3.5313
3.6882
3.77203
3.74665
3.60558
3.36573
3.0533
2.69554
2.3176
1.94132
1.58455
1.26039
0.976845
0.737921
0.544165
0.39312
0.279239
0.193552
0.127204
0.0830301
5.1991
5.3119
5.60863
5.91215
6.08499
6.06576
5.85197
5.4726
4.97366
4.40002
3.79201
3.18422
2.60503
2.07568
1.60982
1.21492
0.892833
0.640519
0.450282
0.309144
0.202499
0.132254
8.09372
8.307
8.85108
9.40445
9.73165
9.73181
9.41358
8.82492
8.04271
7.13746
6.17171
5.19949
4.26611
3.40669
2.64504
1.99533
1.4624
1.04289
0.726108
0.493354
0.32152
0.21016
12.5451
12.9268
13.8797
14.8443
15.4313
15.4785
15.0186
14.1271
12.9259
11.5208
10.0061
8.46532
6.9715
5.58339
4.34295
3.27705
2.39713
1.70077
1.17355
0.788595
0.51024
0.333446
19.3505
20.0047
21.6099
23.2287
24.2422
24.3947
23.7623
22.4531
20.65
18.5058
16.1595
13.7413
11.3689
9.14058
7.12958
5.38603
3.93542
2.78018
1.90242
1.26393
0.810379
0.528592
29.6475
30.7286
33.3414
35.9737
37.6814
38.0727
37.2685
35.4171
32.7732
29.5515
25.9591
22.1999
18.4648
14.9161
11.6784
8.84186
6.45981
4.54839
3.08925
2.02956
1.28769
0.836932
45.0121
46.7449
50.8798
55.0647
57.9081
58.8176
57.921
55.409
51.6098
46.8285
41.3806
35.5898
29.7644
24.1691
19.0103
14.4428
10.5671
7.42833
5.01585
3.26151
2.04626
1.32298
67.5766
70.2865
76.6905
83.2462
87.9433
89.8755
89.083
85.794
80.407
73.3738
65.1856
56.3547
47.3736
38.6692
30.5754
23.3439
17.1446
12.0684
8.12654
5.24226
3.25355
2.08934
100.184
104.34
114.091
124.226
131.862
135.594
135.196
130.975
123.37
113.095
100.918
87.6358
74.0145
60.7233
48.2876
37.1
27.4233
19.4064
13.0945
8.41789
5.18066
3.30239
146.532
152.808
167.423
182.827
194.879
201.401
201.724
196.238
185.468
170.556
152.701
133.109
112.92
93.1247
74.5103
57.6681
42.9897
30.6943
20.8651
13.4527
8.25293
5.23041
211.242
220.583
242.128
264.991
283.248
293.611
294.808
287.338
271.97
250.515
224.805
196.612
167.54
138.96
111.956
87.3716
65.7779
47.4988
32.6671
21.2601
13.096
8.29351
299.843
313.54
344.669
377.565
403.854
418.829
420.573
409.747
387.683
357.17
320.938
281.492
240.981
201.156
163.38
128.74
98.0203
71.7069
50.0317
33.0288
20.5753
13.1244
418.475
438.187
481.996
527.464
563.077
582.604
583.653
567.125
535.449
492.747
442.941
389.437
334.965
281.599
230.876
184.017
141.97
105.416
74.7763
50.242
31.8225
20.6053
573.624
601.291
660.839
720.485
765.162
787.505
785.144
759.291
714.262
655.823
589.343
519.231
448.771
380.243
315.151
254.626
199.585
150.821
109.025
74.7489
48.3919
31.9087
771.644
809.044
886.12
958.759
1008.92
1029.48
1018.9
978.921
916.39
838.899
753.34
665.081
577.84
493.911
414.521
340.39
272.04
210.05
155.275
108.883
72.1474
48.7202
1018.91
1067.19
1159.82
1238
1283.94
1294.01
1267.94
1208.68
1125.11
1026.64
921.425
815.519
712.827
615.434
524.065
438.751
359.169
285.01
216.646
155.987
105.949
73.6568
1323.99
1383.27
1480.56
1544.16
1566.03
1552.19
1501.75
1419.06
1313.36
1195.02
1072.79
952.873
839.02
732.925
634.73
543.72
458.494
376.883
297.003
221.396
154.768
112.121
1703.37
1770.16
1842.72
1848.65
1813.8
1757.88
1676.61
1570.31
1446.24
1313.96
1181.67
1055.11
937.56
830.325
733.164
645.045
563.959
484.574
400.399
316.685
238.222
177.47
2185.68
2238.93
2210.15
2083.56
1957.23
1846.82
1737.29
1616.8
1486.21
1352.22
1221.71
1099.55
988.525
889.479
802.48
727.139
662.113
601.327
536.417
466.475
395.27
332.079
2791.73
2764.73
2434.02
2122.48
1910.35
1768.17
1652.63
1537.51
1417.29
1296.16
1179.88
1072.7
977.2
894.588
825.37
770.819
731.811
707.227
698.602
716.754
765.095
879.766
0.890851
3.03435
8.2278
14.4509
16.4742
15.7336
13.6931
9.3082
12.7626
107.469
290.017
471.986
619.906
724.31
788.607
820.39
826.708
814.517
788.891
758.428
727.139
696.777
668.022
641.048
616.325
594.61
576.383
561.508
549.027
537.617
526.607
516.106
506.433
497.631
489.417
481.606
474.383
468.155
463.503
461.042
461.223
463.218
468.13
475.96
486.307
498.407
511.485
524.832
537.668
549.042
558.134
564.565
568.445
569.897
568.509
563.284
555.644
546.288
535.934
525.295
514.436
502.996
490.383
476.065
460.69
445.843
432.253
420.166
409.57
400.286
392.177
385.225
379.503
375.093
372.003
370.168
369.635
369.724
370.449
372.376
376.067
381.183
387.245
393.736
400.289
406.673
412.782
418.865
425.601
434.196
445.038
456.046
464.22
467.49
466.92
465.717
466.191
467.775
470.393
473.345
475.603
476.518
475.801
472.649
467.296
460.047
451.837
449.972
483.779
806.709
2589.56
2561.4
2111.83
1782.44
1596.2
1492.28
1413.63
1331.18
1240.25
1146.1
1055.09
971.737
898.945
838.705
792.66
762.494
751.827
769.331
833.592
996.053
1378.32
1983.6
4394.53
3345.47
2562.9
2021.97
1700.98
1488.61
1325.97
1196.04
1093.69
1011.83
945.573
891.879
847.669
809.749
775.739
744.167
714.551
687.816
663.006
638.658
613.941
588.951
564.507
541.923
522.616
506.844
494.246
484.139
475.543
468.394
462.998
459.225
456.768
455.444
454.742
454.609
454.751
454.962
454.712
453.002
450.268
447.266
443.942
439.759
434.392
427.991
421.765
416.731
413.216
410.807
409.036
407.8
407.403
407.53
408.305
410.25
414.019
419.526
426.542
434.603
443.089
451.323
458.629
464.415
468.301
470.183
470.02
467.088
462.194
456.067
449.32
442.491
436.039
430.313
425.452
421.445
418.262
416.076
415.648
416.312
417.646
419.711
422.368
425.563
429.078
432.673
436.205
439.595
442.775
445.666
448.286
450.7
452.828
454.485
455.696
456.581
457.446
458.582
460.467
463.882
469.122
476.545
486.504
500.31
520.148
551.628
613.783
766.448
1180.79
2287.18
0.0118398
0.0313762
0.0521235
0.0762243
0.108527
0.152286
0.215307
0.271221
5.33147
82.519
256.034
437.358
589.379
700.523
772.1
810.199
821.536
813.774
790.857
763.115
734.383
706.062
678.772
653.034
629.73
609.871
593.734
580.569
569.007
557.762
546.241
534.74
523.862
513.853
504.552
495.974
488.491
482.493
478.276
476.475
477.116
479.305
484.324
492.021
502.12
513.562
525.673
537.989
549.883
560.44
568.619
574.078
577.1
577.808
575.586
569.557
561.567
552.169
541.955
531.412
520.667
509.245
496.343
481.706
466.334
451.776
438.808
427.414
417.339
408.492
400.747
394.075
388.601
384.563
381.808
380.139
379.456
379.474
379.878
381.469
384.778
389.544
395.12
400.816
406.394
411.919
417.516
423.554
430.875
440.153
451.123
461.508
467.769
468.56
466.173
464.564
466.237
469.661
474.282
478.516
481.251
481.523
479.476
475.112
468.495
460.18
451.145
446.935
464.393
602.489
970.786
1157.23
1173
1138.51
1119.09
1109.79
1090.92
1052.49
997.679
935.23
872.801
815.583
766.974
729.519
705.635
698.617
712.212
758.891
855
1040.08
1355.51
1798.29
2965.58
3017.11
2462.03
1996.58
1691.01
1490.22
1340.21
1216.69
1112.85
1026.19
954.843
897.569
852.076
814.656
782.015
752.275
724.825
699.398
675.455
651.803
627.528
602.542
577.688
554.545
534.922
519.603
507.965
498.82
491.21
484.695
479.14
474.691
471.391
469.095
467.55
466.605
466.044
465.535
464.641
462.659
460.065
456.756
452.807
448.006
442.063
435.185
428.444
422.957
419.276
417.064
415.614
414.521
414.109
414.47
415.375
417.832
422.057
427.936
435.268
443.628
452.407
460.902
468.403
474.278
478.07
479.683
479.101
475.693
470.471
464.185
457.516
450.927
444.767
439.306
434.622
430.709
427.694
425.95
425.844
426.376
427.53
429.606
432.406
435.777
439.5
443.42
447.423
451.385
455.185
458.57
461.476
463.951
465.971
467.485
468.468
469.106
469.752
470.655
472.366
475.338
479.84
486.407
495.99
509.899
530.083
562.073
623.932
774.087
1168.79
1957.91
0.0100303
0.0105574
0.011087
0.011486
0.0119985
0.0127078
0.0138901
0.0166732
0.309375
20.4303
139.026
300.21
451.325
573.358
661.851
718.228
746.295
751.719
741.288
722.237
700.091
676.554
652.762
629.789
609.244
592.574
580.029
570.253
561.165
551.201
539.837
527.697
515.85
504.751
494.216
484.278
475.507
468.47
463.421
460.683
460.345
461.798
465.549
471.6
479.638
488.576
497.905
507.547
517.332
526.58
533.996
539.018
541.854
542.727
541.103
536.38
529.838
522.19
513.957
505.443
496.587
486.778
475.173
461.601
447.234
433.782
421.996
411.523
401.909
393.11
385.163
378.116
372.219
367.803
364.709
362.611
361.271
360.649
360.726
361.672
364.109
367.872
372.251
376.448
380.217
383.77
387.466
391.94
398.541
408.372
420.811
432.408
438.458
437.444
431.834
428.082
429.05
433.725
440.072
445.609
448.806
449.109
446.445
441.493
434.681
425.894
415.634
406.142
405.186
435.541
534.176
613.589
667.338
710.062
750.063
781.612
793.002
782.752
753.749
715.88
676.319
640.299
611.204
592.186
585.567
593.508
622.898
683.423
792.695
965.416
1210.98
1425.23
1768.64
2041.32
1992.74
1753.41
1531.6
1371.94
1253.75
1155.41
1064.92
982.992
913.342
857.281
813.653
778.913
749.581
723.421
699.579
677.771
657.293
636.768
614.969
591.43
566.952
543.574
523.406
507.431
495.189
485.561
477.588
470.826
465.111
460.458
456.756
453.647
451.104
449.273
447.922
446.558
444.759
442.543
439.929
436.821
433.066
428.458
422.759
416.04
409.21
403.366
399.107
396.172
393.847
391.642
389.877
389.379
390.091
392.416
396.371
401.828
408.626
416.437
424.785
433.107
440.765
447.123
451.63
453.965
454.148
451.827
447.413
441.837
435.868
430
424.488
419.506
415.097
411.279
408.295
406.599
406.522
407.145
408.518
410.814
413.957
417.742
421.854
426.167
430.655
435.218
439.656
443.588
446.639
448.721
450.012
450.63
450.524
449.717
449.038
449.03
449.725
451.528
454.658
459.737
468.077
481.393
501.702
533.176
589.211
711.145
998.655
1469.39
0.00998641
0.00993812
0.00994246
0.00995752
0.00999008
0.010061
0.0102216
0.0106061
0.0131031
0.797238
25.1922
122.986
245.833
362.614
460.109
533.269
581.195
606.462
614.257
610.806
599.95
584.687
566.746
548.039
530.6
516.076
505.091
496.694
489.024
480.568
470.715
459.76
448.71
438.224
428.195
418.433
409.212
401.06
394.361
389.337
386.116
384.795
385.316
387.862
392.14
397.461
403.393
409.931
417.285
425.181
432.619
438.674
443.078
445.891
446.929
445.965
443.133
439.381
435.16
430.569
425.406
419.122
411.012
400.888
389.627
378.635
368.641
359.322
350.178
341.228
332.68
324.715
317.644
311.809
307.264
303.778
301.087
299.069
297.832
297.604
298.4
300.408
303.127
305.948
308.507
310.764
312.962
315.652
320.384
328.863
341.331
354.82
364.252
366.337
362.548
356.958
354.955
356.736
360.988
365.28
368.015
368.821
367.489
364.003
359.086
352.582
344.37
334.792
327.414
335.476
383.552
438.215
484.009
515.04
540.065
561.777
573.074
570.524
554.238
530.358
504.73
482.1
465.806
458.232
461.079
477.52
511.838
571.61
670.405
818.968
1005.13
1163.69
1267.11
1374.1
1409.86
1356.2
1248.03
1143.34
1056.71
984.479
916.998
853.918
798.79
752.808
715.917
686.124
661.013
638.742
618.505
600.219
583.502
567.16
549.805
530.402
508.962
487.15
466.861
449.242
434.429
422.143
411.934
403.592
397
392.009
388.286
385.473
383.223
381.596
380.459
379.386
377.982
376.19
374.1
371.627
368.602
364.893
360.416
355.161
349.611
344.429
340.126
336.569
333.217
329.606
326.006
323.193
321.834
321.989
323.486
326.378
330.564
335.894
342.128
348.951
355.938
362.557
368.239
372.491
375.006
375.578
374.068
370.819
366.626
362.072
357.501
353.122
349.059
345.42
342.445
340.505
339.888
340.207
341.372
343.614
346.884
351.045
355.596
360.213
364.842
369.39
373.621
377.199
379.777
381.211
381.698
381.374
380.175
378.373
376.455
374.959
374.326
374.616
376.019
379.093
384.954
395.389
412.46
438.712
481.075
559.631
719.133
961.331
0.0099882
0.00991894
0.0098506
0.00979472
0.00975024
0.00972977
0.00974749
0.00983072
0.0101289
0.0130173
0.450162
12.4931
68.7223
152.37
238.634
314.917
374.792
416.594
442.165
455.481
459.805
457.241
448.809
437.155
424.506
412.575
402.384
393.852
386.13
378.353
370.089
361.164
351.978
343.08
334.633
326.481
318.539
310.943
303.952
297.815
292.7
288.732
286.093
284.977
285.36
287.132
289.969
293.807
298.765
304.851
311.585
318.163
323.934
328.59
331.96
333.936
334.682
334.675
334.366
333.914
332.956
330.878
327.064
321.24
313.948
306.239
298.855
291.689
284.279
276.53
268.664
260.923
253.582
246.956
241.225
236.338
232.13
228.486
225.423
223.084
221.649
221.197
221.56
222.592
223.931
225.419
227.053
229.057
232.414
238.734
248.985
261.631
272.94
279.685
280.285
276.677
272.601
271.257
272.17
274.008
275.568
276.439
276.358
275.057
272.666
269.452
265.672
261.881
260.232
268.253
304.319
343.396
368.766
380.392
391.134
405.019
415.414
416.519
407.56
391.631
374.18
359.618
350.928
349.83
357.065
375.284
406.93
457.149
534.937
650.395
790.126
916.84
993.473
1036.91
1053.31
1043.01
1002.15
942.618
879.352
818.906
762.911
713.407
671.049
634.231
602.672
576.218
553.905
534.435
516.936
501.233
487.182
473.974
460.432
445.49
428.509
410.218
391.84
374.524
358.681
344.763
332.837
322.981
315.102
309.004
304.371
300.881
298.136
296.129
294.863
294.187
293.776
293.318
292.588
291.353
289.39
286.64
283.173
279.051
274.581
270.24
266.49
263.353
260.302
256.692
252.504
248.299
244.77
242.292
240.937
240.698
241.453
243.378
246.435
250.573
255.593
261.095
266.583
271.591
275.723
278.618
279.942
279.589
277.729
274.955
271.74
268.41
265.179
262.197
259.602
257.599
256.36
255.931
256.174
257.267
259.389
262.578
266.513
270.764
275.084
279.274
283.033
286.061
288.193
289.398
289.75
289.477
288.573
287.196
285.59
284.1
283.078
282.759
283.149
284.728
288.065
294.412
305.396
322.701
349.181
391.721
466.532
579.643
0.00998257
0.00989979
0.0098197
0.009748
0.00968619
0.0096383
0.00961174
0.00960544
0.00964809
0.00975257
0.0104628
0.0606462
2.2957
18.511
67.3611
125.841
181.93
229.083
265.026
290.609
307.622
317.223
320.195
318.174
312.524
305.445
298.282
291.591
285.311
279.175
273
266.491
259.568
252.508
245.616
238.993
232.593
226.368
220.35
214.652
209.419
204.789
200.901
197.925
196.029
195.274
195.555
197.006
199.654
203.526
208.449
213.992
219.593
224.751
229.126
232.54
235.033
236.929
238.685
240.556
242.344
243.457
243.187
241.174
237.512
232.993
228.355
223.79
219.012
213.773
208.074
202.069
195.976
190.042
184.452
179.257
174.41
169.877
165.687
161.949
158.822
156.428
154.794
153.861
153.516
153.622
154.267
155.513
157.853
162.228
169.551
179.287
189.056
197.045
201.096
200.898
198.165
195.585
194.648
194.942
195.658
196.412
196.859
196.72
195.987
195.026
194.793
196.428
201.315
211.94
234.945
253.534
259.781
262.775
274.139
291.491
305.571
310.293
305.991
295.168
283.453
274.866
271.629
274.129
283.189
299.232
323.965
360.488
414.001
491.066
589.11
689.475
767.878
814.356
836.331
838.879
824.938
792.446
747.776
696.723
645.942
601.758
565.221
532.854
503.561
477.964
456.292
437.941
422.024
408.044
395.815
384.789
373.907
362.234
349.159
334.926
320.23
305.787
291.898
278.824
266.955
256.749
248.338
241.524
235.934
231.215
227.16
223.815
221.339
219.822
219.152
219.024
219.066
218.824
217.841
215.953
213.256
209.889
206.084
202.215
198.734
195.88
193.394
190.594
187.072
182.974
178.841
175.203
172.333
170.283
169.031
168.602
169.004
170.498
173.027
176.381
180.17
184.017
187.631
190.749
193.064
194.275
194.223
193.192
191.44
189.386
187.266
185.236
183.333
181.611
180.162
179.062
178.352
178.105
178.43
179.625
181.523
183.914
186.656
189.635
192.637
195.342
197.606
199.333
200.497
201.112
201.246
201.117
200.829
200.568
200.499
200.751
201.443
202.655
204.722
208.356
214.582
224.462
239.112
260.351
292.96
341.134
0.00998335
0.00990626
0.00982508
0.00974915
0.00967753
0.00961197
0.009555
0.00951081
0.00948442
0.0094793
0.00948395
0.00950741
0.0113534
0.103086
2.08572
13.0444
43.4864
79.8586
114.228
143.265
166.441
183.749
195.316
201.557
203.508
202.92
201.015
198.832
196.488
193.924
190.969
187.472
183.252
178.449
173.377
168.288
163.291
158.403
153.63
149.012
144.626
140.564
136.934
133.826
131.34
129.566
128.571
128.477
129.225
131.051
133.788
137.273
141.24
145.364
149.343
152.912
155.936
158.479
160.791
163.156
165.617
167.863
169.364
169.543
168.551
166.578
164.216
161.779
159.235
156.424
153.231
149.638
145.708
141.553
137.27
132.907
128.491
124.092
119.836
115.875
112.352
109.341
106.853
104.866
103.347
102.267
101.683
101.768
102.761
105.271
109.742
116.057
122.936
129.319
133.8
135.782
135.626
134.518
133.798
133.889
134.327
134.841
135.26
135.309
135.14
135.144
136.277
140.267
147.297
157.388
171.563
179.955
181.078
186.436
203.568
224.191
239.047
243.988
240.927
233.239
226.184
222.737
223.612
228.626
237.132
249.04
265.212
287.536
319.128
364.117
424.486
494.902
563.285
618.127
654.971
673.4
673.394
658.135
628.672
590.03
548.023
508.852
474.86
444.447
417.204
393.567
373.51
356.543
342.02
329.432
318.521
308.982
300.076
290.886
280.889
270.271
259.555
249.027
238.459
227.636
217.014
207.44
199.453
192.903
187.287
182.165
177.38
173.053
169.411
166.62
164.71
163.592
163.019
162.55
161.73
160.236
158.018
155.192
151.952
148.563
145.329
142.469
139.977
137.439
134.46
130.955
127.173
123.526
120.357
117.801
115.835
114.426
113.624
113.55
114.215
115.646
117.539
119.633
121.736
123.715
125.42
126.632
127.185
127.044
126.365
125.364
124.218
123.074
121.908
120.694
119.459
118.267
117.181
116.262
115.625
115.409
115.507
115.968
116.634
117.572
118.856
120.605
122.688
124.835
126.752
128.302
129.472
130.355
131.121
131.95
132.963
134.187
135.584
137.158
139.056
141.653
145.514
151.241
159.297
170.073
184.715
204.83
0.00998531
0.00990731
0.00982213
0.00974087
0.00966402
0.00959258
0.0095277
0.0094708
0.00942333
0.00938405
0.00934928
0.00931319
0.00926935
0.00922016
0.0104223
0.0474944
0.654501
4.92324
15.6123
36.0197
55.7395
73.5504
88.0077
98.3749
105.357
110.636
115.237
119.158
122.096
123.958
124.7
124.429
123.066
120.804
117.921
114.701
111.342
107.943
104.561
101.256
98.0937
95.1335
92.4356
90.0389
87.9705
86.2855
85.0549
84.3539
84.2807
84.6889
85.7133
87.2471
89.2176
91.4973
93.9715
96.5187
99.0168
101.354
103.484
105.494
107.481
109.381
110.943
111.86
112.001
111.551
110.703
109.666
108.504
107.172
105.606
103.782
101.705
99.3779
96.7836
93.8856
90.6817
87.2573
83.793
80.4921
77.5042
74.888
72.6034
70.6037
68.8662
67.4045
66.2851
65.6457
65.7212
66.6045
68.7496
72.0319
76.0279
80.1009
83.3827
85.4665
86.6087
87.3966
88.425
89.6757
90.5165
90.8526
90.8827
90.7635
90.5561
90.7113