/*--------------------------------*- C++ -*----------------------------------*\
  =========                 |
  \\      /  F ield         | OpenFOAM: The Open Source CFD Toolbox
   \\    /   O peration     | Website:  https://openfoam.org
    \\  /    A nd           | Version:  7
     \\/     M anipulation  |
\*---------------------------------------------------------------------------*/
FoamFile
{
    version     2.0;
    format      ascii;
    class       volScalarField;
    location    "400";
    object      k;
}
// * * * * * * * * * * * * * * * * * * * * * * * * * * * * * * * * * * * * * //

dimensions      [0 2 -2 0 0 0 0];

internalField   nonuniform List<scalar> 
96800
(
0.000440977
0.000440966
0.000440736
0.000440416
0.00044001
0.000439561
0.000439132
0.000438762
0.000438475
0.000438276
0.000438177
0.000438194
0.000438336
0.000438576
0.000438923
0.000439372
0.000439914
0.000440519
0.000441147
0.000441765
0.000442382
0.000443169
0.000441201
0.0004415
0.000441311
0.000440999
0.000440581
0.000440121
0.00043968
0.000439298
0.000439
0.000438799
0.000438703
0.000438716
0.000438844
0.000439086
0.000439434
0.000439886
0.000440429
0.000441031
0.000441649
0.000442235
0.000442758
0.000443154
0.000441372
0.000441741
0.000441588
0.000441263
0.000440819
0.000440329
0.000439856
0.000439447
0.000439129
0.000438917
0.000438815
0.000438823
0.000438945
0.000439181
0.00043953
0.000439982
0.000440521
0.000441113
0.000441708
0.000442236
0.000442631
0.000442785
0.000441605
0.000441986
0.00044183
0.000441474
0.000440984
0.000440443
0.000439923
0.000439476
0.000439132
0.000438905
0.000438796
0.000438798
0.000438915
0.000439148
0.000439494
0.000439945
0.000440481
0.000441065
0.000441637
0.000442122
0.000442442
0.000442506
0.000441841
0.000442214
0.00044203
0.000441626
0.000441076
0.000440474
0.000439899
0.000439408
0.000439033
0.000438787
0.000438668
0.000438669
0.000438786
0.000439019
0.000439362
0.00043981
0.000440345
0.000440923
0.000441485
0.000441949
0.000442235
0.000442269
0.000442071
0.000442429
0.000442205
0.000441743
0.000441128
0.000440459
0.000439825
0.000439289
0.000438884
0.000438619
0.000438491
0.000438492
0.000438611
0.000438843
0.000439186
0.000439634
0.000440169
0.000440749
0.00044131
0.000441774
0.000442058
0.000442085
0.000442304
0.000442646
0.000442376
0.000441855
0.000441173
0.000440436
0.000439744
0.000439165
0.000438731
0.000438452
0.00043832
0.00043832
0.000438439
0.000438671
0.000439014
0.000439465
0.000440005
0.000440594
0.000441171
0.000441649
0.000441944
0.000441975
0.000442557
0.000442881
0.000442569
0.00044199
0.000441241
0.000440444
0.000439699
0.000439079
0.000438618
0.000438327
0.000438191
0.000438187
0.000438304
0.000438535
0.000438882
0.00043934
0.000439892
0.0004405
0.000441102
0.000441606
0.000441921
0.000441964
0.000442853
0.000443162
0.000442809
0.000442176
0.000441368
0.000440514
0.000439721
0.000439061
0.000438575
0.00043827
0.000438125
0.000438113
0.000438227
0.000438459
0.000438812
0.00043928
0.000439849
0.000440485
0.000441122
0.00044166
0.000442005
0.000442072
0.000443217
0.000443512
0.000443124
0.00044244
0.000441577
0.000440666
0.000439824
0.000439127
0.000438615
0.00043829
0.000438129
0.00043811
0.000438219
0.000438453
0.00043881
0.000439294
0.000439892
0.000440565
0.000441243
0.000441825
0.000442208
0.000442301
0.000443677
0.000443956
0.000443535
0.000442804
0.000441886
0.000440922
0.000440031
0.000439295
0.000438749
0.000438395
0.000438214
0.000438183
0.000438285
0.000438517
0.000438883
0.00043939
0.000440024
0.000440744
0.000441475
0.000442109
0.000442538
0.000442657
0.000444249
0.000444514
0.000444058
0.000443283
0.000442313
0.000441294
0.000440351
0.000439567
0.000438981
0.000438592
0.000438387
0.000438338
0.000438428
0.000438661
0.000439042
0.000439578
0.000440256
0.000441033
0.000441829
0.000442523
0.000442999
0.000443149
0.000444959
0.00044521
0.000444717
0.000443895
0.00044287
0.000441791
0.000440789
0.000439951
0.000439317
0.000438892
0.000438656
0.000438585
0.000438663
0.000438898
0.0004393
0.000439871
0.000440602
0.000441447
0.000442312
0.000443075
0.000443609
0.000443795
0.000445833
0.000446068
0.000445538
0.000444663
0.000443575
0.000442431
0.000441363
0.000440464
0.000439778
0.000439312
0.000439042
0.000438944
0.000439011
0.000439252
0.000439675
0.000440288
0.00044108
0.000441998
0.000442943
0.000443783
0.000444382
0.000444609
0.0004469
0.000447116
0.000446543
0.000445609
0.000444454
0.000443239
0.000442102
0.000441139
0.000440398
0.000439883
0.000439574
0.000439452
0.000439508
0.000439753
0.0004402
0.000440861
0.000441718
0.000442714
0.000443745
0.000444668
0.000445336
0.000445607
0.000448196
0.000448391
0.000447768
0.000446771
0.000445544
0.000444254
0.000443046
0.000442018
0.000441216
0.000440648
0.000440299
0.000440153
0.000440197
0.000440447
0.000440923
0.00044163
0.000442549
0.000443622
0.000444741
0.000445753
0.000446492
0.000446806
0.000449763
0.000449937
0.000449263
0.000448196
0.000446891
0.000445523
0.000444242
0.000443145
0.000442281
0.000441661
0.000441275
0.000441105
0.000441139
0.000441394
0.000441891
0.000442638
0.000443618
0.000444767
0.00044597
0.000447066
0.000447874
0.000448234
0.000451655
0.000451808
0.000451077
0.000449935
0.000448547
0.000447096
0.00044574
0.000444577
0.000443658
0.000442992
0.000442573
0.000442383
0.000442406
0.000442662
0.000443172
0.000443952
0.000444982
0.000446197
0.000447479
0.00044865
0.000449523
0.000449928
0.000453919
0.000454044
0.000453246
0.000452025
0.000450548
0.000449014
0.000447583
0.000446361
0.000445399
0.000444705
0.000444265
0.000444064
0.000444077
0.000444329
0.000444847
0.000445647
0.000446714
0.000447986
0.000449332
0.00045057
0.000451501
0.00045195
0.0004566
0.000456691
0.000455815
0.000454499
0.000452926
0.000451302
0.000449798
0.000448531
0.000447546
0.000446847
0.000446409
0.000446213
0.000446231
0.000446485
0.000447008
0.000447823
0.000448917
0.000450226
0.000451624
0.000452918
0.000453901
0.000454395
0.000459778
0.000459824
0.000458846
0.00045741
0.000455711
0.000453976
0.000452399
0.000451097
0.000450113
0.00044944
0.000449045
0.000448888
0.000448937
0.00044922
0.000449764
0.000450595
0.000451711
0.000453049
0.000454486
0.000455827
0.000456862
0.000457403
0.000463668
0.000463643
0.000462512
0.000460894
0.000459005
0.00045711
0.000455426
0.000454077
0.000453109
0.000452499
0.000452194
0.000452127
0.000452264
0.000452622
0.000453222
0.000454094
0.000455239
0.000456611
0.000458085
0.000459472
0.000460562
0.000461158
0.00046883
0.000468681
0.000467295
0.000465364
0.000463146
0.000460961
0.00045906
0.000457596
0.000456614
0.000456078
0.0004559
0.000455979
0.000456279
0.00045678
0.000457499
0.000458459
0.000459671
0.000461099
0.000462626
0.000464072
0.000465226
0.000465888
0.000476556
0.000476179
0.000474336
0.000471834
0.000469002
0.00046624
0.000463868
0.000462079
0.000460938
0.000460391
0.000460307
0.000460564
0.000461081
0.000461804
0.000462721
0.000463847
0.000465194
0.000466729
0.000468353
0.000469888
0.000471129
0.000471876
0.000489434
0.00048864
0.000485969
0.000482429
0.000478449
0.000474557
0.000471189
0.000468612
0.000466923
0.000466071
0.000465894
0.000466217
0.000466923
0.000467897
0.00046908
0.000470461
0.000472032
0.000473756
0.000475545
0.000477232
0.000478607
0.00047947
0.000512066
0.000510537
0.000506386
0.000501006
0.000494963
0.000488978
0.000483662
0.000479414
0.000476394
0.000474571
0.000473782
0.000473793
0.00047443
0.000475516
0.000476931
0.0004786
0.000480468
0.000482476
0.000484531
0.000486459
0.000488042
0.000489071
0.000551818
0.000549047
0.000542357
0.000533835
0.000524252
0.000514614
0.000505802
0.000498405
0.000492709
0.000488721
0.000486268
0.000485122
0.000485013
0.000485714
0.000487039
0.000488834
0.000490964
0.000493309
0.000495724
0.000498004
0.000499902
0.000501183
0.000619268
0.000614492
0.000603624
0.000589984
0.000574658
0.000559039
0.000544403
0.000531639
0.000521217
0.000513201
0.000507414
0.00050358
0.000501406
0.000500623
0.000500991
0.000502308
0.000504353
0.000506897
0.000509686
0.000512414
0.000514753
0.000516394
0.000728457
0.000720565
0.000703135
0.0006816
0.000657479
0.000632662
0.000608959
0.000587692
0.000569618
0.000554926
0.000543413
0.000534692
0.000528366
0.00052415
0.00052185
0.000521302
0.000522268
0.000524415
0.000527315
0.000530461
0.000533333
0.000535442
0.000897293
0.000884737
0.000857475
0.000824327
0.000787439
0.000749276
0.000712278
0.000678308
0.000648535
0.000623442
0.000602911
0.000586388
0.000573181
0.000562798
0.00055507
0.000550072
0.000547827
0.000548042
0.000550143
0.000553311
0.000556653
0.000559287
0.00114985
0.0011305
0.00108897
0.00103921
0.000984334
0.000927525
0.00087194
0.000819969
0.000773204
0.000732525
0.000698156
0.000669663
0.000646024
0.000626112
0.000609363
0.00059603
0.000586745
0.000581851
0.000580948
0.000582895
0.000586188
0.000589227
0.00152138
0.00149219
0.00143024
0.00135687
0.00127673
0.00119407
0.00111295
0.00103633
0.000966039
0.000903124
0.000848126
0.000801126
0.000761402
0.000727348
0.000697338
0.00067083
0.000648885
0.000633251
0.000624761
0.000622531
0.000624249
0.000627101
0.00206634
0.00202294
0.00193188
0.00182484
0.00170894
0.00159003
0.00147342
0.0013628
0.00126029
0.00116677
0.00108254
0.00100783
0.000942706
0.000886318
0.000836598
0.000791144
0.000749614
0.00071486
0.00069062
0.000678036
0.000674603
0.000675645
0.00286943
0.00280576
0.00267346
0.00251867
0.00235216
0.00218193
0.00201498
0.00185605
0.00170779
0.00157107
0.00144576
0.0013314
0.0012279
0.00113573
0.00105401
0.000980025
0.0009105
0.000846217
0.000793734
0.000759581
0.000743545
0.000739162
0.00406019
0.00396863
0.003779
0.00355781
0.0033207
0.00307824
0.00283932
0.00260998
0.00239379
0.00219229
0.00200561
0.001833
0.00167351
0.00152675
0.00139314
0.00127222
0.0011604
0.00105398
0.000957458
0.000884054
0.000841648
0.000824536
0.00583533
0.0057043
0.00543775
0.00512764
0.00479494
0.0044527
0.00411161
0.00377898
0.00345965
0.00315675
0.00287224
0.00260691
0.00236041
0.00213157
0.00191917
0.00172261
0.00154167
0.00137253
0.00121316
0.00107729
0.000986137
0.000942913
0.0084759
0.0082918
0.00792793
0.00750483
0.00704814
0.00657223
0.00608866
0.00560562
0.00512973
0.00466705
0.00422355
0.00380468
0.00341429
0.0030533
0.0027192
0.00240841
0.002119
0.00185042
0.00159979
0.00137388
0.00120309
0.0011118
0.0123759
0.0121282
0.01165
0.0110928
0.0104836
0.00983488
0.00915657
0.00845731
0.00774638
0.00703501
0.00633655
0.00566539
0.00503479
0.00445361
0.00392294
0.00343634
0.00298415
0.00256187
0.00217126
0.00181727
0.00152872
0.00135774
0.0180766
0.0177569
0.0171572
0.0164554
0.0156708
0.0148064
0.0138674
0.0128617
0.0118034
0.0107129
0.0096163
0.00854298
0.00752239
0.00657883
0.00572501
0.00495831
0.00426058
0.00361142
0.00300808
0.00246475
0.0020093
0.00171761
0.0263039
0.0259109
0.0252029
0.0243674
0.0233977
0.0222741
0.0209909
0.0195556
0.0179915
0.016335
0.0146332
0.0129397
0.0113093
0.00979045
0.00841701
0.00720042
0.00612179
0.00513966
0.00422611
0.0033997
0.00270504
0.00224002
0.0380062
0.0375525
0.0367846
0.035863
0.0347219
0.0332972
0.0315636
0.0295309
0.0272398
0.0247545
0.022156
0.0195351
0.0169843
0.0145879
0.0124106
0.0104892
0.00881671
0.00733686
0.0059802
0.00474229
0.00369852
0.0029881
0.0544097
0.0539304
0.0532058
0.052303
0.0510407
0.0492763
0.0469552
0.0440958
0.040772
0.0370937
0.0331949
0.0292225
0.0253243
0.0216348
0.0182611
0.0152759
0.012697
0.0104679
0.00847487
0.0066562
0.00510579
0.00404809
0.0770824
0.0766472
0.0761515
0.075456
0.0741758
0.0720384
0.0689492
0.0649496
0.0601721
0.0548013
0.049052
0.0431533
0.037332
0.031792
0.0266955
0.0221607
0.0182418
0.014899
0.011986
0.00935852
0.00709015
0.00554056
0.10803
0.10776
0.107801
0.107621
0.106504
0.103966
0.0998649
0.0942934
0.0874846
0.0797421
0.0714016
0.0628099
0.0543025
0.0461751
0.0386603
0.031932
0.0260902
0.0211277
0.0168865
0.013132
0.0098688
0.00762628
0.149842
0.149934
0.151007
0.151822
0.15114
0.148178
0.14273
0.134993
0.125368
0.114343
0.102428
0.0901332
0.0779373
0.0662544
0.0554047
0.0456308
0.0370897
0.0298212
0.02368
0.0183511
0.0137283
0.0105184
0.205925
0.206682
0.209533
0.212074
0.212199
0.208799
0.201545
0.190843
0.177358
0.161848
0.14507
0.127747
0.110543
0.094021
0.0786136
0.0646533
0.0523711
0.0418707
0.033043
0.0255158
0.0190445
0.0145214
0.280902
0.282777
0.288489
0.293791
0.295277
0.291405
0.281746
0.267042
0.248347
0.226792
0.203463
0.179359
0.155377
0.132277
0.110643
0.0909351
0.0734888
0.058493
0.0458986
0.0353045
0.0263205
0.0200368
0.381033
0.384664
0.394764
0.404266
0.407919
0.403565
0.390781
0.370792
0.345188
0.315591
0.283499
0.250267
0.217099
0.185023
0.154845
0.127219
0.102631
0.0813876
0.0635272
0.0486518
0.0362358
0.0276003
0.514956
0.521231
0.53783
0.553531
0.560511
0.555798
0.539092
0.512288
0.477685
0.437499
0.393739
0.348211
0.302542
0.258146
0.216169
0.177555
0.143022
0.113047
0.0877926
0.0669048
0.0497508
0.0379524
0.694219
0.704334
0.730277
0.754895
0.766877
0.762157
0.740752
0.705413
0.659317
0.605367
0.546169
0.48412
0.421438
0.360102
0.301765
0.247817
0.199334
0.157062
0.121359
0.0919685
0.0682022
0.052103
0.934145
0.949685
0.988667
1.02576
1.04516
1.04119
1.0146
0.96897
0.908512
0.836869
0.757374
0.673216
0.58745
0.502862
0.421831
0.346416
0.27826
0.218556
0.167993
0.126512
0.0934409
0.0714331
1.2541
1.2771
1.33379
1.38797
1.41822
1.41681
1.38538
1.32798
1.2499
1.15566
1.04955
0.935887
0.818926
0.702576
0.590221
0.484863
0.389008
0.30459
0.232876
0.174173
0.127959
0.0977861
1.67786
1.71091
1.79129
1.86885
1.9154
1.92016
1.88553
1.81522
1.71565
1.59245
1.45134
1.29834
1.13937
0.979952
0.824822
0.678239
0.543888
0.424796
0.323165
0.239994
0.175184
0.133649
2.23391
2.28042
2.3924
2.50224
2.57335
2.59046
2.55531
2.47092
2.34473
2.18408
1.9969
1.79159
1.57651
1.35942
1.14693
0.944903
0.758417
0.591832
0.448655
0.331074
0.239976
0.182506
2.95608
3.02053
3.17457
3.32875
3.43556
3.47323
3.44059
3.33988
3.17973
2.97027
2.72269
2.44871
2.15999
1.86729
1.57976
1.30529
1.05051
0.821111
0.622029
0.45714
0.329253
0.249354
3.8831
3.97149
4.18106
4.39477
4.55052
4.61727
4.58902
4.46707
4.26216
3.98887
3.66309
3.30104
2.91843
2.52962
2.14685
1.78052
1.4391
1.12955
0.858085
0.630429
0.452356
0.341216
5.05657
5.17671
5.45853
5.74922
5.96749
6.07024
6.04447
5.89186
5.62673
5.27035
4.84527
4.37348
3.87541
3.36916
2.87001
2.39109
1.94306
1.5344
1.17248
0.864777
0.620784
0.467497
6.51761
6.67942
7.05292
7.43842
7.7302
7.87066
7.84028
7.64136
7.29501
6.8319
6.2835
5.67907
5.04423
4.40053
3.76557
3.15459
2.58027
2.05289
1.58136
1.17503
0.847746
0.640124
8.29946
8.51461
8.99976
9.49451
9.86409
10.0359
9.986
9.71776
9.26355
8.66628
7.96894
7.20952
6.41916
5.62223
4.83728
4.07996
3.36375
2.70034
2.10059
1.57664
1.14754
0.872538
10.4215
10.7022
11.3153
11.9241
12.3634
12.5485
12.4539
12.086
11.4927
10.7324
9.86184
8.92879
7.97005
7.01192
6.07209
5.16414
4.29956
3.48947
2.74636
2.08658
1.5377
1.17973
12.8787
13.2335
13.9781
14.6852
15.1647
15.3289
15.1533
14.6508
13.8874
12.9394
11.8784
10.7624
9.63351
8.51891
7.43368
6.38653
5.38301
4.42914
3.53594
2.7247
2.03606
1.58198
15.6366
16.0671
16.9181
17.6674
18.1234
18.2132
17.9127
17.2427
16.2867
15.1389
13.8855
12.5938
11.31
10.0613
8.85914
7.70538
6.5958
5.52403
4.49088
3.52054
2.67222
2.11058
18.6356
19.1346
20.0081
20.6715
20.9887
20.9335
20.4632
19.607
18.4566
17.1208
15.6976
14.2612
12.8605
11.522
10.2535
9.0508
7.89876
6.76996
5.63762
4.52489
3.50464
2.83491
21.8107
22.3448
23.0549
23.3862
23.3926
23.1072
22.4475
21.4187
20.108
18.6313
17.0931
15.5714
14.116
12.7532
11.4895
10.3193
9.22202
8.13998
7.00387
5.85894
4.77213
3.93929
25.0798
25.5107
25.6356
25.2458
24.8
24.2429
23.4307
22.3042
20.9235
19.4007
17.8416
16.3243
14.8978
13.5899
12.4118
11.3638
10.4322
9.55611
8.66286
7.7524
6.88614
6.20319
28.1495
28.146
26.7146
25.4096
24.5716
23.9163
23.1209
22.0421
20.7189
19.2634
17.7851
16.3642
15.0521
13.8776
12.8586
12.0069
11.3333
10.826
10.5008
10.4715
10.7396
11.5248
0.0122519
0.0142997
0.0274426
0.0504579
0.0613139
0.0630055
0.0573736
0.0423886
0.437949
4.35932
8.69437
11.9142
14.0188
15.2286
15.7882
15.8952
15.6899
15.2541
14.7043
14.1187
13.5435
12.9986
12.4917
12.0255
11.6073
11.2472
10.9502
10.7122
10.5181
10.3492
10.1951
10.0552
9.93149
9.8225
9.724
9.63502
9.56115
9.5125
9.50004
9.5206
9.59162
9.71801
9.89767
10.1197
10.3648
10.6123
10.847
11.059
11.2403
11.3821
11.4778
11.5253
11.5306
11.4905
11.4057
11.2799
11.1228
10.9462
10.7617
10.5802
10.4035
10.2272
10.0431
9.84479
9.64187
9.4534
9.28606
9.13933
9.00936
8.89136
8.78265
8.68384
8.59798
8.52867
8.47822
8.4478
8.43759
8.44323
8.46843
8.52411
8.61162
8.72421
8.85078
8.98062
9.10686
9.22662
9.34117
9.45855
9.5929
9.76156
9.96164
10.1517
10.2798
10.317
10.2896
10.2436
10.2197
10.2201
10.2275
10.2335
10.2235
10.1827
10.1177
10.026
9.90256
9.75296
9.60167
9.57116
10.0442
13.33
25.4653
25.9683
24.0532
22.7662
22.1877
21.8598
21.3617
20.5285
19.4159
18.1544
16.8636
15.6285
14.5047
13.5284
12.7226
12.1034
11.7238
11.6488
11.9805
13.0936
15.4974
18.7459
27.9633
23.762
20.3275
17.8571
16.4415
15.5965
15.0438
14.7214
14.6086
14.6146
14.6476
14.651
14.5773
14.4132
14.169
13.8578
13.5034
13.138
12.7664
12.3836
11.9888
11.5897
11.2012
10.8431
10.5346
10.2789
10.0707
9.9006
9.75761
9.64352
9.56438
9.52071
9.50944
9.51895
9.54574
9.57799
9.60182
9.60703
9.58365
9.53111
9.46096
9.38912
9.32134
9.25593
9.1917
9.13133
9.08658
9.06385
9.06228
9.06559
9.0676
9.06893
9.07297
9.08734
9.12637
9.19856
9.30734
9.44542
9.6003
9.7568
9.90031
10.0193
10.1054
10.1532
10.1626
10.134
10.0678
9.97258
9.85854
9.73622
9.61542
9.50415
9.40885
9.33405
9.28155
9.25224
9.24549
9.25317
9.283
9.33836
9.40979
9.48624
9.56238
9.63424
9.69785
9.75121
9.79505
9.83164
9.86318
9.89089
9.91619
9.94087
9.96474
9.98514
10.0007
10.0143
10.0307
10.0551
10.0938
10.156
10.2491
10.3779
10.5481
10.7795
11.11
11.6396
12.6308
14.6423
18.7266
26.6785
0.00123347
0.00190603
0.00313217
0.00389985
0.00451184
0.00513944
0.00595036
0.00716703
0.259834
3.56659
7.87191
11.1882
13.4229
14.7683
15.4507
15.655
15.5233
15.1414
14.6357
14.0881
13.5459
13.0267
12.5379
12.0868
11.6853
11.3459
11.0709
10.8495
10.6625
10.4921
10.3294
10.1762
10.0376
9.91432
9.80338
9.70564
9.62833
9.58092
9.57266
9.59333
9.6627
9.78578
9.96197
10.1802
10.4197
10.6583
10.8819
11.0834
11.2563
11.3921
11.4844
11.5213
11.5193
11.4733
11.3868
11.254
11.0965
10.923
10.7434
10.5656
10.3924
10.2175
10.0309
9.82971
9.62763
9.44361
9.28492
9.14765
9.0252
8.91392
8.81112
8.71718
8.63589
8.57159
8.52549
8.49665
8.4854
8.48692
8.50538
8.55021
8.63136
8.73692
8.85407
8.97111
9.08319
9.19111
9.29836
9.41406
9.55481
9.73123
9.93306
10.116
10.2214
10.2313
10.1816
10.1357
10.1321
10.1568
10.1908
10.212
10.2026
10.1554
10.076
9.96727
9.83181
9.67087
9.50854
9.44407
9.72656
11.4447
14.7633
16.498
17.1882
17.6667
18.1951
18.5583
18.5332
18.0593
17.2436
16.2488
15.2065
14.2079
13.3133
12.5633
11.9886
11.6205
11.5107
11.7093
12.4048
13.7517
15.7295
18.138
23.1035
22.8154
20.057
17.809
16.3937
15.5614
15.0415
14.7187
14.5607
14.5173
14.5156
14.4984
14.4336
14.3001
14.0922
13.8197
13.5042
13.1656
12.814
12.4471
12.0633
11.6686
11.2786
10.9167
10.6066
10.3574
10.1603
10.0005
9.86722
9.75772
9.67305
9.61711
9.59091
9.58939
9.60313
9.6252
9.64138
9.63954
9.61283
9.56416
9.49514
9.42048
9.34563
9.27241
9.20024
9.13296
9.08104
9.05322
9.05024
9.0565
9.06286
9.06652
9.0719
9.08915
9.12849
9.1989
9.30939
9.44823
9.60432
9.76327
9.9105
10.0339
10.1256
10.1779
10.1869
10.1562
10.0891
9.98763
9.87095
9.74816
9.62901
9.52062
9.42818
9.35525
9.30321
9.27408
9.26873
9.28098
9.3115
9.36074
9.4302
9.50786
9.58725
9.66307
9.73124
9.79061
9.84196
9.88671
9.92626
9.9599
9.98756
10.0111
10.0321
10.0496
10.0626
10.073
10.0862
10.1081
10.1418
10.1973
10.281
10.3985
10.5628
10.7933
11.1236
11.6493
12.6217
14.5984
18.5227
24.4286
0.00100185
0.00104156
0.00107973
0.00110746
0.00113527
0.00117313
0.00124754
0.00140228
0.0197911
1.10228
5.02262
8.48437
11.0368
12.749
13.7888
14.308
14.4276
14.2614
13.9091
13.4785
13.024
12.567
12.1224
11.7049
11.335
11.0298
10.791
10.6006
10.4321
10.266
10.095
9.92554
9.76843
9.62659
9.49611
9.37741
9.27895
9.21052
9.1787
9.18212
9.22367
9.31416
9.45491
9.63805
9.84379
10.0503
10.2449
10.4236
10.5841
10.718
10.8115
10.8602
10.8702
10.8406
10.7695
10.6628
10.531
10.3856
10.235
10.0847
9.93516
9.77898
9.60565
9.41399
9.22013
9.04563
8.89773
8.76874
8.64991
8.53849
8.43363
8.33616
8.25098
8.18311
8.13301
8.09766
8.07475
8.06482
8.07
8.10013
8.16121
8.24584
8.34051
8.43266
8.51745
8.59734
8.67838
8.77287
8.90387
9.08789
9.31053
9.5129
9.62103
9.61435
9.53625
9.47233
9.47133
9.5148
9.57436
9.61488
9.61761
9.57233
9.4878
9.37664
9.24003
9.07587
8.89617
8.74981
8.77243
9.30659
10.6104
11.6781
12.6245
13.584
14.5169
15.2085
15.4554
15.2644
14.7065
13.9604
13.1554
12.3852
11.71
11.1765
10.8117
10.6484
10.7239
11.1369
12.0005
13.3226
14.9737
16.167
17.771
18.7295
18.1885
16.7748
15.5875
14.8114
14.324
14.0047
13.7904
13.6724
13.6299
13.6203
13.6007
13.5346
13.4049
13.2124
12.9728
12.7045
12.4159
12.103
11.7608
11.3914
11.011
10.6489
10.3332
10.0759
9.87057
9.70291
9.56195
9.44393
9.34901
9.27929
9.23509
9.21315
9.20871
9.21451
9.22208
9.21644
9.18649
9.13976
9.07994
9.01165
8.93882
8.86388
8.78757
8.71308
8.65063
8.6099
8.59367
8.59079
8.58876
8.57937
8.57096
8.57569
8.60454
8.66563
8.75977
8.88203
9.02403
9.17392
9.31881
9.4472
9.54948
9.61761
9.64753
9.63849
9.58789
9.50598
9.40303
9.29059
9.17961
9.07753
8.98855
8.9153
8.85866
8.82014
8.80477
8.81124
8.83943
8.88771
8.95286
9.03165
9.11745
9.20319
9.28248
9.35359
9.41769
9.47568
9.52717
9.56927
9.5987
9.61627
9.62611
9.63023
9.62768
9.62021
9.61762
9.62406
9.64583
9.68702
9.75165
9.84845
9.99571
10.2178
10.5446
11.0471
11.9206
13.59
16.6639
20.5165
0.000999128
0.000997783
0.000999474
0.00100182
0.00100561
0.00101231
0.00102524
0.00105279
0.00122227
0.0562282
1.35139
4.42434
7.12603
9.19736
10.6626
11.6041
12.1092
12.2736
12.2038
11.9848
11.6886
11.3453
10.9794
10.6173
10.2859
10.0062
9.78464
9.60725
9.44959
9.2925
9.12833
8.96057
8.80049
8.65406
8.51807
8.38948
8.27244
8.17507
8.10411
8.06318
8.05437
8.07971
8.14903
8.25922
8.3989
8.55109
8.70377
8.85285
8.99901
9.13669
9.25219
9.33469
9.38308
9.39794
9.37943
9.3267
9.25059
9.16133
9.06632
8.96834
8.86563
8.75134
8.61654
8.45988
8.29452
8.13969
8.00375
7.87976
7.75874
7.63911
7.52233
7.41045
7.30843
7.22205
7.15298
7.09862
7.05604
7.02491
7.00845
7.01134
7.03895
7.0895
7.15354
7.22036
7.2834
7.34162
7.39905
7.4666
7.57118
7.73978
7.97079
8.20941
8.37324
8.41375
8.36091
8.2774
8.24041
8.25601
8.2998
8.33607
8.34326
8.31798
8.25568
8.16918
8.06166
7.93089
7.77789
7.61881
7.53993
7.74552
8.59719
9.51623
10.3761
11.1537
11.8976
12.4993
12.7808
12.7075
12.317
11.7494
11.1247
10.5351
10.0412
9.67988
9.47618
9.45436
9.64221
10.1221
10.9748
12.2026
13.5715
14.5347
14.9799
15.3527
15.3232
14.8049
14.0711
13.4189
12.9268
12.5712
12.304
12.1336
12.0629
12.0568
12.0665
12.0555
11.9944
11.8801
11.7186
11.5261
11.3122
11.0736
10.8025
10.4935
10.1545
9.81192
9.49284
9.2131
8.97432
8.77246
8.60175
8.46029
8.34787
8.26442
8.20761
8.17342
8.15601
8.1521
8.1543
8.15162
8.13414
8.10116
8.05649
8.00223
7.94007
7.87259
7.80232
7.73199
7.66901
7.62114
7.59214
7.57492
7.55704
7.52918
7.49576
7.47029
7.46489
7.48336
7.53078
7.60447
7.70076
7.81299
7.93263
8.05096
8.1592
8.24871
8.31229
8.34502
8.34448
8.31071
8.24886
8.16782
8.07808
7.98875
7.90535
7.83132
7.7689
7.72034
7.69006
7.68287
7.69541
7.73034
7.78364
7.8553
7.9411
8.03492
8.12668
8.21075
8.28666
8.35414
8.41135
8.45523
8.48283
8.49424
8.49408
8.48487
8.46836
8.44715
8.42772
8.41738
8.42053
8.4415
8.48368
8.55369
8.66881
8.855
9.14137
9.56942
10.2501
11.4238
13.3881
15.7085
0.000999097
0.000995847
0.000992588
0.000990109
0.000988669
0.000988883
0.000991429
0.00099891
0.00102177
0.00123028
0.0316471
0.632469
2.77399
4.90739
6.6684
7.99487
8.90183
9.44819
9.71468
9.78692
9.7307
9.5719
9.34469
9.08164
8.81587
8.57226
8.36467
8.19031
8.03569
7.88781
7.74002
7.58971
7.44209
7.30351
7.17472
7.05268
6.93629
6.82813
6.73283
6.65484
6.59736
6.56353
6.55785
6.5844
6.64448
6.72924
6.83036
6.94307
7.06633
7.19738
7.32631
7.44002
7.52956
7.59137
7.62385
7.62748
7.60961
7.57884
7.54367
7.50629
7.46234
7.4038
7.32213
7.21477
7.09086
6.96646
6.85188
6.74397
6.63441
6.52049
6.40428
6.28857
6.17744
6.07612
5.98776
5.91175
5.84579
5.78872
5.7419
5.70895
5.69355
5.69773
5.72057
5.75465
5.79466
5.83718
5.88235
5.93565
6.01675
6.1546
6.36176
6.60328
6.81041
6.92894
6.93853
6.87791
6.80982
6.78225
6.78901
6.80476
6.80931
6.80019
6.77021
6.72114
6.65582
6.57769
6.49323
6.41825
6.40442
6.59711
7.27408
7.99101
8.58477
9.126
9.72434
10.2756
10.5919
10.5996
10.3316
9.8905
9.39991
8.95125
8.6003
8.37299
8.28053
8.32958
8.55641
8.99809
9.71887
10.7513
11.8782
12.7478
13.1462
13.2631
13.2062
13.0007
12.6119
12.1263
11.6371
11.1943
10.8283
10.5745
10.4339
10.3655
10.3354
10.3165
10.2837
10.2199
10.1199
9.9915
9.84324
9.67354
9.47499
9.23957
8.96643
8.67154
8.37593
8.09747
7.84255
7.61713
7.42179
7.25785
7.12472
7.02074
6.94252
6.88612
6.84613
6.82165
6.81043
6.80683
6.80335
6.79352
6.7734
6.74062
6.69445
6.63722
6.57294
6.5052
6.44034
6.3863
6.34932
6.32696
6.30717
6.27628
6.23191
6.18266
6.14037
6.11302
6.10448
6.11542
6.14902
6.20253
6.27361
6.35851
6.45098
6.5424
6.62382
6.68822
6.73041
6.74599
6.73514
6.69759
6.64048
6.57283
6.50261
6.43537
6.37485
6.32383
6.28502
6.26177
6.25543
6.26496
6.29318
6.33846
6.40213
6.4819
6.56957
6.65644
6.7381
6.8116
6.87301
6.91904
6.94875
6.96324
6.96498
6.9595
6.94766
6.93178
6.91584
6.90524
6.90448
6.91793
6.94827
6.99804
7.07829
7.20928
7.41561
7.72339
8.1816
8.89279
9.99558
11.3274
0.000999082
0.000994779
0.000990711
0.000987159
0.000984286
0.000982336
0.000981756
0.000983128
0.000987575
0.000994399
0.00104971
0.00447254
0.143727
0.94254
2.60792
4.0913
5.28895
6.16902
6.76466
7.13772
7.34408
7.41841
7.38818
7.27513
7.12058
6.95559
6.80243
6.66739
6.54566
6.43014
6.31627
6.19881
6.07695
5.95509
5.83747
5.72516
5.61724
5.51321
5.41417
5.32263
5.24157
5.17399
5.12323
5.09319
5.08696
5.10645
5.15062
5.21597
5.30204
5.40664
5.5234
5.64184
5.75077
5.84159
5.90938
5.95269
5.9745
5.9835
5.98783
5.99281
5.99382
5.98613
5.95653
5.89962
5.82025
5.73123
5.64456
5.56253
5.4795
5.39073
5.29556
5.19586
5.09486
4.99666
4.90446
4.81894
4.73916
4.66447
4.59579
4.53575
4.48789
4.45476
4.43692
4.43245
4.43985
4.45692
4.48273
4.5209
4.58244
4.68737
4.85159
5.05816
5.25737
5.41192
5.48351
5.47446
5.42
5.37107
5.35146
5.3515
5.35486
5.35417
5.34686
5.3267
5.29529
5.26068
5.242
5.26366
5.35766
5.5827
6.03488
6.4392
6.75937
7.21253
7.8734
8.51877
8.92001
9
8.82175
8.47828
8.10287
7.78226
7.55796
7.43751
7.41499
7.48595
7.67548
8.00325
8.51337
9.24108
10.1004
10.8822
11.4042
11.638
11.6713
11.603
11.3906
11.0458
10.6085
10.1299
9.68112
9.33322
9.09674
8.92818
8.80407
8.71661
8.65315
8.59467
8.52503
8.43949
8.34072
8.22695
8.08917
7.91923
7.71432
7.48402
7.24351
7.00634
6.77802
6.56268
6.3662
6.19557
6.05307
5.93589
5.83846
5.75573
5.68505
5.62789
5.58681
5.56219
5.55057
5.5459
5.5399
5.52406
5.49293
5.44626
5.38759
5.32123
5.25281
5.19012
5.14168
5.11119
5.09222
5.07004
5.03428
4.98465
4.92882
4.87597
4.83246
4.8016
4.78538
4.78517
4.80361
4.84161
4.89731
4.9642
5.03333
5.09701
5.14997
5.18799
5.20569
5.20184
5.17837
5.13749
5.08733
5.03496
4.98483
4.93995
4.90124
4.87
4.84777
4.83524
4.8328
4.8439
4.871
4.91448
4.97067
5.03345
5.09886
5.16423
5.22556
5.27828
5.32098
5.35312
5.37513
5.38835
5.39581
5.40017
5.40486
5.41366
5.42956
5.45528
5.49098
5.53723
5.59917
5.6894
5.82545
6.02459
6.30606
6.70368
7.27607
7.98553
0.000999125
0.000995117
0.00099092
0.000987042
0.000983446
0.000980271
0.000977708
0.000976088
0.000975639
0.000976584
0.000978702
0.000982916
0.0011174
0.00760443
0.129065
0.631259
1.81582
2.82652
3.64955
4.26916
4.71664
5.01705
5.19046
5.26106
5.26171
5.23042
5.19517
5.16295
5.12778
5.0842
5.03014
4.96248
4.8801
4.78673
4.68841
4.5898
4.49284
4.39788
4.30535
4.2163
4.13244
4.05591
3.98918
3.93471
3.89517
3.87281
3.86935
3.88749
3.92934
3.99296
4.0742
4.16668
4.26224
4.35254
4.43108
4.49348
4.53876
4.57019
4.59403
4.61669
4.63916
4.65538
4.65435
4.6362
4.59568
4.54092
4.48224
4.42513
4.3685
4.30892
4.24396
4.17312
4.09748
4.01916
3.94006
3.86099
3.78222
3.7047
3.63058
3.56265
3.50367
3.45508
3.41698
3.38874
3.36953
3.35884
3.35815
3.37173
3.40787
3.47766
3.59144
3.74296
3.90145
4.04199
4.13482
4.16909
4.16018
4.13384
4.11848
4.11865
4.12331
4.12361
4.12286
4.11641
4.10275
4.09314
4.11061
4.19132
4.33771
4.55515
4.85921
5.09328
5.33838
5.88351
6.68509
7.4099
7.83708
7.93127
7.79152
7.52401
7.25943
7.06362
6.95103
6.90726
6.91122
6.96022
7.0604
7.23176
7.50857
7.92694
8.48026
9.08479
9.62016
10.003
10.2181
10.2692
10.1866
9.95179
9.59481
9.1596
8.71143
8.31994
8.00847
7.75584
7.55336
7.40073
7.29031
7.20712
7.13503
7.06328
6.98832
6.90775
6.81354
6.69556
6.55014
6.38491
6.21234
6.03973
5.86474
5.68469
5.50747
5.34701
5.21164
5.09807
4.99729
4.90212
4.81075
4.72664
4.65485
4.59895
4.55926
4.53339
4.51564
4.49726
4.46951
4.42771
4.37259
4.30777
4.23826
4.17051
4.11187
4.0681
4.03962
4.01789
3.99261
3.95694
3.90976
3.8553
3.80029
3.75012
3.70782
3.67567
3.65633
3.65269
3.66761
3.69836
3.73715
3.77735
3.81433
3.8451
3.86652
3.87147
3.86572
3.84611
3.81551
3.78006
3.7436
3.7093
3.67693
3.64627
3.61812
3.59386
3.57476
3.56227
3.55912
3.56856
3.59029
3.61885
3.65174
3.68872
3.73062
3.77922
3.83192
3.88351
3.92884
3.96631
3.99678
4.02303
4.04922
4.0798
4.11763
4.16326
4.21484
4.27083
4.33249
4.40635
4.50301
4.63346
4.80582
5.02852
5.32205
5.68443
0.000999188
0.000995141
0.000990757
0.000986591
0.000982672
0.000979069
0.000975876
0.000973183
0.000971116
0.000969682
0.000968596
0.000967356
0.000965593
0.000963938
0.00105082
0.00356916
0.0406721
0.257543
0.808579
1.51489
2.08662
2.54878
2.88995
3.13017
3.31948
3.49354
3.65537
3.78784
3.87917
3.9301
3.94579
3.93481
3.89797
3.84133
3.77185
3.69573
3.61706
3.53785
3.45926
3.38249
3.30886
3.23957
3.17592
3.11911
3.07032
3.03143
3.00463
2.99208
2.99475
3.01648
3.05408
3.10429
3.16301
3.22463