/*--------------------------------*- C++ -*----------------------------------*\
  =========                 |
  \\      /  F ield         | OpenFOAM: The Open Source CFD Toolbox
   \\    /   O peration     | Website:  https://openfoam.org
    \\  /    A nd           | Version:  7
     \\/     M anipulation  |
\*---------------------------------------------------------------------------*/
FoamFile
{
    version     2.0;
    format      ascii;
    class       volScalarField;
    location    "400";
    object      nut;
}
// * * * * * * * * * * * * * * * * * * * * * * * * * * * * * * * * * * * * * //

dimensions      [0 2 -1 0 0 0 0];

internalField   nonuniform List<scalar> 
96800
(
0.000136416
0.000136389
0.000136346
0.000136278
0.000136207
0.00013614
0.000136078
0.000136027
0.00013599
0.000135964
0.00013595
0.000135951
0.000135965
0.000135993
0.000136036
0.000136095
0.000136161
0.000136232
0.000136299
0.000136352
0.000136372
0.000136316
0.000136391
0.000136313
0.000136259
0.00013619
0.000136116
0.000136045
0.000135981
0.000135928
0.000135888
0.00013586
0.000135846
0.000135847
0.000135863
0.000135892
0.000135937
0.000135994
0.000136061
0.000136134
0.000136204
0.000136262
0.000136298
0.000136304
0.000136379
0.00013629
0.000136223
0.000136145
0.000136063
0.000135986
0.000135917
0.00013586
0.000135817
0.000135788
0.000135774
0.000135775
0.000135791
0.00013582
0.000135865
0.000135923
0.000135991
0.000136066
0.000136142
0.000136212
0.00013627
0.000136314
0.000136364
0.00013627
0.000136193
0.000136104
0.000136014
0.000135928
0.000135852
0.00013579
0.000135744
0.000135714
0.000135699
0.0001357
0.000135715
0.000135745
0.00013579
0.000135848
0.000135919
0.000135998
0.00013608
0.000136161
0.000136232
0.000136293
0.000136351
0.000136254
0.000136169
0.000136071
0.000135971
0.000135876
0.000135792
0.000135725
0.000135676
0.000135643
0.000135628
0.000135629
0.000135645
0.000135675
0.00013572
0.00013578
0.000135852
0.000135935
0.000136023
0.000136111
0.000136192
0.000136261
0.000136343
0.000136244
0.000136152
0.000136045
0.000135935
0.000135831
0.00013574
0.000135668
0.000135616
0.000135582
0.000135566
0.000135567
0.000135583
0.000135614
0.000135659
0.000135719
0.000135794
0.00013588
0.000135973
0.000136067
0.000136155
0.000136228
0.000136341
0.000136238
0.000136141
0.000136026
0.000135907
0.000135795
0.000135698
0.000135621
0.000135566
0.000135531
0.000135514
0.000135516
0.000135532
0.000135563
0.000135608
0.00013567
0.000135746
0.000135836
0.000135934
0.000136034
0.000136127
0.000136202
0.000136344
0.000136239
0.000136136
0.000136014
0.000135888
0.000135769
0.000135666
0.000135585
0.000135528
0.000135491
0.000135475
0.000135476
0.000135492
0.000135523
0.000135569
0.000135632
0.000135711
0.000135805
0.000135909
0.000136015
0.000136113
0.000136191
0.000136354
0.000136246
0.000136139
0.000136011
0.000135879
0.000135754
0.000135647
0.000135562
0.000135502
0.000135464
0.000135447
0.000135448
0.000135464
0.000135495
0.000135542
0.000135607
0.00013569
0.000135789
0.000135898
0.00013601
0.000136113
0.000136197
0.00013637
0.00013626
0.00013615
0.000136018
0.00013588
0.00013575
0.000135639
0.000135551
0.000135488
0.000135449
0.00013543
0.00013543
0.000135446
0.000135478
0.000135527
0.000135595
0.000135682
0.000135787
0.000135903
0.000136021
0.000136129
0.000136215
0.000136395
0.000136284
0.00013617
0.000136033
0.000135891
0.000135757
0.000135641
0.00013555
0.000135485
0.000135443
0.000135422
0.000135421
0.000135437
0.00013547
0.000135521
0.000135593
0.000135686
0.000135798
0.000135921
0.000136047
0.000136162
0.000136251
0.000136427
0.000136315
0.000136198
0.000136058
0.000135911
0.000135773
0.000135653
0.000135559
0.00013549
0.000135446
0.000135423
0.00013542
0.000135436
0.000135471
0.000135525
0.000135603
0.000135703
0.000135823
0.000135955
0.00013609
0.000136211
0.000136304
0.000136464
0.000136351
0.000136232
0.000136088
0.000135938
0.000135796
0.000135673
0.000135575
0.000135503
0.000135457
0.000135432
0.000135427
0.000135444
0.000135481
0.00013554
0.000135624
0.000135733
0.000135863
0.000136005
0.000136149
0.000136278
0.000136376
0.000136502
0.000136387
0.000136267
0.00013612
0.000135967
0.000135822
0.000135696
0.000135596
0.000135523
0.000135475
0.000135449
0.000135443
0.000135461
0.000135502
0.000135567
0.000135659
0.000135777
0.000135918
0.000136072
0.000136226
0.000136364
0.000136467
0.000136529
0.000136415
0.000136293
0.000136146
0.000135991
0.000135846
0.00013572
0.00013562
0.000135548
0.0001355
0.000135475
0.00013547
0.000135491
0.000135536
0.000135608
0.00013571
0.000135839
0.000135992
0.000136159
0.000136324
0.00013647
0.000136579
0.000136531
0.000136417
0.000136296
0.00013615
0.000135998
0.000135856
0.000135735
0.000135641
0.000135573
0.00013553
0.00013551
0.00013551
0.000135535
0.000135588
0.000135669
0.00013578
0.000135921
0.000136087
0.000136266
0.000136443
0.000136598
0.000136712
0.000136477
0.000136366
0.000136249
0.000136109
0.000135966
0.000135835
0.000135726
0.000135645
0.000135591
0.000135561
0.000135553
0.000135563
0.000135597
0.00013566
0.000135751
0.000135873
0.000136027
0.000136205
0.000136397
0.000136586
0.00013675
0.00013687
0.000136319
0.000136213
0.000136106
0.00013598
0.000135855
0.000135747
0.000135665
0.000135611
0.000135584
0.00013558
0.000135595
0.000135626
0.000135675
0.000135753
0.000135858
0.000135994
0.000136161
0.000136353
0.000136558
0.000136758
0.000136932
0.000137058
0.000135983
0.000135886
0.000135796
0.000135695
0.000135603
0.000135535
0.000135499
0.000135495
0.000135518
0.000135561
0.000135618
0.000135686
0.000135762
0.000135865
0.000135991
0.000136145
0.000136328
0.000136536
0.000136755
0.000136967
0.00013715
0.000137282
0.000135354
0.000135271
0.000135209
0.000135149
0.00013511
0.000135109
0.000135149
0.000135227
0.000135332
0.000135455
0.000135585
0.000135717
0.000135843
0.000135987
0.000136147
0.000136329
0.000136534
0.000136761
0.000136996
0.000137222
0.000137416
0.000137555
0.000134282
0.000134219
0.000134199
0.000134198
0.000134239
0.000134336
0.000134491
0.000134695
0.000134932
0.000135182
0.000135431
0.000135669
0.000135883
0.000136095
0.000136314
0.000136541
0.000136782
0.000137036
0.000137294
0.000137537
0.000137744
0.000137892
0.000132587
0.000132551
0.000132587
0.000132667
0.000132815
0.000133048
0.000133364
0.000133749
0.000134177
0.000134621
0.000135055
0.000135459
0.000135819
0.000136148
0.000136465
0.000136769
0.000137069
0.000137368
0.000137659
0.000137927
0.000138153
0.000138312
0.000130112
0.000130107
0.000130212
0.000130387
0.000130663
0.000131063
0.000131584
0.000132206
0.000132894
0.000133609
0.000134312
0.000134962
0.000135551
0.000136074
0.000136547
0.000136982
0.000137381
0.000137755
0.000138101
0.00013841
0.000138663
0.000138838
0.000126811
0.000126835
0.00012701
0.000127277
0.00012768
0.000128252
0.000128996
0.000129891
0.000130896
0.000131958
0.000133015
0.000134016
0.000134938
0.00013576
0.000136478
0.000137121
0.000137687
0.000138186
0.000138624
0.000138998
0.000139295
0.000139496
0.000122885
0.000122926
0.000123149
0.000123469
0.00012395
0.000124645
0.000125572
0.000126719
0.000128045
0.00012949
0.000130975
0.000132424
0.000133793
0.000135039
0.000136139
0.000137094
0.000137924
0.000138628
0.000139219
0.000139701
0.00014007
0.000140312
0.000118939
0.000118969
0.000119178
0.000119457
0.000119894
0.000120572
0.00012154
0.000122811
0.00012436
0.00012613
0.000128044
0.000129995
0.000131908
0.000133707
0.000135337
0.000136765
0.000137987
0.000139016
0.000139854
0.000140513
0.000141
0.000141307
0.000116035
0.000116008
0.000116096
0.000116177
0.000116364
0.00011678
0.000117517
0.000118632
0.000120143
0.000122023
0.00012421
0.000126605
0.000129083
0.000131527
0.000133834
0.000135917
0.000137725
0.000139238
0.000140465
0.000141409
0.000142087
0.0001425
0.000115532
0.000115391
0.000115222
0.000114906
0.000114583
0.000114411
0.000114534
0.000115071
0.000116106
0.000117676
0.00011977
0.00012232
0.000125208
0.000128278
0.000131352
0.000134269
0.00013689
0.000139125
0.000140938
0.00014233
0.000143314
0.000143897
0.000118677
0.000118368
0.000117806
0.00011691
0.000115832
0.000114755
0.000113866
0.000113346
0.000113358
0.000114028
0.000115434
0.00011759
0.00012044
0.00012385
0.000127611
0.000131465
0.000135131
0.000138387
0.000141085
0.000143163
0.000144631
0.000145483
0.000126216
0.0001257
0.000124651
0.000123054
0.000121062
0.000118866
0.000116674
0.00011471
0.000113199
0.000112358
0.000112371
0.000113372
0.000115429
0.000118526
0.000122528
0.000127154
0.000131997
0.000136595
0.000140575
0.000143711
0.000145932
0.000147212
0.000138367
0.000137624
0.000136041
0.00013369
0.000130728
0.000127338
0.000123727
0.000120125
0.000116786
0.000113987
0.000112003
0.000111089
0.00011146
0.000113273
0.000116594
0.00012132
0.00012707
0.000133185
0.000138909
0.000143624
0.000147028
0.000148983
0.000155161
0.000154173
0.000152027
0.000148898
0.000144958
0.000140386
0.000135379
0.000130146
0.000124929
0.000120007
0.000115698
0.000112344
0.000110285
0.000109837
0.000111288
0.000114854
0.000120515
0.000127747
0.000135458
0.000142379
0.000147589
0.000150609
0.000176844
0.00017558
0.000172817
0.000168857
0.000163907
0.000158163
0.000151817
0.000145058
0.000138092
0.000131155
0.000124533
0.000118577
0.000113695
0.000110325
0.000108914
0.000109928
0.000113823
0.000120738
0.000129874
0.000139353
0.000147137
0.000151796
0.000204158
0.000202559
0.00019908
0.000194171
0.000188108
0.000181123
0.000173428
0.000165207
0.000156637
0.000147899
0.000139202
0.00013082
0.000123123
0.000116597
0.000111791
0.000109316
0.000109884
0.000114319
0.000122941
0.000134302
0.000145147
0.000152146
0.00023844
0.000236431
0.000232092
0.000226061
0.000218706
0.000210314
0.000201138
0.000191379
0.000181207
0.000170766
0.000160196
0.000149664
0.000139423
0.000129865
0.000121548
0.000115178
0.000111578
0.000111827
0.000117263
0.000128163
0.000141459
0.000151287
0.000281647
0.000279124
0.00027377
0.000266428
0.000257569
0.000247545
0.000236651
0.000225116
0.000213119
0.0002008
0.000188267
0.000175622
0.000163004
0.000150653
0.000138978
0.000128641
0.000120553
0.000115867
0.000116226
0.000123523
0.000136907
0.000149197
0.000336141
0.000333005
0.000326522
0.000317724
0.00030718
0.000295298
0.000282402
0.000268733
0.000254483
0.000239807
0.000224833
0.000209668
0.000194417
0.000179208
0.000164265
0.000150053
0.00013739
0.000127492
0.000122038
0.00012351
0.000133635
0.000146647
0.000404605
0.000400812
0.000393164
0.000382851
0.000370518
0.000356599
0.000341411
0.000325182
0.000308103
0.000290353
0.000272115
0.000253574
0.000234904
0.000216247
0.00019772
0.000179548
0.00016227
0.000146972
0.000135397
0.000130124
0.000134324
0.000145388
0.000489907
0.000485446
0.000476681
0.000464893
0.000450759
0.000434676
0.000416913
0.000397652
0.000377068
0.000355372
0.000332824
0.000309731
0.00028642
0.000263181
0.000240182
0.000217521
0.000195394
0.000174499
0.00015647
0.000144043
0.000140971
0.000147675
0.000595074
0.000589969
0.000580217
0.000567089
0.000551209
0.000532866
0.000512222
0.000489388
0.000464527
0.000437894
0.00040985
0.000380851
0.000351421
0.000322075
0.00029319
0.000264933
0.000237284
0.000210431
0.000185556
0.000165495
0.000154539
0.000155434
0.00072314
0.000717451
0.000706912
0.000692647
0.000675118
0.000654405
0.00063051
0.000603464
0.000573436
0.00054076
0.000505926
0.000469567
0.000432421
0.000395262
0.000358747
0.000323295
0.000288906
0.000255363
0.000223151
0.00019484
0.000175457
0.000169858
0.000877106
0.00087092
0.000859834
0.000844683
0.000825606
0.00080236
0.00077474
0.000742707
0.000706481
0.00066652
0.000623491
0.000578236
0.000531727
0.000484994
0.000438988
0.000394459
0.000351655
0.000310215
0.000269917
0.000232659
0.000204114
0.000191635
0.00105986
0.00105328
0.0010419
0.00102614
0.00100559
0.00097957
0.000947622
0.000909669
0.000866046
0.000817408
0.000764656
0.000708884
0.000651325
0.000593264
0.000535914
0.000480353
0.000427193
0.00037622
0.000326725
0.000279709
0.000241114
0.000221359
0.00127415
0.00126728
0.00125583
0.0012397
0.00121789
0.0011887
0.00115167
0.00110669
0.00105428
0.000995408
0.000931276
0.000863284
0.000792952
0.000721821
0.000651324
0.000582811
0.000517271
0.000454839
0.000394651
0.000336835
0.000287209
0.000259644
0.00152274
0.00151575
0.00150463
0.00148827
0.00146546
0.00143253
0.00138952
0.00133619
0.00127342
0.00120258
0.00112528
0.00104327
0.000958385
0.000872414
0.000786973
0.00070362
0.000623666
0.000547689
0.000474982
0.000405034
0.000343346
0.000307219
0.00180878
0.00180177
0.00179146
0.00177549
0.00175107
0.00171448
0.00166442
0.00160126
0.00152637
0.00144166
0.00134924
0.00125127
0.0011499
0.00104717
0.000944859
0.000844684
0.000748223
0.000656492
0.000569175
0.000485469
0.000410572
0.000365284
0.00213675
0.00212996
0.00212112
0.00210622
0.0020803
0.00203983
0.00198145
0.00190688
0.00181798
0.00171733
0.00160759
0.00149139
0.00137123
0.0012494
0.00112788
0.00100855
0.000893212
0.000783295
0.000678993
0.000579568
0.000490152
0.000435176
0.00251328
0.00250701
0.0025007
0.00248789
0.00246111
0.00241648
0.00234859
0.00226105
0.00215615
0.00203721
0.00190756
0.0017703
0.00162835
0.00148433
0.00134048
0.00119894
0.00106176
0.000930737
0.000806637
0.000689097
0.000583571
0.000518395
0.00294873
0.00294346
0.00294128
0.0029322
0.00290552
0.00285682
0.00277852
0.00267646
0.00255342
0.00241353
0.00226076
0.00209878
0.001931
0.00176052
0.00159
0.00142198
0.00125887
0.00110286
0.000955338
0.00081658
0.000692843
0.000616838
0.00345749
0.0034539
0.0034581
0.00345507
0.00342998
0.00337757
0.0032882
0.00317013
0.00302671
0.00286283
0.00268308
0.00249175
0.00229289
0.00209024
0.0018871
0.00168663
0.00149181
0.0013054
0.00112949
0.000965311
0.000820474
0.000732729
0.00405863
0.00405761
0.0040709
0.00407671
0.00405543
0.00399947
0.00389888
0.00376346
0.00359735
0.00340604
0.00319473
0.00296842
0.00273192
0.00248981
0.00224624
0.00200525
0.00177073
0.0015463
0.00133511
0.00113968
0.000969679
0.000868803
0.00477444
0.00477693
0.00480212
0.00481965
0.00480402
0.00474515
0.00463486
0.00448136
0.00429018
0.00406744
0.00381906
0.0035509
0.00326879
0.00297833
0.00268466
0.00239297
0.00210833
0.00183577
0.00157993
0.00134524
0.0011444
0.00102827
0.00562889
0.00563587
0.00567584
0.00570847
0.00570192
0.00564171
0.00552424
0.00535207
0.00513297
0.00487373
0.00458128
0.00426275
0.00392534
0.00357595
0.00322088
0.00286654
0.00251945
0.00218631
0.0018739
0.00158937
0.00134981
0.00121512
0.0066463
0.00665886
0.0067169
0.00676918
0.00677701
0.00671978
0.0065968
0.00640475
0.00615365
0.00585111
0.0055056
0.0051261
0.00472172
0.00430113
0.00387209
0.00344226
0.00301947
0.00261209
0.00222927
0.0018818
0.00159301
0.00143479
0.00785014
0.0078697
0.00794988
0.00802772
0.00805598
0.00800694
0.00788033
0.00766506
0.00737585
0.00702088
0.00661107
0.00615797
0.00567322
0.00516785
0.00465147
0.00413318
0.00362181
0.00312682
0.00265935
0.00223428
0.00188329
0.00169452
0.00926121
0.00928976
0.00939722
0.00950767
0.00956309
0.00952691
0.00939558
0.00915174
0.00881525
0.00839602
0.00790854
0.00736777
0.00678844
0.00618428
0.00556712
0.00494768
0.0043357
0.00374109
0.00317601
0.00265893
0.00223149
0.00200339
0.0108936
0.010934
0.0110751
0.0112261
0.0113151
0.0112949
0.0111537
0.0108731
0.0104769
0.009979
0.00939879
0.00875564
0.00806784
0.00735184
0.00662155
0.0058893
0.00516578
0.00446106
0.00378742
0.00316582
0.00264841
0.00237171
0.0127504
0.0128064
0.0129891
0.013189
0.0133168
0.0133115
0.0131542
0.0128253
0.0123543
0.0117611
0.011072
0.0103117
0.00950273
0.00866403
0.00781097
0.00695688
0.00611301
0.00528949
0.0044984
0.00376227
0.00314361
0.00280991
0.014814
0.0148906
0.0151238
0.0153814
0.0155521
0.0155589
0.015377
0.0149863
0.0144238
0.0137178
0.0129032
0.0120121
0.0110713
0.0101025
0.00912146
0.00814138
0.00717288
0.00622547
0.00531082
0.00445288
0.00372432
0.0033253
0.0170403
0.0171436
0.0174373
0.0177612
0.017979
0.017996
0.0177787
0.017314
0.016643
0.0158071
0.0148522
0.0138187
0.0127391
0.0116374
0.0105293
0.00942619
0.0083361
0.00726607
0.00622629
0.00524214
0.00439759
0.00392557
0.0193451
0.0194814
0.0198448
0.0202437
0.020514
0.0205422
0.0202826
0.019734
0.0189412
0.0179624
0.0168565
0.0156743
0.0144545
0.013224
0.0119979
0.0107844
0.00958648
0.0084054
0.00724683
0.00613648
0.00517133
0.0046231
0.0215967
0.021771
0.0222102
0.0226919
0.0230238
0.0230715
0.0227753
0.0221382
0.0212184
0.0200917
0.0188325
0.0175032
0.0161503
0.0148037
0.0134785
0.012179
0.0109013
0.00963592
0.00837827
0.00715114
0.00606583
0.00544295
0.0236072
0.0238217
0.0243349
0.0249054
0.0253171
0.0254086
0.0250951
0.0243817
0.0233432
0.0220759
0.0206727
0.0192096
0.0177412
0.0163019
0.0149072
0.0135594
0.0122469
0.0109448
0.00963105
0.00832316
0.00714246
0.0064511
0.0251347
0.0253855
0.0259603
0.026626
0.0271525
0.0273368
0.0270487
0.0262933
0.0251616
0.0237764
0.022253
0.0206823
0.0191279
0.0176293
0.0162048
0.0148577
0.0135721
0.0123063
0.0110262
0.00975557
0.00860371
0.0078696
0.0259001
0.0261606
0.0267613
0.0275305
0.0282816
0.028641
0.0284407
0.0276923
0.0265113
0.0250512
0.02345
0.0218119
0.0202068
0.0186871
0.0172775
0.0159834
0.0147931
0.0136676
0.0125911
0.0115954
0.0107969
0.0104287
0.0255452
0.0257883
0.0263886
0.0273775
0.0284445
0.0291144
0.0291123
0.0284401
0.0272593
0.0257661
0.0241279
0.0224674
0.0208668
0.0193754
0.0180293
0.0168326
0.0157963
0.0149148
0.0142054
0.0137686
0.0135676
0.0135875
1.51651e-05
6.06498e-06
8.23778e-06
1.58564e-05
2.05379e-05
2.27076e-05
2.16355e-05
1.7373e-05
0.00135254
0.0159146
0.0234583
0.0270672
0.0285323
0.0288162
0.0284478
0.0277176
0.0267996
0.0257109
0.024667
0.0236548
0.0227031
0.0218245
0.0210229
0.0203029
0.0196741
0.0191468
0.018723
0.0183926
0.0181353
0.01793
0.0177638
0.0176314
0.0175287
0.0174493
0.0173882
0.0173483
0.0173434
0.0173957
0.0175243
0.0176942
0.0179521
0.018349
0.018834
0.0193644
0.0198816
0.0203366
0.0207028
0.0209725
0.0211486
0.0212363
0.0212431
0.0211753
0.0210501
0.0208509
0.0205944
0.0203295
0.020039
0.0197399
0.0194487
0.019179
0.0189353
0.0187151
0.0185114
0.0183227
0.0181617
0.01804
0.0179542
0.0178916
0.0178362
0.017775
0.0177016
0.0176178
0.0175316
0.0174528
0.0173902
0.0173512
0.0173343
0.0173533
0.0174229
0.0175614
0.0177479
0.0179706
0.0182062
0.0184353
0.0186469
0.0188401
0.019025
0.0192229
0.0194599
0.0197513
0.0200682
0.0203381
0.0204877
0.0204917
0.020408
0.0202782
0.0201628
0.0200964
0.0200135
0.0199118
0.0197786
0.0195833
0.0193635
0.0191406
0.0188862
0.0186086
0.0183634
0.0183226
0.0187683
0.0198237
0.022538
0.0236948
0.0246565
0.0261702
0.0277576
0.0288194
0.0290521
0.0284918
0.0273559
0.0258809
0.0242577
0.0226217
0.0210632
0.0196392
0.0183783
0.0172911
0.0164535
0.0158741
0.0154967
0.015491
0.0156824
0.0159442
0.0160143
0.0151897
0.0145105
0.0141935
0.014303
0.0147068
0.0153611
0.0163078
0.0175616
0.018998
0.0204212
0.0216608
0.0225616
0.0230895
0.0232918
0.0232252
0.0229666
0.0225855
0.022124
0.0216107
0.02107
0.0205261
0.0200033
0.0195258
0.0191114
0.0187612
0.018468
0.018222
0.0180194
0.0178691
0.0177818
0.0177646
0.0178179
0.0179055
0.0180342
0.0181615
0.0182463
0.0182577
0.0181789
0.018048
0.0178913
0.0177389
0.0176146
0.0175335
0.0175046
0.0175338
0.0176186
0.0177424
0.0178871
0.0180051
0.0180912
0.0181513
0.0181852
0.0182371
0.0183592
0.0185624
0.018831
0.0191393
0.0194469
0.0197135
0.019909
0.0200183
0.0200397
0.0199776
0.0198483
0.0196578
0.0194086
0.0191628
0.0189253
0.0187066
0.0185192
0.0183723
0.0182722
0.0182221
0.0182236
0.0182808
0.0183931
0.0185204
0.0186592
0.0188523
0.0190807
0.0192966
0.0194842
0.0196297
0.0197268
0.0197788
0.0197955
0.0197898
0.0197739
0.0197562
0.0197414
0.0197334
0.0197352
0.0197438
0.019753
0.0197682
0.0197954
0.0198427
0.0199139
0.0200115
0.0201524
0.0203403
0.0205829
0.0209026
0.0213571
0.0221041
0.0233932
0.0251755
0.0267294
0.0280069
1.15653e-05
1.04208e-05
1.69394e-05
1.79574e-05
1.68815e-05
1.56104e-05
1.48003e-05
1.7045e-05
0.00113969
0.0138738
0.0217823
0.025759
0.0275131
0.0280209
0.0278271
0.0272244
0.0263986
0.0253553
0.0243766
0.0234076
0.0224873
0.0216305
0.0208435
0.0201341
0.019515
0.0189968
0.0185789
0.0182477
0.0179822
0.0177631
0.0175796
0.0174288
0.0173094
0.0172159
0.017143
0.0170935
0.01708
0.0171225
0.0172436
0.0173837
0.0176123
0.0179813
0.0184415
0.0189572
0.01946
0.0199077
0.0202739
0.02055
0.020738
0.0208413
0.0208754
0.02081
0.020694
0.0205038
0.0202739
0.0200132
0.0197337
0.0194471
0.0191672
0.0189061
0.0186686
0.0184505
0.0182447
0.0180527
0.0178889
0.0177662
0.0176817
0.0176203
0.0175658
0.0175064
0.0174355
0.0173546
0.0172724
0.0171948
0.0171331
0.0170921
0.0170775
0.0170829
0.017139
0.0172479
0.0174257
0.0176361
0.0178566
0.0180713
0.0182714
0.0184573
0.0186373
0.0188316
0.0190693
0.0193631
0.019684
0.0199565
0.0201015
0.0201068
0.0200139
0.0199024
0.0198168
0.0197683
0.0197069
0.019614
0.0194666
0.0192762
0.0190568
0.0188191
0.0185697
0.0182914
0.0180366
0.0179604
0.0183348
0.0195659
0.0202061
0.0211682
0.0226676
0.0246726
0.0266248
0.0279305
0.028337
0.0278886
0.0268229
0.0254077
0.0238442
0.0222759
0.0207985
0.0194721
0.0183317
0.0173962
0.016743
0.0162601
0.0161979
0.0163641
0.0164275
0.0164651
0.0161991
0.0155277
0.0147056
0.0142966
0.0143038
0.0146249
0.0151932
0.0160252
0.0171462
0.0184837
0.01986
0.0210774
0.0220046
0.0225914
0.0228553
0.0228488
0.0226435
0.0223049
0.0218784
0.0213924
0.0208708
0.0203372
0.0198181
0.0193414
0.018928
0.0185811
0.0182904
0.0180442
0.0178388
0.0176795
0.0175755
0.0175356
0.0175623
0.0176426
0.0177517
0.0178695
0.0179512
0.017964
0.0178989
0.0177941
0.0176371
0.0174866
0.0173599
0.0172721
0.0172328
0.0172501
0.0173228
0.0174403
0.0175818
0.0176995
0.0177862
0.0178475
0.0178865
0.0179389
0.0180551
0.0182269
0.0184805
0.0187743
0.019073
0.0193381
0.0195391
0.0196596
0.0197
0.0196576
0.0195358
0.0193531
0.0191215
0.018873
0.0186392
0.0184245
0.0182389
0.0180912
0.0179873
0.0179302
0.0179224
0.0179722
0.018078
0.0182
0.0183245
0.0184957
0.0187205
0.0189382
0.019131
0.0192845
0.0193919
0.0194557
0.0194844
0.0194894
0.0194817
0.0194692
0.0194542
0.0194417
0.0194385
0.0194433
0.019453
0.0194665
0.0194906
0.019538
0.0195973
0.0196886
0.0198253
0.0200073
0.0202455
0.0205622
0.0210084
0.0217295
0.0229797
0.0247777
0.026419
0.0274313
9.00598e-06
9.24817e-06
9.46369e-06
9.61018e-06
9.66746e-06
9.74689e-06
1.00843e-05
1.06143e-05
0.000113945
0.00535245
0.0163308
0.0215803
0.0242907
0.0255134
0.0258545
0.0256528
0.0251028
0.0243506
0.0234883
0.0226383
0.0218059
0.021009
0.0202613
0.0195787
0.0189797
0.0184772
0.0180684
0.0177351
0.0174542
0.0172082
0.01699
0.0168022
0.0166483
0.0165238
0.0164217
0.0163423
0.0162961
0.0162978
0.0163618
0.0164712
0.0166328
0.0169074
0.0172819
0.0177275
0.0181825
0.0186068
0.018972
0.0192664
0.0194887
0.0196337
0.0197006
0.019693
0.0196263
0.019488
0.0192908
0.019077
0.0188383
0.0185898
0.0183438
0.0181092
0.0178894
0.0176807
0.0174761
0.0172792
0.0171073
0.0169765
0.0168847
0.016816
0.0167547
0.0166913
0.0166198
0.0165405
0.016461
0.0163857
0.016323
0.016275
0.0162431
0.0162311
0.0162484
0.0163272
0.0164634
0.0166347
0.0168187
0.0170007
0.0171724
0.017334
0.0174939
0.0176728
0.017903
0.0182017
0.0185398
0.0188354
0.0190002
0.0190178
0.0189531
0.0188638
0.0188173
0.0187857
0.0187473
0.0186714
0.0185489
0.0183622
0.018147
0.0179231
0.0176774
0.0174067
0.0171371
0.0169653
0.0170934
0.0178976
0.0189681
0.0200036
0.0214943
0.0233885
0.0252866
0.0266333
0.0271099
0.0267902
0.0258246
0.0245018
0.0230304
0.0215609
0.0201917
0.0189842
0.017966
0.0171944
0.0166162
0.0163336
0.0163507
0.0165464
0.0166634
0.0165051
0.0160704
0.0154661
0.0149412
0.0144436
0.0142773
0.0143912
0.0147286
0.0152777
0.0160723
0.0171152
0.018306
0.0194757
0.0204609
0.0211663
0.0215751
0.0217177
0.0216506
0.0214327
0.0211077
0.0207036
0.0202425
0.0197468
0.0192465
0.0187756
0.0183599
0.0180067
0.0177074
0.0174503
0.0172299
0.0170486
0.0169129
0.0168299
0.0168051
0.01684
0.0169186
0.0170089
0.0170882
0.0171195
0.0170772
0.0169886
0.0168665
0.016732
0.0166054
0.0165038
0.0164394
0.0164229
0.0164586
0.0165401
0.0166537
0.0167658
0.0168568
0.0169147
0.016958
0.0169984
0.0170817
0.0172225
0.0174231
0.0176696
0.0179357
0.0181888
0.018399
0.0185462
0.0186207
0.0186187
0.0185478
0.0184178
0.0182176
0.0179997
0.0177856
0.017582
0.0173995
0.0172468
0.0171299
0.017052
0.0170149
0.0170238
0.0170885
0.017185
0.0172984
0.0174612
0.0176585
0.0178703
0.0180732
0.0182479
0.0183826
0.0184764
0.0185354
0.0185676
0.0185805
0.0185789
0.0185657
0.0185472
0.0185319
0.0185224
0.0185169
0.0185213
0.0185393
0.0185645
0.0186198
0.0187042
0.0188241
0.0189875
0.0192111
0.019519
0.0199461
0.0206001
0.0217055
0.0233735
0.0250253
0.0257818
8.99654e-06
9.01594e-06
9.04257e-06
9.07134e-06
9.11033e-06
9.16705e-06
9.25495e-06
9.40528e-06
1.02612e-05
0.000356913
0.00652436
0.0143246
0.0185908
0.0209954
0.0222386
0.0227257
0.0227066
0.0223555
0.0218216
0.021164
0.0204953
0.019813
0.0191431
0.0185122
0.0179457
0.0174609
0.0170594
0.0167245
0.0164338
0.0161716
0.0159319
0.0157175
0.0155342
0.0153811
0.0152504
0.0151386
0.0150509
0.0149974
0.0149885
0.015029
0.0151212
0.0152688
0.0155109
0.0158286
0.01619
0.0165574
0.0169016
0.0172067
0.0174662
0.0176704
0.0178084
0.0178772
0.0178835
0.017827
0.0177156
0.0175549
0.0173799
0.0171917
0.0170003
0.0168122
0.0166287
0.0164456
0.0162575
0.0160675
0.0158919
0.0157485
0.0156396
0.0155519
0.0154716
0.0153916
0.0153081
0.0152205
0.0151339
0.0150548
0.0149866
0.0149291
0.0148824
0.0148509
0.0148428
0.0148664
0.0149437
0.0150578
0.0151936
0.015336
0.0154756
0.0156097
0.0157436
0.0158957
0.0161027
0.016394
0.0167521
0.0170946
0.0173232
0.0173916
0.0173534
0.0172748
0.0172174
0.0171964
0.0171746
0.0171214
0.0170235
0.0168835
0.0166918
0.0165004
0.016289
0.0160556
0.0158104
0.0156042
0.0156271
0.0160947
0.0173433
0.0185988
0.0200197
0.0217392
0.0235892
0.0250293
0.0256537
0.0254733
0.0246351
0.0234262
0.0220678
0.0207196
0.0194809
0.0184034
0.0175281
0.0168467
0.016348
0.016132
0.0161697
0.0163636
0.0164921
0.0163387
0.0159384
0.015438
0.0149887
0.0145454
0.0142783
0.0141744
0.014232
0.0144473
0.0148582
0.015517
0.016395
0.017379
0.018304
0.0190639
0.0195879
0.0198864
0.0199827
0.0199204
0.0197377
0.0194588
0.0191021
0.0186844
0.0182338
0.0177864
0.0173719
0.0170049
0.016685
0.0164069
0.0161655
0.0159614
0.0157981
0.0156809
0.0156144
0.0155975
0.0156224
0.0156739
0.0157293
0.0157634
0.0157542
0.0157011
0.0156152
0.0155081
0.0153934
0.0152866
0.0152015
0.0151496
0.0151404
0.0151769
0.0152522
0.0153435
0.0154248
0.015479
0.0155113
0.0155402
0.0155832
0.0156529
0.0157786
0.0159463
0.0161456
0.0163559
0.0165535
0.0167176
0.0168331
0.0168904
0.0168871
0.016826
0.016711
0.0165507
0.0163712
0.0161917
0.016019
0.0158638
0.0157328
0.015631
0.0155619
0.0155299
0.0155422
0.0156015
0.0156809
0.0158087
0.0159727
0.0161621
0.0163614
0.0165517
0.0167152
0.0168441
0.0169393
0.0170044
0.0170429
0.0170578
0.0170528
0.0170344
0.017012
0.0169895
0.0169769
0.0169724
0.0169805
0.0170064
0.0170479
0.0171197
0.0172267
0.0173702
0.0175692
0.0178482
0.018234
0.018786
0.0196556
0.0209876
0.0224322
0.0231016
8.99437e-06
8.99835e-06
9.00155e-06
9.00775e-06
9.02254e-06
9.04544e-06
9.07555e-06
9.13503e-06
9.27662e-06
1.04648e-05
0.000200236
0.00288171
0.0100775
0.0142248
0.0167708
0.0182671
0.0190288
0.0192853
0.0192095
0.0189263
0.0185335
0.018034
0.017511
0.0169799
0.0164774
0.0160299
0.0156495
0.0153289
0.0150507
0.0147999
0.0145687
0.0143545
0.0141617
0.013993
0.0138447
0.0137118
0.0135936
0.0134947
0.0134225
0.0133835
0.0133832
0.0134283
0.0135288
0.0136919
0.0139242
0.0141936
0.0144803
0.0147667
0.0150419
0.0152934
0.0155037
0.0156582
0.0157516
0.0157844
0.0157582
0.0156798
0.0155717
0.0154463
0.0153174
0.0151865
0.0150524
0.0149102
0.0147532
0.0145834
0.0144139
0.0142629
0.0141385
0.0140331
0.0139348
0.0138376
0.0137396
0.0136406
0.0135438
0.0134547
0.0133767
0.0133089
0.0132495
0.0131992
0.0131631
0.0131488
0.0131626
0.0132089
0.0132932
0.0133897
0.0134953
0.0136037
0.0137156
0.0138431
0.0140185
0.01428
0.0146293
0.0149994
0.015294
0.0154492
0.0154589
0.015388
0.0153104
0.0152619
0.0152411
0.0152091
0.0151432
0.0150551
0.0149271
0.0147811
0.0146223
0.0144513
0.014283
0.014157
0.0141854
0.0146018
0.0156484
0.016736
0.0179866
0.0197048
0.0217589
0.0234628
0.0243058
0.0242767
0.0235716
0.0224803
0.0212525
0.0200525
0.0189693
0.0180363
0.0172827
0.016639
0.0161922
0.0159399
0.0158917
0.0159952
0.0160711
0.015952
0.0156562
0.0152682
0.0149018
0.0145844
0.0142847
0.0140398
0.0138601
0.0137721
0.0138322
0.0141068
0.0146009
0.0152467
0.015952
0.0166236
0.0171832
0.017589
0.0178304
0.0179252
0.0178989
0.0177688
0.0175483
0.0172468
0.0168858
0.0164976
0.0161139
0.0157565
0.0154329
0.0151462
0.0148946
0.0146785
0.0144986
0.0143563
0.0142519
0.0141839
0.0141488
0.014143
0.014157
0.0141746
0.0141799
0.014161
0.0141123
0.0140353
0.0139376
0.0138318
0.0137313
0.0136483
0.0135953
0.0135829
0.0136149
0.0136803
0.0137542
0.0138113
0.0138426
0.0138554
0.0138636
0.0138809
0.0139199
0.0139837
0.0140936
0.0142265
0.0143739
0.0145217
0.0146536
0.0147542
0.0148125
0.0148234
0.014786
0.0147002
0.0145837
0.0144397
0.0142896
0.0141412
0.0140044
0.0138864
0.0137925
0.013727
0.0136945
0.0136991
0.0137375
0.0138024
0.0139139
0.0140549
0.0142213
0.0144009
0.0145746
0.0147277
0.0148543
0.0149524
0.0150211
0.0150618
0.015079
0.0150789
0.0150681
0.0150586
0.0150544
0.0150575
0.0150726
0.0151053
0.0151565
0.0152328
0.0153455
0.0154798
0.0156534
0.015888
0.0162059
0.0166363
0.0172532
0.0181695
0.0192742
0.0199224
8.99918e-06
8.99642e-06
8.99578e-06
8.99707e-06
9.00186e-06
9.01077e-06
9.025e-06
9.05618e-06
9.09791e-06
9.12526e-06
9.47828e-06
2.96857e-05
0.000809852
0.00431928
0.00908706
0.0119713
0.0138381
0.0149514
0.0155398
0.015778
0.0157798
0.0156134
0.0153427
0.0149713
0.0146012
0.0142554
0.0139619
0.0137208
0.0135155
0.0133293
0.0131523
0.012977
0.0128045
0.0126399
0.0124863
0.0123434
0.0122093
0.0120847
0.0119727
0.0118785
0.0118073
0.0117649
0.0117584
0.0117956
0.0118806
0.0120181
0.0122094
0.012429
0.0126722
0.0129264
0.0131721
0.0133871
0.0135543
0.0136648
0.0137168
0.0137142
0.0136684
0.0135999
0.0135194
0.0134365