/*--------------------------------*- C++ -*----------------------------------*\
  =========                 |
  \\      /  F ield         | OpenFOAM: The Open Source CFD Toolbox
   \\    /   O peration     | Website:  https://openfoam.org
    \\  /    A nd           | Version:  7
     \\/     M anipulation  |
\*---------------------------------------------------------------------------*/
FoamFile
{
    version     2.0;
    format      ascii;
    class       volScalarField;
    location    "400";
    object      p;
}
// * * * * * * * * * * * * * * * * * * * * * * * * * * * * * * * * * * * * * //

dimensions      [0 2 -2 0 0 0 0];

internalField   nonuniform List<scalar> 
96800
(
49.8051
49.8051
49.8051
49.8051
49.8051
49.8051
49.8051
49.8051
49.8052
49.8052
49.8053
49.8053
49.8054
49.8055
49.8055
49.8056
49.8056
49.8057
49.8057
49.8058
49.8058
49.8058
49.8051
49.8051
49.8051
49.805
49.8051
49.8051
49.8051
49.8051
49.8051
49.8052
49.8052
49.8053
49.8054
49.8055
49.8055
49.8056
49.8056
49.8057
49.8057
49.8058
49.8058
49.8058
49.805
49.805
49.805
49.805
49.805
49.8051
49.8051
49.8051
49.8051
49.8052
49.8052
49.8053
49.8054
49.8054
49.8055
49.8056
49.8056
49.8057
49.8057
49.8057
49.8058
49.8058
49.805
49.805
49.805
49.805
49.805
49.805
49.8051
49.8051
49.8051
49.8052
49.8052
49.8053
49.8053
49.8054
49.8055
49.8055
49.8056
49.8056
49.8057
49.8057
49.8057
49.8058
49.8049
49.8049
49.8049
49.805
49.805
49.805
49.805
49.805
49.8051
49.8051
49.8052
49.8052
49.8053
49.8053
49.8054
49.8055
49.8055
49.8056
49.8056
49.8057
49.8057
49.8057
49.8048
49.8049
49.8049
49.8049
49.8049
49.8049
49.805
49.805
49.805
49.8051
49.8051
49.8052
49.8052
49.8053
49.8054
49.8054
49.8055
49.8055
49.8056
49.8056
49.8056
49.8056
49.8048
49.8048
49.8048
49.8048
49.8048
49.8049
49.8049
49.8049
49.805
49.805
49.8051
49.8051
49.8052
49.8052
49.8053
49.8054
49.8054
49.8055
49.8055
49.8056
49.8056
49.8056
49.8046
49.8047
49.8047
49.8047
49.8047
49.8048
49.8048
49.8048
49.8049
49.8049
49.805
49.8051
49.8051
49.8052
49.8052
49.8053
49.8054
49.8054
49.8055
49.8055
49.8055
49.8055
49.8045
49.8045
49.8045
49.8046
49.8046
49.8046
49.8047
49.8047
49.8048
49.8049
49.8049
49.805
49.8051
49.8051
49.8052
49.8053
49.8053
49.8054
49.8054
49.8054
49.8054
49.8054
49.8044
49.8044
49.8044
49.8044
49.8045
49.8045
49.8045
49.8046
49.8047
49.8048
49.8048
49.8049
49.805
49.8051
49.8051
49.8052
49.8053
49.8053
49.8053
49.8054
49.8054
49.8054
49.8042
49.8042
49.8042
49.8043
49.8043
49.8043
49.8044
49.8045
49.8046
49.8046
49.8047
49.8048
49.8049
49.805
49.8051
49.8051
49.8052
49.8052
49.8053
49.8053
49.8053
49.8053
49.804
49.804
49.804
49.8041
49.8041
49.8042
49.8043
49.8043
49.8044
49.8045
49.8046
49.8047
49.8048
49.8049
49.805
49.8051
49.8051
49.8052
49.8052
49.8053
49.8053
49.8053
49.8038
49.8038
49.8038
49.8039
49.8039
49.804
49.8041
49.8042
49.8043
49.8044
49.8045
49.8046
49.8047
49.8048
49.8049
49.805
49.8051
49.8051
49.8052
49.8052
49.8052
49.8052
49.8035
49.8035
49.8036
49.8036
49.8037
49.8038
49.8039
49.804
49.8041
49.8043
49.8044
49.8045
49.8046
49.8048
49.8049
49.805
49.805
49.8051
49.8052
49.8052
49.8052
49.8052
49.8033
49.8033
49.8033
49.8034
49.8035
49.8036
49.8037
49.8038
49.804
49.8041
49.8043
49.8044
49.8045
49.8047
49.8048
49.8049
49.805
49.8051
49.8052
49.8052
49.8052
49.8052
49.803
49.803
49.8031
49.8031
49.8032
49.8034
49.8035
49.8036
49.8038
49.804
49.8041
49.8043
49.8044
49.8046
49.8047
49.8049
49.805
49.8051
49.8052
49.8052
49.8053
49.8053
49.8027
49.8028
49.8028
49.8029
49.803
49.8031
49.8033
49.8034
49.8036
49.8038
49.804
49.8042
49.8043
49.8045
49.8047
49.8048
49.805
49.8051
49.8052
49.8052
49.8053
49.8053
49.8024
49.8025
49.8025
49.8026
49.8027
49.8029
49.803
49.8032
49.8034
49.8036
49.8038
49.804
49.8042
49.8044
49.8046
49.8048
49.805
49.8051
49.8052
49.8053
49.8053
49.8054
49.8022
49.8022
49.8022
49.8023
49.8025
49.8026
49.8028
49.803
49.8032
49.8034
49.8037
49.8039
49.8042
49.8044
49.8046
49.8048
49.805
49.8051
49.8052
49.8053
49.8054
49.8054
49.8018
49.8019
49.8019
49.802
49.8022
49.8023
49.8025
49.8028
49.803
49.8033
49.8035
49.8038
49.8041
49.8043
49.8046
49.8048
49.805
49.8051
49.8053
49.8054
49.8055
49.8055
49.8015
49.8015
49.8016
49.8017
49.8018
49.802
49.8023
49.8025
49.8028
49.8031
49.8034
49.8037
49.804
49.8043
49.8045
49.8048
49.805
49.8052
49.8054
49.8055
49.8056
49.8056
49.8011
49.8011
49.8012
49.8013
49.8015
49.8017
49.802
49.8023
49.8026
49.8029
49.8032
49.8035
49.8039
49.8042
49.8045
49.8048
49.8051
49.8053
49.8055
49.8056
49.8057
49.8058
49.8007
49.8007
49.8008
49.8009
49.8011
49.8014
49.8017
49.802
49.8023
49.8027
49.803
49.8034
49.8038
49.8042
49.8045
49.8049
49.8052
49.8054
49.8056
49.8058
49.8059
49.806
49.8002
49.8002
49.8003
49.8005
49.8007
49.801
49.8013
49.8017
49.802
49.8024
49.8029
49.8033
49.8037
49.8042
49.8046
49.805
49.8053
49.8056
49.8058
49.806
49.8061
49.8062
49.7997
49.7997
49.7998
49.8
49.8003
49.8006
49.8009
49.8013
49.8017
49.8022
49.8027
49.8032
49.8037
49.8042
49.8046
49.8051
49.8055
49.8058
49.8061
49.8063
49.8064
49.8065
49.7991
49.7991
49.7993
49.7995
49.7997
49.8001
49.8005
49.8009
49.8014
49.802
49.8025
49.8031
49.8037
49.8042
49.8048
49.8053
49.8057
49.8061
49.8064
49.8067
49.8068
49.8069
49.7984
49.7985
49.7986
49.7989
49.7992
49.7996
49.8
49.8005
49.8011
49.8017
49.8023
49.803
49.8036
49.8043
49.8049
49.8055
49.806
49.8065
49.8068
49.8071
49.8073
49.8074
49.7976
49.7977
49.7979
49.7982
49.7985
49.799
49.7995
49.8001
49.8007
49.8014
49.8021
49.8029
49.8037
49.8044
49.8051
49.8058
49.8064
49.8069
49.8074
49.8077
49.8079
49.8081
49.7968
49.7969
49.7971
49.7974
49.7978
49.7983
49.7989
49.7996
49.8003
49.8011
49.802
49.8028
49.8037
49.8046
49.8054
49.8061
49.8069
49.8075
49.808
49.8084
49.8087
49.8088
49.7957
49.7958
49.7961
49.7964
49.7969
49.7975
49.7982
49.799
49.7999
49.8008
49.8018
49.8028
49.8038
49.8048
49.8057
49.8066
49.8074
49.8081
49.8087
49.8092
49.8095
49.8097
49.7944
49.7945
49.7948
49.7952
49.7958
49.7965
49.7974
49.7983
49.7993
49.8004
49.8015
49.8027
49.8038
49.805
49.8061
49.8071
49.8081
49.8089
49.8096
49.8102
49.8106
49.8108
49.7927
49.7929
49.7932
49.7937
49.7944
49.7953
49.7963
49.7974
49.7986
49.7999
49.8012
49.8026
49.8039
49.8053
49.8066
49.8078
49.8089
49.8099
49.8107
49.8114
49.8118
49.8121
49.7906
49.7908
49.7912
49.7918
49.7927
49.7937
49.7949
49.7963
49.7977
49.7993
49.8008
49.8024
49.804
49.8056
49.8071
49.8085
49.8099
49.811
49.812
49.8128
49.8134
49.8136
49.7879
49.7881
49.7886
49.7894
49.7904
49.7917
49.7932
49.7948
49.7966
49.7984
49.8003
49.8022
49.8041
49.8059
49.8077
49.8094
49.811
49.8124
49.8135
49.8145
49.8152
49.8155
49.7843
49.7845
49.7852
49.7862
49.7875
49.7891
49.7909
49.7929
49.795
49.7973
49.7995
49.8018
49.8041
49.8063
49.8084
49.8104
49.8122
49.8139
49.8153
49.8165
49.8173
49.8177
49.7796
49.78
49.7808
49.7821
49.7837
49.7857
49.7879
49.7904
49.793
49.7958
49.7985
49.8013
49.804
49.8066
49.8091
49.8115
49.8137
49.8157
49.8174
49.8188
49.8198
49.8203
49.7737
49.774
49.7751
49.7767
49.7787
49.7812
49.7841
49.7872
49.7904
49.7938
49.7972
49.8006
49.8038
49.807
49.81
49.8128
49.8154
49.8178
49.8198
49.8215
49.8228
49.8234
49.7657
49.7662
49.7675
49.7695
49.7722
49.7754
49.779
49.7829
49.787
49.7912
49.7954
49.7996
49.8036
49.8075
49.8111
49.8145
49.8176
49.8204
49.8228
49.8248
49.8263
49.8271
49.7552
49.7558
49.7576
49.7602
49.7636
49.7677
49.7723
49.7772
49.7824
49.7877
49.793
49.7983
49.8033
49.8081
49.8125
49.8166
49.8203
49.8237
49.8265
49.8289
49.8306
49.8316
49.7413
49.742
49.7443
49.7477
49.7521
49.7574
49.7633
49.7697
49.7764
49.7832
49.7899
49.7965
49.8029
49.8088
49.8143
49.8194
49.8238
49.8278
49.8312
49.834
49.836
49.8372
49.7229
49.7238
49.7267
49.7312
49.7369
49.7438
49.7515
49.7597
49.7684
49.7771
49.7858
49.7943
49.8023
49.8098
49.8167
49.8229
49.8284
49.8331
49.8372
49.8405
49.8428
49.8442
49.6985
49.6996
49.7034
49.7092
49.7167
49.7256
49.7357
49.7465
49.7577
49.7691
49.7803
49.7912
49.8015
49.8111
49.8197
49.8275
49.8343
49.8401
49.8449
49.8488
49.8515
49.8532
49.6664
49.6676
49.6726
49.6802
49.69
49.7017
49.7148
49.729
49.7436
49.7584
49.773
49.7871
49.8003
49.8126
49.8236
49.8334
49.8419
49.8491
49.855
49.8596
49.8629
49.8646
49.6241
49.6256
49.6321
49.6421
49.655
49.6703
49.6875
49.7059
49.7251
49.7443
49.7633
49.7815
49.7986
49.8144
49.8286
49.8411
49.8518
49.8608
49.868
49.8736
49.8775
49.8796
49.5689
49.5707
49.5791
49.5921
49.6091
49.6293
49.6518
49.6758
49.7008
49.7259
49.7505
49.7741
49.7962
49.8165
49.8347
49.8507
49.8644
49.8757
49.8848
49.8916
49.8964
49.8989
49.4969
49.4991
49.5101
49.5271
49.5494
49.5758
49.6053
49.6367
49.6692
49.7019
49.7338
49.7643
49.7928
49.8189
49.8422
49.8627
49.8802
49.8946
49.9061
49.9147
49.9206
49.9237
49.4037
49.4062
49.4204
49.4426
49.4718
49.5064
49.545
49.586
49.6283
49.6706
49.7119
49.7511
49.7878
49.8212
49.8511
49.8774
49.8998
49.9183
49.933
49.944
49.9515
49.9554
49.2834
49.286
49.3043
49.3332
49.3713
49.4167
49.4671
49.5206
49.5754
49.6301
49.6832
49.7335
49.7804
49.8232
49.8615
49.8951
49.9238
49.9476
49.9665
49.9807
49.9904
49.9954
49.1281
49.1305
49.1539
49.1914
49.2414
49.3007
49.3665
49.4361
49.5071
49.5775
49.6455
49.7099
49.7697
49.8243
49.8731
49.916
49.9527
49.9833
50.0078
50.0262
50.0388
50.0454
48.9274
48.9293
48.9591
49.0077
49.073
49.1507
49.2365
49.3269
49.4186
49.509
49.5961
49.6783
49.7543
49.8236
49.8856
49.9401
49.987
50.0262
50.0578
50.0818
50.0984
50.1069
48.6674
48.6682
48.7059
48.7689
48.8542
48.9562
49.0683
49.1856
49.3041
49.4202
49.5314
49.6358
49.7321
49.8195
49.8979
49.9669
50.0265
50.0768
50.1175
50.1487
50.1706
50.1817
48.3293
48.3283
48.3762
48.4577
48.5695
48.7034
48.8504
49.0031
49.1561
49.305
49.4466
49.5787
49.7
49.8099
49.9083
49.9952
50.0707
50.1347
50.1871
50.2278
50.2565
50.2711
47.8877
47.8848
47.9463
48.0523
48.1994
48.3759
48.5689
48.7679
48.9656
49.1563
49.3359
49.5023
49.6542
49.7913
49.9142
50.023
50.118
50.1992
50.2664
50.3192
50.357
50.376
47.3089
47.3057
47.3857
47.5252
47.7199
47.9535
48.2075
48.4669
48.7217
48.9649
49.1918
49.4
49.5888
49.7588
49.9112
50.0466
50.1655
50.2681
50.3538
50.4222
50.4716
50.4963
46.5492
46.5496
46.6558
46.8416
47.1012
47.4114
47.746
48.0837
48.4114
48.7201
49.0049
49.2635
49.4963
49.7053
49.8927
50.06
50.2079
50.3366
50.4456
50.5336
50.5981
50.6301
45.5521
45.563
45.7067
45.9571
46.3055
46.7188
47.1596
47.5988
48.019
48.4091
48.7638
49.0823
49.3668
49.621
49.8488
50.053
50.2352
50.3956
50.5335
50.6466
50.7308
50.7723
44.2428
44.2777
44.4755
44.8163
45.2862
45.8379
46.4193
46.9903
47.5275
48.0177
48.4563
48.8445
49.1879
49.4926
49.7651
50.0105
50.2318
50.4301
50.6037
50.749
50.8592
50.9136
42.5217
42.6073
42.8812
43.35
43.9874
44.7261
45.4936
46.2352
46.9195
47.5312
48.0682
48.5358
48.9436
49.302
49.6217
49.9108
50.1754
50.4176
50.6347
50.8206
50.9645
51.0383
40.276
40.4229
40.8209
41.4749
42.3461
43.3391
44.3531
45.3134
46.1796
46.936
47.585
48.1388
48.6133
49.0256
49.3915
49.7246
50.035
50.3263
50.5946
50.8288
51.0059
51.1219
37.324
37.5968
38.1764
39.0967
40.2946
41.6339
42.9731
44.2105
45.2968
46.2197
46.9908
47.6325
48.1712
48.6323
49.0392
49.4125
49.7675
50.1116
50.4401
50.735
50.9668
51.0937
33.4698
33.9617
34.8177
36.1223
37.7739
39.5806
41.3423
42.9236
44.2681
45.3741
46.2698
46.9939
47.5867
48.0844
48.52
48.922
49.3138
49.7113
50.1112
50.4713
50.7523
50.8763
28.4848
29.4051
30.644
32.4937
34.7523
37.1736
39.472
41.4659
43.099
44.3934
45.4048
46.1958
46.8236
47.3367
47.777
48.1815
48.5871
49.0333
49.5369
49.9651
50.2761
50.3595
22.1601
23.8524
25.6335
28.299
31.2733
34.4566
37.4118
39.8745
41.8057
43.2736
44.3765
45.2072
45.8413
46.3379
46.743
47.0973
47.452
47.9113
48.6637
49.1489
49.3073
48.9276
15.3915
17.4021
19.887
24.1032
27.4963
31.5322
35.2652
38.2158
40.4135
42.0099
43.1614
43.994
44.5986
45.0383
45.3514
45.5629
45.6963
45.8028
44.6731
43.6061
42.5925
42.8125
-11.3469
-11.3457
1.66668
14.182
22.1584
28.5316
33.223
36.5872
38.9473
40.5877
41.7277
42.5195
43.0599
43.4027
43.5645
43.5236
43.1824
42.2087
41.029
38.7974
35.7332
33.4285
-30.9529
-21.9524
1.69357
11.606
19.8116
26.6988
31.6681
35.0972
37.42
38.9898
40.0526
40.7637
41.2112
41.431
41.4077
41.0726
40.2602
38.6323
35.7386
30.3574
19.673
2.51815
-6.97367
38.8012
33.405
32.1411
31.9737
32.0586
32.3319
32.5293
30.5581
29.4818
27.8343
26.0652
25.1553
24.5695
24.3296
24.1831
23.915
23.6545
23.3843
23.1307
23.0664
23.0147
23.0325
23.0485
23.065
23.0891
23.1276
23.1419
23.1123
23.0007
22.8952
22.7235
22.7316
22.7481
22.8222
22.9098
22.9946
23.0841
23.1353
23.1309
23.1079
23.0838
23.0752
23.067
23.0647
23.0669
23.1272
23.202
23.2364
23.2788
23.3013
23.2479
23.0588
22.9305
22.7548
22.5644
22.3758
22.195
22.0217
21.8897
21.6935
21.4397
21.1575
20.9052
20.6818
20.524
20.5427
20.522
20.5522
20.584
20.6157
20.626
20.7066
20.7976
20.8784
20.9397
21.0022
21.0795
21.1915
21.3351
21.4897
21.6538
21.8252
22.0001
22.1858
22.396
22.6169
22.8113
22.9873
22.9312
22.9261
22.6392
22.224
21.8141
21.4724
21.4967
21.7056
21.997
22.2847
22.4742
22.6067
22.7851
22.9774
23.1356
23.5817
24.0014
24.5183
24.1544
22.764
15.4043
-133.148
-0.0176261
2.20336
12.8293
19.9071
26.2003
30.6608
33.723
35.7864
37.1783
38.115
38.7252
39.0741
39.1682
38.9643
38.3393
37.018
34.4229
29.309
18.7547
-5.8661
-73.9071
-333.501
-124.531
-34.2996
-25.9671
-19.3595
-13.9167
-9.69679
-6.496
-4.1327
-2.41197
-1.06582
0.244165
1.49841
2.72631
3.84604
4.83387
5.52856
6.07675
6.47375
6.6891
6.83426
6.93341
6.97205
7.2184
7.50445
7.84633
8.21296
8.55342
8.82267
8.97903
9.01392
9.02919
8.99565
8.94022
8.88644
8.77847
8.76441
8.78282
8.80029
8.7956
8.67799
8.54974
8.39885
8.14936
7.90124
7.68031
7.44064
7.47827
7.53547
7.64878
7.75518
7.82402
7.8588
7.87902
7.9059
7.9381
7.98185
7.98345
8.03202
8.08292
8.12209
8.13159
8.13938
8.09897
7.9719
7.84338
7.69376
7.5361
7.39421
7.28429
7.20652
7.16791
7.19961
7.26579
7.34182
7.41993
7.50825
7.58114
7.52988
7.50319
7.43623
7.32164
7.23904
7.15593
7.18805
7.24821
7.30469
7.3926
7.49218
7.59678
7.7664
7.99561
8.2492
8.55272
8.89783
9.26244
9.65021
10.0903
10.5276
11.0841
11.7399
12.4681
13.2973
14.2598
15.371
16.7183
18.1955
18.6355
13.9319
-1.0876
22.0768
29.6553
30.9354
31.3507
31.6169
31.8891
32.4456
33.7463
36.1724
32.1746
28.0735
25.9209
24.9487
24.4663
24.1877
23.938
23.6427
23.3881
23.1741
23.018
22.9524
22.9179
22.908
22.924
22.9758
23.045
23.1101
23.1171
23.0651
22.9619
22.848
22.759
22.7512
22.7945
22.8639
22.9437
23.0224
23.0881
23.132
23.1497
23.1512
23.142
23.1338
23.1325
23.1311
23.1453
23.1917
23.2633
23.3294
23.358
23.3257
23.2368
23.0915
22.9163
22.7207
22.5266
22.3446
22.1733
21.9993
21.8073
21.5694
21.2911
21.0066
20.7727
20.6038
20.5165
20.5107
20.5198
20.5337
20.5471
20.5719
20.6162
20.6881
20.7764
20.8605
20.934
21.0062
21.0929
21.2124
21.3652
21.5377
21.7144
21.8877
22.0651
22.2606
22.4771
22.6974
22.8969
23.0387
23.0453
22.8674
22.483
21.9976
21.5864
21.3694
21.4252
21.6725
21.9773
22.257
22.4725
22.6356
22.8096
23.0134
23.2257
23.7237
24.2426
25.0636
26.4915
27.6461
29.1609
-37.1159
-0.633674
6.90745
15.8021
21.4979
26.4792
29.9459
32.349
34.0172
35.1772
35.9707
36.4812
36.751
36.7442
36.3966
35.5626
33.9841
31.0989
25.8834
15.6639
-7.10103
-50.495
-123.889
-85.0416
-45.9893
-24.6726
-18.0195
-12.6487
-8.57307
-5.63253
-3.53077
-1.99156
-0.688467
0.583529
1.85106
3.04636
4.0934
4.94925
5.59311
6.05983
6.37144
6.56933
6.70555
6.81799
6.9496
7.18852
7.53227
7.92632
8.30866
8.63082
8.85826
8.99685
9.06065
9.05514
9.00623
8.93857
8.87365
8.81553
8.79635
8.80972
8.81843
8.7922
8.69577
8.53041
8.30612
8.04542
7.79751
7.59866
7.4764
7.4892
7.57597
7.68168
7.76497
7.82038
7.85666
7.89006
7.92826
7.95984
7.99563
8.02507
8.06662
8.11339
8.15187
8.17084
8.15857
8.10108
7.99025
7.8401
7.66892
7.49729
7.34768
7.2365
7.17016
7.15516
7.19371
7.27496
7.37555
7.47537
7.55729
7.60102
7.58853
7.50563
7.40176
7.29557
7.21775
7.17251
7.18178
7.22769
7.29184
7.37287
7.47583
7.59878
7.77128
8.00006
8.26816
8.56497
8.88509
9.23262
9.61594
10.0452
10.5164
11.0402
11.6276
12.2911
13.0546
13.9129
14.8285
16.3715
18.4453
22.5285
24.0271
43.0191
27.2609
28.839
30.0083
30.5409
30.9514
31.322
31.8422
32.6852
33.6933
30.3036
26.9604
25.1854
24.5214
24.2531
24.0792
23.8242
23.4805
23.144
22.8992
22.7649
22.7176
22.6868
22.7031
22.7384
22.8333
22.9633
23.0754
23.1147
23.0564
22.9277
22.7916
22.7083
22.7013
22.7496
22.8252
22.9153
23.0121
23.0993
23.1604
23.1959
23.2206
23.2364
23.2509
23.2562
23.256
23.2633
23.2977
23.359
23.436
23.4417
23.3815
23.2606
23.0911
22.8859
22.6669
22.458
22.279
22.123
21.9661
21.778
21.5325
21.2295
20.908
20.6381
20.4761
20.4294
20.4532
20.4815
20.5025
20.5166
20.538
20.5845
20.6611
20.7564
20.8485
20.9263
20.9988
21.089
21.2206
21.3928
21.5853
21.7721
21.9432
22.1106
22.2992
22.522
22.7661
23.0171
23.2095
23.2512
23.0372
22.538
21.8846
21.3258
21.079
21.1965
21.5468
21.9509
22.286
22.5135
22.6673
22.798
22.9683
23.1382
23.5724
23.9073
24.3402
24.6399
24.1846
23.1588
-1.20758
13.5836
17.223
21.1162
24.0976
27.0668
29.2768
30.9449
32.2026
33.1352
33.8064
34.2152
34.4393
34.3452
33.9024
32.9706
31.3048
28.5529
24.202
17.7332
-4.08989
-25.6078
-50.8102
-48.569
-34.9884
-23.1583
-16.1663
-10.9123
-6.96607
-4.26587
-2.42402
-1.12839
-0.0123119
1.12329
2.28929
3.40924
4.39321
5.19007
5.7879
6.20175
6.45221
6.57888
6.6377
6.684
6.80401
7.04547
7.41093
7.84612
8.2747
8.62943
8.87977
9.0278
9.09111
9.08244
9.0257
8.94843
8.88116
8.84013
8.82864
8.836
8.84321
8.81792
8.72233
8.54269
8.28919
7.99407
7.71005
7.49981
7.40893
7.44958
7.56908
7.70012
7.79027
7.83608
7.86467
7.90376
7.95238
8.00083
8.04777
8.09349
8.14442
8.19642
8.23801
8.25411
8.2282
8.14613
8.00623
7.81886
7.61299
7.4141
7.24791
7.13443
7.08257
7.09192
7.15653
7.26254
7.38766
7.5097
7.60661
7.65348
7.63669
7.54977
7.42269
7.29526
7.20833
7.16256
7.16608
7.20328
7.26634
7.34823
7.45056
7.57725
7.74318
7.95958
8.22021
8.50967
8.81782
9.15309
9.52775
9.94779
10.4079
10.9077
11.4549
12.0707
12.7767
13.5702
14.4623
15.8327
17.9199
21.3012
27.0662
36.9196
28.4943
28.9359
29.6031
30.0079
30.3387
30.6039
30.8557
31.0243
30.6498
28.5077
25.9812
24.45
24.2303
24.2054
24.1411
23.8756
23.4629
23.0357
22.7333
22.5751
22.4998
22.4659
22.4875
22.5461
22.6979
22.8893
23.0548
23.1264
23.0695
22.9269
22.7703
22.675
22.6592
22.7103
22.7809
22.8702
22.9729
23.0752
23.1581
23.2166
23.2596
23.2983
23.3313
23.354
23.3674
23.3784
23.4121
23.4638
23.5226
23.5232
23.4342
23.2755
23.0744
22.8458
22.6094
22.3933
22.2163
22.0701
21.9214
21.732
21.4753
21.1518
20.8056
20.5184
20.3606
20.3352
20.3821
20.433
20.4651
20.4865
20.5115
20.558
20.6361
20.7356
20.8327
20.9145
20.9913
21.0893
21.2317
21.4196
21.626
21.8208
21.9898
22.1472
22.3237
22.549
22.8042
23.1074
23.3364
23.4029
23.1592
22.5542
21.7447
21.0311
20.728
20.8999
21.3792
21.9169
22.3445
22.5969
22.7335
22.8384
22.9786
23.1347
23.489
23.6871
23.7697
23.6172
22.3552
21.3231
13.2914
20.1417
22.3543
24.1521
25.6345
27.2606
28.5412
29.6464
30.5641
31.2945
31.8425
32.206
32.2979
32.1701
31.6672
30.6742
29.0046
26.4219
22.5953
17.2262
2.55369
-10.0663
-23.3784
-28.344
-23.9848
-17.5069
-12.4922
-8.30708
-5.20207
-2.85658
-1.2887
-0.161514
0.817919
1.82606
2.88682
3.90872
4.80493
5.52775
6.06761
6.43087
6.62727
6.69364
6.67765
6.6155
6.70934
6.94181
7.3183
7.77039
8.2224
8.59121
8.85475
9.0158
9.0885
9.09128
9.03926
8.96967
8.9187
8.89274
8.88895
8.89128
8.88196
8.83604
8.72074
8.517
8.23693
7.9202
7.6213
7.42061
7.35031
7.41401
7.55519
7.71324
7.80007
7.83664
7.85875
7.8986
7.96166
8.03214
8.09915
8.16342
8.22851
8.29237
8.34319
8.35959
8.31785
8.20564
8.0276
7.80267
7.55987
7.33233
7.14865
7.03152
6.99291
7.02764
7.12141
7.25293
7.39645
7.52764
7.62742
7.67893
7.65294
7.5695
7.4526
7.32566
7.23413
7.17552
7.15794
7.18422
7.24609
7.33302
7.4404
7.5664
7.71914
7.90957
8.13957
8.40277
8.6896
9.0065
9.36235
9.75716
10.1832
10.6314
11.1088
11.638
12.238
12.9051
13.6097
14.3901
15.3209
16.5203
17.8777
21.8314
28.7976
28.9487
29.2894
29.5539
29.7631
29.8909
29.9122
29.7341
29.1225
27.7593
25.8872
24.9544
23.5622
24.518
24.4334
24.1393
23.6465
23.1106
22.7477
22.5089
22.3561
22.2655
22.2604
22.3644
22.5744
22.8251
23.0387
23.1521
23.1049
22.9733
22.805
22.7086
22.6854
22.7165
22.7734
22.8452
22.9306
23.0241
23.1133
23.1891
23.2509
23.3046
23.3518
23.393
23.4179
23.4403
23.4814
23.5315
23.5721
23.5524
23.442
23.256
23.0301
22.7893
22.5491
22.3333
22.1611
22.0203
21.8723
21.6761
21.4093
21.077
20.7246
20.4388
20.2891
20.2749
20.3346
20.3934
20.4299
20.4532
20.4824
20.5315
20.6102
20.7107
20.8113
20.8999
20.9876
21.0996
21.2543
21.4479
21.6557
21.8483
22.0134
22.1647
22.3336
22.5448
22.7992
23.0945
23.3514
23.4539
23.1881
22.5304
21.6316
20.7622
20.388
20.5809
21.1688
21.8439
22.4071
22.7088
22.8464
22.923
23.0457
23.2092
23.4769
23.7357
23.8085
23.7229
23.3428
22.2742
19.5833
23.1079
24.312
25.3623
26.1557
27.0758
27.8819
28.6264
29.2862
29.8394
30.2634
30.5295
30.581
30.3679
29.7947
28.743
27.085
24.6342
21.122
16.0773
8.26308
0.428426
-5.26919
-7.94995
-9.69503
-9.83173
-7.73145
-5.23055
-3.06784
-1.39089
-0.18701
0.828323
1.66817
2.59397
3.55099
4.46377
5.25687
5.89539
6.37489
6.69757
6.85822
6.86439
6.77679
6.69788
6.747
6.94744
7.29742
7.71003
8.14876
8.49543
8.76343
8.94613
9.05236
9.09149
9.08327
9.03942
8.99966
8.97998
8.9726
8.96019
8.91981
8.83485
8.68307
8.45086
8.15469
7.8398
7.57213
7.39054
7.3332
7.41874
7.57
7.72093
7.79567
7.81786
7.83112
7.86979
7.94451
8.03446
8.12517
8.20957
8.29097
8.36769
8.42689
8.44372
8.38762
8.25021
8.04277
7.79222
7.52845
7.28148
7.085
6.96454
6.93409
6.98723
7.10389
7.25246
7.40165
7.52486
7.60844
7.64232
7.61954
7.54975
7.45253
7.35517
7.27873
7.22193
7.18909
7.19595
7.24854
7.33564
7.44683
7.56871
7.69672
7.85457
8.03166
8.25004
8.50321
8.79232
9.1184
9.47489
9.84665
10.2238
10.6085
11.0196
11.4709
11.9473
12.3981
12.7593
12.9552
12.8235
12.0435
13.7838
28.7902
28.8527
29.0095
29.157
29.2528
29.2634
29.156
28.8654
28.287
27.3577
26.2326
25.3821
24.985
25.3731
24.7325
24.563
23.9691
23.4026
22.9322
22.586
22.3251
22.138
22.0852
22.1997
22.4478
22.7392
23.0264
23.1523
23.1498
23.0505
22.8985
22.8173
22.7814
22.7907
22.825
22.8695
22.9224
22.9847
23.0545
23.1261
23.1934
23.2558
23.303
23.3457
23.3841
23.4225
23.4634
23.4725
23.5093
23.4909
23.3802
23.1894
22.9563
22.7127
22.4781
22.2713
22.1053
21.9686
21.8219
21.6237
21.3561
21.0274
20.682
20.4102
20.2736
20.2657
20.3288
20.3833
20.409
20.4244
20.4503
20.4984
20.5774
20.6781
20.7818
20.8784
20.979
21.1068
21.2736
21.4693
21.6695
21.8503
22.0069
22.1537
22.3168
22.5185
22.7495
23.0311
23.2661
23.3515
23.1132
22.4754
21.5522
20.6042
20.1573
20.331
20.9738
21.7627
22.4729
22.7879
22.9366
23.0145
23.1152
23.3046
23.5702
23.861
24.1239
24.1277
24.0196
23.3037
22.51
24.2019
25.2176
25.8955
26.4005
26.9684
27.4565
27.9231
28.3608
28.75
29.0465
29.219
29.1955
28.9001
28.2446
27.1366
25.4895
23.186
20.0888
16.0321
10.9225
5.67967
1.32501
-1.67553
-3.42027
-3.94018
-3.26667
-2.08115
-0.866323
0.175608
1.03138
1.81534
2.56544
3.38851
4.23044
5.02479
5.70897
6.2557
6.6682
6.95282
7.1012
7.11188
7.03171
6.95726
6.92517
7.07311
7.35073
7.69833
8.06148
8.36385
8.62541
8.84049
8.99742
9.09368
9.1313
9.12435
9.10154
9.08593
9.0519
9.02118
8.94564
8.81724
8.62429
8.36462
8.06039
7.76004
7.52098
7.38342
7.36928
7.46113
7.59851
7.75489
7.81004
7.80835
7.79527
7.82301
7.89874
8.00201
8.11432
8.21824
8.31601
8.40468
8.4675
8.49192
8.42037
8.26712
8.0447
7.78543
7.52696
7.27283
7.08177
6.95728
6.92135
6.97867
7.10428
7.2609
7.40732
7.51115
7.56956
7.58286
7.55645
7.50201
7.43459
7.37318
7.32964
7.29619
7.26783
7.25713
7.29075
7.35454
7.45092
7.57086
7.65932
7.76011
7.88983
8.06093
8.27477
8.52806
8.81377
9.11952
9.42786
9.72557
10.0116
10.2993
10.5955
10.8761
11.0769
11.1043
10.8525
10.0955
8.60967
7.07612
28.6454
28.6707
28.7363
28.7929
28.8076
28.7493
28.5864
28.2796
27.7933
27.1337
26.4051
25.789
25.4
25.2373
25.1299
25.0348
24.2155
23.6884
23.1985
22.7498
22.4395
22.1558
22.0027
22.116
22.3814
22.712
22.9644
23.104
23.1285
23.1197
23.0415
22.9967
22.9476
22.9277
22.9289
22.9399
22.9557
22.9785
23.0126
23.0566
23.1069
23.1699
23.193
23.2311
23.2708
23.2936
23.3251
23.3809
23.3889
23.3512
23.2494
23.0801
22.867
22.6332
22.4081
22.2118
22.0474
21.9112
21.7697
21.5834
21.3327
21.0269
20.7012
20.4483
20.3186
20.3104
20.3644
20.4107
20.4247
20.4239
20.435
20.4769
20.5503
20.6463
20.7489
20.85
20.9603
21.0995
21.2739
21.4683
21.6599
21.8252
21.969
22.1085
22.2644
22.4518
22.6687
22.8993
23.0889
23.1474
22.9402
22.3842
21.5662
20.7851
20.2483
20.2999
20.8781
21.685
22.2987
22.7794
22.9609
23.0408
23.155
23.3586
23.6375
23.9836
24.2871
24.4759
24.2593
23.8505
23.8275
24.9117
25.984
26.7627
27.0636
27.0879
27.2192
27.3964
27.612
27.8686
28.0036
28.1069
28.007
27.63
26.8965
25.7405
24.1091
21.9538
19.2419
15.9758
12.272
8.55074
5.30185
2.83447
1.21595
0.412832
0.338706
0.670683
1.17772
1.71642
2.25092
2.81806
3.43931
4.13918
4.865
5.54557
6.12569
6.58312
6.92479
7.16491
7.30342
7.33487
7.2813
7.20511
7.16985
7.26572
7.45663
7.70845
7.96748
8.22131
8.48141
8.71104
8.92803
9.08896
9.18068
9.21006
9.19933
9.1696
9.12451
9.05996
8.9535
8.7919
8.56863
8.29026
7.98399
7.70132
7.49384
7.39602
7.41239
7.518
7.66528
7.78966
7.84867
7.83694
7.79985
7.79944
7.85331
7.95321
8.06903
8.18944
8.30026
8.39751
8.46607
8.48217
8.41629
8.25906
8.03517
7.78899
7.51978
7.30731
7.139
7.02163
6.97315
7.01129
7.12361
7.27043
7.39948
7.49246
7.52762
7.52022
7.48883
7.44391
7.39768
7.36544
7.35771
7.35976
7.35089
7.34296
7.35129
7.37225
7.4292
7.52674
7.54697
7.61865
7.71596
7.84825
8.02213
8.23345
8.47077
8.71787
8.95791
9.17782
9.37403
9.55293
9.71292
9.82286
9.82414
9.61933
9.09551
8.13173
6.56551
4.66169
28.447
28.4545
28.4706
28.4711
28.4336
28.3344
28.1512
27.8641
27.4642
26.9698
26.4405
25.9596
25.5858
25.3154
25.0863
24.8266
24.419
24.0136
23.5556
22.9575
22.7365
22.39
22.1559
22.1465
22.3299
22.5911
22.8411
23.0342
23.1581
23.2135
23.2399
23.193
23.1388
23.0909
23.0544
23.0263
23.0041
22.9896
22.9781
22.9981
23.0069
23.0252
23.0707
23.0934
23.1113
23.1356
23.1592
23.1888
23.192
23.1626
23.0837
22.9529
22.7754
22.5814
22.352
22.1809
22.0063
21.8616
21.7204
21.5524
21.3399
21.073
20.7978
20.5611
20.4285
20.4016
20.4334
20.4673
20.4761
20.4687
20.4706
20.5006
20.5613
20.6439
20.7366
20.8348
20.9474
21.089
21.2609
21.4426
21.6248
21.772
21.9012
22.0297
22.1738
22.3416
22.5271
22.7083
22.8453
22.8702
22.6952
22.2601
21.6208
20.9648
20.5064
20.5014
20.9595
21.6669
22.313
22.7349
22.9141
23.0051
23.1388
23.3632
23.6272
23.9851
24.2785
24.4823
24.4153
24.2661
24.5676
25.5841
26.7409
27.3537
27.3855
27.1423
26.9315
26.8256
26.8283
26.9016
27.0645
27.0634
26.8956
26.4524
25.6616
24.4784
22.881
20.8728
18.4877
15.7994
12.9523
10.188
7.7545
5.81252
4.4052
3.5007
3.03271
2.88031
2.93569
3.1159
3.38298
3.73505
4.19543
4.76404
5.37862
5.96118
6.45601
6.84198
7.12475
7.32207
7.44493
7.49426
7.48028
7.43953
7.42853
7.45104
7.57126
7.7245
7.883
8.07355
8.29996
8.57233
8.83568
9.05431
9.1961
9.2594
9.26243
9.22556
9.16269
9.07322
8.94542
8.76736
8.53367
8.25465
7.95425
7.6886
7.50357
7.4265
7.45628
7.56654
7.71726
7.84978
7.90361
7.89946
7.84687
7.82595
7.84644
7.92054
8.02716
8.14218
8.25184
8.34566
8.40956
8.42328
8.36417
8.21889
8.00664
7.77437
7.52637
7.35023
7.22182
7.12917
7.07708
7.08882
7.17206
7.29604
7.40504
7.47837
7.49376
7.47242
7.43588
7.39862
7.36538
7.34853
7.36433
7.38973
7.39784
7.37981
7.35998
7.35973
7.34438
7.33095
7.38713
7.44664
7.52558
7.63208
7.76738
7.93032
8.11222
8.29567
8.46932
8.62092
8.74363
8.83606
8.88842
8.85025
8.70329
8.36374
7.73199
6.72794
5.32592
3.59654
28.2339
28.2308
28.2193
28.1875
28.1199
28.0006
27.8162
27.5571
27.2235
26.8313
26.4142
26.015
25.6628
25.3589
25.0774
24.786
24.4667
24.1547
23.9014
23.6738
23.4399
22.8752
22.3864
22.1251
22.2379
22.4496
22.7424
23.031
23.2494
23.3739
23.4091
23.3738
23.307
23.2328
23.1609
23.0945
23.035
22.9913
22.9636
22.9164
22.9077
22.9151
22.9331
22.9468
22.96
22.975
22.9927
23.0119
23.0198
23.0021
22.9447
22.8421
22.7
22.5301
22.3462
22.1644
21.9873
21.845
21.6949
21.5346
21.3471
21.1424
20.9149
20.7163
20.5866
20.535
20.5358
20.5511
20.5565
20.5516
20.5525
20.5749
20.6225
20.689
20.7681
20.8585
20.967
21.1013
21.2595
21.4233
21.5714
21.698
21.8123
21.9267
22.0513
22.1883
22.3312
22.462
22.551
22.5553
22.4193
22.1094
21.6615
21.1921
20.8611
20.8406
21.1743
21.7319
22.2826
22.6472
22.8155
22.9191
23.0723
23.3004
23.5471
23.8399
24.1063
24.3568
24.5803
24.7224
25.3391
26.4222
27.4318
27.761
27.4385
26.8842
26.3814
26.0521
25.9168
25.9498
25.9985
26.0062
25.8198
25.347
24.5342
23.3568
21.8227
19.9692
17.865
15.6101
13.3329
11.197
9.32561
7.78344
6.5724
5.66281
5.0197
4.60854
4.40289
4.33843
4.38283
4.52777
4.81523
5.2463
5.75432
6.25589
6.68363
7.01743
7.26047
7.42841
7.53656
7.59499
7.61205
7.60473
7.60165
7.61593
7.65921
7.75035
7.79952
7.9222
8.12471
8.41049
8.7184
8.98507
9.16849
9.2606
9.28299
9.24304
9.16932
9.06464
8.92593
8.74593
8.52027
8.26269
7.97693
7.73436
7.56183
7.4889
7.51411
7.61467
7.75013
7.85233
7.94016
7.95148
7.92027
7.88343
7.88499
7.93693
8.01917
8.11083
8.1925
8.26917
8.31028
8.30896
8.26315
8.14491
7.96052
7.75128
7.55558
7.39552
7.29476
7.22862
7.18706
7.18498
7.23801
7.32853
7.40925
7.46848
7.47307
7.44809
7.41544
7.38784
7.36895
7.36609
7.39
7.411
7.40413
7.34567
7.26788
7.19045
7.13995
7.13663
7.18265
7.24967
7.3288
7.41954
7.52212
7.63381
7.75817
7.87521
7.9894
8.08869
8.15407
8.16452
8.11292
8.00109
7.75788
7.33492
6.68469
5.74922
4.50882
2.88323
28.0238
28.0153
27.9893
27.94
27.857
27.7311
27.5542
27.3224
27.0382
26.7129
26.366
26.0202
25.6902
25.3785
25.0763
24.7763
24.4913
24.2867
24.2791
24.547
24.3463
23.173
22.4587
22.2618
22.3565
22.6004
22.9129
23.2177
23.4333
23.535
23.547
23.4935
23.4098
23.317
23.2222
23.1288
23.0406
22.9675
22.9081
22.8606
22.8349
22.8257
22.8276
22.8341
22.8448
22.8612
22.8828
22.9037
22.9122
22.8959
22.8435
22.7504
22.6234
22.4738
22.3112
22.1437
21.9863
21.8286
21.7121
21.5518
21.3864
21.2295
21.0472
20.8837
20.7627
20.6951
20.6694
20.6643
20.6621
20.6583
20.6596
20.6771
20.7145
20.7691
20.8388
20.9244
21.0286