/*--------------------------------*- C++ -*----------------------------------*\
  =========                 |
  \\      /  F ield         | OpenFOAM: The Open Source CFD Toolbox
   \\    /   O peration     | Website:  https://openfoam.org
    \\  /    A nd           | Version:  7
     \\/     M anipulation  |
\*---------------------------------------------------------------------------*/
FoamFile
{
    version     2.0;
    format      ascii;
    class       surfaceScalarField;
    location    "400";
    object      phi;
}
// * * * * * * * * * * * * * * * * * * * * * * * * * * * * * * * * * * * * * //

dimensions      [0 3 -1 0 0 0 0];

internalField   nonuniform List<scalar> 
240592
(
-8.98879e-14
2.8388e-15
8.69827e-14
3.19003e-12
-8.0912e-12
-5.20829e-12
1.01076e-11
1.51983e-11
-2.38191e-11
-7.8508e-12
1.64706e-11
-4.48538e-11
-9.223e-12
2.01933e-11
3.38829e-11
5.62155e-11
-6.73167e-11
-9.46198e-12
2.05629e-11
7.78391e-11
-8.74877e-11
-8.49223e-12
1.81405e-11
9.62819e-11
-1.04509e-10
-7.57035e-12
1.57977e-11
1.1244e-10
-1.20265e-10
-6.89869e-12
1.47228e-11
1.27998e-10
-1.3537e-10
-5.77579e-12
1.31471e-11
1.42029e-10
-1.47579e-10
-4.14367e-12
9.69243e-12
1.51606e-10
-1.53265e-10
-2.12642e-12
3.78322e-12
1.53581e-10
-1.531e-10
1.70685e-12
-2.18779e-12
1.50754e-10
-1.46899e-10
3.44732e-12
-7.30282e-12
-1.36039e-10
5.17459e-12
-1.10556e-11
1.41919e-10
1.29304e-10
-1.21873e-10
6.30837e-12
-1.37407e-11
1.13925e-10
-1.055e-10
7.6575e-12
-1.60841e-11
9.66736e-11
-8.76061e-11
8.09023e-12
-1.71594e-11
7.84873e-11
-6.95302e-11
7.95207e-12
-1.69115e-11
6.08358e-11
-5.23906e-11
7.27752e-12
-1.57254e-11
4.41322e-11
-3.58649e-11
7.097e-12
-1.53667e-11
2.75654e-11
-1.93845e-11
7.09885e-12
-1.52817e-11
1.17683e-11
-4.41123e-12
4.33399e-12
-1.16916e-11
-2.78344e-12
-7.36368e-12
3.25442e-12
6.89119e-12
-2.41602e-11
2.08215e-11
-3.72913e-11
6.68503e-13
3.99553e-11
-3.82657e-11
5.69803e-11
-7.9375e-11
-1.63649e-15
6.06594e-11
-4.67067e-11
1.04126e-10
-1.3031e-10
-1.2072e-13
7.30109e-11
-4.72023e-11
1.56923e-10
-1.82822e-10
-2.12762e-13
7.33144e-11
-4.15937e-11
2.07451e-10
-2.30313e-10
-2.403e-13
6.46964e-11
-3.60722e-11
2.5142e-10
-2.71039e-10
-3.26057e-13
5.60165e-11
-3.3457e-11
2.89551e-10
-3.07089e-10
-3.84317e-13
5.13793e-11
-3.02269e-11
3.23697e-10
-3.39102e-10
-4.1492e-13
4.60477e-11
-2.25229e-11
3.52759e-10
-3.64121e-10
-3.62362e-13
3.42487e-11
-9.86818e-12
3.72688e-10
-3.7829e-10
-2.60841e-13
1.57328e-11
4.31195e-12
3.80586e-10
-3.7946e-10
-1.20953e-13
-5.31712e-12
1.58434e-11
3.75365e-10
-3.68596e-10
-2.39496e-14
-2.25905e-11
2.4348e-11
3.5921e-10
-3.4756e-10
1.48456e-14
-3.60171e-11
3.08907e-11
3.33668e-10
-3.17733e-10
1.22257e-13
-4.69536e-11
3.64352e-11
2.99768e-10
-2.80084e-10
2.17421e-13
-5.63413e-11
3.94439e-11
2.58803e-10
-2.36478e-10
3.03384e-13
-6.20782e-11
3.94574e-11
2.13472e-10
-1.90371e-10
3.74114e-13
-6.29393e-11
3.74883e-11
1.6736e-10
-1.44555e-10
4.1792e-13
-6.07202e-11
3.69138e-11
1.21941e-10
-9.94575e-11
4.19857e-13
-5.98265e-11
3.65227e-11
7.71056e-11
-5.50508e-11
3.40005e-13
-5.89267e-11
2.85479e-11
-1.34691e-11
-2.03473e-12
-4.62211e-11
3.31715e-11
-1.21618e-11
-1.11284e-11
5.1375e-12
1.81515e-11
2.94489e-11
-5.72208e-11
-4.95318e-11
1.15322e-12
7.61454e-11
-8.2946e-11
7.11632e-11
-9.41219e-11
5.14105e-13
1.0539e-10
-9.80366e-11
1.18195e-10
-1.42742e-10
4.78182e-13
1.22107e-10
-9.80735e-11
1.67403e-10
-1.91503e-10
4.25182e-13
1.21749e-10
-8.6839e-11
2.14714e-10
-2.36621e-10
3.35739e-13
1.08411e-10
-7.52513e-11
2.57126e-10
-2.7608e-10
1.9297e-13
9.4012e-11
-6.81783e-11
2.9347e-10
-3.09262e-10
6.2933e-14
8.39077e-11
-6.02063e-11
3.23467e-10
-3.36015e-10
-1.8016e-14
7.27746e-11
-4.46628e-11
3.46816e-10
-3.55853e-10
-7.25372e-14
5.37738e-11
-2.12e-11
3.63013e-10
-3.68158e-10
-1.03876e-13
2.64504e-11
4.83947e-12
3.7126e-10
-3.72423e-10
-1.6023e-13
-3.51641e-12
2.71966e-11
3.71373e-10
-3.68051e-10
-2.185e-13
-3.0302e-11
4.55346e-11
3.62399e-10
-3.54427e-10
-2.52999e-13
-5.32555e-11
6.13421e-11
3.4387e-10
-3.30752e-10
-2.61946e-13
-7.42003e-11
7.51728e-11
3.15067e-10
-2.9705e-10
-2.60785e-13
-9.29314e-11
8.43433e-11
2.76874e-10
-2.54972e-10
-2.48166e-13
-1.06001e-10
8.67488e-11
2.31709e-10
-2.07581e-10
-2.28422e-13
-1.10652e-10
8.46547e-11
1.82896e-10
-1.58023e-10
-2.12166e-13
-1.09319e-10
8.33317e-11
1.33218e-10
-1.08692e-10
-2.03048e-13
-1.07658e-10
8.18205e-11
8.44121e-11
-6.05801e-11
-2.74155e-13
-1.05386e-10
6.44685e-11
-1.5402e-11
-2.85785e-12
-8.34418e-11
3.72283e-11
-2.4853e-11
-1.38941e-11
6.61892e-12
3.21275e-11
3.54773e-11
-9.62609e-11
-5.82074e-11
1.2486e-12
1.17739e-10
-1.27766e-10
8.14325e-11
-1.0481e-10
5.74767e-13
1.50569e-10
-1.45277e-10
1.28408e-10
-1.51909e-10
5.49699e-13
1.68228e-10
-1.44584e-10
1.75349e-10
-1.98344e-10
4.86534e-13
1.67093e-10
-1.29546e-10
2.20792e-10
-2.42256e-10
3.95843e-13
1.50614e-10
-1.12357e-10
2.62511e-10
-2.81007e-10
2.67455e-13
1.30587e-10
-9.87241e-11
2.97548e-10
-3.1193e-10
1.40999e-13
1.12968e-10
-8.40182e-11
3.24266e-10
-3.34596e-10
4.19041e-14
9.43075e-11
-6.18171e-11
3.43166e-10
-3.50264e-10
-2.75965e-14
6.89424e-11
-3.13398e-11
3.55913e-10
-3.60182e-10
-7.21062e-14
3.56813e-11
1.84235e-12
3.62935e-10
-3.64256e-10
-1.36234e-13
-3.85e-13
3.23944e-11
3.6392e-10
-3.61858e-10
-2.11653e-13
-3.42459e-11
5.96973e-11
3.57889e-10
-3.51808e-10
-2.4423e-13
-6.55329e-11
8.57292e-11
3.43394e-10
-3.32507e-10
-2.57881e-13
-9.63587e-11
1.0954e-10
3.1906e-10
-3.03178e-10
-2.62473e-13
-1.25161e-10
1.2681e-10
2.84981e-10
-2.64797e-10
-2.63386e-13
-1.46733e-10
1.34283e-10
2.42733e-10
-2.19197e-10
-2.48454e-13
-1.57573e-10
1.34346e-10
1.94351e-10
-1.68693e-10
-2.43633e-13
-1.59761e-10
1.32771e-10
1.42482e-10
-1.16224e-10
-2.44335e-13
-1.58788e-10
1.29733e-10
9.01034e-11
-6.44614e-11
-3.37061e-13
-1.55044e-10
1.03033e-10
-1.62813e-11
-3.08329e-12
-1.23194e-10
3.95217e-11
-4.00986e-11
-1.67751e-11
8.03003e-12
4.88438e-11
4.17939e-11
-1.40441e-10
-6.74167e-11
1.33687e-12
1.64726e-10
-1.73842e-10
9.28909e-11
-1.17817e-10
6.20807e-13
1.98148e-10
-1.91122e-10
1.42358e-10
-1.6634e-10
5.96906e-13
2.14506e-10
-1.89385e-10
1.90022e-10
-2.13133e-10
5.27426e-13
2.11969e-10
-1.71629e-10
2.357e-10
-2.57245e-10
4.4813e-13
1.92727e-10
-1.48662e-10
2.7753e-10
-2.95936e-10
3.47899e-13
1.66722e-10
-1.26798e-10
3.12212e-10
-3.2607e-10
2.53148e-13
1.40405e-10
-1.03942e-10
3.37657e-10
-3.47148e-10
1.39334e-13
1.13294e-10
-7.5385e-11
3.5488e-10
-3.61012e-10
4.37461e-14
8.14736e-11
-3.9467e-11
3.65663e-10
-3.68854e-10
-4.99784e-14
4.27087e-11
-5.24033e-13
3.70419e-10
-3.70338e-10
-1.28441e-13
5.71883e-13
3.64071e-11
3.68598e-10
-3.65375e-10
-1.86902e-13
-3.9442e-11
7.12908e-11
3.60519e-10
-3.54036e-10
-2.19251e-13
-7.75549e-11
1.06404e-10
3.45775e-10
-3.35645e-10
-2.41402e-13
-1.16294e-10
1.39848e-10
3.23406e-10
-3.0913e-10
-2.54916e-13
-1.5387e-10
1.65675e-10
2.92715e-10
-2.74233e-10
-2.55441e-13
-1.83903e-10
1.80343e-10
2.53485e-10
-2.30725e-10
-2.59324e-13
-2.02845e-10
1.85364e-10
2.05938e-10
-1.79663e-10
-2.76766e-13
-2.11365e-10
1.85531e-10
1.52188e-10
-1.24249e-10
-2.81234e-13
-2.13192e-10
1.81197e-10
9.61903e-11
-6.8667e-11
-3.81943e-13
-2.08342e-10
1.44039e-10
-1.6888e-11
-3.38019e-12
-1.65621e-10
4.18494e-11
-5.83945e-11
-2.02394e-11
9.86235e-12
6.87721e-11
4.93626e-11
-1.90585e-10
-7.8716e-11
1.44504e-12
2.18496e-10
-2.23584e-10
1.07496e-10
-1.35219e-10
6.60001e-13
2.50647e-10
-2.38482e-10
1.62049e-10
-1.8776e-10
6.37608e-13
2.63555e-10
-2.3472e-10
2.12689e-10
-2.3653e-10
5.81203e-13
2.5798e-10
-2.13682e-10
2.59395e-10
-2.80884e-10
5.04888e-13
2.34666e-10
-1.84572e-10
3.00907e-10
-3.19107e-10
4.3725e-13
2.02333e-10
-1.53889e-10
3.35355e-10
-3.49408e-10
3.66222e-13
1.67575e-10
-1.22652e-10
3.61368e-10
-3.71382e-10
2.51982e-13
1.32413e-10
-8.7496e-11
3.79646e-10
-3.86066e-10
1.12499e-13
9.38039e-11
-4.55287e-11
3.90663e-10
-3.9327e-10
-2.82775e-14
4.81649e-11
2.13169e-13
3.93749e-10
-3.91997e-10
-1.05426e-13
-1.85729e-12
4.35936e-11
3.88171e-10
-3.82524e-10
-1.49989e-13
-4.90883e-11
8.4656e-11
3.75281e-10
-3.66737e-10
-1.84781e-13
-9.30162e-11
1.26404e-10
3.5688e-10
-3.45769e-10
-2.10409e-13
-1.37306e-10
1.67444e-10
3.33285e-10
-3.194e-10
-2.39297e-13
-1.81091e-10
2.01498e-10
3.03709e-10
-2.86077e-10
-2.40016e-13
-2.1889e-10
2.25019e-10
2.66068e-10
-2.43647e-10
-2.7371e-13
-2.47166e-10
2.37653e-10
2.18608e-10
-1.9149e-10
-2.99335e-13
-2.64474e-10
2.41603e-10
1.62641e-10
-1.32909e-10
-3.1603e-13
-2.71021e-10
2.36332e-10
1.02848e-10
-7.3319e-11
-4.38532e-13
-2.65425e-10
1.87937e-10
-1.7797e-11
-3.45131e-12
-2.11148e-10
4.44585e-11
-8.00076e-11
-2.38815e-11
1.17762e-11
9.21141e-11
5.77545e-11
-2.48385e-10
-9.1704e-11
1.6309e-12
2.80706e-10
-2.79338e-10
1.24738e-10
-1.56284e-10
7.19967e-13
3.10164e-10
-2.89727e-10
1.86447e-10
-2.14902e-10
6.73732e-13
3.17508e-10
-2.81662e-10
2.41846e-10
-2.66996e-10
6.37042e-13
3.06175e-10
-2.55551e-10
2.90616e-10
-3.12448e-10
5.61179e-13
2.7682e-10
-2.19953e-10
3.32657e-10
-3.51112e-10
5.11214e-13
2.37896e-10
-1.81541e-10
3.68013e-10
-3.83116e-10
4.32795e-13
1.9621e-10
-1.42779e-10
3.96556e-10
-4.08183e-10
3.17507e-13
1.54088e-10
-1.00635e-10
4.17995e-10
-4.25732e-10
1.7542e-13
1.08196e-10
-5.07812e-11
4.31183e-10
-4.33967e-10
3.68824e-14
5.35288e-11
4.16704e-12
4.33888e-10
-4.31004e-10
-5.40859e-14
-6.99777e-12
5.57914e-11
4.25382e-10
-4.17443e-10
-9.02466e-14
-6.36399e-11
1.0272e-10
4.07505e-10
-3.96074e-10
-1.3945e-13
-1.14011e-10
1.49308e-10
3.83274e-10
-3.69531e-10
-1.66071e-13
-1.62884e-10
1.95283e-10
3.5482e-10
-3.392e-10
-1.97911e-13
-2.10706e-10
2.36296e-10
3.22341e-10
-3.04104e-10
-2.32031e-13
-2.54302e-10
2.69226e-10
2.83905e-10
-2.61382e-10
-2.96165e-13
-2.91453e-10
2.91597e-10
2.36214e-10
-2.08457e-10
-3.35743e-13
-3.1902e-10
3.01361e-10
1.78368e-10
-1.46659e-10
-3.57759e-13
-3.32713e-10
2.95744e-10
1.1412e-10
-8.16299e-11
-4.74721e-13
-3.27761e-10
2.35425e-10
-1.99533e-11
-3.89125e-12
-2.61306e-10
4.9726e-11
-1.05246e-10
-2.76823e-11
1.34158e-11
1.19514e-10
6.68163e-11
-3.15265e-10
-1.05848e-10
1.84393e-12
3.52455e-10
-3.42973e-10
1.43802e-10
-1.79816e-10
7.76633e-13
3.78211e-10
-3.46749e-10
2.13958e-10
-2.45762e-10
7.13756e-13
3.77839e-10
-3.3149e-10
2.75486e-10
-3.02891e-10
6.72984e-13
3.58223e-10
-2.98545e-10
3.2844e-10
-3.51956e-10
6.16631e-13
3.21444e-10
-2.56409e-10
3.73914e-10
-3.94224e-10
5.76629e-13
2.76143e-10
-2.11757e-10
4.1316e-10
-4.30498e-10
4.80252e-13
2.28614e-10
-1.66374e-10
4.46309e-10
-4.60111e-10
3.54367e-13
1.79824e-10
-1.16407e-10
4.7176e-10
-4.80819e-10
2.34057e-13
1.25232e-10
-5.63713e-11
4.87068e-10
-4.90147e-10
1.32434e-13
5.9317e-11
1.01479e-11
4.90025e-10
-4.86682e-10
5.22339e-14
-1.35434e-11
7.23266e-11
4.80193e-10
-4.70828e-10
-4.36083e-15
-8.16882e-11
1.26779e-10
4.5885e-10
-4.44673e-10
-6.0715e-14
-1.40895e-10
1.78219e-10
4.28642e-10
-4.11245e-10
-1.0288e-13
-1.95512e-10
2.27755e-10
3.92724e-10
-3.73433e-10
-1.41702e-13
-2.46905e-10
2.73243e-10
3.53427e-10
-3.32707e-10
-2.23207e-13
-2.93742e-10
3.1388e-10
3.10792e-10
-2.87366e-10
-3.0443e-13
-3.37003e-10
3.4657e-10
2.6168e-10
-2.33431e-10
-3.36978e-13
-3.74483e-10
3.64867e-10
2.02394e-10
-1.68967e-10
-3.59857e-13
-3.97934e-10
3.61605e-10
1.33512e-10
-9.6953e-11
-5.06608e-13
-3.97657e-10
2.89242e-10
-2.44661e-11
-4.89289e-12
-3.19891e-10
6.00089e-11
-1.34819e-10
-3.14162e-11
1.50859e-11
1.51151e-10
7.60604e-11
-3.92145e-10
-1.20681e-10
2.03742e-12
4.34731e-10
-4.15652e-10
1.6387e-10
-2.04761e-10
8.24194e-13
4.5572e-10
-4.10589e-10
2.43222e-10
-2.78877e-10
7.44352e-13
4.45502e-10
-3.86411e-10
3.12224e-10
-3.43164e-10
6.87205e-13
4.16664e-10
-3.45738e-10
3.72092e-10
-3.99095e-10
6.66145e-13
3.72074e-10
-2.97343e-10
4.24601e-10
-4.48501e-10
6.23526e-13
3.20619e-10
-2.46915e-10
4.7088e-10
-4.91487e-10
5.21142e-13
2.67001e-10
-1.94279e-10
5.10043e-10
-5.26024e-10
3.99243e-13
2.0986e-10
-1.34447e-10
5.39107e-10
-5.49044e-10
3.24627e-13
1.44058e-10
-6.23419e-11
5.55686e-10
-5.59011e-10
2.55642e-13
6.54096e-11
1.70355e-11
5.5897e-10
-5.55638e-10
1.78011e-13
-2.05461e-11
9.13914e-11
5.48987e-10
-5.39121e-10
9.98338e-14
-1.01358e-10
1.56015e-10
5.2609e-10
-5.10217e-10
3.59658e-14
-1.71924e-10
2.14468e-10
4.91795e-10
-4.71307e-10
-4.94547e-14
-2.34907e-10
2.6812e-10
4.49074e-10
-4.2564e-10
-1.11524e-13
-2.91442e-10
3.16235e-10
4.01202e-10
-3.76043e-10
-2.16511e-13
-3.41177e-10
3.61426e-10
3.50148e-10
-3.23286e-10
-2.78601e-13
-3.8801e-10
4.03088e-10
2.94871e-10
-2.64455e-10
-3.12208e-13
-4.33191e-10
4.31936e-10
2.31497e-10
-1.9569e-10
-3.65302e-13
-4.67377e-10
4.35881e-10
1.56936e-10
-1.15769e-10
-5.42836e-13
-4.76503e-10
3.53509e-10
-3.00908e-11
-5.96257e-12
-3.90262e-10
7.28083e-11
-1.68554e-10
-3.5141e-11
1.67029e-11
1.86993e-10
8.5144e-11
-4.79833e-10
-1.35281e-10
2.16436e-12
5.27806e-10
-4.98192e-10
1.83923e-10
-2.30065e-10
8.10898e-13
5.43523e-10
-4.82558e-10
2.73595e-10
-3.14116e-10
7.54114e-13
5.22326e-10
-4.48931e-10
3.52226e-10
-3.87836e-10
6.96598e-13
4.83844e-10
-4.00541e-10
4.21571e-10
-4.53375e-10
6.75524e-13
4.3167e-10
-3.45973e-10
4.83583e-10
-5.11928e-10
6.14737e-13
3.73705e-10
-2.88742e-10
5.38482e-10
-5.62619e-10
5.27561e-13
3.12352e-10
-2.26427e-10
5.84087e-10
-6.02269e-10
4.60427e-13
2.44149e-10
-1.54016e-10
6.16958e-10
-6.27849e-10
4.12957e-13
1.64494e-10
-6.85169e-11
6.35038e-10
-6.3865e-10
3.37095e-13
7.17918e-11
2.40687e-11
6.38766e-10
-6.35453e-10
2.55887e-13
-2.76384e-11
1.11518e-10
6.2867e-10
-6.1842e-10
1.93034e-13
-1.21963e-10
1.88356e-10
6.04801e-10
-5.88035e-10
1.30115e-13
-2.05253e-10
2.5643e-10
5.68361e-10
-5.46046e-10
2.95387e-14
-2.78775e-10
3.16589e-10
5.21277e-10
-4.94409e-10
-6.26673e-14
-3.43394e-10
3.6866e-10
4.65626e-10
-4.35288e-10
-1.63068e-13
-3.98834e-10
4.17427e-10
4.0349e-10
-3.70443e-10
-2.08732e-13
-4.50264e-10
4.6556e-10
3.36159e-10
-3.00311e-10
-2.68945e-13
-5.01137e-10
5.04704e-10
2.6247e-10
-2.22161e-10
-3.24569e-13
-5.44687e-10
5.19482e-10
1.78969e-10
-1.32838e-10
-5.47457e-13
-5.65064e-10
4.29889e-10
-3.5031e-11
-6.65821e-12
-4.72352e-10
8.4153e-11
-2.06324e-10
-3.87105e-11
1.84667e-11
2.26569e-10
9.39668e-11
-5.78323e-10
-1.49773e-10
2.26016e-12
6.31869e-10
-5.91548e-10
2.0411e-10
-2.56108e-10
7.7397e-13
6.4277e-10
-5.64854e-10
3.05637e-10
-3.52296e-10
7.39402e-13
6.10773e-10
-5.2148e-10
3.96461e-10
-4.38123e-10
7.16286e-13
5.62427e-10
-4.65393e-10
4.77818e-10
-5.15283e-10
6.7011e-13
5.0219e-10
-4.03726e-10
5.50767e-10
-5.83993e-10
6.24732e-13
4.36329e-10
-3.37668e-10
6.14832e-10
-6.42582e-10
5.81547e-13
3.64837e-10
-2.62934e-10
6.66973e-10
-6.87527e-10
5.56085e-13
2.82932e-10
-1.75543e-10
7.04126e-10
-7.16459e-10
4.93618e-13
1.87384e-10
-7.52951e-11
7.24766e-10
-7.28947e-10
4.02823e-13
7.90733e-11
3.13728e-11
7.29298e-10
-7.25664e-10
3.11919e-13
-3.53197e-11
1.3282e-10
7.18312e-10
-7.0731e-10
2.5421e-13
-1.44077e-10
2.22579e-10
6.92905e-10
-6.75313e-10
1.84758e-13
-2.40355e-10
3.01748e-10
6.54738e-10
-6.31231e-10
8.29752e-14
-3.25338e-10
3.71583e-10
6.04761e-10
-5.75143e-10
-1.77478e-14
-4.01182e-10
4.31659e-10
5.42532e-10
-5.06987e-10
-9.35175e-14
-4.67109e-10
4.86778e-10
4.68732e-10
-4.28322e-10
-1.50292e-13
-5.27036e-10
5.40516e-10
3.86074e-10
-3.42299e-10
-2.11519e-13
-5.84077e-10
5.87916e-10
2.96782e-10
-2.49392e-10
-2.7459e-13
-6.3503e-10
6.13503e-10
1.99603e-10
-1.4736e-10
-5.17229e-13
-6.65228e-10
5.17125e-10
-3.85161e-11
-7.26503e-12
-5.6423e-10
9.28871e-11
-2.47791e-10
-4.23433e-11
1.98946e-11
2.70241e-10
1.03135e-10
-6.88151e-10
-1.64991e-10
2.31171e-12
7.47696e-10
-6.97113e-10
2.25754e-10
-2.84473e-10
7.08238e-13
7.55124e-10
-6.60054e-10
3.40979e-10
-3.94908e-10
6.95051e-13
7.13288e-10
-6.06767e-10
4.4642e-10
-4.95417e-10
6.95821e-13
6.5507e-10
-5.42116e-10
5.42017e-10
-5.8609e-10
6.64226e-13
5.85526e-10
-4.71407e-10
6.27508e-10
-6.65893e-10
6.35205e-13
5.09158e-10
-3.93686e-10
7.00911e-10
-7.32241e-10
6.32169e-13
4.24385e-10
-3.04087e-10
7.59622e-10
-7.82682e-10
6.19346e-13
3.26529e-10
-1.99985e-10
8.01283e-10
-8.15356e-10
5.45171e-13
2.13513e-10
-8.30868e-11
8.24875e-10
-8.29856e-10
4.45936e-13
8.76206e-11
3.95064e-11
8.3035e-10
-8.26522e-10
3.78962e-13
-4.37152e-11
1.5582e-10
8.18516e-10
-8.06664e-10
3.06355e-13
-1.67979e-10
2.58619e-10
7.91325e-10
-7.72664e-10
2.18198e-13
-2.77496e-10
3.49672e-10
7.5072e-10
-7.25457e-10
1.50899e-13
-3.75084e-10
4.32249e-10
6.96534e-10
-6.63772e-10
7.41954e-14
-4.65083e-10
5.05229e-10
6.26821e-10
-5.85906e-10
2.54896e-14
-5.46167e-10
5.71014e-10
5.41361e-10
-4.93605e-10
-5.9681e-14
-6.18709e-10
6.31967e-10
4.43272e-10
-3.90822e-10
-1.30787e-13
-6.84285e-10
6.86355e-10
3.36603e-10
-2.80469e-10
-2.02666e-13
-7.42284e-10
7.20465e-10
2.22413e-10
-1.62756e-10
-4.65895e-13
-7.79653e-10
6.13533e-10
-4.18638e-11
-8.17677e-12
-6.65332e-10
1.01843e-10
-2.93958e-10
-4.70427e-11
2.21165e-11
3.18885e-10
1.14574e-10
-8.10487e-10
-1.83689e-10
2.40595e-12
8.77199e-10
-8.16847e-10
2.52109e-10
-3.18745e-10
6.33018e-13
8.82852e-10
-7.70457e-10
3.83468e-10
-4.45655e-10
6.46612e-13
8.31999e-10
-7.07275e-10
5.05613e-10
-5.62691e-10
6.61076e-13
7.63695e-10
-6.32277e-10
6.17003e-10
-6.68028e-10
6.55098e-13
6.82649e-10
-5.4938e-10
7.15641e-10
-7.59184e-10
6.52932e-13
5.92271e-10
-4.56783e-10
7.9857e-10
-8.3344e-10
6.51263e-13
4.91004e-10
-3.50111e-10
8.6381e-10
-8.89342e-10
6.18492e-13
3.75026e-10
-2.27813e-10
9.10207e-10
-9.26081e-10
5.55329e-13
2.43132e-10
-9.24788e-11
9.37181e-10
-9.43182e-10
5.04154e-13
9.79763e-11
4.80009e-11
9.4448e-10
-9.40935e-10
4.32548e-13
-5.19793e-11
1.80527e-10
9.33041e-10
-9.20742e-10
3.55309e-13
-1.93181e-10
2.97221e-10
9.04455e-10
-8.84038e-10
2.71215e-13
-3.17908e-10
4.02031e-10
8.59646e-10
-8.30918e-10
2.11075e-13
-4.30969e-10
5.00251e-10
7.97846e-10
-7.60081e-10
1.41579e-13
-5.38157e-10
5.90069e-10
7.17683e-10
-6.70755e-10
9.4431e-14
-6.37091e-10
6.69985e-10
6.19664e-10
-5.64949e-10
2.36156e-14
-7.24724e-10
7.40759e-10
5.07074e-10
-4.46549e-10
-5.42045e-14
-8.0123e-10
8.02751e-10
3.83638e-10
-3.18522e-10
-1.34072e-13
-8.6773e-10
8.4305e-10
2.51389e-10
-1.831e-10
-4.44605e-13
-9.10892e-10
7.20107e-10
-4.64644e-11
-8.88394e-12
-7.78429e-10
1.13673e-10
-3.45251e-10
-5.35346e-11
2.52912e-11
3.73495e-10
1.30079e-10
-9.48147e-10
-2.08758e-10
2.59461e-12
1.02423e-09
-9.53369e-10
2.86744e-10
-3.63068e-10
5.81818e-13
1.02911e-09
-8.98022e-10
4.37268e-10
-5.08891e-10
6.12236e-13
9.69036e-10
-8.24303e-10
5.77786e-10
-6.4347e-10
6.42073e-13
8.89347e-10
-7.36474e-10
7.05632e-10
-7.63685e-10
6.61601e-13
7.93866e-10
-6.37668e-10
8.17318e-10
-8.66112e-10
6.5809e-13
6.85806e-10
-5.26938e-10
9.10072e-10
-9.48784e-10
6.36908e-13
5.65015e-10
-4.01245e-10
9.82443e-10
-1.01093e-09
6.06672e-13
4.29124e-10
-2.59429e-10
1.03444e-09
-1.05263e-09
5.88138e-13
2.77034e-10
-1.04241e-10
1.06579e-09
-1.07371e-09
5.64188e-13
1.11591e-10
5.55638e-11
1.07663e-09
-1.07426e-09
5.02608e-13
-5.84326e-11
2.06082e-10
1.06695e-09
-1.0544e-09
4.29095e-13
-2.19064e-10
3.39901e-10
1.0366e-09
-1.01341e-09
3.46772e-13
-3.63436e-10
4.62389e-10
9.84791e-10
-9.50732e-10
2.5805e-13
-4.96706e-10
5.79235e-10
9.11381e-10
-8.66919e-10
1.64191e-13
-6.2386e-10
6.87426e-10
8.17782e-10
-7.64217e-10
1.18543e-13
-7.41108e-10
7.82904e-10
7.06532e-10
-6.45107e-10
8.9077e-14
-8.44416e-10
8.65556e-10
5.80169e-10
-5.12028e-10
2.92867e-15
-9.33699e-10
9.3731e-10
4.40697e-10
-3.66409e-10
-7.3958e-14
-1.01152e-09
9.83708e-10
2.89495e-10
-2.1051e-10
-4.10926e-13
-1.06228e-09
8.40692e-10
-5.36997e-11
-1.00474e-11
-9.08048e-10
1.31106e-10
-4.0385e-10
-6.20551e-11
2.93472e-11
4.36558e-10
1.50365e-10
-1.10607e-09
-2.41116e-10
2.83096e-12
1.194e-09
-1.11023e-09
3.30924e-10
-4.18645e-10
5.33676e-13
1.19742e-09
-1.04501e-09
5.0378e-10
-5.85658e-10
5.60008e-13
1.12634e-09
-9.58613e-10
6.64138e-10
-7.38626e-10
6.20106e-13
1.03248e-09
-8.54758e-10
8.08918e-10
-8.74383e-10
6.43777e-13
9.19583e-10
-7.3671e-10
9.34748e-10
-9.89657e-10
6.31053e-13
7.90991e-10
-6.05226e-10
1.03904e-09
-1.08262e-09
6.13782e-13
6.48191e-10
-4.58644e-10
1.12075e-09
-1.15317e-09
6.03287e-13
4.9047e-10
-2.95953e-10
1.18016e-09
-1.20155e-09
6.23658e-13
3.16719e-10
-1.19978e-10
1.21753e-09
-1.22794e-09
6.1047e-13
1.29775e-10
6.0773e-11
1.23269e-09
-1.23157e-09
5.55971e-13
-6.24542e-11
2.32605e-10
1.22426e-09
-1.21034e-09
4.6057e-13
-2.46993e-10
3.89115e-10
1.18981e-09
-1.16214e-09
3.93961e-13
-4.17175e-10
5.34416e-10
1.12775e-09
-1.08689e-09
2.9578e-13
-5.75573e-10
6.7227e-10
1.04023e-09
-9.88372e-10
2.14058e-13
-7.24339e-10
7.98364e-10
9.31791e-10
-8.71032e-10
1.66891e-13
-8.59288e-10
9.09377e-10
8.06284e-10
-7.37528e-10
1.17813e-13
-9.78248e-10
1.00583e-09
6.65049e-10
-5.88535e-10
4.39366e-14
-1.08239e-09
1.09051e-09
5.08199e-10
-4.23911e-10
-3.15092e-15
-1.17479e-09
1.14665e-09
3.36042e-10
-2.45396e-10
-3.63444e-13
-1.23693e-09
9.8068e-10
-6.289e-11
-1.16363e-11
-1.05913e-09
1.52979e-10
-4.71662e-10
-7.20961e-11
3.42104e-11
5.09548e-10
1.74141e-10
-1.28859e-09
-2.78993e-10
3.12751e-12
1.39032e-09
-1.29093e-09
3.82416e-10
-4.83087e-10
4.70214e-13
1.39113e-09
-1.21306e-09
5.80371e-10
-6.73507e-10
4.73784e-13
1.30573e-09
-1.11101e-09
7.62524e-10
-8.4683e-10
5.50325e-13
1.19477e-09
-9.88421e-10
9.26424e-10
-1.00063e-09
5.83826e-13
1.06205e-09
-8.48823e-10
1.06953e-09
-1.13243e-09
5.89131e-13
9.11133e-10
-6.94253e-10
1.18937e-09
-1.23997e-09
5.89719e-13
7.44259e-10
-5.2465e-10
1.28443e-09
-1.32232e-09
6.07959e-13
5.61934e-10
-3.39264e-10
1.35402e-09
-1.3793e-09
6.03825e-13
3.63944e-10
-1.40554e-10
1.3985e-09
-1.41093e-09
5.96099e-13
1.5239e-10
6.41876e-11
1.4168e-09
-1.4154e-09
5.49453e-13
-6.61385e-11
2.62802e-10
1.4066e-09
-1.3897e-09
4.96595e-13
-2.80202e-10
4.48086e-10
1.36466e-09
-1.3314e-09
4.19241e-13
-4.81767e-10
6.20434e-10
1.2905e-09
-1.24241e-09
3.3278e-13
-6.68852e-10
7.80386e-10
1.1883e-09
-1.12862e-09
2.90089e-13
-8.40358e-10
9.24188e-10
1.06421e-09
-9.95158e-10
2.12868e-13
-9.93453e-10
1.0514e-09
9.21631e-10
-8.4384e-10
1.2445e-13
-1.12932e-09
1.16384e-09
7.61537e-10
-6.74791e-10
7.76783e-14
-1.25067e-09
1.26471e-09
5.83522e-10
-4.8773e-10
6.58073e-14
-1.36057e-09
1.33373e-09
3.87622e-10
-2.83813e-10
-3.19536e-13
-1.43722e-09
1.14362e-09
-7.35653e-11
-1.3518e-11
-1.23422e-09
1.77684e-10
-5.50433e-10
-8.28616e-11
3.89276e-11
5.94367e-10
2.00235e-10
-1.49935e-09
-3.20672e-10
3.44773e-12
1.61635e-09
-1.49836e-09
4.39244e-10
-5.54424e-10
3.9724e-13
1.61315e-09
-1.40451e-09
6.65294e-10
-7.71188e-10
4.11075e-13
1.51e-09
-1.28412e-09
8.72246e-10
-9.68255e-10
4.53368e-13
1.37967e-09
-1.14094e-09
1.05929e-09
-1.14479e-09
4.85705e-13
1.22596e-09
-9.78396e-10
1.22454e-09
-1.29801e-09
5.08656e-13
1.05135e-09
-7.98477e-10
1.36505e-09
-1.42491e-09
5.46059e-13
8.57796e-10
-6.02576e-10
1.4775e-09
-1.52255e-09
5.53862e-13
6.47073e-10
-3.9072e-10
1.56009e-09
-1.58982e-09
5.28828e-13
4.19921e-10
-1.65008e-10
1.61171e-09
-1.62554e-09
5.2758e-13
1.78312e-10
6.88555e-11
1.63115e-09
-1.62802e-09
5.04068e-13
-7.24934e-11
2.99826e-10
1.61601e-09
-1.59464e-09
4.44193e-13
-3.21635e-10
5.18546e-10
1.56414e-09
-1.52477e-09
3.79048e-13
-5.58295e-10
7.2087e-10
1.47725e-09
-1.42214e-09
3.59321e-13
-7.76341e-10
9.04448e-10
1.36012e-09
-1.29191e-09
3.31128e-13
-9.72985e-10
1.06767e-09
1.218e-09
-1.1385e-09
2.15191e-13
-1.14738e-09
1.21301e-09
1.05366e-09
-9.63516e-10
1.29467e-13
-1.30328e-09
1.34376e-09
8.68402e-10
-7.68258e-10
9.78667e-14
-1.44401e-09
1.4631e-09
6.63368e-10
-5.53638e-10
1.08642e-13
-1.57294e-09
1.5476e-09
4.39414e-10
-3.21428e-10
-2.98622e-13
-1.66529e-09
1.33094e-09
-8.35829e-11
-1.51597e-11
-1.43348e-09
2.01284e-10
-6.41338e-10
-9.49645e-11
4.46641e-11
6.91639e-10
2.29705e-10
-1.74126e-09
-3.67673e-10
3.86638e-12
1.87536e-09
-1.73566e-09
5.0332e-10
-6.34696e-10
3.74808e-13
1.86666e-09
-1.62256e-09
7.61061e-10
-8.81843e-10
3.58328e-13
1.74299e-09
-1.48186e-09
9.97477e-10
-1.10767e-09
3.38348e-13
1.59172e-09
-1.31739e-09
1.21257e-09
-1.31168e-09
3.61918e-13
1.41613e-09
-1.13038e-09
1.40473e-09
-1.49104e-09
4.13194e-13
1.21627e-09
-9.22369e-10
1.57003e-09
-1.64079e-09
4.52472e-13
9.9268e-10
-6.95429e-10
1.70311e-09
-1.75622e-09
4.54092e-13
7.48089e-10
-4.51152e-10
1.80025e-09
-1.83434e-09
4.29957e-13
4.8481e-10
-1.91807e-10
1.85883e-09
-1.87322e-09
4.31383e-13
2.05772e-10
7.75744e-11
1.87778e-09
-1.87197e-09
4.36266e-13
-8.38176e-11
3.45874e-10
1.85601e-09
-1.82975e-09
3.83876e-13
-3.72519e-10
6.01229e-10
1.79377e-09
-1.74802e-09
3.52458e-13
-6.47338e-10
8.35801e-10
1.69342e-09
-1.63026e-09
3.72653e-13
-8.9934e-10
1.04651e-09
1.55932e-09
-1.48073e-09
3.28999e-13
-1.12543e-09
1.23357e-09
1.39488e-09
-1.30194e-09
2.33739e-13
-1.32675e-09
1.40113e-09
1.20235e-09
-1.09627e-09
1.67278e-13
-1.50738e-09
1.55245e-09
9.84509e-10
-8.67307e-10
1.35009e-13
-1.66978e-09
1.69088e-09
7.45352e-10
-6.18792e-10
1.64974e-13
-1.8176e-09
1.79043e-09
4.88382e-10
-3.5535e-10
-3.03388e-13
-1.92316e-09
1.5416e-09
-9.09939e-11
-1.68535e-11
-1.65482e-09
2.21073e-10
-7.45505e-10
-1.08846e-10
5.09634e-11
8.03388e-10
2.63429e-10
-2.01896e-09
-4.21702e-10
4.31765e-12
2.17292e-09
-2.00684e-09
5.76977e-10
-7.27447e-10
3.2083e-13
2.15699e-09
-1.87195e-09
8.72026e-10
-1.01072e-09
2.61868e-13
2.01039e-09
-1.70965e-09
1.14366e-09
-1.27081e-09
2.46489e-13
1.83656e-09
-1.52271e-09
1.39207e-09
-1.5072e-09
2.58459e-13
1.63758e-09
-1.309e-09
1.61545e-09
-1.71587e-09
3.15019e-13
1.40911e-09
-1.06882e-09
1.80771e-09
-1.89028e-09
3.34535e-13
1.15106e-09
-8.04963e-10
1.96287e-09
-2.02471e-09
3.49089e-13
8.66451e-10
-5.20857e-10
2.07525e-09
-2.1143e-09
3.47739e-13
5.5956e-10
-2.20064e-10
2.14172e-09
-2.15721e-09
3.61554e-13
2.35193e-10
9.13719e-11
2.16079e-09
-2.15249e-09
3.4696e-13
-1.00016e-10
4.01696e-10
2.13261e-09
-2.1014e-09
3.28996e-13
-4.33238e-10
6.96978e-10
2.05917e-09
-2.00628e-09
3.38397e-13
-7.50197e-10
9.67505e-10
1.94305e-09
-1.86996e-09
3.31527e-13
-1.04092e-09
1.21071e-09
1.78746e-09
-1.69557e-09
2.8436e-13
-1.30289e-09
1.42774e-09
1.59472e-09
-1.48545e-09
2.55641e-13
-1.53726e-09
1.62277e-09
1.36807e-09
-1.24336e-09
2.20211e-13
-1.74771e-09
1.79697e-09
1.11186e-09
-9.74556e-10
2.09966e-13
-1.93449e-09
1.95383e-09
8.32361e-10
-6.86167e-10
1.70366e-13
-2.10019e-09
2.06404e-09
5.37509e-10
-3.87822e-10
-3.65012e-13
-2.21336e-09
1.77313e-09
-9.72564e-11
-1.82973e-11
-1.89665e-09
2.39075e-10
-8.6531e-10
-1.24563e-10
5.8331e-11
9.31542e-10
3.01958e-10
-2.33772e-09
-4.83553e-10
4.82967e-12
2.51449e-09
-2.31794e-09
6.61947e-10
-8.35011e-10
2.33813e-13
2.49077e-09
-2.15896e-09
1.00197e-09
-1.16221e-09
1.7511e-13
2.31903e-09
-1.97304e-09
1.31609e-09
-1.4632e-09
1.66481e-13
2.11999e-09
-1.76094e-09
1.60373e-09
-1.73667e-09
1.84076e-13
1.89369e-09
-1.51672e-09
1.86141e-09
-1.97701e-09
2.09036e-13
1.63211e-09
-1.23935e-09
2.08281e-09
-2.17766e-09
2.37557e-13
1.33398e-09
-9.3244e-10
2.26094e-09
-2.33181e-09
2.49969e-13
1.00307e-09
-6.00942e-10
2.38987e-09
-2.43446e-09
2.82196e-13
6.45257e-10
-2.5101e-10
2.46552e-09
-2.48267e-09
2.62712e-13
2.67894e-10
1.0974e-10
2.48613e-09
-2.47587e-09
2.52057e-13
-1.20249e-10
4.67594e-10
2.45238e-09
-2.41558e-09
2.73774e-13
-5.04663e-10
8.07751e-10
2.36612e-09
-2.30396e-09
2.72238e-13
-8.70181e-10
1.12046e-09
2.22991e-09
-2.14407e-09
2.61219e-13
-1.20656e-09
1.40289e-09
2.04696e-09
-1.93894e-09
2.52041e-13
-1.51116e-09
1.65601e-09
1.82072e-09
-1.69264e-09
2.71279e-13
-1.78437e-09
1.88302e-09
1.55556e-09
-1.40992e-09
2.47439e-13
-2.02891e-09
2.08278e-09
1.25714e-09
-1.09804e-09
2.05855e-13
-2.24208e-09
2.25717e-09
9.34129e-10
-7.66646e-10
1.56912e-13
-2.42481e-09
2.37192e-09
5.97301e-10
-4.28422e-10
-4.30043e-13
-2.54037e-09
2.02617e-09
-1.06291e-10
-2.00402e-11
-2.16297e-09
2.63135e-10
-1.00241e-09
-1.42176e-10
6.64026e-11
1.07819e-09
3.45362e-10
-2.70401e-09
-5.54151e-10
5.42835e-12
2.90737e-09
-2.67679e-09
7.60134e-10
-9.60938e-10
1.24419e-13
2.87747e-09
-2.49167e-09
1.15511e-09
-1.34179e-09
8.37347e-14
2.67826e-09
-2.27848e-09
1.52092e-09
-1.69219e-09
9.79219e-14
2.44965e-09
-2.03623e-09
1.85485e-09
-2.0081e-09
1.08167e-13
2.18938e-09
-1.7556e-09
2.15112e-09
-2.28334e-09
9.05479e-14
1.88773e-09
-1.4349e-09
2.40379e-09
-2.51154e-09
1.17942e-13
1.54254e-09
-1.07845e-09
2.60595e-09
-2.68624e-09
1.57849e-13
1.15858e-09
-6.92396e-10
2.7519e-09
-2.80217e-09
1.97007e-13
7.42472e-10
-2.85774e-10
2.83695e-09
-2.85589e-09
1.82949e-13
3.04529e-10
1.31735e-10
2.85926e-09
-2.84693e-09
1.90004e-13
-1.44258e-10
5.44832e-10
2.81914e-09
-2.77601e-09
2.21982e-13
-5.88178e-10
9.37856e-10
2.71799e-09
-2.64531e-09
2.36632e-13
-1.01077e-09
1.30007e-09
2.55845e-09
-2.4576e-09
2.21366e-13
-1.40114e-09
1.6284e-09
2.34368e-09
-2.21718e-09
2.40983e-13
-1.75514e-09
1.92306e-09
2.0792e-09
-1.93036e-09
2.97648e-13
-2.0722e-09
2.18564e-09
1.77156e-09
-1.60398e-09
2.75648e-13
-2.3535e-09
2.41272e-09
1.42873e-09
-1.24691e-09
2.07201e-13
-2.59474e-09
2.60376e-09
1.06015e-09
-8.69575e-10
1.8489e-13
-2.79453e-09
2.7196e-09
6.7728e-10
-4.85582e-10
-4.88208e-13
-2.91081e-09
2.30754e-09
-1.20177e-10
-2.28784e-11
-2.46137e-09
2.96887e-10
-1.15913e-09
-1.63723e-10
7.66526e-11
1.2462e-09
3.97293e-10
-3.12599e-09
-6.39833e-10
6.13351e-12
3.3624e-09
-3.09404e-09
8.79465e-10
-1.11405e-09
2.66923e-16
3.32862e-09
-2.88038e-09
1.3415e-09
-1.56066e-09
-3.23269e-14
3.09958e-09
-2.63457e-09
1.77084e-09
-1.97106e-09
6.96995e-15
2.83478e-09
-2.35418e-09
2.16023e-09
-2.33754e-09
1.08535e-15
2.53148e-09
-2.02894e-09
2.50206e-09
-2.65305e-09
-1.92759e-14
2.17995e-09
-1.65705e-09
2.78959e-09
-2.91108e-09
-1.68278e-14
1.77857e-09
-1.24328e-09
3.01687e-09
-3.10618e-09
2.80954e-14
1.33257e-09
-7.95075e-10
3.17832e-09
-3.23301e-09
5.28497e-14
8.49722e-10
-3.23787e-10
3.26989e-09
-3.28906e-09
7.16039e-14
3.42878e-10
1.58372e-10
3.29041e-09
-3.27426e-09
1.08385e-13
-1.74624e-10
6.35076e-10
3.24074e-09
-3.18986e-09
1.57548e-13
-6.86119e-10
1.08967e-09
3.12191e-09
-3.03688e-09
1.76821e-13
-1.17487e-09
1.5103e-09
2.93531e-09
-2.81779e-09
1.83429e-13
-1.628e-09
1.89192e-09
2.68515e-09
-2.53834e-09
2.35703e-13
-2.03897e-09
2.23255e-09
2.37827e-09
-2.20629e-09
2.57203e-13
-2.40478e-09
2.53314e-09
2.02367e-09
-1.83185e-09
2.40461e-13
-2.7252e-09
2.78877e-09
1.63204e-09
-1.42547e-09
2.20662e-13
-2.99556e-09
2.99766e-09
1.21354e-09
-9.97389e-10
2.18928e-13
-3.21404e-09
3.11521e-09
7.78804e-10
-5.59785e-10
-5.04646e-13
-3.33373e-09
2.62699e-09