/*--------------------------------*- C++ -*----------------------------------*\
  =========                 |
  \\      /  F ield         | OpenFOAM: The Open Source CFD Toolbox
   \\    /   O peration     | Website:  https://openfoam.org
    \\  /    A nd           | Version:  7
     \\/     M anipulation  |
\*---------------------------------------------------------------------------*/
FoamFile
{
    version     2.0;
    format      ascii;
    class       volVectorField;
    location    "400";
    object      U;
}
// * * * * * * * * * * * * * * * * * * * * * * * * * * * * * * * * * * * * * //

dimensions      [0 1 -1 0 0 0 0];

internalField   nonuniform List<vector> 
96800
(
(2.22399e-06 3.04628e-08 -1.95947e-06)
(-7.37003e-06 1.19559e-07 5.43371e-06)
(-3.29527e-05 1.73829e-07 9.75457e-06)
(-7.04484e-05 1.90393e-07 1.24979e-05)
(-0.000113576 1.86842e-07 1.28083e-05)
(-0.000153387 1.50537e-07 1.11014e-05)
(-0.000186283 1.04143e-07 9.5372e-06)
(-0.000215674 1.54416e-07 9.14329e-06)
(-0.000245187 1.8122e-07 8.58517e-06)
(-0.000271148 1.5534e-07 6.51804e-06)
(-0.000287584 1.83787e-07 2.96309e-06)
(-0.000289861 -8.89834e-08 -1.23062e-06)
(-0.000281699 -6.98909e-08 -4.43659e-06)
(-0.000263057 -5.79694e-08 -6.74856e-06)
(-0.000237749 -7.20967e-08 -8.40654e-06)
(-0.00020783 -4.21556e-08 -9.57563e-06)
(-0.000175246 -3.66579e-08 -1.01266e-05)
(-0.000141223 1.04305e-08 -9.95685e-06)
(-0.000108267 9.55739e-09 -9.17019e-06)
(-7.64711e-05 5.008e-09 -9.12325e-06)
(-4.44661e-05 2.24374e-08 -9.26431e-06)
(-1.62476e-05 -2.71167e-08 -7.44993e-06)
(-3.97623e-06 -1.36968e-08 9.20013e-06)
(-1.92041e-05 2.40917e-07 2.96141e-05)
(-5.03616e-05 1.82166e-07 4.60347e-05)
(-9.4107e-05 1.55831e-07 5.52131e-05)
(-0.000142999 1.15788e-07 5.50641e-05)
(-0.000187862 8.06478e-09 4.86693e-05)
(-0.000224587 -5.39723e-08 4.21297e-05)
(-0.000255791 1.14871e-07 3.94075e-05)
(-0.000287536 2.15878e-07 3.53724e-05)
(-0.000314474 2.68014e-07 2.66554e-05)
(-0.000334073 2.19379e-07 1.30797e-05)
(-0.000341734 1.23792e-07 -3.10621e-06)
(-0.000335776 1.54712e-07 -1.54119e-05)
(-0.00031945 2.12735e-07 -2.45522e-05)
(-0.000294208 2.43066e-07 -3.16722e-05)
(-0.00026225 3.57108e-07 -3.81443e-05)
(-0.00022619 3.86239e-07 -4.14025e-05)
(-0.000185313 4.23609e-07 -4.01258e-05)
(-0.000144516 4.59649e-07 -3.70993e-05)
(-0.000102702 3.72182e-07 -3.69296e-05)
(-6.10178e-05 3.86125e-07 -3.76166e-05)
(-2.07324e-05 8.6288e-08 -3.24929e-05)
(-6.21971e-06 -9.29933e-08 3.05067e-05)
(-2.88036e-05 1.54819e-07 6.28335e-05)
(-6.4869e-05 1.1766e-07 8.61508e-05)
(-0.000107818 8.03766e-08 9.89553e-05)
(-0.000152825 5.26511e-08 9.80236e-05)
(-0.000195097 6.25765e-08 8.74062e-05)
(-0.000230721 1.26517e-08 7.66069e-05)
(-0.000261802 7.01695e-08 6.82819e-05)
(-0.000288931 1.058e-07 5.88384e-05)
(-0.000311064 7.83729e-08 4.3141e-05)
(-0.000326817 1.52225e-07 2.1384e-05)
(-0.000336237 5.08897e-08 -1.82337e-06)
(-0.000335053 5.82798e-08 -2.19686e-05)
(-0.000325303 3.62163e-08 -3.83881e-05)
(-0.000306526 9.35805e-08 -5.32857e-05)
(-0.000278798 6.26377e-08 -6.75238e-05)
(-0.000242413 8.23842e-08 -7.60283e-05)
(-0.000200963 1.05905e-07 -7.72874e-05)
(-0.000157382 1.88834e-07 -7.42928e-05)
(-0.00011386 1.84997e-07 -7.2946e-05)
(-6.85891e-05 2.18904e-07 -7.17047e-05)
(-2.41519e-05 -6.31369e-08 -6.09313e-05)
(-7.94391e-06 -1.18513e-07 5.71776e-05)
(-3.7245e-05 2.16049e-08 9.98691e-05)
(-7.65666e-05 5.90814e-08 0.000126702)
(-0.000118812 7.38364e-08 0.000140482)
(-0.000160084 3.79086e-08 0.000138668)
(-0.000200741 2.55584e-08 0.000124567)
(-0.000236432 -2.17907e-08 0.000108156)
(-0.0002676 4.36836e-10 9.383e-05)
(-0.000290972 -8.48114e-09 7.77266e-05)
(-0.000307747 5.65218e-08 5.68953e-05)
(-0.00031968 1.37971e-07 3.02404e-05)
(-0.000327833 6.80977e-08 2.53418e-06)
(-0.000328689 -2.67512e-08 -2.37525e-05)
(-0.000322192 -8.95349e-08 -4.82545e-05)
(-0.000307703 -7.84775e-08 -7.27976e-05)
(-0.000283383 -3.37028e-08 -9.42929e-05)
(-0.000250103 1.70574e-08 -0.00011033)
(-0.000210716 1.23908e-07 -0.00011739)
(-0.000167683 1.39627e-07 -0.000118297)
(-0.000121589 1.0025e-07 -0.000116028)
(-7.30812e-05 1.10017e-07 -0.00011063)
(-2.6019e-05 -1.14908e-07 -9.36826e-05)
(-9.62786e-06 -1.75879e-07 8.82124e-05)
(-4.63218e-05 -5.32347e-08 0.000140576)
(-9.02047e-05 2.7283e-08 0.00016792)
(-0.000133379 5.04671e-09 0.000181425)
(-0.000173931 2.84392e-09 0.000177979)
(-0.000214138 7.49383e-09 0.000161038)
(-0.000250555 2.43429e-08 0.000138838)
(-0.000281201 3.94078e-08 0.000116876)
(-0.000303044 -1.01143e-08 9.50529e-05)
(-0.000316601 -9.76548e-09 6.92521e-05)
(-0.000326228 -5.72589e-09 3.74756e-05)
(-0.000331079 7.28621e-08 4.34556e-06)
(-0.000330856 8.77374e-10 -2.70696e-05)
(-0.000323665 1.52491e-08 -5.8158e-05)
(-0.000308798 -5.08162e-08 -8.93347e-05)
(-0.000286557 -3.25513e-08 -0.000119584)
(-0.000256805 6.68418e-08 -0.000142703)
(-0.000221048 1.40557e-07 -0.000157273)
(-0.000177421 1.43352e-07 -0.000162908)
(-0.000127803 1.16023e-07 -0.000162068)
(-7.57767e-05 6.98844e-08 -0.000154651)
(-2.72081e-05 -3.20818e-08 -0.000130395)
(-1.16667e-05 -2.38961e-07 0.00012501)
(-5.68042e-05 -8.85706e-08 0.000185347)
(-0.000106969 -3.40176e-08 0.000212797)
(-0.00015308 -4.34427e-08 0.000224338)
(-0.000195965 -1.57184e-08 0.000219136)
(-0.000235649 -2.18263e-08 0.000198346)
(-0.000271732 7.01753e-08 0.000170938)
(-0.000301248 6.29039e-08 0.000142267)
(-0.000323758 3.4346e-08 0.000113559)
(-0.000338167 -1.56925e-08 8.13589e-05)
(-0.000347048 -9.34108e-08 4.31361e-05)
(-0.000348617 2.11902e-08 2.07345e-06)
(-0.000345179 7.77426e-08 -3.53874e-05)
(-0.000334171 6.01577e-08 -7.06534e-05)
(-0.000316833 4.77925e-08 -0.000106971)
(-0.000294148 2.92762e-08 -0.000143585)
(-0.000266405 1.41571e-07 -0.000175118)
(-0.000232057 1.23069e-07 -0.000197231)
(-0.000187372 2.84159e-08 -0.000208995)
(-0.000134278 6.55135e-08 -0.000211328)
(-7.92289e-05 1.32194e-07 -0.000202671)
(-2.85695e-05 -1.34268e-08 -0.000172479)
(-1.39766e-05 -2.82195e-07 0.000167925)
(-6.76962e-05 -1.24531e-07 0.000236161)
(-0.000125182 -3.21434e-08 0.000263705)
(-0.000177134 -5.06375e-08 0.000271867)
(-0.00022354 -9.0288e-09 0.000262558)
(-0.00026396 -5.47652e-08 0.000237569)
(-0.000299715 -5.70606e-09 0.000204822)
(-0.000330214 4.30901e-08 0.000169302)
(-0.000354897 1.23949e-08 0.000133932)
(-0.000373254 -6.51838e-09 9.48711e-05)
(-0.000382764 -4.40233e-08 4.85381e-05)
(-0.000382752 6.35784e-08 -2.08409e-06)
(-0.000374684 1.55161e-07 -4.85747e-05)
(-0.000358939 1.35086e-07 -8.88483e-05)
(-0.000337724 1.05356e-07 -0.000128794)
(-0.000312207 7.38044e-08 -0.000169432)
(-0.000282601 3.36674e-08 -0.000207392)
(-0.000246064 9.64356e-09 -0.000237342)
(-0.000200533 -4.90539e-08 -0.000256719)
(-0.000145508 -1.59199e-08 -0.000264137)
(-8.6876e-05 5.39339e-08 -0.000255763)
(-3.21846e-05 -1.45952e-09 -0.00021902)
(-1.64412e-05 -3.46806e-07 0.000218162)
(-7.79731e-05 -1.49011e-07 0.000295963)
(-0.000144123 -3.55643e-08 0.000321467)
(-0.000203485 -1.77906e-08 0.000324723)
(-0.0002551 -7.97323e-08 0.000308993)
(-0.00029836 -2.51489e-08 0.000278012)
(-0.000337047 1.94972e-08 0.000238854)
(-0.000371513 3.16431e-08 0.000197822)
(-0.000399849 5.14776e-09 0.000155571)
(-0.000421879 1.92333e-08 0.000109464)
(-0.00043232 7.93225e-08 5.41847e-05)
(-0.000432276 9.98962e-08 -7.42226e-06)
(-0.000421308 1.1719e-07 -6.46943e-05)
(-0.000401052 7.05106e-08 -0.000113449)
(-0.000374567 1.46212e-07 -0.000158568)
(-0.000343492 1.064e-07 -0.000201245)
(-0.00030798 2.42491e-08 -0.000240533)
(-0.000267459 -9.30828e-08 -0.00027591)
(-0.000220058 -4.00405e-08 -0.000304372)
(-0.000165011 -1.00318e-08 -0.000321097)
(-0.000102123 2.38046e-08 -0.000316006)
(-3.95121e-05 -1.60924e-08 -0.000273017)
(-1.8754e-05 -3.49651e-07 0.000277068)
(-8.81404e-05 -2.48796e-08 0.000364618)
(-0.000163492 -7.11929e-08 0.000387098)
(-0.000231194 -5.18966e-09 0.000382788)
(-0.000288912 -6.31232e-08 0.000359579)
(-0.000338717 1.67812e-08 0.000322673)
(-0.000383765 9.37565e-08 0.000278459)
(-0.000425036 6.79319e-08 0.00023153)
(-0.000458126 6.649e-08 0.000182164)
(-0.000481625 1.15683e-07 0.000126364)
(-0.000493288 2.06865e-07 5.94335e-05)
(-0.000493433 1.27294e-07 -1.37983e-05)
(-0.000481527 1.0446e-07 -8.22333e-05)
(-0.000458994 8.11261e-08 -0.00014128)
(-0.000427061 1.06658e-07 -0.000193392)
(-0.000389123 9.41356e-08 -0.000239242)
(-0.00034621 -7.64538e-08 -0.000279768)
(-0.000298201 -1.32256e-07 -0.000318001)
(-0.000247216 -1.74012e-08 -0.000355331)
(-0.000189389 -4.5262e-08 -0.000382061)
(-0.000121226 -5.39059e-08 -0.000384424)
(-4.84925e-05 -2.14827e-08 -0.00033796)
(-2.10535e-05 -3.7703e-07 0.000344301)
(-9.82067e-05 -3.43047e-08 0.000443124)
(-0.00018271 -8.58397e-09 0.000461204)
(-0.000259407 -1.52498e-08 0.000447978)
(-0.000325389 -1.67132e-08 0.000418153)
(-0.000384134 4.43121e-08 0.000374114)
(-0.000439176 7.61521e-08 0.000323751)
(-0.000487032 7.19491e-09 0.000270735)
(-0.000525791 9.63836e-08 0.000212576)
(-0.00055179 1.55683e-07 0.000144396)
(-0.000564623 1.5187e-07 6.45317e-05)
(-0.000564215 1.22753e-07 -2.10501e-05)
(-0.000551118 8.94133e-08 -0.000100409)
(-0.000527341 1.56668e-07 -0.000169944)
(-0.000492346 5.18964e-08 -0.000231281)
(-0.000449043 7.38592e-08 -0.000284656)
(-0.000398279 2.36207e-08 -0.000329751)
(-0.000341493 -1.18418e-09 -0.000371543)
(-0.000280563 -4.00144e-08 -0.000414626)
(-0.000215058 -5.04939e-08 -0.000450389)
(-0.000138568 -9.35218e-08 -0.000461871)
(-5.61959e-05 -1.92077e-08 -0.000414458)
(-2.3299e-05 -3.74471e-07 0.000419411)
(-0.000108501 -1.10224e-07 0.000532285)
(-0.000202721 1.12232e-08 0.000546324)
(-0.000288491 6.91178e-09 0.000523495)
(-0.000366399 4.41091e-08 0.000484179)
(-0.000437128 7.51324e-08 0.000432536)
(-0.00050184 9.28175e-08 0.000375141)
(-0.000556811 1.69138e-07 0.00031388)
(-0.000601301 1.72655e-07 0.000243869)
(-0.000631039 1.62372e-07 0.000161756)
(-0.000645427 6.05733e-08 6.83443e-05)
(-0.000643553 6.37127e-08 -2.8547e-05)
(-0.000628599 1.15731e-07 -0.000119956)
(-0.000603441 1.16916e-07 -0.000200369)
(-0.000567562 6.5265e-08 -0.000271902)
(-0.000520336 3.11372e-08 -0.000335413)
(-0.000462334 -2.51711e-08 -0.000389708)
(-0.000394769 -6.03872e-08 -0.000439048)
(-0.00032068 -7.63821e-08 -0.000486685)
(-0.000241752 -2.92557e-08 -0.000528558)
(-0.000154064 -1.32802e-08 -0.000548038)
(-6.14206e-05 -1.82514e-08 -0.000500303)
(-2.55897e-05 -4.0979e-07 0.000501648)
(-0.000119063 -2.29827e-07 0.000632317)
(-0.000224366 -5.63076e-08 0.000643574)
(-0.0003229 2.43151e-09 0.00061144)
(-0.000413858 1.08239e-07 0.000561555)
(-0.000498601 1.22908e-07 0.000501017)
(-0.000572646 1.43808e-07 0.000435227)
(-0.000635852 2.11198e-07 0.000362715)
(-0.000685516 2.34136e-07 0.00027886)
(-0.000719403 2.76299e-08 0.000182248)
(-0.000734197 -1.97262e-08 7.52134e-05)
(-0.000732286 -3.35492e-08 -3.66052e-05)
(-0.000715782 2.48626e-08 -0.000142289)
(-0.000688464 1.14845e-07 -0.000235217)
(-0.000651066 3.13564e-08 -0.000316677)
(-0.000599556 -1.38909e-08 -0.00039241)
(-0.00053407 -3.2368e-08 -0.000459815)
(-0.000454889 8.73178e-10 -0.000520044)
(-0.000366748 1.15099e-07 -0.000574778)
(-0.000271337 5.3317e-08 -0.000621543)
(-0.000170751 -3.99617e-08 -0.000646379)
(-6.66587e-05 -2.80255e-08 -0.000594732)
(-2.80522e-05 -4.69756e-07 0.000593132)
(-0.000131527 -1.1139e-07 0.000741957)
(-0.0002512 -5.60397e-08 0.000751717)
(-0.000365172 5.86932e-08 0.00071161)
(-0.000471329 1.6328e-07 0.000652063)
(-0.000569579 1.82654e-07 0.000581778)
(-0.000654018 1.80046e-07 0.000504304)
(-0.000725116 1.58949e-07 0.000417629)
(-0.000779679 1.17116e-07 0.000318587)
(-0.000815733 4.20071e-08 0.000207429)
(-0.000834267 -1.16787e-08 8.43016e-05)
(-0.000833403 1.80947e-08 -4.39822e-05)
(-0.000817249 -3.99164e-08 -0.000165455)
(-0.000786829 1.46863e-09 -0.000271668)
(-0.000744793 1.60987e-07 -0.000366958)
(-0.000686454 6.6811e-08 -0.000456049)
(-0.000611179 3.6303e-08 -0.000538966)
(-0.000520802 4.63444e-08 -0.000612056)
(-0.000418847 -9.72775e-09 -0.000676856)
(-0.000307824 5.31417e-08 -0.000732194)
(-0.000190933 -2.3532e-08 -0.00076053)
(-7.42078e-05 8.54966e-08 -0.000700863)
(-3.16873e-05 -5.18018e-07 0.00069439)
(-0.000148709 -7.79443e-08 0.000863543)
(-0.000286219 -3.47322e-08 0.000873654)
(-0.000418372 7.39848e-08 0.000825736)
(-0.000541049 9.67754e-08 0.000756402)
(-0.000652239 9.80539e-08 0.000674344)
(-0.000747792 7.97926e-08 0.000582158)
(-0.000826404 5.77561e-09 0.000478894)
(-0.000885393 -9.76029e-08 0.000363839)
(-0.000925811 3.82036e-08 0.000235293)
(-0.000948145 2.23253e-08 9.46428e-05)
(-0.000951947 -9.23202e-08 -5.06245e-05)
(-0.000936122 -8.47154e-08 -0.000188528)
(-0.000902674 8.03673e-09 -0.000311448)
(-0.000852226 1.99286e-08 -0.000423589)
(-0.000782645 -3.03633e-08 -0.000529919)
(-0.000696049 4.6864e-08 -0.000628812)
(-0.000595041 9.88569e-08 -0.000716412)
(-0.000481155 3.00177e-11 -0.000793327)
(-0.000353855 1.43313e-08 -0.000858204)
(-0.000218361 5.23593e-08 -0.000891454)
(-8.58514e-05 3.62085e-07 -0.00082306)
(-3.67966e-05 -5.56686e-07 0.000811086)
(-0.000171471 9.03493e-08 0.00100378)
(-0.000331266 5.69859e-08 0.00101307)
(-0.000483274 7.53953e-08 0.000956214)
(-0.000623371 9.14091e-08 0.00087555)
(-0.000747572 3.5755e-08 0.000778758)
(-0.000855779 -3.98807e-08 0.00066912)
(-0.000942908 -1.02059e-07 0.000548184)
(-0.00100817 -6.29213e-08 0.000414792)
(-0.0010552 -3.47856e-09 0.000267996)
(-0.00108296 1.61331e-09 0.000108395)
(-0.00109052 -1.21593e-07 -5.55994e-05)
(-0.00107539 -1.93363e-08 -0.000211515)
(-0.00103681 -4.45299e-08 -0.00035581)
(-0.000974913 -1.384e-07 -0.000489867)
(-0.000892814 -7.27199e-08 -0.000616295)
(-0.000793531 1.65725e-08 -0.000731995)
(-0.000681243 1.39732e-07 -0.000834179)
(-0.000552908 1.19253e-07 -0.000922316)
(-0.000409942 -1.14599e-07 -0.000999219)
(-0.000254135 -4.30974e-08 -0.00104358)
(-9.94251e-05 1.02981e-07 -0.000963856)
(-4.27932e-05 -6.1547e-07 0.000945581)
(-0.000199099 1.12784e-07 0.00116437)
(-0.00038416 -2.0816e-09 0.00117198)
(-0.00055732 7.04657e-08 0.00110433)
(-0.000716228 3.42486e-08 0.00100968)
(-0.000856396 5.47406e-08 0.000896377)
(-0.000978307 -2.13956e-08 0.000768224)
(-0.00107739 -4.81432e-08 0.000628219)
(-0.00115442 4.45317e-10 0.000475471)
(-0.00120978 4.28836e-08 0.000306959)
(-0.00124355 4.64822e-08 0.000127376)
(-0.00125214 8.44626e-08 -5.77206e-05)
(-0.00123502 -2.55195e-08 -0.000239184)
(-0.00119002 -1.40108e-07 -0.000409777)
(-0.00111561 1.40836e-08 -0.000568456)
(-0.00102077 9.87043e-08 -0.000714863)
(-0.000908029 5.24338e-08 -0.000847561)
(-0.000779843 -1.29113e-07 -0.000964158)
(-0.000633432 -1.42635e-07 -0.00106659)
(-0.000472444 1.81898e-08 -0.00115751)
(-0.000295722 1.59814e-08 -0.00121181)
(-0.000114762 -1.95952e-08 -0.00112431)
(-4.93583e-05 -7.56148e-07 0.00110165)
(-0.000230277 -5.30374e-08 0.00134841)
(-0.000441689 -7.35885e-08 0.00135418)
(-0.000639374 -7.4305e-08 0.00127333)
(-0.000818137 -8.37879e-08 0.00116332)
(-0.000978949 -8.39989e-08 0.00103297)
(-0.0011183 -1.05703e-07 0.000886197)
(-0.00123438 -3.71297e-08 0.000724236)
(-0.00132746 -1.01369e-07 0.000546324)
(-0.00139368 -1.21666e-07 0.000353918)
(-0.00143121 -8.75077e-08 0.000148844)
(-0.00144031 -6.43788e-08 -6.3197e-05)
(-0.00141849 -3.63947e-09 -0.000274016)
(-0.00136316 -4.96728e-08 -0.000474286)
(-0.00127825 -1.88774e-08 -0.000659694)
(-0.00117028 -1.49833e-08 -0.000828389)
(-0.00104131 -2.94963e-09 -0.000978786)
(-0.000890548 -9.93076e-08 -0.00111068)
(-0.00072172 -1.47713e-07 -0.00122943)
(-0.000536631 3.06366e-08 -0.00133608)
(-0.000336596 1.31995e-08 -0.0014024)
(-0.000130013 1.81793e-07 -0.00130323)
(-5.67468e-05 -8.72663e-07 0.00128112)
(-0.000264852 1.04137e-08 0.00156132)
(-0.000505907 4.50283e-08 0.00156498)
(-0.000730048 -1.98134e-08 0.00146831)
(-0.000934155 -2.02069e-08 0.0013413)
(-0.00111861 -1.73573e-07 0.00119374)
(-0.00128022 -5.61683e-08 0.00102587)
(-0.00141922 -1.26105e-08 0.000837583)
(-0.0015301 5.86924e-08 0.000630487)
(-0.00160757 -1.29879e-07 0.000407578)
(-0.00164903 -1.32158e-07 0.000171278)
(-0.00165632 -1.09074e-07 -7.41269e-05)
(-0.00162769 -4.37288e-08 -0.000318544)
(-0.00156325 6.07843e-08 -0.000551353)
(-0.0014666 -3.81594e-08 -0.000766103)
(-0.0013421 -1.46044e-08 -0.000958609)
(-0.00119127 -8.85022e-08 -0.00112816)
(-0.00101441 -1.21236e-07 -0.00127959)
(-0.000815914 -2.05699e-08 -0.00141677)
(-0.000601754 -6.09813e-08 -0.0015404)
(-0.000372847 -4.70311e-08 -0.00161707)
(-0.000141833 -1.35866e-07 -0.0015028)
(-6.52757e-05 -9.50787e-07 0.00148818)
(-0.000303031 3.70024e-09 0.00180826)
(-0.000579046 -1.21345e-07 0.00180843)
(-0.000835221 -4.4586e-08 0.00169392)
(-0.00106866 -1.25176e-07 0.0015482)
(-0.00128153 -7.36159e-08 0.00138044)
(-0.00147138 -1.56594e-08 0.0011881)
(-0.00163355 -7.88872e-08 0.000969323)
(-0.00176349 -4.38895e-08 0.00072872)
(-0.00185222 -9.47213e-08 0.000470002)
(-0.00189943 -1.70926e-07 0.000194827)
(-0.00190458 -6.51631e-08 -8.8719e-05)
(-0.00186873 -1.15705e-07 -0.000370933)
(-0.00179456 -6.51566e-08 -0.00063978)
(-0.00168328 -2.53992e-08 -0.000886488)
(-0.00153624 -8.60815e-08 -0.00110664)
(-0.00135815 -1.83085e-07 -0.00130328)
(-0.00115124 -4.39214e-08 -0.00147858)
(-0.000920237 -7.12732e-08 -0.0016366)
(-0.000669939 5.40191e-08 -0.00177677)
(-0.000407678 4.00386e-08 -0.00185824)
(-0.000152415 -1.2043e-07 -0.00172213)
(-7.47735e-05 -1.07372e-06 0.00172649)
(-0.000347224 6.07997e-10 0.00209309)
(-0.000662485 -6.64455e-08 0.00208797)
(-0.000957962 -1.3444e-08 0.00195386)
(-0.00122817 2.605e-08 0.00178623)
(-0.00147439 1.10379e-07 0.00159504)
(-0.00169418 -6.76171e-09 0.00137319)
(-0.00188155 1.32968e-07 0.00112126)
(-0.00202876 -1.037e-08 0.000842536)
(-0.00213178 3.23849e-08 0.000541746)
(-0.00218544 -4.5416e-08 0.000223313)
(-0.00219002 -3.42365e-08 -0.000105456)
(-0.00214874 1.12664e-08 -0.000431555)
(-0.00206069 -1.62893e-07 -0.000741315)
(-0.00192884 -1.91594e-07 -0.00102422)
(-0.00175573 -1.36894e-07 -0.00127963)
(-0.00154739 6.69713e-09 -0.00150945)
(-0.00130659 -1.15797e-07 -0.00171532)
(-0.00103866 -5.88388e-08 -0.00189636)
(-0.000750391 -2.35474e-08 -0.00205019)
(-0.000451018 -6.48045e-08 -0.00213254)
(-0.000167256 2.84884e-07 -0.00196406)
(-8.54008e-05 -1.18627e-06 0.00199933)
(-0.000397121 -7.89919e-08 0.00242081)
(-0.000760132 -2.71021e-08 0.00241083)
(-0.00110331 -4.17217e-08 0.00225496)
(-0.00141878 8.29211e-09 0.0020623)
(-0.00170474 -4.82054e-08 0.00184248)
(-0.00195692 -2.35331e-08 0.00158668)
(-0.00216897 3.45911e-08 0.00129544)
(-0.00233504 1.0931e-07 0.000972399)
(-0.00245155 6.62333e-08 0.000623002)
(-0.00251251 3.63724e-08 0.000254331)
(-0.00251846 3.785e-09 -0.000125113)
(-0.002469 -1.51942e-07 -0.000500878)
(-0.002365 -1.31132e-07 -0.000857699)
(-0.00220955 -1.28003e-07 -0.00118548)
(-0.00200735 -6.84314e-08 -0.00148321)
(-0.00176512 7.43529e-08 -0.00175201)
(-0.00148756 -2.84908e-08 -0.00199038)
(-0.00118 3.19313e-08 -0.00219558)
(-0.000850539 -2.96911e-08 -0.00236302)
(-0.000511205 1.64105e-07 -0.00244297)
(-0.000189651 2.45797e-07 -0.00223415)
(-9.80611e-05 -1.31812e-06 0.0023116)
(-0.000458697 -3.63275e-08 0.00279957)
(-0.000879291 -1.99587e-07 0.00278855)
(-0.00128016 6.69465e-09 0.0026078)
(-0.00165119 8.648e-08 0.00238649)
(-0.001985 -1.53509e-08 0.00213027)
(-0.00227466 1.63575e-08 0.00183347)
(-0.00251322 -7.10727e-08 0.00149489)
(-0.00269879 3.71355e-08 0.00112001)
(-0.00282614 -3.48865e-09 0.000714757)
(-0.00289191 -5.46564e-08 0.000287939)
(-0.00289569 -1.23977e-07 -0.000148523)
(-0.00283597 -2.36773e-07 -0.000581165)
(-0.00271351 -1.1988e-07 -0.000992793)
(-0.00253243 -1.24253e-07 -0.00137519)
(-0.00229985 -6.73969e-08 -0.00172402)
(-0.00201823 -7.52619e-08 -0.00203554)
(-0.00169812 1.58501e-07 -0.0023064)
(-0.00134768 4.84526e-08 -0.00253595)
(-0.000974017 -8.40334e-09 -0.00271937)
(-0.00058808 6.38556e-08 -0.00279799)
(-0.00021926 3.48093e-07 -0.00254452)
(-0.000115145 -1.52021e-06 0.00267364)
(-0.000538298 -6.18623e-08 0.00324249)
(-0.00103392 -3.05202e-07 0.00323324)
(-0.00150655 6.57101e-09 0.00302535)
(-0.00194486 6.7561e-08 0.00276552)
(-0.00233645 1.27668e-07 0.00246479)
(-0.00267011 -1.0694e-07 0.00211696)
(-0.00294037 -1.5915e-07 0.00172068)
(-0.00314419 -1.4732e-07 0.00128274)
(-0.00327944 -4.58823e-08 0.000811687)
(-0.00334416 4.57457e-08 0.000318667)
(-0.00333873 -1.18437e-07 -0.00018321)
(-0.00326153 -1.61244e-07 -0.000678346)
(-0.00311592 -1.34064e-07 -0.00115402)
(-0.00290684 2.46943e-08 -0.00159908)
(-0.00263559 1.28506e-08 -0.00200286)
(-0.00230915 -7.23843e-09 -0.00236105)
(-0.00194055 1.35444e-07 -0.00266738)
(-0.00154187 1.05463e-07 -0.00292297)
(-0.00111793 2.97926e-08 -0.00312368)
(-0.000676258 5.37511e-08 -0.00320554)
(-0.000253349 4.94449e-07 -0.00290514)
(-0.000138855 -1.86191e-06 0.00310436)
(-0.000646873 -5.86787e-08 0.00376955)
(-0.00124151 -2.38383e-07 0.00376486)
(-0.00180846 -1.34071e-07 0.00352424)
(-0.00232994 -8.3168e-08 0.00321656)
(-0.00279156 1.80525e-08 0.00285856)
(-0.00317979 -6.46783e-08 0.00244433)
(-0.00348762 -2.89303e-07 0.00197725)
(-0.00370982 -2.80003e-07 0.00146306)
(-0.00384766 -1.59533e-07 0.0009123)
(-0.00390303 -1.00917e-07 0.000340272)
(-0.00387544 2.07509e-09 -0.000236393)
(-0.00376858 -5.51371e-08 -0.00080325)
(-0.00358868 -5.497e-08 -0.0013507)
(-0.00333763 4.28649e-08 -0.00186276)
(-0.00301779 -4.51092e-08 -0.0023267)
(-0.00263902 -1.08331e-07 -0.00273398)
(-0.00221485 -4.29995e-08 -0.00308153)
(-0.00175908 1.61879e-07 -0.00336646)
(-0.0012773 7.76078e-09 -0.00358696)
(-0.000773098 -2.51139e-08 -0.00367093)
(-0.000289437 6.69975e-07 -0.00332113)
(-0.000172609 -2.37863e-06 0.00363143)
(-0.000796713 1.18081e-08 0.00440955)
(-0.00152606 -1.74868e-07 0.00440917)
(-0.00221943 -2.7372e-07 0.00412716)
(-0.00285136 -1.27501e-07 0.00375789)
(-0.00340554 -2.13529e-07 0.00332399)
(-0.00386347 -1.45933e-07 0.00282377)
(-0.00421462 -2.12616e-07 0.00226488)
(-0.00445544 -2.37956e-07 0.00165483)
(-0.00458716 -1.53135e-07 0.00100553)
(-0.00461708 -1.92263e-08 0.000339302)
(-0.00454791 -5.12532e-09 -0.000323811)
(-0.00439074 1.16303e-07 -0.000973349)
(-0.00415334 1.13833e-07 -0.00159762)
(-0.00383907 -3.88237e-08 -0.00217993)
(-0.00345437 -7.61704e-08 -0.00270574)
(-0.0030103 6.43606e-09 -0.00316577)
(-0.00252075 9.63612e-10 -0.00355588)
(-0.00199603 -2.07612e-08 -0.00387332)
(-0.00144508 7.03525e-08 -0.00411416)
(-0.000875405 2.36965e-07 -0.00420129)
(-0.000326321 1.05535e-06 -0.0037923)
(-0.000218864 -3.10076e-06 0.00429355)
(-0.000999723 1.09237e-07 0.00520334)
(-0.00191129 -3.38422e-07 0.00520493)
(-0.00277842 -2.48566e-07 0.00486976)
(-0.0035663 -2.94303e-07 0.00442084)
(-0.00425055 -2.50314e-07 0.00388613)
(-0.00480634 -2.83871e-07 0.00326965)
(-0.00521436 -1.78498e-07 0.00258499)
(-0.005472 -1.38611e-07 0.00184656)
(-0.00558442 -1.16122e-07 0.00107334)
(-0.00556175 -1.29633e-07 0.000292765)
(-0.00542045 -7.52692e-08 -0.000473017)
(-0.00517924 1.12642e-07 -0.00121349)
(-0.0048486 3.91262e-08 -0.00191877)
(-0.004439 -6.19195e-08 -0.00257303)
(-0.00396247 -6.63453e-08 -0.00316059)
(-0.00343275 -1.92617e-08 -0.00367308)
(-0.00285941 -1.25111e-07 -0.00410339)
(-0.00225086 -6.49532e-08 -0.00445255)
(-0.00162007 1.16136e-07 -0.00471398)
(-0.000980047 2.63712e-07 -0.00480054)
(-0.000362987 7.81107e-07 -0.00431906)
(-0.000276486 -4.01174e-06 0.00513156)
(-0.00125544 3.34339e-07 0.00619969)
(-0.00240414 -3.10578e-07 0.00620592)
(-0.00350751 -9.36233e-08 0.00580787)
(-0.00451801 -1.9138e-07 0.00525772)
(-0.00539396 -2.01139e-07 0.00458753)
(-0.00609757 -9.58616e-08 0.0038097)
(-0.00659776 -5.06479e-08 0.00294703)
(-0.00688173 -9.37644e-08 0.00202837)
(-0.00696063 -1.30996e-08 0.0010904)
(-0.00685526 -8.82979e-08 0.000165573)
(-0.00659683 -8.95961e-08 -0.000723551)
(-0.00621764 4.27583e-08 -0.00156672)
(-0.00574174 2.28942e-08 -0.0023549)
(-0.00518685 -1.50368e-07 -0.00307817)
(-0.00457657 -2.58974e-08 -0.00372452)
(-0.00392431 -7.99105e-08 -0.00428094)
(-0.00323844 -2.38696e-08 -0.00474354)
(-0.00252794 -7.43474e-08 -0.00511505)
(-0.00180515 5.65694e-09 -0.00539297)
(-0.00108436 2.00899e-07 -0.00547245)
(-0.000398237 7.90559e-07 -0.00490358)
(-0.000338955 -4.97716e-06 0.00617679)
(-0.00153709 3.52229e-07 0.00744357)
(-0.00296576 -2.4191e-07 0.00747337)
(-0.0043664 -1.50818e-07 0.00701219)
(-0.00567405 -1.8919e-07 0.00634354)
(-0.00682681 -1.28743e-07 0.00550129)
(-0.00776489 -6.48323e-08 0.0045026)
(-0.00843262 -3.66603e-08 0.00338881)
(-0.00879537 -5.22727e-08 0.00221509)
(-0.00885639 -1.39363e-07 0.00104044)
(-0.00865018 2.35794e-08 -8.46806e-05)
(-0.00822677 6.26237e-08 -0.00113368)
(-0.00763854 9.57254e-08 -0.00209782)
(-0.00693744 -9.2758e-08 -0.00297112)
(-0.00616301 2.17579e-08 -0.00375497)
(-0.00534986 1.74056e-07 -0.00444315)
(-0.0045177 1.89878e-08 -0.00502772)
(-0.00367633 -1.65998e-07 -0.00550563)
(-0.00283539 -1.84425e-07 -0.00588406)
(-0.00200451 3.74732e-08 -0.00616359)
(-0.00118766 2.10924e-07 -0.00622054)
(-0.000430465 1.0858e-06 -0.00554394)
(-0.000394573 -5.86516e-06 0.00742929)
(-0.00179311 4.44461e-07 0.00894838)
(-0.00349688 -2.76578e-07 0.00904214)
(-0.00521591 -1.30355e-07 0.00854185)
(-0.00687257 -1.2642e-07 0.00775983)
(-0.00838766 -1.67776e-07 0.00672525)
(-0.00967391 2.86459e-08 0.00545588)
(-0.0106408 7.44704e-08 0.00401037)
(-0.0112113 -8.81397e-08 0.00247674)
(-0.0113515 -6.98928e-08 0.000953378)
(-0.0110876 4.34137e-08 -0.000474711)
(-0.0104836 7.03278e-08 -0.00176088)
(-0.00962087 -7.36278e-08 -0.00288854)
(-0.00859417 -2.27265e-07 -0.00386109)
(-0.00748993 3.25076e-08 -0.00469379)
(-0.00636895 3.08932e-09 -0.00539791)
(-0.00526807 1.01278e-07 -0.00597708)
(-0.00420429 -1.59484e-07 -0.0064367)
(-0.0031873 -1.46071e-07 -0.00679135)
(-0.00221722 4.37594e-08 -0.00704113)
(-0.00129158 5.38592e-08 -0.00705221)
(-0.000459014 9.04787e-07 -0.00624194)
(-0.000427032 -6.26205e-06 0.00884024)
(-0.00196032 3.30509e-07 0.0106724)
(-0.00387152 -3.84453e-07 0.0108881)
(-0.00585898 -2.88798e-07 0.0103982)
(-0.00785027 -1.54705e-07 0.00954649)
(-0.00976125 -1.65252e-07 0.00834851)
(-0.0114857 -4.74244e-08 0.00680342)
(-0.0129021 6.48618e-08 0.0049746)
(-0.0138765 -1.11517e-07 0.00297873)
(-0.0143065 -2.06713e-07 0.000960746)
(-0.0141592 -1.04511e-07 -0.000937767)
(-0.0134709 6.74808e-08 -0.0026127)
(-0.012339 -3.37718e-07 -0.00401335)
(-0.0109111 -1.09732e-07 -0.00513965)
(-0.00934799 6.98751e-08 -0.00602339)
(-0.00777274 -4.26024e-08 -0.00670668)
(-0.00626699 8.69658e-09 -0.00722555)
(-0.0048746 1.09153e-08 -0.00760834)
(-0.00360479 -5.14674e-08 -0.0078822)
(-0.0024496 -6.2822e-08 -0.00805403)
(-0.00139607 3.58488e-07 -0.00797507)
(-0.000484538 1.18864e-06 -0.00699368)
(-0.000425243 -5.94415e-06 0.010313)
(-0.00198842 3.26733e-07 0.0125156)
(-0.00399117 -4.84509e-07 0.01292)
(-0.00613889 -3.18279e-07 0.0125134)
(-0.00837322 -2.14657e-07 0.011671)
(-0.010624 -1.84626e-07 0.0103885)
(-0.0127855 -6.976e-08 0.00863364)
(-0.0147224 -7.67835e-08 0.00644965)
(-0.0162691 -1.02403e-07 0.00395375)
(-0.0172505 -2.58926e-07 0.00132083)
(-0.0175285 -2.74947e-07 -0.0012452)
(-0.0170398 -2.2858e-07 -0.00354826)
(-0.0158277 -1.84499e-07 -0.00544654)
(-0.0140525 2.71843e-08 -0.00688521)
(-0.0119503 -1.62577e-07 -0.00788863)
(-0.00975799 -2.03823e-07 -0.00853526)
(-0.00766295 -1.60614e-07 -0.00892312)
(-0.00577568 1.33718e-07 -0.00913472)
(-0.00413187 9.53737e-08 -0.00923309)
(-0.00271715 7.85163e-08 -0.0092456)
(-0.00150276 4.0452e-07 -0.00901265)
(-0.000507494 1.39645e-06 -0.00780075)
(-0.000384837 -4.75513e-06 0.0117264)
(-0.00186181 3.21942e-07 0.0143508)
(-0.00382322 -4.86309e-07 0.0150075)
(-0.00600069 -3.82619e-07 0.0147648)
(-0.00834432 -1.6616e-07 0.0140242)
(-0.0108042 -6.63447e-08 0.0127608)
(-0.0132878 -1.15027e-07 0.0109133)
(-0.0156766 -1.00813e-07 0.00848662)
(-0.0178123 -2.00183e-07 0.0055675)
(-0.0194938 -2.66985e-07 0.00231735)
(-0.0204987 -3.28143e-07 -0.00103799)
(-0.0206211 -3.84163e-07 -0.00421793)
(-0.0197539 -4.18785e-08 -0.00694714)
(-0.017945 3.95183e-08 -0.00901866)
(-0.0154247 -2.07228e-07 -0.0103657)
(-0.0125434 -1.42488e-07 -0.0110615)
(-0.00966366 -2.3214e-07 -0.0112743)
(-0.00705504 1.37712e-08 -0.0111903)
(-0.00485 1.3734e-07 -0.0109656)
(-0.00305616 -2.98616e-08 -0.0106852)
(-0.00162181 6.05839e-07 -0.0101903)
(-0.000525656 1.25243e-06 -0.00866216)
(-0.000310291 -3.1496e-06 0.0129538)
(-0.0015945 5.11346e-08 0.0160527)
(-0.0033906 -5.38411e-07 0.0170219)
(-0.00546953 -2.98913e-07 0.0170163)
(-0.00778506 -2.22918e-07 0.0164573)
(-0.0102912 -1.68277e-07 0.0153106)
(-0.0129176 -1.79477e-07 0.0134908)
(-0.0155749 -1.58837e-07 0.0109705)
(-0.0181426 -1.46386e-07 0.00779379)
(-0.0204543 -6.7589e-08 0.00406895)
(-0.0222732 -2.57514e-07 -1.29237e-05)
(-0.0233139 -2.40176e-07 -0.00416255)
(-0.0232995 2.96011e-08 -0.00801409)
(-0.0220299 -6.03514e-08 -0.0111494)
(-0.0195585 -1.93865e-07 -0.0132896)
(-0.0162005 -1.45673e-07 -0.0143526)
(-0.0124754 -2.68045e-07 -0.0144911)
(-0.00891854 -1.35434e-07 -0.0140179)
(-0.00589657 1.02226e-07 -0.0132718)
(-0.00353574 2.58958e-07 -0.0124857)
(-0.00177806 7.49401e-07 -0.0115518)
(-0.000547048 9.03972e-07 -0.00958263)
(-0.000222096 -6.89782e-07 0.0138829)
(-0.00120786 -3.51651e-07 0.0175122)
(-0.0027261 -6.06728e-07 0.0188518)
(-0.00458927 -2.3182e-07 0.0191381)
(-0.00674144 -2.52327e-07 0.0188224)
(-0.00913248 -2.23937e-07 0.017864)
(-0.0117106 -1.7737e-07 0.0161657)
(-0.0144133 -2.26554e-07 0.0136856)
(-0.0171663 -4.61382e-08 0.0104315)
(-0.0198651 -4.81075e-08 0.00645623)
(-0.0223285 -1.10726e-07 0.00187546)
(-0.0242864 -1.24767e-07 -0.00309026)
(-0.0253867 -1.2099e-07 -0.00809607)
(-0.0252519 -2.96664e-08 -0.0126287)
(-0.0235588 -1.63752e-08 -0.0161137)
(-0.0203569 -1.04482e-07 -0.0181492)
(-0.0160977 -3.56723e-08 -0.0186318)
(-0.011546 -1.11169e-07 -0.017863)
(-0.00745593 -7.0793e-08 -0.0164158)
(-0.00426717 4.2305e-07 -0.0148282)
(-0.00201897 9.03848e-07 -0.013183)
(-0.000583471 1.57823e-06 -0.0105828)
(-9.6443e-05 -6.32809e-07 0.0143367)
(-0.000686925 -8.25646e-07 0.0186153)
(-0.00183542 -5.70267e-07 0.0203842)
(-0.00336476 -2.33779e-07 0.0210053)
(-0.005214 -2.11284e-07 0.0209725)
(-0.00733364 -1.53772e-07 0.020247)
(-0.00967855 -1.12455e-07 0.0187327)
(-0.0122122 -1.23488e-07 0.0163894)
(-0.0149015 -5.20314e-08 0.013209)
(-0.0176993 -2.38824e-08 0.00920343)