/*--------------------------------*- C++ -*----------------------------------*\
  =========                 |
  \\      /  F ield         | OpenFOAM: The Open Source CFD Toolbox
   \\    /   O peration     | Website:  https://openfoam.org
    \\  /    A nd           | Version:  7
     \\/     M anipulation  |
\*---------------------------------------------------------------------------*/
FoamFile
{
    version     2.0;
    format      ascii;
    class       volVectorField;
    location    "93";
    object      ddt0(hU);
}
// * * * * * * * * * * * * * * * * * * * * * * * * * * * * * * * * * * * * * //

dimensions      [0 2 -2 0 0 0 0];

internalField   nonuniform List<vector> 
400
(
(-1.95394e-10 -1.29885e-10 0)
(-1.80626e-10 -7.46716e-12 0)
(8.67639e-12 2.42188e-10 0)
(2.58604e-10 1.2443e-10 0)
(3.30117e-10 -4.35112e-10 0)
(1.54428e-09 -5.16834e-10 0)
(-1.91823e-12 -8.54104e-10 0)
(2.15861e-09 -1.49898e-09 0)
(-1.03345e-09 2.6468e-10 0)
(2.20127e-10 2.54527e-10 0)
(3.00492e-10 1.05996e-10 0)
(4.60615e-10 -4.00689e-11 0)
(1.96266e-10 -1.6366e-10 0)
(-1.94627e-10 -1.44928e-10 0)
(-2.78453e-10 -3.81568e-11 0)
(-1.13739e-10 5.06871e-11 0)
(4.01381e-11 7.19415e-11 0)
(8.55856e-11 5.21876e-11 0)
(3.6401e-11 2.26462e-11 0)
(-3.50014e-12 -3.03306e-12 0)
(-1.52103e-11 -2.31514e-10 0)
(6.2101e-11 6.2957e-11 0)
(7.61397e-12 3.27469e-10 0)
(1.6652e-11 2.14323e-10 0)
(-4.41068e-10 -6.2475e-10 0)
(-1.33541e-09 5.31091e-11 0)
(7.06512e-10 -1.31575e-09 0)
(-4.13921e-09 -1.15551e-09 0)
(1.09847e-09 5.64723e-10 0)
(-1.46995e-11 2.54631e-10 0)
(-1.37837e-10 2.30817e-10 0)
(2.7971e-11 4.70236e-11 0)
(-6.08775e-12 -2.26079e-10 0)
(-6.01219e-11 -2.59341e-10 0)
(-2.33368e-11 -9.29615e-11 0)
(5.28743e-11 6.37624e-11 0)
(7.38835e-11 1.14514e-10 0)
(4.08499e-11 9.33437e-11 0)
(-1.89068e-11 5.42542e-11 0)
(-4.48411e-11 1.32838e-11 0)
(1.62086e-10 -4.67397e-11 0)
(2.04484e-10 4.58772e-11 0)
(-3.18237e-11 -4.70025e-12 0)
(-1.54773e-10 1.36259e-10 0)
(-9.85931e-11 -4.96982e-11 0)
(1.58237e-10 6.25553e-10 0)
(-1.32203e-09 -2.6074e-10 0)
(1.61657e-09 1.00173e-09 0)
(6.00254e-10 1.33287e-10 0)
(-2.6821e-10 -1.45112e-10 0)
(-4.17401e-12 7.20175e-11 0)
(-2.16911e-10 2.28456e-11 0)
(-2.77721e-10 -1.01188e-10 0)
(-5.02378e-11 -8.47122e-11 0)
(1.54008e-10 2.86318e-11 0)
(1.93916e-10 1.04694e-10 0)
(1.14884e-10 9.66083e-11 0)
(7.84669e-12 6.17567e-11 0)
(-8.01821e-11 1.9839e-11 0)
(-8.67906e-11 -1.55848e-11 0)
(9.47211e-11 1.18466e-10 0)
(7.7531e-11 -4.34883e-11 0)
(2.52218e-11 -1.43877e-10 0)
(-1.11272e-10 4.68457e-12 0)
(1.00994e-10 2.67935e-10 0)
(-2.13492e-10 -9.76059e-11 0)
(1.92382e-10 5.29198e-10 0)
(8.45229e-10 5.95632e-10 0)
(-5.55478e-10 -3.72245e-10 0)
(-7.69227e-11 -1.11996e-10 0)
(9.01268e-11 -7.60632e-11 0)
(-2.21531e-10 -1.52746e-10 0)
(-1.79201e-10 -5.1171e-11 0)
(9.22794e-11 9.82902e-11 0)
(2.26733e-10 1.61369e-10 0)
(1.6423e-10 1.35517e-10 0)
(4.7248e-11 5.30596e-11 0)
(-3.38619e-11 -1.6259e-11 0)
(-8.37281e-11 -4.91228e-11 0)
(-7.48131e-11 -4.6276e-11 0)
(3.48825e-11 1.05796e-10 0)
(-4.98462e-11 -9.84687e-12 0)
(3.74974e-11 -2.78671e-11 0)
(-8.71961e-11 -9.68089e-11 0)
(1.32644e-10 2.4839e-10 0)
(-1.93767e-10 -2.21276e-10 0)
(4.07225e-10 4.19273e-10 0)
(-2.17268e-10 -2.51942e-10 0)
(-3.16023e-10 -2.33275e-10 0)
(2.12565e-10 7.44999e-11 0)
(-6.68914e-11 -1.03307e-10 0)
(-1.86887e-10 -1.41611e-10 0)
(5.51764e-11 5.82433e-11 0)
(2.2963e-10 1.90644e-10 0)
(1.97316e-10 1.58577e-10 0)
(3.43371e-11 7.7727e-11 0)
(-8.88235e-11 -6.47709e-12 0)
(-8.62716e-11 -7.43041e-11 0)
(-3.62835e-11 -1.01393e-10 0)
(8.26135e-12 -6.94874e-11 0)
(-2.16321e-11 4.78148e-11 0)
(-7.22341e-11 1.72192e-11 0)
(1.75429e-11 6.41449e-11 0)
(-4.33286e-12 -5.59362e-11 0)
(4.27978e-11 1.20924e-10 0)
(-7.60294e-11 -8.12954e-12 0)
(1.36546e-10 1.12311e-10 0)
(-3.29885e-10 -2.25973e-10 0)
(1.05149e-10 1.05123e-10 0)
(1.52823e-10 2.70297e-11 0)
(-2.03281e-10 -1.44375e-10 0)
(1.14517e-11 3.7091e-12 0)
(2.65215e-10 1.68343e-10 0)
(2.05799e-10 1.8706e-10 0)
(3.83793e-11 8.94254e-11 0)
(-1.11743e-10 6.09857e-12 0)
(-1.89194e-10 -2.80011e-11 0)
(-1.28184e-10 -4.61168e-11 0)
(1.42352e-11 -8.0932e-11 0)
(1.15991e-10 -7.75559e-11 0)
(-4.868e-11 -1.79881e-11 0)
(-3.15534e-11 3.80941e-11 0)
(-1.40094e-11 4.42304e-11 0)
(7.3568e-11 9.28853e-11 0)
(-3.91657e-11 -2.95238e-11 0)
(5.03238e-11 1.30664e-10 0)
(-6.85693e-11 -4.29322e-12 0)
(-9.71574e-11 1.01404e-11 0)
(1.56127e-10 1.78204e-10 0)
(-1.50399e-10 -9.2592e-11 0)
(-7.77743e-11 -3.44232e-11 0)
(2.37841e-10 1.50617e-10 0)
(2.43378e-10 1.02055e-10 0)
(4.29237e-11 2.60397e-11 0)
(-1.34125e-10 -1.09763e-11 0)
(-1.89867e-10 -2.78124e-11 0)
(-1.68024e-10 -3.3739e-12 0)
(-9.70219e-11 4.47179e-11 0)
(4.40856e-11 3.90104e-11 0)
(1.68744e-10 -2.02584e-11 0)
(-3.23128e-11 -4.92288e-11 0)
(2.89482e-11 6.5099e-11 0)
(-2.10916e-11 2.6584e-11 0)
(7.32143e-11 1.35717e-10 0)
(-4.84459e-11 -1.79564e-11 0)
(8.21037e-11 8.71451e-11 0)
(-1.20471e-10 -4.57238e-11 0)
(7.49557e-11 9.16272e-11 0)
(-2.99336e-11 1.19492e-11 0)
(-1.42458e-10 -7.39421e-11 0)
(1.95965e-10 7.93068e-11 0)
(1.65901e-10 6.68344e-11 0)
(2.71924e-12 -8.74751e-11 0)
(-2.86113e-11 -1.30022e-10 0)
(-1.14091e-10 -6.49162e-11 0)
(-1.50618e-10 1.49718e-11 0)
(-7.41269e-11 6.9643e-11 0)
(-1.1318e-11 1.35585e-10 0)
(2.27458e-11 1.5722e-10 0)
(8.196e-11 3.93665e-11 0)
(1.59857e-11 -5.84205e-12 0)
(4.26154e-11 1.35963e-11 0)
(-8.59634e-12 6.0604e-11 0)
(-3.84385e-13 3.48788e-11 0)
(-1.5011e-11 5.12136e-11 0)
(3.486e-11 -5.73531e-13 0)
(-1.8165e-11 -1.97777e-11 0)
(8.85366e-11 4.95438e-11 0)
(-6.04684e-11 -8.92597e-11 0)
(6.12971e-12 3.374e-11 0)
(1.1533e-10 1.88062e-11 0)
(-6.89081e-11 -1.19713e-10 0)
(-1.03036e-10 -1.31763e-10 0)
(1.75417e-11 -1.34606e-10 0)
(1.78332e-11 -1.03305e-10 0)
(-5.04301e-12 2.84637e-11 0)
(5.27315e-11 1.24425e-10 0)
(7.94768e-11 1.73875e-10 0)
(1.107e-11 1.84806e-10 0)
(-5.6311e-11 5.45467e-11 0)
(6.22465e-12 2.96092e-11 0)
(-1.7589e-11 -2.32226e-11 0)
(2.19806e-11 6.00685e-11 0)
(-4.2304e-11 4.04763e-12 0)
(1.03077e-11 7.25882e-11 0)
(-3.54451e-11 9.60032e-13 0)
(7.94258e-11 1.51553e-11 0)
(9.82266e-12 8.98338e-12 0)
(2.01345e-11 -7.54341e-11 0)
(4.99314e-11 3.51667e-11 0)
(-1.09284e-10 -3.9622e-11 0)
(-7.83291e-11 -1.06733e-10 0)
(-3.637e-11 -2.515e-11 0)
(-6.10053e-11 -2.47938e-11 0)
(6.17538e-11 -4.33542e-11 0)
(2.07644e-10 4.33728e-11 0)
(2.07688e-10 9.92325e-11 0)
(1.10736e-10 1.0583e-10 0)
(-3.92948e-11 9.09382e-11 0)
(-1.69793e-10 4.82897e-12 0)
(-4.72691e-12 -1.09839e-11 0)
(-4.13813e-11 4.3121e-11 0)
(3.5165e-11 1.01771e-11 0)
(-4.37832e-11 6.1214e-11 0)
(2.23789e-11 4.58102e-11 0)
(-7.02655e-11 8.60757e-11 0)
(8.65618e-11 3.81871e-11 0)
(-2.90452e-11 1.93747e-11 0)
(4.82806e-11 1.10289e-11 0)
(7.63115e-11 -3.99204e-11 0)
(-1.55924e-10 1.18766e-11 0)
(-6.20386e-11 5.30584e-11 0)
(-2.44719e-11 4.12131e-11 0)
(-1.16527e-10 8.44296e-11 0)
(3.14204e-11 1.30227e-10 0)
(2.18131e-10 1.01761e-10 0)
(2.10274e-10 1.07403e-11 0)
(1.10404e-10 -4.17692e-11 0)
(-2.38051e-11 -5.78292e-11 0)
(-1.67338e-10 -6.4872e-11 0)
(1.4531e-11 -2.44986e-13 0)
(5.70562e-12 4.61064e-11 0)
(7.90942e-12 -1.11216e-11 0)
(-1.63402e-11 8.28647e-11 0)
(1.71246e-11 2.74961e-11 0)
(-3.39343e-11 1.18055e-10 0)
(-4.20744e-12 6.01506e-11 0)
(2.55013e-11 -9.65188e-12 0)
(-3.81796e-11 7.6795e-11 0)
(9.11251e-11 -1.11506e-10 0)
(3.80334e-11 -4.24662e-11 0)
(-1.04081e-10 1.06385e-10 0)
(-9.32628e-11 9.26711e-11 0)
(-2.65817e-11 1.547e-10 0)
(-8.50951e-12 2.09934e-10 0)
(-1.65461e-11 1.25957e-10 0)
(2.26192e-11 -1.29123e-11 0)
(7.96836e-11 -1.02237e-10 0)
(4.71107e-11 -1.56399e-10 0)
(-5.7042e-11 -1.20656e-10 0)
(-2.34441e-11 5.18226e-11 0)
(1.1275e-11 -1.28784e-11 0)
(-2.78569e-11 4.6891e-11 0)
(5.66709e-11 -6.56915e-12 0)
(-2.18743e-11 8.07903e-11 0)
(4.98726e-11 3.09551e-11 0)
(-1.41824e-10 1.14318e-10 0)
(8.72169e-11 -7.4704e-11 0)
(-9.36288e-11 5.15514e-11 0)
(-5.87599e-11 -3.79991e-11 0)
(2.43956e-10 -1.80842e-10 0)
(6.61728e-11 -7.68731e-11 0)
(-8.3873e-11 6.99657e-11 0)
(-2.85284e-11 1.54283e-10 0)
(-9.85676e-11 1.52233e-10 0)
(-1.91197e-10 1.16828e-10 0)
(-1.25857e-10 5.88727e-11 0)
(-4.12948e-12 -3.38648e-11 0)
(7.61235e-11 -1.43027e-10 0)
(9.6447e-11 -1.27264e-10 0)
(-4.64069e-11 3.52858e-11 0)
(-3.01339e-11 -3.94295e-13 0)
(-4.7272e-11 7.36345e-11 0)
(8.73714e-11 -3.60354e-11 0)
(-5.62121e-11 1.52269e-10 0)
(1.04795e-10 -6.84479e-11 0)
(-1.59346e-10 1.39798e-10 0)
(-7.31936e-12 -1.97135e-11 0)
(7.1573e-11 -9.08089e-11 0)
(-2.56062e-10 1.17579e-10 0)
(3.2517e-11 -7.65532e-11 0)
(2.5081e-10 -2.19657e-10 0)
(1.51788e-10 -9.23054e-11 0)
(1.46363e-11 2.15859e-11 0)
(-1.24249e-10 5.13151e-11 0)
(-2.05842e-10 1.02936e-10 0)
(-1.95937e-10 1.22601e-10 0)
(-1.16474e-10 7.01789e-11 0)
(5.09355e-11 -1.24245e-11 0)
(1.93436e-10 -5.27133e-11 0)
(-2.07668e-11 -2.60313e-11 0)
(-6.27576e-11 3.84333e-11 0)
(-2.54236e-11 4.51948e-11 0)
(2.48879e-11 1.04444e-10 0)
(-4.62134e-12 7.0561e-11 0)
(4.01783e-11 3.35659e-12 0)
(6.76343e-11 5.93914e-11 0)
(-2.67731e-10 1.97521e-10 0)
(2.2909e-10 -1.67565e-10 0)
(-1.61552e-11 3.59952e-11 0)
(-2.69896e-10 1.10635e-10 0)
(5.05044e-11 -9.65689e-11 0)
(2.26581e-10 -1.73741e-10 0)
(1.26578e-10 -1.20449e-10 0)
(-2.90807e-12 -2.88269e-11 0)
(-9.53716e-11 7.6665e-11 0)
(-1.5929e-10 1.31835e-10 0)
(-1.3047e-10 1.46874e-10 0)
(3.58206e-11 1.19423e-10 0)
(1.62992e-10 1.83827e-11 0)
(3.94412e-11 -8.29296e-11 0)
(-4.26985e-11 6.00401e-11 0)
(2.1178e-11 4.33437e-11 0)
(-7.40817e-11 1.76507e-10 0)
(9.34498e-11 -1.571e-10 0)
(-1.27917e-10 2.50766e-10 0)
(3.68409e-10 -2.93462e-10 0)
(-3.88117e-10 4.20469e-10 0)
(-1.04706e-10 5.43176e-11 0)
(2.26467e-10 -1.00649e-10 0)
(-1.91518e-10 1.35729e-10 0)
(-1.86483e-10 1.12785e-10 0)
(7.02205e-11 -7.00225e-11 0)
(1.68165e-10 -1.44934e-10 0)
(1.4227e-10 -9.29172e-11 0)
(4.86764e-11 -3.01639e-12 0)
(-4.98749e-11 7.16058e-11 0)
(-7.93613e-11 1.39842e-10 0)
(-2.3483e-11 1.53028e-10 0)
(2.74213e-11 4.66386e-11 0)
(1.00975e-10 -9.97972e-11 0)
(5.24941e-11 8.4981e-11 0)
(3.72132e-11 1.27242e-10 0)
(-1.4845e-10 1.24875e-10 0)
(1.4508e-10 -2.48576e-10 0)
(-2.67867e-10 2.66515e-10 0)
(5.74348e-10 -7.61909e-10 0)
(2.51621e-10 -1.00309e-10 0)
(-6.10143e-10 4.00668e-10 0)
(1.50114e-10 -1.14876e-11 0)
(3.73014e-11 6.64465e-11 0)
(-2.65285e-10 1.57044e-10 0)
(-1.77898e-10 4.94149e-11 0)
(3.93995e-11 -5.82763e-11 0)
(1.56183e-10 -7.87796e-11 0)
(1.44274e-10 -3.91932e-11 0)
(7.93199e-11 1.10008e-11 0)
(-1.42561e-12 6.34884e-11 0)
(-5.9554e-11 7.84154e-11 0)
(-7.33149e-11 1.519e-11 0)
(1.6455e-10 6.11649e-11 0)
(1.71448e-10 -4.25243e-11 0)
(1.47004e-11 3.30739e-11 0)
(-2.11184e-10 -5.49049e-11 0)
(3.32945e-11 4.4051e-11 0)
(-3.27244e-10 -3.78465e-10 0)
(-4.23677e-10 -1.12685e-09 0)
(1.91528e-09 -3.77572e-10 0)
(-1.18829e-10 3.17189e-10 0)
(-2.26033e-10 1.13728e-10 0)
(5.69537e-11 -1.02616e-10 0)
(-2.48529e-10 1.51894e-12 0)
(-2.92835e-10 1.1145e-10 0)
(-8.64025e-11 1.07694e-10 0)
(9.13594e-11 3.88066e-11 0)
(1.5551e-10 -1.02095e-11 0)
(1.34892e-10 -3.25518e-11 0)
(4.542e-11 -3.21103e-11 0)
(-4.42596e-11 -1.78981e-11 0)
(-8.96068e-11 -1.88313e-11 0)
(-2.25475e-11 2.22821e-10 0)
(3.54703e-11 -1.04445e-10 0)
(-6.79623e-12 -2.52894e-10 0)
(4.51982e-12 -2.57839e-10 0)
(-2.99875e-10 5.91644e-10 0)
(-1.3965e-09 -1.58135e-10 0)
(-4.00187e-10 2.82634e-09 0)
(2.03086e-09 -2.97621e-10 0)
(3.08362e-10 -7.54767e-10 0)
(-4.23564e-10 -1.39664e-10 0)
(-1.09048e-10 -2.07961e-10 0)
(6.80652e-12 -2.96494e-11 0)
(-5.80328e-11 2.09881e-10 0)
(-9.23305e-11 2.42473e-10 0)
(-5.89598e-11 1.16349e-10 0)
(1.04875e-11 -1.16852e-11 0)
(5.95288e-11 -7.43866e-11 0)
(4.84519e-11 -8.07248e-11 0)
(4.44571e-12 -5.1697e-11 0)
(-3.93482e-11 -1.91351e-11 0)
(-2.02276e-10 1.1475e-10 0)
(-1.63277e-10 -1.23282e-11 0)
(-5.18681e-11 -1.82257e-10 0)
(2.98561e-10 -1.535e-10 0)
(9.66399e-11 4.40047e-10 0)
(2.01314e-09 2.88917e-10 0)
(4.12725e-11 3.48189e-09 0)
(-3.62859e-09 -2.73477e-10 0)
(3.23304e-10 -7.97046e-10 0)
(4.47615e-10 -2.18038e-10 0)
(2.14885e-10 -1.04922e-10 0)
(3.60857e-10 1.99271e-11 0)
(1.21402e-10 1.40104e-10 0)
(-1.91973e-10 1.44592e-10 0)
(-2.74044e-10 6.92211e-11 0)
(-1.49994e-10 -1.28719e-12 0)
(8.01638e-12 -3.59987e-11 0)
(8.02081e-11 -3.57963e-11 0)
(6.6669e-11 -2.84102e-11 0)
(7.56954e-12 -1.95267e-11 0)
)
;

boundaryField
{
    sides
    {
        type            calculated;
        value           nonuniform List<vector> 
40
(
(-2.02276e-10 0 0)
(-1.63277e-10 0 0)
(-5.18681e-11 0 0)
(2.98561e-10 0 0)
(9.66399e-11 0 0)
(2.01314e-09 0 0)
(4.12725e-11 0 0)
(-3.62859e-09 0 0)
(3.23304e-10 0 0)
(4.47615e-10 0 0)
(2.14885e-10 0 0)
(3.60857e-10 0 0)
(1.21402e-10 0 0)
(-1.91973e-10 0 0)
(-2.74044e-10 0 0)
(-1.49994e-10 0 0)
(8.01638e-12 0 0)
(8.02081e-11 0 0)
(6.6669e-11 0 0)
(7.56954e-12 0 0)
(-1.95394e-10 0 0)
(-1.80626e-10 0 0)
(8.67639e-12 0 0)
(2.58604e-10 0 0)
(3.30117e-10 0 0)
(1.54428e-09 0 0)
(-1.91823e-12 0 0)
(2.15861e-09 0 0)
(-1.03345e-09 0 0)
(2.20127e-10 0 0)
(3.00492e-10 0 0)
(4.60615e-10 0 0)
(1.96266e-10 0 0)
(-1.94627e-10 0 0)
(-2.78453e-10 0 0)
(-1.13739e-10 0 0)
(4.01381e-11 0 0)
(8.55856e-11 0 0)
(3.6401e-11 0 0)
(-3.50014e-12 0 0)
)
;
    }
    inlet
    {
        type            calculated;
        value           uniform (0 0 0);
    }
    outlet
    {
        type            calculated;
        value           nonuniform List<vector> 
20
(
(-3.50014e-12 -3.03306e-12 0)
(-4.48411e-11 1.32838e-11 0)
(-8.67906e-11 -1.55848e-11 0)
(-7.48131e-11 -4.6276e-11 0)
(8.26135e-12 -6.94874e-11 0)
(1.15991e-10 -7.75559e-11 0)
(1.68744e-10 -2.02584e-11 0)
(8.196e-11 3.93665e-11 0)
(-5.6311e-11 5.45467e-11 0)
(-1.69793e-10 4.82897e-12 0)
(-1.67338e-10 -6.4872e-11 0)
(-5.7042e-11 -1.20656e-10 0)
(9.6447e-11 -1.27264e-10 0)
(1.93436e-10 -5.27133e-11 0)
(1.62992e-10 1.83827e-11 0)
(2.74213e-11 4.66386e-11 0)
(-7.33149e-11 1.519e-11 0)
(-8.96068e-11 -1.88313e-11 0)
(-3.93482e-11 -1.91351e-11 0)
(7.56954e-12 -1.95267e-11 0)
)
;
    }
    frontAndBack
    {
        type            empty;
    }
}


// ************************************************************************* //
