/*--------------------------------*- C++ -*----------------------------------*\
  =========                 |
  \\      /  F ield         | OpenFOAM: The Open Source CFD Toolbox
   \\    /   O peration     | Website:  https://openfoam.org
    \\  /    A nd           | Version:  7
     \\/     M anipulation  |
\*---------------------------------------------------------------------------*/
FoamFile
{
    version     2.0;
    format      ascii;
    class       volScalarField;
    location    "93";
    object      ddt0(h);
}
// * * * * * * * * * * * * * * * * * * * * * * * * * * * * * * * * * * * * * //

dimensions      [0 1 -1 0 0 0 0];

internalField   nonuniform List<scalar> 
400
(
-6.03842e-10
1.18122e-09
1.30868e-09
-2.90839e-09
6.44994e-10
1.15076e-08
-6.61845e-09
3.21617e-08
-8.2022e-10
5.74686e-10
8.97055e-10
1.3848e-09
6.02812e-10
-5.27858e-10
-8.60197e-10
-4.77939e-10
-2.94711e-11
1.81121e-10
1.28577e-10
1.06858e-11
6.23297e-11
-1.63746e-11
3.22779e-12
1.36268e-09
-4.05018e-10
-1.33531e-08
1.00119e-08
-4.12875e-08
2.36166e-09
-2.63949e-10
-4.28079e-10
-1.55051e-10
-2.14702e-10
-3.17398e-10
-1.95168e-10
7.14916e-11
2.01007e-10
8.28406e-11
-7.31488e-11
-5.50072e-11
1.91226e-10
-6.49446e-10
-5.43477e-10
2.41251e-09
-1.66656e-09
4.01436e-09
-7.34296e-09
8.16539e-09
8.93384e-10
-8.29356e-10
-1.22176e-10
-8.29507e-10
-1.00769e-09
-3.79352e-10
2.50962e-10
5.54847e-10
4.49355e-10
1.45928e-11
-2.45451e-10
-1.20532e-10
3.37261e-10
-2.07168e-10
-5.47956e-10
5.68285e-10
1.65992e-10
-3.86159e-10
1.5544e-09
3.6752e-09
-2.50315e-09
-2.07938e-10
6.94742e-11
-7.59627e-10
-6.15926e-10
1.28651e-10
5.68982e-10
5.42524e-10
2.61698e-10
-9.5689e-11
-2.69279e-10
-1.37093e-10
4.55116e-10
-1.73143e-10
-1.8898e-10
-9.42336e-10
1.56932e-09
-2.01374e-09
2.56769e-09
-1.48734e-09
-1.09276e-09
6.91618e-10
-3.15551e-10
-5.4132e-10
1.41598e-10
6.46347e-10
6.2201e-10
1.58299e-10
-2.1294e-10
-2.02951e-10
-7.92541e-11
-2.34998e-11
2.28082e-10
-1.28762e-10
3.27212e-10
-9.48469e-10
6.89197e-10
-5.63231e-10
8.12859e-10
-1.48505e-09
5.86524e-10
5.23926e-10
-6.39901e-10
9.15853e-11
7.24253e-10
5.62665e-10
1.32136e-10
-3.99416e-10
-6.40278e-10
-2.80457e-10
1.86283e-10
1.71637e-10
2.42658e-11
4.58638e-11
1.88875e-10
2.90702e-10
-7.36513e-10
3.90624e-10
-3.93244e-10
-4.04263e-10
6.43595e-10
-5.72042e-10
-7.53734e-11
8.08711e-10
6.38236e-10
7.55241e-11
-4.4704e-10
-7.70242e-10
-7.11007e-10
-2.09236e-10
2.58197e-10
2.01483e-10
-1.91267e-10
4.38037e-10
-3.59708e-10
6.76456e-10
-5.4564e-10
5.31165e-10
-7.70744e-10
3.94273e-10
-1.39705e-10
-3.95071e-10
8.99596e-10
4.44705e-10
-1.73486e-10
-1.25141e-10
-4.04488e-10
-6.65862e-10
-3.85466e-10
6.27551e-11
1.59693e-10
4.67519e-11
-2.02735e-10
2.45006e-10
-1.38968e-10
8.04915e-11
4.77355e-11
2.84635e-10
-1.7389e-10
4.37929e-10
-1.82738e-10
1.35526e-10
3.92551e-10
-3.38848e-10
-3.22772e-10
1.56377e-10
9.85414e-11
-6.68129e-11
1.14399e-10
2.30769e-10
4.78247e-11
-4.95915e-11
9.44379e-11
-3.08401e-10
1.4092e-10
-2.37032e-10
3.63529e-10
-9.79996e-11
4.08781e-10
8.88483e-12
2.21243e-10
1.65451e-10
-6.04174e-10
-1.83363e-10
9.31219e-11
-1.44093e-10
2.42145e-10
8.29042e-10
7.73919e-10
2.09286e-10
-1.62351e-10
-1.10853e-10
1.63723e-10
-4.20346e-10
2.83033e-10
-3.12231e-10
3.97923e-10
-3.45206e-10
4.47801e-10
-2.3747e-10
3.09346e-10
1.95657e-10
-8.58088e-10
-1.15593e-10
1.44905e-10
-3.95928e-10
9.15666e-11
9.31757e-10
8.55371e-10
1.53963e-10
-1.86707e-10
-8.7354e-11
-9.30322e-11
8.87961e-11
1.36953e-10
-2.17157e-10
1.7744e-10
-2.09961e-10
-7.53451e-11
3.51994e-11
-1.44906e-10
3.60218e-10
-6.20182e-11
-4.62492e-10
-2.37965e-10
-1.01396e-10
-1.29161e-10
-4.80356e-12
1.68911e-10
1.29609e-10
5.18257e-11
2.20025e-11
-1.91105e-10
5.59306e-10
-4.02633e-10
4.08697e-10
-3.77774e-10
3.07059e-10
-8.62641e-10
3.88895e-10
-5.10631e-10
-1.1115e-10
9.53014e-10
5.09444e-11
-3.75246e-10
-1.17969e-10
-4.37419e-10
-7.12997e-10
-4.09115e-10
1.09836e-11
1.58707e-10
7.58422e-11
1.38087e-12
1.79267e-10
-2.57786e-10
6.63956e-10
-9.77621e-10
7.01159e-10
-9.26237e-10
4.23519e-11
1.63403e-10
-9.85398e-10
3.27192e-10
8.04478e-10
3.76969e-10
3.84358e-11
-4.17607e-10
-7.56967e-10
-6.93877e-10
-2.17295e-10
2.36956e-10
1.90462e-10
1.47274e-10
-2.3728e-10
1.81314e-10
-4.83881e-10
1.74525e-11
2.82181e-10
3.56405e-10
-1.13004e-09
1.04916e-09
-1.32532e-10
-7.42166e-10
3.22961e-10
7.31657e-10
4.96978e-10
1.69272e-10
-2.82644e-10
-5.908e-10
-2.81292e-10
2.31129e-10
2.10435e-10
2.92102e-10
-4.3082e-10
3.61592e-11
-1.0952e-09
1.49815e-09
-1.67621e-09
2.09255e-09
-1.91584e-09
-1.34186e-10
7.92588e-10
-5.65473e-10
-3.88554e-10
2.84374e-10
6.15709e-10
6.84315e-10
3.01753e-10
-1.58241e-10
-1.68958e-10
7.25382e-12
2.98818e-11
1.47061e-10
-3.55677e-10
-1.36837e-10
-1.75382e-10
9.44787e-10
-1.73076e-09
3.84775e-09
5.91414e-11
-2.16695e-09
6.05977e-10
6.81181e-11
-6.57396e-10
-4.31465e-10
1.82432e-10
6.35119e-10
6.25672e-10
3.10533e-10
-3.65604e-11
-2.42862e-10
-1.45559e-10
-5.49239e-11
-6.59376e-10
-2.03571e-10
1.37901e-09
-3.82895e-10
1.02057e-09
-1.91772e-09
8.96993e-09
-1.52655e-09
-3.15617e-10
2.07512e-10
-6.75006e-10
-8.12743e-10
-2.57918e-10
2.88105e-10
5.65804e-10
4.9703e-10
7.15603e-11
-2.74413e-10
-1.66862e-10
-1.18339e-10
-8.54871e-11
-4.25703e-10
1.32126e-09
-4.1611e-10
-1.32759e-09
-5.74966e-09
3.01115e-09
1.83111e-09
-8.60449e-10
-1.89091e-10
-6.04363e-13
-1.10165e-10
-1.86835e-10
-1.42334e-10
6.37781e-11
2.38237e-10
1.28337e-10
-8.68497e-11
-7.90997e-11
-6.89217e-10
9.34755e-10
5.99314e-10
-1.84403e-09
-1.00802e-09
2.66485e-09
2.73138e-09
-9.4022e-09
1.16276e-09
6.28337e-10
7.87945e-10
1.19946e-09
5.64374e-10
-3.49189e-10
-7.49724e-10
-5.07285e-10
-3.92547e-11
2.16639e-10
1.53931e-10
1.63271e-11
)
;

boundaryField
{
    sides
    {
        type            calculated;
        value           nonuniform List<scalar> 
40
(
-6.89217e-10
9.34755e-10
5.99314e-10
-1.84403e-09
-1.00802e-09
2.66485e-09
2.73138e-09
-9.4022e-09
1.16276e-09
6.28337e-10
7.87945e-10
1.19946e-09
5.64374e-10
-3.49189e-10
-7.49724e-10
-5.07285e-10
-3.92547e-11
2.16639e-10
1.53931e-10
1.63271e-11
-6.03842e-10
1.18122e-09
1.30868e-09
-2.90839e-09
6.44994e-10
1.15076e-08
-6.61845e-09
3.21617e-08
-8.2022e-10
5.74686e-10
8.97055e-10
1.3848e-09
6.02812e-10
-5.27858e-10
-8.60197e-10
-4.77939e-10
-2.94711e-11
1.81121e-10
1.28577e-10
1.06858e-11
)
;
    }
    inlet
    {
        type            calculated;
        value           nonuniform List<scalar> 
20
(
-6.03842e-10
6.23297e-11
1.91226e-10
3.37261e-10
4.55116e-10
2.28082e-10
2.42658e-11
-1.91267e-10
-2.02735e-10
9.44379e-11
1.63723e-10
-9.30322e-11
-1.91105e-10
1.38087e-12
1.47274e-10
2.92102e-10
1.47061e-10
-5.49239e-11
-1.18339e-10
-6.89217e-10
)
;
    }
    outlet
    {
        type            calculated;
        value           uniform 0;
    }
    frontAndBack
    {
        type            empty;
    }
}


// ************************************************************************* //
