/*--------------------------------*- C++ -*----------------------------------*\
  =========                 |
  \\      /  F ield         | OpenFOAM: The Open Source CFD Toolbox
   \\    /   O peration     | Website:  https://openfoam.org
    \\  /    A nd           | Version:  7
     \\/     M anipulation  |
\*---------------------------------------------------------------------------*/
FoamFile
{
    version     2.0;
    format      ascii;
    class       surfaceScalarField;
    location    "93";
    object      phi_0;
}
// * * * * * * * * * * * * * * * * * * * * * * * * * * * * * * * * * * * * * //

dimensions      [0 4 -1 0 0 0 0];

internalField   nonuniform List<scalar> 
760
(
4.99999e-06
9.98829e-12
4.99999e-06
-4.44844e-12
5.00001e-06
-1.28297e-11
5.00003e-06
-1.92468e-11
5.00005e-06
-2.67456e-11
5.00009e-06
-3.73424e-11
5.00013e-06
-3.86799e-11
5.00018e-06
-6.31229e-11
5.00025e-06
-6.28851e-11
5.00032e-06
-7.81534e-11
5.00041e-06
-9.01817e-11
5.00053e-06
-1.14114e-10
5.00065e-06
-1.26983e-10
5.00082e-06
-1.67834e-10
5.001e-06
-1.78012e-10
5.00126e-06
-2.56812e-10
5.00151e-06
-2.56181e-10
5.00195e-06
-4.31778e-10
5.00236e-06
-4.14199e-10
-8.9163e-10
5.00002e-06
-1.17863e-11
5.00004e-06
-1.90645e-11
5.00005e-06
-2.93344e-11
5.00007e-06
-4.16867e-11
5.0001e-06
-5.42598e-11
5.00014e-06
-6.89554e-11
5.00018e-06
-8.41977e-11
5.00023e-06
-1.03709e-10
5.00029e-06
-1.23778e-10
5.00037e-06
-1.53324e-10
5.00045e-06
-1.77114e-10
5.00056e-06
-2.22121e-10
5.00069e-06
-2.50303e-10
5.00084e-06
-3.24056e-10
5.00102e-06
-3.53821e-10
5.00125e-06
-4.86064e-10
5.0015e-06
-5.09283e-10
5.00184e-06
-7.68014e-10
5.00218e-06
-7.6006e-10
-1.26207e-09
4.99999e-06
-4.60125e-12
4.99999e-06
-2.03669e-11
5e-06
-3.76685e-11
5.00002e-06
-5.67324e-11
5.00004e-06
-7.64259e-11
5.00007e-06
-9.93059e-11
5.00011e-06
-1.22379e-10
5.00016e-06
-1.52494e-10
5.00021e-06
-1.82814e-10
5.00029e-06
-2.23903e-10
5.00037e-06
-2.62371e-10
5.00047e-06
-3.23237e-10
5.00059e-06
-3.71749e-10
5.00074e-06
-4.67283e-10
5.00091e-06
-5.25572e-10
5.00111e-06
-6.86743e-10
5.00135e-06
-7.48069e-10
5.00162e-06
-1.04135e-09
5.00194e-06
-1.08344e-09
-1.68966e-09
5.00001e-06
-1.26033e-11
5.00002e-06
-3.32825e-11
5.00004e-06
-5.43288e-11
5.00006e-06
-7.76914e-11
5.00008e-06
-1.01933e-10
5.00012e-06
-1.30603e-10
5.00015e-06
-1.60318e-10
5.0002e-06
-1.98366e-10
5.00025e-06
-2.36357e-10
5.00032e-06
-2.88842e-10
5.00039e-06
-3.38368e-10
5.00049e-06
-4.15114e-10
5.00059e-06
-4.7803e-10
5.00072e-06
-5.9611e-10
5.00087e-06
-6.72598e-10
5.00105e-06
-8.65086e-10
5.00124e-06
-9.47118e-10
5.00148e-06
-1.28024e-09
5.00173e-06
-1.33174e-09
-1.89817e-09
5e-06
-1.16286e-11
5e-06
-3.63966e-11
5.00001e-06
-6.19814e-11
5.00002e-06
-9.01169e-11
5.00004e-06
-1.2009e-10
5.00006e-06
-1.54551e-10
5.0001e-06
-1.91627e-10
5.00013e-06
-2.36655e-10
5.00018e-06
-2.83635e-10
5.00024e-06
-3.45566e-10
5.00031e-06
-4.06677e-10
5.00039e-06
-4.95355e-10
5.00048e-06
-5.73796e-10
5.00059e-06
-7.06927e-10
5.00072e-06
-8.03312e-10
5.00087e-06
-1.01258e-09
5.00104e-06
-1.11673e-09
5.00122e-06
-1.46185e-09
5.00142e-06
-1.5332e-09
-2.16302e-09
5e-06
-1.38851e-11
5.00001e-06
-4.30864e-11
5.00002e-06
-7.28377e-11
5.00003e-06
-1.04875e-10
5.00005e-06
-1.39014e-10
5.00008e-06
-1.78054e-10
5.00011e-06
-2.20124e-10
5.00014e-06
-2.71083e-10
5.00018e-06
-3.24736e-10
5.00023e-06
-3.94672e-10
5.00029e-06
-4.64108e-10
5.00036e-06
-5.63548e-10
5.00043e-06
-6.527e-10
5.00053e-06
-7.99659e-10
5.00063e-06
-9.08447e-10
5.00075e-06
-1.13439e-09
5.00089e-06
-1.25133e-09
5.00104e-06
-1.61618e-09
5.00121e-06
-1.69772e-09
-2.29376e-09
5e-06
-1.56788e-11
5.00001e-06
-4.75456e-11
5.00001e-06
-8.01474e-11
5.00002e-06
-1.14942e-10
5.00004e-06
-1.52186e-10
5.00005e-06
-1.95116e-10
5.00008e-06
-2.41464e-10
5.0001e-06
-2.97342e-10
5.00013e-06
-3.56721e-10
5.00017e-06
-4.32798e-10
5.00022e-06
-5.09614e-10
5.00027e-06
-6.16994e-10
5.00033e-06
-7.15379e-10
5.00041e-06
-8.71701e-10
5.00049e-06
-9.91469e-10
5.00058e-06
-1.22755e-09
5.00069e-06
-1.35565e-09
5.0008e-06
-1.7268e-09
5.00091e-06
-1.81265e-09
-2.44237e-09
5e-06
-1.67154e-11
5e-06
-5.06022e-11
5.00001e-06
-8.51576e-11
5.00002e-06
-1.22513e-10
5.00003e-06
-1.62332e-10
5.00004e-06
-2.08201e-10
5.00006e-06
-2.57684e-10
5.00008e-06
-3.17268e-10
5.0001e-06
-3.80583e-10
5.00013e-06
-4.61249e-10
5.00016e-06
-5.43176e-10
5.0002e-06
-6.56275e-10
5.00025e-06
-7.60699e-10
5.0003e-06
-9.23993e-10
5.00036e-06
-1.05059e-09
5.00042e-06
-1.29418e-09
5.0005e-06
-1.42865e-09
5.00058e-06
-1.80754e-09
5.00067e-06
-1.90097e-09
-2.51649e-09
5e-06
-1.72706e-11
5e-06
-5.24333e-11
5.00001e-06
-8.83185e-11
5.00001e-06
-1.27248e-10
5.00002e-06
-1.68742e-10
5.00002e-06
-2.16303e-10
5.00003e-06
-2.67617e-10
5.00005e-06
-3.29321e-10
5.00006e-06
-3.94954e-10
5.00008e-06
-4.78354e-10
5.0001e-06
-5.63308e-10
5.00012e-06
-6.79726e-10
5.00015e-06
-7.87874e-10
5.00018e-06
-9.55258e-10
5.00022e-06
-1.08604e-09
5.00026e-06
-1.33388e-09
5.0003e-06
-1.47243e-09
5.00035e-06
-1.8547e-09
5.00039e-06
-1.94836e-09
-2.57246e-09
5e-06
-1.74671e-11
5e-06
-5.30191e-11
5e-06
-8.94121e-11
5e-06
-1.28853e-10
5.00001e-06
-1.70928e-10
5.00001e-06
-2.19022e-10
5.00001e-06
-2.70979e-10
5.00002e-06
-3.33335e-10
5.00002e-06
-3.99775e-10
5.00003e-06
-4.84042e-10
5.00003e-06
-5.6997e-10
5.00004e-06
-6.87548e-10
5.00005e-06
-7.96997e-10
5.00006e-06
-9.65685e-10
5.00007e-06
-1.09796e-09
5.00009e-06
-1.34716e-09
5.0001e-06
-1.48705e-09
5.00011e-06
-1.87003e-09
5.00013e-06
-1.96552e-09
-2.58873e-09
5e-06
-1.72892e-11
5e-06
-5.23621e-11
5e-06
-8.83287e-11
5e-06
-1.2723e-10
4.99999e-06
-1.68801e-10
4.99999e-06
-2.16314e-10
4.99999e-06
-2.67717e-10
4.99998e-06
-3.29328e-10
4.99998e-06
-3.95007e-10
4.99997e-06
-4.78329e-10
4.99997e-06
-5.63156e-10
4.99996e-06
-6.79681e-10
4.99995e-06
-7.87891e-10
4.99994e-06
-9.55243e-10
4.99993e-06
-1.08613e-09
4.99991e-06
-1.33407e-09
4.9999e-06
-1.4726e-09
4.99988e-06
-1.8547e-09
4.99987e-06
-1.9483e-09
-2.57231e-09
5e-06
-1.66991e-11
5e-06
-5.05544e-11
4.99999e-06
-8.51838e-11
4.99999e-06
-1.22476e-10
4.99998e-06
-1.62429e-10
4.99998e-06
-2.08212e-10
4.99997e-06
-2.57797e-10
4.99995e-06
-3.17309e-10
4.99994e-06
-3.80621e-10
4.99992e-06
-4.61282e-10
4.9999e-06
-5.43038e-10
4.99988e-06
-6.5611e-10
4.99985e-06
-7.60624e-10
4.99982e-06
-9.23966e-10
4.99978e-06
-1.05068e-09
4.99974e-06
-1.29433e-09
4.9997e-06
-1.42881e-09
4.99965e-06
-1.80751e-09
4.99961e-06
-1.90085e-09
-2.51627e-09
5e-06
-1.56458e-11
5e-06
-4.75871e-11
4.99999e-06
-8.01317e-11
4.99998e-06
-1.14988e-10
4.99997e-06
-1.52239e-10
4.99996e-06
-1.95118e-10
4.99994e-06
-2.41437e-10
4.99992e-06
-2.97419e-10
4.9999e-06
-3.56676e-10
4.99987e-06
-4.32845e-10
4.99984e-06
-5.09685e-10
4.9998e-06
-6.16879e-10
4.99975e-06
-7.15213e-10
4.9997e-06
-8.71563e-10
4.99964e-06
-9.91413e-10
4.99958e-06
-1.2275e-09
4.9995e-06
-1.35568e-09
4.99942e-06
-1.72669e-09
4.99933e-06
-1.81251e-09
-2.44201e-09
5e-06
-1.3869e-11
4.99999e-06
-4.31475e-11
4.99999e-06
-7.2865e-11
4.99998e-06
-1.05011e-10
4.99996e-06
-1.38862e-10
4.99995e-06
-1.78083e-10
4.99992e-06
-2.1992e-10
4.9999e-06
-2.71145e-10
4.99987e-06
-3.24711e-10
4.99983e-06
-3.94579e-10
4.99978e-06
-4.64221e-10
4.99973e-06
-5.63615e-10
4.99967e-06
-6.52641e-10
4.99959e-06
-7.99468e-10
4.99951e-06
-9.08227e-10
4.99942e-06
-1.13412e-09
4.99931e-06
-1.25117e-09
4.9992e-06
-1.61595e-09
4.99909e-06
-1.69754e-09
-2.29336e-09
5e-06
-1.16331e-11
4.99999e-06
-3.64543e-11
4.99998e-06
-6.20585e-11
4.99997e-06
-9.0098e-11
4.99995e-06
-1.19941e-10
4.99992e-06
-1.54666e-10
4.99989e-06
-1.91374e-10
4.99986e-06
-2.3655e-10
4.99982e-06
-2.83792e-10
4.99977e-06
-3.45544e-10
4.99971e-06
-4.06715e-10
4.99964e-06
-4.95499e-10
4.99957e-06
-5.73926e-10
4.99947e-06
-7.06866e-10
4.99937e-06
-8.03148e-10
4.99925e-06
-1.01226e-09
4.99911e-06
-1.1165e-09
4.99896e-06
-1.46155e-09
4.99879e-06
-1.53307e-09
-2.16261e-09
5e-06
-1.26522e-11
5e-06
-3.3307e-11
4.99999e-06
-5.43297e-11
4.99998e-06
-7.74894e-11
4.99996e-06
-1.01989e-10
4.99994e-06
-1.30471e-10
4.9999e-06
-1.60349e-10
4.99987e-06
-1.97828e-10
4.99982e-06
-2.36395e-10
4.99976e-06
-2.88895e-10
4.99969e-06
-3.38345e-10
4.99961e-06
-4.15178e-10
4.99952e-06
-4.78205e-10
4.99941e-06
-5.96174e-10
4.99928e-06
-6.7258e-10
4.99913e-06
-8.64829e-10
4.99896e-06
-9.46898e-10
4.99878e-06
-1.27989e-09
4.99858e-06
-1.33157e-09
-1.89768e-09
4.99999e-06
-4.6873e-12
4.99998e-06
-2.03427e-11
4.99996e-06
-3.75736e-11
4.99994e-06
-5.66093e-11
4.99992e-06
-7.66106e-11
4.99989e-06
-9.91623e-11
4.99985e-06
-1.23453e-10
4.9998e-06
-1.52233e-10
4.99975e-06
-1.82484e-10
4.99968e-06
-2.23908e-10
4.99961e-06
-2.62349e-10
4.99952e-06
-3.2323e-10
4.99941e-06
-3.71882e-10
4.99928e-06
-4.67418e-10
4.99913e-06
-5.25733e-10
4.99895e-06
-6.86693e-10
4.99876e-06
-7.48033e-10
4.99852e-06
-1.0411e-09
4.99827e-06
-1.08335e-09
-1.68927e-09
5.00001e-06
-1.17875e-11
5.00001e-06
-1.89142e-11
5e-06
-2.92199e-11
4.99998e-06
-4.18567e-11
4.99996e-06
-5.4468e-11
4.99993e-06
-6.94601e-11
4.99989e-06
-8.50989e-11
4.99984e-06
-1.05273e-10
4.99978e-06
-1.23579e-10
4.99971e-06
-1.53172e-10
4.99963e-06
-1.7703e-10
4.99953e-06
-2.21936e-10
4.99941e-06
-2.50204e-10
4.99926e-06
-3.24012e-10
4.99909e-06
-3.53966e-10
4.99889e-06
-4.86071e-10
4.99865e-06
-5.09357e-10
4.99838e-06
-7.67756e-10
4.99805e-06
-7.59924e-10
-1.26158e-09
4.99998e-06
1.00017e-11
4.99996e-06
-4.27792e-12
4.99995e-06
-1.28964e-11
4.99992e-06
-1.9744e-11
4.9999e-06
-2.66892e-11
4.99986e-06
-3.37989e-11
4.99982e-06
-4.34067e-11
4.99977e-06
-5.3443e-11
4.99971e-06
-6.29914e-11
4.99963e-06
-7.82084e-11
4.99955e-06
-9.01062e-11
4.99944e-06
-1.13923e-10
4.99932e-06
-1.2687e-10
4.99916e-06
-1.67852e-10
4.99898e-06
-1.78211e-10
4.99875e-06
-2.56998e-10
4.9985e-06
-2.56373e-10
4.99817e-06
-4.31797e-10
4.99782e-06
-4.14237e-10
-8.91612e-10
5.00001e-06
5.00001e-06
4.99999e-06
4.99997e-06
4.99995e-06
4.99991e-06
4.99987e-06
4.99982e-06
4.99975e-06
4.99968e-06
4.99959e-06
4.99947e-06
4.99934e-06
4.99918e-06
4.999e-06
4.99874e-06
4.99849e-06
4.99805e-06
4.99764e-06
)
;

boundaryField
{
    sides
    {
        type            calculated;
        value           uniform 0;
    }
    inlet
    {
        type            calculated;
        value           nonuniform List<scalar> 
20
(
-5e-06
-5e-06
-5e-06
-5e-06
-5e-06
-5e-06
-5e-06
-5e-06
-5e-06
-5e-06
-5e-06
-5e-06
-5e-06
-5e-06
-5e-06
-5e-06
-5e-06
-5e-06
-5e-06
-5e-06
)
;
    }
    outlet
    {
        type            calculated;
        value           nonuniform List<scalar> 
20
(
5.00325e-06
5.00255e-06
5.00237e-06
5.00194e-06
5.00169e-06
5.00134e-06
5.00106e-06
5.00074e-06
5.00045e-06
5.00015e-06
4.99985e-06
4.99955e-06
4.99926e-06
4.99894e-06
4.99866e-06
4.99831e-06
4.99806e-06
4.99763e-06
4.99745e-06
4.99675e-06
)
;
    }
    frontAndBack
    {
        type            empty;
        value           nonuniform 0();
    }
}


// ************************************************************************* //
