/*--------------------------------*- C++ -*----------------------------------*\
  =========                 |
  \\      /  F ield         | OpenFOAM: The Open Source CFD Toolbox
   \\    /   O peration     | Website:  https://openfoam.org
    \\  /    A nd           | Version:  7
     \\/     M anipulation  |
\*---------------------------------------------------------------------------*/
FoamFile
{
    version     2.0;
    format      ascii;
    class       volVectorField;
    location    "51";
    object      ddt0(hU);
}
// * * * * * * * * * * * * * * * * * * * * * * * * * * * * * * * * * * * * * //

dimensions      [0 2 -2 0 0 0 0];

internalField   nonuniform List<vector> 
400
(
(-8.46357e-11 1.20523e-10 0)
(2.67161e-10 5.53946e-10 0)
(4.78803e-10 6.6759e-10 0)
(9.06853e-11 4.48089e-10 0)
(-2.81202e-11 9.21782e-10 0)
(-2.21626e-09 1.33678e-09 0)
(1.20367e-09 2.69731e-09 0)
(-2.80351e-09 -1.80608e-09 0)
(-5.45524e-10 1.67535e-10 0)
(5.64166e-10 -4.3069e-10 0)
(5.66296e-10 -3.72779e-10 0)
(1.21083e-09 -2.27192e-10 0)
(1.47981e-09 -4.28861e-11 0)
(1.19059e-09 2.67928e-10 0)
(7.77564e-10 5.48987e-10 0)
(3.86153e-10 8.08471e-10 0)
(-1.15603e-10 6.53812e-10 0)
(-3.10651e-10 4.41724e-10 0)
(-8.52572e-10 -1.00959e-10 0)
(-3.51715e-10 -5.99523e-10 0)
(3.88268e-11 8.78011e-11 0)
(4.77834e-10 3.47502e-10 0)
(3.71886e-10 1.74152e-10 0)
(2.73386e-10 -8.53237e-11 0)
(-2.75227e-11 3.97901e-10 0)
(1.90036e-09 1.03149e-09 0)
(-6.55795e-10 1.7167e-09 0)
(2.57431e-09 -2.8755e-10 0)
(1.31148e-09 5.52577e-10 0)
(1.18157e-11 3.27284e-11 0)
(6.13171e-10 1.77824e-10 0)
(9.94311e-10 1.60016e-10 0)
(1.18743e-09 -9.11552e-11 0)
(1.15443e-09 -2.00068e-10 0)
(9.71505e-10 -7.4557e-11 0)
(6.33595e-10 2.58116e-10 0)
(4.49436e-11 4.54209e-10 0)
(-2.65637e-10 4.53243e-10 0)
(-8.20106e-10 3.10351e-10 0)
(-4.39426e-10 -1.20654e-10 0)
(-1.06231e-10 3.31672e-10 0)
(2.52394e-10 8.01332e-10 0)
(4.01478e-10 1.09287e-09 0)
(3.30865e-10 1.43037e-09 0)
(1.14762e-11 1.09838e-09 0)
(5.28801e-10 9.00812e-10 0)
(-5.41812e-10 -7.39942e-10 0)
(2.813e-10 1.22186e-09 0)
(-2.51571e-10 -4.10829e-10 0)
(3.44781e-10 -6.30736e-10 0)
(1.02907e-09 -5.97925e-10 0)
(1.06686e-09 -5.02762e-10 0)
(1.03284e-09 -2.76852e-10 0)
(1.00288e-09 2.71967e-10 0)
(9.37656e-10 8.621e-10 0)
(6.03492e-10 1.49474e-09 0)
(-7.74039e-11 1.37573e-09 0)
(-4.12823e-10 1.05317e-09 0)
(-1.10436e-09 1.61035e-10 0)
(-4.58824e-10 -9.95827e-10 0)
(-5.5674e-14 4.49491e-10 0)
(4.63933e-10 1.19307e-09 0)
(4.95787e-10 1.80772e-09 0)
(9.96215e-11 2.21295e-09 0)
(-6.93653e-11 2.01688e-09 0)
(-2.52973e-10 1.64854e-09 0)
(-3.62583e-10 1.02955e-09 0)
(-1.41839e-11 5.48473e-10 0)
(-2.52401e-10 -8.83225e-11 0)
(3.18814e-10 -3.20081e-10 0)
(8.36273e-10 -6.00693e-10 0)
(8.35686e-10 -6.96873e-10 0)
(9.20302e-10 -3.56714e-10 0)
(1.09177e-09 4.56754e-10 0)
(1.11049e-09 1.23385e-09 0)
(7.95037e-10 2.00442e-09 0)
(1.45489e-10 1.85369e-09 0)
(-2.27204e-10 1.49234e-09 0)
(-7.64995e-10 3.93902e-10 0)
(-4.3466e-10 -1.19711e-09 0)
(1.39725e-11 3.53572e-10 0)
(3.42787e-10 9.00909e-10 0)
(3.8477e-10 1.37646e-09 0)
(2.36125e-11 1.67131e-09 0)
(1.43624e-10 1.94107e-09 0)
(8.38105e-12 1.41895e-09 0)
(3.64612e-10 1.36554e-09 0)
(1.24366e-10 5.76037e-10 0)
(5.1162e-11 4.36637e-11 0)
(6.15571e-10 -1.99732e-10 0)
(5.41758e-10 -6.323e-10 0)
(4.39112e-10 -7.22604e-10 0)
(6.56944e-10 -3.32947e-10 0)
(8.97945e-10 5.24781e-10 0)
(9.15793e-10 1.31486e-09 0)
(5.8729e-10 2.1084e-09 0)
(3.05014e-11 1.98825e-09 0)
(-2.0643e-10 1.63751e-09 0)
(-5.97241e-10 5.14227e-10 0)
(-2.10524e-10 -1.24695e-09 0)
(-3.8514e-12 4.63175e-10 0)
(3.44459e-10 1.29092e-09 0)
(4.25319e-10 2.04129e-09 0)
(9.18776e-11 2.48854e-09 0)
(-6.824e-11 2.71368e-09 0)
(-2.05672e-10 2.13484e-09 0)
(-5.28916e-11 1.53738e-09 0)
(-4.18417e-10 4.21919e-10 0)
(1.11586e-10 -8.33176e-11 0)
(3.65119e-10 -7.83389e-10 0)
(4.10709e-10 -1.2418e-09 0)
(7.9939e-10 -1.01448e-09 0)
(1.19553e-09 -2.77207e-10 0)
(1.30832e-09 9.53985e-10 0)
(1.09087e-09 1.98252e-09 0)
(5.16743e-10 2.97618e-09 0)
(-2.16411e-10 2.67179e-09 0)
(-5.39388e-10 2.09638e-09 0)
(-9.71839e-10 3.77002e-10 0)
(-3.70222e-10 -1.92027e-09 0)
(-4.30127e-11 3.54257e-10 0)
(2.25715e-10 1.1886e-09 0)
(2.48102e-10 1.87132e-09 0)
(1.57683e-10 2.41843e-09 0)
(4.43165e-11 2.50184e-09 0)
(1.86834e-10 2.36555e-09 0)
(7.9384e-11 1.66072e-09 0)
(7.40164e-11 9.50322e-10 0)
(2.36773e-10 3.48249e-10 0)
(8.81886e-12 -4.88462e-10 0)
(1.6862e-10 -7.91771e-10 0)
(4.3517e-10 -6.36402e-10 0)
(5.13498e-10 -1.8451e-10 0)
(5.62311e-10 8.08512e-10 0)
(5.17667e-10 1.72596e-09 0)
(3.83969e-10 2.78446e-09 0)
(1.86669e-10 2.69751e-09 0)
(8.9597e-11 2.26094e-09 0)
(-1.61913e-10 7.17812e-10 0)
(-1.26443e-11 -1.70118e-09 0)
(-5.22254e-11 3.09586e-10 0)
(1.73295e-10 1.24635e-09 0)
(2.02631e-10 2.05439e-09 0)
(1.81649e-10 2.69539e-09 0)
(5.11598e-11 2.66362e-09 0)
(6.22977e-11 2.28961e-09 0)
(-1.27793e-10 1.4169e-09 0)
(-7.95073e-12 6.12286e-10 0)
(-7.35051e-11 -2.76441e-10 0)
(1.76318e-12 -9.55829e-10 0)
(4.32294e-10 -1.12116e-09 0)
(5.58801e-10 -9.21819e-10 0)
(5.86698e-10 -2.48618e-10 0)
(6.01119e-10 1.05257e-09 0)
(4.19689e-10 2.19263e-09 0)
(1.32572e-10 3.42402e-09 0)
(-1.19141e-10 3.17484e-09 0)
(-1.94553e-10 2.54071e-09 0)
(-4.84533e-10 6.23117e-10 0)
(-1.29718e-10 -2.10614e-09 0)
(-2.40245e-11 3.03204e-10 0)
(1.07085e-10 1.21701e-09 0)
(1.2888e-10 2.1696e-09 0)
(5.86854e-11 2.70779e-09 0)
(-4.3659e-12 2.72375e-09 0)
(-6.48403e-12 2.2221e-09 0)
(-1.52285e-12 1.51137e-09 0)
(6.70338e-11 6.99619e-10 0)
(2.58615e-11 -1.36514e-10 0)
(1.53304e-10 -6.97991e-10 0)
(2.76815e-10 -1.06848e-09 0)
(2.01855e-10 -1.06282e-09 0)
(1.68632e-10 -4.18614e-10 0)
(1.67289e-10 8.52028e-10 0)
(8.80061e-11 2.02174e-09 0)
(2.22455e-11 3.43809e-09 0)
(1.65516e-11 3.36286e-09 0)
(6.01622e-11 2.78108e-09 0)
(3.64862e-11 9.06157e-10 0)
(9.84945e-11 -1.98125e-09 0)
(-1.32996e-11 2.66489e-10 0)
(1.08979e-11 1.15097e-09 0)
(6.69361e-11 2.17835e-09 0)
(-1.78424e-11 2.76063e-09 0)
(-4.17049e-11 2.82812e-09 0)
(-3.3793e-11 2.34194e-09 0)
(6.80793e-11 1.58055e-09 0)
(2.77955e-11 6.27138e-10 0)
(1.88646e-11 -2.56301e-10 0)
(1.63982e-11 -8.85985e-10 0)
(-6.8777e-11 -1.25635e-09 0)
(1.04001e-11 -1.1427e-09 0)
(1.15775e-10 -3.64671e-10 0)
(9.82246e-11 1.02406e-09 0)
(1.62131e-10 2.25645e-09 0)
(2.08022e-10 3.67097e-09 0)
(5.82493e-11 3.50734e-09 0)
(-5.5689e-11 2.86286e-09 0)
(-1.75763e-10 8.38656e-10 0)
(-9.82647e-11 -2.13372e-09 0)
(1.28823e-11 1.82767e-10 0)
(-6.36481e-11 1.14456e-09 0)
(8.68837e-13 2.11405e-09 0)
(-4.20698e-11 2.77507e-09 0)
(-4.87313e-11 2.83468e-09 0)
(-8.47996e-11 2.4372e-09 0)
(6.85681e-13 1.62136e-09 0)
(-3.45596e-11 6.58428e-10 0)
(3.08233e-11 -2.15166e-10 0)
(6.70946e-11 -9.36103e-10 0)
(-1.04538e-10 -1.21522e-09 0)
(-8.13829e-11 -1.04149e-09 0)
(-7.02574e-11 -3.38397e-10 0)
(-1.9659e-10 1.07877e-09 0)
(-1.43407e-10 2.35409e-09 0)
(1.56075e-11 3.66866e-09 0)
(4.90947e-11 3.42504e-09 0)
(2.19964e-11 2.81006e-09 0)
(1.86474e-10 8.21214e-10 0)
(7.37874e-11 -2.14092e-09 0)
(6.30497e-11 1.77581e-10 0)
(-9.91445e-11 1.14817e-09 0)
(-1.03055e-10 2.06832e-09 0)
(-4.21087e-11 2.70532e-09 0)
(8.35393e-12 2.72611e-09 0)
(-3.29917e-11 2.3755e-09 0)
(-2.61819e-11 1.59808e-09 0)
(-1.18674e-11 7.09316e-10 0)
(-8.21217e-11 -3.49908e-11 0)
(-3.69578e-11 -8.16331e-10 0)
(-1.71117e-10 -1.10539e-09 0)
(-2.88939e-10 -9.21594e-10 0)
(-2.13061e-10 -3.42431e-10 0)
(-1.73777e-10 9.62477e-10 0)
(-1.56648e-10 2.18291e-09 0)
(-8.54112e-11 3.42521e-09 0)
(-1.28792e-11 3.22976e-09 0)
(7.03073e-12 2.70152e-09 0)
(3.43474e-11 8.53149e-10 0)
(-1.13953e-10 -2.01746e-09 0)
(5.36294e-11 2.95617e-10 0)
(-1.29076e-10 1.15642e-09 0)
(-2.25582e-10 2.07339e-09 0)
(-5.05873e-11 2.57356e-09 0)
(2.58931e-13 2.70843e-09 0)
(3.31192e-11 2.25068e-09 0)
(-6.3509e-11 1.54406e-09 0)
(1.28673e-10 5.1644e-10 0)
(-5.66986e-11 -1.89248e-10 0)
(-1.0732e-10 -9.27299e-10 0)
(-1.13965e-10 -1.31067e-09 0)
(-4.16375e-10 -1.02466e-09 0)
(-6.23072e-10 -2.5248e-10 0)
(-6.27932e-10 1.09305e-09 0)
(-5.9467e-10 2.27219e-09 0)
(-3.61773e-10 3.44763e-09 0)
(8.00913e-11 3.14976e-09 0)
(2.88896e-10 2.51702e-09 0)
(5.33478e-10 5.52944e-10 0)
(1.40995e-10 -2.16306e-09 0)
(7.90228e-12 4.5362e-10 0)
(-1.9203e-10 1.22851e-09 0)
(-3.18528e-10 1.97305e-09 0)
(-2.30589e-11 2.32219e-09 0)
(-3.60692e-11 2.55742e-09 0)
(5.50172e-12 2.1009e-09 0)
(-2.45975e-10 1.72671e-09 0)
(-7.7355e-11 8.79216e-10 0)
(-7.714e-11 2.06326e-10 0)
(-3.95332e-10 -2.69654e-10 0)
(-2.47037e-10 -7.97621e-10 0)
(-1.67895e-10 -8.6931e-10 0)
(-3.41735e-10 -3.82586e-10 0)
(-5.10915e-10 6.78891e-10 0)
(-6.27206e-10 1.71053e-09 0)
(-5.81305e-10 2.87302e-09 0)
(-2.72438e-10 2.78684e-09 0)
(-8.55112e-11 2.28853e-09 0)
(1.60831e-10 6.8182e-10 0)
(7.25642e-11 -1.73126e-09 0)
(-2.19378e-11 5.82117e-10 0)
(-3.48999e-10 1.42676e-09 0)
(-4.82822e-10 2.12311e-09 0)
(-1.43227e-10 2.57876e-09 0)
(1.03306e-10 2.52557e-09 0)
(2.30863e-10 2.05934e-09 0)
(2.79786e-10 1.32002e-09 0)
(5.50695e-11 6.31692e-10 0)
(2.78849e-10 -3.48134e-10 0)
(-3.20509e-10 -7.57575e-10 0)
(-8.61226e-10 -1.00137e-09 0)
(-9.14328e-10 -1.01432e-09 0)
(-1.03749e-09 -4.6503e-10 0)
(-1.0806e-09 7.37966e-10 0)
(-9.58337e-10 1.88455e-09 0)
(-5.62044e-10 3.05039e-09 0)
(1.13104e-10 2.79434e-09 0)
(4.58941e-10 2.15997e-09 0)
(9.35909e-10 4.04806e-10 0)
(4.34693e-10 -1.90392e-09 0)
(-1.27916e-11 3.42691e-10 0)
(-3.69827e-10 9.68208e-10 0)
(-4.22186e-10 1.39536e-09 0)
(-2.71756e-10 1.77163e-09 0)
(-2.03567e-11 1.70558e-09 0)
(-2.6101e-10 1.83368e-09 0)
(1.29858e-10 9.50509e-10 0)
(-3.42073e-10 7.43453e-10 0)
(-2.06916e-10 1.22596e-10 0)
(-1.69211e-10 -4.1964e-10 0)
(-7.08338e-10 -4.7869e-10 0)
(-8.31798e-10 -4.78636e-10 0)
(-7.66165e-10 -2.68676e-10 0)
(-6.77919e-10 4.28348e-10 0)
(-6.14786e-10 1.18734e-09 0)
(-4.61278e-10 2.0907e-09 0)
(-7.79992e-11 2.06147e-09 0)
(1.06475e-10 1.70225e-09 0)
(5.42402e-10 5.75784e-10 0)
(2.36398e-10 -1.20492e-09 0)
(4.8051e-11 3.55937e-10 0)
(-4.48694e-10 1.23742e-09 0)
(-4.5748e-10 1.80185e-09 0)
(-2.58363e-10 2.07486e-09 0)
(1.64689e-10 2.14805e-09 0)
(6.30608e-12 2.11566e-09 0)
(1.92917e-10 1.14407e-09 0)
(6.3605e-10 3.72041e-10 0)
(-9.34604e-11 7.59989e-11 0)
(-8.66484e-11 -4.83665e-10 0)
(-5.60192e-10 -5.98637e-10 0)
(-1.10143e-09 -4.56067e-10 0)
(-1.23951e-09 -1.22149e-10 0)
(-1.09188e-09 5.40119e-10 0)
(-8.68911e-10 1.16369e-09 0)
(-5.82692e-10 1.91797e-09 0)
(-9.975e-11 1.83474e-09 0)
(1.69064e-10 1.51234e-09 0)
(7.1376e-10 4.35019e-10 0)
(4.1425e-10 -1.16747e-09 0)
(2.01903e-10 2.84734e-10 0)
(-1.73545e-10 7.48972e-10 0)
(-3.83633e-10 1.03114e-09 0)
(-3.08188e-10 1.18127e-09 0)
(-1.42484e-10 1.36389e-09 0)
(1.7519e-11 1.46631e-09 0)
(-9.06882e-10 5.05125e-10 0)
(-1.18935e-10 5.6318e-10 0)
(5.86476e-11 -3.36619e-10 0)
(-1.37325e-10 -5.09307e-10 0)
(-5.51303e-10 -7.07169e-10 0)
(-1.12255e-09 -5.56099e-10 0)
(-1.38268e-09 -1.40124e-10 0)
(-1.20893e-09 4.60969e-10 0)
(-8.75248e-10 9.2304e-10 0)
(-4.31721e-10 1.42213e-09 0)
(1.7122e-10 1.27814e-09 0)
(4.15786e-10 1.00689e-09 0)
(1.07807e-09 1.63326e-10 0)
(4.15738e-10 -9.85812e-10 0)
(8.60236e-12 1.25168e-10 0)
(-4.77569e-10 9.51013e-11 0)
(-5.50276e-10 -4.38913e-11 0)
(-1.43514e-10 3.96469e-10 0)
(3.16493e-10 5.15885e-10 0)
(-1.66222e-09 -6.6994e-10 0)
(1.50601e-10 1.0756e-09 0)
(-3.21961e-09 2.78493e-10 0)
(-6.44723e-10 6.34416e-10 0)
(-7.18385e-11 1.90606e-10 0)
(-5.73897e-10 -2.1429e-10 0)
(-9.05332e-10 -2.22147e-10 0)
(-1.19708e-09 -8.27828e-11 0)
(-1.28927e-09 2.81636e-11 0)
(-1.08572e-09 7.4357e-11 0)
(-6.42359e-10 2.23612e-10 0)
(-5.1808e-12 3.25817e-10 0)
(3.04261e-10 3.60239e-10 0)
(8.23732e-10 2.74833e-10 0)
(4.02422e-10 -1.29721e-10 0)
(-8.67166e-11 1.69647e-10 0)
(-3.63938e-10 3.99308e-10 0)
(-2.6327e-10 5.22423e-10 0)
(-8.11409e-12 1.02192e-09 0)
(-3.57258e-10 9.46204e-10 0)
(1.77477e-09 -7.85478e-10 0)
(5.13223e-10 1.13934e-09 0)
(3.07778e-09 -7.17864e-10 0)
(1.588e-10 1.6529e-10 0)
(-1.14411e-09 -4.33555e-10 0)
(-9.16223e-10 -6.72389e-10 0)
(-7.23529e-10 -4.69805e-10 0)
(-9.86972e-10 -4.65543e-11 0)
(-1.21554e-09 3.81938e-10 0)
(-1.0656e-09 6.24319e-10 0)
(-5.70909e-10 7.94917e-10 0)
(1.05021e-10 5.89761e-10 0)
(3.83727e-10 3.91201e-10 0)
(8.95225e-10 -1.25624e-10 0)
(3.37465e-10 -6.08273e-10 0)
)
;

boundaryField
{
    sides
    {
        type            calculated;
        value           nonuniform List<vector> 
40
(
(-8.67166e-11 0 0)
(-3.63938e-10 0 0)
(-2.6327e-10 0 0)
(-8.11409e-12 0 0)
(-3.57258e-10 0 0)
(1.77477e-09 0 0)
(5.13223e-10 0 0)
(3.07778e-09 0 0)
(1.588e-10 0 0)
(-1.14411e-09 0 0)
(-9.16223e-10 0 0)
(-7.23529e-10 0 0)
(-9.86972e-10 0 0)
(-1.21554e-09 0 0)
(-1.0656e-09 0 0)
(-5.70909e-10 0 0)
(1.05021e-10 0 0)
(3.83727e-10 0 0)
(8.95225e-10 0 0)
(3.37465e-10 0 0)
(-8.46357e-11 0 0)
(2.67161e-10 0 0)
(4.78803e-10 0 0)
(9.06853e-11 0 0)
(-2.81202e-11 0 0)
(-2.21626e-09 0 0)
(1.20367e-09 0 0)
(-2.80351e-09 0 0)
(-5.45524e-10 0 0)
(5.64166e-10 0 0)
(5.66296e-10 0 0)
(1.21083e-09 0 0)
(1.47981e-09 0 0)
(1.19059e-09 0 0)
(7.77564e-10 0 0)
(3.86153e-10 0 0)
(-1.15603e-10 0 0)
(-3.10651e-10 0 0)
(-8.52572e-10 0 0)
(-3.51715e-10 0 0)
)
;
    }
    inlet
    {
        type            calculated;
        value           uniform (0 0 0);
    }
    outlet
    {
        type            calculated;
        value           nonuniform List<vector> 
20
(
(-3.51715e-10 -5.99523e-10 0)
(-4.39426e-10 -1.20654e-10 0)
(-4.58824e-10 -9.95827e-10 0)
(-4.3466e-10 -1.19711e-09 0)
(-2.10524e-10 -1.24695e-09 0)
(-3.70222e-10 -1.92027e-09 0)
(-1.26443e-11 -1.70118e-09 0)
(-1.29718e-10 -2.10614e-09 0)
(9.84945e-11 -1.98125e-09 0)
(-9.82647e-11 -2.13372e-09 0)
(7.37874e-11 -2.14092e-09 0)
(-1.13953e-10 -2.01746e-09 0)
(1.40995e-10 -2.16306e-09 0)
(7.25642e-11 -1.73126e-09 0)
(4.34693e-10 -1.90392e-09 0)
(2.36398e-10 -1.20492e-09 0)
(4.1425e-10 -1.16747e-09 0)
(4.15738e-10 -9.85812e-10 0)
(4.02422e-10 -1.29721e-10 0)
(3.37465e-10 -6.08273e-10 0)
)
;
    }
    frontAndBack
    {
        type            empty;
    }
}


// ************************************************************************* //
