/*--------------------------------*- C++ -*----------------------------------*\
  =========                 |
  \\      /  F ield         | OpenFOAM: The Open Source CFD Toolbox
   \\    /   O peration     | Website:  https://openfoam.org
    \\  /    A nd           | Version:  7
     \\/     M anipulation  |
\*---------------------------------------------------------------------------*/
FoamFile
{
    version     2.0;
    format      ascii;
    class       surfaceScalarField;
    location    "51";
    object      ddtCorrDdt0(phi);
}
// * * * * * * * * * * * * * * * * * * * * * * * * * * * * * * * * * * * * * //

dimensions      [0 4 -2 0 0 0 0];

internalField   nonuniform List<scalar> 
760
(
-6.20547e-13
7.89615e-13
1.46316e-12
2.60036e-12
3.41424e-12
1.88411e-12
-1.13201e-12
1.16512e-12
-4.47779e-12
-1.40278e-10
-9.53969e-12
3.85279e-10
8.67582e-12
3.39665e-10
-1.75209e-11
-1.97261e-10
3.73118e-12
-1.57325e-11
1.73084e-12
-3.25996e-13
4.34887e-12
-5.00348e-13
7.15845e-12
-5.60881e-14
6.94782e-12
-2.67991e-14
4.7153e-12
2.43831e-13
2.62824e-12
8.73046e-13
6.44374e-13
2.12544e-12
-1.02562e-12
2.31974e-12
-2.72121e-12
1.98574e-12
-3.27862e-12
4.96317e-13
-1.70456e-12
2.02142e-12
-2.90355e-13
1.4784e-12
4.47613e-12
-3.49385e-15
4.89665e-12
2.92806e-12
4.50851e-12
2.22374e-12
3.06461e-12
1.25614e-11
8.25072e-12
-1.08099e-11
-1.07954e-11
2.09955e-11
2.67822e-11
1.91334e-13
5.89072e-14
1.6158e-12
-2.07266e-12
4.01321e-12
-1.60774e-12
5.57755e-12
-1.23348e-12
5.96257e-12
-9.33846e-13
5.17613e-12
5.09416e-13
3.87777e-12
2.44446e-12
1.76864e-12
4.89715e-12
-5.44286e-13
4.99141e-12
-2.5285e-12
3.95726e-12
-3.34244e-12
1.12607e-12
-2.93621e-12
5.89389e-13
-6.54676e-12
6.97508e-13
4.32908e-12
1.07656e-12
6.68341e-12
2.17032e-12
7.98467e-12
1.75796e-12
6.30413e-12
-7.01072e-13
6.852e-12
1.62101e-14
1.29738e-12
-2.5514e-13
-1.97182e-12
-1.67177e-13
-1.15145e-12
4.06958e-12
-1.78518e-12
5.32749e-12
-2.35796e-12
5.13439e-12
-2.68279e-12
5.02792e-12
-1.71959e-12
4.72954e-12
1.42192e-12
3.8785e-12
4.77919e-12
1.40484e-12
8.28805e-12
-1.31416e-12
7.7159e-12
-3.65207e-12
6.18836e-12
-4.21631e-12
1.5274e-12
-5.26258e-12
2.0672e-12
2.09939e-12
1.50676e-12
5.36257e-12
1.44977e-12
8.10147e-12
-4.54343e-13
1.02123e-11
1.55172e-12
1.01985e-11
-4.10874e-12
7.12477e-12
6.23729e-13
6.53188e-12
-9.90117e-13
3.41703e-12
-1.05117e-13
-1.10928e-12
3.43043e-12
-2.12867e-12
4.10847e-12
-3.54702e-12
4.19924e-12
-4.1131e-12
4.95462e-12
-2.16472e-12
5.5054e-12
2.39361e-12
4.86895e-12
6.71486e-12
2.4257e-12
1.08171e-11
-3.28075e-13
9.99893e-12
-2.28016e-12
8.01237e-12
-3.11711e-12
2.16091e-12
-6.29939e-12
1.14519e-12
2.2508e-12
1.44206e-12
5.63262e-12
1.07725e-12
8.62697e-12
1.94149e-14
1.04331e-11
1.45652e-12
1.25435e-11
-1.504e-13
8.63506e-12
2.43177e-12
8.07226e-12
-7.34784e-13
2.35416e-12
2.38458e-12
4.41487e-13
3.17685e-12
-1.46403e-12
2.13279e-12
-4.26481e-12
2.60067e-12
-4.24121e-12
3.91539e-12
-1.50318e-12
4.68026e-12
3.58742e-12
3.84577e-12
7.96455e-12
1.45746e-12
1.23102e-11
-5.60212e-13
1.13555e-11
-1.88788e-12
9.23307e-12
-2.23823e-12
2.385e-12
-7.77149e-12
9.82549e-13
1.82118e-12
1.85111e-12
5.78809e-12
7.6391e-13
9.49144e-12
9.27545e-13
1.17985e-11
-1.41882e-12
1.27811e-11
1.87702e-13
1.15857e-11
-1.69467e-12
7.87096e-12
-1.01544e-12
3.32285e-12
2.09891e-12
9.36878e-13
1.58188e-12
-3.59462e-12
2.79131e-12
-5.61715e-12
4.98356e-12
-4.21261e-12
6.33802e-12
-8.8732e-13
6.18011e-12
4.81525e-12
4.01016e-12
9.65397e-12
6.542e-13
1.46738e-11
-1.93198e-12
1.35619e-11
-3.66251e-12
1.08914e-11
-3.50734e-12
2.46118e-12
-9.23108e-12
3.55361e-13
1.64374e-12
1.32272e-12
6.2613e-12
3.48448e-13
9.82481e-12
1.4454e-12
1.30479e-11
1.06278e-13
1.25945e-11
1.24892e-12
1.15748e-11
-4.89564e-13
7.27684e-12
1.4383e-12
3.9051e-12
6.55629e-13
-6.23278e-14
5.60105e-14
-3.90855e-12
1.66421e-12
-4.58624e-12
2.37533e-12
-3.58297e-12
2.75263e-12
-1.03387e-12
2.84759e-12
4.55556e-12
2.10979e-12
9.63489e-12
1.37297e-12
1.53017e-11
7.33709e-13
1.45135e-11
-2.44818e-13
1.19231e-11
-5.85274e-13
3.42979e-12
-9.46024e-12
4.05194e-13
1.52796e-12
7.05815e-13
6.3295e-12
1.02707e-12
1.05414e-11
5.42342e-13
1.33524e-11
6.0688e-13
1.35415e-11
-3.4787e-13
1.13217e-11
-5.24907e-13
7.60577e-12
2.85082e-13
3.58463e-12
-5.93052e-13
-8.70252e-13
1.16387e-12
-3.76821e-12
2.70324e-12
-5.18035e-12
2.66691e-12
-4.949e-12
3.04483e-12
-1.78156e-12
2.66865e-12
4.64559e-12
1.1918e-12
1.04883e-11
3.84621e-14
1.71993e-11
-7.4067e-13
1.63889e-11
-1.74235e-12
1.33474e-11
-1.61181e-12
3.87729e-12
-1.01792e-11
5.02551e-13
1.54656e-12
1.90878e-13
5.84606e-12
6.31162e-13
1.101e-11
5.53215e-15
1.36646e-11
2.65939e-13
1.39805e-11
-2.23832e-13
1.13343e-11
2.79747e-13
7.6864e-12
2.73662e-13
3.08951e-12
2.82216e-13
-1.22067e-12
1.24291e-12
-4.08327e-12
1.21273e-12
-6.04228e-12
7.98687e-13
-5.62174e-12
8.99283e-13
-1.77313e-12
6.63861e-13
4.86903e-12
2.16918e-13
1.07492e-11
1.23242e-13
1.78422e-11
1.63784e-13
1.72315e-11
2.46455e-13
1.40338e-11
3.15813e-13
4.23461e-12
-1.03443e-11
-1.79143e-14
1.15332e-12
1.96191e-13
5.69777e-12
6.5462e-14
1.07706e-11
-9.25925e-14
1.38749e-11
-2.16619e-13
1.41419e-11
7.91851e-14
1.18347e-11
3.46722e-13
7.9281e-12
-5.69977e-14
3.25308e-12
2.62479e-13
-1.01179e-12
-1.65835e-13
-4.35766e-12
-2.59073e-13
-6.14908e-12
4.94795e-13
-5.62776e-12
4.8821e-13
-2.00307e-12
4.70127e-13
4.99173e-12
1.05826e-12
1.1334e-11
7.50478e-13
1.83715e-11
-1.35862e-13
1.75598e-11
-5.58394e-13
1.45476e-11
-6.32677e-13
4.48337e-12
-1.05613e-11
-3.13044e-13
7.0523e-13
2.06911e-14
5.7876e-12
-9.35131e-14
1.03514e-11
-2.38671e-13
1.38358e-11
-4.76568e-13
1.40634e-11
-2.10024e-13
1.22839e-11
9.16123e-14
8.09945e-12
-2.25655e-13
3.39558e-12
4.97692e-13
-8.09212e-13
-1.78871e-13
-4.56652e-12
-6.83615e-13
-5.68024e-12
-1.1761e-13
-4.66589e-12
-7.23947e-13
-1.50073e-12
-1.09075e-12
5.42031e-12
-1.06676e-13
1.16985e-11
2.48395e-13
1.7829e-11
7.94462e-14
1.64606e-11
5.96136e-13
1.35329e-11
6.67094e-13
4.04543e-12
-1.04257e-11
-4.7168e-14
1.10821e-12
-6.37006e-13
5.68736e-12
5.05704e-14
1.01853e-11
-4.04671e-13
1.32087e-11
5.23382e-14
1.34843e-11
-4.07045e-13
1.189e-11
1.57903e-13
8.05972e-12
-4.2071e-13
3.37499e-12
-3.14694e-13
-2.82891e-13
-3.28156e-13
-4.39769e-12
-1.3055e-12
-5.94234e-12
-1.20158e-12
-4.61103e-12
-9.08097e-13
-1.33476e-12
-9.36614e-13
5.19518e-12
-5.74814e-13
1.11373e-11
-2.74365e-13
1.71146e-11
-4.00609e-15
1.59051e-11
2.3661e-13
1.30935e-11
-1.56314e-13
3.53479e-12
-1.04535e-11
-1.35273e-13
1.91511e-12
-1.03786e-12
5.99066e-12
-1.44168e-13
1.0407e-11
-7.27241e-13
1.19673e-11
4.86196e-13
1.31138e-11
-4.33323e-13
1.06025e-11
2.90412e-13
8.07168e-12
3.31662e-13
3.17603e-12
-9.09927e-13
1.78353e-13
-2.51602e-13
-2.93769e-12
-1.21847e-12
-5.60298e-12
-2.72339e-12
-4.96241e-12
-3.05363e-12
-1.60533e-12
-3.06551e-12
4.37791e-12
-2.51858e-12
9.79614e-12
-7.60863e-13
1.56305e-11
1.08339e-12
1.47494e-11
2.11175e-12
1.19517e-11
1.71447e-12
3.08792e-12
-9.73846e-12
-6.69554e-13
2.55131e-12
-8.22039e-13
6.45399e-12
-1.01843e-12
9.84799e-12
-1.55902e-13
1.19446e-11
-4.36671e-13
1.28081e-11
-1.5448e-13
9.77397e-12
-1.37122e-12
7.66626e-12
2.91179e-13
3.37057e-12
-1.65216e-12
-7.90842e-13
-1.79064e-12
-2.44053e-12
-7.29809e-13
-4.51427e-12
-1.27796e-12
-5.01164e-12
-2.1222e-12
-2.29373e-12
-2.84181e-12
3.64322e-12
-3.18528e-12
9.29716e-12
-2.16739e-12
1.5183e-11
-7.12409e-13
1.41731e-11
1.26294e-13
1.11337e-11
6.64523e-13
2.45512e-12
-9.25405e-12
-1.30232e-12
2.66069e-12
-1.46072e-12
6.37042e-12
-1.95361e-12
9.13512e-12
4.56639e-13
1.13322e-11
-5.21547e-13
1.01209e-11
2.68541e-12
1.01749e-11
-8.36321e-14
5.86962e-12
1.05626e-12
4.7179e-12
2.22088e-13
-4.23822e-13
-3.4815e-12
-2.5996e-12
-4.37653e-12
-3.00425e-12
-4.77688e-12
-3.27471e-12
-5.26532e-12
-1.87782e-12
-5.0043e-12
2.55209e-12
-3.91073e-12
7.24544e-12
-1.1865e-12
1.24636e-11
1.56269e-12
1.1903e-11
3.23902e-12
9.58822e-12
3.53825e-12
2.66794e-12
-7.58229e-12
-1.23099e-12
1.76523e-12
-1.36452e-12
5.68195e-12
-1.72619e-12
8.17671e-12
-1.21705e-12
9.88757e-12
-9.24048e-13
9.61283e-12
-8.30479e-14
1.07009e-11
8.1142e-14
4.14307e-12
-2.58052e-12
2.03087e-12
-1.60026e-13
7.125e-13
-2.35204e-12
-3.22081e-12
-4.06338e-12
-3.51267e-12
-4.07706e-12
-2.74035e-12
-3.60803e-12
-1.12067e-12
-3.03376e-12
2.48625e-12
-2.65185e-12
6.1557e-12
-1.39359e-12
1.04825e-11
1.06243e-13
1.01445e-11
1.41927e-12
8.24162e-12
2.17768e-12
2.43657e-12
-6.09811e-12
-1.6094e-12
4.02491e-12
-1.43775e-12
4.18194e-12
-1.49782e-12
5.94424e-12
-1.67631e-12
7.24801e-12
2.21396e-12
8.85056e-12
-1.84578e-12
6.35386e-12
4.14879e-12
5.94228e-12
3.21215e-13
-1.37244e-12
-6.56937e-13
-1.10318e-12
-1.0934e-12
-2.04609e-12
-4.28332e-12
-3.06819e-12
-6.08855e-12
-2.22476e-12
-5.92354e-12
-4.35063e-13
-4.71017e-12
2.37944e-12
-3.45986e-12
4.78299e-12
-1.75424e-12
7.8044e-12
1.17253e-13
7.38909e-12
1.95502e-12
6.13287e-12
2.99137e-12
1.64289e-12
-5.16013e-12
4.77848e-13
1.54055e-12
-4.12957e-13
3.50857e-12
-2.60993e-12
3.52589e-12
-1.62589e-12
4.90054e-12
1.7644e-12
7.99385e-12
-4.90126e-12
4.60441e-12
-1.80998e-12
3.41626e-12
1.8089e-13
1.79412e-11
-7.07673e-13
3.08378e-13
-1.3127e-12
-1.63313e-12
-4.19233e-12
-2.60838e-12
-6.49527e-12
-2.15057e-12
-6.67087e-12
-6.0238e-13
-5.10494e-12
1.50819e-12
-3.05927e-12
3.0066e-12
-6.0394e-13
4.68086e-12
1.42603e-12
4.45041e-12
3.57116e-12
3.6501e-12
4.08721e-12
1.07543e-12
-2.93779e-12
-1.60618e-12
1.07867e-12
-1.50757e-12
1.28567e-12
-2.44207e-12
1.58807e-12
-5.68837e-13
4.36916e-12
9.66141e-13
-1.42391e-10
-1.15191e-11
-5.05151e-11
5.58154e-13
3.35956e-10
-1.54979e-11
-1.11306e-10
3.25575e-14
-7.76854e-12
-1.67748e-12
3.92837e-13
-3.61683e-12
-1.41531e-12
-5.24315e-12
-1.51876e-12
-6.36399e-12
-4.46237e-13
-5.98241e-12
8.2559e-13
-4.18903e-12
1.48344e-12
-1.60158e-12
2.15001e-12
7.49992e-13
1.91206e-12
2.68403e-12
1.64002e-12
3.25508e-12
3.5379e-13
-1.76904e-12
-9.95891e-13
-2.19824e-12
1.57946e-12
-2.08156e-13
-4.98773e-12
1.78547e-11
-9.26062e-13
1.41158e-11
-5.09974e-12
-5.44303e-12
-3.57911e-12
-3.99161e-12
-5.69182e-12
-5.862e-12
-4.0186e-12
-1.12635e-12
1.30361e-12
3.12896e-12
3.31682e-12
)
;

boundaryField
{
    sides
    {
        type            calculated;
        value           uniform 0;
    }
    inlet
    {
        type            calculated;
        value           uniform 0;
    }
    outlet
    {
        type            calculated;
        value           nonuniform List<scalar> 
20
(
-1.59951e-12
-2.22532e-12
-2.07188e-12
-2.33075e-12
-8.75144e-13
-1.76897e-12
2.69713e-13
-4.30676e-13
5.53517e-13
-5.10384e-13
1.81431e-13
-8.23895e-13
5.11546e-13
2.85848e-13
2.37459e-12
1.15527e-12
2.22871e-12
1.77079e-12
1.93457e-12
1.41445e-12
)
;
    }
    frontAndBack
    {
        type            empty;
        value           nonuniform 0();
    }
}


// ************************************************************************* //
