/*--------------------------------*- C++ -*----------------------------------*\
  =========                 |
  \\      /  F ield         | OpenFOAM: The Open Source CFD Toolbox
   \\    /   O peration     | Website:  https://openfoam.org
    \\  /    A nd           | Version:  7
     \\/     M anipulation  |
\*---------------------------------------------------------------------------*/
FoamFile
{
    version     2.0;
    format      ascii;
    class       volVectorField;
    location    "51";
    object      hU;
}
// * * * * * * * * * * * * * * * * * * * * * * * * * * * * * * * * * * * * * //

dimensions      [0 2 -1 0 0 0 0];

internalField   nonuniform List<vector> 
400
(
(0.001 -8.71642e-09 0)
(0.000999999 -2.37499e-08 0)
(0.000999999 -3.60943e-08 0)
(0.001 -4.70665e-08 0)
(0.00100001 -5.74583e-08 0)
(0.00100001 -6.80976e-08 0)
(0.00100002 -7.87484e-08 0)
(0.00100003 -8.99998e-08 0)
(0.00100004 -1.0045e-07 0)
(0.00100006 -1.12135e-07 0)
(0.00100007 -1.22514e-07 0)
(0.0010001 -1.35734e-07 0)
(0.00100011 -1.45905e-07 0)
(0.00100015 -1.62768e-07 0)
(0.00100017 -1.71786e-07 0)
(0.00100024 -1.96273e-07 0)
(0.00100026 -2.01197e-07 0)
(0.00100038 -2.43609e-07 0)
(0.00100038 -2.40056e-07 0)
(0.00100061 -3.32245e-07 0)
(0.001 4.06119e-09 0)
(0.001 1.22624e-08 0)
(0.00100001 2.04461e-08 0)
(0.00100001 2.81572e-08 0)
(0.00100002 3.53862e-08 0)
(0.00100002 4.18686e-08 0)
(0.00100003 4.79075e-08 0)
(0.00100004 5.30823e-08 0)
(0.00100005 5.84374e-08 0)
(0.00100007 6.23096e-08 0)
(0.00100008 6.70126e-08 0)
(0.0010001 6.86757e-08 0)
(0.00100012 7.28632e-08 0)
(0.00100016 7.01335e-08 0)
(0.00100018 7.43263e-08 0)
(0.00100023 6.19512e-08 0)
(0.00100026 6.7221e-08 0)
(0.00100035 3.16705e-08 0)
(0.00100037 3.94421e-08 0)
(0.00100051 -5.49767e-08 0)
(0.001 -3.82403e-09 0)
(0.000999999 -1.28184e-08 0)
(0.000999999 -2.29317e-08 0)
(0.001 -3.37326e-08 0)
(0.001 -4.46033e-08 0)
(0.00100001 -5.56867e-08 0)
(0.00100002 -6.65192e-08 0)
(0.00100003 -7.80693e-08 0)
(0.00100004 -8.9424e-08 0)
(0.00100005 -1.02734e-07 0)
(0.00100007 -1.14998e-07 0)
(0.00100009 -1.31728e-07 0)
(0.0010001 -1.45459e-07 0)
(0.00100014 -1.68919e-07 0)
(0.00100016 -1.8424e-07 0)
(0.00100021 -2.20777e-07 0)
(0.00100023 -2.36164e-07 0)
(0.00100031 -2.98485e-07 0)
(0.00100033 -3.07921e-07 0)
(0.00100046 -4.23176e-07 0)
(0.001 4.90164e-11 0)
(0.001 2.66759e-10 0)
(0.001 8.38956e-10 0)
(0.00100001 1.30795e-09 0)
(0.00100001 1.58124e-09 0)
(0.00100002 1.1142e-09 0)
(0.00100003 4.84637e-10 0)
(0.00100004 -1.37417e-09 0)
(0.00100005 -3.18586e-09 0)
(0.00100006 -7.4422e-09 0)
(0.00100007 -1.101e-08 0)
(0.00100009 -1.97059e-08 0)
(0.00100011 -2.58847e-08 0)
(0.00100013 -4.28559e-08 0)
(0.00100016 -5.23553e-08 0)
(0.00100019 -8.442e-08 0)
(0.00100022 -9.60124e-08 0)
(0.00100028 -1.55763e-07 0)
(0.0010003 -1.63183e-07 0)
(0.00100039 -2.7726e-07 0)
(0.001 -2.64856e-09 0)
(0.001 -8.80754e-09 0)
(0.001 -1.58923e-08 0)
(0.001 -2.41185e-08 0)
(0.00100001 -3.31329e-08 0)
(0.00100001 -4.32339e-08 0)
(0.00100002 -5.35845e-08 0)
(0.00100002 -6.53169e-08 0)
(0.00100003 -7.70591e-08 0)
(0.00100004 -9.14636e-08 0)
(0.00100005 -1.05302e-07 0)
(0.00100007 -1.24544e-07 0)
(0.00100009 -1.41346e-07 0)
(0.00100011 -1.69381e-07 0)
(0.00100013 -1.89896e-07 0)
(0.00100016 -2.33637e-07 0)
(0.00100018 -2.56269e-07 0)
(0.00100024 -3.27652e-07 0)
(0.00100025 -3.43895e-07 0)
(0.00100033 -4.65957e-07 0)
(0.001 -2.29322e-09 0)
(0.001 -7.11536e-09 0)
(0.001 -1.19783e-08 0)
(0.001 -1.71885e-08 0)
(0.00100001 -2.25935e-08 0)
(0.00100001 -2.8709e-08 0)
(0.00100002 -3.49472e-08 0)
(0.00100002 -4.25285e-08 0)
(0.00100003 -5.01804e-08 0)
(0.00100004 -6.07252e-08 0)
(0.00100005 -7.09459e-08 0)
(0.00100007 -8.70301e-08 0)
(0.00100008 -1.01204e-07 0)
(0.0010001 -1.2732e-07 0)
(0.00100011 -1.46603e-07 0)
(0.00100014 -1.89574e-07 0)
(0.00100016 -2.11942e-07 0)
(0.0010002 -2.82269e-07 0)
(0.00100021 -2.97922e-07 0)
(0.00100027 -4.17033e-07 0)
(0.001 -2.60992e-09 0)
(0.001 -8.33805e-09 0)
(0.001 -1.46969e-08 0)
(0.001 -2.2056e-08 0)
(0.00100001 -3.0305e-08 0)
(0.00100001 -3.9835e-08 0)
(0.00100001 -4.99952e-08 0)
(0.00100002 -6.18172e-08 0)
(0.00100002 -7.39879e-08 0)
(0.00100003 -8.92578e-08 0)
(0.00100004 -1.04307e-07 0)
(0.00100005 -1.25399e-07 0)
(0.00100006 -1.44581e-07 0)
(0.00100007 -1.75851e-07 0)
(0.00100009 -2.00101e-07 0)
(0.00100011 -2.48326e-07 0)
(0.00100012 -2.75422e-07 0)
(0.00100015 -3.51097e-07 0)
(0.00100016 -3.70515e-07 0)
(0.00100021 -4.94354e-07 0)
(0.001 -2.89208e-09 0)
(0.001 -9.16037e-09 0)
(0.001 -1.60721e-08 0)
(0.001 -2.39315e-08 0)
(0.001 -3.2498e-08 0)
(0.00100001 -4.2067e-08 0)
(0.00100001 -5.19618e-08 0)
(0.00100001 -6.32877e-08 0)
(0.00100002 -7.48473e-08 0)
(0.00100002 -8.94482e-08 0)
(0.00100003 -1.03922e-07 0)
(0.00100004 -1.24605e-07 0)
(0.00100004 -1.43651e-07 0)
(0.00100005 -1.75025e-07 0)
(0.00100006 -1.9975e-07 0)
(0.00100008 -2.48406e-07 0)
(0.00100009 -2.76259e-07 0)
(0.00100011 -3.51773e-07 0)
(0.00100012 -3.71489e-07 0)
(0.00100015 -4.93208e-07 0)
(0.001 -3.0587e-09 0)
(0.001 -9.63642e-09 0)
(0.001 -1.68526e-08 0)
(0.001 -2.5031e-08 0)
(0.001 -3.3889e-08 0)
(0.001 -4.38352e-08 0)
(0.00100001 -5.42597e-08 0)
(0.00100001 -6.63682e-08 0)
(0.00100001 -7.89223e-08 0)
(0.00100001 -9.47343e-08 0)
(0.00100002 -1.10564e-07 0)
(0.00100002 -1.32745e-07 0)
(0.00100003 -1.53289e-07 0)
(0.00100003 -1.86335e-07 0)
(0.00100004 -2.12661e-07 0)
(0.00100005 -2.63198e-07 0)
(0.00100005 -2.92639e-07 0)
(0.00100007 -3.70202e-07 0)
(0.00100007 -3.91069e-07 0)
(0.00100009 -5.14999e-07 0)
(0.001 -3.13646e-09 0)
(0.001 -9.85858e-09 0)
(0.001 -1.72251e-08 0)
(0.001 -2.55818e-08 0)
(0.001 -3.46842e-08 0)
(0.001 -4.49604e-08 0)
(0.001 -5.57785e-08 0)
(0.001 -6.8272e-08 0)
(0.001 -8.11659e-08 0)
(0.001 -9.72799e-08 0)
(0.00100001 -1.13419e-07 0)
(0.00100001 -1.3592e-07 0)
(0.00100001 -1.56858e-07 0)
(0.00100001 -1.90309e-07 0)
(0.00100001 -2.17132e-07 0)
(0.00100002 -2.68053e-07 0)
(0.00100002 -2.97973e-07 0)
(0.00100002 -3.75611e-07 0)
(0.00100002 -3.96789e-07 0)
(0.00100003 -5.20009e-07 0)
(0.001 -3.14423e-09 0)
(0.001 -9.86042e-09 0)
(0.001 -1.72327e-08 0)
(0.001 -2.55812e-08 0)
(0.000999999 -3.46816e-08 0)
(0.000999999 -4.495e-08 0)
(0.000999998 -5.57731e-08 0)
(0.000999997 -6.82662e-08 0)
(0.000999996 -8.11607e-08 0)
(0.000999995 -9.72792e-08 0)
(0.000999994 -1.13409e-07 0)
(0.000999993 -1.35908e-07 0)
(0.000999991 -1.56853e-07 0)
(0.000999989 -1.90304e-07 0)
(0.000999987 -2.17127e-07 0)
(0.000999984 -2.68057e-07 0)
(0.000999982 -2.97981e-07 0)
(0.000999978 -3.75613e-07 0)
(0.000999977 -3.96788e-07 0)
(0.00099997 -5.20006e-07 0)
(0.001 -3.07159e-09 0)
(0.001 -9.64437e-09 0)
(0.000999999 -1.68662e-08 0)
(0.000999999 -2.50305e-08 0)
(0.000999998 -3.38841e-08 0)
(0.000999996 -4.38162e-08 0)
(0.000999994 -5.42497e-08 0)
(0.000999992 -6.63619e-08 0)
(0.000999989 -7.89126e-08 0)
(0.000999986 -9.4737e-08 0)
(0.000999982 -1.10553e-07 0)
(0.000999978 -1.3272e-07 0)
(0.000999973 -1.53275e-07 0)
(0.000999967 -1.86318e-07 0)
(0.000999961 -2.12647e-07 0)
(0.000999952 -2.63192e-07 0)
(0.000999946 -2.92642e-07 0)
(0.000999933 -3.7018e-07 0)
(0.00099993 -3.91045e-07 0)
(0.000999911 -5.14945e-07 0)
(0.001 -2.89615e-09 0)
(0.001 -9.17e-09 0)
(0.000999999 -1.60747e-08 0)
(0.000999998 -2.3937e-08 0)
(0.000999996 -3.24904e-08 0)
(0.000999994 -4.20621e-08 0)
(0.000999991 -5.19514e-08 0)
(0.000999987 -6.32945e-08 0)
(0.000999982 -7.48432e-08 0)
(0.000999977 -8.94528e-08 0)
(0.000999971 -1.03938e-07 0)
(0.000999963 -1.24609e-07 0)
(0.000999956 -1.43651e-07 0)
(0.000999945 -1.75021e-07 0)
(0.000999936 -1.9975e-07 0)
(0.000999921 -2.48408e-07 0)
(0.000999911 -2.76272e-07 0)
(0.00099989 -3.51777e-07 0)
(0.000999882 -3.715e-07 0)
(0.000999851 -4.93201e-07 0)
(0.001 -2.60348e-09 0)
(0.000999999 -8.33744e-09 0)
(0.000999998 -1.46872e-08 0)
(0.000999997 -2.20593e-08 0)
(0.000999994 -3.02964e-08 0)
(0.000999991 -3.985e-08 0)
(0.000999987 -4.99859e-08 0)
(0.000999982 -6.18205e-08 0)
(0.000999977 -7.39895e-08 0)
(0.000999969 -8.92365e-08 0)
(0.000999961 -1.04307e-07 0)
(0.000999951 -1.25402e-07 0)
(0.00099994 -1.44577e-07 0)
(0.000999925 -1.75825e-07 0)
(0.000999913 -2.00066e-07 0)
(0.000999891 -2.48262e-07 0)
(0.000999878 -2.75367e-07 0)
(0.000999847 -3.51011e-07 0)
(0.000999839 -3.70442e-07 0)
(0.000999791 -4.94215e-07 0)
(0.001 -2.28688e-09 0)
(0.000999999 -7.11211e-09 0)
(0.000999998 -1.19726e-08 0)
(0.000999995 -1.71857e-08 0)
(0.000999992 -2.26115e-08 0)
(0.000999987 -2.87302e-08 0)
(0.000999982 -3.49693e-08 0)
(0.000999975 -4.25265e-08 0)
(0.000999968 -5.02048e-08 0)
(0.000999958 -6.07236e-08 0)
(0.000999948 -7.09415e-08 0)
(0.000999935 -8.70453e-08 0)
(0.000999922 -1.0123e-07 0)
(0.000999903 -1.27336e-07 0)
(0.000999887 -1.46611e-07 0)
(0.00099986 -1.8956e-07 0)
(0.000999842 -2.11935e-07 0)
(0.000999802 -2.82256e-07 0)
(0.000999787 -2.97921e-07 0)
(0.00099973 -4.17011e-07 0)
(0.001 -2.64625e-09 0)
(0.001 -8.79541e-09 0)
(0.000999999 -1.58788e-08 0)
(0.000999997 -2.41087e-08 0)
(0.000999994 -3.3158e-08 0)
(0.00099999 -4.32136e-08 0)
(0.000999985 -5.3615e-08 0)
(0.000999977 -6.52969e-08 0)
(0.000999969 -7.70522e-08 0)
(0.000999958 -9.14582e-08 0)
(0.000999946 -1.05272e-07 0)
(0.00099993 -1.24511e-07 0)
(0.000999915 -1.41334e-07 0)
(0.000999891 -1.69361e-07 0)
(0.000999872 -1.89882e-07 0)
(0.000999837 -2.33581e-07 0)
(0.000999817 -2.5622e-07 0)
(0.000999764 -3.2755e-07 0)
(0.000999752 -3.43816e-07 0)
(0.000999669 -4.6579e-07 0)
(0.001 5.69955e-11 0)
(0.000999998 2.84406e-10 0)
(0.000999995 8.44266e-10 0)
(0.000999991 1.27378e-09 0)
(0.000999987 1.54516e-09 0)
(0.00099998 1.14297e-09 0)
(0.000999974 4.73458e-10 0)
(0.000999965 -1.39499e-09 0)
(0.000999955 -3.18737e-09 0)
(0.000999942 -7.45371e-09 0)
(0.000999929 -1.10037e-08 0)
(0.000999911 -1.96865e-08 0)
(0.000999894 -2.58789e-08 0)
(0.000999867 -4.28555e-08 0)
(0.000999845 -5.2369e-08 0)
(0.000999806 -8.44152e-08 0)
(0.00099978 -9.60076e-08 0)
(0.00099972 -1.55726e-07 0)
(0.000999698 -1.63153e-07 0)
(0.000999611 -2.77194e-07 0)
(0.001 -3.82935e-09 0)
(0.001 -1.28266e-08 0)
(0.001 -2.29459e-08 0)
(0.000999999 -3.37595e-08 0)
(0.000999995 -4.46039e-08 0)
(0.00099999 -5.56051e-08 0)
(0.000999983 -6.64486e-08 0)
(0.000999974 -7.81003e-08 0)
(0.000999963 -8.94103e-08 0)
(0.000999949 -1.0273e-07 0)
(0.000999935 -1.15018e-07 0)
(0.000999914 -1.31733e-07 0)
(0.000999896 -1.4546e-07 0)
(0.000999864 -1.68908e-07 0)
(0.000999841 -1.8426e-07 0)
(0.000999792 -2.20778e-07 0)
(0.000999767 -2.36197e-07 0)
(0.000999687 -2.9846e-07 0)
(0.000999671 -3.07926e-07 0)
(0.000999538 -4.23097e-07 0)
(0.001 4.04612e-09 0)
(0.000999996 1.22239e-08 0)
(0.000999992 2.0395e-08 0)
(0.000999988 2.82082e-08 0)
(0.000999983 3.54773e-08 0)
(0.000999976 4.17208e-08 0)
(0.000999969 4.79024e-08 0)
(0.000999959 5.3123e-08 0)
(0.000999948 5.84371e-08 0)
(0.000999933 6.2296e-08 0)
(0.000999918 6.69681e-08 0)
(0.000999897 6.86661e-08 0)
(0.000999877 7.28845e-08 0)
(0.000999844 7.01744e-08 0)
(0.000999819 7.43409e-08 0)
(0.000999768 6.19766e-08 0)
(0.000999738 6.72246e-08 0)
(0.000999654 3.17291e-08 0)
(0.000999629 3.94895e-08 0)
(0.000999495 -5.48515e-08 0)
(0.001 -8.71795e-09 0)
(0.001 -2.37717e-08 0)
(0.001 -3.61358e-08 0)
(0.000999998 -4.7028e-08 0)
(0.000999993 -5.73967e-08 0)
(0.000999987 -6.8327e-08 0)
(0.000999979 -7.88318e-08 0)
(0.000999968 -8.99724e-08 0)
(0.000999958 -1.00502e-07 0)
(0.000999941 -1.12194e-07 0)
(0.000999927 -1.22584e-07 0)
(0.000999903 -1.35783e-07 0)
(0.000999885 -1.45941e-07 0)
(0.000999846 -1.62804e-07 0)
(0.000999826 -1.71839e-07 0)
(0.00099976 -1.96336e-07 0)
(0.000999742 -2.01271e-07 0)
(0.000999623 -2.43689e-07 0)
(0.000999618 -2.40138e-07 0)
(0.000999393 -3.32373e-07 0)
)
;

boundaryField
{
    sides
    {
        type            slip;
    }
    inlet
    {
        type            fixedValue;
        value           uniform (0.001 0 0);
    }
    outlet
    {
        type            zeroGradient;
    }
    frontAndBack
    {
        type            empty;
    }
}


// ************************************************************************* //
