/*--------------------------------*- C++ -*----------------------------------*\
  =========                 |
  \\      /  F ield         | OpenFOAM: The Open Source CFD Toolbox
   \\    /   O peration     | Website:  https://openfoam.org
    \\  /    A nd           | Version:  7
     \\/     M anipulation  |
\*---------------------------------------------------------------------------*/
FoamFile
{
    version     2.0;
    format      ascii;
    class       volVectorField;
    location    "51";
    object      hU_0;
}
// * * * * * * * * * * * * * * * * * * * * * * * * * * * * * * * * * * * * * //

dimensions      [0 2 -1 0 0 0 0];

internalField   nonuniform List<vector> 
400
(
(0.001 -8.73194e-09 0)
(0.000999999 -2.38031e-08 0)
(0.000999999 -3.61516e-08 0)
(0.001 -4.71192e-08 0)
(0.00100001 -5.75849e-08 0)
(0.00100001 -6.81215e-08 0)
(0.00100002 -7.90063e-08 0)
(0.00100003 -8.98929e-08 0)
(0.00100004 -1.00455e-07 0)
(0.00100006 -1.12098e-07 0)
(0.00100007 -1.22473e-07 0)
(0.0010001 -1.35709e-07 0)
(0.00100011 -1.45902e-07 0)
(0.00100015 -1.62794e-07 0)
(0.00100017 -1.71837e-07 0)
(0.00100024 -1.96352e-07 0)
(0.00100026 -2.01262e-07 0)
(0.00100038 -2.43656e-07 0)
(0.00100038 -2.40051e-07 0)
(0.00100061 -3.32187e-07 0)
(0.001 4.04744e-09 0)
(0.001 1.2235e-08 0)
(0.00100001 2.04464e-08 0)
(0.00100001 2.81667e-08 0)
(0.00100002 3.53161e-08 0)
(0.00100002 4.18485e-08 0)
(0.00100003 4.77101e-08 0)
(0.00100004 5.30983e-08 0)
(0.00100005 5.83826e-08 0)
(0.00100007 6.23007e-08 0)
(0.00100008 6.70041e-08 0)
(0.0010001 6.86624e-08 0)
(0.00100012 7.28667e-08 0)
(0.00100016 7.01496e-08 0)
(0.00100018 7.43359e-08 0)
(0.00100023 6.19308e-08 0)
(0.00100026 6.71799e-08 0)
(0.00100035 3.16263e-08 0)
(0.00100037 3.94085e-08 0)
(0.00100051 -5.49671e-08 0)
(0.001 -3.85694e-09 0)
(0.000999999 -1.28973e-08 0)
(0.000999999 -2.30392e-08 0)
(0.001 -3.38684e-08 0)
(0.001 -4.47103e-08 0)
(0.00100001 -5.58246e-08 0)
(0.00100002 -6.64794e-08 0)
(0.00100003 -7.81497e-08 0)
(0.00100004 -8.93994e-08 0)
(0.00100005 -1.02669e-07 0)
(0.00100006 -1.14931e-07 0)
(0.00100009 -1.31673e-07 0)
(0.0010001 -1.45427e-07 0)
(0.00100014 -1.68939e-07 0)
(0.00100016 -1.84317e-07 0)
(0.00100021 -2.20919e-07 0)
(0.00100023 -2.36301e-07 0)
(0.00100031 -2.98596e-07 0)
(0.00100033 -3.07949e-07 0)
(0.00100046 -4.23083e-07 0)
(0.001 9.78545e-12 0)
(0.001 1.45815e-10 0)
(0.001 6.54329e-10 0)
(0.00100001 1.08863e-09 0)
(0.00100001 1.39209e-09 0)
(0.00100002 9.28395e-10 0)
(0.00100003 4.03088e-10 0)
(0.00100004 -1.44201e-09 0)
(0.00100005 -3.1791e-09 0)
(0.00100006 -7.4022e-09 0)
(0.00100007 -1.09484e-08 0)
(0.00100009 -1.96348e-08 0)
(0.00100011 -2.584e-08 0)
(0.00100013 -4.28869e-08 0)
(0.00100015 -5.24634e-08 0)
(0.00100019 -8.46108e-08 0)
(0.00100022 -9.61986e-08 0)
(0.00100028 -1.5592e-07 0)
(0.0010003 -1.63238e-07 0)
(0.00100039 -2.7715e-07 0)
(0.001 -2.67801e-09 0)
(0.001 -8.89507e-09 0)
(0.001 -1.6028e-08 0)
(0.001 -2.42872e-08 0)
(0.00100001 -3.33142e-08 0)
(0.00100001 -4.33822e-08 0)
(0.00100002 -5.37059e-08 0)
(0.00100002 -6.53807e-08 0)
(0.00100003 -7.70584e-08 0)
(0.00100004 -9.14369e-08 0)
(0.00100005 -1.05241e-07 0)
(0.00100007 -1.24469e-07 0)
(0.00100009 -1.41301e-07 0)
(0.00100011 -1.69418e-07 0)
(0.00100013 -1.90013e-07 0)
(0.00100016 -2.3384e-07 0)
(0.00100018 -2.5647e-07 0)
(0.00100024 -3.27823e-07 0)
(0.00100025 -3.43962e-07 0)
(0.00100033 -4.65843e-07 0)
(0.001 -2.33692e-09 0)
(0.001 -7.24261e-09 0)
(0.001 -1.21827e-08 0)
(0.001 -1.74399e-08 0)
(0.00100001 -2.28697e-08 0)
(0.00100001 -2.89246e-08 0)
(0.00100002 -3.51088e-08 0)
(0.00100002 -4.2582e-08 0)
(0.00100003 -5.01682e-08 0)
(0.00100004 -6.06542e-08 0)
(0.00100005 -7.08255e-08 0)
(0.00100007 -8.69188e-08 0)
(0.00100008 -1.0116e-07 0)
(0.0010001 -1.27399e-07 0)
(0.00100011 -1.4679e-07 0)
(0.00100014 -1.89868e-07 0)
(0.00100016 -2.12215e-07 0)
(0.0010002 -2.82489e-07 0)
(0.00100021 -2.9798e-07 0)
(0.00100027 -4.16854e-07 0)
(0.001 -2.64498e-09 0)
(0.001 -8.45173e-09 0)
(0.001 -1.48832e-08 0)
(0.001 -2.22923e-08 0)
(0.00100001 -3.05621e-08 0)
(0.00100001 -4.00704e-08 0)
(0.00100001 -5.01743e-08 0)
(0.00100002 -6.19137e-08 0)
(0.00100002 -7.40279e-08 0)
(0.00100003 -8.92193e-08 0)
(0.00100004 -1.04224e-07 0)
(0.00100005 -1.25326e-07 0)
(0.00100006 -1.44553e-07 0)
(0.00100007 -1.75923e-07 0)
(0.00100009 -2.00266e-07 0)
(0.00100011 -2.48603e-07 0)
(0.00100012 -2.75696e-07 0)
(0.00100015 -3.5133e-07 0)
(0.00100016 -3.70605e-07 0)
(0.00100021 -4.94198e-07 0)
(0.001 -2.92292e-09 0)
(0.001 -9.27844e-09 0)
(0.001 -1.62733e-08 0)
(0.001 -2.41986e-08 0)
(0.001 -3.27693e-08 0)
(0.00100001 -4.23051e-08 0)
(0.00100001 -5.2116e-08 0)
(0.00100001 -6.33562e-08 0)
(0.00100002 -7.48318e-08 0)
(0.00100002 -8.93564e-08 0)
(0.00100003 -1.03806e-07 0)
(0.00100004 -1.24509e-07 0)
(0.00100004 -1.43618e-07 0)
(0.00100005 -1.75118e-07 0)
(0.00100006 -1.99959e-07 0)
(0.00100008 -2.48742e-07 0)
(0.00100009 -2.7658e-07 0)
(0.00100011 -3.52037e-07 0)
(0.00100012 -3.71573e-07 0)
(0.00100015 -4.93012e-07 0)
(0.001 -3.08628e-09 0)
(0.001 -9.75375e-09 0)
(0.001 -1.70612e-08 0)
(0.001 -2.5303e-08 0)
(0.001 -3.41656e-08 0)
(0.001 -4.40699e-08 0)
(0.00100001 -5.442e-08 0)
(0.00100001 -6.64499e-08 0)
(0.00100001 -7.89193e-08 0)
(0.00100001 -9.46678e-08 0)
(0.00100002 -1.10462e-07 0)
(0.00100002 -1.32641e-07 0)
(0.00100003 -1.53239e-07 0)
(0.00100003 -1.86407e-07 0)
(0.00100004 -2.1285e-07 0)
(0.00100005 -2.6353e-07 0)
(0.00100005 -2.92975e-07 0)
(0.00100007 -3.70491e-07 0)
(0.00100007 -3.91183e-07 0)
(0.00100009 -5.14816e-07 0)
(0.001 -3.15916e-09 0)
(0.001 -9.96989e-09 0)
(0.001 -1.74359e-08 0)
(0.001 -2.58586e-08 0)
(0.001 -3.49722e-08 0)
(0.001 -4.5206e-08 0)
(0.001 -5.59472e-08 0)
(0.001 -6.83479e-08 0)
(0.001 -8.1151e-08 0)
(0.001 -9.71973e-08 0)
(0.00100001 -1.133e-07 0)
(0.00100001 -1.35805e-07 0)
(0.00100001 -1.5681e-07 0)
(0.00100001 -1.90396e-07 0)
(0.00100001 -2.17342e-07 0)
(0.00100002 -2.68406e-07 0)
(0.00100002 -2.98324e-07 0)
(0.00100002 -3.7591e-07 0)
(0.00100002 -3.969e-07 0)
(0.00100003 -5.19812e-07 0)
(0.001 -3.16141e-09 0)
(0.001 -9.96866e-09 0)
(0.001 -1.74407e-08 0)
(0.001 -2.58584e-08 0)
(0.000999999 -3.49699e-08 0)
(0.000999999 -4.52009e-08 0)
(0.000999998 -5.59468e-08 0)
(0.000999997 -6.83427e-08 0)
(0.000999996 -8.11498e-08 0)
(0.000999995 -9.71924e-08 0)
(0.000999994 -1.13287e-07 0)
(0.000999993 -1.358e-07 0)
(0.000999991 -1.56809e-07 0)
(0.000999989 -1.90396e-07 0)
(0.000999987 -2.17347e-07 0)
(0.000999984 -2.68415e-07 0)
(0.000999982 -2.98328e-07 0)
(0.000999978 -3.75907e-07 0)
(0.000999977 -3.96896e-07 0)
(0.00099997 -5.19808e-07 0)
(0.001 -3.0906e-09 0)
(0.001 -9.75255e-09 0)
(0.000999999 -1.7072e-08 0)
(0.000999999 -2.52983e-08 0)
(0.000999998 -3.41615e-08 0)
(0.000999996 -4.40574e-08 0)
(0.000999994 -5.44218e-08 0)
(0.000999992 -6.64417e-08 0)
(0.000999989 -7.89185e-08 0)
(0.000999986 -9.4665e-08 0)
(0.000999982 -1.1044e-07 0)
(0.000999978 -1.32621e-07 0)
(0.000999973 -1.53232e-07 0)
(0.000999967 -1.86401e-07 0)
(0.000999961 -2.12852e-07 0)
(0.000999952 -2.63531e-07 0)
(0.000999946 -2.92972e-07 0)
(0.000999933 -3.70461e-07 0)
(0.00099993 -3.91155e-07 0)
(0.000999911 -5.1476e-07 0)
(0.001 -2.92582e-09 0)
(0.001 -9.28187e-09 0)
(0.000999999 -1.62785e-08 0)
(0.000999998 -2.41924e-08 0)
(0.000999996 -3.27657e-08 0)
(0.000999994 -4.22924e-08 0)
(0.000999991 -5.21165e-08 0)
(0.000999987 -6.33584e-08 0)
(0.000999982 -7.48298e-08 0)
(0.000999977 -8.93711e-08 0)
(0.000999971 -1.03811e-07 0)
(0.000999963 -1.24497e-07 0)
(0.000999956 -1.43613e-07 0)
(0.000999945 -1.75118e-07 0)
(0.000999936 -1.99966e-07 0)
(0.000999921 -2.48749e-07 0)
(0.000999911 -2.76594e-07 0)
(0.00099989 -3.5204e-07 0)
(0.000999882 -3.7158e-07 0)
(0.000999851 -4.93001e-07 0)
(0.001 -2.64612e-09 0)
(0.000999999 -8.45769e-09 0)
(0.000999998 -1.48786e-08 0)
(0.000999997 -2.22938e-08 0)
(0.000999994 -3.05498e-08 0)
(0.000999991 -4.00692e-08 0)
(0.000999987 -5.01588e-08 0)
(0.000999982 -6.19212e-08 0)
(0.000999977 -7.4012e-08 0)
(0.000999969 -8.9211e-08 0)
(0.000999962 -1.04236e-07 0)
(0.000999951 -1.25315e-07 0)
(0.000999941 -1.44529e-07 0)
(0.000999925 -1.75881e-07 0)
(0.000999913 -2.00224e-07 0)
(0.000999891 -2.48541e-07 0)
(0.000999878 -2.75648e-07 0)
(0.000999847 -3.51249e-07 0)
(0.000999839 -3.70531e-07 0)
(0.000999791 -4.94056e-07 0)
(0.001 -2.34067e-09 0)
(0.000999999 -7.25309e-09 0)
(0.000999998 -1.21828e-08 0)
(0.000999995 -1.74468e-08 0)
(0.000999992 -2.28649e-08 0)
(0.000999987 -2.89523e-08 0)
(0.000999982 -3.51026e-08 0)
(0.000999975 -4.25961e-08 0)
(0.000999968 -5.01798e-08 0)
(0.000999958 -6.06423e-08 0)
(0.000999948 -7.08399e-08 0)
(0.000999935 -8.6944e-08 0)
(0.000999922 -1.01175e-07 0)
(0.000999903 -1.27395e-07 0)
(0.000999887 -1.46783e-07 0)
(0.00099986 -1.89855e-07 0)
(0.000999842 -2.12215e-07 0)
(0.000999802 -2.82482e-07 0)
(0.000999787 -2.97982e-07 0)
(0.00099973 -4.16834e-07 0)
(0.001 -2.67498e-09 0)
(0.001 -8.88837e-09 0)
(0.000999999 -1.60133e-08 0)
(0.000999997 -2.42789e-08 0)
(0.000999994 -3.3334e-08 0)
(0.00099999 -4.33935e-08 0)
(0.000999985 -5.37195e-08 0)
(0.000999977 -6.53555e-08 0)
(0.000999969 -7.70677e-08 0)
(0.000999958 -9.14129e-08 0)
(0.000999946 -1.05213e-07 0)
(0.00099993 -1.24457e-07 0)
(0.000999915 -1.41301e-07 0)
(0.000999891 -1.69393e-07 0)
(0.000999872 -1.89988e-07 0)
(0.000999837 -2.33779e-07 0)
(0.000999817 -2.56424e-07 0)
(0.000999764 -3.27725e-07 0)
(0.000999752 -3.43889e-07 0)
(0.000999669 -4.65679e-07 0)
(0.001 2.62995e-11 0)
(0.000999998 1.63687e-10 0)
(0.000999995 6.69761e-10 0)
(0.000999991 1.06889e-09 0)
(0.000999987 1.31298e-09 0)
(0.00099998 9.49144e-10 0)
(0.000999974 3.32057e-10 0)
(0.000999965 -1.44393e-09 0)
(0.000999955 -3.19234e-09 0)
(0.000999942 -7.40425e-09 0)
(0.000999929 -1.09331e-08 0)
(0.000999911 -1.963e-08 0)
(0.000999894 -2.58572e-08 0)
(0.000999867 -4.28998e-08 0)
(0.000999845 -5.24756e-08 0)
(0.000999806 -8.45996e-08 0)
(0.00099978 -9.61905e-08 0)
(0.00099972 -1.55883e-07 0)
(0.000999698 -1.6321e-07 0)
(0.00099961 -2.77086e-07 0)
(0.001 -3.85811e-09 0)
(0.001 -1.29004e-08 0)
(0.001 -2.30491e-08 0)
(0.000999999 -3.38787e-08 0)
(0.000999996 -4.47484e-08 0)
(0.00099999 -5.57287e-08 0)
(0.000999983 -6.65714e-08 0)
(0.000999974 -7.81484e-08 0)
(0.000999963 -8.93804e-08 0)
(0.000999949 -1.02679e-07 0)
(0.000999935 -1.14946e-07 0)
(0.000999914 -1.3167e-07 0)
(0.000999896 -1.45436e-07 0)
(0.000999864 -1.68946e-07 0)
(0.000999841 -1.84347e-07 0)
(0.000999792 -2.20918e-07 0)
(0.000999767 -2.36327e-07 0)
(0.000999687 -2.98566e-07 0)
(0.000999671 -3.07953e-07 0)
(0.000999538 -4.23005e-07 0)
(0.001 4.02857e-09 0)
(0.000999996 1.22183e-08 0)
(0.000999992 2.03925e-08 0)
(0.000999988 2.81705e-08 0)
(0.000999983 3.5469e-08 0)
(0.000999976 4.17411e-08 0)
(0.000999969 4.79087e-08 0)
(0.000999959 5.30901e-08 0)
(0.000999948 5.8377e-08 0)
(0.000999933 6.22628e-08 0)
(0.000999918 6.69783e-08 0)
(0.000999897 6.86904e-08 0)
(0.000999877 7.28993e-08 0)
(0.000999845 7.01746e-08 0)
(0.00099982 7.43336e-08 0)
(0.000999768 6.19543e-08 0)
(0.000999738 6.71918e-08 0)
(0.000999654 3.16924e-08 0)
(0.000999629 3.94593e-08 0)
(0.000999495 -5.48412e-08 0)
(0.001 -8.73801e-09 0)
(0.001 -2.38095e-08 0)
(0.001 -3.61948e-08 0)
(0.000999998 -4.71327e-08 0)
(0.000999993 -5.74568e-08 0)
(0.000999987 -6.83146e-08 0)
(0.000999979 -7.87824e-08 0)
(0.000999968 -8.99431e-08 0)
(0.000999958 -1.00515e-07 0)
(0.000999941 -1.12165e-07 0)
(0.000999928 -1.22525e-07 0)
(0.000999903 -1.35733e-07 0)
(0.000999885 -1.4593e-07 0)
(0.000999846 -1.62837e-07 0)
(0.000999827 -1.71899e-07 0)
(0.00099976 -1.96415e-07 0)
(0.000999742 -2.01332e-07 0)
(0.000999623 -2.43731e-07 0)
(0.000999618 -2.40131e-07 0)
(0.000999393 -3.32315e-07 0)
)
;

boundaryField
{
    sides
    {
        type            slip;
    }
    inlet
    {
        type            fixedValue;
        value           uniform (0.001 0 0);
    }
    outlet
    {
        type            zeroGradient;
    }
    frontAndBack
    {
        type            empty;
    }
}


// ************************************************************************* //
