/*--------------------------------*- C++ -*----------------------------------*\
  =========                 |
  \\      /  F ield         | OpenFOAM: The Open Source CFD Toolbox
   \\    /   O peration     | Website:  https://openfoam.org
    \\  /    A nd           | Version:  7
     \\/     M anipulation  |
\*---------------------------------------------------------------------------*/
FoamFile
{
    version     2.0;
    format      ascii;
    class       surfaceScalarField;
    location    "51";
    object      phi_0;
}
// * * * * * * * * * * * * * * * * * * * * * * * * * * * * * * * * * * * * * //

dimensions      [0 4 -1 0 0 0 0];

internalField   nonuniform List<scalar> 
760
(
4.99999e-06
1.01636e-11
4.99999e-06
-4.02204e-12
5e-06
-1.25876e-11
5.00002e-06
-1.99122e-11
5.00005e-06
-2.7779e-11
5.00009e-06
-3.49684e-11
5.00013e-06
-4.06467e-11
5.00018e-06
-4.63103e-11
5.00025e-06
-6.32168e-11
5.00033e-06
-7.84165e-11
5.00042e-06
-8.95881e-11
5.00053e-06
-1.12821e-10
5.00066e-06
-1.25202e-10
5.00082e-06
-1.66075e-10
5.001e-06
-1.76698e-10
5.00126e-06
-2.56396e-10
5.00151e-06
-2.57123e-10
5.00195e-06
-4.33402e-10
5.00236e-06
-4.17125e-10
-8.93327e-10
5.00002e-06
-1.1314e-11
5.00003e-06
-1.81388e-11
5.00005e-06
-2.86573e-11
5.00007e-06
-4.19575e-11
5.0001e-06
-5.59093e-11
5.00013e-06
-7.17963e-11
5.00018e-06
-8.78346e-11
5.00023e-06
-1.07319e-10
5.00029e-06
-1.25728e-10
5.00037e-06
-1.53816e-10
5.00046e-06
-1.76033e-10
5.00056e-06
-2.19671e-10
5.00069e-06
-2.46651e-10
5.00084e-06
-3.20307e-10
5.00102e-06
-3.50869e-10
5.00124e-06
-4.84988e-10
5.0015e-06
-5.11072e-10
5.00184e-06
-7.71191e-10
5.00218e-06
-7.65867e-10
-1.26542e-09
4.99999e-06
-3.93394e-12
4.99999e-06
-1.95907e-11
5e-06
-3.72019e-11
5.00001e-06
-5.72233e-11
5.00004e-06
-7.85514e-11
5.00007e-06
-1.02793e-10
5.00011e-06
-1.26754e-10
5.00016e-06
-1.56508e-10
5.00022e-06
-1.85326e-10
5.00029e-06
-2.24807e-10
5.00037e-06
-2.60956e-10
5.00047e-06
-3.19674e-10
5.00059e-06
-3.66318e-10
5.00074e-06
-4.6166e-10
5.00091e-06
-5.21182e-10
5.00111e-06
-6.85262e-10
5.00135e-06
-7.5098e-10
5.00162e-06
-1.04646e-09
5.00195e-06
-1.09278e-09
-1.69496e-09
5.00001e-06
-1.14913e-11
5.00002e-06
-3.18957e-11
5.00003e-06
-5.35419e-11
5.00005e-06
-7.82078e-11
5.00008e-06
-1.04568e-10
5.00011e-06
-1.35192e-10
5.00015e-06
-1.65876e-10
5.0002e-06
-2.03367e-10
5.00025e-06
-2.40112e-10
5.00032e-06
-2.90245e-10
5.0004e-06
-3.36599e-10
5.00049e-06
-4.10449e-10
5.00059e-06
-4.70857e-10
5.00072e-06
-5.88659e-10
5.00086e-06
-6.66721e-10
5.00104e-06
-8.62947e-10
5.00124e-06
-9.50717e-10
5.00148e-06
-1.28672e-09
5.00173e-06
-1.34367e-09
-1.90505e-09
5e-06
-1.05649e-11
5e-06
-3.49158e-11
5.00001e-06
-6.12963e-11
5.00002e-06
-9.10903e-11
5.00004e-06
-1.23318e-10
5.00006e-06
-1.59938e-10
5.00009e-06
-1.98006e-10
5.00013e-06
-2.42777e-10
5.00018e-06
-2.88143e-10
5.00024e-06
-3.47457e-10
5.00031e-06
-4.0499e-10
5.00039e-06
-4.90344e-10
5.00048e-06
-5.65835e-10
5.00059e-06
-6.98528e-10
5.00072e-06
-7.96639e-10
5.00087e-06
-1.01019e-09
5.00104e-06
-1.12099e-09
5.00122e-06
-1.46941e-09
5.00143e-06
-1.54716e-09
-2.17109e-09
5e-06
-1.25654e-11
5.00001e-06
-4.1054e-11
5.00002e-06
-7.17012e-11
5.00003e-06
-1.05952e-10
5.00005e-06
-1.43036e-10
5.00008e-06
-1.84754e-10
5.00011e-06
-2.2822e-10
5.00014e-06
-2.78809e-10
5.00018e-06
-3.30437e-10
5.00023e-06
-3.97018e-10
5.00029e-06
-4.61994e-10
5.00036e-06
-5.5733e-10
5.00043e-06
-6.42948e-10
5.00053e-06
-7.89539e-10
5.00063e-06
-9.00581e-10
5.00075e-06
-1.13187e-09
5.00089e-06
-1.25681e-09
5.00104e-06
-1.62558e-09
5.00121e-06
-1.71452e-09
-2.30333e-09
5e-06
-1.43215e-11
5.00001e-06
-4.53121e-11
5.00001e-06
-7.88944e-11
5.00002e-06
-1.16251e-10
5.00004e-06
-1.56674e-10
5.00005e-06
-2.024e-10
5.00007e-06
-2.50189e-10
5.0001e-06
-3.05705e-10
5.00013e-06
-3.62936e-10
5.00017e-06
-4.35544e-10
5.00022e-06
-5.07723e-10
5.00027e-06
-6.10811e-10
5.00033e-06
-7.05447e-10
5.00041e-06
-8.61252e-10
5.00049e-06
-9.83231e-10
5.00058e-06
-1.22471e-09
5.00069e-06
-1.36119e-09
5.0008e-06
-1.73646e-09
5.00091e-06
-1.83037e-09
-2.45263e-09
5e-06
-1.53439e-11
5e-06
-4.81717e-11
5.00001e-06
-8.37238e-11
5.00002e-06
-1.23753e-10
5.00003e-06
-1.67115e-10
5.00004e-06
-2.16053e-10
5.00006e-06
-2.67247e-10
5.00008e-06
-3.26508e-10
5.0001e-06
-3.87533e-10
5.00013e-06
-4.64425e-10
5.00016e-06
-5.41231e-10
5.0002e-06
-6.49611e-10
5.00025e-06
-7.49921e-10
5.0003e-06
-9.12653e-10
5.00036e-06
-1.0417e-09
5.00042e-06
-1.29126e-09
5.0005e-06
-1.43488e-09
5.00058e-06
-1.81827e-09
5.00067e-06
-1.92039e-09
-2.52765e-09
5e-06
-1.58639e-11
5e-06
-4.98479e-11
5e-06
-8.68064e-11
5.00001e-06
-1.28578e-10
5.00002e-06
-1.73792e-10
5.00002e-06
-2.24514e-10
5.00003e-06
-2.77595e-10
5.00005e-06
-3.389e-10
5.00006e-06
-4.02138e-10
5.00008e-06
-4.81593e-10
5.0001e-06
-5.61269e-10
5.00012e-06
-6.72914e-10
5.00015e-06
-7.769e-10
5.00018e-06
-9.43721e-10
5.00022e-06
-1.07703e-09
5.00026e-06
-1.33097e-09
5.0003e-06
-1.47887e-09
5.00035e-06
-1.86565e-09
5.00039e-06
-1.96812e-09
-2.5839e-09
5e-06
-1.60363e-11
5e-06
-5.04165e-11
5e-06
-8.79245e-11
5e-06
-1.30257e-10
5.00001e-06
-1.76021e-10
5.00001e-06
-2.27256e-10
5.00001e-06
-2.80948e-10
5.00002e-06
-3.42947e-10
5.00002e-06
-4.07073e-10
5.00003e-06
-4.87472e-10
5.00003e-06
-5.68119e-10
5.00004e-06
-6.80774e-10
5.00005e-06
-7.85834e-10
5.00006e-06
-9.53806e-10
5.00007e-06
-1.08853e-09
5.00008e-06
-1.34394e-09
5.0001e-06
-1.49344e-09
5.00011e-06
-1.88125e-09
5.00013e-06
-1.98595e-09
-2.60042e-09
5e-06
-1.58871e-11
5e-06
-4.98413e-11
5e-06
-8.68586e-11
5e-06
-1.28579e-10
4.99999e-06
-1.7377e-10
4.99999e-06
-2.24462e-10
4.99999e-06
-2.77589e-10
4.99998e-06
-3.38847e-10
4.99998e-06
-4.02125e-10
4.99997e-06
-4.81545e-10
4.99997e-06
-5.61151e-10
4.99996e-06
-6.72853e-10
4.99995e-06
-7.76899e-10
4.99994e-06
-9.43714e-10
4.99993e-06
-1.07708e-09
4.99992e-06
-1.33104e-09
4.9999e-06
-1.47891e-09
4.99989e-06
-1.8656e-09
4.99987e-06
-1.96808e-09
-2.58377e-09
5e-06
-1.53637e-11
5e-06
-4.81765e-11
5e-06
-8.37885e-11
4.99999e-06
-1.23713e-10
4.99998e-06
-1.67098e-10
4.99998e-06
-2.15976e-10
4.99997e-06
-2.67262e-10
4.99995e-06
-3.26475e-10
4.99994e-06
-3.87534e-10
4.99992e-06
-4.64452e-10
4.9999e-06
-5.41146e-10
4.99988e-06
-6.49493e-10
4.99985e-06
-7.49878e-10
4.99982e-06
-9.12635e-10
4.99978e-06
-1.04172e-09
4.99974e-06
-1.29127e-09
4.9997e-06
-1.43488e-09
4.99965e-06
-1.81816e-09
4.99961e-06
-1.92029e-09
-2.52745e-09
5e-06
-1.4329e-11
5e-06
-4.53463e-11
4.99999e-06
-7.88852e-11
4.99998e-06
-1.16235e-10
4.99997e-06
-1.56663e-10
4.99996e-06
-2.02349e-10
4.99994e-06
-2.50171e-10
4.99992e-06
-3.05745e-10
4.9999e-06
-3.62893e-10
4.99987e-06
-4.35623e-10
4.99984e-06
-5.07823e-10
4.9998e-06
-6.1076e-10
4.99975e-06
-7.05367e-10
4.9997e-06
-8.61162e-10
4.99964e-06
-9.83159e-10
4.99958e-06
-1.22459e-09
4.9995e-06
-1.36114e-09
4.99942e-06
-1.73632e-09
4.99933e-06
-1.83025e-09
-2.45228e-09
5e-06
-1.25684e-11
4.99999e-06
-4.10713e-11
4.99999e-06
-7.16598e-11
4.99998e-06
-1.05993e-10
4.99996e-06
-1.42928e-10
4.99995e-06
-1.84831e-10
4.99993e-06
-2.28124e-10
4.9999e-06
-2.78901e-10
4.99987e-06
-3.30387e-10
4.99983e-06
-3.96928e-10
4.99978e-06
-4.6209e-10
4.99973e-06
-5.57402e-10
4.99967e-06
-6.42925e-10
4.99959e-06
-7.894e-10
4.99951e-06
-9.00429e-10
4.99942e-06
-1.13165e-09
4.99931e-06
-1.25667e-09
4.9992e-06
-1.62534e-09
4.99909e-06
-1.71432e-09
-2.30291e-09
5e-06
-1.0558e-11
4.99999e-06
-3.49196e-11
4.99998e-06
-6.12638e-11
4.99997e-06
-9.10545e-11
4.99995e-06
-1.23366e-10
4.99992e-06
-1.60141e-10
4.99989e-06
-1.98003e-10
4.99986e-06
-2.42763e-10
4.99982e-06
-2.88261e-10
4.99977e-06
-3.47341e-10
4.99971e-06
-4.04928e-10
4.99964e-06
-4.90393e-10
4.99957e-06
-5.65894e-10
4.99947e-06
-6.98456e-10
4.99937e-06
-7.96547e-10
4.99925e-06
-1.00999e-09
4.99911e-06
-1.12085e-09
4.99896e-06
-1.46913e-09
4.99879e-06
-1.54697e-09
-2.17062e-09
5e-06
-1.14424e-11
5e-06
-3.18496e-11
4.99999e-06
-5.34807e-11
4.99998e-06
-7.81887e-11
4.99996e-06
-1.04856e-10
4.99994e-06
-1.35141e-10
4.99991e-06
-1.66131e-10
4.99987e-06
-2.03181e-10
4.99982e-06
-2.40137e-10
4.99976e-06
-2.90212e-10
4.99969e-06
-3.36459e-10
4.99961e-06
-4.1037e-10
4.99952e-06
-4.7089e-10
4.99941e-06
-5.88636e-10
4.99928e-06
-6.66707e-10
4.99913e-06
-8.62784e-10
4.99896e-06
-9.50595e-10
4.99878e-06
-1.2864e-09
4.99857e-06
-1.34343e-09
-1.90451e-09
4.99999e-06
-3.89126e-12
4.99998e-06
-1.95556e-11
4.99997e-06
-3.72042e-11
4.99995e-06
-5.73521e-11
4.99992e-06
-7.87191e-11
4.99989e-06
-1.02498e-10
4.99985e-06
-1.27229e-10
4.9998e-06
-1.56647e-10
4.99975e-06
-1.85331e-10
4.99968e-06
-2.2486e-10
4.9996e-06
-2.60926e-10
4.99951e-06
-3.196e-10
4.99941e-06
-3.66355e-10
4.99928e-06
-4.61709e-10
4.99914e-06
-5.21287e-10
4.99896e-06
-6.85225e-10
4.99876e-06
-7.51001e-10
4.99852e-06
-1.04626e-09
4.99827e-06
-1.09268e-09
-1.69456e-09
5.00001e-06
-1.13743e-11
5.00001e-06
-1.8175e-11
5e-06
-2.88394e-11
4.99999e-06
-4.21006e-11
4.99996e-06
-5.55682e-11
4.99993e-06
-7.13657e-11
4.99989e-06
-8.70788e-11
4.99984e-06
-1.07307e-10
4.99978e-06
-1.25683e-10
4.99971e-06
-1.53887e-10
4.99963e-06
-1.76109e-10
4.99953e-06
-2.19604e-10
4.99941e-06
-2.46612e-10
4.99926e-06
-3.20255e-10
4.99909e-06
-3.50945e-10
4.99889e-06
-4.84928e-10
4.99865e-06
-5.11135e-10
4.99838e-06
-7.70977e-10
4.99805e-06
-7.65773e-10
-1.26494e-09
4.99998e-06
1.01132e-11
4.99997e-06
-4.11615e-12
4.99995e-06
-1.28665e-11
4.99993e-06
-1.97403e-11
4.9999e-06
-2.71172e-11
4.99986e-06
-2.98273e-11
4.99982e-06
-4.52822e-11
4.99977e-06
-4.59755e-11
4.99971e-06
-6.32127e-11
4.99963e-06
-7.86088e-11
4.99954e-06
-8.98008e-11
4.99944e-06
-1.12879e-10
4.99931e-06
-1.25209e-10
4.99916e-06
-1.66092e-10
4.99899e-06
-1.76819e-10
4.99876e-06
-2.56492e-10
4.9985e-06
-2.57275e-10
4.99817e-06
-4.3345e-10
4.99782e-06
-4.17212e-10
-8.93327e-10
5.00001e-06
5.00001e-06
5e-06
4.99998e-06
4.99995e-06
4.99992e-06
4.99987e-06
4.99982e-06
4.99975e-06
4.99967e-06
4.99958e-06
4.99947e-06
4.99934e-06
4.99918e-06
4.999e-06
4.99874e-06
4.99849e-06
4.99805e-06
4.99764e-06
)
;

boundaryField
{
    sides
    {
        type            calculated;
        value           uniform 0;
    }
    inlet
    {
        type            calculated;
        value           nonuniform List<scalar> 
20
(
-5e-06
-5e-06
-5e-06
-5e-06
-5e-06
-5e-06
-5e-06
-5e-06
-5e-06
-5e-06
-5e-06
-5e-06
-5e-06
-5e-06
-5e-06
-5e-06
-5e-06
-5e-06
-5e-06
-5e-06
)
;
    }
    outlet
    {
        type            calculated;
        value           nonuniform List<scalar> 
20
(
5.00326e-06
5.00256e-06
5.00238e-06
5.00194e-06
5.00169e-06
5.00134e-06
5.00106e-06
5.00074e-06
5.00045e-06
5.00015e-06
4.99985e-06
4.99955e-06
4.99926e-06
4.99894e-06
4.99866e-06
4.99831e-06
4.99806e-06
4.99762e-06
4.99745e-06
4.99674e-06
)
;
    }
    frontAndBack
    {
        type            empty;
        value           nonuniform 0();
    }
}


// ************************************************************************* //
