/*--------------------------------*- C++ -*----------------------------------*\
  =========                 |
  \\      /  F ield         | OpenFOAM: The Open Source CFD Toolbox
   \\    /   O peration     | Website:  https://openfoam.org
    \\  /    A nd           | Version:  7
     \\/     M anipulation  |
\*---------------------------------------------------------------------------*/
FoamFile
{
    version     2.0;
    format      ascii;
    class       volVectorField;
    location    "71";
    object      ddt0(hU);
}
// * * * * * * * * * * * * * * * * * * * * * * * * * * * * * * * * * * * * * //

dimensions      [0 2 -2 0 0 0 0];

internalField   nonuniform List<vector> 
400
(
(1.29373e-10 3.84203e-11 0)
(-3.27849e-11 -4.44203e-12 0)
(4.21696e-11 -5.12622e-11 0)
(-2.49372e-12 -1.885e-10 0)
(-8.43366e-11 1.3325e-11 0)
(-1.23307e-09 8.37903e-10 0)
(1.82519e-09 5.41492e-10 0)
(-5.66435e-09 -2.47739e-09 0)
(-9.19243e-10 9.22911e-10 0)
(7.21314e-10 -9.66066e-12 0)
(-3.06401e-10 -1.56529e-10 0)
(-3.86665e-10 -9.0931e-11 0)
(-1.97506e-10 -6.56252e-11 0)
(2.84038e-11 -8.69349e-11 0)
(8.60385e-11 -1.17111e-10 0)
(1.03265e-11 -1.05321e-10 0)
(-5.65237e-11 -1.28139e-11 0)
(-2.67262e-11 5.98811e-11 0)
(2.14085e-11 1.43388e-10 0)
(-1.13812e-10 1.03071e-10 0)
(-1.12222e-11 1.06457e-10 0)
(-3.73279e-11 1.23747e-11 0)
(-6.05812e-11 -1.19784e-10 0)
(1.97289e-10 -1.46642e-10 0)
(1.72757e-10 -2.42591e-10 0)
(1.65185e-09 8.06128e-10 0)
(-9.99994e-10 -3.67321e-10 0)
(4.50626e-09 -1.08906e-09 0)
(1.79647e-09 7.02261e-10 0)
(-6.49439e-10 -2.65735e-10 0)
(-2.89423e-10 -2.59175e-10 0)
(-1.30281e-10 -7.77171e-11 0)
(-1.0169e-10 2.01356e-11 0)
(-4.45814e-11 6.72488e-12 0)
(-2.78708e-11 -8.57392e-11 0)
(-1.98272e-11 -1.59986e-10 0)
(1.365e-11 -1.11852e-10 0)
(5.73061e-11 -1.81227e-11 0)
(6.51286e-11 6.56302e-11 0)
(-9.79564e-11 7.44289e-11 0)
(-2.01238e-10 -2.35774e-11 0)
(-7.63882e-11 -6.99163e-11 0)
(3.50444e-11 -1.00986e-10 0)
(2.55545e-10 1.33394e-10 0)
(1.70012e-10 -2.08975e-10 0)
(3.15354e-10 4.07195e-11 0)
(-9.8908e-10 -7.21721e-10 0)
(1.23416e-09 1.65383e-09 0)
(-5.03535e-10 -2.41178e-10 0)
(-6.1593e-10 -1.29842e-10 0)
(-1.95013e-11 7.10793e-12 0)
(4.04185e-11 -1.91448e-11 0)
(-2.08127e-11 -9.6382e-11 0)
(-5.75236e-11 -1.73352e-10 0)
(-1.06926e-10 -2.32177e-10 0)
(-3.11308e-11 -2.26251e-10 0)
(1.0267e-10 -6.84643e-11 0)
(1.56218e-10 5.61758e-11 0)
(9.88332e-11 2.23078e-10 0)
(-1.34804e-10 2.02503e-10 0)
(-9.65511e-11 -1.6248e-10 0)
(-1.35175e-11 -9.49635e-11 0)
(1.27237e-10 -5.80291e-12 0)
(1.32433e-10 8.51982e-11 0)
(2.6123e-10 8.45559e-11 0)
(-1.32365e-10 -2.33863e-10 0)
(9.17484e-11 2.56056e-10 0)
(3.78801e-10 1.00526e-10 0)
(-5.01613e-10 -2.70841e-10 0)
(-1.47611e-10 1.44373e-10 0)
(1.17369e-10 1.96291e-10 0)
(-1.77177e-11 1.07132e-11 0)
(-1.06157e-10 -1.55455e-10 0)
(-1.50688e-10 -2.88318e-10 0)
(-1.65619e-10 -3.20079e-10 0)
(-3.92712e-11 -2.29269e-10 0)
(1.33914e-10 -1.44547e-11 0)
(1.77128e-10 7.80237e-11 0)
(8.88007e-11 2.5189e-10 0)
(-1.08766e-10 2.51347e-10 0)
(2.31727e-11 -6.98318e-11 0)
(1.04078e-10 -7.16804e-11 0)
(1.97661e-10 -3.24332e-11 0)
(1.22319e-12 -1.23023e-10 0)
(1.1651e-10 1.52774e-10 0)
(-2.48758e-10 -2.99913e-10 0)
(2.70556e-10 3.64609e-10 0)
(-1.03179e-10 -3.92303e-11 0)
(-2.46463e-10 2.24762e-11 0)
(3.17513e-10 3.34207e-10 0)
(1.13407e-10 1.44769e-10 0)
(-8.06636e-11 -7.67764e-11 0)
(-1.04297e-10 -2.12603e-10 0)
(-1.58107e-10 -3.35526e-10 0)
(-1.23388e-10 -3.34245e-10 0)
(2.26549e-11 -1.9496e-10 0)
(1.11737e-10 2.99807e-11 0)
(8.53012e-11 7.79153e-11 0)
(-9.1291e-12 2.34228e-10 0)
(-1.41496e-10 2.59458e-10 0)
(4.37017e-11 1.71545e-11 0)
(7.29935e-11 -1.24726e-10 0)
(1.35042e-10 -1.44892e-10 0)
(4.25413e-11 -2.68426e-10 0)
(5.40126e-11 -1.34395e-11 0)
(-4.97909e-11 -5.35028e-12 0)
(2.43304e-10 3.27377e-10 0)
(-2.18225e-10 1.38676e-10 0)
(1.88858e-10 4.79342e-10 0)
(1.72258e-10 3.66917e-10 0)
(-2.68382e-10 1.13938e-11 0)
(-2.02216e-10 -1.46494e-10 0)
(-1.30843e-10 -3.24775e-10 0)
(-1.48409e-10 -4.54069e-10 0)
(5.21318e-13 -3.98351e-10 0)
(1.84657e-10 -2.23185e-10 0)
(1.43206e-10 6.40855e-11 0)
(-3.76684e-12 1.4732e-10 0)
(-8.74251e-11 3.59277e-10 0)
(-1.44773e-10 3.52571e-10 0)
(2.72474e-11 8.44977e-12 0)
(2.54331e-11 -1.2381e-10 0)
(-3.07206e-12 -2.36914e-10 0)
(4.09327e-11 -2.32367e-10 0)
(-4.59251e-11 -2.8391e-10 0)
(1.13223e-10 1.91094e-11 0)
(4.9238e-11 4.7705e-11 0)
(2.19446e-11 1.48108e-10 0)
(2.07134e-10 3.51219e-10 0)
(-1.82397e-10 5.06101e-11 0)
(-2.1462e-10 -4.18814e-11 0)
(-3.02604e-11 -8.24076e-11 0)
(-6.85089e-11 -3.24285e-10 0)
(-8.00965e-11 -4.427e-10 0)
(5.89344e-11 -3.66195e-10 0)
(1.43799e-10 -2.80844e-10 0)
(8.88692e-12 -5.52751e-11 0)
(-1.82277e-10 8.42748e-11 0)
(-1.8864e-10 3.58858e-10 0)
(-7.14182e-11 3.77941e-10 0)
(-1.44054e-11 -6.90946e-11 0)
(-9.17137e-12 -1.32856e-10 0)
(-7.3478e-11 -2.67368e-10 0)
(4.58898e-11 -1.63013e-10 0)
(-2.79807e-13 -2.17548e-10 0)
(1.8977e-10 2.81737e-11 0)
(-2.90143e-12 9.69398e-12 0)
(1.37306e-10 2.04056e-10 0)
(-4.64937e-11 1.52252e-10 0)
(-2.57313e-10 4.55349e-11 0)
(-1.86219e-11 5.42596e-11 0)
(-8.83519e-11 -1.23379e-10 0)
(-1.6625e-10 -3.99365e-10 0)
(4.11214e-11 -4.95495e-10 0)
(1.71959e-10 -4.49371e-10 0)
(1.40984e-10 -4.19293e-10 0)
(2.04878e-11 -1.75585e-10 0)
(-1.00963e-10 6.31428e-11 0)
(-1.13902e-10 4.82623e-10 0)
(-5.97448e-11 4.7964e-10 0)
(-1.05241e-11 -1.17246e-10 0)
(-4.40661e-12 -1.99619e-10 0)
(-3.87757e-11 -1.8729e-10 0)
(2.1695e-11 -1.79519e-10 0)
(5.2753e-11 -7.51306e-11 0)
(1.00719e-10 -2.50779e-11 0)
(2.68738e-12 2.32973e-11 0)
(7.08033e-11 1.37487e-10 0)
(-9.29984e-11 4.43385e-11 0)
(-5.33133e-11 1.81293e-10 0)
(4.37645e-11 8.71285e-11 0)
(-1.22797e-10 -1.5156e-10 0)
(-1.00197e-10 -2.61251e-10 0)
(9.39465e-11 -3.81559e-10 0)
(8.75872e-11 -5.03889e-10 0)
(-3.15693e-11 -5.34246e-10 0)
(-4.54661e-11 -2.58724e-10 0)
(8.40769e-12 1.37301e-11 0)
(4.30387e-11 4.69243e-10 0)
(2.01191e-11 4.96868e-10 0)
(-1.71462e-11 -9.47976e-11 0)
(-1.65943e-11 -2.34085e-10 0)
(4.51505e-11 -1.76787e-10 0)
(1.11021e-11 -2.04854e-10 0)
(6.35561e-11 -6.84837e-11 0)
(-2.78635e-11 -3.7533e-11 0)
(3.36876e-11 7.27451e-11 0)
(-4.02233e-11 1.52314e-10 0)
(1.10545e-11 1.15955e-10 0)
(8.46357e-11 2.24021e-10 0)
(-4.54927e-11 4.72971e-11 0)
(3.10906e-12 -1.67339e-10 0)
(2.35361e-11 -2.42501e-10 0)
(-1.05565e-10 -3.85306e-10 0)
(-1.51896e-10 -5.15458e-10 0)
(-8.28475e-11 -4.89567e-10 0)
(2.98746e-11 -1.65784e-10 0)
(1.49739e-10 7.31121e-11 0)
(2.06884e-10 4.79962e-10 0)
(8.72848e-11 4.90226e-10 0)
(-1.13261e-11 -7.24779e-11 0)
(-3.35662e-11 -1.52593e-10 0)
(5.70638e-11 -2.52472e-10 0)
(-8.58255e-12 -2.12036e-10 0)
(4.94403e-11 -1.77162e-10 0)
(-8.13482e-11 -3.13024e-11 0)
(2.55067e-11 6.4432e-11 0)
(-9.23004e-11 1.64767e-10 0)
(2.43777e-11 2.1048e-10 0)
(1.21446e-10 1.3131e-10 0)
(-4.54139e-11 3.84675e-11 0)
(9.86931e-11 -1.34833e-10 0)
(1.25199e-10 -3.87766e-10 0)
(-1.18772e-10 -4.89427e-10 0)
(-1.97402e-10 -4.1159e-10 0)
(-1.18266e-10 -3.02344e-10 0)
(-1.48786e-11 -2.79818e-11 0)
(9.78046e-11 1.19956e-10 0)
(1.64301e-10 4.58241e-10 0)
(1.02026e-10 4.63979e-10 0)
(2.0057e-11 -5.65974e-11 0)
(-2.84169e-11 -1.31401e-10 0)
(-3.05827e-11 -2.55224e-10 0)
(-4.65762e-11 -1.93416e-10 0)
(2.29557e-12 -2.13687e-10 0)
(-4.07225e-11 -3.21183e-11 0)
(-3.56206e-11 6.76045e-11 0)
(-1.39337e-11 1.37923e-10 0)
(-5.93594e-11 2.82483e-10 0)
(9.04483e-11 7.84749e-11 0)
(8.31871e-11 1.15756e-12 0)
(4.10685e-12 -1.02073e-10 0)
(6.52001e-11 -4.31786e-10 0)
(1.05338e-10 -5.56599e-10 0)
(3.39491e-12 -4.02824e-10 0)
(-1.23504e-10 -2.26874e-10 0)
(-1.12508e-10 5.55e-11 0)
(5.089e-13 1.54057e-10 0)
(8.09586e-11 4.21863e-10 0)
(7.68924e-11 4.28861e-10 0)
(1.82307e-11 -8.5851e-11 0)
(-1.91365e-11 -1.87992e-10 0)
(-1.06704e-10 -1.42653e-10 0)
(-4.05531e-11 -1.9826e-10 0)
(-7.85654e-11 -8.55754e-11 0)
(3.63491e-11 -5.4216e-11 0)
(-1.29851e-10 1.56526e-10 0)
(7.12418e-11 1.35126e-10 0)
(-9.80628e-11 3.21072e-10 0)
(-7.81423e-11 2.19722e-10 0)
(2.00351e-10 -3.35955e-11 0)
(6.55255e-11 -1.72139e-10 0)
(2.47758e-11 -3.84201e-10 0)
(1.97197e-10 -5.66376e-10 0)
(1.73795e-10 -5.36484e-10 0)
(-2.54675e-11 -3.23724e-10 0)
(-1.53822e-10 6.18434e-11 0)
(-1.84019e-10 1.99743e-10 0)
(-1.35891e-10 4.54797e-10 0)
(4.20388e-11 4.28315e-10 0)
(4.44352e-11 -1.38551e-10 0)
(2.36051e-11 -1.80234e-10 0)
(-9.88044e-11 -9.36076e-11 0)
(-3.93932e-11 -1.71714e-10 0)
(-1.48193e-10 1.99796e-11 0)
(7.78247e-11 -1.74398e-10 0)
(-1.05342e-10 9.87411e-11 0)
(6.07567e-11 4.76281e-11 0)
(9.78266e-11 8.60553e-11 0)
(-2.34699e-10 3.07442e-10 0)
(-3.92837e-11 9.89921e-11 0)
(9.08195e-11 -1.24273e-10 0)
(4.98513e-11 -2.44494e-10 0)
(1.20441e-10 -4.31787e-10 0)
(2.15572e-10 -5.36339e-10 0)
(1.81217e-10 -4.23907e-10 0)
(-4.44523e-12 -7.59896e-11 0)
(-1.85054e-10 1.11293e-10 0)
(-2.04402e-10 4.07853e-10 0)
(-1.88565e-12 4.09211e-10 0)
(6.68256e-11 -1.20056e-10 0)
(7.90658e-11 -1.39756e-10 0)
(-2.26543e-11 -1.52915e-10 0)
(-1.12088e-10 -5.27288e-11 0)
(-1.91572e-10 -4.20114e-11 0)
(-8.74425e-11 -3.2083e-11 0)
(1.61332e-11 8.53861e-11 0)
(-1.93187e-10 3.22455e-10 0)
(3.71774e-10 -1.72902e-12 0)
(1.5336e-10 1.98449e-10 0)
(-8.95027e-11 2.06739e-10 0)
(7.2401e-11 -3.33221e-11 0)
(8.53281e-11 -2.2453e-10 0)
(2.12729e-12 -3.94199e-10 0)
(8.05892e-11 -4.98177e-10 0)
(1.30182e-10 -4.57806e-10 0)
(9.0147e-12 -1.4908e-10 0)
(-1.44562e-10 1.02178e-10 0)
(-1.66252e-10 4.71277e-10 0)
(3.15941e-11 4.36279e-10 0)
(5.08412e-11 3.88521e-11 0)
(9.75496e-11 -5.86227e-11 0)
(6.20104e-11 -2.0114e-10 0)
(-1.49659e-10 -7.37543e-11 0)
(-4.77418e-11 -3.15916e-10 0)
(-2.71383e-10 2.44912e-10 0)
(2.83088e-10 -1.98734e-10 0)
(-3.6953e-10 3.3374e-10 0)
(-3.95558e-11 1.24012e-10 0)
(4.24304e-10 -9.56094e-11 0)
(4.92772e-11 4.84797e-11 0)
(-3.53131e-11 3.03052e-11 0)
(-1.49701e-11 -9.82115e-11 0)
(-8.22154e-11 -2.03601e-10 0)
(-1.16982e-11 -2.84423e-10 0)
(1.06018e-10 -3.48748e-10 0)
(1.2625e-10 -1.9323e-10 0)
(5.95105e-11 1.302e-11 0)
(-2.98771e-11 3.12175e-10 0)
(2.20385e-11 3.16753e-10 0)
(-5.72079e-11 1.50704e-10 0)
(3.13601e-12 -2.58961e-11 0)
(2.5732e-11 -2.4404e-10 0)
(-1.73427e-10 -2.15611e-10 0)
(7.28213e-11 -2.46363e-10 0)
(-4.03548e-10 5.71581e-10 0)
(1.25867e-10 -3.13199e-10 0)
(2.1726e-10 2.52593e-10 0)
(-4.18029e-10 3.59214e-10 0)
(2.12116e-10 -3.37459e-12 0)
(3.79151e-10 -4.0386e-11 0)
(1.82541e-10 -1.89958e-11 0)
(6.82832e-11 -1.0977e-10 0)
(-6.35565e-11 -1.6891e-10 0)
(-1.18566e-10 -1.88048e-10 0)
(-5.52035e-11 -2.26758e-10 0)
(6.09528e-11 -1.22719e-10 0)
(1.01003e-10 5.5127e-12 0)
(2.6875e-11 2.44415e-10 0)
(4.50355e-11 2.58558e-10 0)
(-1.45992e-10 5.69694e-13 0)
(-9.41392e-11 -2.66188e-11 0)
(-7.00567e-11 -1.27425e-11 0)
(-4.59897e-11 -2.14649e-10 0)
(1.72645e-10 1.20458e-10 0)
(-2.2592e-10 5.50744e-10 0)
(-4.65287e-10 -7.80457e-10 0)
(6.14997e-10 2.42852e-10 0)
(-4.48465e-10 3.38468e-10 0)
(1.88533e-11 2.08597e-10 0)
(3.85051e-10 -2.85321e-11 0)
(2.58784e-10 -1.47585e-10 0)
(9.9504e-11 -2.33202e-10 0)
(-5.85319e-11 -2.19187e-10 0)
(-1.70936e-10 -1.27103e-10 0)
(-1.74512e-10 -7.2857e-11 0)
(-3.91814e-11 -1.29035e-11 0)
(6.95434e-11 2.97795e-12 0)
(6.88763e-11 1.50117e-10 0)
(1.35655e-10 1.74891e-10 0)
(8.86688e-12 -1.14802e-10 0)
(1.01414e-12 -9.50059e-11 0)
(-1.8746e-10 1.11824e-10 0)
(-8.07898e-11 1.65017e-10 0)
(2.85708e-10 4.34366e-10 0)
(-1.90622e-09 -1.58464e-09 0)
(-1.41219e-09 1.95162e-09 0)
(-1.1133e-09 -8.16297e-10 0)
(-4.36852e-10 -2.12168e-10 0)
(-1.7295e-10 1.50058e-10 0)
(1.0589e-10 -8.41371e-11 0)
(1.70682e-10 -2.22859e-10 0)
(1.70425e-10 -2.3156e-10 0)
(1.35998e-10 -1.27146e-10 0)
(2.3782e-11 2.46355e-11 0)
(-1.05518e-10 8.13156e-11 0)
(-1.11025e-10 3.40999e-11 0)
(-2.0389e-11 -5.10394e-11 0)
(4.25606e-11 -3.51309e-11 0)
(1.30965e-10 3.10951e-11 0)
(1.32926e-10 -4.77823e-11 0)
(-4.13604e-11 -9.95767e-11 0)
(-3.50818e-11 -1.18073e-11 0)
(-4.9388e-11 2.47581e-10 0)
(-8.77259e-10 3.27901e-10 0)
(2.22337e-09 -1.70484e-09 0)
(1.17337e-09 2.7143e-09 0)
(4.94771e-10 -7.87542e-10 0)
(1.11324e-09 -2.33431e-10 0)
(7.58562e-11 1.08839e-10 0)
(-1.40568e-10 -4.22279e-11 0)
(1.07464e-10 -1.54775e-10 0)
(2.99179e-10 -1.87941e-10 0)
(3.43426e-10 -1.38258e-10 0)
(1.72011e-10 -4.36044e-11 0)
(-1.13326e-10 2.24748e-11 0)
(-2.23007e-10 6.05145e-11 0)
(-1.15623e-10 4.29237e-11 0)
(2.75215e-11 9.03427e-11 0)
(1.80152e-10 7.98851e-11 0)
)
;

boundaryField
{
    sides
    {
        type            calculated;
        value           nonuniform List<vector> 
40
(
(1.32926e-10 0 0)
(-4.13604e-11 0 0)
(-3.50818e-11 0 0)
(-4.9388e-11 0 0)
(-8.77259e-10 0 0)
(2.22337e-09 0 0)
(1.17337e-09 0 0)
(4.94771e-10 0 0)
(1.11324e-09 0 0)
(7.58562e-11 0 0)
(-1.40568e-10 0 0)
(1.07464e-10 0 0)
(2.99179e-10 0 0)
(3.43426e-10 0 0)
(1.72011e-10 0 0)
(-1.13326e-10 0 0)
(-2.23007e-10 0 0)
(-1.15623e-10 0 0)
(2.75215e-11 0 0)
(1.80152e-10 0 0)
(1.29373e-10 0 0)
(-3.27849e-11 0 0)
(4.21696e-11 0 0)
(-2.49372e-12 0 0)
(-8.43366e-11 0 0)
(-1.23307e-09 0 0)
(1.82519e-09 0 0)
(-5.66435e-09 0 0)
(-9.19243e-10 0 0)
(7.21314e-10 0 0)
(-3.06401e-10 0 0)
(-3.86665e-10 0 0)
(-1.97506e-10 0 0)
(2.84038e-11 0 0)
(8.60385e-11 0 0)
(1.03265e-11 0 0)
(-5.65237e-11 0 0)
(-2.67262e-11 0 0)
(2.14085e-11 0 0)
(-1.13812e-10 0 0)
)
;
    }
    inlet
    {
        type            calculated;
        value           uniform (0 0 0);
    }
    outlet
    {
        type            calculated;
        value           nonuniform List<vector> 
20
(
(-1.13812e-10 1.03071e-10 0)
(-9.79564e-11 7.44289e-11 0)
(-1.34804e-10 2.02503e-10 0)
(-1.08766e-10 2.51347e-10 0)
(-1.41496e-10 2.59458e-10 0)
(-1.44773e-10 3.52571e-10 0)
(-7.14182e-11 3.77941e-10 0)
(-5.97448e-11 4.7964e-10 0)
(2.01191e-11 4.96868e-10 0)
(8.72848e-11 4.90226e-10 0)
(1.02026e-10 4.63979e-10 0)
(7.68924e-11 4.28861e-10 0)
(4.20388e-11 4.28315e-10 0)
(-1.88565e-12 4.09211e-10 0)
(3.15941e-11 4.36279e-10 0)
(2.20385e-11 3.16753e-10 0)
(4.50355e-11 2.58558e-10 0)
(1.35655e-10 1.74891e-10 0)
(1.30965e-10 3.10951e-11 0)
(1.80152e-10 7.98851e-11 0)
)
;
    }
    frontAndBack
    {
        type            empty;
    }
}


// ************************************************************************* //
