/*--------------------------------*- C++ -*----------------------------------*\
  =========                 |
  \\      /  F ield         | OpenFOAM: The Open Source CFD Toolbox
   \\    /   O peration     | Website:  https://openfoam.org
    \\  /    A nd           | Version:  7
     \\/     M anipulation  |
\*---------------------------------------------------------------------------*/
FoamFile
{
    version     2.0;
    format      ascii;
    class       volScalarField;
    location    "71";
    object      ddt0(h);
}
// * * * * * * * * * * * * * * * * * * * * * * * * * * * * * * * * * * * * * //

dimensions      [0 1 -1 0 0 0 0];

internalField   nonuniform List<scalar> 
400
(
5.77376e-10
-1.20279e-09
-1.74685e-09
-2.74372e-09
3.34327e-09
-1.33787e-08
-5.53421e-10
-5.28165e-08
1.06344e-09
1.06269e-09
-8.66892e-10
-9.65334e-10
-4.46105e-10
1.08158e-10
2.55983e-10
-6.92044e-11
-3.97978e-10
-3.02209e-10
2.09713e-11
7.29851e-11
-7.50439e-10
-9.23791e-10
-6.24889e-10
-7.36098e-10
-3.64455e-09
1.04457e-08
4.33631e-09
4.62596e-08
1.99887e-09
-1.78842e-09
-8.52929e-10
-2.46594e-10
-1.19795e-10
-3.51327e-11
-3.32453e-11
-1.29395e-10
-1.81821e-10
-3.1066e-11
2.57852e-10
2.01306e-10
-2.16728e-09
-4.91038e-10
-4.01479e-10
1.1463e-09
-3.31395e-09
3.0337e-09
-9.29347e-09
5.87759e-09
-3.4133e-09
-2.00444e-09
-4.21463e-11
2.10183e-10
5.47563e-11
-1.19976e-10
-3.29758e-10
-2.78576e-10
5.78466e-12
2.71711e-10
4.53657e-10
2.62495e-10
-1.48866e-09
-6.65237e-10
-6.54228e-10
2.92813e-10
-7.23699e-10
-1.40071e-09
6.75402e-10
-2.46429e-10
-2.48008e-09
-3.40813e-10
6.42551e-10
2.37319e-10
-5.22777e-11
-2.52087e-10
-4.00692e-10
-2.06144e-10
2.29878e-10
4.50127e-10
3.41281e-10
1.11059e-10
-7.9956e-10
-7.46729e-10
-3.96229e-10
-1.26465e-09
8.48711e-10
-2.51888e-09
1.23712e-09
-1.26356e-09
-1.19486e-09
1.22869e-09
3.78937e-10
-1.5439e-10
-1.68908e-10
-3.5862e-10
-3.19497e-10
2.23185e-11
3.70204e-10
3.09718e-10
-1.33712e-10
-2.05717e-10
-2.54634e-10
-6.81358e-10
-2.74208e-10
-1.70823e-09
5.95689e-11
-1.0385e-09
6.75064e-10
-1.57197e-09
9.82658e-10
8.18115e-10
-7.289e-10
-3.27195e-10
-4.81812e-11
-3.03248e-10
-1.13018e-10
3.03724e-10
3.42597e-10
-1.5649e-10
-7.14554e-10
-4.58732e-10
-2.89997e-11
-5.48233e-10
-7.09493e-10
-6.61601e-10
-1.3701e-09
5.62095e-11
-5.03429e-10
-2.4381e-10
7.6776e-10
-8.46276e-10
-8.1479e-10
-1.56746e-11
7.73865e-11
1.04653e-11
2.31047e-10
4.66456e-10
2.09175e-10
-5.27661e-10
-1.03906e-09
-5.63975e-10
-3.20591e-10
-7.21074e-11
-1.1149e-09
2.76536e-11
-9.41846e-10
2.62212e-10
-8.9748e-10
3.18933e-10
-3.19912e-10
-9.07755e-10
1.42441e-10
-1.28261e-10
-2.17e-10
4.30532e-10
5.54049e-10
2.81114e-10
1.03664e-11
-3.4945e-10
-6.3424e-10
-3.52665e-10
-5.57297e-10
-9.98475e-11
-4.61661e-10
-7.63229e-11
-8.62931e-11
1.06829e-10
-3.47064e-10
2.3384e-10
-4.58015e-10
-1.47247e-10
2.24992e-10
-4.38907e-10
-2.31531e-10
5.17226e-10
3.91324e-10
-1.58924e-10
-2.28607e-10
1.5019e-10
4.26082e-10
2.33552e-10
-2.75026e-10
-5.18696e-10
2.11501e-10
-3.464e-11
3.98986e-10
-2.2922e-10
2.73225e-10
-1.92981e-10
-5.71261e-12
2.94335e-10
-1.63145e-10
6.58537e-11
4.72817e-11
-3.63282e-10
-3.81715e-10
-2.94056e-10
-1.78205e-10
4.61324e-10
1.17282e-09
7.01691e-10
1.27613e-10
-3.7979e-10
5.17458e-10
-2.05274e-11
4.87003e-10
-3.76502e-10
4.447e-10
-3.03215e-10
1.47679e-10
4.61862e-10
-1.68295e-10
3.59215e-10
1.72811e-10
-6.60489e-10
-6.08801e-10
-3.18454e-10
-2.53694e-10
3.15585e-10
1.10257e-09
7.00501e-10
3.50668e-10
4.19587e-10
3.8884e-10
2.89589e-11
3.10899e-10
-6.97744e-11
1.03591e-10
1.34971e-10
-2.70725e-10
3.24113e-10
3.24982e-10
-2.06598e-12
4.8162e-11
1.99033e-10
6.09062e-11
-3.37979e-10
-5.1868e-10
-1.57943e-10
3.25405e-10
2.51289e-10
6.08176e-10
9.56531e-10
-1.769e-10
6.04434e-10
-9.61643e-11
6.10839e-10
-3.7826e-10
6.99493e-10
-4.253e-10
-3.76838e-10
6.99425e-10
8.40038e-11
-1.33777e-10
4.71688e-10
5.28444e-10
1.15497e-10
-2.62122e-10
-5.67391e-10
-7.15586e-10
-3.59373e-10
9.19101e-10
5.81942e-10
2.68169e-11
8.85938e-10
-5.11511e-10
1.24733e-09
-2.18324e-10
7.6899e-10
5.44677e-10
-9.59586e-10
-1.24567e-10
3.00452e-10
9.22939e-11
1.70474e-10
4.14861e-10
5.57501e-10
2.20744e-10
-5.71978e-10
-1.09234e-09
-5.81779e-10
8.31801e-10
3.45876e-10
7.69428e-10
5.71923e-11
7.12766e-10
1.0055e-09
8.88525e-10
-3.89489e-10
1.84681e-09
2.55135e-10
-7.57519e-10
-1.14372e-10
5.45233e-11
-1.36453e-10
1.38891e-10
5.82796e-10
5.39022e-10
-9.00919e-11
-6.84803e-10
-4.29774e-10
5.49699e-10
4.77533e-10
1.18464e-09
1.07855e-10
2.40829e-09
-1.19603e-09
2.12679e-09
-1.60924e-09
4.13146e-10
1.6713e-09
-4.83573e-11
-3.01595e-10
-1.49021e-10
-2.89124e-10
-1.66423e-10
2.00992e-10
5.14157e-10
4.34307e-10
-2.00999e-11
-1.4311e-10
2.78438e-11
9.09196e-10
1.25561e-09
1.22403e-09
1.54722e-09
-2.1453e-09
2.73215e-09
1.26706e-09
-1.34293e-09
9.67879e-10
9.13305e-10
1.42798e-10
-8.77854e-11
-2.46815e-10
-3.79781e-10
-2.30155e-10
2.13529e-10
5.24299e-10
4.03673e-10
1.21932e-10
-4.12918e-10
1.48992e-09
1.87939e-09
2.26844e-09
-1.61236e-09
1.23004e-09
-2.38841e-10
2.13795e-09
-1.22286e-09
4.66635e-10
1.18474e-09
6.02484e-10
1.31886e-10
-1.61601e-10
-4.29594e-10
-4.08193e-10
-7.92168e-11
2.69496e-10
4.47294e-10
2.53463e-10
6.93323e-10
7.58595e-10
1.00289e-09
1.60252e-09
-3.06422e-09
-7.37583e-09
-8.05703e-09
-2.30519e-08
-1.23382e-09
-5.55957e-11
3.67626e-10
3.73932e-10
2.1536e-10
1.58635e-10
2.77245e-11
-1.34007e-10
-2.08491e-10
-9.79506e-11
1.5753e-10
1.55371e-10
2.37077e-09
3.91615e-10
-6.74764e-10
-9.99878e-10
5.24778e-09
1.17301e-08
6.99291e-09
2.39884e-08
4.59989e-09
-1.26675e-10
-3.14582e-10
3.14928e-10
7.56511e-10
8.56782e-10
5.54996e-10
3.01076e-11
-3.51217e-10
-3.38568e-10
-7.76637e-11
2.83755e-11
)
;

boundaryField
{
    sides
    {
        type            calculated;
        value           nonuniform List<scalar> 
40
(
2.37077e-09
3.91615e-10
-6.74764e-10
-9.99878e-10
5.24778e-09
1.17301e-08
6.99291e-09
2.39884e-08
4.59989e-09
-1.26675e-10
-3.14582e-10
3.14928e-10
7.56511e-10
8.56782e-10
5.54996e-10
3.01076e-11
-3.51217e-10
-3.38568e-10
-7.76637e-11
2.83755e-11
5.77376e-10
-1.20279e-09
-1.74685e-09
-2.74372e-09
3.34327e-09
-1.33787e-08
-5.53421e-10
-5.28165e-08
1.06344e-09
1.06269e-09
-8.66892e-10
-9.65334e-10
-4.46105e-10
1.08158e-10
2.55983e-10
-6.92044e-11
-3.97978e-10
-3.02209e-10
2.09713e-11
7.29851e-11
)
;
    }
    inlet
    {
        type            calculated;
        value           nonuniform List<scalar> 
20
(
5.77376e-10
-7.50439e-10
-2.16728e-09
-1.48866e-09
-7.9956e-10
-2.54634e-10
-2.89997e-11
-3.20591e-10
-5.57297e-10
-2.75026e-10
1.27613e-10
3.50668e-10
6.08176e-10
9.19101e-10
8.31801e-10
5.49699e-10
2.78438e-11
-4.12918e-10
6.93323e-10
2.37077e-09
)
;
    }
    outlet
    {
        type            calculated;
        value           uniform 0;
    }
    frontAndBack
    {
        type            empty;
    }
}


// ************************************************************************* //
