/*--------------------------------*- C++ -*----------------------------------*\
  =========                 |
  \\      /  F ield         | OpenFOAM: The Open Source CFD Toolbox
   \\    /   O peration     | Website:  https://openfoam.org
    \\  /    A nd           | Version:  7
     \\/     M anipulation  |
\*---------------------------------------------------------------------------*/
FoamFile
{
    version     2.0;
    format      ascii;
    class       surfaceScalarField;
    location    "71";
    object      ddtCorrDdt0(phi);
}
// * * * * * * * * * * * * * * * * * * * * * * * * * * * * * * * * * * * * * //

dimensions      [0 4 -2 0 0 0 0];

internalField   nonuniform List<scalar> 
760
(
2.50663e-14
5.12235e-13
4.07507e-13
4.07443e-15
3.41199e-13
-6.81753e-13
7.87434e-13
-1.10613e-12
-7.31309e-12
1.22623e-12
3.18325e-12
3.2878e-10
-2.85377e-12
2.73403e-10
-2.66258e-11
-1.82912e-10
5.10763e-12
-8.17377e-12
6.23936e-14
4.16381e-13
-1.95502e-12
-6.67999e-13
-1.60594e-12
-5.20695e-13
-3.60646e-13
-2.05291e-13
4.85581e-13
-1.21275e-13
2.58024e-13
-3.35302e-13
-2.46541e-13
-5.82546e-13
-2.58619e-13
-3.62059e-13
2.58855e-14
-1.67981e-15
-1.77058e-13
4.11068e-13
4.21187e-13
2.57378e-14
-2.09056e-13
2.05363e-13
-2.40905e-13
-1.07206e-12
-5.17414e-13
2.50632e-12
-5.73432e-14
3.09352e-12
-2.60497e-12
7.96268e-12
4.63267e-12
-4.996e-12
-1.90193e-11
2.84359e-11
2.96608e-11
-1.8275e-12
1.19951e-12
-2.17921e-12
-1.46454e-12
-8.98186e-13
-7.55062e-13
-6.13014e-13
-2.37181e-13
-3.33509e-13
-2.68774e-13
-1.11038e-13
-4.85517e-13
-1.72661e-13
-7.96288e-13
-1.0576e-13
-9.71997e-13
2.08814e-13
-4.79033e-13
3.64978e-13
6.78101e-14
-8.17173e-14
7.24676e-13
7.03033e-13
-3.97199e-13
-7.17677e-13
-4.41705e-13
-2.64369e-13
9.45247e-13
-1.73176e-13
9.51833e-15
8.22681e-13
4.38999e-12
-1.15055e-12
-6.1824e-12
9.73289e-13
3.87935e-12
-1.02077e-12
1.73985e-12
-5.28348e-13
-4.35703e-12
-2.25015e-12
-1.03231e-12
-5.30478e-13
2.26032e-13
3.43946e-13
3.61272e-14
9.61486e-14
-1.36358e-13
-4.97775e-13
-4.25623e-13
-1.09651e-12
-4.99105e-13
-1.36109e-12
1.28203e-13
-1.15235e-12
7.73e-13
-2.55297e-13
7.05417e-13
2.9272e-13
-1.16698e-13
1.1301e-12
1.10338e-12
-1.2966e-15
-6.1511e-13
2.46224e-14
-4.61638e-13
1.51919e-12
-2.64922e-13
-1.03278e-12
1.55715e-13
3.71012e-12
8.07167e-13
-4.33256e-12
-2.05665e-12
4.66622e-12
2.97309e-12
-1.63542e-12
2.87017e-13
-2.08469e-12
-8.95519e-13
4.72909e-13
1.11235e-12
2.48412e-13
1.13019e-12
-3.38968e-13
-8.05029e-14
-6.0248e-13
-9.68898e-13
-8.56161e-13
-1.6695e-12
-6.52187e-13
-1.75882e-12
2.32738e-13
-1.11103e-12
8.98843e-13
5.81521e-14
7.23534e-13
4.22702e-13
-7.97095e-14
1.31451e-12
1.34193e-12
7.10464e-13
-1.11613e-13
6.00329e-13
-5.56007e-13
1.11718e-12
-4.59974e-13
-5.50114e-13
-1.24391e-12
2.66681e-13
1.03358e-12
-8.2159e-13
-1.12662e-12
1.91269e-12
1.73154e-12
-2.45321e-12
-2.69724e-13
7.91633e-13
1.28735e-12
1.39704e-12
2.41215e-12
-1.86191e-13
5.6859e-13
-3.93114e-13
-6.09305e-13
-6.7616e-13
-1.29715e-12
-8.15976e-13
-1.91218e-12
-2.51942e-13
-1.7923e-12
3.97866e-13
-9.45284e-13
4.82328e-13
3.28896e-13
2.37163e-13
5.52296e-13
-3.49319e-13
1.40898e-12
1.50016e-12
4.14828e-13
1.55618e-13
7.92769e-13
-6.68822e-13
1.35673e-13
-8.29372e-13
1.00514e-12
-1.51448e-12
-1.33169e-12
-9.79832e-13
1.58888e-12
4.63594e-13
-2.5539e-13
1.09067e-12
-6.85935e-13
9.28084e-13
1.85056e-12
2.83384e-12
-6.01139e-13
1.06097e-12
-1.34146e-12
-3.93406e-13
-6.196e-13
-7.00438e-13
-8.20614e-13
-1.67291e-12
-5.13388e-13
-2.29606e-12
6.32092e-13
-1.9206e-12
9.39297e-13
-1.17877e-12
1.73559e-13
1.72634e-13
-2.55075e-13
6.96481e-13
-4.94552e-13
1.81334e-12
1.80136e-12
-2.83997e-14
-5.80336e-14
6.14667e-13
-6.02753e-13
-6.0662e-13
-1.46625e-12
7.5926e-13
-7.00047e-13
-7.30847e-13
-1.56526e-12
1.40233e-12
2.08824e-13
-7.14563e-13
-6.95695e-14
1.15971e-12
1.00621e-12
6.86574e-14
1.12226e-12
-1.42816e-12
-1.95422e-13
-3.7686e-13
3.11414e-14
-1.69929e-13
-3.23517e-13
-5.69489e-13
-1.87413e-12
-1.03508e-13
-2.44673e-12
7.3973e-13
-1.99614e-12
5.10899e-13
-1.71403e-12
-6.50999e-13
-5.89766e-13
-1.07124e-12
3.75761e-13
-5.60246e-13
2.10985e-12
2.13876e-12
-8.15335e-14
-6.13132e-13
-1.83322e-13
-6.5281e-13
3.95927e-14
-1.15968e-12
-1.73908e-13
-8.47828e-13
7.00499e-13
-6.75255e-13
5.88657e-13
-9.83858e-14
-1.71158e-14
-6.77163e-14
8.55774e-13
7.59914e-13
-1.41613e-12
2.3183e-13
-5.92429e-13
5.80625e-13
9.79925e-14
5.11465e-13
-9.36688e-13
-7.39541e-13
-4.37885e-13
-1.79798e-12
6.91543e-13
-2.22051e-12
9.07017e-13
-2.33916e-12
4.37876e-13
-2.44546e-12
-3.19287e-13
-1.26086e-12
-6.81165e-13
7.59562e-14
-3.91181e-13
2.40039e-12
2.47337e-12
2.92175e-13
-5.72497e-13
-4.81567e-13
-1.28563e-12
3.17178e-13
-6.93266e-13
-2.59323e-13
-9.88922e-13
7.99627e-13
-1.30367e-13
3.37691e-14
-1.93281e-13
2.91172e-13
3.31386e-13
5.06511e-14
6.9556e-13
-7.28381e-13
3.28229e-13
2.68062e-13
1.21293e-12
-1.2964e-13
2.56294e-13
-8.39862e-13
-9.07409e-13
2.48202e-14
-1.00613e-12
6.26564e-13
-1.74029e-12
9.65083e-14
-2.71593e-12
-2.57828e-13
-2.79562e-12
-5.17911e-14
-1.15946e-12
9.32075e-14
2.23243e-13
1.49849e-13
2.38065e-12
2.45336e-12
-5.19237e-14
-3.91884e-13
1.94612e-13
-1.06503e-12
-1.33945e-14
-1.06082e-12
2.57106e-13
-1.06875e-12
8.94773e-14
-5.37714e-13
-5.17469e-14
-1.60929e-13
1.58183e-13
3.75134e-13
-4.05452e-13
7.71006e-13
5.60865e-13
7.82859e-13
3.31216e-14
9.57867e-13
-2.97727e-13
2.32216e-13
2.87039e-13
-7.07566e-13
-1.60574e-13
-1.40707e-12
-7.77314e-13
-2.06825e-12
-6.90661e-13
-2.33822e-12
-1.24195e-13
-2.04395e-12
6.09235e-13
-5.23523e-13
8.82817e-13
4.57658e-13
6.67697e-13
2.33625e-12
2.38732e-12
-2.94544e-13
-3.20828e-13
3.34802e-13
-4.93325e-13
-1.58718e-13
-1.51027e-12
3.47977e-13
-1.05281e-12
-1.93871e-13
-1.20391e-12
-1.83242e-13
-1.29523e-13
1.26555e-14
2.58878e-13
-6.26435e-13
8.21898e-13
9.05363e-13
1.26266e-12
1.24824e-14
3.40853e-13
-1.4167e-13
1.54675e-13
9.40166e-13
-6.0079e-13
7.48616e-14
-2.37423e-12
-1.00996e-12
-2.74918e-12
-9.13579e-13
-1.76617e-12
-3.17209e-13
-1.00914e-12
3.77535e-13
1.90116e-13
6.68178e-13
6.85988e-13
6.07496e-13
2.19344e-12
2.24418e-12
3.63553e-14
-2.21518e-13
-4.51658e-13
-8.55742e-13
7.46154e-14
-1.08092e-12
-3.35381e-13
-8.97759e-13
2.32446e-13
-9.84187e-13
-5.07495e-13
-2.13979e-13
1.14052e-13
4.67929e-13
-3.82202e-13
6.5715e-13
1.05904e-13
1.63147e-12
6.2336e-13
5.20433e-13
4.57286e-14
-2.03808e-13
1.12042e-13
-5.85946e-13
5.9208e-13
-2.0673e-12
3.7093e-13
-2.91823e-12
-4.33512e-13
-2.36166e-12
-7.12643e-13
-1.27234e-12
-1.97079e-13
4.42007e-13
2.3906e-13
9.66288e-13
3.64444e-13
2.18399e-12
2.13146e-12
-1.08014e-13
-6.52278e-13
-6.15483e-13
-1.02643e-12
8.50486e-14
-2.65003e-13
-8.19375e-13
-1.02993e-12
4.29309e-13
1.19998e-13
-5.30258e-13
-4.47078e-13
-2.04114e-13
8.6739e-13
3.74476e-13
4.4005e-13
-1.03475e-12
1.31768e-12
5.89749e-13
1.59663e-12
8.32081e-13
-5.17869e-15
-1.25029e-13
-9.19456e-13
6.25985e-13
-1.49448e-12
1.18015e-12
-2.45792e-12
3.6443e-13
-2.80089e-12
-5.4682e-13
-1.94155e-12
-9.07481e-13
-6.89416e-15
-8.43147e-13
7.83553e-13
-2.15069e-13
2.09816e-12
2.05851e-12
-1.37378e-13
-7.66553e-13
1.47587e-13
-7.42515e-13
-7.5997e-13
-6.37482e-13
-7.24536e-14
-4.95415e-13
-5.57791e-13
4.31653e-13
4.44219e-13
-9.92794e-13
-9.1081e-13
5.3677e-13
1.30294e-12
4.78657e-13
-7.35643e-13
-1.77505e-13
-9.15796e-13
1.60463e-12
4.21233e-13
1.05275e-12
2.51091e-13
-4.25248e-13
3.33657e-13
-1.23993e-12
9.24083e-13
-2.16152e-12
1.15555e-12
-2.74993e-12
4.92922e-13
-2.33559e-12
-6.55728e-13
-6.32821e-13
-1.08798e-12
5.15724e-13
-4.65373e-13
2.27103e-12
2.16786e-12
2.70078e-13
-2.69994e-13
4.32135e-13
-4.26567e-13
-9.78525e-13
-9.05004e-13
4.05484e-13
-4.39675e-14
-2.37262e-12
-1.49931e-12
1.39739e-12
3.13978e-13
-1.5738e-12
-2.62956e-13
7.67964e-13
2.51529e-12
1.90895e-12
-3.71821e-13
-3.84461e-13
-2.0996e-13
-3.69314e-14
7.86222e-13
5.58904e-13
2.33366e-13
7.8319e-14
-6.54077e-13
1.03791e-13
-1.38868e-12
7.53445e-13
-1.90703e-12
4.96243e-13
-2.07986e-12
-5.19637e-13
-9.68273e-13
-8.45601e-13
2.32692e-13
-2.9008e-13
1.93213e-12
1.87623e-12
5.46498e-13
5.35346e-13
2.70987e-13
-2.63873e-13
-7.32317e-14
-1.06114e-12
-4.64719e-13
-8.2444e-13
-1.50091e-12
-1.97706e-12
5.89879e-13
3.18712e-12
3.51752e-13
-1.39041e-12
-2.48033e-12
1.07228e-12
2.10265e-12
2.4107e-12
1.0773e-12
-3.41741e-13
-1.97597e-13
-2.57398e-13
3.45995e-14
-2.06641e-14
-3.44404e-13
-5.34477e-13
-4.15215e-13
-9.0906e-13
3.4769e-13
-1.13559e-12
7.48172e-13
-1.44704e-12
4.31219e-13
-7.90575e-13
6.77968e-14
1.09957e-13
-3.52095e-14
1.46197e-12
1.45105e-12
-1.6457e-14
5.55711e-13
-5.45294e-13
-2.61211e-13
6.08237e-13
-6.78186e-13
-2.1562e-12
-1.26374e-12
2.10572e-12
8.28536e-13
-3.94105e-12
6.55802e-13
3.61914e-12
-2.2301e-12
-1.91689e-12
1.17436e-12
-6.31227e-13
1.13682e-12
2.0081e-12
6.38924e-13
1.32376e-12
-4.28224e-13
6.83649e-13
-5.93953e-13
-3.28337e-14
-7.72562e-13
-6.2469e-13
-7.38062e-13
-4.85962e-13
-5.77898e-13
1.31408e-13
-6.53178e-13
5.41116e-13
-3.47583e-13
3.48064e-13
-3.33965e-14
9.70254e-14
8.96185e-13
1.0341e-12
-4.2624e-13
-1.58389e-13
-1.31865e-12
-4.57536e-13
3.35872e-13
2.85278e-14
-1.70193e-12
-3.89387e-13
5.5462e-12
3.28763e-12
-9.25466e-12
-6.99194e-13
5.9532e-12
1.56911e-12
-1.55472e-12
2.57712e-13
-1.45337e-12
1.33486e-12
1.50177e-12
9.98254e-13
1.69739e-12
-1.24793e-13
9.04894e-13
-8.35294e-13
1.05937e-13
-1.13798e-12
-6.86368e-13
-9.57738e-13
-9.87948e-13
-4.34606e-13
-5.18489e-13
-1.00371e-13
2.52715e-13
4.75693e-14
4.10327e-13
-6.99664e-14
4.10013e-13
3.86618e-13
5.6021e-13
-6.66994e-14
-6.78774e-13
-2.04114e-13
-4.86124e-13
-1.88425e-12
5.61781e-13
2.44903e-13
1.60231e-12
2.76181e-12
-3.66669e-13
-2.17874e-11
-1.50762e-10
5.87998e-12
4.61416e-10
-8.7148e-12
7.08109e-12
-1.27817e-12
-3.04545e-12
-4.02098e-14
3.70123e-13
7.56904e-13
-1.09386e-13
8.30516e-13
-7.0675e-13
8.49688e-13
-9.91862e-13
4.5997e-13
-7.87903e-13
-2.74772e-13
-2.13185e-13
-6.40646e-13
2.07404e-13
-2.72211e-13
2.71325e-13
1.45419e-13
3.01738e-14
3.98338e-13
1.48727e-13
2.567e-13
-7.1197e-13
2.15492e-13
2.69092e-14
1.24239e-12
-1.01248e-11
3.04006e-11
-1.53119e-11
1.2794e-11
2.14589e-12
-8.71305e-13
-8.67492e-14
1.0044e-12
1.79022e-12
1.49635e-12
1.06559e-13
-1.04774e-12
-9.18548e-13
-1.31267e-13
5.57386e-13
)
;

boundaryField
{
    sides
    {
        type            calculated;
        value           uniform 0;
    }
    inlet
    {
        type            calculated;
        value           uniform 0;
    }
    outlet
    {
        type            calculated;
        value           nonuniform List<scalar> 
20
(
-6.01391e-13
-5.15543e-13
-7.46651e-13
-6.1489e-13
-8.51216e-13
-7.91711e-13
-2.72165e-13
-1.44179e-13
1.88466e-13
5.22226e-13
5.67846e-13
4.31381e-13
2.97289e-13
9.08805e-14
1.25319e-13
2.16469e-14
1.41365e-13
6.57955e-13
6.08894e-13
8.80426e-13
)
;
    }
    frontAndBack
    {
        type            empty;
        value           nonuniform 0();
    }
}


// ************************************************************************* //
