/*--------------------------------*- C++ -*----------------------------------*\
  =========                 |
  \\      /  F ield         | OpenFOAM: The Open Source CFD Toolbox
   \\    /   O peration     | Website:  https://openfoam.org
    \\  /    A nd           | Version:  7
     \\/     M anipulation  |
\*---------------------------------------------------------------------------*/
FoamFile
{
    version     2.0;
    format      ascii;
    class       volVectorField;
    location    "71";
    object      hU_0;
}
// * * * * * * * * * * * * * * * * * * * * * * * * * * * * * * * * * * * * * //

dimensions      [0 2 -1 0 0 0 0];

internalField   nonuniform List<vector> 
400
(
(0.001 -8.74452e-09 0)
(0.000999999 -2.37262e-08 0)
(0.001 -3.59152e-08 0)
(0.001 -4.66131e-08 0)
(0.00100001 -5.68301e-08 0)
(0.00100001 -6.7251e-08 0)
(0.00100002 -7.8164e-08 0)
(0.00100003 -8.90245e-08 0)
(0.00100004 -9.99623e-08 0)
(0.00100006 -1.12003e-07 0)
(0.00100007 -1.22731e-07 0)
(0.0010001 -1.36225e-07 0)
(0.00100011 -1.46563e-07 0)
(0.00100015 -1.63331e-07 0)
(0.00100017 -1.72109e-07 0)
(0.00100024 -1.96191e-07 0)
(0.00100026 -2.00688e-07 0)
(0.00100038 -2.42945e-07 0)
(0.00100038 -2.39122e-07 0)
(0.00100061 -3.31886e-07 0)
(0.001 3.93972e-09 0)
(0.001 1.21004e-08 0)
(0.00100001 2.02552e-08 0)
(0.00100001 2.79783e-08 0)
(0.00100002 3.51495e-08 0)
(0.00100002 4.1718e-08 0)
(0.00100003 4.76123e-08 0)
(0.00100004 5.31905e-08 0)
(0.00100005 5.84071e-08 0)
(0.00100007 6.22921e-08 0)
(0.00100008 6.69667e-08 0)
(0.0010001 6.85725e-08 0)
(0.00100012 7.26653e-08 0)
(0.00100016 6.98527e-08 0)
(0.00100018 7.4022e-08 0)
(0.00100023 6.17088e-08 0)
(0.00100026 6.72315e-08 0)
(0.00100035 3.18394e-08 0)
(0.00100037 3.99365e-08 0)
(0.0010005 -5.45649e-08 0)
(0.001 -3.97327e-09 0)
(0.000999999 -1.29814e-08 0)
(0.001 -2.29648e-08 0)
(0.001 -3.3513e-08 0)
(0.00100001 -4.40119e-08 0)
(0.00100001 -5.4868e-08 0)
(0.00100002 -6.54245e-08 0)
(0.00100003 -7.73158e-08 0)
(0.00100004 -8.88685e-08 0)
(0.00100005 -1.02563e-07 0)
(0.00100006 -1.15347e-07 0)
(0.00100009 -1.32515e-07 0)
(0.0010001 -1.46586e-07 0)
(0.00100014 -1.70023e-07 0)
(0.00100016 -1.85048e-07 0)
(0.00100021 -2.20955e-07 0)
(0.00100023 -2.35472e-07 0)
(0.00100031 -2.97397e-07 0)
(0.00100033 -3.06079e-07 0)
(0.00100046 -4.22212e-07 0)
(0.001 -1.22871e-10 0)
(0.001 2.4152e-11 0)
(0.00100001 7.40924e-10 0)
(0.00100001 1.51107e-09 0)
(0.00100001 2.26576e-09 0)
(0.00100002 2.16329e-09 0)
(0.00100003 1.81418e-09 0)
(0.00100004 -2.04596e-10 0)
(0.00100004 -2.29566e-09 0)
(0.00100006 -7.06447e-09 0)
(0.00100007 -1.13087e-08 0)
(0.00100009 -2.05969e-08 0)
(0.00100011 -2.72677e-08 0)
(0.00100013 -4.42627e-08 0)
(0.00100016 -5.34314e-08 0)
(0.00100019 -8.47387e-08 0)
(0.00100022 -9.5215e-08 0)
(0.00100028 -1.54437e-07 0)
(0.0010003 -1.60795e-07 0)
(0.00100039 -2.75905e-07 0)
(0.001 -2.87663e-09 0)
(0.001 -9.18272e-09 0)
(0.001 -1.62073e-08 0)
(0.001 -2.42147e-08 0)
(0.00100001 -3.28378e-08 0)
(0.00100001 -4.2515e-08 0)
(0.00100002 -5.26377e-08 0)
(0.00100002 -6.43865e-08 0)
(0.00100003 -7.63696e-08 0)
(0.00100004 -9.12518e-08 0)
(0.00100005 -1.05725e-07 0)
(0.00100007 -1.25538e-07 0)
(0.00100009 -1.42844e-07 0)
(0.00100011 -1.70932e-07 0)
(0.00100013 -1.91118e-07 0)
(0.00100016 -2.34084e-07 0)
(0.00100018 -2.55502e-07 0)
(0.00100024 -3.26305e-07 0)
(0.00100025 -3.41346e-07 0)
(0.00100033 -4.64444e-07 0)
(0.001 -2.52957e-09 0)
(0.001 -7.42648e-09 0)
(0.001 -1.20105e-08 0)
(0.00100001 -1.66493e-08 0)
(0.00100001 -2.13695e-08 0)
(0.00100001 -2.68809e-08 0)
(0.00100002 -3.28919e-08 0)
(0.00100002 -4.06287e-08 0)
(0.00100003 -4.88527e-08 0)
(0.00100004 -6.0245e-08 0)
(0.00100005 -7.14877e-08 0)
(0.00100006 -8.84633e-08 0)
(0.00100008 -1.03352e-07 0)
(0.0010001 -1.29451e-07 0)
(0.00100011 -1.48171e-07 0)
(0.00100014 -1.89933e-07 0)
(0.00100016 -2.10615e-07 0)
(0.0010002 -2.80176e-07 0)
(0.00100021 -2.9431e-07 0)
(0.00100027 -4.15078e-07 0)
(0.001 -2.87762e-09 0)
(0.001 -8.78266e-09 0)
(0.001 -1.49974e-08 0)
(0.001 -2.19451e-08 0)
(0.00100001 -2.9612e-08 0)
(0.00100001 -3.8576e-08 0)
(0.00100001 -4.83982e-08 0)
(0.00100002 -6.02292e-08 0)
(0.00100002 -7.27955e-08 0)
(0.00100003 -8.87106e-08 0)
(0.00100004 -1.0465e-07 0)
(0.00100005 -1.26577e-07 0)
(0.00100006 -1.4649e-07 0)
(0.00100007 -1.77858e-07 0)
(0.00100009 -2.01698e-07 0)
(0.00100011 -2.48891e-07 0)
(0.00100012 -2.74334e-07 0)
(0.00100015 -3.49197e-07 0)
(0.00100016 -3.66952e-07 0)
(0.00100021 -4.9224e-07 0)
(0.001 -3.18135e-09 0)
(0.001 -9.65234e-09 0)
(0.001 -1.63431e-08 0)
(0.001 -2.36217e-08 0)
(0.001 -3.13851e-08 0)
(0.00100001 -4.0267e-08 0)
(0.00100001 -4.98035e-08 0)
(0.00100001 -6.12708e-08 0)
(0.00100002 -7.34177e-08 0)
(0.00100002 -8.89188e-08 0)
(0.00100003 -1.04553e-07 0)
(0.00100004 -1.26245e-07 0)
(0.00100004 -1.46094e-07 0)
(0.00100006 -1.77453e-07 0)
(0.00100006 -2.01556e-07 0)
(0.00100008 -2.48873e-07 0)
(0.00100009 -2.74788e-07 0)
(0.00100011 -3.49392e-07 0)
(0.00100012 -3.67308e-07 0)
(0.00100015 -4.90904e-07 0)
(0.001 -3.34732e-09 0)
(0.001 -1.01377e-08 0)
(0.001 -1.71073e-08 0)
(0.001 -2.46722e-08 0)
(0.001 -3.27407e-08 0)
(0.001 -4.20373e-08 0)
(0.00100001 -5.21196e-08 0)
(0.00100001 -6.43372e-08 0)
(0.00100001 -7.7389e-08 0)
(0.00100001 -9.40183e-08 0)
(0.00100002 -1.10947e-07 0)
(0.00100002 -1.34127e-07 0)
(0.00100003 -1.55559e-07 0)
(0.00100003 -1.8873e-07 0)
(0.00100004 -2.14554e-07 0)
(0.00100005 -2.63839e-07 0)
(0.00100005 -2.91313e-07 0)
(0.00100007 -3.67904e-07 0)
(0.00100007 -3.86831e-07 0)
(0.00100009 -5.1253e-07 0)
(0.001 -3.41523e-09 0)
(0.001 -1.03629e-08 0)
(0.001 -1.74948e-08 0)
(0.001 -2.52372e-08 0)
(0.001 -3.35257e-08 0)
(0.001 -4.30874e-08 0)
(0.001 -5.35038e-08 0)
(0.001 -6.60985e-08 0)
(0.001 -7.95553e-08 0)
(0.001 -9.65903e-08 0)
(0.00100001 -1.1392e-07 0)
(0.00100001 -1.37469e-07 0)
(0.00100001 -1.593e-07 0)
(0.00100001 -1.92818e-07 0)
(0.00100001 -2.19049e-07 0)
(0.00100002 -2.68608e-07 0)
(0.00100002 -2.96494e-07 0)
(0.00100002 -3.73165e-07 0)
(0.00100002 -3.92408e-07 0)
(0.00100003 -5.17537e-07 0)
(0.001 -3.41003e-09 0)
(0.001 -1.03543e-08 0)
(0.001 -1.75004e-08 0)
(0.000999999 -2.52409e-08 0)
(0.000999999 -3.35337e-08 0)
(0.000999999 -4.3087e-08 0)
(0.000999998 -5.35107e-08 0)
(0.000999997 -6.60957e-08 0)
(0.000999996 -7.95611e-08 0)
(0.000999995 -9.65966e-08 0)
(0.000999994 -1.13917e-07 0)
(0.000999993 -1.37472e-07 0)
(0.000999991 -1.59297e-07 0)
(0.000999989 -1.928e-07 0)
(0.000999987 -2.19031e-07 0)
(0.000999984 -2.68599e-07 0)
(0.000999982 -2.96494e-07 0)
(0.000999978 -3.73175e-07 0)
(0.000999977 -3.92428e-07 0)
(0.00099997 -5.17545e-07 0)
(0.001 -3.33351e-09 0)
(0.001 -1.01244e-08 0)
(0.000999999 -1.71211e-08 0)
(0.000999998 -2.46787e-08 0)
(0.000999997 -3.27602e-08 0)
(0.000999996 -4.20356e-08 0)
(0.000999994 -5.21326e-08 0)
(0.000999992 -6.43317e-08 0)
(0.000999989 -7.73947e-08 0)
(0.000999986 -9.40343e-08 0)
(0.000999983 -1.10945e-07 0)
(0.000999978 -1.34126e-07 0)
(0.000999973 -1.55551e-07 0)
(0.000999967 -1.88697e-07 0)
(0.000999961 -2.14516e-07 0)
(0.000999952 -2.638e-07 0)
(0.000999946 -2.91294e-07 0)
(0.000999934 -3.67901e-07 0)
(0.00099993 -3.86854e-07 0)
(0.000999911 -5.12501e-07 0)
(0.001 -3.16883e-09 0)
(0.001 -9.65143e-09 0)
(0.000999999 -1.63503e-08 0)
(0.000999997 -2.36297e-08 0)
(0.000999996 -3.14005e-08 0)
(0.000999993 -4.0264e-08 0)
(0.000999991 -4.98047e-08 0)
(0.000999987 -6.12701e-08 0)
(0.000999983 -7.34058e-08 0)
(0.000999977 -8.89314e-08 0)
(0.000999971 -1.04569e-07 0)
(0.000999964 -1.26248e-07 0)
(0.000999956 -1.46096e-07 0)
(0.000999945 -1.77453e-07 0)
(0.000999936 -2.01551e-07 0)
(0.000999921 -2.48853e-07 0)
(0.000999911 -2.74781e-07 0)
(0.000999889 -3.49407e-07 0)
(0.000999882 -3.67353e-07 0)
(0.000999852 -4.90916e-07 0)
(0.001 -2.88199e-09 0)
(0.000999999 -8.79057e-09 0)
(0.000999998 -1.49896e-08 0)
(0.000999996 -2.19535e-08 0)
(0.000999994 -2.95975e-08 0)
(0.000999991 -3.85756e-08 0)
(0.000999987 -4.83758e-08 0)
(0.000999982 -6.02344e-08 0)
(0.000999977 -7.27656e-08 0)
(0.000999969 -8.86784e-08 0)
(0.000999962 -1.04648e-07 0)
(0.000999951 -1.26565e-07 0)
(0.000999941 -1.46477e-07 0)
(0.000999925 -1.77843e-07 0)
(0.000999913 -2.01681e-07 0)
(0.000999891 -2.48835e-07 0)
(0.000999878 -2.74274e-07 0)
(0.000999847 -3.49103e-07 0)
(0.000999839 -3.66879e-07 0)
(0.000999792 -4.92104e-07 0)
(0.001 -2.55143e-09 0)
(0.000999999 -7.4337e-09 0)
(0.000999997 -1.19999e-08 0)
(0.000999995 -1.66459e-08 0)
(0.000999991 -2.13423e-08 0)
(0.000999987 -2.69069e-08 0)
(0.000999982 -3.28812e-08 0)
(0.000999976 -4.06523e-08 0)
(0.000999968 -4.88724e-08 0)
(0.000999959 -6.02197e-08 0)
(0.000999949 -7.14803e-08 0)
(0.000999935 -8.84723e-08 0)
(0.000999922 -1.03371e-07 0)
(0.000999903 -1.29474e-07 0)
(0.000999886 -1.48201e-07 0)
(0.000999859 -1.89946e-07 0)
(0.000999841 -2.10616e-07 0)
(0.000999802 -2.80143e-07 0)
(0.000999788 -2.94285e-07 0)
(0.000999731 -4.1505e-07 0)
(0.001 -2.90292e-09 0)
(0.001 -9.18167e-09 0)
(0.000999999 -1.61926e-08 0)
(0.000999997 -2.4183e-08 0)
(0.000999994 -3.28325e-08 0)
(0.00099999 -4.25294e-08 0)
(0.000999984 -5.2645e-08 0)
(0.000999977 -6.43674e-08 0)
(0.000999969 -7.64078e-08 0)
(0.000999958 -9.12471e-08 0)
(0.000999946 -1.05692e-07 0)
(0.00099993 -1.25509e-07 0)
(0.000999915 -1.42832e-07 0)
(0.000999891 -1.70911e-07 0)
(0.000999872 -1.91115e-07 0)
(0.000999837 -2.34053e-07 0)
(0.000999817 -2.55472e-07 0)
(0.000999764 -3.26195e-07 0)
(0.000999752 -3.41245e-07 0)
(0.00099967 -4.64267e-07 0)
(0.001 -1.48907e-10 0)
(0.000999998 3.03553e-11 0)
(0.000999995 7.58867e-10 0)
(0.00099999 1.53489e-09 0)
(0.000999986 2.21212e-09 0)
(0.00099998 2.18637e-09 0)
(0.000999973 1.72203e-09 0)
(0.000999965 -1.69055e-10 0)
(0.000999955 -2.32994e-09 0)
(0.000999943 -7.10735e-09 0)
(0.00099993 -1.13138e-08 0)
(0.000999912 -2.05887e-08 0)
(0.000999894 -2.72682e-08 0)
(0.000999867 -4.42591e-08 0)
(0.000999845 -5.34417e-08 0)
(0.000999805 -8.47389e-08 0)
(0.000999779 -9.52215e-08 0)
(0.00099972 -1.54401e-07 0)
(0.000999699 -1.60753e-07 0)
(0.000999611 -2.75834e-07 0)
(0.001 -3.95153e-09 0)
(0.001 -1.29811e-08 0)
(0.001 -2.29717e-08 0)
(0.000999998 -3.35311e-08 0)
(0.000999995 -4.40665e-08 0)
(0.000999989 -5.4801e-08 0)
(0.000999983 -6.56265e-08 0)
(0.000999973 -7.72318e-08 0)
(0.000999964 -8.88282e-08 0)
(0.00099995 -1.02585e-07 0)
(0.000999935 -1.15376e-07 0)
(0.000999914 -1.32523e-07 0)
(0.000999896 -1.46593e-07 0)
(0.000999864 -1.70009e-07 0)
(0.000999841 -1.85053e-07 0)
(0.000999791 -2.20943e-07 0)
(0.000999767 -2.35505e-07 0)
(0.000999687 -2.97379e-07 0)
(0.000999672 -3.06089e-07 0)
(0.000999539 -4.22135e-07 0)
(0.001 4.01421e-09 0)
(0.000999996 1.20879e-08 0)
(0.000999991 2.01879e-08 0)
(0.000999987 2.79198e-08 0)
(0.000999982 3.52433e-08 0)
(0.000999976 4.16762e-08 0)
(0.000999969 4.79326e-08 0)
(0.000999959 5.30532e-08 0)
(0.000999948 5.84608e-08 0)
(0.000999934 6.23264e-08 0)
(0.000999919 6.69527e-08 0)
(0.000999897 6.85722e-08 0)
(0.000999877 7.26819e-08 0)
(0.000999844 6.98992e-08 0)
(0.000999819 7.40573e-08 0)
(0.000999767 6.17541e-08 0)
(0.000999738 6.72409e-08 0)
(0.000999654 3.18917e-08 0)
(0.000999629 3.99734e-08 0)
(0.000999496 -5.44456e-08 0)
(0.001 -8.70355e-09 0)
(0.001 -2.37332e-08 0)
(0.001 -3.59646e-08 0)
(0.000999997 -4.66513e-08 0)
(0.000999993 -5.67303e-08 0)
(0.000999986 -6.73464e-08 0)
(0.000999979 -7.77355e-08 0)
(0.000999968 -8.92516e-08 0)
(0.000999958 -9.99885e-08 0)
(0.000999942 -1.12007e-07 0)
(0.000999928 -1.22772e-07 0)
(0.000999903 -1.36268e-07 0)
(0.000999886 -1.46602e-07 0)
(0.000999846 -1.63363e-07 0)
(0.000999826 -1.72154e-07 0)
(0.00099976 -1.96246e-07 0)
(0.000999742 -2.00761e-07 0)
(0.000999623 -2.43027e-07 0)
(0.000999618 -2.39208e-07 0)
(0.000999394 -3.32017e-07 0)
)
;

boundaryField
{
    sides
    {
        type            slip;
    }
    inlet
    {
        type            fixedValue;
        value           uniform (0.001 0 0);
    }
    outlet
    {
        type            zeroGradient;
    }
    frontAndBack
    {
        type            empty;
    }
}


// ************************************************************************* //
