/*--------------------------------*- C++ -*----------------------------------*\
  =========                 |
  \\      /  F ield         | OpenFOAM: The Open Source CFD Toolbox
   \\    /   O peration     | Website:  https://openfoam.org
    \\  /    A nd           | Version:  7
     \\/     M anipulation  |
\*---------------------------------------------------------------------------*/
FoamFile
{
    version     2.0;
    format      ascii;
    class       surfaceScalarField;
    location    "71";
    object      phi_0;
}
// * * * * * * * * * * * * * * * * * * * * * * * * * * * * * * * * * * * * * //

dimensions      [0 4 -1 0 0 0 0];

internalField   nonuniform List<scalar> 
760
(
4.99999e-06
9.88147e-12
4.99999e-06
-4.23282e-12
5.00001e-06
-1.25419e-11
5.00003e-06
-1.91529e-11
5.00005e-06
-2.64377e-11
5.00009e-06
-3.29031e-11
5.00013e-06
-3.80487e-11
5.00018e-06
-4.34656e-11
5.00025e-06
-6.22883e-11
5.00032e-06
-7.82808e-11
5.00041e-06
-9.02431e-11
5.00053e-06
-1.14108e-10
5.00066e-06
-1.26981e-10
5.00082e-06
-1.67815e-10
5.001e-06
-1.77949e-10
5.00126e-06
-2.56586e-10
5.00151e-06
-2.55826e-10
5.00195e-06
-4.31383e-10
5.00236e-06
-4.13839e-10
-8.91651e-10
5.00002e-06
-1.19403e-11
5.00004e-06
-1.87936e-11
5.00005e-06
-2.87844e-11
5.00008e-06
-4.10493e-11
5.0001e-06
-5.37147e-11
5.00014e-06
-6.8668e-11
5.00018e-06
-8.39523e-11
5.00023e-06
-1.04032e-10
5.00029e-06
-1.23874e-10
5.00037e-06
-1.53368e-10
5.00045e-06
-1.77288e-10
5.00056e-06
-2.22356e-10
5.00069e-06
-2.50541e-10
5.00084e-06
-3.24122e-10
5.00102e-06
-3.53671e-10
5.00125e-06
-4.8555e-10
5.0015e-06
-5.0853e-10
5.00184e-06
-7.67261e-10
5.00218e-06
-7.59386e-10
-1.26209e-09
4.99999e-06
-4.5571e-12
4.99999e-06
-2.01163e-11
5e-06
-3.70736e-11
5.00002e-06
-5.58461e-11
5.00004e-06
-7.54343e-11
5.00007e-06
-9.83833e-11
5.00011e-06
-1.21474e-10
5.00016e-06
-1.52179e-10
5.00021e-06
-1.82354e-10
5.00029e-06
-2.23865e-10
5.00037e-06
-2.6269e-10
5.00047e-06
-3.23763e-10
5.00059e-06
-3.72283e-10
5.00074e-06
-4.67442e-10
5.00091e-06
-5.25264e-10
5.00111e-06
-6.85799e-10
5.00135e-06
-7.46834e-10
5.00162e-06
-1.0402e-09
5.00194e-06
-1.08249e-09
-1.68981e-09
5.00001e-06
-1.25001e-11
5.00002e-06
-3.29776e-11
5.00004e-06
-5.36707e-11
5.00006e-06
-7.66297e-11
5.00008e-06
-1.00569e-10
5.00012e-06
-1.29191e-10
5.00015e-06
-1.59031e-10
5.0002e-06
-1.97247e-10
5.00025e-06
-2.35871e-10
5.00032e-06
-2.88935e-10
5.00039e-06
-3.38997e-10
5.00049e-06
-4.16005e-10
5.00059e-06
-4.78845e-10
5.00072e-06
-5.96326e-10
5.00087e-06
-6.72128e-10
5.00105e-06
-8.63791e-10
5.00124e-06
-9.45483e-10
5.00148e-06
-1.27879e-09
5.00173e-06
-1.33056e-09
-1.89833e-09
5e-06
-1.14377e-11
5e-06
-3.59819e-11
5.00001e-06
-6.1229e-11
5.00002e-06
-8.89573e-11
5.00004e-06
-1.18582e-10
5.00006e-06
-1.52934e-10
5.0001e-06
-1.9008e-10
5.00013e-06
-2.35553e-10
5.00018e-06
-2.83115e-10
5.00024e-06
-3.45766e-10
5.00031e-06
-4.07476e-10
5.00039e-06
-4.96384e-10
5.00048e-06
-5.74663e-10
5.00059e-06
-7.07067e-10
5.00072e-06
-8.02689e-10
5.00087e-06
-1.01106e-09
5.00104e-06
-1.11487e-09
5.00122e-06
-1.46021e-09
5.00142e-06
-1.53181e-09
-2.16323e-09
5e-06
-1.37682e-11
5.00001e-06
-4.26338e-11
5.00002e-06
-7.19399e-11
5.00003e-06
-1.0349e-10
5.00005e-06
-1.3724e-10
5.00008e-06
-1.7615e-10
5.00011e-06
-2.18401e-10
5.00014e-06
-2.69884e-10
5.00018e-06
-3.24291e-10
5.00023e-06
-3.95056e-10
5.00029e-06
-4.65137e-10
5.00036e-06
-5.64778e-10
5.00044e-06
-6.53677e-10
5.00053e-06
-7.9975e-10
5.00063e-06
-9.07669e-10
5.00075e-06
-1.1326e-09
5.00089e-06
-1.24915e-09
5.00104e-06
-1.6142e-09
5.00121e-06
-1.69601e-09
-2.29397e-09
5e-06
-1.56023e-11
5.00001e-06
-4.70093e-11
5.00001e-06
-7.90738e-11
5.00002e-06
-1.1336e-10
5.00004e-06
-1.5024e-10
5.00005e-06
-1.93082e-10
5.00008e-06
-2.39662e-10
5.0001e-06
-2.96108e-10
5.00013e-06
-3.56232e-10
5.00017e-06
-4.33106e-10
5.00022e-06
-5.10555e-10
5.00027e-06
-6.18165e-10
5.00033e-06
-7.16368e-10
5.00041e-06
-8.71862e-10
5.00049e-06
-9.90802e-10
5.00058e-06
-1.22585e-09
5.00069e-06
-1.35344e-09
5.0008e-06
-1.72466e-09
5.00091e-06
-1.81067e-09
-2.4425e-09
5e-06
-1.66418e-11
5e-06
-5.00087e-11
5.00001e-06
-8.39761e-11
5.00002e-06
-1.20795e-10
5.00003e-06
-1.60235e-10
5.00004e-06
-2.06005e-10
5.00006e-06
-2.55736e-10
5.00008e-06
-3.15923e-10
5.0001e-06
-3.80024e-10
5.00013e-06
-4.61525e-10
5.00016e-06
-5.44132e-10
5.0002e-06
-6.57529e-10
5.00025e-06
-7.61832e-10
5.0003e-06
-9.24285e-10
5.00036e-06
-1.05e-09
5.00042e-06
-1.29243e-09
5.0005e-06
-1.42629e-09
5.00058e-06
-1.80517e-09
5.00067e-06
-1.89875e-09
-2.51659e-09
5e-06
-1.71583e-11
5e-06
-5.18004e-11
5.00001e-06
-8.70865e-11
5.00001e-06
-1.25464e-10
5.00002e-06
-1.66565e-10
5.00002e-06
-2.14023e-10
5.00003e-06
-2.6559e-10
5.00005e-06
-3.27917e-10
5.00006e-06
-3.94358e-10
5.00008e-06
-4.78615e-10
5.0001e-06
-5.64274e-10
5.00012e-06
-6.81007e-10
5.00015e-06
-7.89046e-10
5.00018e-06
-9.55577e-10
5.00022e-06
-1.08544e-09
5.00026e-06
-1.33207e-09
5.0003e-06
-1.47e-09
5.00035e-06
-1.8523e-09
5.00039e-06
-1.94615e-09
-2.5726e-09
5e-06
-1.73016e-11
5e-06
-5.2354e-11
5e-06
-8.81813e-11
5e-06
-1.2708e-10
5.00001e-06
-1.68749e-10
5.00001e-06
-2.16723e-10
5.00001e-06
-2.68917e-10
5.00002e-06
-3.31883e-10
5.00002e-06
-3.99146e-10
5.00003e-06
-4.84317e-10
5.00003e-06
-5.70989e-10
5.00004e-06
-6.88883e-10
5.00005e-06
-7.98191e-10
5.00006e-06
-9.65965e-10
5.00007e-06
-1.09725e-09
5.00009e-06
-1.34519e-09
5.0001e-06
-1.48448e-09
5.00012e-06
-1.8676e-09
5.00013e-06
-1.96336e-09
-2.58894e-09
5e-06
-1.71071e-11
5e-06
-5.17069e-11
5e-06
-8.71386e-11
5e-06
-1.25503e-10
4.99999e-06
-1.66648e-10
4.99999e-06
-2.14023e-10
4.99999e-06
-2.65661e-10
4.99998e-06
-3.27891e-10
4.99998e-06
-3.94415e-10
4.99997e-06
-4.78679e-10
4.99997e-06
-5.64253e-10
4.99996e-06
-6.81034e-10
4.99995e-06
-7.89023e-10
4.99994e-06
-9.55402e-10
4.99993e-06
-1.08526e-09
4.99991e-06
-1.33196e-09
4.9999e-06
-1.46999e-09
4.99988e-06
-1.85237e-09
4.99987e-06
-1.94633e-09
-2.57259e-09
5e-06
-1.6553e-11
5e-06
-4.99582e-11
4.99999e-06
-8.40595e-11
4.99999e-06
-1.20824e-10
4.99998e-06
-1.6035e-10
4.99998e-06
-2.05994e-10
4.99997e-06
-2.55793e-10
4.99995e-06
-3.15894e-10
4.99994e-06
-3.80017e-10
4.99992e-06
-4.61619e-10
4.9999e-06
-5.44153e-10
4.99988e-06
-6.57503e-10
4.99985e-06
-7.61799e-10
4.99982e-06
-9.24178e-10
4.99978e-06
-1.04986e-09
4.99974e-06
-1.29223e-09
4.9997e-06
-1.42619e-09
4.99965e-06
-1.80518e-09
4.99961e-06
-1.89893e-09
-2.51655e-09
5e-06
-1.55636e-11
5e-06
-4.70556e-11
4.99999e-06
-7.90654e-11
4.99998e-06
-1.13415e-10
4.99997e-06
-1.5028e-10
4.99996e-06
-1.93056e-10
4.99994e-06
-2.39602e-10
4.99992e-06
-2.96111e-10
4.9999e-06
-3.5609e-10
4.99987e-06
-4.33088e-10
4.99984e-06
-5.10652e-10
4.9998e-06
-6.18155e-10
4.99975e-06
-7.16347e-10
4.9997e-06
-8.71861e-10
4.99964e-06
-9.90782e-10
4.99958e-06
-1.22567e-09
4.9995e-06
-1.35329e-09
4.99942e-06
-1.7245e-09
4.99933e-06
-1.81065e-09
-2.44222e-09
5e-06
-1.38521e-11
4.99999e-06
-4.26791e-11
4.99999e-06
-7.18723e-11
4.99998e-06
-1.0353e-10
4.99996e-06
-1.37047e-10
4.99995e-06
-1.76197e-10
4.99992e-06
-2.18275e-10
4.9999e-06
-2.69996e-10
4.99987e-06
-3.24208e-10
4.99983e-06
-3.94826e-10
4.99978e-06
-4.65103e-10
4.99973e-06
-5.64784e-10
4.99967e-06
-6.53699e-10
4.99959e-06
-7.99778e-10
4.99951e-06
-9.0771e-10
4.99942e-06
-1.13249e-09
4.99931e-06
-1.24898e-09
4.9992e-06
-1.61384e-09
4.99909e-06
-1.69572e-09
-2.29353e-09
5e-06
-1.16009e-11
4.99999e-06
-3.60065e-11
4.99998e-06
-6.11559e-11
4.99997e-06
-8.88166e-11
4.99995e-06
-1.18453e-10
4.99992e-06
-1.53157e-10
4.99989e-06
-1.90066e-10
4.99986e-06
-2.35631e-10
4.99982e-06
-2.83374e-10
4.99977e-06
-3.45672e-10
4.99971e-06
-4.07328e-10
4.99964e-06
-4.96327e-10
4.99956e-06
-5.7469e-10
4.99947e-06
-7.07078e-10
4.99937e-06
-8.02768e-10
4.99925e-06
-1.01103e-09
4.99911e-06
-1.11479e-09
4.99896e-06
-1.45981e-09
4.99879e-06
-1.53145e-09
-2.16269e-09
5e-06
-1.26371e-11
5e-06
-3.29657e-11
4.99999e-06
-5.36054e-11
4.99998e-06
-7.64503e-11
4.99996e-06
-1.00774e-10
4.99994e-06
-1.29174e-10
4.9999e-06
-1.59205e-10
4.99987e-06
-1.97036e-10
4.99982e-06
-2.36063e-10
4.99976e-06
-2.89102e-10
4.99969e-06
-3.38931e-10
4.99961e-06
-4.15889e-10
4.99952e-06
-4.78799e-10
4.99941e-06
-5.96251e-10
4.99928e-06
-6.72153e-10
4.99913e-06
-8.6374e-10
4.99896e-06
-9.45462e-10
4.99878e-06
-1.27845e-09
4.99858e-06
-1.33021e-09
-1.89773e-09
4.99999e-06
-4.53866e-12
4.99998e-06
-2.00927e-11
4.99996e-06
-3.70998e-11
4.99994e-06
-5.5913e-11
4.99992e-06
-7.57035e-11
4.99989e-06
-9.79791e-11
4.99985e-06
-1.22364e-10
4.9998e-06
-1.5186e-10
4.99975e-06
-1.82281e-10
4.99968e-06
-2.24047e-10
4.99961e-06
-2.62803e-10
4.99951e-06
-3.23751e-10
4.99941e-06
-3.72275e-10
4.99928e-06
-4.6738e-10
4.99913e-06
-5.25289e-10
4.99895e-06
-6.8576e-10
4.99876e-06
-7.46919e-10
4.99852e-06
-1.04005e-09
4.99827e-06
-1.08239e-09
-1.68939e-09
5.00001e-06
-1.16716e-11
5.00001e-06
-1.88297e-11
5e-06
-2.90328e-11
4.99998e-06
-4.13953e-11
4.99996e-06
-5.35816e-11
4.99993e-06
-6.81643e-11
4.99989e-06
-8.42292e-11
4.99984e-06
-1.03986e-10
4.99979e-06
-1.23413e-10
4.99971e-06
-1.53299e-10
4.99963e-06
-1.77393e-10
4.99953e-06
-2.22377e-10
4.99941e-06
-2.50539e-10
4.99926e-06
-3.23997e-10
4.99909e-06
-3.5361e-10
4.99889e-06
-4.85384e-10
4.99865e-06
-5.08584e-10
4.99838e-06
-7.67103e-10
4.99806e-06
-7.59355e-10
-1.26164e-09
4.99998e-06
1.01714e-11
4.99996e-06
-4.32411e-12
4.99995e-06
-1.28563e-11
4.99992e-06
-1.92325e-11
4.9999e-06
-2.59283e-11
4.99986e-06
-3.00029e-11
4.99982e-06
-4.3044e-11
4.99977e-06
-4.54427e-11
4.99971e-06
-6.23762e-11
4.99963e-06
-7.82379e-11
4.99955e-06
-9.03329e-11
4.99944e-06
-1.14206e-10
4.99931e-06
-1.27057e-10
4.99916e-06
-1.67804e-10
4.99898e-06
-1.77955e-10
4.99875e-06
-2.56572e-10
4.9985e-06
-2.55949e-10
4.99817e-06
-4.31469e-10
4.99782e-06
-4.13988e-10
-8.91688e-10
5.00001e-06
5.00001e-06
4.99999e-06
4.99997e-06
4.99995e-06
4.99991e-06
4.99987e-06
4.99982e-06
4.99975e-06
4.99968e-06
4.99959e-06
4.99947e-06
4.99934e-06
4.99918e-06
4.999e-06
4.99874e-06
4.99849e-06
4.99805e-06
4.99764e-06
)
;

boundaryField
{
    sides
    {
        type            calculated;
        value           uniform 0;
    }
    inlet
    {
        type            calculated;
        value           nonuniform List<scalar> 
20
(
-5e-06
-5e-06
-5e-06
-5e-06
-5e-06
-5e-06
-5e-06
-5e-06
-5e-06
-5e-06
-5e-06
-5e-06
-5e-06
-5e-06
-5e-06
-5e-06
-5e-06
-5e-06
-5e-06
-5e-06
)
;
    }
    outlet
    {
        type            calculated;
        value           nonuniform List<scalar> 
20
(
5.00325e-06
5.00255e-06
5.00237e-06
5.00194e-06
5.00169e-06
5.00134e-06
5.00106e-06
5.00074e-06
5.00045e-06
5.00015e-06
4.99985e-06
4.99955e-06
4.99926e-06
4.99894e-06
4.99866e-06
4.99831e-06
4.99806e-06
4.99763e-06
4.99745e-06
4.99675e-06
)
;
    }
    frontAndBack
    {
        type            empty;
        value           nonuniform 0();
    }
}


// ************************************************************************* //
