/*--------------------------------*- C++ -*----------------------------------*\
  =========                 |
  \\      /  F ield         | OpenFOAM: The Open Source CFD Toolbox
   \\    /   O peration     | Website:  https://openfoam.org
    \\  /    A nd           | Version:  7
     \\/     M anipulation  |
\*---------------------------------------------------------------------------*/
FoamFile
{
    version     2.0;
    format      ascii;
    class       volVectorField;
    location    "3";
    object      ddt0(hU);
}
// * * * * * * * * * * * * * * * * * * * * * * * * * * * * * * * * * * * * * //

dimensions      [0 2 -2 0 0 0 0];

internalField   nonuniform List<vector> 
400
(
(-1.51991e-09 7.54285e-10 0)
(2.5659e-09 1.26115e-09 0)
(5.3535e-09 1.5486e-08 0)
(-9.18767e-09 2.92716e-08 0)
(-3.38738e-08 2.4106e-08 0)
(-4.98731e-08 7.00993e-09 0)
(-5.05191e-08 -8.81847e-09 0)
(-3.77269e-08 -1.70892e-08 0)
(-1.67957e-08 -1.90967e-08 0)
(3.89185e-09 -1.81228e-08 0)
(2.02184e-08 -1.66011e-08 0)
(3.54617e-08 -1.58369e-08 0)
(4.90294e-08 -1.5923e-08 0)
(6.57608e-08 -1.62784e-08 0)
(7.53196e-08 -1.59668e-08 0)
(9.43841e-08 -1.9396e-08 0)
(9.66635e-08 -1.59848e-08 0)
(1.19172e-07 -2.46895e-08 0)
(1.16627e-07 -2.23672e-08 0)
(1.49766e-07 -3.20944e-08 0)
(-2.1185e-09 3.4433e-09 0)
(4.15889e-09 2.62732e-09 0)
(7.44007e-09 1.02005e-08 0)
(-1.05635e-08 3.02008e-08 0)
(-3.2553e-08 4.29724e-08 0)
(-4.27158e-08 4.28115e-08 0)
(-4.20424e-08 3.69433e-08 0)
(-3.1604e-08 3.27138e-08 0)
(-1.38559e-08 3.18329e-08 0)
(4.05494e-09 3.35668e-08 0)
(1.8333e-08 3.62007e-08 0)
(3.1543e-08 3.75634e-08 0)
(4.49039e-08 3.76876e-08 0)
(5.94118e-08 3.75713e-08 0)
(7.10414e-08 3.82448e-08 0)
(8.52569e-08 3.31981e-08 0)
(9.13715e-08 3.69973e-08 0)
(1.08202e-07 2.33661e-08 0)
(1.0802e-07 2.30051e-08 0)
(1.33934e-07 5.94222e-09 0)
(-2.80038e-10 6.86298e-09 0)
(3.75578e-09 1.34902e-08 0)
(1.96222e-09 3.50477e-08 0)
(-1.41449e-08 5.834e-08 0)
(-3.36511e-08 6.18903e-08 0)
(-4.35007e-08 4.60509e-08 0)
(-4.34342e-08 2.7527e-08 0)
(-3.3824e-08 1.69087e-08 0)
(-1.66732e-08 1.38111e-08 0)
(9.03161e-10 1.51744e-08 0)
(1.46275e-08 1.86646e-08 0)
(2.70386e-08 2.14184e-08 0)
(4.01647e-08 2.27057e-08 0)
(5.38758e-08 2.29538e-08 0)
(6.50621e-08 2.26794e-08 0)
(7.74246e-08 1.63571e-08 0)
(8.19608e-08 1.48008e-08 0)
(9.82141e-08 -2.20589e-09 0)
(9.48939e-08 -9.13736e-09 0)
(1.21245e-07 -3.71589e-08 0)
(-1.34145e-09 1.1743e-08 0)
(8.58549e-09 2.33163e-08 0)
(2.82431e-09 6.37037e-08 0)
(-1.82864e-08 1.03024e-07 0)
(-3.52957e-08 1.11137e-07 0)
(-4.17719e-08 9.45704e-08 0)
(-4.11794e-08 7.5679e-08 0)
(-3.31688e-08 6.61883e-08 0)
(-1.84466e-08 6.41533e-08 0)
(-2.95479e-09 6.56082e-08 0)
(9.14566e-09 6.95266e-08 0)
(1.97799e-08 7.39339e-08 0)
(3.10297e-08 7.66144e-08 0)
(4.23111e-08 7.70401e-08 0)
(5.10804e-08 7.54951e-08 0)
(5.97273e-08 6.56366e-08 0)
(6.29963e-08 5.95998e-08 0)
(7.35969e-08 3.40403e-08 0)
(7.16729e-08 2.29882e-08 0)
(8.86017e-08 -1.91686e-08 0)
(-1.69144e-09 1.57991e-08 0)
(9.98837e-09 3.64219e-08 0)
(4.93346e-09 8.26256e-08 0)
(-1.58642e-08 1.24645e-07 0)
(-3.08483e-08 1.30093e-07 0)
(-3.66945e-08 1.08689e-07 0)
(-3.77099e-08 8.66977e-08 0)
(-3.25801e-08 7.61278e-08 0)
(-2.08475e-08 7.32976e-08 0)
(-6.85455e-09 7.32955e-08 0)
(5.19666e-09 7.61812e-08 0)
(1.54736e-08 8.12483e-08 0)
(2.52279e-08 8.49451e-08 0)
(3.36228e-08 8.52223e-08 0)
(3.89929e-08 8.18849e-08 0)
(4.33433e-08 6.89256e-08 0)
(4.35235e-08 5.69335e-08 0)
(5.04908e-08 2.69667e-08 0)
(4.64578e-08 1.22016e-08 0)
(6.04517e-08 -3.30254e-08 0)
(-7.31086e-10 2.24112e-08 0)
(1.39166e-08 5.6757e-08 0)
(4.80749e-09 1.14411e-07 0)
(-1.53544e-08 1.56858e-07 0)
(-2.68582e-08 1.56387e-07 0)
(-3.08099e-08 1.29134e-07 0)
(-3.18758e-08 1.04412e-07 0)
(-2.86165e-08 9.35802e-08 0)
(-1.97281e-08 9.11143e-08 0)
(-7.23955e-09 9.05704e-08 0)
(5.18079e-09 9.20143e-08 0)
(1.53634e-08 9.62935e-08 0)
(2.28962e-08 9.95893e-08 0)
(2.71183e-08 9.7729e-08 0)
(2.74845e-08 9.05437e-08 0)
(2.65909e-08 7.33016e-08 0)
(2.3253e-08 5.55507e-08 0)
(2.67257e-08 2.20217e-08 0)
(2.28821e-08 8.45541e-09 0)
(3.20439e-08 -3.64929e-08 0)
(-2.44934e-09 2.40576e-08 0)
(1.50024e-08 7.01574e-08 0)
(7.43171e-09 1.34484e-07 0)
(-1.12871e-08 1.74629e-07 0)
(-1.93577e-08 1.67305e-07 0)
(-2.13639e-08 1.34021e-07 0)
(-2.21992e-08 1.05656e-07 0)
(-2.05339e-08 9.29052e-08 0)
(-1.421e-08 8.94677e-08 0)
(-2.93823e-09 8.7512e-08 0)
(1.03253e-08 8.56465e-08 0)
(2.09449e-08 8.55462e-08 0)
(2.61562e-08 8.50097e-08 0)
(2.57359e-08 7.89941e-08 0)
(2.09514e-08 6.68828e-08 0)
(1.53247e-08 4.71321e-08 0)
(9.26104e-09 2.86928e-08 0)
(1.05578e-08 -1.96852e-09 0)
(7.99873e-09 -7.57482e-09 0)
(1.41789e-08 -4.47821e-08 0)
(-2.10427e-09 1.94934e-08 0)
(1.36913e-08 7.85983e-08 0)
(7.14046e-09 1.46425e-07 0)
(-6.90539e-09 1.81654e-07 0)
(-1.17493e-08 1.66781e-07 0)
(-1.25674e-08 1.27505e-07 0)
(-1.322e-08 9.52925e-08 0)
(-1.23743e-08 8.03402e-08 0)
(-7.59615e-09 7.61692e-08 0)
(2.51343e-09 7.35035e-08 0)
(1.56612e-08 6.80196e-08 0)
(2.61028e-08 6.04474e-08 0)
(2.93031e-08 5.15539e-08 0)
(2.51463e-08 3.92518e-08 0)
(1.67249e-08 2.33411e-08 0)
(8.57669e-09 4.21933e-09 0)
(2.01663e-09 -9.23634e-09 0)
(2.66446e-09 -3.11428e-08 0)
(2.07278e-09 -2.49968e-08 0)
(6.51347e-09 -5.20896e-08 0)
(-1.23855e-09 1.24019e-08 0)
(9.02414e-09 8.02084e-08 0)
(5.23339e-09 1.52068e-07 0)
(-3.55397e-09 1.83394e-07 0)
(-6.16913e-09 1.6303e-07 0)
(-6.41637e-09 1.19964e-07 0)
(-6.70034e-09 8.56706e-08 0)
(-5.94914e-09 6.98098e-08 0)
(-2.35848e-09 6.57589e-08 0)
(5.27547e-09 6.30582e-08 0)
(1.54172e-08 5.44289e-08 0)
(2.34343e-08 3.84758e-08 0)
(2.50819e-08 1.85711e-08 0)
(2.008e-08 -1.38279e-09 0)
(1.17576e-08 -1.83713e-08 0)
(4.49894e-09 -3.22074e-08 0)
(-1.88952e-10 -3.69381e-08 0)
(7.60491e-10 -4.93422e-08 0)
(1.71256e-09 -3.44746e-08 0)
(5.19295e-09 -5.59389e-08 0)
(-5.22988e-10 6.55689e-09 0)
(3.10053e-09 8.0335e-08 0)
(1.87229e-09 1.55297e-07 0)
(-1.08839e-09 1.85123e-07 0)
(-1.86685e-09 1.62656e-07 0)
(-1.86503e-09 1.1852e-07 0)
(-1.8728e-09 8.40044e-08 0)
(-1.47254e-09 6.83428e-08 0)
(-2.30548e-11 6.47568e-08 0)
(2.90586e-09 6.21855e-08 0)
(6.76542e-09 5.16516e-08 0)
(9.80389e-09 3.00665e-08 0)
(1.02947e-08 2.06908e-09 0)
(8.06066e-09 -2.36305e-08 0)
(4.53221e-09 -4.02512e-08 0)
(1.58642e-09 -4.81367e-08 0)
(-7.23706e-11 -4.5275e-08 0)
(4.77564e-10 -5.19027e-08 0)
(1.17512e-09 -3.42815e-08 0)
(2.64113e-09 -5.60221e-08 0)
(5.21407e-10 6.55868e-09 0)
(-3.09921e-09 8.03339e-08 0)
(-1.86302e-09 1.55294e-07 0)
(1.10385e-09 1.8512e-07 0)
(1.88535e-09 1.62655e-07 0)
(1.88508e-09 1.1852e-07 0)
(1.89363e-09 8.40044e-08 0)
(1.49391e-09 6.83424e-08 0)
(4.45795e-11 6.47567e-08 0)
(-2.88586e-09 6.21862e-08 0)
(-6.75006e-09 5.16534e-08 0)
(-9.7967e-09 3.00691e-08 0)
(-1.02972e-08 2.07245e-09 0)
(-8.07069e-09 -2.36255e-08 0)
(-4.54437e-09 -4.02445e-08 0)
(-1.59882e-09 -4.81301e-08 0)
(6.50772e-11 -4.5271e-08 0)
(-4.93253e-10 -5.19006e-08 0)
(-1.1832e-09 -3.42821e-08 0)
(-2.66572e-09 -5.6021e-08 0)
(1.23628e-09 1.2406e-08 0)
(-9.02265e-09 8.02046e-08 0)
(-5.22407e-09 1.52058e-07 0)
(3.56946e-09 1.83388e-07 0)
(6.18829e-09 1.6303e-07 0)
(6.43752e-09 1.19967e-07 0)
(6.72258e-09 8.56742e-08 0)
(5.97255e-09 6.98133e-08 0)
(2.38308e-09 6.57634e-08 0)
(-5.25138e-09 6.30651e-08 0)
(-1.53974e-08 5.44385e-08 0)
(-2.34227e-08 3.84872e-08 0)
(-2.50799e-08 1.85849e-08 0)
(-2.00856e-08 -1.36476e-09 0)
(-1.17661e-08 -1.83494e-08 0)
(-4.50949e-09 -3.21852e-08 0)
(1.82085e-10 -3.69213e-08 0)
(-7.75339e-10 -4.93291e-08 0)
(-1.71804e-09 -3.44707e-08 0)
(-5.21356e-09 -5.59331e-08 0)
(2.10311e-09 1.94923e-08 0)
(-1.3689e-08 7.85886e-08 0)
(-7.12957e-09 1.46409e-07 0)
(6.92252e-09 1.81644e-07 0)
(1.17712e-08 1.66782e-07 0)
(1.25922e-08 1.27512e-07 0)
(1.32468e-08 9.53021e-08 0)
(1.24032e-08 8.03508e-08 0)
(7.62737e-09 7.61825e-08 0)
(-2.48206e-09 7.35205e-08 0)
(-1.56343e-08 6.80394e-08 0)
(-2.60846e-08 6.04692e-08 0)
(-2.92944e-08 5.15795e-08 0)
(-2.51454e-08 3.92833e-08 0)
(-1.67286e-08 2.33771e-08 0)
(-8.58521e-09 4.25678e-09 0)
(-2.02381e-09 -9.20353e-09 0)
(-2.67984e-09 -3.11127e-08 0)
(-2.07783e-09 -2.49823e-08 0)
(-6.53387e-09 -5.20767e-08 0)
(2.45292e-09 2.40497e-08 0)
(-1.49942e-08 7.01343e-08 0)
(-7.4189e-09 1.34456e-07 0)
(1.13051e-08 1.74608e-07 0)
(1.93809e-08 1.673e-07 0)
(2.13911e-08 1.34025e-07 0)
(2.22292e-08 1.05664e-07 0)
(2.05671e-08 9.29148e-08 0)
(1.4246e-08 8.94811e-08 0)
(2.97366e-09 8.7529e-08 0)
(-1.02959e-08 8.56651e-08 0)
(-2.09248e-08 8.55666e-08 0)
(-2.61454e-08 8.50347e-08 0)
(-2.57338e-08 7.90248e-08 0)
(-2.09559e-08 6.69182e-08 0)
(-1.53368e-08 4.71711e-08 0)
(-9.27454e-09 2.87293e-08 0)
(-1.05806e-08 -1.93097e-09 0)
(-8.01255e-09 -7.55483e-09 0)
(-1.42093e-08 -4.47635e-08 0)
(7.26255e-10 2.24004e-08 0)
(-1.39069e-08 5.67282e-08 0)
(-4.79046e-09 1.14371e-07 0)
(1.53715e-08 1.56824e-07 0)
(2.68787e-08 1.56368e-07 0)
(3.08342e-08 1.29125e-07 0)
(3.19033e-08 1.04405e-07 0)
(2.86477e-08 9.35738e-08 0)
(1.97617e-08 9.11101e-08 0)
(7.27026e-09 9.05675e-08 0)
(-5.15838e-09 9.20109e-08 0)
(-1.53512e-08 9.62912e-08 0)
(-2.28933e-08 9.95907e-08 0)
(-2.71247e-08 9.77348e-08 0)
(-2.74985e-08 9.05538e-08 0)
(-2.66144e-08 7.33171e-08 0)
(-2.32802e-08 5.55664e-08 0)
(-2.67636e-08 2.20443e-08 0)
(-2.29134e-08 8.46439e-09 0)
(-3.2093e-08 -3.6478e-08 0)
(1.69166e-09 1.57902e-08 0)
(-9.98293e-09 3.64017e-08 0)
(-4.9219e-09 8.25893e-08 0)
(1.58748e-08 1.24604e-07 0)
(3.08604e-08 1.30063e-07 0)
(3.67098e-08 1.08669e-07 0)
(3.77288e-08 8.66797e-08 0)
(3.26033e-08 7.61089e-08 0)
(2.0872e-08 7.32781e-08 0)
(6.87386e-09 7.32738e-08 0)
(-5.18725e-09 7.61569e-08 0)
(-1.54746e-08 8.12241e-08 0)
(-2.52381e-08 8.49228e-08 0)
(-3.36425e-08 8.52028e-08 0)
(-3.90201e-08 8.18685e-08 0)
(-4.33799e-08 6.89163e-08 0)
(-4.35646e-08 5.69267e-08 0)
(-5.0542e-08 2.69736e-08 0)
(-4.65071e-08 1.22031e-08 0)
(-6.05137e-08 -3.30049e-08 0)
(1.34004e-09 1.17328e-08 0)
(-8.577e-09 2.32914e-08 0)
(-2.82116e-09 6.36608e-08 0)
(1.82854e-08 1.02977e-07 0)
(3.52988e-08 1.11099e-07 0)
(4.17813e-08 9.4538e-08 0)
(4.11948e-08 7.56453e-08 0)
(3.31895e-08 6.61511e-08 0)
(1.84678e-08 6.41129e-08 0)
(2.96919e-09 6.55638e-08 0)
(-9.14145e-09 6.94789e-08 0)
(-1.97853e-08 7.38856e-08 0)
(-3.10438e-08 7.6566e-08 0)
(-4.23342e-08 7.69926e-08 0)
(-5.11096e-08 7.54485e-08 0)
(-5.97652e-08 6.55965e-08 0)
(-6.30368e-08 5.95602e-08 0)
(-7.36488e-08 3.40155e-08 0)
(-7.17223e-08 2.29618e-08 0)
(-8.86647e-08 -1.91732e-08 0)
(2.80402e-10 6.85405e-09 0)
(-3.7521e-09 1.34709e-08 0)
(-1.95978e-09 3.50152e-08 0)
(1.41415e-08 5.83068e-08 0)
(3.36443e-08 6.18638e-08 0)
(4.34959e-08 4.60304e-08 0)
(4.3434e-08 2.75057e-08 0)
(3.3828e-08 1.68825e-08 0)
(1.66757e-08 1.37787e-08 0)
(-9.08926e-10 1.51358e-08 0)
(-1.46432e-08 1.86227e-08 0)
(-2.7063e-08 2.13762e-08 0)
(-4.01969e-08 2.26629e-08 0)
(-5.39156e-08 2.29122e-08 0)
(-6.51068e-08 2.26373e-08 0)
(-7.74743e-08 1.63233e-08 0)
(-8.20146e-08 1.47644e-08 0)
(-9.8272e-08 -2.22234e-09 0)
(-9.49557e-08 -9.15474e-09 0)
(-1.21313e-07 -3.71381e-08 0)
(2.11874e-09 3.43918e-09 0)
(-4.15605e-09 2.62239e-09 0)
(-7.43891e-09 1.01905e-08 0)
(1.0556e-08 3.01759e-08 0)
(3.25407e-08 4.29457e-08 0)
(4.27124e-08 4.279e-08 0)
(4.20544e-08 3.69251e-08 0)
(3.16293e-08 3.26954e-08 0)
(1.38847e-08 3.1812e-08 0)
(-4.03165e-09 3.3542e-08 0)
(-1.83174e-08 3.61734e-08 0)
(-3.15349e-08 3.75353e-08 0)
(-4.49033e-08 3.7658e-08 0)
(-5.94186e-08 3.75409e-08 0)
(-7.10515e-08 3.82116e-08 0)
(-8.52716e-08 3.31703e-08 0)
(-9.13865e-08 3.69632e-08 0)
(-1.08221e-07 2.33428e-08 0)
(-1.0804e-07 2.29832e-08 0)
(-1.33948e-07 5.93383e-09 0)
(1.51993e-09 7.52669e-10 0)
(-2.56011e-09 1.25637e-09 0)
(-5.35469e-09 1.54813e-08 0)
(9.173e-09 2.92637e-08 0)
(3.38585e-08 2.40992e-08 0)
(4.98599e-08 6.99991e-09 0)
(5.05085e-08 -8.83357e-09 0)
(3.77175e-08 -1.71064e-08 0)
(1.67813e-08 -1.91131e-08 0)
(-3.91566e-09 -1.81377e-08 0)
(-2.02504e-08 -1.66145e-08 0)
(-3.54997e-08 -1.58486e-08 0)
(-4.90754e-08 -1.59342e-08 0)
(-6.58108e-08 -1.62872e-08 0)
(-7.53758e-08 -1.5978e-08 0)
(-9.44395e-08 -1.93984e-08 0)
(-9.67216e-08 -1.59954e-08 0)
(-1.19234e-07 -2.46883e-08 0)
(-1.16689e-07 -2.23652e-08 0)
(-1.49831e-07 -3.20908e-08 0)
)
;

boundaryField
{
    sides
    {
        type            calculated;
        value           nonuniform List<vector> 
40
(
(1.51993e-09 0 0)
(-2.56011e-09 0 0)
(-5.35469e-09 0 0)
(9.173e-09 0 0)
(3.38585e-08 0 0)
(4.98599e-08 0 0)
(5.05085e-08 0 0)
(3.77175e-08 0 0)
(1.67813e-08 0 0)
(-3.91566e-09 0 0)
(-2.02504e-08 0 0)
(-3.54997e-08 0 0)
(-4.90754e-08 0 0)
(-6.58108e-08 0 0)
(-7.53758e-08 0 0)
(-9.44395e-08 0 0)
(-9.67216e-08 0 0)
(-1.19234e-07 0 0)
(-1.16689e-07 0 0)
(-1.49831e-07 0 0)
(-1.51991e-09 0 0)
(2.5659e-09 0 0)
(5.3535e-09 0 0)
(-9.18767e-09 0 0)
(-3.38738e-08 0 0)
(-4.98731e-08 0 0)
(-5.05191e-08 0 0)
(-3.77269e-08 0 0)
(-1.67957e-08 0 0)
(3.89185e-09 0 0)
(2.02184e-08 0 0)
(3.54617e-08 0 0)
(4.90294e-08 0 0)
(6.57608e-08 0 0)
(7.53196e-08 0 0)
(9.43841e-08 0 0)
(9.66635e-08 0 0)
(1.19172e-07 0 0)
(1.16627e-07 0 0)
(1.49766e-07 0 0)
)
;
    }
    inlet
    {
        type            calculated;
        value           uniform (0 0 0);
    }
    outlet
    {
        type            calculated;
        value           nonuniform List<vector> 
20
(
(1.49766e-07 -3.20944e-08 0)
(1.33934e-07 5.94222e-09 0)
(1.21245e-07 -3.71589e-08 0)
(8.86017e-08 -1.91686e-08 0)
(6.04517e-08 -3.30254e-08 0)
(3.20439e-08 -3.64929e-08 0)
(1.41789e-08 -4.47821e-08 0)
(6.51347e-09 -5.20896e-08 0)
(5.19295e-09 -5.59389e-08 0)
(2.64113e-09 -5.60221e-08 0)
(-2.66572e-09 -5.6021e-08 0)
(-5.21356e-09 -5.59331e-08 0)
(-6.53387e-09 -5.20767e-08 0)
(-1.42093e-08 -4.47635e-08 0)
(-3.2093e-08 -3.6478e-08 0)
(-6.05137e-08 -3.30049e-08 0)
(-8.86647e-08 -1.91732e-08 0)
(-1.21313e-07 -3.71381e-08 0)
(-1.33948e-07 5.93383e-09 0)
(-1.49831e-07 -3.20908e-08 0)
)
;
    }
    frontAndBack
    {
        type            empty;
    }
}


// ************************************************************************* //
