/*--------------------------------*- C++ -*----------------------------------*\
  =========                 |
  \\      /  F ield         | OpenFOAM: The Open Source CFD Toolbox
   \\    /   O peration     | Website:  https://openfoam.org
    \\  /    A nd           | Version:  7
     \\/     M anipulation  |
\*---------------------------------------------------------------------------*/
FoamFile
{
    version     2.0;
    format      ascii;
    class       surfaceScalarField;
    location    "3";
    object      ddtCorrDdt0(phi);
}
// * * * * * * * * * * * * * * * * * * * * * * * * * * * * * * * * * * * * * //

dimensions      [0 4 -2 0 0 0 0];

internalField   nonuniform List<scalar> 
760
(
1.51453e-12
-2.94803e-12
1.24844e-11
4.66871e-12
-2.26581e-11
6.26774e-11
-9.96922e-11
1.12717e-10
-2.05488e-10
1.42474e-10
-2.65177e-10
1.12349e-10
-2.3895e-10
6.71583e-11
-1.35574e-10
3.97745e-11
-1.70466e-11
3.35312e-11
6.65244e-11
3.99857e-11
1.38793e-10
4.88707e-11
2.18993e-10
5.30807e-11
2.86575e-10
5.39323e-11
3.58281e-10
5.37219e-11
4.22679e-10
5.67144e-11
4.8791e-10
3.96608e-11
5.32542e-10
5.50993e-11
6.04632e-10
6.17105e-12
6.53778e-10
9.18812e-12
-5.96641e-11
5.91934e-12
2.76649e-11
2.23911e-11
2.46563e-11
-1.78545e-11
1.62426e-10
-1.05302e-10
2.5393e-10
-1.84339e-10
2.81215e-10
-2.25294e-10
2.28532e-10
-2.0264e-10
1.59315e-10
-1.15216e-10
1.1945e-10
-1.00874e-11
1.10431e-10
6.38675e-11
1.19697e-10
1.23777e-10
1.3505e-10
1.96112e-10
1.44746e-10
2.62126e-10
1.48033e-10
3.29189e-10
1.47501e-10
3.93554e-10
1.48378e-10
4.48671e-10
1.18156e-10
5.00403e-10
1.26013e-10
5.54191e-10
4.46183e-11
5.97623e-10
2.69775e-11
-8.43116e-11
1.19716e-11
3.58804e-11
-5.97728e-12
7.76185e-11
-3.17927e-11
2.23838e-10
-1.12643e-10
3.90514e-10
-1.90031e-10
4.31026e-10
-2.3034e-10
3.59355e-10
-2.12707e-10
2.70995e-10
-1.31311e-10
2.22444e-10
-2.54254e-11
2.09872e-10
5.03194e-11
2.17501e-10
1.0336e-10
2.36957e-10
1.70952e-10
2.5499e-10
2.38426e-10
2.64966e-10
2.99787e-10
2.67701e-10
3.61693e-10
2.64222e-10
4.03921e-10
2.25936e-10
4.54513e-10
2.07144e-10
4.90647e-10
1.03751e-10
5.27405e-10
5.70965e-11
-1.27792e-10
3.42738e-11
7.38842e-11
1.11928e-11
1.84177e-10
-4.73834e-11
3.76413e-10
-1.2555e-10
5.60712e-10
-1.88917e-10
5.92251e-10
-2.18743e-10
4.98162e-10
-2.04368e-10
3.97302e-10
-1.37089e-10
3.48126e-10
-4.26073e-11
3.36859e-10
2.91374e-11
3.42471e-10
7.38931e-11
3.62662e-10
1.29016e-10
3.88713e-10
1.88805e-10
4.05584e-10
2.36706e-10
4.08513e-10
2.83105e-10
3.96978e-10
3.1362e-10
3.40515e-10
3.44489e-10
2.96108e-10
3.75463e-10
1.52278e-10
3.89506e-10
8.21835e-11
-1.35576e-10
2.84349e-11
9.71728e-11
2.69555e-11
2.54988e-10
-3.15786e-11
5.12102e-10
-1.08343e-10
7.21302e-10
-1.6534e-10
7.3451e-10
-1.95451e-10
6.14587e-10
-1.92637e-10
5.00254e-10
-1.45259e-10
4.49381e-10
-6.4239e-11
4.38088e-10
1.0083e-11
4.38455e-10
5.80041e-11
4.52575e-10
1.04768e-10
4.80388e-10
1.5505e-10
5.00892e-10
1.86781e-10
4.99165e-10
2.11691e-10
4.74551e-10
2.24861e-10
3.95678e-10
2.35778e-10
3.157e-10
2.49514e-10
1.50224e-10
2.52121e-10
7.04527e-11
-1.66375e-10
5.80756e-11
1.24597e-10
3.08091e-11
3.14163e-10
-2.9847e-11
6.3176e-10
-9.6812e-11
8.40961e-10
-1.40984e-10
8.23289e-10
-1.63652e-10
6.73783e-10
-1.64991e-10
5.43084e-10
-1.34722e-10
4.85666e-10
-6.95186e-11
4.70881e-10
6.99381e-12
4.63459e-10
6.37331e-11
4.6318e-10
1.02605e-10
4.78641e-10
1.3479e-10
4.91447e-10
1.45225e-10
4.74338e-10
1.38695e-10
4.26653e-10
1.28992e-10
3.31482e-10
1.2236e-10
2.31662e-10
1.25589e-10
5.98771e-11
1.26412e-10
3.07507e-12
-2.05554e-10
5.33551e-11
1.14207e-10
4.96156e-11
3.85612e-10
-1.49615e-11
7.12015e-10
-6.90948e-11
9.00372e-10
-9.92368e-11
8.44886e-10
-1.13319e-10
6.63128e-10
-1.16775e-10
5.1106e-10
-1.01047e-10
4.40824e-10
-5.15892e-11
4.20274e-10
2.55399e-11
4.06608e-10
9.5384e-11
3.87256e-10
1.32165e-10
3.71509e-10
1.40933e-10
3.54787e-10
1.25847e-10
3.11786e-10
9.25208e-11
2.37038e-10
5.93984e-11
1.32538e-10
4.17572e-11
4.61523e-11
4.27816e-11
-8.98699e-11
4.91505e-11
-8.93543e-11
-2.45973e-10
5.45178e-11
8.25851e-11
4.41287e-11
3.97421e-10
-3.22406e-12
7.41707e-10
-4.05435e-11
9.07226e-10
-5.89708e-11
8.16097e-10
-6.69949e-11
6.07182e-10
-7.05243e-11
4.38053e-10
-6.22111e-11
3.58779e-10
-2.44859e-11
3.36884e-10
4.68312e-11
3.22225e-10
1.21945e-10
2.84815e-10
1.59578e-10
2.24271e-10
1.49678e-10
1.53028e-10
1.10016e-10
7.32699e-11
6.06442e-11
-1.258e-11
1.94393e-11
-1.0126e-10
1.24779e-12
-1.49388e-10
6.44672e-12
-2.30732e-10
2.03265e-11
-1.67802e-10
-2.76008e-10
3.68838e-11
4.46507e-11
3.03155e-11
3.99587e-10
1.74922e-12
7.60783e-10
-2.036e-11
9.15287e-10
-3.0421e-11
8.06771e-10
-3.41357e-11
5.8751e-10
-3.53516e-11
4.14567e-10
-2.90142e-11
3.35445e-10
-2.45558e-12
3.16847e-10
5.005e-11
3.03979e-10
1.09738e-10
2.53591e-10
1.40929e-10
1.52635e-10
1.26176e-10
2.3807e-11
8.14905e-11
-9.57453e-11
3.40952e-11
-1.79041e-10
1.70745e-12
-2.27981e-10
-7.22028e-12
-2.24972e-10
3.2684e-12
-2.6468e-10
1.92684e-11
-1.77261e-10
-2.80556e-10
1.23628e-11
2.57267e-11
1.05561e-11
3.98645e-10
1.04519e-12
7.71025e-10
-6.00878e-12
9.24162e-10
-8.99976e-12
8.1303e-10
-9.77979e-12
5.93536e-10
-9.57871e-12
4.22128e-10
-6.61586e-12
3.45067e-10
3.48267e-12
3.28611e-10
2.30628e-11
3.16648e-10
4.59257e-11
2.6138e-10
5.83078e-11
1.4405e-10
5.16876e-11
-1.0013e-11
3.1879e-11
-1.48079e-10
1.16676e-11
-2.28723e-10
-6.71576e-13
-2.54734e-10
-2.38435e-12
-2.24792e-10
3.57182e-12
-2.48868e-10
1.09801e-11
-1.61002e-10
-2.75328e-10
-1.23718e-11
4.46683e-11
-1.05445e-11
3.99577e-10
-9.92088e-13
7.60751e-10
6.09684e-12
9.15261e-10
9.10159e-12
8.06763e-10
9.88412e-12
5.8751e-10
9.68581e-12
4.14565e-10
6.72615e-12
3.3544e-10
-3.37414e-12
3.16843e-10
-2.29683e-11
3.03984e-10
-4.58659e-11
2.53607e-10
-5.83025e-11
1.52658e-10
-5.17359e-11
2.38375e-11
-3.19534e-11
-9.56996e-11
-1.17355e-11
-1.7898e-10
6.21113e-13
-2.27922e-10
2.34068e-12
-2.24941e-10
-3.63718e-12
-2.64667e-10
-1.10586e-11
-1.77272e-10
-2.80546e-10
-3.68925e-11
8.26062e-11
-3.03033e-11
3.97395e-10
-1.69588e-12
7.41653e-10
2.04497e-11
9.07189e-10
3.05268e-11
8.16103e-10
3.42458e-11
6.07213e-10
3.54665e-11
4.38088e-10
2.91368e-11
3.58815e-10
2.58335e-12
3.36929e-10
-4.99322e-11
3.22286e-10
-1.09657e-10
2.84891e-10
-1.40904e-10
2.24356e-10
-1.262e-10
1.53128e-10
-8.15394e-11
7.33954e-11
-3.41494e-11
-1.24334e-11
-1.75873e-12
-1.01112e-10
7.17315e-12
-1.49269e-10
-3.32537e-12
-2.30634e-10
-1.93257e-11
-1.67767e-10
-2.75967e-10
-5.45183e-11
1.14174e-10
-4.41095e-11
3.85539e-10
3.28601e-12
7.11913e-10
4.06437e-11
9.00305e-10
5.90921e-11
8.44887e-10
6.71248e-11
6.63173e-10
7.06632e-11
5.11119e-10
6.23643e-11
4.40893e-10
2.46511e-11
4.20362e-10
-4.66765e-11
4.06717e-10
-1.21834e-10
3.87377e-10
-1.59522e-10
3.7164e-10
-1.49664e-10
3.5494e-10
-1.10032e-10
3.1197e-10
-6.06811e-11
2.37245e-10
-1.94908e-11
1.32756e-10
-1.30397e-12
4.635e-11
-6.50822e-12
-8.96832e-11
-2.0378e-11
-8.92603e-11
-2.45895e-10
-5.33134e-11
1.24543e-10
-4.95801e-11
3.1401e-10
1.50312e-11
6.31589e-10
6.92002e-11
8.40827e-10
9.93661e-11
8.23236e-10
1.13461e-10
6.73785e-10
1.16932e-10
5.43104e-10
1.01226e-10
4.85696e-10
5.17802e-11
4.70931e-10
-2.53709e-11
4.63525e-10
-9.5267e-11
4.63249e-10
-1.32098e-10
4.78716e-10
-1.40906e-10
4.91545e-10
-1.2586e-10
4.74463e-10
-9.25672e-11
4.26802e-10
-5.94746e-11
3.31656e-10
-4.18519e-11
2.31831e-10
-4.28882e-11
6.00626e-11
-4.9249e-11
3.17568e-12
-2.05457e-10
-5.80613e-11
9.71356e-11
-3.07456e-11
2.54862e-10
2.99248e-11
5.11894e-10
9.69078e-11
7.21103e-10
1.41097e-10
7.34377e-10
1.63779e-10
6.14503e-10
1.65138e-10
5.00182e-10
1.34895e-10
4.49311e-10
6.96936e-11
4.38025e-10
-6.8599e-12
4.38391e-10
-6.36578e-11
4.52502e-10
-1.02574e-10
4.80318e-10
-1.34802e-10
5.00837e-10
-1.45282e-10
4.99129e-10
-1.38791e-10
4.74536e-10
-1.2913e-10
3.95697e-10
-1.22526e-10
3.15728e-10
-1.25776e-10
1.50305e-10
-1.26603e-10
7.04847e-11
-1.66286e-10
-2.84131e-11
7.38039e-11
-2.69222e-11
1.84278e-10
3.16322e-11
3.7619e-10
1.08401e-10
5.60492e-10
1.65408e-10
5.92077e-10
1.95532e-10
4.98024e-10
1.92745e-10
3.97164e-10
1.45394e-10
3.47976e-10
6.43621e-11
3.36698e-10
-1.00173e-11
3.42292e-10
-5.79958e-11
3.62466e-10
-1.048e-10
3.88516e-10
-1.55129e-10
4.05392e-10
-1.86904e-10
4.08331e-10
-2.11852e-10
3.96806e-10
-2.25065e-10
3.4038e-10
-2.36009e-10
2.95984e-10
-2.49774e-10
1.52231e-10
-2.52398e-10
8.21246e-11
-1.3553e-10
-3.42457e-11
3.57967e-11
-1.1174e-11
7.75905e-11
4.73805e-11
2.23676e-10
1.25559e-10
3.90307e-10
1.88946e-10
4.30847e-10
2.188e-10
3.59206e-10
2.04466e-10
2.70845e-10
1.37214e-10
2.22277e-10
4.27063e-11
2.09683e-10
-2.91033e-11
2.17286e-10
-7.39076e-11
2.36724e-10
-1.29068e-10
2.54755e-10
-1.88904e-10
2.64729e-10
-2.36844e-10
2.67467e-10
-2.83275e-10
2.63988e-10
-3.13825e-10
2.25738e-10
-3.44717e-10
2.06942e-10
-3.7572e-10
1.03637e-10
-3.89782e-10
5.69793e-11
-1.27754e-10
-1.19617e-11
2.76251e-11
5.9743e-12
2.45545e-11
3.17985e-11
1.6225e-10
1.12619e-10
2.53771e-10
1.89996e-10
2.81085e-10
2.30323e-10
2.2843e-10
2.12728e-10
1.59212e-10
1.31349e-10
1.19328e-10
2.54223e-11
1.10283e-10
-5.03896e-11
1.19523e-10
-1.03469e-10
1.34861e-10
-1.71097e-10
1.44554e-10
-2.38616e-10
1.47835e-10
-3.00004e-10
1.47305e-10
-3.61934e-10
1.48173e-10
-4.04187e-10
1.17989e-10
-4.54792e-10
1.25822e-10
-4.90943e-10
4.45104e-11
-5.27735e-10
2.68745e-11
-8.42828e-11
-5.91306e-12
-2.95943e-12
-2.23916e-11
4.58288e-12
1.78493e-11
6.28146e-11
1.05245e-10
1.12662e-10
1.8429e-10
1.42399e-10
2.25312e-10
1.12275e-10
2.0275e-10
6.7081e-11
1.15374e-10
3.9693e-11
1.02176e-11
3.34447e-11
-6.37867e-11
3.98931e-11
-1.23723e-10
4.87766e-11
-1.96096e-10
5.29871e-11
-2.62151e-10
5.38345e-11
-3.29237e-10
5.36271e-11
-3.93625e-10
5.66072e-11
-4.4875e-10
3.95815e-11
-5.00497e-10
5.49891e-11
-5.54275e-10
6.10628e-12
-5.97724e-10
9.13019e-12
-5.96826e-11
-1.51028e-12
-1.24635e-11
2.26014e-11
9.9628e-11
2.05407e-10
2.65112e-10
2.38919e-10
1.35537e-10
1.69454e-11
-6.66811e-11
-1.3897e-10
-2.19208e-10
-2.8683e-10
-3.58548e-10
-4.22974e-10
-4.88193e-10
-5.32856e-10
-6.04941e-10
-6.54098e-10
)
;

boundaryField
{
    sides
    {
        type            calculated;
        value           uniform 0;
    }
    inlet
    {
        type            calculated;
        value           uniform 0;
    }
    outlet
    {
        type            calculated;
        value           nonuniform List<scalar> 
20
(
7.32845e-10
6.42777e-10
5.8589e-10
4.09428e-10
2.77395e-10
1.38774e-10
6.19036e-11
3.3613e-11
3.04034e-11
1.54219e-11
-1.5522e-11
-3.0477e-11
-3.36743e-11
-6.20075e-11
-1.3898e-10
-2.77671e-10
-4.0973e-10
-5.86216e-10
-6.42819e-10
-7.33161e-10
)
;
    }
    frontAndBack
    {
        type            empty;
        value           nonuniform 0();
    }
}


// ************************************************************************* //
