/*--------------------------------*- C++ -*----------------------------------*\
  =========                 |
  \\      /  F ield         | OpenFOAM: The Open Source CFD Toolbox
   \\    /   O peration     | Website:  https://openfoam.org
    \\  /    A nd           | Version:  7
     \\/     M anipulation  |
\*---------------------------------------------------------------------------*/
FoamFile
{
    version     2.0;
    format      ascii;
    class       volVectorField;
    location    "3";
    object      hU;
}
// * * * * * * * * * * * * * * * * * * * * * * * * * * * * * * * * * * * * * //

dimensions      [0 2 -1 0 0 0 0];

internalField   nonuniform List<vector> 
400
(
(0.00100001 -9.63521e-09 0)
(0.000999992 -2.38102e-08 0)
(0.000999966 -3.76667e-08 0)
(0.000999946 -5.88746e-08 0)
(0.000999946 -8.32427e-08 0)
(0.00099996 -1.01453e-07 0)
(0.000999979 -1.09853e-07 0)
(0.001 -1.10954e-07 0)
(0.00100003 -1.09101e-07 0)
(0.00100005 -1.07048e-07 0)
(0.00100008 -1.05751e-07 0)
(0.00100011 -1.05279e-07 0)
(0.00100014 -1.05856e-07 0)
(0.00100018 -1.07213e-07 0)
(0.00100021 -1.09337e-07 0)
(0.00100026 -1.14802e-07 0)
(0.00100029 -1.15675e-07 0)
(0.00100038 -1.36578e-07 0)
(0.0010004 -1.30913e-07 0)
(0.00100057 -1.96044e-07 0)
(0.00100001 4.17249e-09 0)
(0.000999997 1.40998e-08 0)
(0.000999974 2.51723e-08 0)
(0.000999956 3.0947e-08 0)
(0.000999955 2.85561e-08 0)
(0.000999967 2.3432e-08 0)
(0.000999981 2.12569e-08 0)
(0.000999999 2.27598e-08 0)
(0.00100002 2.55153e-08 0)
(0.00100004 2.77127e-08 0)
(0.00100007 2.88591e-08 0)
(0.0010001 2.89478e-08 0)
(0.00100012 2.76466e-08 0)
(0.00100016 2.50766e-08 0)
(0.00100019 2.1384e-08 0)
(0.00100023 1.21673e-08 0)
(0.00100027 9.03735e-09 0)
(0.00100033 -2.40523e-08 0)
(0.00100036 -2.06681e-08 0)
(0.00100045 -1.16386e-07 0)
(0.00100001 -3.42137e-09 0)
(0.000999991 -8.91236e-09 0)
(0.000999967 -1.9326e-08 0)
(0.000999952 -4.14995e-08 0)
(0.000999953 -6.98873e-08 0)
(0.000999964 -9.29208e-08 0)
(0.000999979 -1.0401e-07 0)
(0.000999995 -1.05319e-07 0)
(0.00100002 -1.0261e-07 0)
(0.00100004 -9.97876e-08 0)
(0.00100006 -9.81348e-08 0)
(0.00100009 -9.79789e-08 0)
(0.00100012 -9.95916e-08 0)
(0.00100015 -1.0337e-07 0)
(0.00100018 -1.08914e-07 0)
(0.00100022 -1.20568e-07 0)
(0.00100026 -1.29386e-07 0)
(0.00100031 -1.62091e-07 0)
(0.00100033 -1.69826e-07 0)
(0.00100042 -2.48406e-07 0)
(0.00100001 1.51688e-09 0)
(0.000999994 7.21568e-09 0)
(0.000999969 7.12148e-09 0)
(0.000999955 -1.16471e-08 0)
(0.000999958 -4.06091e-08 0)
(0.000999968 -6.34707e-08 0)
(0.000999981 -7.2419e-08 0)
(0.000999995 -7.04986e-08 0)
(0.00100001 -6.46545e-08 0)
(0.00100003 -5.95521e-08 0)
(0.00100005 -5.66287e-08 0)
(0.00100008 -5.60728e-08 0)
(0.0010001 -5.81549e-08 0)
(0.00100013 -6.3456e-08 0)
(0.00100016 -7.16905e-08 0)
(0.00100019 -8.73221e-08 0)
(0.00100022 -1.01629e-07 0)
(0.00100027 -1.41274e-07 0)
(0.00100029 -1.55005e-07 0)
(0.00100035 -2.46168e-07 0)
(0.00100001 2.68617e-09 0)
(0.000999993 6.82451e-09 0)
(0.000999971 6.75792e-10 0)
(0.00099996 -2.5872e-08 0)
(0.000999963 -6.21658e-08 0)
(0.000999972 -8.97282e-08 0)
(0.000999981 -1.00596e-07 0)
(0.000999993 -9.90065e-08 0)
(0.00100001 -9.29014e-08 0)
(0.00100002 -8.7501e-08 0)
(0.00100004 -8.44505e-08 0)
(0.00100006 -8.39032e-08 0)
(0.00100009 -8.61601e-08 0)
(0.00100011 -9.19635e-08 0)
(0.00100014 -1.01392e-07 0)
(0.00100017 -1.18111e-07 0)
(0.00100019 -1.35902e-07 0)
(0.00100023 -1.75539e-07 0)
(0.00100025 -1.94666e-07 0)
(0.00100029 -2.81195e-07 0)
(0.00100001 6.87887e-09 0)
(0.000999994 1.53598e-08 0)
(0.000999973 7.19358e-09 0)
(0.000999965 -2.55008e-08 0)
(0.000999968 -6.7075e-08 0)
(0.000999976 -9.68569e-08 0)
(0.000999983 -1.07455e-07 0)
(0.000999992 -1.04383e-07 0)
(0.001 -9.63826e-08 0)
(0.00100002 -8.9205e-08 0)
(0.00100003 -8.49142e-08 0)
(0.00100005 -8.37741e-08 0)
(0.00100007 -8.60882e-08 0)
(0.00100009 -9.27558e-08 0)
(0.00100011 -1.04122e-07 0)
(0.00100014 -1.23197e-07 0)
(0.00100016 -1.45133e-07 0)
(0.00100018 -1.86812e-07 0)
(0.0010002 -2.10035e-07 0)
(0.00100023 -2.96325e-07 0)
(0.001 1.16943e-08 0)
(0.000999995 2.35103e-08 0)
(0.000999978 1.21302e-08 0)
(0.000999971 -2.6066e-08 0)
(0.000999975 -7.17831e-08 0)
(0.00099998 -1.03242e-07 0)
(0.000999986 -1.13881e-07 0)
(0.000999992 -1.10099e-07 0)
(0.001 -1.00965e-07 0)
(0.00100001 -9.25159e-08 0)
(0.00100002 -8.73251e-08 0)
(0.00100004 -8.60001e-08 0)
(0.00100005 -8.88514e-08 0)
(0.00100007 -9.67849e-08 0)
(0.00100009 -1.10343e-07 0)
(0.00100011 -1.31687e-07 0)
(0.00100012 -1.56888e-07 0)
(0.00100014 -1.99422e-07 0)
(0.00100015 -2.24692e-07 0)
(0.00100018 -3.09597e-07 0)
(0.001 1.62632e-08 0)
(0.000999997 3.17287e-08 0)
(0.000999983 1.68043e-08 0)
(0.000999979 -2.65262e-08 0)
(0.000999982 -7.5732e-08 0)
(0.000999986 -1.0858e-07 0)
(0.000999989 -1.1941e-07 0)
(0.000999994 -1.15271e-07 0)
(0.000999999 -1.05332e-07 0)
(0.00100001 -9.57644e-08 0)
(0.00100002 -8.968e-08 0)
(0.00100003 -8.83109e-08 0)
(0.00100004 -9.2138e-08 0)
(0.00100005 -1.01814e-07 0)
(0.00100006 -1.17714e-07 0)
(0.00100007 -1.41153e-07 0)
(0.00100009 -1.68586e-07 0)
(0.0010001 -2.10974e-07 0)
(0.00100011 -2.36498e-07 0)
(0.00100012 -3.19188e-07 0)
(0.001 1.96081e-08 0)
(0.000999998 3.77533e-08 0)
(0.000999989 2.00116e-08 0)
(0.000999987 -2.71871e-08 0)
(0.000999989 -7.88588e-08 0)
(0.000999991 -1.1265e-07 0)
(0.000999994 -1.23674e-07 0)
(0.000999996 -1.1942e-07 0)
(0.000999999 -1.0905e-07 0)
(0.001 -9.8732e-08 0)
(0.00100001 -9.19644e-08 0)
(0.00100002 -9.06723e-08 0)
(0.00100002 -9.57082e-08 0)
(0.00100003 -1.07345e-07 0)
(0.00100004 -1.25331e-07 0)
(0.00100004 -1.50163e-07 0)
(0.00100005 -1.78571e-07 0)
(0.00100006 -2.20061e-07 0)
(0.00100006 -2.44877e-07 0)
(0.00100007 -3.25532e-07 0)
(0.001 2.12613e-08 0)
(0.000999999 4.09987e-08 0)
(0.000999996 2.16453e-08 0)
(0.000999996 -2.76238e-08 0)
(0.000999996 -8.05244e-08 0)
(0.000999997 -1.14749e-07 0)
(0.000999998 -1.25862e-07 0)
(0.000999999 -1.21583e-07 0)
(0.001 -1.11049e-07 0)
(0.001 -1.00377e-07 0)
(0.001 -9.32457e-08 0)
(0.00100001 -9.20283e-08 0)
(0.00100001 -9.79044e-08 0)
(0.00100001 -1.10891e-07 0)
(0.00100001 -1.30132e-07 0)
(0.00100001 -1.55536e-07 0)
(0.00100002 -1.84052e-07 0)
(0.00100002 -2.24692e-07 0)
(0.00100002 -2.48905e-07 0)
(0.00100002 -3.2856e-07 0)
(0.000999999 2.12601e-08 0)
(0.001 4.09962e-08 0)
(0.001 2.16436e-08 0)
(0.001 -2.76238e-08 0)
(0.001 -8.05233e-08 0)
(0.001 -1.14748e-07 0)
(0.001 -1.25861e-07 0)
(0.001 -1.21583e-07 0)
(0.001 -1.11049e-07 0)
(0.000999999 -1.00378e-07 0)
(0.000999997 -9.32458e-08 0)
(0.000999995 -9.20283e-08 0)
(0.000999992 -9.79043e-08 0)
(0.00099999 -1.10891e-07 0)
(0.000999987 -1.30131e-07 0)
(0.000999985 -1.55535e-07 0)
(0.000999983 -1.8405e-07 0)
(0.00099998 -2.2469e-07 0)
(0.000999979 -2.48904e-07 0)
(0.000999976 -3.28556e-07 0)
(0.000999998 1.96044e-08 0)
(0.001 3.77459e-08 0)
(0.00100001 2.00064e-08 0)
(0.00100001 -2.71873e-08 0)
(0.00100001 -7.88557e-08 0)
(0.00100001 -1.12647e-07 0)
(0.00100001 -1.23672e-07 0)
(0.001 -1.1942e-07 0)
(0.001 -1.09051e-07 0)
(0.000999997 -9.87326e-08 0)
(0.000999991 -9.19649e-08 0)
(0.000999984 -9.06728e-08 0)
(0.000999977 -9.57084e-08 0)
(0.000999969 -1.07345e-07 0)
(0.000999962 -1.25329e-07 0)
(0.000999955 -1.50159e-07 0)
(0.000999948 -1.78566e-07 0)
(0.000999941 -2.20055e-07 0)
(0.000999937 -2.44872e-07 0)
(0.000999928 -3.25522e-07 0)
(0.000999997 1.62571e-08 0)
(0.001 3.17169e-08 0)
(0.00100002 1.67956e-08 0)
(0.00100002 -2.65273e-08 0)
(0.00100002 -7.57279e-08 0)
(0.00100001 -1.08575e-07 0)
(0.00100001 -1.19408e-07 0)
(0.00100001 -1.15271e-07 0)
(0.001 -1.05334e-07 0)
(0.000999994 -9.57667e-08 0)
(0.000999985 -8.96825e-08 0)
(0.000999974 -8.83135e-08 0)
(0.000999962 -9.21406e-08 0)
(0.000999949 -1.01816e-07 0)
(0.000999937 -1.17714e-07 0)
(0.000999925 -1.4115e-07 0)
(0.000999913 -1.68581e-07 0)
(0.000999901 -2.10966e-07 0)
(0.000999893 -2.36491e-07 0)
(0.000999877 -3.19172e-07 0)
(0.000999995 1.16858e-08 0)
(0.001 2.34947e-08 0)
(0.00100002 1.21179e-08 0)
(0.00100003 -2.6069e-08 0)
(0.00100003 -7.17794e-08 0)
(0.00100002 -1.03238e-07 0)
(0.00100001 -1.1388e-07 0)
(0.00100001 -1.10102e-07 0)
(0.001 -1.0097e-07 0)
(0.00099999 -9.25215e-08 0)
(0.000999977 -8.73314e-08 0)
(0.000999963 -8.60071e-08 0)
(0.000999946 -8.88586e-08 0)
(0.000999929 -9.67911e-08 0)
(0.000999912 -1.10347e-07 0)
(0.000999894 -1.31689e-07 0)
(0.000999878 -1.56887e-07 0)
(0.000999859 -1.99414e-07 0)
(0.000999848 -2.24685e-07 0)
(0.000999824 -3.09575e-07 0)
(0.000999995 6.87066e-09 0)
(0.00100001 1.53436e-08 0)
(0.00100003 7.17921e-09 0)
(0.00100004 -2.55055e-08 0)
(0.00100003 -6.70725e-08 0)
(0.00100002 -9.68547e-08 0)
(0.00100002 -1.07457e-07 0)
(0.00100001 -1.04389e-07 0)
(0.000999998 -9.63923e-08 0)
(0.000999984 -8.92164e-08 0)
(0.000999968 -8.49269e-08 0)
(0.00099995 -8.3788e-08 0)
(0.00099993 -8.61026e-08 0)
(0.000999909 -9.27698e-08 0)
(0.000999887 -1.04134e-07 0)
(0.000999864 -1.23206e-07 0)
(0.000999842 -1.4514e-07 0)
(0.000999816 -1.86809e-07 0)
(0.000999801 -2.10033e-07 0)
(0.000999769 -2.963e-07 0)
(0.000999994 2.6809e-09 0)
(0.00100001 6.81305e-09 0)
(0.00100003 6.64826e-10 0)
(0.00100004 -2.58746e-08 0)
(0.00100004 -6.216e-08 0)
(0.00100003 -8.97212e-08 0)
(0.00100002 -1.00593e-07 0)
(0.00100001 -9.90082e-08 0)
(0.000999994 -9.29062e-08 0)
(0.000999977 -8.75078e-08 0)
(0.000999958 -8.44592e-08 0)
(0.000999937 -8.39133e-08 0)
(0.000999914 -8.61708e-08 0)
(0.000999889 -9.19741e-08 0)
(0.000999862 -1.01402e-07 0)
(0.000999834 -1.18116e-07 0)
(0.000999807 -1.35907e-07 0)
(0.000999774 -1.7553e-07 0)
(0.000999754 -1.94658e-07 0)
(0.00099971 -2.81158e-07 0)
(0.000999994 1.51125e-09 0)
(0.00100001 7.20218e-09 0)
(0.00100003 7.10589e-09 0)
(0.00100005 -1.16564e-08 0)
(0.00100004 -4.06121e-08 0)
(0.00100003 -6.34739e-08 0)
(0.00100002 -7.24271e-08 0)
(0.00100001 -7.05115e-08 0)
(0.000999989 -6.46704e-08 0)
(0.00099997 -5.95701e-08 0)
(0.000999948 -5.66483e-08 0)
(0.000999925 -5.60937e-08 0)
(0.000999899 -5.81766e-08 0)
(0.000999871 -6.34779e-08 0)
(0.000999841 -7.17125e-08 0)
(0.000999808 -8.73408e-08 0)
(0.000999776 -1.01649e-07 0)
(0.000999734 -1.41281e-07 0)
(0.000999709 -1.55016e-07 0)
(0.000999654 -2.46149e-07 0)
(0.000999994 -3.42342e-09 0)
(0.00100001 -8.91713e-09 0)
(0.00100003 -1.93293e-08 0)
(0.00100005 -4.14945e-08 0)
(0.00100005 -6.9875e-08 0)
(0.00100004 -9.2907e-08 0)
(0.00100002 -1.04e-07 0)
(0.001 -1.05313e-07 0)
(0.000999985 -1.02607e-07 0)
(0.000999962 -9.97868e-08 0)
(0.000999938 -9.81355e-08 0)
(0.000999912 -9.79803e-08 0)
(0.000999883 -9.95937e-08 0)
(0.000999852 -1.03372e-07 0)
(0.000999818 -1.08916e-07 0)
(0.00099978 -1.20566e-07 0)
(0.000999744 -1.29387e-07 0)
(0.000999692 -1.62073e-07 0)
(0.000999666 -1.69816e-07 0)
(0.000999584 -2.48348e-07 0)
(0.000999994 4.17072e-09 0)
(0.001 1.40941e-08 0)
(0.00100003 2.51616e-08 0)
(0.00100004 3.09352e-08 0)
(0.00100004 2.85487e-08 0)
(0.00100003 2.34277e-08 0)
(0.00100002 2.12521e-08 0)
(0.001 2.2753e-08 0)
(0.00099998 2.55066e-08 0)
(0.000999957 2.77023e-08 0)
(0.000999932 2.88471e-08 0)
(0.000999905 2.89348e-08 0)
(0.000999875 2.76327e-08 0)
(0.000999843 2.50622e-08 0)
(0.000999809 2.13681e-08 0)
(0.000999767 1.21548e-08 0)
(0.000999729 9.01764e-09 0)
(0.000999669 -2.40573e-08 0)
(0.000999637 -2.06851e-08 0)
(0.000999546 -1.16383e-07 0)
(0.000999994 -9.63631e-09 0)
(0.00100001 -2.38127e-08 0)
(0.00100003 -3.76696e-08 0)
(0.00100005 -5.88777e-08 0)
(0.00100005 -8.32453e-08 0)
(0.00100004 -1.01455e-07 0)
(0.00100002 -1.09854e-07 0)
(0.000999998 -1.10952e-07 0)
(0.000999973 -1.09095e-07 0)
(0.000999947 -1.0704e-07 0)
(0.00099992 -1.05741e-07 0)
(0.000999891 -1.05269e-07 0)
(0.00099986 -1.05845e-07 0)
(0.000999824 -1.07201e-07 0)
(0.000999792 -1.09327e-07 0)
(0.00099974 -1.14784e-07 0)
(0.000999709 -1.15667e-07 0)
(0.000999621 -1.36549e-07 0)
(0.000999603 -1.30903e-07 0)
(0.000999433 -1.96012e-07 0)
)
;

boundaryField
{
    sides
    {
        type            slip;
    }
    inlet
    {
        type            fixedValue;
        value           uniform (0.001 0 0);
    }
    outlet
    {
        type            zeroGradient;
    }
    frontAndBack
    {
        type            empty;
    }
}


// ************************************************************************* //
