/*--------------------------------*- C++ -*----------------------------------*\
  =========                 |
  \\      /  F ield         | OpenFOAM: The Open Source CFD Toolbox
   \\    /   O peration     | Website:  https://openfoam.org
    \\  /    A nd           | Version:  7
     \\/     M anipulation  |
\*---------------------------------------------------------------------------*/
FoamFile
{
    version     2.0;
    format      ascii;
    class       surfaceScalarField;
    location    "3";
    object      phi_0;
}
// * * * * * * * * * * * * * * * * * * * * * * * * * * * * * * * * * * * * * //

dimensions      [0 4 -1 0 0 0 0];

internalField   nonuniform List<scalar> 
760
(
4.99992e-06
5.9323e-12
4.99985e-06
-1.77477e-12
4.99979e-06
-1.17043e-11
4.99976e-06
-4.71939e-11
4.99979e-06
-1.01093e-10
4.99986e-06
-1.46339e-10
4.99997e-06
-1.64332e-10
5.00008e-06
-1.60795e-10
5.0002e-06
-1.50527e-10
5.00032e-06
-1.4236e-10
5.00045e-06
-1.38245e-10
5.0006e-06
-1.37754e-10
5.00075e-06
-1.42166e-10
5.00092e-06
-1.50705e-10
5.00111e-06
-1.63822e-10
5.00133e-06
-1.9412e-10
5.00157e-06
-2.05495e-10
5.00192e-06
-3.22505e-10
5.00225e-06
-3.10246e-10
-7.11633e-10
4.99995e-06
-1.46822e-11
4.99988e-06
-5.91409e-12
4.99982e-06
-1.95551e-11
4.9998e-06
-9.30071e-11
4.99983e-06
-1.90641e-10
4.99989e-06
-2.6656e-10
4.99996e-06
-2.96702e-10
5.00005e-06
-2.92021e-10
5.00015e-06
-2.76e-10
5.00027e-06
-2.63135e-10
5.00039e-06
-2.56931e-10
5.00053e-06
-2.57142e-10
5.00067e-06
-2.65305e-10
5.00084e-06
-2.82143e-10
5.00102e-06
-3.06585e-10
5.00122e-06
-3.5867e-10
5.00144e-06
-3.89192e-10
5.00171e-06
-5.53161e-10
5.00199e-06
-5.53668e-10
-9.58245e-10
4.99992e-06
-5.0299e-12
4.99985e-06
-6.13349e-12
4.9998e-06
-3.55031e-11
4.99979e-06
-1.39025e-10
4.99982e-06
-2.76418e-10
4.99987e-06
-3.78483e-10
4.99995e-06
-4.16923e-10
5.00003e-06
-4.09332e-10
5.00013e-06
-3.86841e-10
5.00024e-06
-3.68753e-10
5.00036e-06
-3.60047e-10
5.00049e-06
-3.60444e-10
5.00064e-06
-3.71036e-10
5.00079e-06
-3.94054e-10
5.00096e-06
-4.28049e-10
5.00115e-06
-4.91745e-10
5.00136e-06
-5.47345e-10
5.00157e-06
-7.16367e-10
5.00182e-06
-7.67318e-10
-1.19577e-09
4.99994e-06
-7.661e-13
4.99986e-06
1.54865e-11
4.99982e-06
-3.29398e-11
4.99981e-06
-1.7373e-10
4.99984e-06
-3.4539e-10
4.99989e-06
-4.65183e-10
4.99995e-06
-5.05789e-10
5.00002e-06
-4.92413e-10
5.0001e-06
-4.6206e-10
5.0002e-06
-4.37543e-10
5.00031e-06
-4.25461e-10
5.00043e-06
-4.25277e-10
5.00056e-06
-4.37451e-10
5.0007e-06
-4.64822e-10
5.00085e-06
-5.0661e-10
5.00102e-06
-5.8026e-10
5.00119e-06
-6.53889e-10
5.00138e-06
-8.36017e-10
5.00156e-06
-9.1009e-10
-1.32002e-09
4.99994e-06
1.31881e-11
4.99987e-06
3.37517e-11
4.99983e-06
-2.78675e-11
4.99983e-06
-1.98513e-10
4.99986e-06
-3.95846e-10
4.9999e-06
-5.26853e-10
4.99995e-06
-5.67005e-10
5e-06
-5.47653e-10
5.00007e-06
-5.09413e-10
5.00015e-06
-4.77465e-10
5.00025e-06
-4.60549e-10
5.00036e-06
-4.58622e-10
5.00048e-06
-4.71315e-10
5.0006e-06
-5.0165e-10
5.00074e-06
-5.50272e-10
5.00088e-06
-6.3154e-10
5.00103e-06
-7.23311e-10
5.00117e-06
-9.11252e-10
5.00132e-06
-1.00987e-09
-1.42287e-09
4.99994e-06
3.37421e-11
4.99988e-06
6.73306e-11
4.99985e-06
-1.35215e-11
4.99985e-06
-2.11479e-10
4.99988e-06
-4.2851e-10
4.99991e-06
-5.66134e-10
4.99995e-06
-6.04397e-10
4.99999e-06
-5.79454e-10
5.00004e-06
-5.33652e-10
5.00011e-06
-4.93467e-10
5.00019e-06
-4.70137e-10
5.00029e-06
-4.6537e-10
5.00039e-06
-4.78328e-10
5.0005e-06
-5.11714e-10
5.00061e-06
-5.68028e-10
5.00073e-06
-6.58665e-10
5.00085e-06
-7.67344e-10
5.00096e-06
-9.62842e-10
5.00106e-06
-1.08158e-09
-1.49383e-09
4.99995e-06
6.01934e-11
4.9999e-06
1.03888e-10
4.99988e-06
5.77403e-12
4.99988e-06
-2.17647e-10
4.9999e-06
-4.5052e-10
4.99993e-06
-5.92925e-10
4.99995e-06
-6.29968e-10
4.99998e-06
-6.01273e-10
5.00002e-06
-5.49696e-10
5.00007e-06
-5.01985e-10
5.00014e-06
-4.71465e-10
5.00021e-06
-4.62882e-10
5.0003e-06
-4.76632e-10
5.00039e-06
-5.14738e-10
5.00048e-06
-5.80477e-10
5.00057e-06
-6.8287e-10
5.00066e-06
-8.08039e-10
5.00074e-06
-1.00955e-09
5.00081e-06
-1.13951e-09
-1.54705e-09
4.99997e-06
8.55034e-11
4.99993e-06
1.38954e-10
4.99991e-06
2.27864e-11
4.99991e-06
-2.21761e-10
4.99992e-06
-4.66893e-10
4.99994e-06
-6.13106e-10
4.99996e-06
-6.50053e-10
4.99998e-06
-6.19822e-10
5.00001e-06
-5.65215e-10
5.00004e-06
-5.12333e-10
5.00009e-06
-4.75407e-10
5.00014e-06
-4.62567e-10
5.00021e-06
-4.77678e-10
5.00027e-06
-5.22937e-10
5.00034e-06
-5.99841e-10
5.0004e-06
-7.13637e-10
5.00047e-06
-8.51098e-10
5.00052e-06
-1.05441e-09
5.00057e-06
-1.18691e-09
-1.58556e-09
4.99998e-06
1.01498e-10
4.99996e-06
1.6218e-10
4.99994e-06
3.28348e-11
4.99994e-06
-2.25882e-10
4.99995e-06
-4.78803e-10
4.99997e-06
-6.2756e-10
4.99998e-06
-6.65045e-10
4.99999e-06
-6.34879e-10
5e-06
-5.79599e-10
5.00002e-06
-5.24279e-10
5.00005e-06
-4.83037e-10
5.00008e-06
-4.66538e-10
5.00012e-06
-4.82743e-10
5.00017e-06
-5.3522e-10
5.0002e-06
-6.22615e-10
5.00024e-06
-7.44889e-10
5.00028e-06
-8.87981e-10
5.00031e-06
-1.08831e-09
5.00034e-06
-1.21788e-09
-1.60854e-09
4.99999e-06
1.06965e-10
4.99998e-06
1.69883e-10
4.99998e-06
3.56623e-11
4.99998e-06
-2.28161e-10
4.99998e-06
-4.83779e-10
4.99999e-06
-6.33467e-10
4.99999e-06
-6.71312e-10
5e-06
-6.41453e-10
5e-06
-5.86278e-10
5.00001e-06
-5.30367e-10
5.00002e-06
-4.87617e-10
5.00003e-06
-4.69612e-10
5.00004e-06
-4.86168e-10
5.00006e-06
-5.4174e-10
5.00007e-06
-6.33662e-10
5.00008e-06
-7.59182e-10
5.00009e-06
-9.03448e-10
5.0001e-06
-1.10134e-09
5.00011e-06
-1.22858e-09
-1.61604e-09
5.00001e-06
1.01484e-10
5.00002e-06
1.62156e-10
5.00002e-06
3.28208e-11
5.00002e-06
-2.2588e-10
5.00002e-06
-4.78792e-10
5.00001e-06
-6.27548e-10
5.00001e-06
-6.65038e-10
5e-06
-6.34877e-10
5e-06
-5.796e-10
4.99999e-06
-5.24282e-10
4.99998e-06
-4.83039e-10
4.99997e-06
-4.6654e-10
4.99996e-06
-4.82745e-10
4.99994e-06
-5.3522e-10
4.99993e-06
-6.2261e-10
4.99992e-06
-7.44878e-10
4.99991e-06
-8.87964e-10
4.9999e-06
-1.08828e-09
4.99989e-06
-1.21786e-09
-1.60851e-09
5.00002e-06
8.5478e-11
5.00004e-06
1.38909e-10
5.00006e-06
2.27574e-11
5.00005e-06
-2.2176e-10
5.00005e-06
-4.66874e-10
5.00003e-06
-6.13088e-10
5.00002e-06
-6.50045e-10
5.00001e-06
-6.19823e-10
5e-06
-5.65223e-10
4.99998e-06
-5.12343e-10
4.99995e-06
-4.75418e-10
4.99992e-06
-4.62579e-10
4.99988e-06
-4.77689e-10
4.99983e-06
-5.22947e-10
4.99979e-06
-5.99843e-10
4.99976e-06
-7.13628e-10
4.99972e-06
-8.51078e-10
4.99969e-06
-1.05437e-09
4.99966e-06
-1.18688e-09
-1.58549e-09
5.00003e-06
6.01591e-11
5.00007e-06
1.03827e-10
5.00009e-06
5.73019e-12
5.00009e-06
-2.17651e-10
5.00008e-06
-4.50501e-10
5.00006e-06
-5.92909e-10
5.00004e-06
-6.29968e-10
5.00002e-06
-6.01287e-10
4.99999e-06
-5.49719e-10
4.99996e-06
-5.02013e-10
4.99991e-06
-4.71496e-10
4.99986e-06
-4.62916e-10
4.99979e-06
-4.76668e-10
4.99973e-06
-5.14772e-10
4.99966e-06
-5.80502e-10
4.9996e-06
-6.82881e-10
4.99953e-06
-8.08036e-10
4.99948e-06
-1.00952e-09
4.99943e-06
-1.13948e-09
-1.54696e-09
5.00005e-06
3.37009e-11
5.0001e-06
6.72612e-11
5.00012e-06
-1.35754e-11
5.00012e-06
-2.11489e-10
5.0001e-06
-4.28492e-10
5.00007e-06
-5.66122e-10
5.00005e-06
-6.04406e-10
5.00002e-06
-5.79484e-10
4.99998e-06
-5.33695e-10
4.99993e-06
-4.93517e-10
4.99986e-06
-4.70192e-10
4.99979e-06
-4.65431e-10
4.9997e-06
-4.78393e-10
4.99961e-06
-5.11778e-10
4.99952e-06
-5.68085e-10
4.99943e-06
-6.58707e-10
4.99934e-06
-7.6737e-10
4.99926e-06
-9.62827e-10
4.99919e-06
-1.08156e-09
-1.49372e-09
5.00006e-06
1.31551e-11
5.00011e-06
3.36891e-11
5.00015e-06
-2.79196e-11
5.00015e-06
-1.98521e-10
5.00012e-06
-3.95825e-10
5.00009e-06
-5.26838e-10
5.00005e-06
-5.67015e-10
5.00001e-06
-5.47686e-10
4.99996e-06
-5.09461e-10
4.99989e-06
-4.77522e-10
4.99981e-06
-4.60614e-10
4.99971e-06
-4.58695e-10
4.99961e-06
-4.71393e-10
4.9995e-06
-5.01729e-10
4.99939e-06
-5.50347e-10
4.99927e-06
-6.316e-10
4.99915e-06
-7.23359e-10
4.99904e-06
-9.11249e-10
4.99893e-06
-1.00986e-09
-1.42274e-09
5.00006e-06
-7.90046e-13
5.00013e-06
1.54395e-11
5.00017e-06
-3.29823e-11
5.00017e-06
-1.7373e-10
5.00014e-06
-3.45359e-10
5.0001e-06
-4.65157e-10
5.00005e-06
-5.05788e-10
5e-06
-4.92435e-10
4.99993e-06
-4.62097e-10
4.99985e-06
-4.37589e-10
4.99975e-06
-4.25516e-10
4.99964e-06
-4.2534e-10
4.99952e-06
-4.37518e-10
4.9994e-06
-4.64891e-10
4.99926e-06
-5.06679e-10
4.99912e-06
-5.80313e-10
4.99897e-06
-6.53941e-10
4.99883e-06
-8.36006e-10
4.99868e-06
-9.10085e-10
-1.31987e-09
5.00006e-06
-5.0428e-12
5.00014e-06
-6.16095e-12
5.00018e-06
-3.55339e-11
5.00019e-06
-1.39024e-10
5.00016e-06
-2.76386e-10
5.00011e-06
-3.78449e-10
5.00005e-06
-4.16908e-10
4.99998e-06
-4.09338e-10
4.9999e-06
-3.8686e-10
4.9998e-06
-3.68779e-10
4.99969e-06
-3.60081e-10
4.99957e-06
-3.60482e-10
4.99944e-06
-3.71079e-10
4.9993e-06
-3.94097e-10
4.99915e-06
-4.28095e-10
4.99898e-06
-4.91775e-10
4.99881e-06
-5.47386e-10
4.99862e-06
-7.16334e-10
4.99844e-06
-7.67315e-10
-1.19558e-09
5.00008e-06
-1.46853e-11
5.00015e-06
-5.92924e-12
5.0002e-06
-1.95808e-11
5.00021e-06
-9.29998e-11
5.00018e-06
-1.90605e-10
5.00013e-06
-2.6652e-10
5.00005e-06
-2.96676e-10
4.99997e-06
-2.92011e-10
4.99987e-06
-2.76001e-10
4.99976e-06
-2.63143e-10
4.99964e-06
-2.56945e-10
4.99951e-06
-2.5716e-10
4.99936e-06
-2.65325e-10
4.99921e-06
-2.82163e-10
4.99903e-06
-3.06611e-10
4.99885e-06
-3.58676e-10
4.99864e-06
-3.89226e-10
4.99843e-06
-5.53111e-10
4.99818e-06
-5.5367e-10
-9.58094e-10
5.00005e-06
5.92337e-12
5.00012e-06
-1.79557e-12
5.00018e-06
-1.17361e-11
5.0002e-06
-4.72169e-11
5.00017e-06
-1.01106e-10
5.00011e-06
-1.46346e-10
5.00004e-06
-1.64337e-10
4.99995e-06
-1.60797e-10
4.99985e-06
-1.50527e-10
4.99973e-06
-1.42359e-10
4.99961e-06
-1.38245e-10
4.99947e-06
-1.37755e-10
4.99933e-06
-1.42168e-10
4.99916e-06
-1.50708e-10
4.99898e-06
-1.63831e-10
4.99878e-06
-1.94111e-10
4.99856e-06
-2.05523e-10
4.99829e-06
-3.22461e-10
4.99801e-06
-3.10275e-10
-7.11556e-10
5.00008e-06
5.00015e-06
5.00021e-06
5.00024e-06
5.00021e-06
5.00014e-06
5.00003e-06
4.99992e-06
4.9998e-06
4.99968e-06
4.99955e-06
4.9994e-06
4.99925e-06
4.99908e-06
4.99889e-06
4.99867e-06
4.99843e-06
4.99808e-06
4.99774e-06
)
;

boundaryField
{
    sides
    {
        type            calculated;
        value           uniform 0;
    }
    inlet
    {
        type            calculated;
        value           nonuniform List<scalar> 
20
(
-5e-06
-5e-06
-5e-06
-5e-06
-5e-06
-5e-06
-5e-06
-5e-06
-5e-06
-5e-06
-5e-06
-5e-06
-5e-06
-5e-06
-5e-06
-5e-06
-5e-06
-5e-06
-5e-06
-5e-06
)
;
    }
    outlet
    {
        type            calculated;
        value           nonuniform List<scalar> 
20
(
5.00298e-06
5.00224e-06
5.00207e-06
5.0017e-06
5.00143e-06
5.00115e-06
5.00087e-06
5.00061e-06
5.00036e-06
5.00012e-06
4.99988e-06
4.99964e-06
4.99939e-06
4.99913e-06
4.99885e-06
4.99857e-06
4.9983e-06
4.99793e-06
4.99776e-06
4.99702e-06
)
;
    }
    frontAndBack
    {
        type            empty;
        value           nonuniform 0();
    }
}


// ************************************************************************* //
