/*--------------------------------*- C++ -*----------------------------------*\
  =========                 |
  \\      /  F ield         | OpenFOAM: The Open Source CFD Toolbox
   \\    /   O peration     | Website:  https://openfoam.org
    \\  /    A nd           | Version:  7
     \\/     M anipulation  |
\*---------------------------------------------------------------------------*/
FoamFile
{
    version     2.0;
    format      ascii;
    class       volScalarField;
    location    "250";
    object      epsilon;
}
// * * * * * * * * * * * * * * * * * * * * * * * * * * * * * * * * * * * * * //

dimensions      [0 2 -3 0 0 0 0];

internalField   nonuniform List<scalar> 
96800
(
0.000202931
0.000202938
0.000202658
0.000202328
0.000201952
0.000201588
0.000201285
0.000201044
0.000200857
0.000200717
0.000200629
0.000200611
0.000200689
0.000200842
0.000201108
0.000201491
0.00020202
0.000202672
0.000203417
0.000204222
0.000205113
0.000206367
0.000203324
0.000203839
0.000203616
0.000203277
0.000202865
0.00020247
0.000202141
0.000201883
0.000201686
0.000201545
0.000201461
0.000201444
0.000201505
0.000201661
0.000201917
0.000202305
0.000202834
0.00020348
0.000204212
0.000204973
0.000205716
0.000206324
0.000203671
0.000204293
0.000204099
0.000203705
0.000203215
0.000202736
0.000202333
0.000202025
0.000201803
0.000201654
0.000201574
0.00020156
0.00020162
0.00020177
0.000202026
0.000202405
0.000202916
0.000203542
0.000204239
0.000204921
0.00020547
0.000205688
0.000204126
0.000204757
0.000204524
0.000204034
0.000203425
0.000202828
0.000202328
0.000201955
0.000201704
0.00020155
0.000201476
0.000201472
0.000201539
0.000201691
0.000201939
0.000202302
0.000202789
0.000203391
0.000204058
0.000204687
0.000205136
0.000205224
0.000204558
0.000205166
0.000204857
0.000204248
0.000203502
0.000202775
0.000202175
0.00020174
0.000201463
0.000201309
0.000201249
0.00020126
0.000201339
0.000201494
0.000201736
0.000202082
0.000202547
0.00020313
0.000203782
0.000204394
0.000204815
0.00020487
0.000204927
0.000205503
0.000205106
0.000204374
0.000203495
0.000202649
0.000201963
0.000201477
0.000201181
0.000201035
0.000200995
0.000201027
0.000201121
0.00020128
0.000201515
0.000201848
0.000202299
0.000202872
0.000203527
0.000204153
0.000204589
0.000204648
0.00020524
0.000205783
0.000205299
0.000204456
0.000203461
0.000202518
0.000201764
0.000201242
0.000200939
0.000200806
0.000200789
0.000200845
0.000200956
0.000201118
0.000201346
0.000201668
0.000202112
0.000202691
0.00020337
0.00020403
0.000204503
0.000204583
0.000205526
0.00020604
0.000205478
0.000204538
0.000203451
0.000202432
0.000201627
0.000201083
0.000200781
0.000200666
0.000200673
0.00020075
0.000200874
0.000201036
0.000201255
0.000201566
0.000202012
0.000202612
0.000203329
0.000204037
0.000204553
0.000204668
0.000205828
0.000206316
0.00020569
0.000204669
0.000203503
0.000202424
0.000201582
0.000201024
0.000200728
0.000200631
0.000200655
0.000200746
0.000200874
0.000201032
0.000201237
0.000201534
0.000201984
0.000202613
0.00020338
0.000204147
0.00020472
0.000204874
0.000206185
0.000206652
0.000205971
0.000204882
0.000203649
0.000202517
0.000201641
0.000201071
0.000200778
0.000200691
0.000200722
0.000200814
0.000200938
0.000201083
0.000201267
0.000201551
0.000202005
0.000202665
0.000203489
0.000204332
0.000204975
0.000205171
0.000206629
0.000207078
0.000206351
0.0002052
0.000203905
0.000202723
0.000201814
0.000201226
0.000200925
0.000200833
0.000200856
0.000200936
0.000201044
0.000201166
0.000201328
0.000201601
0.000202065
0.00020276
0.000203648
0.000204575
0.000205297
0.000205544
0.000207183
0.000207616
0.000206845
0.000205637
0.00020428
0.000203045
0.000202096
0.000201478
0.000201152
0.000201036
0.000201037
0.000201094
0.000201176
0.000201271
0.000201414
0.000201683
0.000202165
0.000202907
0.000203869
0.000204885
0.00020569
0.000205993
0.000207864
0.000208282
0.000207467
0.000206199
0.000204776
0.00020348
0.000202478
0.000201814
0.000201443
0.000201286
0.000201256
0.000201281
0.000201332
0.000201402
0.000201533
0.000201809
0.000202324
0.00020313
0.000204181
0.000205292
0.000206186
0.000206548
0.000208688
0.000209088
0.000208223
0.00020689
0.000205394
0.000204025
0.000202954
0.000202224
0.000201792
0.000201579
0.000201505
0.000201498
0.00020152
0.000201574
0.000201703
0.000202003
0.000202572
0.000203462
0.000204617
0.000205836
0.000206824
0.000207248
0.000209676
0.000210054
0.000209133
0.000207723
0.000206143
0.000204685
0.000203528
0.000202715
0.000202209
0.000201931
0.000201805
0.000201768
0.000201773
0.000201819
0.00020196
0.000202301
0.000202944
0.000203933
0.000205203
0.000206542
0.000207633
0.000208123
0.000210873
0.000211224
0.000210237
0.000208736
0.000207052
0.000205487
0.000204226
0.00020332
0.000202733
0.000202388
0.000202209
0.000202141
0.000202136
0.000202182
0.000202345
0.000202738
0.000203462
0.000204557
0.00020595
0.000207418
0.000208622
0.000209182
0.000212359
0.000212679
0.000211612
0.000210002
0.000208191
0.000206495
0.000205113
0.000204104
0.000203434
0.000203022
0.000202791
0.00020269
0.000202677
0.000202725
0.000202909
0.000203349
0.000204146
0.000205338
0.000206854
0.000208456
0.000209781
0.00021042
0.000214282
0.000214565
0.0002134
0.000211657
0.000209687
0.00020783
0.000206302
0.000205175
0.000204413
0.000203931
0.000203643
0.000203501
0.000203465
0.000203507
0.000203699
0.000204166
0.000205012
0.000206284
0.000207911
0.000209641
0.000211094
0.000211826
0.000216889
0.000217121
0.000215834
0.00021392
0.000211749
0.000209684
0.000207969
0.00020669
0.00020581
0.000205234
0.000204869
0.000204657
0.000204572
0.000204594
0.00020477
0.00020523
0.000206092
0.000207416
0.000209131
0.000210979
0.000212562
0.000213398
0.000220549
0.000220712
0.000219258
0.000217114
0.000214669
0.000212321
0.000210348
0.000208851
0.000207794
0.000207079
0.000206595
0.000206277
0.000206101
0.000206067
0.000206191
0.000206602
0.000207441
0.000208781
0.000210556
0.000212505
0.000214209
0.000215146
0.000225765
0.000225829
0.000224133
0.00022166
0.000218829
0.000216081
0.000213732
0.000211908
0.00021058
0.000209644
0.000208979
0.000208501
0.00020818
0.000208024
0.000208058
0.000208376
0.000209146
0.000210464
0.000212272
0.000214298
0.000216099
0.000217121
0.000233195
0.000233117
0.000231072
0.000228122
0.000224734
0.000221407
0.000218505
0.000216185
0.000214441
0.000213166
0.000212224
0.000211512
0.000210982
0.000210631
0.000210509
0.000210693
0.000211346
0.000212602
0.00021441
0.000216485
0.000218355
0.000219441
0.000243779
0.000243494
0.000240946
0.000237306
0.000233105
0.000228925
0.0002252
0.000222139
0.000219765
0.000217972
0.000216613
0.000215556
0.000214726
0.000214104
0.000213744
0.00021375
0.000214232
0.000215374
0.00021714
0.000219231
0.000221152
0.000222302
0.000259082
0.000258478
0.000255184
0.000250522
0.000245099
0.000239621
0.000234641
0.000230453
0.000227116
0.00022454
0.000222555
0.00022099
0.000219725
0.000218727
0.000218039
0.000217773
0.000218042
0.000219011
0.000220681
0.00022275
0.000224713
0.000225934
0.000282093
0.000280963
0.000276491
0.00027021
0.000262835
0.000255268
0.000248275
0.000242281
0.00023742
0.000233614
0.000230664
0.000228331
0.000226428
0.000224889
0.000223739
0.000223081
0.000223069
0.000223789
0.000225298
0.000227308
0.000229303
0.00023061
0.000318761
0.000316682
0.000310209
0.00030117
0.000290459
0.000279321
0.000268873
0.000259791
0.000252334
0.000246454
0.000241902
0.00023833
0.00023545
0.000233113
0.000231297
0.000230087
0.00022964
0.000230031
0.000231303
0.000233212
0.000235226
0.000236639
0.000380703
0.000376828
0.000366756
0.000352831
0.00033621
0.000318711
0.000302043
0.000287336
0.000275121
0.00026544
0.000257975
0.000252226
0.000247721
0.000244139
0.00024133
0.000239313
0.000238216
0.000238153
0.000239083
0.000240825
0.000242847
0.000244391
0.000488603
0.000481376
0.000464849
0.000442348
0.000415377
0.000386605
0.000358691
0.000333555
0.000312311
0.000295291
0.000282174
0.000272268
0.000264796
0.00025909
0.000254709
0.000251481
0.000249427
0.000248656
0.000249118
0.000250603
0.000252611
0.000254327
0.000674963
0.000661897
0.000634336
0.000597477
0.000553286
0.000505589
0.00045834
0.000414653
0.000376687
0.000345521
0.000321191
0.000302949
0.000289609
0.0002799
0.000272786
0.000267621
0.000264126
0.000262283
0.000262071
0.000263158
0.000265119
0.000267061
0.000985633
0.000963074
0.00091757
0.000857813
0.00078654
0.000709185
0.000631305
0.00055739
0.000490888
0.00043416
0.000388383
0.000353459
0.000328097
0.000310269
0.000297879
0.000289288
0.000283487
0.000280041
0.000278774
0.000279306
0.000281173
0.000283414
0.00148652
0.00144894
0.0013749
0.00127923
0.00116624
0.00104396
0.000920096
0.000800537
0.00068981
0.000591437
0.000508221
0.00044193
0.000392489
0.000357792
0.000334488
0.00031918
0.000309288
0.000303288
0.00030042
0.000300157
0.000301867
0.000304527
0.00228057
0.00221905
0.00209955
0.00194743
0.00177001
0.00157945
0.00138669
0.00119949
0.00102331
0.000862222
0.000720024
0.000600553
0.000506537
0.000438074
0.000391874
0.000362513
0.000344555
0.000334034
0.000328642
0.000327157
0.000328687
0.000331963
0.00353506
0.00343499
0.00324315
0.00300245
0.00272512
0.00242953
0.00213163
0.00184204
0.00156766
0.00131314
0.00108248
0.000880262
0.000711789
0.000581344
0.00048919
0.000430071
0.00039508
0.000375612
0.000365778
0.000362365
0.000363667
0.000367832
0.00552406
0.00536234
0.00505683
0.00467816
0.00424603
0.00378788
0.00332704
0.00287842
0.00245164
0.00205312
0.00168749
0.00135925
0.0010744
0.000840483
0.000663734
0.000544317
0.000472789
0.000434229
0.000415535
0.000408651
0.00040957
0.000415033
0.0087002
0.0084414
0.00796066
0.00736961
0.00669877
0.00598867
0.00527286
0.00457258
0.00390238
0.00327291
0.00269198
0.00216557
0.00169947
0.00130141
0.000981726
0.000749583
0.000602563
0.000522334
0.00048444
0.000470416
0.000470317
0.000477598
0.0138155
0.013407
0.0126626
0.0117506
0.0107154
0.00961527
0.00849774
0.00739362
0.00632632
0.00531542
0.0043771
0.00352378
0.00276402
0.00210419
0.00155335
0.00112644
0.000834199
0.000665498
0.000584891
0.000554778
0.000551705
0.000561323
0.0221033
0.0214717
0.0203466
0.0189651
0.0173844
0.0156848
0.0139325
0.0121737
0.0104489
0.00879614
0.00724943
0.00583727
0.00457943
0.00348542
0.00255923
0.00181102
0.00126027
0.000915127
0.00074123
0.000674163
0.00066251
0.000674558
0.0355773
0.0346306
0.0329928
0.0309598
0.0285863
0.0259759
0.0232205
0.0203934
0.0175688
0.0148221
0.0122245
0.00983822
0.00770997
0.00586509
0.00430692
0.00303018
0.00204299
0.00137057
0.00100238
0.000851847
0.000817115
0.000829925
0.0574537
0.0560991
0.05385
0.0509882
0.0475147
0.0435483
0.0392172
0.0346458
0.0299757
0.0253562
0.0209333
0.0168377
0.0131722
0.0100006
0.0073399
0.0051687
0.00345663
0.00221302
0.00146437
0.00113162
0.00103967
0.00104671
0.0928265
0.0910174
0.0882096
0.0844499
0.0795554
0.0736258
0.0668412
0.059428
0.0516629
0.0438397
0.0362501
0.0291598
0.0227818
0.0172568
0.0126402
0.00890609
0.00596817
0.00376
0.00231054
0.00159748
0.00137212
0.00135601
0.149586
0.147434
0.144525
0.140135
0.133605
0.124922
0.114348
0.102319
0.0893862
0.0761205
0.0630845
0.0507976
0.0396808
0.0300194
0.0219452
0.0154487
0.0103848
0.00655153
0.00387569
0.00241073
0.00188888
0.00180791
0.239766
0.237756
0.236077
0.232088
0.224027
0.211585
0.195177
0.175687
0.154203
0.131802
0.109531
0.0883637
0.0691018
0.0522954
0.0382134
0.0268847
0.0181062
0.0115001
0.00674422
0.00387583
0.00272526
0.00248531
0.381327
0.380702
0.3833
0.382091
0.37329
0.355815
0.330468
0.299013
0.263537
0.22602
0.188354
0.152307
0.119351
0.0905013
0.0662493
0.0466745
0.0315009
0.0201446
0.0119001
0.00654849
0.0041292
0.00352757
0.600406
0.603758
0.616743
0.623181
0.61557
0.591476
0.552439
0.501884
0.443727
0.381582
0.31879
0.258442
0.203118
0.154567
0.113603
0.0803638
0.0544617
0.0350626
0.0209795
0.0114052
0.00655424
0.0051713
0.933977
0.946285
0.980743
1.0044
1.00127
0.96851
0.908214
0.827178
0.732699
0.631288
0.528645
0.429907
0.339302
0.259585
0.191975
0.136697
0.093246
0.0604858
0.0366772
0.0200939
0.0108152
0.00782157
1.43353
1.46374
1.53881
1.59545
1.60228
1.55713
1.46342
1.33437
1.18311
1.02096
0.857196
0.699872
0.555448
0.427924
0.318993
0.229059
0.157588
0.103129
0.0633243
0.0352744
0.0183214
0.0121693
2.17061
2.23353
2.37988
2.49346
2.51742
2.45288
2.30743
2.10509
1.86809
1.6151
1.36053
1.11631
0.891688
0.692239
0.520428
0.377126
0.261942
0.173145
0.107636
0.0611061
0.0313975
0.0193742
3.24302
3.36125
3.62425
3.82918
3.88086
3.78588
3.56355
3.25381
2.89199
2.50719
2.12078
1.74966
1.40684
1.10025
0.833916
0.609792
0.427774
0.285782
0.179873
0.104053
0.0537722
0.0313475
4.78511
4.99181
5.43727
5.78502
5.88298
5.74638
5.41512
4.95392
4.41573
3.84282
3.26569
2.70865
2.19087
1.72465
1.31703
0.971772
0.688934
0.465577
0.296712
0.17466
0.0915616
0.0512711
6.98183
7.32587
8.05193
8.62456
8.80575
8.61921
8.14074
7.47355
6.69225
5.85365
5.00028
4.16843
3.38859
2.68184
2.06122
1.53344
1.09836
0.75127
0.485174
0.290371
0.154954
0.0844644
10.1025
10.6574
11.8119
12.7356
13.0643
12.8288
12.1652
11.2309
10.124
8.91445
7.66077
6.41961
5.24212
4.16632
3.21692
2.40705
1.73736
1.20055
0.785627
0.478169
0.260354
0.139975
14.5499
15.4255
17.225
18.6817
19.2694
19.0222
18.165
16.9124
15.3815
13.6535
11.8133
9.95479
8.16548
6.51206
5.04004
3.77771
2.7333
1.89855
1.25492
0.776297
0.432216
0.232641
20.9315
22.2914
25.0554
27.3311
28.4151
28.2887
27.3115
25.7119
23.6243
21.1523
18.4332
15.6268
12.8802
10.3053
7.98278
5.97245
4.30646
2.9849
1.97912
1.23923
0.705673
0.385845
30.1752
32.2626
36.4903
40.088
42.1271
42.4374
41.5199
39.5495
36.6922
33.1161
29.0537
24.771
20.5129
16.4688
12.7774
9.54692
6.85066
4.71483
3.11044
1.95521
1.1351
0.633516
43.737
46.9123
53.386
59.1392
62.8942
64.2303
63.5637
61.1465
57.1619
51.9164
45.7943
39.2207
32.6009
26.2625
20.443
15.3155
10.9942
7.53533
4.93093
3.08451
1.80927
1.03075
63.8773
68.6748
78.5648
87.7092
94.2604
97.3782
97.1459
94.0723
88.3513
80.5624
71.328
61.3087
51.1342
41.3317
32.3018
24.3266
17.5671
12.0897
7.89633
4.90504
2.87843
1.66738
93.9673
101.176
116.177
130.426
141.163
146.815
147.074
142.773
134.277
122.617
108.797
93.8092
78.5569
63.7895
50.1099
37.9721
27.6329
19.185
12.6199
7.84303
4.59062
2.68123
138.924
149.692
172.17
193.739
210.205
218.937
219.308
212.58
199.586
182.074
161.638
139.722
117.538
96.0465
76.019
58.09
42.6694
29.9309
19.9038
12.4831
7.33012
4.29459
205.698
221.627
254.7
286.134
309.688
321.46
320.8
309.41
289.126
262.811
232.97
201.638
170.343
140.19
112.016
86.5474
64.3514
45.7365
30.8204
19.5844
11.6186
6.83618
303.893
327.149
374.6
418.293
449.529
463.033
458.756
438.727
406.842
367.58
324.708
280.986
238.226
197.527
159.583
124.995
94.3552
68.1479
46.6867
30.1364
18.0954
10.6936
446.154
479.366
545.053
601.988
639.4
650.99
637.677
602.833
553.485
496.205
436.191
376.977
320.581
267.91
219.245
174.719
134.569
99.2338
69.3616
45.5619
27.6075
16.3006
648.979
694.355
779.955
846.724
884.062
886.269
854.95
797.229
723.716
643.296
562.462
485.324
413.918
348.761
289.501
235.534
186.294
141.539
101.815
68.3758
41.6809
24.3602
934.681
991.076
1089.42
1152.85
1175.45
1155.63
1094.65
1005.62
902.127
795.04
691.684
596.26
510.444
434.113
366.084
304.876
248.997
196.963
147.87
102.863
63.3933
36.1568
1335.3
1394.39
1477.66
1503.85
1485.21
1423.39
1322.54
1196.96
1061.67
928.493
804.825
694.318
597.817
514.354
441.821
377.857
320.343
266.867
212.594
156.302
100.168
53.466
1891.01
1935.56
1932.22
1846.25
1748.26
1630.64
1488.26
1329.37
1167.88
1015.75
879.456
761.181
660.732
576.535
505.868
445.896
394.668
350.348
307.502
254.943
178.064
112.343
2624.78
2620.24
2324.66
2045.04
1858.98
1702.33
1535.69
1360.05
1188.26
1031.44
894.574
778.793
683.135
605.418
543.515
494.878
458.796
437.91
435.352
436.228
368.685
389.958
14.7214
81.0623
96.1031
110.872
458.625
922.901
1164.09
1232.32
1218.35
1171.27
1118.69
1069.42
1026.09
988.035
952.65
915.881
873.473
826.802
782.36
744.198
712.634
686.063
662.478
642.238
626.89
617.017
611.199
606.113
598.898
588.744
576.949
565.264
553.955
542.82
533.21
527.375
527.034
531.785
542.358
557.376
575.99
597.48
620.887
644.668
667.263
688.103
707.236
723.796
735.527
740.285
738.803
731.114
718.777
701.616
680.497
657.112
632.861
609.349
588.248
570.414
554.576
537.673
518.357
499.022
482.412
468.99
458.673
450.936
445.48
442.265
441.684
443.376
448.191
456.36
466.887
478.625
490.429
501.695
512.316
521.993
530.147
536.259
540.414
544.204
549.604
558.381
572.431
592.523
617.633
645.265
668.462
677.357
670.73
654.151
640.781
633.725
630.791
629.622
627.504
622.294
613.975
603.981
593.251
580.443
565.505
551.266
546.311
567.471
689.288
1190.85
2734.81
2652.69
2223.81
1931.02
1751.15
1601.94
1441.8
1273.28
1110.44
964.529
839.816
736.4
653.171
588.847
541.16
508.289
493.688
506.107
575.669
703.76
801.83
1132.86
2773.51
2031.05
1626.21
1406.17
1291.99
1224.05
1171.28
1116.36
1055.95
989.631
924.951
867.664
817.229
771.645
730.319
695.816
669.042
647.711
627.793
607.653
587.655
567.95
549.767
536.035
529.143
528.895
533.756
544.551
559.165
574.654
587.833
596.537
599.714
597.996
591.419
582.162
571.73
561.892
554.062
549.576
549.338
550.988
552.415
550.992
545.279
536.981
528.422
521.234
516.26
513.954
514.193
516.186
520.591
527.66
536.278
544.695
551.98
558.056
563.056
567.01
569.732
570.729
570.041
566.845
560.424
551.084
539.318
526.107
512.874
501.063
491.591
485.078
482.11
482.644
485.715
491.548
499.379
508.943
518.927
526.598
530.561
531.229
529.748
526.331
522.292
518.553
515.717
514.51
514.589
515.829
518.419
523.051
529.165
536.599
545.993
558.055
573.2
591.692
613.29
636.814
660.544
683.454
705.259
725.804
744.672
771.891
845.656
1058.93
1574.48
2589.74
0.0135662
0.0369587
0.0789816
25.1049
340.933
824.321
1111.2
1216.84
1222.63
1186.44
1137.17
1088.64
1045.99
1009.13
973.515
934.352
889.099
840.923
797.398
762.156
733.347
708.222
685.377
666.061
652.741
645.405
640.972
635.869
627.986
616.619
603.337
590.288
577.668
565.217
554.637
548.897
548.963
554.024
564.488
579.701
598.949
621.773
646.874
672.015
695.105
715.826
734.646
750.847
761.702
764.317
760.506
751.661
738.044
719.257
696.757
672.531
647.691
623.677
601.953
582.854
565.208
546.624
525.931
505.767
489.405
477.535
468.652
461.899
457.985
456.304
456.564
458.688
464.523
473.024
483.19
494.112
504.87
515.359
525.932
536.084
544.691
550.86
553.968
556.39
560.758
568.871
582.677
602.732
628.11
654.462
674.385
677.83
666.634
649.507
639.906
639.629
642.516
644.567
643.233
637.911
627.467
614.919
601.57
586.272
568.519
551.681
545.445
561.926
653.389
949.098
1323.36
1472.87
1488.08
1456.99
1409.64
1330.6
1213.99
1077.65
942.146
820.859
718.616
635.551
570.713
523.442
493.276
479.735
483.694
516.171
618.236
794.915
892.269
1033.73
1753.22
1773.24
1569.91
1401.65
1310.3
1254.71
1204.37
1144.32
1074.97
1003.21
936.476
878.857
829.875
787.171
749.438
716.965
690.688
669.094
648.464
627.333
606.148
585.134
566.084
552.966
548.391
550.601
557.988
569.126
582.628
596.121
607.342
614.578
616.69
614.334
608.477
599.692
589.245
579.342
571.695
566.844
564.774
564.267
563.273
559.659
553.008
543.71
535.593
530.291
527.835
526.994
527.166
528.801
532.744
540.719
550.646
560.734
569.823
577.907
585.065
590.956
595.079
596.698
595.692
591.295
583.253
571.954
558.423
543.737
529.624
517.622
508.182
501.634
498.735
498.996
501.007
505.907
513.676
523.347
532.786
540.374
545.31
546.781
545.74
543.156
539.783
536.917
534.97
534.592
535.177
536.382
538.601
543.085
549.408
556.611
565.325
576.635
591.024
608.996
630.052
652.683
675.654
698.605
721.172
742.617
762.939
790.871
862.582
1069.53
1573.42
2384.16
0.0100216
0.010536
0.0132364
0.861903
67.6746
438.757
780.44
966.02
1031.85
1032.65
1003.27
965.588
930.758
902.075
875.682
845.338
807.461
764.816
724.75
690.969
662.179
638.019
617.608
601.696
592.759
590.435
590.441
588.916
583.601
573.734
561.228
548.637
535.673
521.388
507.645
498.122
494.574
496.171
503.352
515.283
531.128
550.607
572.635
594.541
613.965
630.686
645.893
660.02
671.229
675.369
673.253
667.252
657.854
643.166
624.283
603.824
582.749
561.784
542.286
524.809
508.401
491.02
471.546
452.355
436.926
425.461
416.7
409.799
405.489
403.127
401.957
402.671
406.33
412.466
420.195
429.124
438.448
448.002
458.098
468.229
477.083
483.113
485.21
484.785
484.909
487.433
494.293
508.048
529.884
556.639
578.924
584.276
572.877
555.261
546.62
548.542
555.515
561.987
564.385
561.509
552.019
539.028
524.932
509.139
490.338
470.179
454.855
455.151
492.999
620.032
798.781
911.049
998.417
1052.46
1062.38
1022.43
938.36
834.844
730.936
638.194
561.117
500.198
454.636
424.344
409.3
409.723
427.394
473.379
577.655
760.34
894.538
930.429
1100.39
1255.3
1243.84
1177.73
1132.28
1105.88
1078.19
1034.09
976.803
915.454
858.023
806.948
762.091
722.635
688.047
658.545
635.416
617.035
598.678
578.09
556.044
533.869
514.136
500.275
493.705
493.077
496.396
503.152
512.804
523.934
534.663
542.938
546.878
546.684
543.321
536.78
526.965
516.185
506.957
500.286
496.33
494.774
494.115
492.151
487.255
479.972
472.463
466.56
462.248
459.08
457.379
457.96
462.079
470.379
481.188
492.654
503.528
513.546
522.527
530.045
535.603
538.417
538.106
534.678
527.592
517.302
504.885
491.281
478.025
466.697
457.467
450.206
445.497
443.19
442.564
443.998
448.915
457.02
466.212
474.649
481.411
485.575
486.629
485.574
483.771
482.422
481.868
482.465
484.096
485.181
485.601
486.896
489.31
492.101
496.007
502.461
511.921
524.63
540.326
557.815
576.481
597.336
621.472
648.364
676.161
708.787
770.861
928.417
1290.86
1811.8
0.00998498
0.0099957
0.010327
0.013242
2.27915
66.8174
315.992
537.305
666.083
719.713
728.371
716.523
698.463
682.487
668.65
652.578
630.616
603.133
574.173
545.955
518.512
494.303
474.563
459.223
449.58
446.092
445.953
445.919
444.033
438.263
429.692
420.679
411.206
399.841
387.018
375.309
367.059
362.999
363.004
367.154
374.743
385.228
398.132
411.865
424.627
435.831
446.213
456.846
467.82
476.316
480.468
481.267
480.199
475.716
467.334
456.546
444.607
431.853
418.807
406.188
393.927
381.04
366.685
351.918
338.8
327.741
317.675
308.611
301.219
295.481
290.917
287.921
287.014
288.188
291.456
296.383
302.628
309.764
317.684
326.134
334.34
341.025
344.859
345.487
344.685
343.695
344.149
349.307
363.21
386.228
411.538
426.659
425.643
414.067
403.08
399.843
401.748
405.206
407.153
406.389
401.805
393.511
383.488
372.372
359.29
344.086
329.616
325.157
347.784
445.453
603.694
718.391
791.287
815.966
804.067
757.185
687.167
608.144
531.338
463.571
408.095
365.744
336.05
318.482
313.57
320.807
344.493
388.893
472.656
619.583
780.108
850.69
882.501
929.743
933.223
902.265
867.272
844.979
831.088
809.878
779.765
743.147
703.788
664.645
627.27
592.291
560.695
533.029
510.757
493.777
478.98
463.264
444.9
424.802
405.599
389.162
376.374
367.559
362.423
360.959
363.235
369.331
377.647
386.25
392.753
395.955
396.248
394.182
388.942
381.66
374.242
368.222
364.182
362.287
361.92
361.99
361.032
357.963
353.144
347.685
341.866
336.08
331.218
328.495
328.679
332.333
338.74
346.449
354.5
362.285
369.369
375.459
380.648
384.767
387.468
388.265
386.996
382.974
376.552
368.3
359.323
350.897
343.377
336.471
330.444
325.677
322.251
320.512
321.211
325.275
331.75
339.217
346.911
353.789
358.561
360.684
361.444
361.999
362.427
362.788
363.481
363.352
362.391
361.208
360.161
359.137
358.257
358.579
361.193
366.357
374.169
384.155
395.949
410.361
429.04
452.739
480.028
510.735
553.956
641.794
830.383
1107.99
0.00999561
0.00994351
0.00994833
0.0101393
0.0151547
1.03259
31.1394
161.84
305.204
399.687
447.795
465.679
468.027
465.234
460.944
454.886
445.104
431.357
415.947
399.385
380.019
359.621
341.725
326.657
314.452
306.078
301.115
298.088
295.484
291.828
286.513
280.587
274.651
267.936
259.767
250.738
242.338
235.821
231.752
230.093
230.494
233.195
237.928
244.219
251.157
258.159
265.312
273.145
282.134
291.373
299.024
304.186
307.424
308.806
308.059
305.46
302.063
298.382
293.832
288.054
281.192
273.208
263.924
253.879
244.413
235.875
227.2
218.219
209.824
202.527
196.175
190.753
186.626
184.027
182.906
183.11
184.681
187.081
190.386
194.671
199.802
205.212
209.945
213.19
214.878
215.329
215.443
217.558
225.548
241.06
261.036
278.162
284.985
281.442
272.253
265.816
264.081
263.948
263.944
263.796
262.652
259.332
254.118
247.956
241.153
234.698
232.162
237.05
262.072
338.327
456.593
541.595
581.328
582.214
560.643
523.252
474.963
421.976
370.109
323.775
285.954
258.037
239.896
230.831
230.586
240.027
261.695
297.607
356.144
452.593
579.7
684.045
735.401
756.829
758.849
744.222
714.099
680.705
651.81
630.549
612.945
590.886
562.096
530.588
499.487
469.774
441.976
416.732
395.279
378.288
364.406
351.515
337.284
320.879
303.494
286.503
271.05
258.064
247.872
240.956
237.248
236.864
239.17
243.248
247.271
249.663
250.555
250.606
250.261
249.499
248.058
246.116
244.161
242.564
241.709
241.385
240.669
239.151
237.026
234.797
232.155
228.085
222.853
218.02
214.616
212.971
213.075
214.757
217.551
220.843
224.405
228.165
232.138
236.324
240.481
244.119
246.807
248.027
247.344
244.485
239.937
234.737
229.539
224.416
219.498
215.064
211.344
208.692
207.466
207.949
210.737
215.042
220.515
226.871
233.195
238.165
241.941
244.998
246.86
247.089
246.786
245.907
244.429
242.805
241.341
239.832
238.08
236.417
235.48
235.807
238.099
242.125
247.661
255.001
265.187
279.353
297.213
317.873
342.89
381.919
458.041
582.849
0.00998583
0.0099284
0.009883
0.00987789
0.00996389
0.0109097
0.118785
7.18768
52.546
140.793
208.776
250.84
273.563
284.545
289.511
290.2
287.759
281.9
274.584
266.516
256.388
243.642
230.129
217.665
206.945
198.496
192.149
187.774
184.503
181.522
177.856
173.496
168.976
164.282
158.997
153.058
146.973
141.473
137.084
133.982
132.103
131.44
131.806
133.55
136.199
139.49
143.511
148.526
154.724
161.865
169.02
175.109
179.631
182.696
184.31
184.713
184.744
185.539
186.581
186.612
185.29
181.991
176.955
170.876
164.972
159.749
154.583
148.854
142.731
136.647
130.83
125.497
120.881
117.073
114.019
111.63
109.874
108.711
108.402
108.845
110.31
112.554
115.224
117.801
119.985
121.816
123.545
126.228
131.779
141.302
153.399
165.762
173.399
173.429
168.503
162.81
159.656
158.704
158.442
158.606
158.656
157.939
155.95
153.297
150.856
151.375
158.746
173.336
192.847
225.212
272.055
311.317
334.478
344.274
344.681
334.912
314.511
286.288
255.178
225.994
202.337
185.951
176.678
173.487
175.434
183.725
199.227
223.513
259.874
315.488
394.649
482.919
552.719
595.705
614.628
612.396
595.545
567.756
533.933
505.784
489.098
472.243
449.099
422.357
395.511
370.274
346.864
325.255
306.112
290.303
277.406
265.591
253.381
239.929
225.782
211.988
199.063
187.055
176.361
167.542
160.901
156.386
153.639
152.138
151.144
149.496
147.275
145.804
145.906
148.003
150.747
152.808
153.655
153.402
152.633
151.619
150.233
148.454
146.727
145.694
145.403
144.537
141.962
137.892
133.54
129.877
127.281
125.718
125.117
125.234
126.018
127.453
129.705
132.544
135.592
138.636
141.528
144.093
145.712
145.754
144.248
141.567
138.463
135.322
132.331
129.586
127.092
124.941
123.351
122.46
122.473
123.437
125.642
129.114
133.394
137.623
141.615
145.497
148.646
150.679
151.848
152.527
152.617
152.5
152.27
151.956
151.523
150.965
150.442
150.195
150.308
151.198
152.842
155.434
159.554
165.969
174.818
185.703
198.574
215.126
241.289
287.086
0.00998871
0.00992552
0.00986049
0.00980958
0.009779
0.00976336
0.00978488
0.0142879
0.476959
9.0487
39.712
84.0918
117.717
140.075
154.072
161.815
164.463
163.871
161.557
158.394
154.015
147.797
140.209
132.717
126.536
121.756
117.909
114.753
112.107
109.674
106.886
103.584
100.012
96.3074
92.3775
88.2211
84.1371
80.4961
77.4915
75.1073
73.2846
71.9549
71.1396
70.8999
71.0675
71.9069
73.3985
75.6502
78.6474
82.4283
86.8236
91.3369
95.4493
98.6563
100.726
101.847
102.589
103.755
105.543
107.443
108.731
108.37
106.574
103.839
101
98.4946
96.1572
93.7139
91.0532
88.1813
85.0375
81.7424
78.4704
75.2823
72.1964
69.2909
66.6936
64.5435
62.9706
61.9521
61.4514
61.447
61.811
62.4891
63.2702
64.2444
65.6058
67.8121
71.4666
76.8091
83.5467
90.5227
95.4564
96.3729
94.5906
91.7121
89.7771
89.1007
88.9176
89.0774
89.5412
89.4634
88.9239
88.1157
88.1632
91.4088
101.172
114.732
129.261
140.331
152.108
168.364
189.46
211.275
227.177
231.893
225.458
209.183
188.998
170.358
156.722
149.152
146.427
146.786
149.436
154.278
161.935
173.971
192.417
220.72
262.779
317.415
374.16
422.343
454.232
465.532
460.882
445.989
424.315
401.198
382.94
365.567
346.235
325.835
305.654
286.47
268.682
252.282
237.382
224.516
213.834
204.173
194.175
183.611
173.17
163.648
154.63
145.185
135.471
126.658
119.528
113.873
109.049
104.543
99.888
94.2239
87.8834
83.4338
82.3508
83.5637
86.5979
89.4902
91.5171
92.3406
92.0499
91.0371
89.5204
87.765
86.0782
84.8292
84.1943
83.7691
82.9924
81.3715
78.8671
75.9331
73.1576
70.8612
68.9941
67.5601
66.7218
66.7157
67.2485
68.4643
69.9042
71.4235
73.0453
74.7057
76.1218
76.9684
76.8596
75.9741
74.6732
73.2789
71.9227
70.6131
69.3059
67.9896
66.7358
65.6465
64.8297
64.6139
64.91
65.9945
67.7787
69.8111
71.771
73.8467
76.404
79.5419
82.804
85.8079
88.355
90.3453
91.7936
92.8233
93.6131
94.2887
94.9362
95.5028
95.8781
96.0543
96.3472
96.9841
98.2712
100.6
104.079
108.609
114.139
120.827
129.48
142.596
0.00998653
0.00991502
0.00984027
0.00977461
0.00971644
0.00966156
0.00960655
0.00954918
0.0095735
0.0195398
0.376196
4.12924
14.802
35.7227
52.1474
63.3482
71.448
77.2646
81.0055
82.9881
83.0902
81.5051
78.9965
76.8406
75.3685
73.9428
72.2662
70.4496
68.6898
66.9474
64.981
62.714
60.2088
57.5399
54.7607
51.976
49.395
47.1905
45.3765
43.8771
42.6202
41.5278
40.571
39.7898
39.2674
39.1523
39.3168
39.8604
40.6379
41.7089
43.201
44.9895
46.9781
48.9543
50.5868
51.6203
52.1618
52.6754
53.5635
54.7044
55.7622
56.3042
56.2974
55.8668
55.3129
54.7707
54.2385
53.601
52.7886
51.8698
50.8467
49.6843
48.3457
46.8053
45.0789
43.2859
41.6068
40.1635
39.0086
38.0332
37.1855
36.4603
35.8439
35.3444
35.0157
35.0111
35.2527
35.9814
37.2451
39.0501
41.6741
44.8013
47.1477
47.8231
47.5211
47.5333
48.1101
49.0265
49.2776
49.3458
49.6059