/*--------------------------------*- C++ -*----------------------------------*\
  =========                 |
  \\      /  F ield         | OpenFOAM: The Open Source CFD Toolbox
   \\    /   O peration     | Website:  https://openfoam.org
    \\  /    A nd           | Version:  7
     \\/     M anipulation  |
\*---------------------------------------------------------------------------*/
FoamFile
{
    version     2.0;
    format      ascii;
    class       volScalarField;
    location    "250";
    object      k;
}
// * * * * * * * * * * * * * * * * * * * * * * * * * * * * * * * * * * * * * //

dimensions      [0 2 -2 0 0 0 0];

internalField   nonuniform List<scalar> 
96800
(
0.000530218
0.00053015
0.000529683
0.000529103
0.000528468
0.000527871
0.000527382
0.000526996
0.000526693
0.000526466
0.000526321
0.000526287
0.000526406
0.000526659
0.00052709
0.000527716
0.000528559
0.000529579
0.000530721
0.000531911
0.000533126
0.0005346
0.000530684
0.000531139
0.000530713
0.000530106
0.000529414
0.000528766
0.000528229
0.000527809
0.00052749
0.000527259
0.000527121
0.000527091
0.000527192
0.000527447
0.000527871
0.000528498
0.000529337
0.00053035
0.00053148
0.000532628
0.000533695
0.000534502
0.000531154
0.000531711
0.000531278
0.000530562
0.000529733
0.000528947
0.000528295
0.000527798
0.000527438
0.000527196
0.000527061
0.000527039
0.00052714
0.00052739
0.00052781
0.000528421
0.000529234
0.000530223
0.000531322
0.000532399
0.000533276
0.000533687
0.000531766
0.000532314
0.000531788
0.000530907
0.00052988
0.000528905
0.0005281
0.000527503
0.000527098
0.000526847
0.000526724
0.000526717
0.000526831
0.000527083
0.000527489
0.000528074
0.000528853
0.000529816
0.000530889
0.000531926
0.000532716
0.000533005
0.00053235
0.000532854
0.000532194
0.000531115
0.000529868
0.00052869
0.00052773
0.000527036
0.000526591
0.000526341
0.000526239
0.000526259
0.000526393
0.000526649
0.000527041
0.000527599
0.000528347
0.000529287
0.000530354
0.00053139
0.000532173
0.000532444
0.000532847
0.000533297
0.000532494
0.000531217
0.000529759
0.000528397
0.000527303
0.000526533
0.000526062
0.000525824
0.000525757
0.000525811
0.000525969
0.000526229
0.000526608
0.000527142
0.000527868
0.000528798
0.000529881
0.000530954
0.000531777
0.000532071
0.000533262
0.000533659
0.00053272
0.000531268
0.00052963
0.000528118
0.000526922
0.0005261
0.000525621
0.000525409
0.000525382
0.000525475
0.000525657
0.000525917
0.000526281
0.000526795
0.00052751
0.000528453
0.000529576
0.000530712
0.000531601
0.000531934
0.000533642
0.000533991
0.000532931
0.000531331
0.000529551
0.000527923
0.000526653
0.000525801
0.00052533
0.000525151
0.000525166
0.000525294
0.000525492
0.000525747
0.000526091
0.000526584
0.0005273
0.000528278
0.000529465
0.000530683
0.000531647
0.000532038
0.000534046
0.000534353
0.000533196
0.000531474
0.000529579
0.00052786
0.000526536
0.000525668
0.000525211
0.000525064
0.00052511
0.000525259
0.000525462
0.000525704
0.000526021
0.000526491
0.000527213
0.000528239
0.00052951
0.000530826
0.000531883
0.000532334
0.000534533
0.000534806
0.000533568
0.000531744
0.000529752
0.000527958
0.000526588
0.000525706
0.000525259
0.000525128
0.000525187
0.000525338
0.000525529
0.000525747
0.00052603
0.00052648
0.000527213
0.000528291
0.000529657
0.000531092
0.000532261
0.000532782
0.000535151
0.000535396
0.000534088
0.000532175
0.000530094
0.00052823
0.000526815
0.00052591
0.000525452
0.000525314
0.000525357
0.000525488
0.000525652
0.000525834
0.000526085
0.000526522
0.000527276
0.000528416
0.000529887
0.000531456
0.00053275
0.00053335
0.000535932
0.000536152
0.00053478
0.000532784
0.000530614
0.000528676
0.000527205
0.000526257
0.000525761
0.000525585
0.00052559
0.000525679
0.000525802
0.000525946
0.000526174
0.000526615
0.000527408
0.00052863
0.000530222
0.000531932
0.000533358
0.000534045
0.000536898
0.000537094
0.000535658
0.000533575
0.000531312
0.000529287
0.000527741
0.000526727
0.000526162
0.000525918
0.000525866
0.000525901
0.000525975
0.000526088
0.000526311
0.000526779
0.000527638
0.00052897
0.000530706
0.000532569
0.000534134
0.000534914
0.000538065
0.000538231
0.000536722
0.000534547
0.000532181
0.000530053
0.000528409
0.000527299
0.000526643
0.000526311
0.000526182
0.00052616
0.000526193
0.00052629
0.000526529
0.000527053
0.000528012
0.000529485
0.00053139
0.000533424
0.000535135
0.000536011
0.000539448
0.000539579
0.00053799
0.000535706
0.000533221
0.000530971
0.000529207
0.000527981
0.000527217
0.000526788
0.000526576
0.000526498
0.000526506
0.000526604
0.000526882
0.00052749
0.00052858
0.000530219
0.000532309
0.00053453
0.000536401
0.000537379
0.000541085
0.000541177
0.000539494
0.000537085
0.000534459
0.000532065
0.000530164
0.000528812
0.000527937
0.000527416
0.000527127
0.000526998
0.00052699
0.0005271
0.000527432
0.000528141
0.000529373
0.000531186
0.000533472
0.000535894
0.000537938
0.000539023
0.000543047
0.000543093
0.000541304
0.000538752
0.000535963
0.000533404
0.000531353
0.000529875
0.000528898
0.000528294
0.000527941
0.000527771
0.000527746
0.000527869
0.000528253
0.000529055
0.000530416
0.000532392
0.000534872
0.000537498
0.000539724
0.000540927
0.000545469
0.000545464
0.000543553
0.000540839
0.000537865
0.000535123
0.00053291
0.000531306
0.000530235
0.000529557
0.000529146
0.000528931
0.000528881
0.000529003
0.000529416
0.000530277
0.000531731
0.000533843
0.000536498
0.000539319
0.000541734
0.000543073
0.000548578
0.000548511
0.000546461
0.000543562
0.000540376
0.000537424
0.000535033
0.000533291
0.000532119
0.000531363
0.000530883
0.000530605
0.000530506
0.000530603
0.000531002
0.00053187
0.000533367
0.00053557
0.000538365
0.000541364
0.000543969
0.000545458
0.000552695
0.00055255
0.00055033
0.000547206
0.000543765
0.000540562
0.000537957
0.000536046
0.000534743
0.000533884
0.000533312
0.00053294
0.000532756
0.000532785
0.000533112
0.000533923
0.000535405
0.000537648
0.000540544
0.000543695
0.000546477
0.000548112
0.00055819
0.000557942
0.000555492
0.000552074
0.000548311
0.000544796
0.000541919
0.000539786
0.000538305
0.000537303
0.000536603
0.000536101
0.000535782
0.000535685
0.000535887
0.000536578
0.000537981
0.000540215
0.000543173
0.000546446
0.000549371
0.000551128
0.000565389
0.00056501
0.000562249
0.000558437
0.000554251
0.00055034
0.000547116
0.000544696
0.00054299
0.000541801
0.000540938
0.000540273
0.00053978
0.000539498
0.000539527
0.00054004
0.000541306
0.000543479
0.000546462
0.00054982
0.000552851
0.000554705
0.000574552
0.000574
0.00057082
0.00056648
0.000561737
0.00055731
0.000553654
0.000550897
0.000548934
0.000547545
0.000546507
0.000545666
0.000544972
0.000544464
0.000544274
0.000544577
0.000545654
0.000547712
0.000550672
0.000554077
0.000557198
0.000559148
0.000586036
0.000585237
0.00058147
0.000576394
0.00057087
0.000565734
0.000561522
0.00055838
0.00055617
0.000554627
0.000553473
0.000552499
0.000551619
0.000550881
0.000550439
0.000550512
0.000551355
0.000553246
0.000556129
0.000559543
0.000562745
0.000564808
0.000600956
0.000599755
0.000595084
0.000588853
0.000582083
0.000575811
0.000570741
0.00056707
0.000564616
0.000563023
0.000561904
0.000560942
0.000559979
0.000559063
0.000558378
0.000558194
0.000558783
0.000560456
0.000563209
0.000566603
0.000569883
0.000572081
0.000622721
0.000620772
0.000614551
0.000606271
0.000597219
0.000588791
0.000582013
0.000577247
0.000574289
0.000572643
0.000571727
0.000571014
0.000570203
0.000569277
0.000568435
0.000568014
0.000568344
0.00056975
0.000572328
0.000575678
0.00057904
0.000581405
0.000659709
0.000656318
0.000647298
0.000635255
0.000621825
0.000608992
0.000598384
0.000590783
0.00058613
0.000583813
0.000582949
0.000582653
0.000582309
0.000581689
0.000580916
0.000580363
0.000580476
0.000581601
0.000583971
0.000587254
0.000590709
0.000593289
0.000727916
0.000721941
0.00070811
0.000689528
0.00066818
0.000646823
0.000628063
0.000613568
0.000603889
0.000598565
0.00059643
0.000596105
0.000596318
0.000596363
0.000596028
0.00059562
0.000595645
0.000596536
0.000598691
0.000601899
0.00060548
0.000608348
0.000850252
0.000840253
0.000819029
0.000790376
0.000756487
0.000720884
0.000687313
0.000658825
0.000637331
0.000623295
0.000615787
0.000612981
0.000612787
0.000613396
0.000613898
0.00061409
0.00061432
0.000615166
0.000617169
0.000620334
0.000624109
0.000627374
0.00105059
0.00103507
0.00100365
0.000961272
0.000910248
0.000854683
0.000799202
0.000748092
0.000704977
0.000672279
0.00065067
0.00063891
0.000634346
0.000633858
0.000634827
0.000635946
0.000636896
0.000638099
0.000640188
0.00064344
0.000647545
0.000651377
0.00135055
0.00132788
0.00128303
0.00122294
0.00115026
0.00106979
0.000986727
0.000905876
0.000831795
0.000768694
0.000719954
0.000687092
0.000668819
0.000661424
0.000660358
0.000661778
0.000663796
0.000665939
0.000668605
0.000672275
0.000676992
0.000681674
0.00177491
0.00174285
0.0016802
0.00159712
0.00149711
0.00138607
0.00126995
0.00115374
0.00104199
0.000939235
0.000850469
0.000780674
0.000732849
0.000705983
0.00069506
0.000693499
0.000695802
0.00069934
0.000703334
0.00070807
0.000713935
0.000719938
0.00235964
0.00231491
0.00222845
0.00211513
0.00197989
0.00183024
0.00167331
0.00151453
0.0013583
0.0012087
0.00107044
0.000949677
0.000853564
0.000787365
0.000750568
0.000736305
0.000735103
0.000739354
0.000745421
0.000752253
0.000760181
0.000768215
0.00315887
0.00309701
0.0029789
0.00282581
0.00264465
0.00244503
0.00223573
0.00202298
0.00181146
0.00160509
0.00140786
0.00122505
0.00106458
0.000936602
0.000849408
0.00080297
0.000787235
0.00078836
0.000796336
0.000806497
0.00081789
0.000829039
0.0042536
0.00416876
0.00400925
0.00380428
0.00356321
0.00329828
0.00302019
0.00273625
0.00245195
0.00217181
0.0019
0.00164109
0.00140163
0.00119201
0.0010266
0.00091793
0.000865089
0.000852017
0.000858706
0.000872981
0.000889706
0.000905572
0.0057643
0.00564906
0.00543657
0.00516491
0.00484623
0.00449567
0.00412598
0.00374582
0.00336202
0.00298067
0.00260744
0.0022479
0.00190808
0.00159628
0.00132652
0.00111995
0.000993639
0.000942001
0.000937988
0.000954983
0.000979108
0.0010019
0.00786447
0.00771016
0.00743234
0.00707751
0.00665991
0.00619748
0.00570503
0.00519283
0.00466994
0.00414531
0.0036278
0.00312612
0.0026485
0.00220285
0.00179984
0.00145979
0.00121371
0.00108174
0.00104454
0.0010579
0.00109082
0.00112326
0.0108019
0.0105998
0.0102468
0.00979333
0.00925305
0.00864576
0.00798819
0.00729296
0.00657295
0.00584198
0.00511447
0.00440503
0.00372735
0.00309302
0.0025118
0.00199812
0.00158273
0.00131147
0.00119798
0.00119182
0.00123186
0.00127671
0.0149181
0.0146621
0.0142325
0.0136716
0.0129857
0.012194
0.0113151
0.0103655
0.00936462
0.0083345
0.00729887
0.00628223
0.0053079
0.00439585
0.00356034
0.00281251
0.00217258
0.00169245
0.00143393
0.0013736
0.00141259
0.00147187
0.0206824
0.0203732
0.0198843
0.0192234
0.0183759
0.017355
0.0161808
0.0148775
0.013476
0.0120118
0.0105241
0.00905331
0.00763822
0.00631255
0.00510096
0.0040184
0.0030754
0.00230836
0.00181073
0.00163009
0.00164869
0.00172247
0.0287243
0.0283773
0.0278808
0.0271587
0.0261494
0.0248504
0.0232835
0.0214875
0.0195149
0.0174237
0.0152769
0.01314
0.0110757
0.00913808
0.00736829
0.00579279
0.00442095
0.00326651
0.00241624
0.00200944
0.00196632
0.00204799
0.0398802
0.0395367
0.0391419
0.038448
0.0373014
0.0356683
0.0335757
0.0310924
0.0283086
0.0253182
0.0222204
0.0191183
0.0161103
0.0132813
0.010695
0.00839544
0.00640055
0.00470919
0.00337107
0.00258784
0.00240283
0.00247635
0.0552411
0.0549822
0.0548818
0.0543778
0.053151
0.0511145
0.0483134
0.0448712
0.0409405
0.036671
0.0322164
0.0277354
0.0233797
0.0192783
0.0155248
0.0121839
0.00928833
0.0068356
0.00483262
0.00348176
0.00301578
0.00304739
0.0761955
0.0761622
0.0766827
0.0766071
0.0754042
0.0728734
0.0691068
0.064321
0.0587708
0.0526969
0.0463344
0.039922
0.0336863
0.0278137
0.0224334
0.0176328
0.0134621
0.00992862
0.00701062
0.00485733
0.0038997
0.00381959
0.104461
0.10488
0.106521
0.107269
0.106217
0.103046
0.0979291
0.0912436
0.0834165
0.0748339
0.065849
0.0568065
0.0480264
0.039759
0.0321684
0.0253677
0.0194297
0.0143802
0.010191
0.00693778
0.00519341
0.00487566
0.14213
0.143351
0.146837
0.148974
0.148181
0.1441
0.137052
0.127695
0.116723
0.104739
0.092251
0.0797343
0.0676108
0.0561908
0.0456681
0.0361845
0.027846
0.0207079
0.0147565
0.0100089
0.00709565
0.00633353
0.191778
0.194297
0.200591
0.20477
0.204259
0.198807
0.189031
0.17602
0.160836
0.144375
0.127343
0.110351
0.093922
0.0784174
0.0640646
0.0510452
0.0395099
0.0295569
0.0212028
0.0144343
0.00987442
0.00836006
0.256481
0.260923
0.271167
0.278053
0.277771
0.270316
0.256833
0.239008
0.218376
0.196195
0.17339
0.150717
0.128793
0.108039
0.0887376
0.0711315
0.05542
0.041746
0.0301741
0.0206937
0.013886
0.0111865
0.33995
0.347064
0.362594
0.372996
0.372933
0.362769
0.344462
0.320531
0.293062
0.263691
0.233581
0.20366
0.174686
0.147186
0.121535
0.0980515
0.0769685
0.0584457
0.0426013
0.0294813
0.0196325
0.0151461
0.446645
0.457354
0.479861
0.494963
0.495348
0.481816
0.457501
0.426099
0.390268
0.35197
0.312609
0.273358
0.235221
0.198941
0.165061
0.134001
0.106007
0.081216
0.0597665
0.0417835
0.0278272
0.0207251
0.582485
0.59801
0.629755
0.651206
0.652553
0.635203
0.603851
0.563726
0.517979
0.468746
0.417674
0.366304
0.316064
0.268083
0.223205
0.182049
0.144915
0.11193
0.0831986
0.0588363
0.0394147
0.028637
0.755657
0.777624
0.821543
0.851435
0.854788
0.8341
0.795609
0.746085
0.688936
0.626309
0.560213
0.492834
0.426282
0.362259
0.302074
0.246766
0.196952
0.152878
0.114593
0.082007
0.0555194
0.0398456
0.977719
1.00833
1.06849
1.11031
1.11869
1.09742
1.05354
0.994683
0.924291
0.844699
0.758714
0.669616
0.58051
0.493877
0.411695
0.335761
0.267469
0.207594
0.156244
0.112931
0.0774741
0.0555773
1.26541
1.30774
1.3906
1.45136
1.47204
1.45536
1.40942
1.34118
1.25431
1.15211
1.03887
0.919489
0.79859
0.679885
0.566332
0.460694
0.36544
0.282374
0.212189
0.154153
0.107142
0.0772651
1.64387
1.70222
1.81781
1.90885
1.95282
1.94781
1.90341
1.82411
1.71499
1.58154
1.4303
1.26841
1.10279
0.939249
0.782317
0.635867
0.503218
0.38711
0.28941
0.210086
0.147284
0.107057
2.14949
2.22979
2.39186
2.52809
2.60809
2.62252
2.58109
2.4856
2.34452
2.16718
1.9634
1.74337
1.51688
1.29244
1.07694
0.876003
0.69376
0.533345
0.397396
0.287378
0.202054
0.147966
2.83084
2.94104
3.16707
3.36584
3.49475
3.53477
3.49158
3.36905
3.18074
2.94178
2.6669
2.37032
2.06492
1.76168
1.46998
1.19774
0.950611
0.732425
0.546241
0.394435
0.277296
0.203806
3.74967
3.90005
4.21094
4.49037
4.67779
4.74185
4.68602
4.51786
4.25955
3.9348
3.56549
3.17091
2.76716
2.3671
1.98151
1.62015
1.29059
0.998011
0.746799
0.54059
0.380595
0.27998
4.98014
5.1832
5.60193
5.97756
6.22611
6.30346
6.21394
5.97087
5.60953
5.16618
4.67286
4.15524
3.63245
3.11825
2.62312
2.15691
1.72851
1.34468
1.01152
0.735648
0.519968
0.382773
6.60808
6.87847
7.42756
7.90737
8.20821
8.27476
8.11477
7.7522
7.24191
6.63768
5.9848
5.31646
4.65441
4.01168
3.39608
2.81462
2.27503
1.78524
1.35368
0.990857
0.702917
0.516929
8.72343
9.07611
9.77171
10.3468
10.6707
10.6825
10.3912
9.84708
9.13117
8.31855
7.46893
6.62338
5.8057
5.02659
4.28874
3.59272
2.94026
2.33645
1.79191
1.32243
0.939044
0.686418
11.4159
11.8578
12.6921
13.3171
13.5988
13.4825
12.9772
12.1781
11.197
10.1316
9.05473
8.01361
7.03265
6.11885
5.26823
4.4728
3.72397
3.01637
2.35531
1.75974
1.24853
0.900589
14.7734
15.2808
16.1757
16.7392
16.8617
16.5067
15.6975
14.5731
13.2785
11.932
10.6161
9.38019
8.24634
7.21605
6.27739
5.41329
4.60469
3.83082
3.07629
2.34942
1.67209
1.17756
18.8854
19.3841
20.1244
20.3902
20.17
19.4355
18.2434
16.7526
15.1297
13.5078
11.9737
10.5739
9.3241
8.21867
7.23719
6.35434
5.5451
4.77862
3.99733
3.17033
2.3064
1.55496
23.7861
24.1584
24.2897
23.7902
22.9821
21.7826
20.197
18.3619
16.4539
14.6142
12.9261
11.4266
10.1227
9.00244
8.03983
7.20552
6.47765
5.8332
5.21737
4.51529
3.58119
2.88672
29.2298
29.3148
27.6824
25.9635
24.5178
22.9455
21.0712
19.0121
16.9434
15.006
13.2725
11.7675
10.4904
9.42389
8.5454
7.82973
7.26833
6.88768
6.72324
6.66225
6.28895
7.02903
0.0171278
0.272234
0.379264
1.36045
9.34611
16.3016
19.8207
21.0622
21.0893
20.4807
19.6009
18.6546
17.7435
16.9028
16.1227
15.3652
14.5908
13.8206
13.1235
12.5376
12.0609
11.6727
11.3526
11.1064
10.948
10.8725
10.8484
10.8304
10.7791
10.6906
10.5849
10.4885
10.4076
10.3453
10.3245
10.3614
10.4784
10.6654
10.8978
11.1532
11.4177
11.6871
11.9579
12.2209
12.4659
12.6907
12.8934
13.0553
13.1409
13.1377
13.0504
12.8994
12.6971
12.4462
12.1664
11.8829
11.615
11.3809
11.1931
11.0478
10.9122
10.7341
10.4899
10.2159
9.95559
9.72337
9.52474
9.35922
9.22892
9.13864
9.09398
9.10115
9.1615
9.28178
9.45179
9.65254
9.86504
10.0771
10.282
10.4704
10.63
10.7506
10.8395
10.921
11.0252
11.1755
11.3899
11.6725
11.9937
12.303
12.506
12.5132
12.3199
12.0465
11.8523
11.7613
11.7309
11.7159
11.6664
11.5573
11.3869
11.1746
10.9421
10.6903
10.4459
10.2968
10.391
11.1547
13.3885
18.7841
29.919
29.7753
27.428
25.6079
24.1539
22.5529
20.6313
18.5352
16.4653
14.5659
12.8999
11.481
10.3044
9.35742
8.61616
8.06878
7.73242
7.71142
8.2039
9.19743
10.2861
13.2489
22.1759
19.2954
17.8939
17.5497
17.8062
18.24
18.492
18.4124
17.9712
17.2424
16.3923
15.5483
14.7541
14.0227
13.3699
12.8311
12.4088
12.0599
11.7227
11.3704
11.0069
10.6426
10.3084
10.0574
9.93158
9.93359
10.0562
10.2883
10.5727
10.8395
11.0284
11.1083
11.0881
10.9732
10.8003
10.6055
10.4284
10.3094
10.2763
10.3264
10.4534
10.6017
10.708
10.7233
10.6479
10.5104
10.3708
10.2712
10.2374
10.2679
10.362
10.4983
10.6586
10.8226
10.9641
11.0626
11.1187
11.1424
11.1443
11.1318
11.1067
11.0713
11.0225
10.9559
10.8679
10.7556
10.6222
10.4767
10.3345
10.2125
10.1238
10.0785
10.0823
10.1281
10.2109
10.3193
10.4465
10.5864
10.7155
10.7998
10.8296
10.819
10.7751
10.7192
10.6665
10.627
10.6037
10.5966
10.5957
10.5968
10.6065
10.6334
10.6807
10.7504
10.8536
11.0007
11.1931
11.4267
11.6933
11.9765
12.2577
12.5267
12.7793
13.0153
13.2582
13.7038
14.8856
17.6616
22.8309
30.5481
0.00110036
0.00177679
0.0021451
0.682832
7.46702
14.7856
18.8621
20.5333
20.8087
20.372
19.5622
18.6551
17.773
16.9581
16.1842
15.4101
14.6149
13.8362
13.1519
12.5944
12.141
11.7622
11.4446
11.2033
11.0612
11.0085
10.9969
10.9753
10.9217
10.8205
10.6997
10.5911
10.4976
10.4217
10.3933
10.4305
10.5417
10.73
10.9624
11.2211
11.4926
11.7741
12.0573
12.3255
12.565
12.7788
12.9721
13.1326
13.2039
13.1785
13.0743
12.9242
12.7121
12.4491
12.16
11.8714
11.5997
11.3618
11.1699
11.0139
10.8664
10.6828
10.4317
10.1589
9.91201
9.70588
9.52869
9.37763
9.26548
9.18803
9.15337
9.16364
9.22298
9.33171
9.48841
9.6704
9.86369
10.0621
10.2635
10.4564
10.6249
10.7385
10.8139
10.8786
10.9706
11.1122
11.3119
11.5931
11.9179
12.219
12.3938
12.3569
12.1165
11.8431
11.6921
11.6705
11.6979
11.7137
11.6754
11.5664
11.385
11.1487
10.894
10.6185
10.3401
10.1439
10.1936
10.8226
12.6928
16.4637
20.1434
21.782
22.2959
22.198
21.606
20.4334
18.768
16.8674
14.98
13.2628
11.7784
10.536
9.53002
8.75381
8.19792
7.85008
7.71612
7.90742
8.74838
10.1017
11.014
12.58
17.3998
17.9054
17.3973
17.2189
17.5679
18.1011
18.4199
18.343
17.8928
17.1615
16.3308
15.5114
14.7499
14.058
13.4456
12.9276
12.5104
12.1603
11.8189
11.4609
11.0899
10.7161
10.3754
10.1291
10.0179
10.0336
10.1547
10.3715
10.633
10.8791
11.063
11.135
11.1128
11.0143
10.8546
10.6678
10.4868
10.3576
10.3153
10.3506
10.4429
10.5568
10.648
10.6553
10.5773
10.4405
10.3094
10.2286
10.214
10.2507
10.3321
10.4561
10.6162
10.7972
10.9636
11.0862
11.166
11.215
11.2406
11.2457
11.2311
11.1963
11.1397
11.0623
10.9572
10.8226
10.6722
10.5143
10.367
10.247
10.1609
10.1204
10.1223
10.162
10.2315
10.3268
10.4504
10.5939
10.7202
10.8033
10.8445
10.8455
10.813
10.7672
10.7271
10.7007
10.6913
10.698
10.7089
10.7127
10.7185
10.7432
10.7876
10.8473
10.9307
11.058
11.2337
11.4521
11.7033
11.9682
12.2343
12.4988
12.7566
12.9999
13.2501
13.6798
14.7976
17.473
22.5108
28.8619
0.00100186
0.00104884
0.00117706
0.0303274
1.96246
9.19227
14.3576
17.096
18.1421
18.1996
17.7188
17.0157
16.2868
15.6097
14.966
14.3035
13.5956
12.8797
12.233
11.6876
11.2274
10.8465
10.5373
10.3103
10.1912
10.1677
10.1834
10.1846
10.1472
10.0559
9.93734
9.82546
9.71743
9.60625
9.51983
9.49868
9.55209
9.68548
9.87544
10.1011
10.3451
10.6027
10.8636
11.1029
11.304
11.4737
11.6286
11.7694
11.864
11.8696
11.7991
11.6862
11.5317
11.3189
11.0683
10.8138
10.57
10.3486
10.164
10.0149
9.87666
9.70849
9.48624
9.24149
9.023
8.83788
8.67491
8.53078
8.41985
8.33704
8.27846
8.26041
8.28587
8.35788
8.46706
8.60748
8.76679
8.93968
9.12466
9.30956
9.47288
9.59076
9.6531
9.6795
9.71299
9.78099
9.9047
10.1174
10.4227
10.7619
11.0022
11.0094
10.7943
10.5226
10.3781
10.3788
10.4453
10.5068
10.5122
10.44
10.2771
10.0567
9.81084
9.53902
9.24114
8.96691
8.85358
9.09109
10.2411
12.5904
15.1983
16.8414
17.9809
18.4957
18.34
17.4429
16.0423
14.4227
12.8161
11.3626
10.1206
9.10165
8.29984
7.71314
7.33616
7.16529
7.20334
7.55284
8.46286
9.90144
10.9633
11.5301
13.222
14.5555
14.855
14.9564
15.3648
15.9787
16.4713
16.5883
16.3438
15.8074
15.145
14.4471
13.7655
13.1296
12.5586
12.0703
11.6814
11.3629
11.0486
10.7047
10.3357
9.96002
9.61761
9.35916
9.2091
9.16067
9.19352
9.31514
9.50207
9.71382
9.90298
10.0264
10.0624
10.0247
9.92637
9.78153
9.60562
9.44342
9.33964
9.30953
9.34151
9.42556
9.51452
9.55195
9.51661
9.41555
9.29806
9.20352
9.14679
9.13074
9.15879
9.24675
9.39427
9.5829
9.77365
9.93662
10.061
10.1514
10.2129
10.2465
10.2524
10.2326
10.185
10.1121
10.0106
9.88345
9.74017
9.58898
9.44651
9.32975
9.24015
9.17819
9.14992
9.15131
9.17751
9.23219
9.32781
9.45797
9.59054
9.70056
9.77953
9.82014
9.821
9.79877
9.7779
9.7724
9.78497
9.81759
9.85286
9.8642
9.85709
9.85086
9.8508
9.85544
9.87875
9.94167
10.0502
10.202
10.3889
10.5945
10.8133
11.0583
11.3395
11.6469
11.9694
12.4024
13.3189
15.4294
19.3259
23.7929
0.00099896
0.00100063
0.00101759
0.00116223
0.0872595
2.13816
7.34379
11.0977
13.1663
14.0058
14.0978
13.8024
13.3595
12.908
12.4704
12.0118
11.504
10.9628
10.4378
9.94955
9.49594
9.10396
8.78709
8.54563
8.3949
8.33551
8.32772
8.32814
8.30854
8.24492
8.15235
8.06113
7.9713
7.86688
7.75631
7.67237
7.64076
7.666
7.75253
7.88009
8.0322
8.20179
8.38194
8.55394
8.70108
8.82443
8.93887
9.05876
9.17806
9.25688
9.27497
9.25478
9.20433
9.11134
8.97381
8.8157
8.65592
8.50178
8.36126
8.2404
8.12952
8.0034
7.84127
7.65518
7.47521
7.30807
7.14185
6.98139
6.84107
6.72341
6.62514
6.55575
6.52334
6.52689
6.56946
6.64649
6.75152
6.87711
7.01963
7.17238
7.3212
7.44525
7.52571
7.56009
7.56968
7.57829
7.61364
7.7254
7.96078
8.3087
8.64826
8.80767
8.74451
8.53578
8.35443
8.28752
8.29936
8.33387
8.34306
8.31724
8.22544
8.07725
7.89695
7.6942
7.46443
7.22347
7.05124
7.12999
7.94585
10.0957
12.7596
14.5249
15.4874
15.668
15.2791
14.3726
13.1501
11.8063
10.4955
9.31512
8.31593
7.51512
6.90953
6.49113
6.2575
6.20859
6.33898
6.72804
7.51751
8.79333
10.0317
10.6589
11.1885
11.8248
12.1278
12.1894
12.3551
12.7556
13.256
13.5768
13.6217
13.4102
12.9985
12.4815
11.9233
11.3665
10.8456
10.3833
10.0046
9.70451
9.43616
9.15453
8.83476
8.48991
8.15706
7.86555
7.63243
7.46674
7.37016
7.34805
7.40477
7.5308
7.69102
7.84365
7.95006
7.99571
7.98934
7.93383
7.82776
7.69726
7.58005
7.50483
7.48155
7.50668
7.57045
7.62776
7.63771
7.60189
7.52335
7.43122
7.33997
7.263
7.21787
7.22186
7.28854
7.40818
7.5522
7.6935
7.81588
7.91332
7.98426
8.03006
8.05659
8.06734
8.06557
8.05024
8.01156
7.94842
7.86177
7.75757
7.64866
7.5502
7.465
7.38922
7.32716
7.28382
7.26073
7.26351
7.30697
7.39335
7.50656
7.62511
7.73798
7.83243
7.89377
7.92151
7.93815
7.96072
7.99214
8.03163
8.06967
8.08043
8.06872
8.04402
8.01102
7.97183
7.93526
7.91949
7.93653
7.99507
8.08987
8.21263
8.35853
8.53975
8.77628
9.07198
9.40713
9.8008
10.4245
11.7134
14.0885
16.9157
0.000999927
0.000997615
0.000999687
0.00101469
0.00123589
0.0431218
1.02151
4.53345
7.41409
9.1232
9.92081
10.1495
10.0885
9.89788
9.66635
9.40183
9.09248
8.74752
8.40173
8.0585
7.69615
7.34021
7.0341
6.7797
6.57797
6.43989
6.35631
6.30483
6.26233
6.20805
6.13544
6.06066
5.99319
5.92372
5.8442
5.76218
5.6944
5.65302
5.6423
5.66498
5.71241
5.77899
5.86468
5.96163
6.05758
6.14803
6.23909
6.34172
6.46108
6.57905
6.66764
6.71656
6.73474
6.72761
6.69103
6.63169
6.569
6.51169
6.4541
6.3918
6.32288
6.24003
6.13286
6.00558
5.87786
5.75359
5.61601
5.46497
5.3178
5.18486
5.06565
4.9629
4.88441
4.83365
4.80987
4.81058
4.83854
4.88309
4.9461
5.02793
5.12555
5.22789
5.31814
5.38292
5.42162
5.44034
5.45591
5.51375
5.67765
5.96175
6.29091
6.53747
6.59681
6.50173
6.32812
6.21082
6.17484
6.16892
6.16704
6.1623
6.13724
6.07301
5.97363
5.85384
5.72127
5.60339
5.58045
5.75648
6.50909
8.30268
10.5133
11.9605
12.5748
12.5427
12.102
11.3723
10.4443
9.42613
8.41866
7.50046
6.72591
6.12136
5.68547
5.40419
5.26894
5.27409
5.43221
5.77066
6.35992
7.29151
8.38455
9.22087
9.71505
10.0482
10.2572
10.3177
10.3104
10.3761
10.5829
10.8536
11.0375
11.0153
10.7805
10.4074
9.97543
9.52421
9.08025
8.66618
8.30778
8.01659
7.77082
7.53647
7.27749
6.98442
6.67691
6.37696
6.10307
5.87054
5.68647
5.56147
5.49815
5.49786
5.55754
5.65054
5.74512
5.82055
5.87388
5.90303
5.90015
5.87089
5.82028
5.76582
5.72246
5.69894
5.70017
5.7217
5.72388
5.70726
5.66925
5.62216
5.56632
5.49203
5.40939
5.34543
5.31608
5.32616
5.3731
5.4381
5.50969
5.57515
5.63192
5.68058
5.72427
5.76569
5.80451
5.83723
5.86017
5.8639
5.8475
5.80136
5.73408
5.6602
5.58809
5.5182
5.45304
5.39734
5.35492
5.33147
5.33121
5.36724
5.43594
5.52452
5.62709
5.73839
5.84361
5.926
5.99457
6.05965
6.11576
6.16137
6.19602
6.20996
6.20572
6.18961
6.16398
6.12755
6.08169
6.03642
6.00451
5.99401
6.0102
6.05663
6.12443
6.21899
6.357
6.55231
6.79572
7.07745
7.44262
8.07004
9.23524
10.8203
0.00099933
0.000996618
0.00099495
0.000995774
0.00100074
0.00105172
0.00604809
0.303342
1.97083
4.1818
5.64227
6.45333
6.83147
6.95952
6.9569
6.87988
6.74204
6.56178
6.37059
6.17392
5.95069
5.69641
5.44096
5.20859
5.00975
4.85118
4.72954
4.64211
4.57498
4.51497
4.44722
4.37395
4.30711
4.25006
4.19775
4.14534
4.09206
4.04091
3.99634
3.96243
3.94097
3.93505
3.94362
3.97359
4.0132
4.06089
4.11947
4.19537
4.29183
4.40229
4.50849
4.59228
4.64738
4.67558
4.67728
4.67115
4.66305
4.66514
4.6832
4.69024
4.68057
4.6458
4.58447
4.5057
4.42808
4.35738
4.2795
4.1837
4.07526
3.96364
3.85414
3.75254
3.66463
3.5924
3.53434
3.48827
3.45296
3.42812
3.41829
3.42393
3.45246
3.49656
3.54986
3.60139
3.64541
3.68252
3.71855
3.77808
3.90167
4.10491
4.34669
4.57014
4.67898
4.65315
4.53833
4.42364
4.36712
4.35517
4.3571
4.37627
4.38701
4.37778
4.34403
4.29449
4.24787
4.2598
4.41942
4.74132
5.3001
6.29387
7.51185
8.4484
8.97906
9.17511
9.11299
8.79536
8.25164
7.56022
6.82454
6.13843
5.5696
5.14793
4.86521
4.69721
4.62385
4.63289
4.74269
4.96912
5.34006
5.91621
6.68123
7.4564
8.05699
8.4651
8.70665
8.78614
8.75588
8.68838
8.64919
8.71252
8.85826
8.88366
8.75385
8.49074
8.1715
7.83477
7.49546
7.16363
6.85833
6.59867
6.37924
6.17194
5.95176
5.70639
5.44643
5.19013
4.94579
4.71452
4.50462
4.32841
4.19438
4.10398
4.05282
4.03627
4.0446
4.08125
4.13847
4.20969
4.2733
4.31675
4.33536
4.32997
4.30629
4.2693
4.2305
4.19681
4.16135
4.11977
4.07799
4.04666
4.02478
3.99079
3.92856
3.84596
3.76652
3.70808
3.67652
3.66941
3.68256
3.70902
3.74094
3.77853
3.82416
3.87329
3.92029
3.96452
4.00658
4.04474
4.0662
4.06193
4.03425
3.98684
3.93321
3.88
3.83085
3.78764
3.75067
3.72202
3.70533
3.70146
3.71949
3.75902
3.81993
3.90316
3.99805
4.08931
4.17855
4.27164
4.35945
4.43711
4.50532
4.55972
4.59426
4.61068
4.61125
4.60372
4.5858
4.56124
4.53543
4.51379
4.50006
4.49489
4.50089
4.52586
4.57587
4.66558
4.79403
4.95263
5.1454
5.41791
5.88118
6.61065
0.000999515
0.000996538
0.000993579
0.0009915
0.000990771
0.000991294
0.000993656
0.00122286
0.0250725
0.396631
1.61836
2.83228
3.64196
4.12384
4.38924
4.51993
4.57055
4.56462
4.5255
4.45611
4.35483
4.21398
4.0488
3.88815
3.75317
3.64056
3.54156
3.45471
3.37941
3.31145
3.24081
3.16669
3.09819
3.04413
3.00583
2.97645
2.9466
2.91034
2.86719
2.81998
2.77324
2.73089
2.6967
2.6735
2.66119
2.66199
2.67781
2.71112
2.76029
2.82485
2.89998
2.97469
3.03884
3.08399
3.10774
3.11771
3.12712
3.14906
3.18666
3.22898
3.25907
3.26129
3.24187
3.20897
3.1761
3.14842
3.11917
3.08196
3.03537
2.98048
2.91732
2.84994
2.78294
2.7177
2.65416
2.59319
2.53644
2.48634
2.44549
2.41394
2.39264
2.38286
2.38343
2.39166
2.40461
2.42327
2.45252
2.50494
2.59499
2.72589
2.88454
3.03897
3.1356
3.13785
3.08909
3.0281
3.00223
3.00909
3.03334
3.067
3.09964
3.11634
3.11608
3.11279
3.12669
3.22591
3.45997
3.76882
4.1563
4.62913
5.23322
5.91837
6.58835
7.10663
7.35004
7.29362
6.957
6.43833
5.86506
5.34893
4.9586
4.70519
4.55062
4.45582
4.39816
4.36762
4.37089
4.44025
4.59587
4.8784
5.31092
5.84432
6.37009
6.80985
7.10914
7.23847
7.22286
7.15184
7.0603
7.004
7.00113
6.97265
6.87179
6.71354
6.526
6.32509
6.11574
5.89876
5.68145
5.47951
5.30032
5.12776
4.94141
4.73913
4.53466
4.34207
4.15319
3.95201
3.74401
3.55319
3.39537
3.26725
3.15798
3.0623
2.98775
2.95919
2.98287
3.06179
3.14043
3.20029
3.2377
3.24602
3.23821
3.20653
3.15457
3.09204
3.0255
2.95921
2.89815
2.84922
2.81432
2.78344
2.74525
2.69079
2.62117
2.54745
2.48307
2.43514
2.40246
2.38456
2.38453
2.39998
2.43142
2.47005
2.50676
2.54073
2.57613
2.61414
2.64828
2.66739
2.66708
2.65101
2.62527
2.59732
2.57067
2.54568
2.52168
2.49894
2.47957
2.46558
2.46034
2.46543
2.49287
2.53993
2.6018
2.66988
2.73978
2.81825
2.91432
3.02798
3.14377
3.24719
3.32992
3.38874
3.42438
3.44103
3.44581
3.44551
3.44466
3.44022
3.43165
3.41913
3.40532
3.3945
3.3931
3.41289
3.4558
3.51648
3.59471
3.69787
3.85037
4.09622
0.000999284
0.000995712
0.000992069
0.000988982
0.000986347
0.000983893
0.000981336
0.000978513
0.000980269
0.00155221
0.0215799
0.208219
0.729456
1.46212
1.95123
2.34273
2.69137
2.94203
3.09056
3.15644
3.15429
3.10505
3.03162
2.96849
2.91734
2.85688
2.78326
2.7057
2.6329
2.565
2.49687
2.42928
2.36906
2.32487
2.29949
2.28443
2.26677
2.23874
2.19922
2.15118
2.0989
2.04555
1.99402
1.94727
1.90822
1.87978
1.86321
1.85507
1.85482
1.86253
1.88352
1.91135
1.94406
1.97741
2.00612
2.02708
2.04407
2.06626
2.09895
2.13634
2.17099
2.19483
2.20682
2.21392
2.21896