/*--------------------------------*- C++ -*----------------------------------*\
  =========                 |
  \\      /  F ield         | OpenFOAM: The Open Source CFD Toolbox
   \\    /   O peration     | Website:  https://openfoam.org
    \\  /    A nd           | Version:  7
     \\/     M anipulation  |
\*---------------------------------------------------------------------------*/
FoamFile
{
    version     2.0;
    format      ascii;
    class       volScalarField;
    location    "250";
    object      nut;
}
// * * * * * * * * * * * * * * * * * * * * * * * * * * * * * * * * * * * * * //

dimensions      [0 2 -1 0 0 0 0];

internalField   nonuniform List<scalar> 
96800
(
0.000124682
0.000124645
0.000124598
0.000124528
0.000124461
0.000124404
0.00012436
0.000124327
0.0001243
0.000124279
0.000124265
0.000124261
0.000124269
0.000124293
0.000124332
0.000124391
0.000124461
0.00012454
0.00012462
0.000124686
0.000124713
0.000124641
0.00012466
0.000124558
0.000124494
0.000124417
0.000124344
0.000124282
0.000124232
0.000124193
0.000124164
0.000124142
0.000124128
0.000124125
0.000124135
0.000124159
0.000124201
0.000124258
0.000124328
0.000124407
0.00012449
0.000124565
0.000124612
0.000124621
0.000124668
0.000124549
0.000124464
0.000124369
0.00012428
0.000124204
0.000124144
0.0001241
0.000124068
0.000124045
0.000124031
0.000124029
0.00012404
0.000124065
0.000124105
0.00012416
0.000124229
0.00012431
0.0001244
0.000124489
0.000124566
0.000124625
0.000124677
0.000124549
0.000124445
0.00012433
0.000124221
0.000124128
0.000124057
0.000124005
0.000123969
0.000123945
0.000123932
0.000123932
0.000123944
0.00012397
0.000124008
0.00012406
0.000124128
0.000124211
0.000124307
0.00012441
0.000124507
0.000124588
0.000124687
0.000124552
0.000124432
0.000124297
0.000124168
0.000124059
0.000123976
0.000123917
0.000123878
0.000123855
0.000123844
0.000123847
0.000123861
0.000123886
0.000123922
0.000123972
0.000124038
0.000124123
0.000124225
0.000124337
0.000124448
0.000124541
0.000124695
0.000124555
0.000124421
0.000124268
0.000124121
0.000123999
0.000123906
0.000123842
0.000123802
0.00012378
0.000123773
0.000123779
0.000123796
0.00012382
0.000123854
0.000123901
0.000123965
0.000124051
0.000124159
0.00012428
0.0001244
0.000124501
0.000124699
0.000124555
0.000124409
0.000124242
0.000124082
0.000123948
0.000123849
0.000123783
0.000123744
0.000123726
0.000123724
0.000123733
0.00012375
0.000123773
0.000123804
0.000123848
0.000123911
0.000123999
0.000124112
0.000124241
0.00012437
0.000124477
0.000124703
0.000124554
0.0001244
0.000124222
0.000124051
0.000123909
0.000123806
0.00012374
0.000123704
0.000123691
0.000123693
0.000123706
0.000123723
0.000123743
0.000123771
0.000123811
0.000123874
0.000123966
0.000124085
0.000124223
0.000124361
0.000124474
0.000124708
0.000124556
0.000124395
0.000124209
0.000124031
0.000123885
0.000123779
0.000123714
0.000123681
0.000123671
0.000123678
0.000123693
0.000123709
0.000123726
0.000123749
0.000123787
0.00012385
0.000123947
0.000124075
0.000124223
0.00012437
0.000124487
0.000124719
0.000124565
0.000124399
0.000124207
0.000124024
0.000123874
0.000123767
0.000123703
0.000123672
0.000123665
0.000123673
0.000123687
0.000123701
0.000123715
0.000123735
0.000123772
0.000123837
0.000123939
0.000124077
0.000124235
0.000124392
0.000124516
0.000124739
0.000124583
0.000124412
0.000124215
0.000124028
0.000123875
0.000123768
0.000123703
0.000123673
0.000123665
0.000123671
0.000123683
0.000123694
0.000123704
0.000123723
0.000123761
0.000123831
0.00012394
0.000124088
0.000124258
0.000124425
0.000124555
0.00012477
0.000124611
0.000124437
0.000124235
0.000124044
0.000123888
0.000123778
0.000123712
0.000123679
0.000123667
0.000123669
0.000123676
0.000123684
0.000123692
0.000123712
0.000123754
0.000123831
0.000123951
0.00012411
0.000124293
0.000124471
0.000124608
0.00012481
0.00012465
0.000124471
0.000124265
0.000124069
0.000123909
0.000123796
0.000123726
0.000123688
0.00012367
0.000123664
0.000123665
0.000123669
0.000123679
0.000123703
0.000123754
0.000123842
0.000123974
0.000124147
0.000124343
0.000124533
0.000124678
0.000124857
0.000124696
0.000124513
0.000124301
0.0001241
0.000123936
0.000123818
0.000123744
0.0001237
0.000123675
0.00012366
0.000123654
0.000123656
0.000123668
0.000123701
0.000123764
0.000123866
0.000124013
0.000124202
0.000124413
0.000124615
0.000124767
0.000124909
0.000124745
0.000124557
0.00012434
0.000124134
0.000123965
0.000123843
0.000123763
0.000123714
0.000123683
0.000123661
0.000123647
0.000123648
0.000123666
0.00012371
0.000123786
0.000123905
0.00012407
0.000124275
0.000124502
0.000124717
0.000124877
0.000124955
0.000124789
0.000124597
0.000124374
0.000124163
0.00012399
0.000123866
0.000123784
0.000123732
0.000123698
0.000123672
0.000123654
0.000123652
0.000123676
0.000123732
0.000123824
0.00012396
0.000124143
0.000124367
0.00012461
0.000124838
0.000125006
0.000124982
0.000124815
0.000124619
0.000124393
0.00012418
0.000124007
0.000123884
0.000123805
0.000123755
0.000123723
0.000123698
0.00012368
0.000123677
0.000123705
0.000123773
0.00012388
0.000124032
0.000124233
0.000124474
0.000124733
0.000124974
0.000125151
0.000124967
0.0001248
0.000124604
0.000124379
0.00012417
0.000124006
0.000123893
0.000123825
0.000123785
0.000123761
0.000123744
0.000123729
0.000123728
0.00012376
0.000123836
0.000123955
0.000124122
0.000124338
0.000124595
0.00012487
0.000125123
0.000125308
0.000124877
0.000124712
0.000124521
0.000124305
0.000124112
0.000123969
0.000123881
0.000123837
0.000123821
0.000123815
0.000123813
0.000123811
0.000123816
0.000123848
0.000123928
0.000124055
0.000124232
0.000124461
0.000124732
0.000125021
0.000125287
0.00012548
0.000124655
0.000124497
0.000124318
0.000124124
0.000123964
0.000123863
0.000123822
0.000123826
0.000123851
0.00012388
0.000123904
0.000123922
0.000123942
0.000123977
0.000124054
0.000124184
0.000124369
0.000124609
0.000124893
0.000125194
0.000125473
0.000125674
0.000124208
0.000124063
0.000123906
0.000123752
0.000123649
0.000123622
0.000123663
0.000123748
0.000123846
0.000123936
0.000124007
0.000124059
0.000124102
0.00012415
0.000124224
0.000124355
0.000124545
0.000124795
0.000125091
0.000125406
0.000125696
0.000125906
0.000123372
0.000123248
0.000123127
0.000123034
0.000123023
0.000123116
0.000123293
0.000123516
0.000123742
0.000123938
0.000124091
0.000124204
0.000124288
0.000124365
0.000124451
0.000124579
0.000124777
0.000125038
0.000125348
0.000125677
0.000125979
0.000126197
0.000121872
0.000121781
0.000121709
0.000121704
0.000121831
0.000122108
0.000122504
0.000122958
0.000123403
0.000123789
0.000124094
0.000124319
0.000124482
0.000124611
0.000124734
0.000124869
0.000125081
0.000125358
0.000125686
0.000126032
0.000126348
0.000126577
0.000119304
0.000119256
0.000119246
0.000119354
0.000119667
0.000120211
0.00012094
0.000121764
0.000122577
0.000123297
0.000123879
0.000124318
0.000124635
0.000124869
0.000125062
0.000125249
0.000125477
0.00012578
0.000126133
0.000126501
0.000126835
0.000127075
0.000115222
0.000115224
0.000115271
0.000115492
0.000116019
0.000116898
0.000118083
0.000119453
0.000120846
0.000122123
0.000123193
0.000124026
0.000124639
0.000125082
0.000125417
0.000125704
0.000125976
0.000126324
0.000126714
0.000127112
0.000127469
0.000127726
0.000109487
0.000109517
0.000109573
0.000109841
0.000110516
0.000111702
0.000113386
0.000115436
0.000117633
0.00011975
0.000121613
0.000123128
0.00012428
0.000125119
0.000125729
0.000126202
0.000126595
0.000127006
0.000127453
0.000127895
0.000128284
0.000128562
0.000102887
0.000102879
0.000102819
0.000102937
0.000103507
0.00010473
0.000106693
0.000109322
0.000112385
0.000115564
0.000118557
0.000121136
0.000123193
0.000124735
0.000125851
0.00012667
0.000127303
0.000127831
0.000128374
0.000128882
0.000129318
0.000129625
9.75998e-05
9.74455e-05
9.70804e-05
9.67348e-05
9.67357e-05
9.73972e-05
9.89756e-05
0.000101578
0.000105092
0.000109198
0.000113461
0.00011746
0.000120861
0.000123541
0.000125525
0.000126963
0.000128019
0.000128801
0.000129492
0.000130108
0.000130614
0.000130965
9.63959e-05
9.60002e-05
9.51748e-05
9.41e-05
9.30884e-05
9.2507e-05
9.27608e-05
9.42102e-05
9.70492e-05
0.000101194
0.000106253
0.000111626
0.000116694
0.000120982
0.000124341
0.000126819
0.000128594
0.000129854
0.000130807
0.000131607
0.000132228
0.000132643
0.000100784
0.000100121
9.88018e-05
9.69488e-05
9.48071e-05
9.27029e-05
9.10577e-05
9.03635e-05
9.11192e-05
9.36896e-05
9.81076e-05
0.00010394
0.00011038
0.000116544
0.000121762
0.000125821
0.000128779
0.000130857
0.000132314
0.000133407
0.000134217
0.000134737
0.000110431
0.000109524
0.000107756
0.000105221
0.000102105
9.86632e-05
9.52364e-05
9.22568e-05
9.02705e-05
8.99168e-05
9.17909e-05
9.61433e-05
0.000102573
0.000110045
0.000117333
0.00012349
0.000128218
0.0001316
0.000133922
0.000135515
0.000136645
0.000137331
0.000124323
0.000123195
0.000121015
0.000117884
0.000113965
0.000109474
0.000104674
9.98771e-05
9.54916e-05
9.20815e-05
9.0409e-05
9.13337e-05
9.54247e-05
0.000102396
0.000110953
0.000119402
0.000126461
0.000131773
0.00013547
0.000137924
0.000139565
0.000140522
0.000141755
0.000140406
0.00013781
0.000134103
0.000129461
0.00012409
0.000118218
0.000112072
0.000105921
0.000100131
9.52673e-05
9.22109e-05
9.2122e-05
9.59758e-05
0.000103644
0.000113454
0.000123099
0.000130981
0.000136719
0.000140548
0.000143012
0.000144397
0.000162573
0.000160981
0.000157934
0.000153622
0.00014825
0.000142042
0.000135215
0.000127959
0.000120461
0.000112935
0.000105712
9.937e-05
9.49353e-05
9.39341e-05
9.78321e-05
0.000106608
0.000117973
0.000128817
0.00013735
0.00014325
0.000146996
0.000149042
0.000187165
0.000185285
0.000181727
0.000176743
0.000170581
0.000163489
0.000155691
0.000147364
0.000138655
0.000129704
0.000120692
0.000111927
0.000104039
9.82624e-05
9.66182e-05
0.000101168
0.000111779
0.000125081
0.000136991
0.000145804
0.000151476
0.000154535
0.000216456
0.000214222
0.000210072
0.000204319
0.000197262
0.000189177
0.000180299
0.000170797
0.000160803
0.000150429
0.000139793
0.000129058
0.000118548
0.000108988
0.000101953
0.000100215
0.00010652
0.000120005
0.000135382
0.00014795
0.000156386
0.000160946
0.00025184
0.000249175
0.000244344
0.00023771
0.000229625
0.000220391
0.000210247
0.000199355
0.000187842
0.000175819
0.00016339
0.000150676
0.000137858
0.000125302
0.00011392
0.0001059
0.000105199
0.000115082
0.000132477
0.000149405
0.000161643
0.000168338
0.00029517
0.000291997
0.000286418
0.000278808
0.000269559
0.000258987
0.000247325
0.000234726
0.000221321
0.00020723
0.000192581
0.00017751
0.000162178
0.000146802
0.000131839
0.000118581
0.000110354
0.000112942
0.000128857
0.000150073
0.00016714
0.000176762
0.000348619
0.000344888
0.000338549
0.000329924
0.000319408
0.000307302
0.000293819
0.000279106
0.000263302
0.000246556
0.000229043
0.000210954
0.000192499
0.000173901
0.000155431
0.000137737
0.000122897
0.00011649
0.000126371
0.000150058
0.000172735
0.000186275
0.000414737
0.000410429
0.00040341
0.000393827
0.000382004
0.000368181
0.000352533
0.000335205
0.000316363
0.000296207
0.000274982
0.000252972
0.000230483
0.000207821
0.000185264
0.000163178
0.000142628
0.000127545
0.000127714
0.000149703
0.000178291
0.000196916
0.00049642
0.000491573
0.000484074
0.000473711
0.000460621
0.000444908
0.000426688
0.000406124
0.000383446
0.00035894
0.000332958
0.000305908
0.000278228
0.000250352
0.000222658
0.000195491
0.000169386
0.000146577
0.000135574
0.000150746
0.000184224
0.000208796
0.000596993
0.000591712
0.000584079
0.00057324
0.000558975
0.000541157
0.000519833
0.000495235
0.00046772
0.000437709
0.000405704
0.000372277
0.000338036
0.000303571
0.000269395
0.000235952
0.000203634
0.000173554
0.000151651
0.000155507
0.000190669
0.000222068
0.000720226
0.000714662
0.00070723
0.000696496
0.000681113
0.000660857
0.000635696
0.000606022
0.00057241
0.000535479
0.000495932
0.000454558
0.000412186
0.000369595
0.000327427
0.000286243
0.000246487
0.000208754
0.000176627
0.00016661
0.000198233
0.000236932
0.000870274
0.000864686
0.000858092
0.000847552
0.000831296
0.00080806
0.000778036
0.000741899
0.000700568
0.000654975
0.000606102
0.000555015
0.000502805
0.000450448
0.000398696
0.000348195
0.000299484
0.000253032
0.000210844
0.00018618
0.000208825
0.000253908
0.00105152
0.00104617
0.00104126
0.00103105
0.0010141
0.000986736
0.000950338
0.000905835
0.000854714
0.000798384
0.000738203
0.000675561
0.000611809
0.000548066
0.000485129
0.000423688
0.00036437
0.000307696
0.000254848
0.000215586
0.000224446
0.000273537
0.00126826
0.00126351
0.00126104
0.00125193
0.00123336
0.00120018
0.00115516
0.0010998
0.00103641
0.000967045
0.00089352
0.000817549
0.00074068
0.000664057
0.00058842
0.000514448
0.000442838
0.000374224
0.000309484
0.000255595
0.000247325
0.000296666
0.00152496
0.00152119
0.00152163
0.00151346
0.00149159
0.00145021
0.00139374
0.00132463
0.00124626
0.00116152
0.00107271
0.000981781
0.000890357
0.000799487
0.000709771
0.000621821
0.000536352
0.000454098
0.000375898
0.000306866
0.000279493
0.000324665
0.0018256
0.00182292
0.00182599
0.00181715
0.00178931
0.00173708
0.00166594
0.00158007
0.00148408
0.00138176
0.00127584
0.00116846
0.00106115
0.000954798
0.000849837
0.000746767
0.000646192
0.000548828
0.000455562
0.000370394
0.000322728
0.000359274
0.00217361
0.00217172
0.00217621
0.00216444
0.00212768
0.00206114
0.00197205
0.00186653
0.00175049
0.00162848
0.00150364
0.00137817
0.00125355
0.00113052
0.00100937
0.000890402
0.000773911
0.000660323
0.000550493
0.000447858
0.00037886
0.000402692
0.00257156
0.00256974
0.0025738
0.00255653
0.00250782
0.00242403
0.002314
0.00218644
0.00204831
0.0019047
0.00175894
0.00161336
0.00146952
0.00132818
0.00118962
0.00105389
0.000920793
0.000790187
0.000662613
0.000541128
0.000449756
0.000457678
0.0030226
0.00302001
0.00302179
0.00299681
0.00293351
0.00283062
0.00269765
0.00254661
0.00238513
0.00221831
0.00204948
0.00188112
0.00171508
0.00155249
0.00139384
0.00123917
0.00108788
0.00093919
0.000792972
0.000651557
0.000537026
0.000527287
0.0035321
0.00352812
0.0035265
0.00349244
0.00341265
0.00329168
0.00313622
0.0029622
0.00277717
0.00258568
0.00239098
0.0021959
0.00200288
0.00181369
0.00162943
0.00145073
0.00127725
0.00110793
0.000941765
0.000779681
0.000641846
0.000614213
0.00411027
0.00410496
0.0041009
0.00405954
0.00396381
0.00383155
0.00365762
0.0034632
0.00325463
0.00303591
0.0028106
0.0025824
0.00235472
0.0021302
0.00191091
0.00169883
0.00149509
0.0012994
0.00111014
0.000926222
0.000765511
0.000720484
0.00477591
0.00477072
0.00476948
0.00472911
0.00462935
0.00449192
0.00430594
0.00409334
0.00385906
0.00360741
0.00334321
0.00307179
0.0027981
0.00252611
0.00225914
0.0020008
0.00175446
0.00152204
0.00130277
0.00109384
0.000910184
0.000848108
0.00556072
0.00555887
0.00557072
0.00554514
0.00545701
0.00531615
0.00512976
0.0048975
0.0046308
0.00433608
0.00402055
0.00369188
0.00335738
0.0030232
0.00269441
0.00237599
0.00207297
0.00178982
0.00152877
0.0012878
0.00107907
0.00100073
0.00650981
0.0065159
0.0065537
0.00655817
0.00649467
0.00635651
0.00617196
0.00591074
0.00559937
0.00524689
0.00486409
0.00446171
0.00404982
0.00363728
0.00323149
0.00283905
0.00246583
0.0021176
0.00179996
0.00151532
0.00127651
0.00118177
0.00767529
0.00769426
0.00777031
0.00781742
0.00778672
0.0076594
0.0074602
0.00715503
0.00678109
0.00635202
0.00588357
0.00539028
0.00488498
0.00437872
0.00388097
0.00340018
0.00294321
0.00251656
0.00212793
0.00178529
0.00150751
0.00139425
0.00910858
0.00914503
0.00926923
0.00936676
0.00936873
0.00924314
0.00901147
0.00864142
0.00818162
0.00765317
0.00707843
0.00647657
0.00586314
0.00525042
0.00464851
0.0040668
0.00351318
0.00299498
0.00252182
0.00210696
0.00177851
0.00164277
0.0108517
0.0109097
0.0110889
0.0112388
0.0112655
0.0111243
0.0108328
0.0103701
0.00979508
0.00913983
0.00843544
0.00770659
0.00697136
0.00624231
0.00552836
0.00483785
0.00417857
0.00355809
0.0029878
0.00248699
0.00209432
0.00192891
0.0129322
0.0130161
0.0132546
0.0134532
0.013489
0.0133089
0.0129185
0.0123282
0.0116017
0.0107876
0.00992772
0.00905321
0.00818434
0.00733278
0.00650446
0.00570413
0.00493687
0.00420903
0.0035325
0.00293207
0.00245744
0.00224894
0.0153509
0.0154659
0.0157668
0.0160053
0.016027
0.0157766
0.0152396
0.0144764
0.0135578
0.012551
0.0115102
0.0104734
0.00946266
0.00848791
0.00755047
0.00664891
0.00578189
0.00495103
0.00416634
0.0034545
0.00287467
0.00260145
0.018073
0.018225
0.0185883
0.0188504
0.0188262
0.0184595
0.0177283
0.0167424
0.0155911
0.0143611
0.013119
0.0119088
0.0107539
0.00966171
0.00862824
0.0076445
0.0066997
0.00578542
0.00490372
0.00407601
0.00336594
0.00299651
0.0210156
0.0212046
0.0216158
0.0218746
0.0217691
0.02122
0.0202593
0.019007
0.0175903
0.0161169
0.0146644
0.013281
0.01199
0.0107954
0.00968769
0.00865053
0.00766389
0.00670565
0.00575992
0.00482953
0.00396932
0.00345158
0.0240391
0.024252
0.0246669
0.0248816
0.0246529
0.0238842
0.0226488
0.0211023
0.0194049
0.0176861
0.0160324
0.0144929
0.0130885
0.0118191
0.0106693
0.00961736
0.00863864
0.00770111
0.00676443
0.00578745
0.00477948
0.00407007
0.0269275
0.0271377
0.0274808
0.0275898
0.0271905
0.0261881
0.0246681
0.0228261
0.0208632
0.0189238
0.0170988
0.015438
0.0139575
0.0126513
0.0115
0.0104795
0.00956852
0.00874091
0.00796705
0.00719734
0.00648218
0.00667581
0.0292955
0.0295171
0.0296682
0.0296664
0.0291024
0.0278351
0.0260206
0.0239192
0.0217437
0.0196485
0.0177227
0.0160025
0.0144983
0.0132022
0.0120919
0.0111491
0.0103632
0.00974998
0.00934457
0.00915735
0.0096548
0.0114029
1.79348e-06
8.22825e-05
0.000134706
0.0015024
0.0171414
0.0259149
0.0303734
0.0323985
0.0328544
0.0322311
0.0309089
0.0292865
0.0276143
0.026025
0.0245575
0.0231994
0.0219357
0.0207921
0.0198122
0.01901
0.0183712
0.0178739
0.0175089
0.017286
0.0172075
0.0172427
0.0173298
0.0174172
0.0174605
0.017471
0.0174775
0.0175154
0.0175981
0.0177448
0.0179922
0.0183214
0.0187497
0.0192513
0.0197076
0.020086
0.0203696
0.0205745
0.0207273
0.0208504
0.0209602
0.021065
0.0211551
0.0211934
0.0211297
0.0209837
0.0207472
0.020483
0.0201862
0.0198708
0.0195767
0.0193396
0.0191856
0.0191306
0.0191684
0.0192576
0.0193244
0.0192865
0.0191055
0.0188225
0.0184909
0.0181432
0.0178011
0.0174826
0.0172074
0.0169951
0.0168515
0.0168137
0.0168544
0.0169902
0.017221
0.0175198
0.0178593
0.0182169
0.0185719
0.018902
0.0191828
0.0193968
0.0195676
0.0197245
0.019905
0.02013
0.0203965
0.020695
0.0209612
0.021112
0.0210574
0.0208046
0.0203662
0.0199658
0.0197305
0.019645
0.0196345
0.0196208
0.0195209
0.019318
0.0190067
0.0186072
0.0181638
0.0177201
0.0173659
0.0173096
0.0177877
0.0197341
0.0234048
0.0266665
0.0294583
0.0300793
0.0304462
0.0305636
0.0299842
0.0285759
0.0265699
0.0242836
0.0219728
0.019797
0.0178334
0.0161098
0.0146307
0.013383
0.0123465
0.0115278
0.0108999
0.0105747
0.0105223
0.0108181
0.0118758
0.0139451
0.0159578
0.0164979
0.0177205
0.0197125
0.0220863
0.0244622
0.0262754
0.0273312
0.0275264
0.0270372
0.0261459
0.0250759
0.0239731
0.0229343
0.0220286
0.0212948
0.0207132
0.0202093
0.0197006
0.0191485
0.0185546
0.0179485
0.017396
0.0169832
0.0167767
0.0167914
0.0170518
0.0174941
0.017992
0.0184014
0.0186214
0.0186167
0.0184507
0.0181221
0.0177508
0.0173886
0.0171194
0.0170237
0.0171536
0.0174629
0.0179026
0.0183592
0.0186807
0.0187825
0.0187133
0.0185148
0.0183182
0.0182158
0.0182706
0.0184621
0.0187932
0.0192166
0.0196403
0.0199781
0.0201743
0.0202211
0.020157
0.0200226
0.0198517
0.019669
0.019487
0.0193291
0.0191821
0.0190579
0.0189677
0.0188928
0.0188291
0.0187766
0.0187416
0.0187333
0.0187639
0.0188463
0.0189764
0.0191279
0.0193191
0.0194973
0.0196678
0.0198185
0.0199141
0.0199339
0.0198943
0.0198305
0.0197249
0.0196477
0.0196051
0.0196005
0.0196221
0.0196418
0.0196355
0.0195924
0.0195303
0.0194556
0.019402
0.019384
0.0194179
0.0195167
0.0196714
0.0198605
0.0200656
0.0202718
0.020472
0.0206637
0.0208406
0.0210055
0.0212447
0.0218963
0.023582
0.0265117
0.0297956
0.0324307
8.03262e-06
7.68769e-06
5.24339e-06
0.00167152
0.0147187
0.0238684
0.0288159
0.0311835
0.0318741
0.031482
0.0302869
0.0287709
0.0271794
0.0256478
0.0242148
0.0228741
0.0216213
0.0204889
0.0195228
0.0187306
0.0180901
0.0175811
0.0171994
0.0169598
0.0168697
0.0168992
0.0169804
0.0170492
0.0170951
0.0170891
0.0170775
0.0171025
0.0171691
0.0172945
0.0175285
0.0178386
0.0182189
0.0187032
0.0191603
0.0195482
0.0198466
0.0200663
0.0202267
0.0203457
0.0204416
0.0205311
0.0206151
0.0206724
0.0205998
0.0204503
0.020229
0.02
0.0197058
0.0193924
0.0190997
0.0188597
0.0186967
0.0186286
0.0186542
0.0187312
0.0188019
0.0187897
0.0186221
0.0183649
0.0180675
0.0177544
0.0174365
0.0171349
0.0168705
0.0166507
0.0165159
0.0164763
0.0164808
0.0165684
0.0167692
0.0170336
0.0173437
0.017681
0.0180261
0.018356
0.0186527
0.0188404
0.0189985
0.0191431
0.0193164
0.0195356
0.0197647
0.0200688
0.0203521
0.0205318
0.0204994
0.0202742
0.0198203
0.0194351
0.0192271
0.0191645
0.0191679
0.0191584
0.019073
0.0188745
0.0185916
0.0181916
0.0177555
0.0173089
0.0169256
0.0167867
0.0171455
0.0187599
0.0221913
0.0257032
0.027595
0.0289917
0.0300653
0.0304379
0.0298046
0.0282407
0.0261134
0.023761
0.0214363
0.0192862
0.0173746
0.0157197
0.0143223
0.0131756
0.012262
0.0115609
0.0110782
0.0109023
0.0111415
0.0115534
0.0122359
0.0137784
0.0155416
0.0162721
0.0173512
0.0190376
0.0211989
0.0235022
0.0253549
0.0264629
0.0268041
0.0264216
0.0256308
0.0246391
0.0235943
0.0225954
0.0217104
0.0209789
0.0203942
0.0198905
0.019387
0.0188443
0.0182608
0.0176628
0.0171148
0.0166988
0.0164706
0.0164558
0.0166322
0.0170105
0.0174648
0.0178689
0.0181367
0.0181571
0.0180228
0.0177726
0.0174271
0.0170789
0.0167969
0.0166659
0.0167511
0.0170101
0.0173784
0.0177754
0.0181159
0.0182577
0.0182079
0.0180434
0.0178598
0.0177568
0.0177884
0.0179449
0.0182253
0.0186075
0.0190399
0.0194042
0.0196462
0.0197267
0.0196922
0.0195875
0.0194364
0.0192601
0.0190772
0.0189076
0.0187486
0.0186264
0.0185262
0.0184309
0.0183565
0.0182983
0.0182634
0.0182569
0.0182847
0.0183759
0.0184898
0.0186252
0.0188051
0.0189716
0.0191347
0.0193004
0.019413
0.0194385
0.0194098
0.019361
0.0192818
0.0192099
0.0191862
0.0191939
0.0192296
0.0192676
0.0192857
0.019256
0.0191973
0.0191268
0.0190633
0.0190254
0.0190213
0.0190852
0.0192168
0.0193821
0.0195651
0.0197514
0.0199378
0.0201255
0.0203082
0.0204812
0.0207105
0.0212958
0.0228468
0.0256913
0.0289854
0.0314454
9.01401e-06
9.39698e-06
9.42046e-06
9.60406e-05
0.00512175
0.0173326
0.0237722
0.0272298
0.028708
0.0288679
0.028164
0.0269866
0.0256494
0.0243103
0.0230201
0.0217819
0.0206024
0.0195207
0.0185833
0.0177923
0.0171327
0.0165954
0.0161802
0.0159005
0.0157693
0.0157584
0.015807
0.0158517
0.015879
0.0158625
0.0158359
0.0158367
0.0158652
0.015929
0.0160672
0.0163017
0.0166038
0.0170159
0.0174375
0.0178212
0.0181349
0.0183754
0.0185485
0.018661
0.0187311
0.0187862
0.0188426
0.0188885
0.0188725
0.0187748
0.0186106
0.0184205
0.0181926
0.0179279
0.0176613
0.0174295
0.0172549
0.0171568
0.0171452
0.0172002
0.0172685
0.0172762
0.0171754
0.0169921
0.0167701
0.0165226
0.0162536
0.0159827
0.0157352
0.0155176
0.0153448
0.0152509
0.0152068
0.0152422
0.0153552
0.0155386
0.0157763
0.0160549
0.0163575
0.0166587
0.0169283
0.0171356
0.0172841
0.017394
0.0175101
0.0176641
0.0178624
0.0181331
0.0184511
0.0187259
0.0188182
0.0186702
0.0183049
0.0179468
0.0177334
0.0176735
0.0176762
0.017679
0.017622
0.0174699
0.0172198
0.0168867
0.0165026
0.0160847
0.0156747
0.0153909
0.0155099
0.0163425
0.0191464
0.0230093
0.0260258
0.0280193
0.0291443
0.0292535
0.0284944
0.0267822
0.0246835
0.0224248
0.0202244
0.0182072
0.0164288
0.0149053
0.013637
0.0126179
0.0118342
0.0112777
0.0109265
0.0108456
0.0111586
0.0116046
0.0120928
0.0128596
0.0142984
0.0151897
0.0159669
0.0170944
0.0187647
0.0207786
0.0226466
0.0239491
0.0246118
0.0245656
0.0240592
0.0232787
0.0223779
0.0214696
0.0206302
0.0199111
0.0193276
0.0188326
0.0183511
0.0178402
0.0172908
0.0167235
0.0161919
0.0157583
0.01546
0.0153173
0.0153242
0.0155211
0.0158463
0.0162086
0.016508
0.0166641
0.0166631
0.0165442
0.0163218
0.0160421
0.0157584
0.0155488
0.0154857
0.0155912
0.0158236
0.0161603
0.0164888
0.0166851
0.0167283
0.0166233
0.0164687
0.0163396
0.0162894
0.0163443
0.016506
0.0168032
0.017189
0.0175707
0.0178666
0.0180375
0.0180925
0.01806
0.017965
0.0178271
0.0176625
0.0175024
0.0173498
0.0172122
0.0170947
0.0169948
0.0169115
0.0168445
0.016801
0.016786
0.0167974
0.0168401
0.0169134
0.0170067
0.0171284
0.0172771
0.0174437
0.0176158
0.017756
0.0178428
0.0178798
0.017874
0.0178384
0.0177963
0.0177866
0.0178163
0.0178827
0.0179798
0.0180483
0.0180494
0.0180078
0.0179372
0.0178485
0.017764
0.0177076
0.0177035
0.0177577
0.0178548
0.0179772
0.0181098
0.0182546
0.0184247
0.0186212
0.0188298
0.0190693
0.0195317
0.0207112
0.023078
0.0260401
0.0281208
8.99479e-06
9.01517e-06
9.02435e-06
9.18069e-06
0.000300674
0.00615794
0.0153606
0.0206295
0.023423
0.0245301
0.0245579
0.0239289
0.0229974
0.0219718
0.0209318
0.0198988
0.0188875
0.0179338
0.0170773
0.0163189
0.0156516
0.0150907
0.0146433
0.0143122
0.014108
0.0140179
0.0139961
0.0139985
0.0139919
0.0139598
0.0139204
0.0139022
0.0139073
0.0139303
0.0139901
0.014116
0.0143146
0.0145705
0.0149011
0.0152215
0.0154945
0.015716
0.0158819
0.015989
0.0160465
0.0160804
0.0161163
0.0161663
0.0162056
0.0161911
0.016114
0.0160173
0.0158783
0.0157058
0.0155085
0.0153204
0.0151668
0.0150635
0.0150235
0.0150457
0.0150993
0.0151294
0.0150911
0.0149869
0.0148438
0.0146662
0.0144504
0.014214
0.0139833
0.0137687
0.0135789
0.0134342
0.0133438
0.0133039
0.0133269
0.0134145
0.0135561
0.0137411
0.0139597
0.0141962
0.0144284
0.014629
0.0147807
0.014889
0.0149615
0.0150388
0.0151594
0.0153772
0.0157034
0.0160866
0.0163565
0.0163638
0.0161684
0.0158365
0.0155842
0.0154597
0.0154304
0.0154263
0.0153863
0.01532
0.0151546
0.0149215
0.0146356
0.0143084
0.013957
0.0136479
0.0135758
0.014071
0.0163386
0.0205926
0.0242715
0.0264306
0.0272814
0.0270767
0.0261304
0.0245532
0.0226484
0.0206284
0.0186586
0.0168463
0.0152512
0.0138975
0.0127861
0.0119069
0.0112385
0.0108139
0.0104979
0.0104759
0.0107608
0.0112318
0.0116102
0.0120197
0.0127665
0.0135354
0.0141848
0.0148208
0.0158408
0.0173299
0.0190292
0.0204842
0.021416
0.0217789
0.0216067
0.0210954
0.0203978
0.0196317
0.0188808
0.018204
0.0176373
0.0171656
0.0167307
0.0162812
0.0157896
0.0152708
0.0147643
0.0143077
0.0139299
0.0136514
0.013489
0.0134626
0.0135856
0.01382
0.0140969
0.0143354
0.0144832
0.0145315
0.0144976
0.0143718
0.0141786
0.0139713
0.0138176
0.0137662
0.0138327
0.0139987
0.0142519
0.0144657
0.014542
0.0145294
0.0144249
0.0142947
0.0141833
0.0141264
0.0141562
0.0142893
0.0145463
0.0148625
0.0151538
0.0153762
0.0155089
0.0155564
0.0155328
0.0154567
0.0153469
0.0152232
0.0151104
0.0150222
0.0149269
0.0148469
0.0147726
0.0147059
0.0146531
0.0146211
0.014606
0.0146047
0.0146223
0.0146614
0.0147234
0.0148146
0.0149598
0.0151243
0.0152867
0.0154262
0.0155339
0.015606
0.0156404
0.0156578
0.0156906
0.0157558
0.0158616
0.0160028
0.016124
0.0161728
0.0161687
0.0161225
0.0160369
0.0159257
0.0158187
0.0157417
0.0156951
0.015703
0.0157419
0.0158016
0.0158804
0.0159944
0.0161572
0.0163606
0.0165917
0.0169266
0.0176555
0.0192402
0.0215127
0.0232426
9.00264e-06
9.00802e-06
9.04108e-06
9.13911e-06
9.07094e-06
0.000162072
0.00301591
0.0114292
0.0162094
0.018742
0.0197814
0.019909
0.0195714
0.018952
0.018244
0.017489
0.0167165
0.0159652
0.0152736
0.0146339
0.0140276
0.0134838
0.0130311
0.012664
0.0123843
0.0121946
0.0120759
0.0120018
0.0119448
0.0118858
0.0118247
0.0117819
0.01177
0.0117869
0.0118334
0.0119178
0.0120425
0.0121961
0.0123632
0.0125527
0.0127416
0.0128893
0.0130103
0.0130976
0.0131491
0.0131773
0.0132047
0.0132514
0.0133167
0.0133696
0.0133808
0.0133474
0.0132784
0.013191
0.0130796
0.012958
0.0128571
0.0127896
0.012759
0.0127648
0.0127958
0.0128269
0.0128259
0.0127857
0.012722
0.012631
0.0124936
0.0123176
0.0121297
0.0119463
0.0117725
0.011621
0.0115052
0.0114265
0.0113836
0.0113743
0.011409
0.011471
0.0115647
0.0116875
0.0118338
0.0119865
0.0121243
0.0122324
0.0123115
0.0123706
0.012435
0.0125765
0.012863
0.0132698
0.0136449
0.0138282
0.0137432
0.013518
0.0132379
0.0130605
0.0129944
0.0129761
0.0129684
0.0129557
0.0129065
0.0127995
0.0126382
0.0124379
0.0122161
0.0120402
0.0120723
0.0125811
0.01455
0.0183376
0.0217867
0.0237722
0.0244805
0.0243188
0.0235108
0.0222446
0.0206701
0.0189505
0.0172345
0.0156378
0.014238
0.0130694
0.0121269
0.011387
0.0108357
0.0104298
0.0101485
0.0100705
0.0102216
0.0105723
0.0109144
0.0111867
0.0115507
0.0120065
0.0124781
0.0128737
0.0133979
0.0142347
0.0154643
0.016814
0.0178881
0.0184811
0.0186085
0.0183727
0.0179301
0.0173785
0.0167896
0.0162196
0.0157148
0.0152897
0.0149139
0.0145423
0.0141322
0.0136824
0.0132204
0.0127744
0.0123677
0.0120191
0.0117409
0.0115527
0.0114676
0.011485
0.0116225
0.0118134
0.0120135
0.0122128
0.0123934
0.0125141
0.0125192
0.0124332
0.0122907
0.012157
0.0120707
0.0120505
0.0120983
0.0122063
0.0122519
0.0122582
0.0122039
0.0121159
0.0120116
0.0119018
0.0118173
0.0117953
0.0118512
0.0119881
0.0121944
0.0123933
0.0125584
0.0126669
0.0127211
0.0127285
0.0127039
0.0126601
0.0126094
0.0125619
0.0125229
0.0124772
0.0124418
0.0123894
0.0123331
0.0122836
0.0122437
0.0122119
0.0121924
0.0121909
0.0122112
0.0122583
0.0123295
0.0124678
0.0126197
0.0127735
0.0129233
0.013063
0.0131791
0.0132705
0.0133674
0.0134888
0.0136361
0.0138275
0.0140007
0.014114
0.0141799
0.0142007
0.0141688
0.0140899
0.013982
0.0138715
0.0137798
0.0137126
0.0136541
0.0136353
0.0136306
0.0136503
0.013715
0.0138317
0.0139844
0.0141822
0.0145391
0.015347
0.0167585
0.0180785
9.0007e-06
9.0037e-06
9.0148e-06
9.03442e-06
9.04597e-06
9.12493e-06
2.77151e-05
0.00115218
0.00665272
0.0111786
0.0137237
0.0149422
0.0153537
0.0153197
0.0150456
0.0146794
0.0142166
0.0137465
0.0133023
0.0128719
0.0124303
0.0119865
0.0115777
0.0112174
0.0109149
0.0106705
0.0104771
0.0103285
0.0102098
0.010107
0.0100081
0.00992436
0.00988074
0.00989561
0.0099744
0.0101043
0.0102539
0.0103879
0.0104853
0.0105468
0.0105813
0.0106027
0.0106194
0.0106406
0.0106426
0.01064
0.0106424
0.0106655
0.0107144
0.0107757
0.0108235
0.0108391
0.0108212