/*--------------------------------*- C++ -*----------------------------------*\
  =========                 |
  \\      /  F ield         | OpenFOAM: The Open Source CFD Toolbox
   \\    /   O peration     | Website:  https://openfoam.org
    \\  /    A nd           | Version:  7
     \\/     M anipulation  |
\*---------------------------------------------------------------------------*/
FoamFile
{
    version     2.0;
    format      ascii;
    class       volScalarField;
    location    "250";
    object      p;
}
// * * * * * * * * * * * * * * * * * * * * * * * * * * * * * * * * * * * * * //

dimensions      [0 2 -2 0 0 0 0];

internalField   nonuniform List<scalar> 
96800
(
47.9119
47.9119
47.9119
47.9119
47.9119
47.9119
47.9119
47.9119
47.912
47.912
47.912
47.912
47.9121
47.9121
47.9121
47.9121
47.9121
47.9121
47.9121
47.9122
47.9122
47.9122
47.9119
47.9119
47.9119
47.9119
47.9119
47.9119
47.9119
47.9119
47.912
47.912
47.912
47.912
47.9121
47.9121
47.9121
47.9121
47.9121
47.9121
47.9121
47.9122
47.9122
47.9122
47.9119
47.9119
47.9119
47.9119
47.9119
47.9119
47.9119
47.912
47.912
47.912
47.912
47.9121
47.9121
47.9121
47.9121
47.9121
47.9122
47.9122
47.9122
47.9122
47.9122
47.9123
47.9119
47.9119
47.9119
47.9119
47.9119
47.9119
47.912
47.912
47.912
47.912
47.912
47.9121
47.9121
47.9121
47.9121
47.9122
47.9122
47.9122
47.9122
47.9123
47.9123
47.9123
47.912
47.912
47.9119
47.9119
47.912
47.912
47.912
47.912
47.912
47.912
47.9121
47.9121
47.9121
47.9121
47.9122
47.9122
47.9122
47.9123
47.9123
47.9123
47.9123
47.9123
47.912
47.912
47.912
47.912
47.912
47.912
47.912
47.9121
47.9121
47.9121
47.9121
47.9121
47.9122
47.9122
47.9122
47.9122
47.9123
47.9123
47.9124
47.9124
47.9124
47.9124
47.912
47.912
47.912
47.912
47.912
47.912
47.9121
47.9121
47.9121
47.9121
47.9122
47.9122
47.9122
47.9122
47.9123
47.9123
47.9123
47.9124
47.9124
47.9125
47.9125
47.9125
47.912
47.912
47.912
47.912
47.912
47.9121
47.9121
47.9121
47.9122
47.9122
47.9122
47.9122
47.9123
47.9123
47.9123
47.9124
47.9124
47.9125
47.9125
47.9125
47.9126
47.9126
47.912
47.912
47.912
47.9121
47.9121
47.9121
47.9121
47.9122
47.9122
47.9123
47.9123
47.9123
47.9124
47.9124
47.9124
47.9125
47.9125
47.9126
47.9126
47.9126
47.9126
47.9126
47.912
47.912
47.9121
47.9121
47.9121
47.9121
47.9122
47.9122
47.9123
47.9123
47.9124
47.9124
47.9124
47.9125
47.9125
47.9126
47.9126
47.9127
47.9127
47.9127
47.9127
47.9127
47.9121
47.9121
47.9121
47.9121
47.9121
47.9122
47.9122
47.9123
47.9124
47.9124
47.9125
47.9125
47.9126
47.9126
47.9127
47.9127
47.9128
47.9128
47.9128
47.9128
47.9129
47.9129
47.9121
47.9121
47.9121
47.9121
47.9122
47.9122
47.9123
47.9124
47.9124
47.9125
47.9126
47.9126
47.9127
47.9127
47.9128
47.9128
47.9129
47.9129
47.9129
47.913
47.913
47.913
47.9121
47.9121
47.9121
47.9122
47.9122
47.9123
47.9124
47.9124
47.9125
47.9126
47.9127
47.9127
47.9128
47.9128
47.9129
47.913
47.913
47.9131
47.9131
47.9131
47.9131
47.9131
47.9121
47.9122
47.9122
47.9122
47.9123
47.9124
47.9124
47.9125
47.9126
47.9127
47.9128
47.9128
47.9129
47.913
47.913
47.9131
47.9132
47.9132
47.9132
47.9133
47.9133
47.9133
47.9122
47.9122
47.9122
47.9123
47.9123
47.9124
47.9125
47.9126
47.9127
47.9128
47.9129
47.913
47.913
47.9131
47.9132
47.9133
47.9133
47.9134
47.9134
47.9135
47.9135
47.9135
47.9122
47.9122
47.9123
47.9123
47.9124
47.9124
47.9125
47.9126
47.9128
47.9129
47.913
47.9131
47.9132
47.9133
47.9134
47.9134
47.9135
47.9136
47.9136
47.9136
47.9137
47.9137
47.9122
47.9122
47.9123
47.9123
47.9124
47.9125
47.9126
47.9127
47.9128
47.913
47.9131
47.9132
47.9133
47.9134
47.9135
47.9136
47.9137
47.9138
47.9138
47.9139
47.9139
47.9139
47.9122
47.9122
47.9123
47.9123
47.9124
47.9125
47.9126
47.9128
47.9129
47.913
47.9132
47.9133
47.9135
47.9136
47.9137
47.9138
47.9139
47.914
47.914
47.9141
47.9141
47.9141
47.9122
47.9122
47.9122
47.9123
47.9124
47.9125
47.9127
47.9128
47.913
47.9131
47.9133
47.9134
47.9136
47.9138
47.9139
47.914
47.9141
47.9142
47.9143
47.9143
47.9144
47.9144
47.9121
47.9121
47.9122
47.9123
47.9124
47.9125
47.9127
47.9128
47.913
47.9132
47.9134
47.9136
47.9137
47.9139
47.9141
47.9142
47.9144
47.9145
47.9146
47.9146
47.9147
47.9147
47.912
47.912
47.9121
47.9122
47.9123
47.9125
47.9126
47.9128
47.913
47.9132
47.9134
47.9137
47.9139
47.9141
47.9143
47.9144
47.9146
47.9147
47.9149
47.9149
47.915
47.915
47.9119
47.9119
47.912
47.9121
47.9122
47.9124
47.9126
47.9128
47.913
47.9132
47.9135
47.9137
47.914
47.9142
47.9145
47.9147
47.9149
47.915
47.9152
47.9153
47.9153
47.9154
47.9117
47.9117
47.9118
47.9119
47.9121
47.9123
47.9125
47.9127
47.9129
47.9132
47.9135
47.9138
47.9141
47.9144
47.9147
47.9149
47.9152
47.9154
47.9155
47.9157
47.9157
47.9158
47.9114
47.9115
47.9115
47.9117
47.9119
47.9121
47.9123
47.9126
47.9129
47.9132
47.9136
47.9139
47.9143
47.9146
47.9149
47.9152
47.9155
47.9157
47.9159
47.9161
47.9162
47.9162
47.9112
47.9112
47.9113
47.9114
47.9116
47.9119
47.9121
47.9125
47.9128
47.9132
47.9136
47.914
47.9144
47.9148
47.9152
47.9155
47.9159
47.9161
47.9163
47.9165
47.9166
47.9167
47.9108
47.9109
47.911
47.9111
47.9113
47.9116
47.9119
47.9123
47.9127
47.9132
47.9136
47.9141
47.9146
47.915
47.9155
47.9159
47.9162
47.9165
47.9168
47.917
47.9171
47.9172
47.9105
47.9105
47.9106
47.9108
47.911
47.9113
47.9117
47.9121
47.9126
47.9131
47.9137
47.9142
47.9147
47.9153
47.9158
47.9162
47.9166
47.917
47.9173
47.9175
47.9177
47.9178
47.91
47.9101
47.9102
47.9104
47.9107
47.911
47.9115
47.9119
47.9125
47.9131
47.9137
47.9143
47.9149
47.9155
47.9161
47.9166
47.9171
47.9175
47.9179
47.9182
47.9183
47.9184
47.9096
47.9096
47.9098
47.91
47.9103
47.9107
47.9112
47.9117
47.9123
47.913
47.9137
47.9144
47.9151
47.9158
47.9165
47.9171
47.9176
47.9181
47.9185
47.9188
47.9191
47.9192
47.909
47.909
47.9092
47.9095
47.9099
47.9103
47.9109
47.9115
47.9122
47.9129
47.9137
47.9145
47.9153
47.9161
47.9169
47.9176
47.9182
47.9188
47.9192
47.9196
47.9199
47.92
47.9082
47.9083
47.9085
47.9088
47.9093
47.9098
47.9105
47.9112
47.912
47.9128
47.9137
47.9146
47.9155
47.9164
47.9173
47.9181
47.9188
47.9195
47.9201
47.9205
47.9208
47.921
47.9072
47.9073
47.9075
47.9079
47.9085
47.9091
47.9099
47.9108
47.9117
47.9127
47.9137
47.9147
47.9157
47.9168
47.9178
47.9188
47.9196
47.9204
47.921
47.9215
47.9219
47.9221
47.9058
47.9059
47.9063
47.9068
47.9074
47.9082
47.9092
47.9102
47.9113
47.9124
47.9136
47.9148
47.916
47.9172
47.9184
47.9195
47.9205
47.9214
47.9222
47.9227
47.9232
47.9234
47.904
47.9041
47.9045
47.9051
47.906
47.907
47.9081
47.9094
47.9107
47.9121
47.9135
47.915
47.9164
47.9178
47.9191
47.9204
47.9216
47.9226
47.9235
47.9242
47.9247
47.9249
47.9016
47.9017
47.9022
47.903
47.904
47.9053
47.9067
47.9083
47.9099
47.9116
47.9133
47.9151
47.9167
47.9184
47.92
47.9215
47.9228
47.924
47.9251
47.9259
47.9264
47.9267
47.8985
47.8986
47.8992
47.9002
47.9015
47.9031
47.9048
47.9067
47.9088
47.9109
47.913
47.9151
47.9171
47.9191
47.921
47.9227
47.9243
47.9257
47.9269
47.9278
47.9285
47.9288
47.8944
47.8946
47.8954
47.8966
47.8982
47.9001
47.9023
47.9047
47.9072
47.9098
47.9124
47.915
47.9175
47.9199
47.9221
47.9241
47.926
47.9277
47.9291
47.9302
47.9309
47.9313
47.8891
47.8893
47.8903
47.8919
47.8939
47.8963
47.8991
47.9021
47.9052
47.9084
47.9116
47.9147
47.9178
47.9207
47.9234
47.9258
47.928
47.93
47.9316
47.9329
47.9338
47.9343
47.8822
47.8824
47.8837
47.8857
47.8882
47.8913
47.8948
47.8985
47.9024
47.9064
47.9104
47.9143
47.918
47.9215
47.9248
47.9277
47.9304
47.9327
47.9346
47.9362
47.9372
47.9378
47.8731
47.8733
47.875
47.8775
47.8808
47.8847
47.8891
47.8938
47.8987
47.9037
47.9087
47.9135
47.9181
47.9224
47.9264
47.93
47.9332
47.9359
47.9383
47.9401
47.9413
47.942
47.8609
47.8613
47.8634
47.8667
47.8709
47.8759
47.8815
47.8875
47.8937
47.9
47.9062
47.9123
47.918
47.9233
47.9282
47.9326
47.9364
47.9398
47.9426
47.9447
47.9462
47.947
47.8448
47.8452
47.848
47.8523
47.8577
47.8642
47.8713
47.879
47.8869
47.8949
47.9028
47.9104
47.9175
47.9241
47.9302
47.9356
47.9403
47.9443
47.9477
47.9503
47.9521
47.953
47.8233
47.8238
47.8275
47.8331
47.8402
47.8485
47.8577
47.8675
47.8777
47.8878
47.8978
47.9074
47.9165
47.9248
47.9323
47.939
47.9448
47.9497
47.9538
47.957
47.9592
47.9602
47.7948
47.7954
47.8002
47.8075
47.8168
47.8277
47.8396
47.8522
47.8652
47.8782
47.8909
47.9031
47.9145
47.925
47.9344
47.9428
47.95
47.9561
47.9611
47.965
47.9677
47.9689
47.7569
47.7575
47.7638
47.7734
47.7857
47.7999
47.8154
47.8318
47.8485
47.8651
47.8814
47.8969
47.9113
47.9245
47.9364
47.9469
47.9559
47.9635
47.9696
47.9744
47.9777
47.9792
47.7065
47.7073
47.7155
47.7282
47.7444
47.763
47.7832
47.8044
47.826
47.8474
47.8683
47.888
47.9064
47.9231
47.9381
47.9513
47.9626
47.972
47.9796
47.9855
47.9896
47.9913
47.64
47.6408
47.6514
47.6682
47.6895
47.7139
47.7403
47.7679
47.7959
47.8236
47.8503
47.8756
47.8989
47.9201
47.939
47.9556
47.9698
47.9815
47.991
47.9984
48.0034
48.0054
47.5522
47.553
47.5667
47.5888
47.6169
47.649
47.6837
47.7197
47.7561
47.7918
47.8261
47.8582
47.8879
47.9147
47.9387
47.9595
47.9772
47.9919
48.0038
48.0129
48.0193
48.0217
47.437
47.4374
47.4551
47.4841
47.5214
47.5637
47.6092
47.6563
47.7035
47.7496
47.7934
47.8344
47.8719
47.9059
47.936
47.9622
47.9844
48.0028
48.0176
48.0291
48.037
48.0399
47.2863
47.2858
47.3085
47.3469
47.3964
47.4524
47.5122
47.5736
47.6348
47.694
47.75
47.8019
47.8494
47.892
47.9297
47.9625
47.9904
48.0134
48.032
48.0463
48.0562
48.0598
47.0896
47.0877
47.1169
47.1676
47.2333
47.3075
47.386
47.4663
47.5455
47.6215
47.6927
47.7582
47.8177
47.8708
47.9177
47.9585
47.9933
48.0222
48.0454
48.0633
48.0758
48.0804
46.8337
46.8296
46.867
46.9337
47.0207
47.1192
47.2227
47.3276
47.4302
47.5276
47.6178
47.6998
47.7736
47.8392
47.897
47.9472
47.9903
48.0263
48.0555
48.0781
48.0939
48.1001
46.501
46.4936
46.5417
46.6289
46.7444
46.8756
47.013
47.1503
47.2828
47.407
47.5205
47.6225
47.7132
47.7932
47.8635
47.9248
47.9775
48.0219
48.0583
48.0868
48.106
48.1165
46.0668
46.0564
46.1185
46.2331
46.3875
46.5633
46.7458
46.9253
47.0958
47.2533
47.3949
47.5203
47.6305
47.7271
47.8116
47.8854
47.9491
48.0033
48.0483
48.0839
48.1093
48.1194
45.4981
45.4859
45.567
45.7196
45.9281
46.1645
46.4069
46.6409
46.8592
47.0573
47.2322
47.3845
47.5167
47.632
47.7324
47.8199
47.896
47.9614
48.0165
48.0612
48.0937
48.1057
44.7496
44.7386
44.8468
45.0536
45.3372
45.6555
45.9767
46.2813
46.5602
46.8076
47.0216
47.2045
47.361
47.4957
47.6125
47.7143
47.8039
47.8823
47.9495
48.0049
48.0457
48.0602
43.7564
43.7545
43.9029
44.1876
44.5752
45.0042
45.4304
45.8274
46.1829
46.4908
46.7511
46.9687
47.1508
47.3044
47.436
47.551
47.6535
47.7454
47.8265
47.8949
47.9456
47.9628
42.4307
42.4444
42.6585
43.0576
43.5909
44.1709
44.7385
45.2568
45.7097
46.0919
46.4067
46.6628
46.8706
47.041
47.184
47.3083
47.4201
47.5234
47.618
47.7008
47.7634
47.7831
40.6396
40.6917
41.0127
41.5824
42.3218
43.1117
43.8706
44.5472
45.1227
45.5944
45.9716
46.2686
46.5006
46.6835
46.8316
46.9577
47.0717
47.1798
47.2836
47.3792
47.454
47.4756
38.1954
38.3296
38.8373
39.6665
40.6999
41.7814
42.7964
43.6774
44.4039
44.9803
45.4258
45.7634
46.0162
46.2055
46.3502
46.467
46.5704
46.6707
46.7723
46.8719
46.9528
46.9722
34.8266
35.1312
35.9902
37.219
38.659
40.1381
41.4902
42.6303
43.5381
44.2324
44.7484
45.123
45.39
45.577
45.7071
45.8001
45.8747
45.9462
46.0241
46.1052
46.1708
46.1756
30.1101
30.7721
32.3804
34.1978
36.1408
38.1414
39.9341
41.3943
42.5116
43.3318
43.9155
44.3192
44.5894
44.7605
44.8588
44.906
44.9239
44.9354
44.9596
44.9816
44.9798
44.9431
23.3802
24.7624
28.2683
30.7747
33.0996
35.7565
38.1215
39.9641
41.3093
42.2535
42.8956
43.3174
43.5774
43.715
43.7562
43.7203
43.6304
43.5269
43.4713
43.3767
43.1739
43.0306
13.679
16.1851
19.4775
24.1851
29.0471
32.9289
36.0721
38.347
39.9157
40.9665
41.6515
42.0786
42.3157
42.4013
42.353
42.1758
41.8782
41.5218
41.4391
41.2118
40.3965
39.9363
-1.79887
-5.24033
6.83353
16.6244
24.1155
29.9193
33.9151
36.5812
38.3218
39.4425
40.1479
40.5665
40.7692
40.7863
40.6162
40.2257
39.5385
38.3679
36.0642
32.7491
29.4116
27.594
-30.5683
-39.9073
-2.36576
11.2611
20.293
27.3372
31.8576
34.7155
36.5159
37.6491
38.3483
38.7466
38.9099
38.8535
38.549
37.9164
36.7954
34.8771
31.49
25.5282
15.0199
-0.64015
-4.30979
42.3653
36.8214
35.3491
32.3117
27.9987
25.6488
24.2974
24.8001
25.3905
25.8073
25.9848
26.0588
25.9328
25.6313
25.3624
24.9656
24.6043
24.2814
24.2562
24.1302
24.0459
23.9177
23.767
23.6529
23.5728
23.4355
23.2071
22.8977
22.584
22.3401
22.3661
22.3866
22.4631
22.5699
22.6775
22.7321
22.7272
22.7715
22.8207
22.8851
22.9414
23.0046
23.0695
23.0308
23.0921
23.1837
23.2776
23.2985
23.2594
23.2147
23.0473
22.8289
22.6022
22.3378
22.0998
21.8967
21.6743
21.4283
21.1791
20.8346
20.4503
20.1206
19.7121
19.7749
19.8829
19.8666
19.8837
19.8384
19.8002
19.695
19.7508
19.7619
19.7406
19.7001
19.6312
19.5893
19.622
19.7111
19.8298
19.9499
20.0545
20.1559
20.3144
20.5088
20.6854
20.7365
20.6877
20.4403
20.0912
19.6326
18.8711
18.3424
17.6624
17.8217
18.1134
18.3667
18.4037
18.4457
18.3536
18.2383
18.3064
18.3417
18.4785
18.4558
18.2941
18.0525
16.3294
14.3374
5.21509
-166.658
2.25269
-2.99796
11.447
19.4954
25.8281
30.0651
32.7614
34.4722
35.5598
36.2341
36.612
36.7435
36.6261
36.2038
35.3474
33.8092
31.1144
26.084
15.9815
-7.94879
-68.7348
-279.309
-117.771
-33.8136
-24.1447
-16.9207
-10.9449
-6.27935
-3.11437
-0.697745
1.14128
2.5794
4.14797
5.49246
6.63958
7.45862
7.85944
8.16543
8.39303
8.26459
8.13474
8.1336
8.07576
8.29528
8.64773
9.01092
9.41655
9.70262
9.854
9.80526
9.73086
9.58128
9.40516
9.25451
9.13367
9.00289
8.93929
8.9375
8.96383
8.9423
8.73436
8.5423
8.27536
7.96927
7.62356
7.36512
7.22445
7.36057
7.47998
7.58234
7.51604
7.47098
7.4369
7.50328
7.54828
7.66108
7.78567
7.81133
7.9504
8.04311
8.08952
8.03007
7.97648
7.8913
7.74491
7.48714
7.26411
7.03954
6.82743
6.70824
6.65546
6.65688
6.63049
6.73331
6.84876
6.96291
7.07704
7.15534
7.04023
6.96617
6.78822
6.52469
6.28973
6.13089
6.12678
6.1118
6.06453
6.07225
6.12971
6.18963
6.34595
6.62517
6.97884
7.34582
7.66903
7.98436
8.33469
8.73428
9.17267
9.62666
10.1834
10.7962
11.5132
12.4131
13.5042
14.7214
16.146
17.787
18.5774
13.3696
-4.17478
26.3718
34.5323
36.5847
39.6025
32.9274
27.4431
25.1288
24.4153
24.7186
25.1923
25.5377
25.7399
25.8121
25.7227
25.4667
25.0659
24.6344
24.2938
24.0988
24.0684
24.03
23.9374
23.8199
23.7376
23.7093
23.6557
23.4792
23.1964
22.8632
22.5565
22.3837
22.3885
22.4412
22.5139
22.608
22.7177
22.795
22.8278
22.8481
22.871
22.9118
22.9738
23.0374
23.0745
23.0935
23.1404
23.241
23.3424
23.3654
23.2989
23.1874
23.0191
22.7868
22.5272
22.2858
22.0854
21.9059
21.7094
21.457
21.1204
20.6937
20.2558
19.902
19.6929
19.7061
19.7907
19.7921
19.776
19.7261
19.6945
19.6877
19.7339
19.7784
19.7872
19.7452
19.6961
19.6622
19.687
19.7788
19.9002
20.0137
20.1054
20.2015
20.3532
20.5457
20.7168
20.8189
20.8284
20.6451
20.1853
19.4264
18.5234
17.8475
17.5518
17.7355
18.0968
18.3745
18.4738
18.4411
18.3318
18.2568
18.312
18.4179
18.5847
18.7515
18.8325
19.0486
19.9593
20.4226
33.2919
-61.3606
-10.7454
1.84915
13.3525
19.9222
24.9178
28.3679
30.662
32.1874
33.2003
33.8484
34.2217
34.3461
34.1945
33.6913
32.6852
30.9093
27.8015
22.2484
11.6727
-9.39687
-48.3478
-109.035
-78.9493
-42.8901
-21.1221
-14.3973
-8.92083
-5.02799
-2.4403
-0.514443
1.12478
2.67497
4.23136
5.60291
6.67785
7.41484
7.87597
8.10638
8.15697
8.08081
7.97674
7.93021
7.97387
8.19432
8.59847
9.08461
9.54031
9.85242
9.99855
9.98229
9.83898
9.63609
9.4125
9.19928
9.03596
8.93176
8.88536
8.91039
8.95524
8.97125
8.86539
8.63756
8.3029
7.91479
7.54487
7.2812
7.20676
7.31772
7.47886
7.59205
7.62081
7.56064
7.5218
7.54501
7.5983
7.66587
7.73068
7.81538
7.92468
8.01795
8.06638
8.05354
7.99762
7.89828
7.73468
7.50206
7.24497
6.99937
6.79785
6.6836
6.624
6.61968
6.6591
6.7665
6.90182
7.03228
7.1465
7.20123
7.14072
6.95352
6.70916
6.46196
6.25403
6.1313
6.07846
6.05357
6.04168
6.05233
6.08887
6.17408
6.33335
6.60567
6.96095
7.31838
7.64608
7.97377
8.32952
8.72635
9.16746
9.64122
10.1543
10.7384
11.4362
12.2636
13.2026
14.2136
15.7085
17.8307
21.6105
21.9677
40.6521
30.9091
32.6296
34.1988
35.113
31.0602
26.1772
24.6203
24.4064
24.7281
25.0851
25.3282
25.4886
25.5669
25.4937
25.2008
24.7288
24.2328
23.8999
23.7995
23.8342
23.8318
23.7591
23.6786
23.6717
23.7441
23.731
23.5648
23.2341
22.8345
22.498
22.3414
22.3617
22.428
22.5124
22.6326
22.7841
22.9131
22.9637
22.9739
22.9771
23.0042
23.0624
23.118
23.1401
23.1572
23.2188
23.3375
23.4671
23.4436
23.3085
23.1372
22.945
22.6895
22.4033
22.172
22.0128
21.877
21.7159
21.478
21.1159
20.6309
20.1077
19.7019
19.5329
19.5792
19.7061
19.7269
19.7019
19.659
19.6329
19.6475
19.7212
19.8037
19.8354
19.8081
19.767
19.7337
19.775
19.8895
20.0223
20.1217
20.1768
20.2385
20.384
20.6026
20.8227
21.0172
21.1302
20.9698
20.3836
19.3557
18.162
17.303
17.1306
17.5386
18.1016
18.4885
18.5992
18.4992
18.3186
18.2178
18.2437
18.3369
18.5028
18.5988
18.7494
19.1072
19.3105
19.0207
20.1848
-13.4448
8.86584
10.8614
16.7003
21.0676
24.2328
26.6893
28.4974
29.8088
30.7493
31.3865
31.7555
31.8931
31.7322
31.1935
30.1232
28.2609
25.1411
19.9402
11.0425
-4.31505
-26.0191
-48.0778
-44.8213
-30.9075
-18.182
-10.9324
-5.88824
-2.8947
-1.12969
0.102866
1.39956
2.8191
4.27894
5.61855
6.69913
7.44365
7.90775
8.13161
8.13636
7.97651
7.78582
7.67032
7.70839
7.97016
8.46237
9.06978
9.62951
10.0203
10.1914
10.1655
9.9942
9.72053
9.4125
9.12806
8.93114
8.83957
8.81671
8.85852
8.93974
9.0407
8.94837
8.71959
8.34888
7.89773
7.44947
7.15466
7.09638
7.24612
7.47794
7.63156
7.67303
7.62657
7.58834
7.61883
7.67528
7.73073
7.7737
7.84411
7.94107
8.04128
8.10355
8.1081
8.04219
7.9192
7.72224
7.45961
7.17156
6.90256
6.69345
6.58252
6.55897
6.59507
6.68461
6.82627
6.98596
7.12957
7.24553
7.29796
7.22389
7.00349
6.7091
6.43426
6.22214
6.08271
6.01336
6.00626
6.00508
6.01942
6.06073
6.14607
6.29525
6.54929
6.89955
7.25498
7.58203
7.91445
8.27422
8.66615
9.09242
9.53663
10.0003
10.532
11.1791
11.9331
12.7557
13.625
14.9091
16.9516
20.4344
25.4469
33.6526
30.9788
31.365
31.7945
31.1962
28.6719
25.0993
24.4925
24.8022
25.1477
25.3654
25.4765
25.557
25.5733
25.4286
25.0663
24.5456
24.03
23.7103
23.623
23.6086
23.5771
23.5481
23.552
23.6232
23.7548
23.7961
23.6241
23.2736
22.8557
22.5064
22.3531
22.3617
22.4103
22.4713
22.5873
22.7608
22.9262
23.0291
23.0716
23.0895
23.1182
23.1732
23.2189
23.2272
23.2437
23.3028
23.4376
23.5363
23.4935
23.2961
23.0558
22.8341
22.5756
22.2854
22.0612
21.934
21.8328
21.677
21.4211
21.0298
20.5139
19.9769
19.591
19.4336
19.5266
19.6284
19.6701
19.6507
19.633
19.6154
19.6328
19.7098
19.7995
19.8451
19.8298
19.7941
19.797
19.8664
19.998
20.1316
20.2162
20.2408
20.2808
20.3976
20.6129
20.8691
21.1368
21.3534
21.166
20.4423
19.1825
17.7548
16.7635
16.6694
17.295
18.0856
18.6255
18.7783
18.6852
18.4248
18.2984
18.2829
18.3707
18.514
18.6385
18.8118
18.9693
19.043
18.97
18.8216
5.74935
13.9299
17.1986
19.2968
21.6336
23.5133
25.1792
26.5567
27.6531
28.4954
29.1059
29.4911
29.6187
29.455
28.8978
27.8215
25.9953
23.1216
18.669
11.8132
1.71946
-10.9931
-23.7237
-25.5786
-19.6498
-12.1056
-6.72829
-2.95952
-0.916608
0.198379
0.98639
2.12037
3.38335
4.69293
5.8647
6.89106
7.56084
8.00075
8.22197
8.2119
8.0038
7.71869
7.50244
7.52544
7.83
8.37637
9.01631
9.60276
10.0169
10.2372
10.2232
10.0703
9.79146
9.46191
9.14092
8.94304
8.85635
8.81857
8.84289
8.89286
8.92506
8.85711
8.63388
8.27833
7.85622
7.4089
7.14207
7.0869
7.24236
7.45454
7.60901
7.61849
7.58016
7.56764
7.63271
7.73064
7.81603
7.88436
7.95507
8.03344
8.13362
8.20498
8.20212
8.10098
7.91837
7.67387
7.38064
7.07342
6.789
6.5747
6.47634
6.49784
6.58907
6.72272
6.88651
7.0503
7.18872
7.28778
7.34052
7.24252
7.03102
6.75798
6.51259
6.27307
6.07922
5.96288
5.93698
5.95592
5.99857
6.07062
6.17157
6.30748
6.51429
6.81193
7.13358
7.44303
7.77184
8.1218
8.49237
8.87424
9.25719
9.65064
10.1015
10.648
11.2624
11.8825
12.5014
13.2094
14.1263
15.4394
17.8871
21.6349
30.1633
30.1912
30.0819
29.3803
27.7891
25.6334
24.8664
25.3559
25.7008
25.7926
25.7825
25.7779
25.7065
25.4802
25.0808
24.5647
24.0845
23.7559
23.5702
23.4382
23.3338
23.3293
23.4188
23.5748
23.7482
23.7773
23.6224
23.3029
22.9303
22.5944
22.4344
22.4214
22.4436
22.471
22.5453
22.6862
22.8547
22.9966
23.0944
23.1506
23.1911
23.2389
23.2716
23.2762
23.278
23.3483
23.4548
23.5275
23.4639
23.2339
22.9443
22.6909
22.442
22.1745
21.9718
21.866
21.7916
21.6138
21.3147
20.8946
20.3784
19.8773
19.5586
19.4903
19.556
19.6236
19.6149
19.6008
19.6148
19.615
19.6373
19.707
19.7823
19.8222
19.8282
19.8344
19.8759
19.9648
20.0882
20.1991
20.2661
20.2883
20.3027
20.4038
20.584
20.8355
21.1515
21.3362
21.1551
20.3445
18.955
17.3891
16.2777
16.2144
17.0101
17.9909
18.7329
18.9386
18.8352
18.5824
18.414
18.3723
18.4597
18.6257
18.8552
19.1514
19.5176
19.8629
18.6087
17.5636
13.205
17.7489
19.4033
20.335
21.6934
22.8937
24.0551
25.1028
26.0006
26.7334
27.2909
27.6451
27.7486
27.541
26.9436
25.8562
24.1215
21.5628
17.9128
12.867
6.36756
-0.572446
-4.7929
-7.2511
-7.21557
-5.40393
-2.60156
-0.393592
0.812238
1.56238
2.18084
3.12384
4.24958
5.35013
6.33703
7.12236
7.73108
8.1344
8.3534
8.35215
8.14693
7.812
7.47799
7.49153
7.80958
8.3397
8.92106
9.45131
9.85067
10.0904
10.1505
10.0494
9.82054
9.5134
9.24407
9.06248
8.96394
8.89392
8.83875
8.81528
8.78605
8.68434
8.46847
8.16169
7.78565
7.47466
7.26786
7.22888
7.33468
7.48093
7.54619
7.50127
7.45652
7.47575
7.60189
7.75456
7.88455
7.98985
8.09304
8.20042
8.27467
8.31004
8.26429
8.10921
7.87795
7.60725
7.30733
6.99662
6.70894
6.49708
6.41331
6.47869
6.61592
6.77472
6.9324
7.07707
7.19161
7.2678
7.28594
7.21497
7.06568
6.86438
6.65492
6.40049
6.15333
5.95195
5.88853
5.91957
5.99506
6.10036
6.21972
6.33989
6.49749
6.72197
6.98379
7.25966
7.56945
7.88762
8.22201
8.54454
8.85139
9.16051
9.51172
9.92808
10.373
10.7621
11.0488
11.2626
11.4032
11.2809
10.9949
10.3043
29.2567
29.1895
28.9409
28.3465
27.373
26.2547
25.536
25.4978
26.0053
26.1139
26.0204
25.9512
25.8104
25.5515
25.1991
24.7759
24.3525
24.0031
23.6824
23.4156
23.1887
23.1129
23.2281
23.4211
23.6501
23.6487
23.5235
23.285
23.0126
22.7412
22.5829
22.5485
22.5482
22.5511
22.5782
22.6591
22.7852
22.9202
23.0336
23.1169
23.1696
23.2139
23.2432
23.2511
23.2623
23.3005
23.3721
23.4094
23.3373
23.1121
22.8097
22.5338
22.2927
22.0649
21.8976
21.8078
21.757
21.5427
21.207
20.7708
20.2775
19.8536
19.6274
19.6077
19.6497
19.6998
19.6261
19.5596
19.5594
19.5797
19.6175
19.6876
19.7577
19.7979
19.8228
19.8642
19.9388
20.0364
20.1205
20.193
20.257
20.2926
20.3219
20.4001
20.5464
20.7652
21.0034
21.163
20.9576
20.1456
18.785
17.2213
16.0994
16.0032
16.8398
17.9317
18.8091
18.9889
18.8923
18.7241
18.5316
18.4598
18.5107
18.6523
18.892
19.2394
19.6131
19.6384
18.7192
17.2685
16.5212
19.0097
19.7592
20.4762
21.4905
22.4055
23.2804
24.0925
24.8204
25.4393
25.9288
26.224
26.2664
25.9885
25.3288
24.2074
22.5501
20.2756
17.2936
13.5554
9.19277
4.79969
1.45102
-0.646576
-1.18928
-0.556277
0.686736
1.74317
2.27841
2.5342
3.1541
4.1171
5.18049
6.13957
6.9169
7.50456
7.95284
8.27287
8.46701
8.48153
8.28222
7.92163
7.70805
7.67398
7.92679
8.36813
8.83123
9.25238
9.61027
9.88059
10.0173
10.0097
9.86702
9.6337
9.39316
9.21133
9.07313
8.96051
8.84135
8.74473
8.65062
8.51542
8.30796
8.0402
7.79637
7.57966
7.45158
7.42806
7.4812
7.54136
7.51184
7.39545
7.30857
7.35097
7.50825
7.70795
7.8928
8.02437
8.14869
8.27071
8.36962
8.39617
8.29529
8.08465
7.81541
7.55935
7.29814
7.0254
6.73423
6.51476
6.44331
6.51386
6.66297
6.81617
6.95321
7.06647
7.15315
7.20986
7.22614
7.1891
7.09681
6.96043
6.79877
6.57279
6.2875
6.03035
5.93681
5.93368
6.01873
6.12338
6.22045
6.33018
6.45333
6.62296
6.83629
7.0778
7.34179
7.61581
7.89275
8.15046
8.38276
8.61004
8.86371
9.15365
9.43923
9.62799
9.64463
9.47849
9.11713
8.46006
6.9792
6.56892
28.453
28.3751
28.1296
27.6815
27.0566
26.3917
25.9139
25.7617
25.8505
25.9476
26.0729
25.988
25.824
25.5947
25.3605
25.044
24.6852
24.3268
23.9834
23.6293
23.3124
23.1366
23.1784
23.2877
23.3869
23.427
23.3941
23.2932
23.104
22.9575
22.8274
22.7409
22.7003
22.6755
22.67
22.7031
22.7742
22.8631
22.9429
23.0158
23.0566
23.0921
23.1163
23.126
23.1285
23.1595
23.1865
23.1905
23.1204
22.9373
22.6842
22.4091
22.1658
21.963
21.826
21.7551
21.655
21.4776
21.1591
20.75
20.3089
19.9654
19.8036
19.7938
19.8212
19.7892
19.7025
19.5856
19.5573
19.5652
19.6022
19.6638
19.7229
19.7654
19.8047
19.8642
19.9526
20.0629
20.1218
20.1667
20.2057
20.2411
20.2838
20.3608
20.4779
20.6113
20.7458
20.7998
20.5627
19.865
18.7355
17.5014
16.4889
16.362
17.0394
17.9557
18.5042
18.8281
18.861
18.7717
18.637
18.5656
18.5176
18.5622
18.7175
18.9983
19.3455
19.3193
18.6134
17.8232
17.9378
18.99
19.8871
20.653
21.3916
22.0458
22.6731
23.2803
23.87
24.3727
24.8014
25.026
24.9976
24.6442
23.9123
22.7565
21.1619
19.124
16.658
13.8278
10.7886
7.84944
5.43614
3.77922
2.9777
2.87636
3.17427
3.47748
3.56014
3.60765
4.08761
5.00344
6.01625
6.87364
7.49855
7.91415
8.20139
8.41039
8.54615
8.5689
8.44551
8.20883
7.9908
7.96427
8.113
8.40051
8.71645
9.04817
9.38309
9.6949
9.90739
9.98617
9.91729
9.73281
9.50354
9.30194
9.11327
8.95909
8.81546
8.68688
8.56082
8.41032
8.22354
8.01441
7.82373
7.67692
7.59372
7.57471
7.59316
7.59319
7.52363
7.38494
7.23659
7.27161
7.41402
7.6274
7.8319
7.9893
8.13785
8.28412
8.39292
8.39502
8.2482
7.9982
7.75192
7.50866
7.3215
7.11651
6.8772
6.6637
6.56127
6.59432
6.70291
6.81124
6.93594
7.03436
7.11236
7.16281
7.19333
7.1793
7.11977
7.01766
6.8811
6.68299
6.41986
6.19312
6.02135
5.99511
5.97536
6.11612
6.17469
6.27024
6.38171
6.52187
6.69384
6.89278
7.10538
7.32406
7.53302
7.72228
7.88709
8.04013
8.20569
8.38217
8.52697
8.55389
8.38267
7.97909
7.33532
6.39356
5.03173
3.29964
27.7912
27.7244
27.5247
27.1958
26.7717
26.3324
25.9822
25.7896
25.7193
25.7127
25.7333
25.7445
25.803
25.6043
25.5272
25.3001
24.9655
24.62
24.2714
23.902
23.5367
23.2628
23.1217
23.1242
23.1731
23.2607
23.3335
23.3362
23.3034
23.181
23.0508
22.9364
22.8484
22.7834
22.748
22.7494
22.775
22.8204
22.8535
22.887
22.9196
22.936
22.9403
22.9311
22.9227
22.9365
22.9544
22.9504
22.9048
22.7851
22.5926
22.3635
22.1145
21.9219
21.7756
21.6717
21.5654
21.4164
21.1547
20.8331
20.4917
20.2163
20.057
19.9881
19.9451
19.8768
19.8011
19.7126
19.6562
19.6402
19.6517
19.6832
19.7206
19.7553
19.7977
19.8614
19.9322
20.0142
20.0765
20.1056
20.1279
20.154
20.1895
20.2421
20.3055
20.3589
20.3852
20.3283
20.0683
19.543
18.7929
17.9751
17.3205
17.1722
17.5285
18.066
18.4523
18.6956
18.826
18.8345
18.7372
18.6285
18.5053
18.3602
18.358
18.6065
19.0639
19.4542
19.0525
18.8787
19.3336
20.0344
20.5887
20.9741
21.3116
21.6339
21.9969
22.415
22.8663
23.3513
23.7137
23.8978
23.8157
23.398
22.6068
21.4341
19.906
18.0768
16.0208
13.8386
11.6598
9.63817
7.93578
6.64502
5.79201
5.31597
5.10036
4.96483
4.78485
4.69074
5.01699
5.79647
6.68751
7.42442
7.93387
8.24129
8.4255
8.5434
8.61087
8.61343
8.53543
8.39535
8.26951
8.17189
8.27138
8.43688
8.61115
8.87494
9.14606
9.50061
9.78397
9.92144
9.89719
9.73663
9.49983
9.26823
9.07965
8.91164
8.76964
8.64519
8.52298
8.381
8.21802
8.04778
7.89026
7.7662
7.6855
7.6426
7.62824
7.59908
7.5336
7.43656
7.34018
7.31783
7.39702
7.55932
7.74713
7.90604
8.04618
8.17681
8.27255
8.25783
8.11408
7.88462
7.64817
7.49222
7.3624
7.21318
7.03563
6.8692
6.76462
6.73916
6.74862
6.78775
6.89659
6.9962
7.08717
7.15917
7.2002
7.19973
7.15709
7.06079
6.89322
6.6708
6.42683
6.1946
5.99551
5.84127
5.7902
5.89548
6.04806
6.17156
6.2945
6.4216
6.55418
6.70348
6.8616
7.02879
7.17024
7.29311
7.39369
7.48275
7.56838
7.64243
7.65698
7.55191
7.26603
6.73448
5.98297
4.95582
3.5965
1.96737
27.2538
27.2013
27.0462
26.8016
26.4963
26.1761
25.8929
25.6781
25.5274
25.4173
25.3485
25.3893
25.7495
26.2248
25.8944
25.4479
25.0558
24.7195
24.3596
23.9518
23.5503
23.2421
23.0401
23.0239
23.112
23.2643
23.4034
23.4667
23.4313
23.326
23.1927
23.0605
22.9406
22.8419
22.7763
22.7521
22.7579
22.7654
22.7814
22.7938
22.8059
22.8074
22.7915
22.762
22.7453
22.7612
22.7877
22.7849
22.7799
22.653
22.5163
22.3266
22.1285
21.9582
21.8042
21.6673
21.5423
21.3754
21.1504
20.9307
20.6821
20.4753
20.306
20.1826
20.0855
19.9936
19.9196
19.8412
19.7823
19.7493
19.7395
19.746
19.7612
19.7816
19.8121
19.8602
19.9223
19.9972
20.0257
20.0367
20.0355
20.042
20.0468
20.0501
20.0433
20.0119
19.9479
19.819
19.5885
19.2601
18.8623
18.4637
18.1152
17.9772
18.0981
18.3165
18.5325
18.7738
18.9583
18.9678
18.8899
18.691
18.4901
18.2664
18.1248
18.4553
19.0708
19.5711
19.8732
20.1923
20.779
21.121
21.1784
21.0276
20.9345
20.9393
21.0807
21.3726
21.7775
22.2148
22.5963
22.7807
22.6742
22.2274
21.4187
20.2733
18.8483
17.2265
15.5072
13.7953
12.1867
10.7556
9.54331
8.54081
7.73532
7.12004
6.66279
6.35196
6.03046
5.83194
5.97361
6.5198
7.21159
7.80652
8.22187
8.46609
8.5977
8.65936
8.67387
8.64393
8.57304
8.4834
8.40173
8.33541
8.34053
8.49297
8.45654
8.62857
8.95639
9.30131
9.60826
9.77711
9.78019
9.63889
9.39975
9.15994
8.98709
8.84979
8.72842
8.61777
8.517
8.38812
8.24124
8.10371
7.96606
7.84754
7.75658
7.69117
7.63854
7.59926
7.54911
7.50034
7.43583
7.40263
7.46946
7.57093
7.69311
7.81188
7.91152
7.98001
8.02169
7.99228
7.88042
7.75897
7.58137
7.53863
7.42394
7.26218
7.11301
7.00877
6.93874
6.85279
6.78772
6.77561
6.85141
6.98034
7.10354
7.19282
7.24136
7.24482
7.20611
7.09169
6.87985
6.62396
6.36074
6.09786
5.84108
5.6683
5.65651
5.78223
5.94016
6.08314
6.19877
6.3262
6.41837
6.52485
6.62032
6.75609
6.82918
6.89587
6.94589
6.97452
6.98315
6.97463
6.88333
6.68192
6.30661
5.76015
4.99004
3.99672
2.7613
1.30088
26.8178
26.7748
26.6547
26.468
26.2346
25.9818
25.7355
25.5092
25.2959
25.0791
24.8588
24.7386
25.1772
25.8537
25.6844
25.3164
24.9467
24.6021
24.2253
23.8093
23.438
23.1498
22.9552
23.04
23.1954
23.4058
23.5078
23.5559
23.4967
23.3776
23.2361
23.0965
22.966
22.8528
22.7649
22.7309
22.7101
22.7116
22.7187
22.7244
22.727
22.7211
22.6981
22.6635
22.6471
22.6732
22.6842
22.6943
22.6536
22.5531
22.4143
22.2483
22.0803
21.9314
21.8244
21.7625
21.6038
21.3845
21.1596
20.9764
20.8242
20.6448
20.4807
20.3381
20.2155
20.1086
20.0202
19.9436
19.8823
19.8416
19.8202
19.8132
19.8139
19.8201
19.8341
19.8612
19.9
19.9291
19.9702
19.9721