/*--------------------------------*- C++ -*----------------------------------*\
  =========                 |
  \\      /  F ield         | OpenFOAM: The Open Source CFD Toolbox
   \\    /   O peration     | Website:  https://openfoam.org
    \\  /    A nd           | Version:  7
     \\/     M anipulation  |
\*---------------------------------------------------------------------------*/
FoamFile
{
    version     2.0;
    format      ascii;
    class       surfaceScalarField;
    location    "250";
    object      phi;
}
// * * * * * * * * * * * * * * * * * * * * * * * * * * * * * * * * * * * * * //

dimensions      [0 3 -1 0 0 0 0];

internalField   nonuniform List<scalar> 
240592
(
2.06295e-11
-2.92607e-13
-2.03369e-11
-3.93068e-11
5.56783e-11
1.14974e-11
-2.78686e-11
-6.83282e-11
7.80891e-11
7.65597e-12
-1.74171e-11
8.82974e-11
3.16654e-12
-7.09746e-12
-8.43668e-11
-9.1062e-11
9.41009e-11
2.26337e-12
-5.30257e-12
-9.79789e-11
1.0279e-10
3.66591e-12
-8.47708e-12
-1.08018e-10
1.12863e-10
3.92877e-12
-8.77394e-12
-1.16419e-10
1.18502e-10
1.47174e-12
-3.5545e-12
-1.18288e-10
1.15834e-10
-1.17591e-12
3.63014e-12
-1.12777e-10
1.10046e-10
-2.22382e-12
4.95404e-12
-1.08431e-10
1.08232e-10
-1.13587e-13
3.12723e-13
-1.09397e-10
1.11708e-10
1.77816e-12
-4.08867e-12
-1.14449e-10
1.17188e-10
2.46201e-12
-5.1996e-12
1.21631e-10
8.59824e-13
-2.92519e-12
-1.19566e-10
-1.22439e-10
1.21879e-10
-4.01076e-13
9.60712e-13
-1.20427e-10
1.18218e-10
-1.95156e-12
4.16074e-12
-1.15305e-10
1.11247e-10
-2.65689e-12
6.71521e-12
-1.05746e-10
9.83913e-11
-4.50964e-12
1.18644e-11
-8.90358e-11
7.81993e-11
-7.04164e-12
1.78782e-11
-6.6836e-11
5.60011e-11
-7.85812e-12
1.86929e-11
-4.58453e-11
3.66558e-11
-8.2256e-12
1.74153e-11
-2.62897e-11
1.43387e-11
-7.97919e-12
1.99309e-11
3.86862e-11
2.8028e-11
-1.30501e-11
-5.36637e-11
6.27723e-11
-6.40276e-11
9.55819e-11
5.85535e-13
-9.49107e-11
3.88596e-11
-1.21209e-10
1.41529e-10
1.16039e-12
-6.03395e-11
1.69258e-11
-1.56794e-10
1.68305e-10
1.01562e-12
-2.9453e-11
1.28232e-11
-1.77611e-10
1.86876e-10
9.21208e-13
-2.30095e-11
1.96686e-11
-1.9703e-10
2.08648e-10
9.74449e-13
-3.22611e-11
1.96251e-11
-2.20436e-10
2.31083e-10
9.0847e-13
-3.11805e-11
7.65333e-12
-2.39102e-10
2.4408e-10
6.99123e-13
-1.33314e-11
-6.27851e-12
-2.46104e-10
2.46148e-10
5.19952e-13
5.71375e-12
-9.2444e-12
-2.4467e-10
2.4262e-10
4.50512e-13
1.08435e-11
-4.85718e-13
-2.40795e-10
2.39683e-10
4.8537e-13
1.11331e-12
8.22385e-12
-2.39339e-10
2.39479e-10
5.0466e-13
-8.86825e-12
9.76304e-12
-2.39302e-10
2.38619e-10
4.95452e-13
-9.57402e-12
5.24901e-12
-2.37081e-10
2.34852e-10
4.08499e-13
-3.42725e-12
-1.54861e-12
-2.31831e-10
2.27902e-10
3.04012e-13
5.17564e-12
-7.80283e-12
-2.22872e-10
2.17357e-10
2.78208e-13
1.30407e-11
-1.34038e-11
-2.11154e-10
2.04192e-10
3.35961e-13
2.00291e-11
-2.45651e-11
-1.95415e-10
1.84065e-10
3.18093e-13
3.55952e-11
-3.7704e-11
-1.69858e-10
1.52851e-10
1.01104e-13
5.46075e-11
-4.03714e-11
-1.33276e-10
1.12246e-10
-1.71288e-14
6.14173e-11
-3.85562e-11
-9.03911e-11
6.78932e-11
1.90224e-14
6.10361e-11
-4.40096e-11
1.82734e-11
1.96793e-12
6.73819e-11
-4.36115e-11
6.79719e-11
2.66289e-11
-1.26039e-11
-8.19965e-11
-5.75419e-11
1.23752e-10
8.48324e-11
1.4216e-14
-1.51056e-10
8.23907e-11
-1.09261e-10
1.31461e-10
6.97238e-13
-1.05287e-10
4.5967e-11
-1.51642e-10
1.70471e-10
7.47693e-13
-6.55436e-11
3.71104e-11
-1.87676e-10
2.03694e-10
7.53198e-13
-5.38806e-11
4.63978e-11
-2.18432e-10
2.32491e-10
6.96487e-13
-6.11528e-11
4.34802e-11
-2.45511e-10
2.57434e-10
6.33893e-13
-5.60377e-11
2.12844e-11
-2.6792e-10
2.77159e-10
5.80395e-13
-3.1104e-11
-1.35494e-12
-2.85018e-10
2.91872e-10
5.62283e-13
-6.06086e-12
-8.92343e-12
-2.97238e-10
3.00893e-10
5.08797e-13
4.76058e-12
-1.64101e-12
-3.02224e-10
3.01335e-10
4.40117e-13
2.08975e-12
6.12492e-12
-2.98199e-10
2.93246e-10
3.60865e-13
-1.53214e-12
4.85022e-12
-2.86513e-10
2.78545e-10
2.91052e-13
2.82724e-12
-2.53407e-12
-2.69485e-10
2.59953e-10
2.35512e-13
1.18311e-11
-1.19097e-11
-2.50141e-10
2.40577e-10
2.00365e-13
2.12745e-11
-1.99371e-11
-2.31274e-10
2.22331e-10
1.97878e-13
2.86829e-11
-2.7495e-11
-2.1329e-10
2.03955e-10
2.39714e-13
3.65902e-11
-4.56475e-11
-1.93844e-10
1.82735e-10
2.80945e-13
5.64752e-11
-6.97528e-11
-1.70096e-10
1.55325e-10
2.69947e-13
8.42534e-11
-8.18586e-11
-1.37838e-10
1.17701e-10
2.24127e-13
1.01771e-10
-8.46167e-11
-9.52426e-11
7.10531e-11
2.6054e-13
1.08546e-10
-8.98814e-11
2.0291e-11
2.51152e-12
1.12936e-10
-4.58561e-11
9.60619e-11
2.63843e-11
-1.23708e-11
-1.10075e-10
-5.63574e-11
1.78389e-10
8.37661e-11
9.89775e-14
-2.05896e-10
1.29557e-10
-1.095e-10
1.34302e-10
7.05698e-13
-1.55065e-10
8.7767e-11
-1.58301e-10
1.8141e-10
7.39586e-13
-1.11616e-10
7.27493e-11
-2.02773e-10
2.21971e-10
7.29937e-13
-9.26777e-11
7.63362e-11
-2.3866e-10
2.53211e-10
6.69916e-13
-9.15562e-11
6.87955e-11
-2.65907e-10
2.781e-10
6.17521e-13
-8.16058e-11
4.27117e-11
-2.90108e-10
3.02337e-10
6.02935e-13
-5.55441e-11
1.59956e-11
-3.14126e-10
3.25084e-10
6.00845e-13
-2.75546e-11
1.21225e-12
-3.34053e-10
3.40541e-10
5.53204e-13
-8.25356e-12
-1.82001e-12
-3.43898e-10
3.44456e-10
4.72689e-13
7.89719e-13
-3.24727e-12
-3.42263e-10
3.3777e-10
3.76819e-13
7.36317e-12
-1.16897e-11
-3.30815e-10
3.2164e-10
2.98779e-13
2.05671e-11
-2.31059e-11
-3.10376e-10
2.97767e-10
2.56861e-13
3.54585e-11
-3.24169e-11
-2.84554e-10
2.71626e-10
2.19252e-13
4.51258e-11
-3.89478e-11
-2.59116e-10
2.46794e-10
1.78114e-13
5.10913e-11
-4.77246e-11
-2.33881e-10
2.2009e-10
1.05816e-13
6.14099e-11
-6.91609e-11
-2.05334e-10
1.89981e-10
6.01581e-14
8.44539e-11
-9.94168e-11
-1.73938e-10
1.57173e-10
6.10384e-14
1.16122e-10
-1.21132e-10
-1.39277e-10
1.1984e-10
9.93237e-14
1.4047e-10
-1.32009e-10
-9.8553e-11
7.53256e-11
1.70972e-13
1.55065e-10
-1.36595e-10
2.3175e-11
2.81039e-12
1.60814e-10
-5.02045e-11
1.23941e-10
2.5279e-11
-1.17232e-11
-1.37496e-10
-5.47179e-11
2.34031e-10
8.28082e-11
1.20183e-13
-2.62241e-10
1.82101e-10
-1.1022e-10
1.37776e-10
7.05907e-13
-2.10363e-10
1.37017e-10
-1.64749e-10
1.90593e-10
6.96806e-13
-1.63557e-10
1.13819e-10
-2.14349e-10
2.35859e-10
6.69163e-13
-1.35997e-10
1.07461e-10
-2.54569e-10
2.70955e-10
6.3628e-13
-1.24484e-10
9.51775e-11
-2.85454e-10
2.99466e-10
6.12143e-13
-1.09803e-10
6.97329e-11
-3.13363e-10
3.27892e-10
6.17572e-13
-8.48795e-11
4.06357e-11
-3.42306e-10
3.55658e-10
6.10513e-13
-5.45988e-11
1.63656e-11
-3.66635e-10
3.74814e-10
5.59786e-13
-2.51042e-11
1.39324e-12
-3.79948e-10
3.82545e-10
4.70432e-13
-4.46086e-12
-1.01039e-11
-3.82745e-10
3.80911e-10
3.54708e-13
1.15836e-11
-2.84879e-11
-3.76603e-10
3.69599e-10
2.53862e-13
3.5238e-11
-4.8073e-11
-3.59562e-10
3.46968e-10
1.96373e-13
6.04708e-11
-5.90759e-11
-3.32561e-10
3.17168e-10
1.61497e-13
7.43078e-11
-6.53641e-11
-3.01073e-10
2.84097e-10
1.15344e-13
8.22243e-11
-7.77701e-11
-2.659e-10
2.46642e-10
5.362e-15
9.70229e-11
-1.02389e-10
-2.26675e-10
2.06592e-10
-8.80751e-14
1.22561e-10
-1.34561e-10
-1.86656e-10
1.66787e-10
-1.41651e-13
1.54573e-10
-1.60381e-10
-1.46638e-10
1.2553e-10
-2.43288e-14
1.81514e-10
-1.77985e-10
-1.03018e-10
7.90012e-11
4.1066e-14
2.0196e-10
-1.85528e-10
2.46278e-11
3.01483e-12
2.10938e-10
-5.30543e-11
1.5084e-10
2.48686e-11
-1.15542e-11
-1.64155e-10
-5.37198e-11
2.90878e-10
8.21983e-11
9.045e-14
-3.19447e-10
2.40032e-10
-1.11324e-10
1.411e-10
6.60838e-13
-2.70468e-10
1.91387e-10
-1.70299e-10
1.98323e-10
6.29939e-13
-2.2004e-10
1.59711e-10
-2.2455e-10
2.49237e-10
6.07743e-13
-1.85005e-10
1.43685e-10
-2.72054e-10
2.93294e-10
6.05118e-13
-1.65531e-10
1.26351e-10
-3.12653e-10
3.30728e-10
5.96682e-13
-1.45023e-10
1.01392e-10
-3.47843e-10
3.64719e-10
5.79893e-13
-1.18849e-10
6.94273e-11
-3.80722e-10
3.95219e-10
5.60447e-13
-8.44851e-11
3.43771e-11
-4.06858e-10
4.15408e-10
5.20827e-13
-4.3449e-11
8.26868e-12
-4.2096e-10
4.24431e-10
4.34708e-13
-1.21736e-11
-1.17387e-11
-4.26195e-10
4.26593e-10
3.07358e-13
1.10346e-11
-4.04143e-11
-4.25107e-10
4.21188e-10
1.76639e-13
4.41577e-11
-7.21607e-11
-4.14016e-10
4.03345e-10
9.4711e-14
8.27375e-11
-9.04938e-11
-3.89232e-10
3.71993e-10
5.97129e-14
1.07673e-10
-1.01994e-10
-3.52066e-10
3.29811e-10
3.2271e-14
1.24217e-10
-1.19098e-10
-3.05908e-10
2.81275e-10
-7.21204e-14
1.43803e-10
-1.44376e-10
-2.5691e-10
2.33589e-10
-1.83686e-13
1.6788e-10
-1.75327e-10
-2.11405e-10
1.90038e-10
-8.51874e-14
1.9678e-10
-2.03858e-10
-1.68325e-10
1.4522e-10
-2.09802e-13
2.27173e-10
-2.27937e-10
-1.19667e-10
9.15139e-11
-8.1177e-14
2.56171e-10
-2.37792e-10
2.83632e-11
3.50696e-12
2.67071e-10
-6.11506e-11
1.77543e-10
2.58331e-11
-1.20883e-11
-1.91288e-10
-5.58607e-11
3.48715e-10
8.56432e-11
-1.48676e-14
-3.78482e-10
3.01643e-10
-1.1585e-10
1.46593e-10
5.83798e-13
-3.3297e-10
2.49629e-10
-1.76852e-10
2.06511e-10
5.68873e-13
-2.79857e-10
2.1236e-10
-2.35409e-10
2.64109e-10
5.52816e-13
-2.41613e-10
1.90673e-10
-2.92359e-10
3.19898e-10
5.53483e-13
-2.18766e-10
1.66599e-10
-3.45581e-10
3.69214e-10
5.45335e-13
-1.90777e-10
1.37604e-10
-3.90442e-10
4.09574e-10
5.19151e-13
-1.57255e-10
9.94592e-11
-4.26146e-10
4.39889e-10
4.64504e-13
-1.13666e-10
5.18831e-11
-4.50051e-10
4.56953e-10
4.21519e-13
-5.92065e-11
1.59723e-11
-4.61337e-10
4.64424e-10
3.43555e-13
-1.94028e-11
-9.55863e-12
-4.66712e-10
4.68286e-10
2.30253e-13
7.75484e-12
-4.65595e-11
-4.685e-10
4.66736e-10
1.19135e-13
4.82052e-11
-9.19478e-11
-4.62211e-10
4.54181e-10
3.29673e-14
9.99451e-11
-1.25022e-10
-4.42092e-10
4.25783e-10
-2.4332e-14
1.41354e-10
-1.48028e-10
-4.05263e-10
3.81308e-10
-7.56862e-14
1.72059e-10
-1.70935e-10
-3.54298e-10
3.25265e-10
-1.54596e-13
2.00122e-10
-1.9381e-10
-2.95436e-10
2.6608e-10
-2.49135e-13
2.23415e-10
-2.19793e-10
-2.38308e-10
2.12575e-10
-3.05597e-13
2.45832e-10
-2.51251e-10
-1.88185e-10
1.63366e-10
-3.1849e-13
2.76389e-10
-2.8619e-10
-1.36166e-10
1.05418e-10
-2.37774e-13
3.17175e-10
-2.98999e-10
3.28316e-11
4.14105e-12
3.33e-10
-7.09751e-11
2.05502e-10
2.80249e-11
-1.33343e-11
-2.20192e-10
-5.99932e-11
4.09083e-10
9.12358e-11
-1.17362e-13
-4.40207e-10
3.64874e-10
-1.22702e-10
1.5487e-10
4.87986e-13
-3.97529e-10
3.11342e-10
-1.87252e-10
2.19981e-10
4.72371e-13
-3.44543e-10
2.73106e-10
-2.52788e-10
2.85883e-10
4.61658e-13
-3.06662e-10
2.49521e-10
-3.18644e-10
3.50551e-10
4.65456e-13
-2.81894e-10
2.17334e-10
-3.80435e-10
4.07756e-10
4.65704e-13
-2.45119e-10
1.77754e-10
-4.31599e-10
4.51818e-10
4.14255e-13
-1.98387e-10
1.27242e-10
-4.68085e-10
4.80812e-10
3.22353e-13
-1.40291e-10
6.60613e-11
-4.902e-10
4.97152e-10
2.63097e-13
-7.32762e-11
2.29234e-11
-5.02214e-10
5.06013e-10
2.07692e-13
-2.69308e-11
-5.95501e-12
-5.08548e-10
5.09706e-10
1.38393e-13
4.65863e-12
-4.96331e-11
-5.09274e-10
5.0717e-10
7.15518e-14
5.16652e-11
-1.06936e-10
-5.02988e-10
4.96201e-10
-7.09697e-15
1.13729e-10
-1.56349e-10
-4.86285e-10
4.72598e-10
-1.0242e-13
1.70137e-10
-1.95472e-10
-4.54979e-10
4.33048e-10
-2.21676e-13
2.17624e-10
-2.30922e-10
-4.06849e-10
3.75703e-10
-2.69814e-13
2.62337e-10
-2.57568e-10
-3.40345e-10
3.0238e-10
-3.31958e-13
2.95866e-10
-2.76508e-10
-2.64407e-10
2.28584e-10
-4.07072e-13
3.12738e-10
-3.03639e-10
-1.95922e-10
1.65466e-10
-4.76197e-13
3.34571e-10
-3.48613e-10
-1.35504e-10
1.04113e-10
-4.16421e-13
3.8042e-10
-3.67552e-10
3.28981e-11
3.78732e-12
4.01095e-10
-7.02289e-11
2.35391e-10
3.04437e-11
-1.45839e-11
-2.5125e-10
-6.49712e-11
4.72412e-10
9.86159e-11
-2.66318e-13
-5.05789e-10
4.31882e-10
-1.32905e-10
1.68759e-10
3.86042e-13
-4.68121e-10
3.80364e-10
-2.05867e-10
2.43983e-10
3.59681e-13
-4.18839e-10
3.4249e-10
-2.82145e-10
3.19635e-10
3.57159e-13
-3.80338e-10
3.15407e-10
-3.5548e-10
3.89288e-10
3.55908e-13
-3.49571e-10
2.73486e-10
-4.20401e-10
4.48399e-10
3.5131e-13
-3.01836e-10
2.19065e-10
-4.7257e-10
4.92841e-10
2.86544e-13
-2.39622e-10
1.53655e-10
-5.09414e-10
5.23266e-10
1.72302e-13
-1.67678e-10
8.20199e-11
-5.35178e-10
5.45618e-10
8.70247e-14
-9.25467e-11
3.19705e-11
-5.54128e-10
5.60105e-10
6.42853e-14
-3.80115e-11
-4.02175e-12
-5.62982e-10
5.62822e-10
5.42203e-14
4.12697e-12
-5.49856e-11
-5.60043e-10
5.55142e-10
2.12059e-14
5.98647e-11
-1.21224e-10
-5.48377e-10
5.39518e-10
-2.66868e-14
1.30108e-10
-1.83515e-10
-5.28567e-10
5.14869e-10
-2.01037e-13
1.97412e-10
-2.38733e-10
-4.97826e-10
4.77062e-10
-3.26521e-13
2.59822e-10
-2.93797e-10
-4.51867e-10
4.21316e-10
-4.25605e-13
3.24774e-10
-3.36763e-10
-3.85278e-10
3.4445e-10
-4.61606e-13
3.78053e-10
-3.54312e-10
-3.00772e-10
2.56018e-10
-5.53422e-13
3.9962e-10
-3.70755e-10
-2.12546e-10
1.71608e-10
-6.20117e-13
4.12313e-10
-4.13716e-10
-1.33664e-10
9.83094e-11
-5.73044e-13
4.49642e-10
-4.33314e-10
2.98645e-11
3.25688e-12
4.647e-10
-6.45077e-11
2.68099e-10
3.45319e-11
-1.62929e-11
-2.86338e-10
-7.4101e-11
5.41142e-10
1.12253e-10
-4.82586e-13
-5.78811e-10
5.0675e-10
-1.51033e-10
1.9172e-10
2.90401e-13
-5.47727e-10
4.60135e-10
-2.33943e-10
2.77256e-10
2.63382e-13
-5.0371e-10
4.20342e-10
-3.20326e-10
3.62033e-10
2.29511e-13
-4.62279e-10
3.84719e-10
-4.01267e-10
4.37539e-10
1.99937e-13
-4.2119e-10
3.3046e-10
-4.70383e-10
4.99546e-10
1.74276e-13
-3.59797e-10
2.60483e-10
-5.2468e-10
5.46034e-10
1.16754e-13
-2.81954e-10
1.8284e-10
-5.64231e-10
5.80464e-10
1.9666e-14
-1.99092e-10
1.04802e-10
-5.95287e-10
6.08626e-10
-6.73128e-14
-1.18073e-10
4.48036e-11
-6.19401e-10
6.26526e-10
-8.30325e-14
-5.18451e-11
-4.88844e-12
-6.29504e-10
6.28535e-10
-4.76243e-14
5.90413e-12
-6.61824e-11
-6.24315e-10
6.17219e-10
-5.66648e-14
7.33335e-11
-1.40672e-10
-6.07645e-10
5.95482e-10
-1.28185e-13
1.52961e-10
-2.13285e-10
-5.80586e-10
5.62473e-10
-2.74767e-13
2.31672e-10
-2.823e-10
-5.41247e-10
5.16756e-10
-4.42589e-13
3.07234e-10
-3.55706e-10
-4.89122e-10
4.58047e-10
-5.49161e-13
3.8733e-10
-4.18466e-10
-4.23478e-10
3.84908e-10
-6.05295e-13
4.57641e-10
-4.46573e-10
-3.4238e-10
2.95979e-10
-6.59494e-13
4.93634e-10
-4.59059e-10
-2.47219e-10
1.97754e-10
-7.5966e-13
5.09283e-10
-4.89544e-10
-1.50686e-10
1.07443e-10
-6.78844e-13
5.33466e-10
-4.96711e-10
3.12102e-11
3.37818e-12
5.30786e-10
-6.86631e-11
3.06244e-10
4.04408e-11
-1.85635e-11
-3.28121e-10
-8.75597e-11
6.19683e-10
1.32827e-10
-7.74524e-13
-6.64175e-10
5.91395e-10
-1.78095e-10
2.24432e-10
1.90714e-13
-6.37923e-10
5.49594e-10
-2.71771e-10
3.19652e-10
1.74689e-13
-5.97649e-10
5.06308e-10
-3.67018e-10
4.12887e-10
9.97056e-14
-5.52277e-10
4.59425e-10
-4.56116e-10
4.9603e-10
3.17525e-14
-4.9937e-10
3.90337e-10
-5.32061e-10
5.64072e-10
-4.54706e-14
-4.22302e-10
3.0458e-10
-5.92051e-10
6.16385e-10
-1.06701e-13
-3.28808e-10
2.16573e-10
-6.37738e-10
6.56737e-10
-1.509e-13
-2.35422e-10
1.31895e-10
-6.73601e-10
6.87947e-10
-2.03676e-13
-1.46037e-10
5.88322e-11
-6.98954e-10
7.06025e-10
-2.32945e-13
-6.56699e-11
-6.92225e-12
-7.09085e-10
7.08508e-10
-2.10798e-13
7.70933e-12
-8.08818e-11
-7.04656e-10
6.97358e-10
-2.06627e-13
8.83847e-11
-1.67023e-10
-6.86391e-10
6.71062e-10
-2.81791e-13
1.82631e-10
-2.53199e-10
-6.51286e-10
6.26927e-10
-4.24587e-13
2.77982e-10
-3.3559e-10
-5.98729e-10
5.67317e-10
-5.69657e-13
3.67571e-10
-4.20838e-10
-5.33787e-10
4.98557e-10
-6.61048e-13
4.56728e-10
-4.96587e-10
-4.61913e-10
4.23118e-10
-7.45411e-13
5.36127e-10
-5.40593e-10
-3.81358e-10
3.35491e-10
-8.26227e-13
5.87285e-10
-5.61661e-10
-2.85854e-10
2.33593e-10
-8.5936e-13
6.14781e-10
-5.81244e-10
-1.81501e-10
1.31545e-10
-7.37175e-13
6.31937e-10
-5.68117e-10
3.87823e-11
4.39713e-12
6.09712e-10
-8.47736e-11
3.52246e-10
4.81738e-11
-2.15596e-11
-3.7886e-10
-1.05176e-10
7.12791e-10
1.59577e-10
-1.1495e-12
-7.66044e-10
6.87914e-10
-2.13207e-10
2.67011e-10
5.448e-14
-7.41773e-10
6.48277e-10
-3.20867e-10
3.74229e-10
5.5594e-14
-7.01695e-10
6.00211e-10
-4.26285e-10
4.76102e-10
-1.7678e-14
-6.5001e-10
5.40902e-10
-5.22806e-10
5.65902e-10
-1.17921e-13
-5.8388e-10
4.55939e-10
-6.05241e-10
6.40985e-10
-2.44676e-13
-4.91439e-10
3.55111e-10
-6.73349e-10
7.02395e-10
-3.22136e-13
-3.83834e-10
2.55836e-10
-7.28241e-10
7.50751e-10
-3.5004e-13
-2.77996e-10
1.60543e-10
-7.69951e-10
7.85459e-10
-3.80706e-13
-1.7567e-10
7.25369e-11
-7.97135e-10
8.04796e-10
-4.23144e-13
-7.97748e-11
-8.14269e-12
-8.08804e-10
8.09262e-10
-4.22487e-13
8.10662e-12
-9.60129e-11
-8.06164e-10
7.98645e-10
-4.1739e-13
1.03948e-10
-2.0023e-10
-7.858e-10
7.66682e-10
-4.89122e-13
2.19836e-10
-3.06358e-10
-7.41365e-10
7.10398e-10
-6.03477e-13
3.37928e-10
-4.03285e-10
-6.75236e-10
6.37158e-10
-6.96629e-13
4.4206e-10
-4.95485e-10
-5.97639e-10
5.57135e-10
-7.87016e-13
5.36776e-10
-5.775e-10
-5.15987e-10
4.7325e-10
-8.72812e-13
6.2111e-10
-6.34884e-10
-4.2843e-10
3.80174e-10
-9.18563e-13
6.84058e-10
-6.68964e-10
-3.28731e-10
2.74284e-10
-9.01935e-13
7.24312e-10
-6.85703e-10
-2.18802e-10
1.63121e-10
-7.83167e-13
7.42166e-10
-6.56457e-10
4.9608e-11
5.80684e-12
7.08511e-10
-1.07468e-10
4.08029e-10
5.69085e-11
-2.51916e-11
-4.39746e-10
-1.25144e-10
8.24316e-10
1.90126e-10
-1.53816e-12
-8.87761e-10
7.99924e-10
-2.53848e-10
3.16759e-10
-9.34793e-14
-8.62742e-10
7.58186e-10
-3.78517e-10
4.38377e-10
-7.97681e-14
-8.17965e-10
7.01861e-10
-4.95751e-10
5.50085e-10
-1.31669e-13
-7.56064e-10
6.28673e-10
-6.01029e-10
6.48587e-10
-2.39131e-13
-6.75993e-10
5.29308e-10
-6.92844e-10
7.34165e-10
-3.828e-13
-5.70246e-10
4.15275e-10
-7.72527e-10
8.07658e-10
-4.75798e-13
-4.4993e-10
3.02065e-10
-8.38921e-10
8.65895e-10
-5.23815e-13
-3.28515e-10
1.91687e-10
-8.8837e-10
9.06312e-10
-5.71103e-13
-2.09058e-10
8.76114e-11
-9.1988e-10
9.29065e-10
-6.12383e-13
-9.61837e-11
-8.0356e-12
-9.34004e-10
9.34251e-10
-6.30104e-13
8.41854e-12
-1.13234e-10
-9.29522e-10
9.18779e-10
-6.63274e-13
1.2464e-10
-2.4207e-10
-9.01665e-10
8.7751e-10
-7.19606e-13
2.66945e-10
-3.72533e-10
-8.47135e-10
8.11224e-10
-7.81129e-13
4.09225e-10
-4.8355e-10
-7.7166e-10
7.29295e-10
-8.20661e-13
5.26735e-10
-5.80776e-10
-6.85383e-10
6.39853e-10
-9.06424e-13
6.27211e-10
-6.67969e-10
-5.92807e-10
5.43265e-10
-9.84467e-13
7.18495e-10
-7.36329e-10
-4.91087e-10
4.35746e-10
-9.96959e-13
7.92666e-10
-7.82131e-10
-3.77874e-10
3.17713e-10
-9.90982e-13
8.43281e-10
-8.02062e-10
-2.5654e-10
1.94066e-10
-8.79117e-13
8.65415e-10
-7.65977e-10
6.02032e-11
7.1243e-12
8.28196e-10
-1.29545e-10
4.73981e-10
6.61963e-11
-2.95218e-11
-5.10656e-10
-1.45011e-10
9.56465e-10
2.20557e-10
-2.00596e-12
-1.03001e-09
9.302e-10
-2.94525e-10
3.66954e-10
-2.89381e-13
-1.00234e-09
8.81119e-10
-4.37287e-10
5.04695e-10
-2.36579e-13
-9.48291e-10
8.13117e-10
-5.69058e-10
6.30275e-10
-2.78524e-13
-8.74056e-10
7.26653e-10
-6.88603e-10
7.43994e-10
-3.88992e-13
-7.81656e-10
6.14924e-10
-7.96564e-10
8.4614e-10
-5.0418e-13
-6.63998e-10
4.87977e-10
-8.92589e-10
9.34987e-10
-6.02703e-13
-5.29772e-10
3.57355e-10
-9.72771e-10
1.00501e-09
-6.75981e-13
-3.8892e-10
2.27707e-10
-1.0317e-09
1.05259e-09
-7.40507e-13
-2.47862e-10
1.05076e-10
-1.06808e-09
1.07785e-09
-7.89363e-13
-1.1405e-10
-1.02493e-11
-1.08161e-09
1.07868e-09
-8.55287e-13
1.40316e-11
-1.39175e-10
-1.06883e-09
1.05204e-09
-9.18947e-13
1.56883e-10
-2.94523e-10
-1.02909e-09
1.00062e-09
-9.2866e-13
3.23928e-10
-4.47221e-10
-9.67541e-10
9.30324e-10
-9.2597e-13
4.85364e-10
-5.71404e-10
-8.89433e-10
8.44685e-10
-9.54458e-13
6.17106e-10
-6.76918e-10
-7.96348e-10
7.44043e-10
-1.01654e-12
7.30239e-10
-7.74142e-10
-6.88019e-10
6.27964e-10
-1.07496e-12
8.35271e-10
-8.54625e-10
-5.64579e-10
4.97988e-10
-1.09801e-12
9.22313e-10
-9.09164e-10
-4.29541e-10
3.59881e-10
-1.12161e-12
9.79945e-10
-9.32947e-10
-2.90036e-10
2.1948e-10
-9.81276e-13
1.00448e-09
-8.94636e-10
6.81548e-11
8.09717e-12
9.64963e-10
-1.46578e-10
5.49505e-10
7.50692e-11
-3.39686e-11
-5.90605e-10
-1.63995e-10
1.10822e-09
2.49037e-10
-2.3663e-12
-1.1909e-09
1.07906e-09
-3.32571e-10
4.14775e-10
-5.17344e-13
-1.16075e-09
1.02006e-09
-4.95174e-10
5.72858e-10
-4.54631e-13
-1.09729e-09
9.39847e-10
-6.47971e-10
7.20139e-10
-4.82529e-13
-1.01153e-09
8.41678e-10
-7.89641e-10
8.55894e-10
-5.6068e-13
-9.07372e-10
7.17756e-10
-9.18932e-10
9.78183e-10
-6.31064e-13
-7.76376e-10
5.75345e-10
-1.03329e-09
1.08339e-09
-7.17501e-13
-6.24727e-10
4.23245e-10
-1.12793e-09
1.16592e-09
-8.0595e-13
-4.60434e-10
2.69301e-10
-1.19701e-09
1.22069e-09
-8.91344e-13
-2.92084e-10
1.2236e-10
-1.23717e-09
1.24591e-09
-9.57558e-13
-1.30147e-10
-2.03325e-11
-1.24701e-09
1.23987e-09
-1.05346e-12
2.8528e-11
-1.77649e-10
-1.22522e-09
1.20373e-09
-1.09804e-12
2.00234e-10
-3.54979e-10
-1.17726e-09
1.14663e-09
-1.08244e-12
3.8669e-10
-5.24023e-10
-1.11278e-09
1.07465e-09
-1.05598e-12
5.63211e-10
-6.64878e-10
-1.03167e-09
9.82328e-10
-1.10253e-12
7.15323e-10
-7.88529e-10
-9.26632e-10
8.6418e-10
-1.14989e-12
8.5213e-10
-9.02983e-10
-7.9626e-10
7.23317e-10
-1.18503e-12
9.7711e-10
-9.96696e-10
-6.46971e-10
5.6749e-10
-1.2315e-12
1.07741e-09
-1.05681e-09
-4.86764e-10
4.05098e-10
-1.27322e-12
1.13975e-09
-1.08112e-09
-3.24156e-10
2.43353e-10
-1.07949e-12
1.163e-09
-1.03911e-09
7.49035e-11
8.9542e-12
1.11686e-09
-1.61605e-10
6.34078e-10
8.5441e-11
-3.90988e-11
-6.80419e-10
-1.85979e-10
1.27834e-09
2.82082e-10
-2.76571e-12
-1.37168e-09
1.24777e-09
-3.76724e-10
4.70764e-10
-7.48187e-13
-1.34107e-09
1.18073e-09
-5.6384e-10
6.55159e-10
-7.15246e-13
-1.27133e-09
1.08972e-09
-7.44216e-10
8.3022e-10
-7.16354e-13
-1.17501e-09
9.78763e-10
-9.12567e-10
9.90582e-10
-7.31717e-13
-1.05605e-09
8.39418e-10
-1.06403e-09
1.13238e-09
-7.46168e-13
-9.07023e-10
6.77469e-10
-1.19532e-09
1.25222e-09
-8.12077e-13
-7.33554e-10
5.00056e-10
-1.30258e-09
1.34556e-09
-9.06915e-13
-5.42126e-10
3.16001e-10
-1.3806e-09
1.40694e-09
-9.96076e-13
-3.4134e-10
1.37336e-10
-1.42447e-09
1.43277e-09
-1.06874e-12
-1.44563e-10
-3.8284e-11
-1.43226e-09
1.4231e-09
-1.1479e-12
4.85956e-11
-2.23967e-10
-1.40679e-09
1.38419e-09
-1.18672e-12
2.47756e-10
-4.18965e-10
-1.3571e-09
1.32559e-09
-1.20193e-12
4.51675e-10
-6.04101e-10
-1.2897e-09
1.24753e-09
-1.21147e-12
6.47482e-10
-7.69911e-10
-1.19812e-09
1.1401e-09
-1.25763e-12
8.2918e-10
-9.21819e-10
-1.07389e-09
9.99857e-10
-1.30217e-12
9.97156e-10
-1.05797e-09
-9.19647e-10
8.34158e-10
-1.33989e-12
1.1448e-09
-1.16498e-09
-7.44824e-10
6.52136e-10
-1.38153e-12
1.25905e-09
-1.22982e-09
-5.57424e-10
4.61499e-10
-1.43153e-12
1.32717e-09
-1.25131e-09
-3.6634e-10
2.72453e-10
-1.16435e-12
1.34636e-09
-1.19878e-09
8.28039e-11
9.98725e-12
1.28534e-09
-1.79356e-10
7.30135e-10
9.85622e-11
-4.47735e-11
-7.83924e-10
-2.15138e-10
1.47154e-09
3.25967e-10
-3.27453e-12
-1.5791e-09
1.44122e-09
-4.35343e-10
5.44674e-10
-9.47591e-13
-1.5496e-09
1.36937e-09
-6.53811e-10
7.61379e-10
-9.62475e-13
-1.47598e-09
1.26719e-09
-8.66343e-10
9.67017e-10
-9.50339e-13
-1.36692e-09
1.13883e-09
-1.06264e-09
1.15224e-09
-8.85046e-13
-1.22754e-09
9.78508e-10
-1.23563e-09
1.31213e-09
-8.59328e-13
-1.05415e-09
7.92237e-10
-1.38197e-09
1.4443e-09
-9.06584e-13
-8.53661e-10
5.86016e-10
-1.49933e-09
1.54613e-09
-9.89223e-13
-6.31827e-10
3.67825e-10
-1.58468e-09
1.61396e-09
-1.05256e-12
-3.96055e-10
1.52073e-10
-1.63392e-09
1.64407e-09
-1.11277e-12
-1.61104e-10
-5.88526e-11
-1.64494e-09
1.63719e-09
-1.17621e-12
6.77764e-11
-2.71452e-10
-1.62206e-09
1.6003e-09
-1.25179e-12
2.94461e-10
-4.85621e-10
-1.57258e-09
1.53836e-09
-1.32096e-12
5.21162e-10
-6.94776e-10
-1.49676e-09
1.44647e-09
-1.36606e-12
7.46432e-10
-8.94156e-10
-1.38693e-09
1.31785e-09
-1.39807e-12
9.64627e-10
-1.0786e-09
-1.2403e-09
1.15503e-09
-1.45484e-12
1.16532e-09
-1.23806e-09
-1.06356e-09
9.66247e-10
-1.49574e-12
1.33687e-09
-1.36039e-09
-8.64445e-10
7.57992e-10
-1.51298e-12
1.46836e-09
-1.43291e-09
-6.48413e-10
5.36376e-10
-1.55293e-12
1.5465e-09
-1.44956e-09
-4.24682e-10
3.14513e-10
-1.22312e-12
1.56095e-09
-1.37788e-09
9.48284e-11
1.16748e-11
1.47748e-09
-2.06103e-10
8.41986e-10
1.14608e-10
-5.20728e-11
-9.04521e-10
-2.49535e-10
1.69442e-09
3.78233e-10
-3.79999e-12
-1.81932e-09
1.66667e-09
-5.05811e-10
6.33848e-10
-1.13038e-12
-1.79358e-09
1.59146e-09
-7.62299e-10
8.88627e-10
-1.15064e-12
-1.71664e-09
1.47425e-09
-1.01137e-09
1.12798e-09
-1.1215e-12
-1.58974e-09
1.32195e-09
-1.23778e-09
1.33953e-09
-1.0343e-12
-1.42267e-09
1.13379e-09
-1.43333e-09
1.51872e-09
-1.00383e-12
-1.21818e-09
9.17688e-10
-1.59592e-09
1.6645e-09
-1.01779e-12
-9.85243e-10
6.79458e-10
-1.72466e-09
1.7761e-09
-1.06531e-12
-7.29833e-10
4.26109e-10
-1.81898e-09
1.85274e-09
-1.10171e-12
-4.58759e-10
1.71898e-10
-1.87722e-09
1.89175e-09
-1.13494e-12
-1.85297e-10
-7.5401e-11
-1.89685e-09
1.89237e-09
-1.19426e-12
8.10755e-11
-3.17756e-10
-1.87907e-09
1.85658e-09
-1.32574e-12
3.41573e-10
-5.60026e-10
-1.82522e-09
1.78397e-09
-1.43184e-12
6.02714e-10
-8.03854e-10
-1.73291e-09
1.67135e-09
-1.48026e-12
8.66892e-10
-1.04131e-09
-1.60021e-09
1.51949e-09
-1.50731e-12
1.12354e-09
-1.25774e-09
-1.431e-09
1.3351e-09
-1.55488e-12
1.35519e-09
-1.44149e-09
-1.23315e-09
1.12497e-09
-1.59605e-12
1.55127e-09
-1.5832e-09
-1.01139e-09
8.92133e-10
-1.61816e-12
1.70408e-09
-1.66827e-09
-7.6843e-10
6.40976e-10
-1.62605e-12
1.79735e-09
-1.6819e-09
-5.12145e-10
3.82734e-10
-1.2361e-12
1.81254e-09
-1.587e-09
1.16351e-10
1.44817e-11
1.70865e-09
-2.52483e-10
9.71704e-10
1.31132e-10
-5.89315e-11
-1.0439e-09
-2.86938e-10
1.9539e-09
4.36831e-10
-4.39948e-12
-2.09939e-09
1.93093e-09
-5.86247e-10
7.36497e-10
-1.24304e-12
-2.07994e-09
1.85179e-09
-8.8679e-10
1.0339e-09
-1.24198e-12
-1.99766e-09
1.7135e-09
-1.17577e-09
1.30985e-09
-1.23595e-12
-1.84634e-09
1.52983e-09
-1.43522e-09
1.55097e-09
-1.18736e-12
-1.6444e-09
1.30756e-09
-1.6573e-09
1.75407e-09
-1.13494e-12
-1.4032e-09
1.05667e-09
-1.84151e-09
1.91922e-09
-1.10166e-12
-1.13328e-09
7.83275e-10
-1.9876e-09
2.0462e-09
-1.09296e-12
-8.40776e-10
4.93911e-10
-2.0955e-09
2.13471e-09
-1.10678e-12
-5.32012e-10
2.0093e-10
-2.16422e-09
2.18309e-09
-1.18785e-12
-2.18605e-10
-8.5729e-11
-2.1917e-09
2.18897e-09
-1.27909e-12
8.97358e-11
-3.66977e-10
-2.17527e-09
2.14957e-09
-1.39391e-12
3.94068e-10
-6.49852e-10
-2.11229e-09
2.06287e-09
-1.51269e-12
7.00791e-10
-9.35478e-10
-2.00234e-09
1.93074e-09
-1.57311e-12
1.00865e-09
-1.21146e-09
-1.84916e-09
1.75784e-09
-1.5853e-12
1.30437e-09
-1.45846e-09
-1.65826e-09
1.55087e-09
-1.58102e-12
1.56743e-09
-1.66706e-09
-1.43703e-09
1.31668e-09
-1.61537e-12
1.78902e-09
-1.83154e-09
-1.19051e-09
1.05813e-09
-1.65493e-12
1.96558e-09
-1.93419e-09
-9.20521e-10
7.77611e-10
-1.65426e-12
2.07875e-09
-1.95421e-09
-6.30604e-10
4.78554e-10
-1.15665e-12
2.10742e-09
-1.84518e-09
1.47922e-10
1.87957e-11
1.99794e-09
-3.19478e-10
1.12135e-09
1.51771e-10
-6.82738e-11
-1.20485e-09
-3.32666e-10
2.25624e-09
5.07681e-10
-5.08855e-12
-2.42616e-09
2.24079e-09
-6.82082e-10
8.57129e-10
-1.33195e-12
-2.41451e-09
2.15427e-09
-1.03107e-09
1.2007e-09
-1.2849e-12
-2.32261e-09
1.98838e-09
-1.36365e-09
1.51755e-09
-1.27573e-12
-2.141e-09
1.76692e-09
-1.66162e-09
1.79499e-09
-1.24205e-12
-1.89905e-09
1.50573e-09
-1.91795e-09
2.03005e-09
-1.19006e-12
-1.61665e-09
1.21552e-09
-2.13145e-09
2.22147e-09
-1.14001e-12
-1.30439e-09
9.02397e-10
-2.30043e-09
2.36786e-09
-1.09391e-12
-9.68727e-10
5.72584e-10
-2.42402e-09
2.46844e-09
-1.10295e-12
-6.15904e-10
2.37369e-10
-2.50147e-09
2.52263e-09
-1.21485e-12
-2.57312e-10
-9.41359e-11
-2.53194e-09
2.52858e-09
-1.35119e-12
9.88476e-11
-4.23364e-10
-2.51247e-09
2.48301e-09
-1.43885e-12
4.54267e-10
-7.55286e-10
-2.44054e-09
2.38496e-09
-1.52732e-12
8.12388e-10
-1.08631e-09
-2.31729e-09
2.23747e-09
-1.60641e-12
1.16774e-09
-1.40287e-09
-2.14652e-09
2.0443e-09
-1.62155e-12
1.50671e-09
-1.68347e-09
-1.93216e-09
1.8106e-09
-1.58421e-12
1.80662e-09
-1.91907e-09
-1.6811e-09
1.54397e-09
-1.60917e-12
2.05781e-09
-2.108e-09
-1.40037e-09
1.25e-09
-1.67451e-12
2.26004e-09
-2.23267e-09
-1.09371e-09
9.30699e-10
-1.6237e-12
2.3973e-09
-2.27373e-09
-7.6085e-10
5.82045e-10
-1.02283e-12
2.45355e-09
-2.16789e-09
1.81093e-10
2.34915e-11
2.35444e-09
-3.91134e-10
1.29532e-09
1.80261e-10
-8.16348e-11
-1.39394e-09
-3.94022e-10
2.60966e-09
5.9916e-10
-5.95452e-12
-2.80884e-09
2.60086e-09
-8.01909e-10
1.00339e-09
-1.4331e-12
-2.8009e-09
2.50227e-09
-1.20234e-09
1.3956e-09
-1.30733e-12
-2.69422e-09
2.3044e-09
-1.58165e-09
1.75825e-09
-1.26842e-12
-2.47973e-09
2.04153e-09
-1.92482e-09
2.0802e-09
-1.25393e-12
-2.19565e-09
1.73661e-09
-2.22401e-09
2.35536e-09
-1.21736e-12
-1.86673e-09
1.40025e-09
-2.47397e-09
2.57903e-09
-1.16977e-12
-1.50414e-09
1.03947e-09
-2.67055e-09
2.74802e-09
-1.11806e-12
-1.11582e-09
6.61451e-10
-2.81195e-09
2.86204e-09
-1.11388e-12
-7.10422e-10
2.77564e-10
-2.89877e-09
2.92145e-09
-1.22556e-12
-2.99021e-10
-1.04928e-10
-2.93028e-09
2.92454e-09
-1.38369e-12
1.12049e-10
-4.87673e-10
-2.90468e-09
2.87035e-09
-1.47158e-12
5.23482e-10
-8.72712e-10
-2.8223e-09
2.76015e-09
-1.51959e-12
9.3638e-10
-1.25396e-09
-2.68438e-09
2.59487e-09
-1.60401e-12
1.34507e-09
-1.61702e-09
-2.49238e-09
2.37705e-09
-1.62838e-12
1.73397e-09
-1.93815e-09
-2.24997e-09
2.11142e-09
-1.59553e-12
2.07828e-09
-2.2071e-09
-1.96258e-09
1.80361e-09
-1.62668e-12
2.36769e-09
-2.42438e-09
-1.63584e-09
1.45934e-09
-1.65588e-12
2.60254e-09
-2.57558e-09
-1.27531e-09
1.08319e-09
-1.55699e-12
2.76926e-09
-2.64861e-09
-8.83375e-10
6.7377e-10
-9.06982e-13
2.85912e-09
-2.55588e-09
2.08435e-10
2.72645e-11
2.77043e-09
-4.50247e-10
1.50136e-09
2.15269e-10
-9.81404e-11
-1.61849e-09
-4.68401e-10
3.02467e-09
7.10136e-10
-6.92816e-12
-3.25948e-09
3.01512e-09
-9.45554e-10
1.17706e-09
-1.5071e-12
-3.24512e-09
2.89861e-09
-1.40404e-09
1.62352e-09
-1.32986e-12
-3.11676e-09
2.66691e-09
-1.83488e-09
2.03626e-09
-1.27053e-12
-2.86703e-09
2.36143e-09
-2.22763e-09
2.40735e-09
-1.28629e-12
-2.53987e-09
2.00739e-09
-2.57471e-09
2.72819e-09
-1.27035e-12
-2.1596e-09
1.61637e-09
-2.86715e-09
2.99036e-09
-1.21318e-12
-1.73837e-09
1.19816e-09
-3.09785e-09
3.18899e-09
-1.17849e-12
-1.28813e-09
7.63128e-10
-3.26453e-09
3.32389e-09
-1.19124e-12
-8.21293e-10
3.21684e-10
-3.36751e-09
3.39408e-09
-1.25616e-12
-3.46995e-10
-1.20855e-10
-3.40362e-09
3.39534e-09
-1.36843e-12
1.30505e-10
-5.62982e-10
-3.37023e-09
3.32829e-09
-1.44545e-12
6.06368e-10
-1.00527e-09
-3.27096e-09
3.1978e-09
-1.49105e-12
1.07992e-09
-1.44284e-09
-3.10976e-09
3.00626e-09
-1.54269e-12
1.54788e-09
-1.859e-09
-2.88859e-09
2.75652e-09
-1.56439e-12
1.99263e-09
-2.22832e-09
-2.61119e-09
2.45229e-09
-1.57351e-12
2.38879e-09
-2.54104e-09
-2.28049e-09
2.09551e-09
-1.60422e-12
2.72762e-09
-2.79666e-09
-1.8985e-09
1.68955e-09
-1.58551e-12