/*--------------------------------*- C++ -*----------------------------------*\
  =========                 |
  \\      /  F ield         | OpenFOAM: The Open Source CFD Toolbox
   \\    /   O peration     | Website:  https://openfoam.org
    \\  /    A nd           | Version:  7
     \\/     M anipulation  |
\*---------------------------------------------------------------------------*/
FoamFile
{
    version     2.0;
    format      ascii;
    class       volVectorField;
    location    "250";
    object      U;
}
// * * * * * * * * * * * * * * * * * * * * * * * * * * * * * * * * * * * * * //

dimensions      [0 1 -1 0 0 0 0];

internalField   nonuniform List<vector> 
96800
(
(3.6635e-05 -5.12883e-09 -3.48578e-05)
(9.26386e-05 -2.29586e-07 -1.86555e-05)
(0.000140246 -3.80052e-07 -1.11961e-05)
(0.000164216 -2.63905e-07 -4.32977e-06)
(0.000174911 -2.37622e-07 -3.10673e-06)
(0.000189672 -1.91551e-07 -5.39119e-06)
(0.000209445 -1.05931e-07 -5.5932e-06)
(0.000222384 -5.34753e-08 -2.034e-06)
(0.000220819 -2.06968e-08 2.72392e-06)
(0.000208915 -3.47129e-08 3.61099e-06)
(0.000202919 -7.90122e-08 4.20138e-07)
(0.000207705 -1.03359e-07 -2.53282e-06)
(0.000218288 -6.86723e-08 -3.16506e-06)
(0.000227891 -1.393e-07 -1.60132e-06)
(0.000231955 -1.24358e-07 9.23564e-07)
(0.000227629 -7.82633e-08 3.08637e-06)
(0.00021705 8.97539e-08 5.23337e-06)
(0.000194986 2.06657e-07 8.97841e-06)
(0.000157363 2.63085e-07 1.29856e-05)
(0.000112392 2.21305e-07 1.29437e-05)
(7.38391e-05 1.57482e-07 1.11965e-05)
(3.84009e-05 3.73346e-07 1.47402e-05)
(1.717e-05 3.72773e-07 -8.94014e-05)
(7.53171e-05 -1.84605e-07 -6.7128e-05)
(0.00012196 -2.08863e-07 -4.09148e-05)
(0.000149851 -2.23164e-07 -1.66416e-05)
(0.000166437 -1.90008e-07 -1.19636e-05)
(0.00018553 -1.67972e-07 -2.00934e-05)
(0.000206768 -1.01233e-07 -2.02691e-05)
(0.000220056 -7.96814e-08 -7.07282e-06)
(0.000221375 -1.78376e-07 7.48135e-06)
(0.000217394 -2.50126e-07 1.20616e-05)
(0.000214637 -2.34108e-07 4.7257e-06)
(0.000215107 -1.66437e-07 -3.40154e-06)
(0.000216043 -1.17611e-07 -4.28334e-06)
(0.000215146 -2.32005e-07 1.46545e-06)
(0.000212611 -3.82223e-07 9.11687e-06)
(0.000207181 -4.08847e-07 1.4638e-05)
(0.000197075 -1.02335e-07 1.76081e-05)
(0.000177155 -5.15747e-09 2.72371e-05)
(0.000144424 2.73399e-08 4.09415e-05)
(0.000102729 -1.83868e-07 4.65446e-05)
(6.2902e-05 -3.03019e-07 4.75573e-05)
(2.86136e-05 4.35585e-08 5.84873e-05)
(1.68189e-05 4.07766e-07 -0.000142911)
(6.67737e-05 -1.21523e-07 -0.000113581)
(0.000112116 -1.16746e-07 -7.62852e-05)
(0.000149004 -6.53288e-08 -4.35817e-05)
(0.000179611 -5.83691e-08 -3.54656e-05)
(0.000206718 -8.20506e-08 -4.35439e-05)
(0.000230527 -9.02312e-08 -4.03705e-05)
(0.000248095 -7.14909e-08 -1.94974e-05)
(0.000261183 -1.30919e-07 2.61914e-06)
(0.000269901 -1.43827e-07 1.24823e-05)
(0.000272617 -9.55714e-08 9.31e-06)
(0.00026706 -8.79971e-08 4.77196e-06)
(0.000256875 -1.49804e-07 8.22729e-06)
(0.000243133 -1.56191e-07 1.6759e-05)
(0.000227189 -1.56973e-07 2.52775e-05)
(0.000211714 -1.40488e-07 3.04577e-05)
(0.000194991 -9.34012e-08 3.29103e-05)
(0.000174554 -9.45217e-09 4.60584e-05)
(0.000147123 2.22519e-08 6.75017e-05)
(0.000112364 -2.00906e-08 8.35994e-05)
(7.1024e-05 -1.85184e-08 9.19001e-05)
(3.09021e-05 1.25421e-07 0.000105507)
(1.69556e-05 4.10762e-07 -0.000196551)
(6.56516e-05 2.22585e-08 -0.00015929)
(0.000112659 -3.72184e-08 -0.00011725)
(0.000156111 1.41658e-08 -8.1384e-05)
(0.000195129 -9.79886e-09 -6.72571e-05)
(0.000225865 -3.35878e-08 -6.84953e-05)
(0.000249382 -6.60449e-08 -6.03727e-05)
(0.000270391 -1.32425e-07 -3.6656e-05)
(0.000291497 -7.94753e-08 -1.08398e-05)
(0.000306435 -3.55444e-08 5.34718e-06)
(0.000311629 -1.62033e-08 1.11074e-05)
(0.000308271 -1.19989e-07 1.50718e-05)
(0.000298356 -1.15572e-07 2.61531e-05)
(0.00027971 -6.80221e-09 3.87577e-05)
(0.000256052 -2.86083e-08 4.69862e-05)
(0.000232754 -2.90872e-08 5.09186e-05)
(0.000207989 -1.48932e-07 5.61827e-05)
(0.000180187 -1.26087e-07 7.24264e-05)
(0.000150454 -1.9385e-07 9.86185e-05)
(0.000118484 -9.08745e-08 0.000120874)
(7.98922e-05 2.40918e-09 0.000135716)
(3.59354e-05 1.19687e-07 0.000152766)
(1.6465e-05 3.62714e-07 -0.000249625)
(6.39864e-05 8.45666e-08 -0.000207189)
(0.000113496 2.21436e-08 -0.000163517)
(0.000162246 -1.25633e-08 -0.000124799)
(0.000206434 -1.55685e-08 -0.000102391)
(0.000241016 -9.98686e-08 -9.4452e-05)
(0.00026764 -1.4594e-07 -8.2436e-05)
(0.000293748 -1.72526e-07 -5.91048e-05)
(0.000318836 -9.48686e-09 -3.15061e-05)
(0.000336762 5.54401e-08 -7.0075e-06)
(0.000344353 -5.11805e-08 9.12625e-06)
(0.000346658 -1.55872e-07 2.2222e-05)
(0.000341274 -9.09174e-08 4.19131e-05)
(0.000323974 1.8959e-08 6.19394e-05)
(0.00029749 4.02445e-08 7.30621e-05)
(0.000266476 3.93829e-08 7.87993e-05)
(0.000231423 -7.90962e-08 8.96557e-05)
(0.000194589 -1.55447e-07 0.000109643)
(0.000160523 -2.32629e-07 0.000137293)
(0.000126864 -2.03256e-07 0.000161712)
(8.74948e-05 -1.23621e-08 0.000179736)
(3.88594e-05 1.03388e-07 0.000201406)
(1.6117e-05 3.21962e-07 -0.000300886)
(6.22164e-05 2.0947e-08 -0.000256398)
(0.000115163 -7.26189e-09 -0.000214258)
(0.000168675 -7.29445e-08 -0.000170536)
(0.000216287 -6.40379e-08 -0.000140778)
(0.000258199 -1.32044e-07 -0.00012554)
(0.000294041 -1.91243e-07 -0.000109418)
(0.000326581 -1.21287e-07 -8.67424e-05)
(0.000354291 -1.82585e-08 -5.74628e-05)
(0.000373581 4.21369e-08 -2.27492e-05)
(0.000382113 -2.11634e-08 4.70216e-06)
(0.000386834 -1.16922e-07 2.5705e-05)
(0.000385931 -9.33818e-08 5.36934e-05)
(0.000373794 -3.52209e-08 8.52126e-05)
(0.000347538 8.83266e-08 0.000104277)
(0.000308545 1.2394e-07 0.0001163)
(0.000262587 1.36153e-08 0.000131338)
(0.000218152 -2.20379e-07 0.000152203)
(0.000182303 -2.38459e-07 0.000178158)
(0.000147355 -2.24163e-07 0.000205021)
(0.000101992 3.38042e-08 0.000227216)
(4.41178e-05 1.03786e-07 0.000252202)
(1.66194e-05 3.74134e-07 -0.000352182)
(6.46115e-05 -8.60393e-08 -0.000305573)
(0.000120577 -1.22197e-07 -0.000266609)
(0.000176224 -4.57149e-08 -0.000220356)
(0.000227139 -6.97715e-08 -0.000186434)
(0.000277811 -1.23242e-07 -0.000166752)
(0.000325495 -1.53957e-07 -0.000144741)
(0.000364916 -9.3495e-08 -0.000118834)
(0.000395175 -5.12862e-08 -8.35099e-05)
(0.000412927 -6.12726e-09 -3.70602e-05)
(0.000420006 -5.18204e-09 -8.35138e-07)
(0.000424298 -1.9611e-08 2.50618e-05)
(0.000425689 -4.81984e-08 6.04195e-05)
(0.000417949 -3.10416e-08 0.00010394)
(0.000394982 9.20212e-08 0.000136554)
(0.000354015 1.79029e-07 0.000159593)
(0.000302776 4.31597e-08 0.000180792)
(0.000249676 -1.86042e-07 0.000200898)
(0.000203744 -2.69152e-07 0.000223131)
(0.000164006 -1.68448e-07 0.000249922)
(0.000114885 8.25536e-08 0.000279254)
(4.98166e-05 5.8821e-08 0.000310839)
(1.78892e-05 4.40971e-07 -0.000406192)
(6.94291e-05 -1.58037e-07 -0.000356038)
(0.000127917 -1.98573e-07 -0.000319624)
(0.000186937 -1.07102e-07 -0.000274071)
(0.000245097 -8.67585e-08 -0.000240054)
(0.000303017 -4.80706e-08 -0.000218032)
(0.000356722 -4.88123e-08 -0.000188018)
(0.000400474 -9.46242e-08 -0.000151986)
(0.000431813 -1.50833e-07 -0.000105701)
(0.000450232 -9.82148e-08 -4.85032e-05)
(0.000459613 -8.76049e-09 -6.62442e-06)
(0.000463545 6.78227e-08 2.28503e-05)
(0.000462239 1.71734e-08 6.45614e-05)
(0.000454323 -1.50451e-08 0.000117521)
(0.000433704 1.23226e-07 0.000163153)
(0.000398023 1.06917e-07 0.000199416)
(0.000349252 4.95209e-08 0.000234154)
(0.000287666 -6.8772e-08 0.000261461)
(0.000222374 -8.24794e-08 0.000278136)
(0.000165222 -5.70423e-08 0.000298096)
(0.00011132 -2.29432e-09 0.000332827)
(4.93747e-05 2.1519e-08 0.000374678)
(1.93847e-05 4.78654e-07 -0.00046353)
(7.52308e-05 -2.42132e-07 -0.000407871)
(0.000138125 -1.91515e-07 -0.000376285)
(0.000205235 -1.55346e-07 -0.000334898)
(0.00027375 -5.50694e-08 -0.000301934)
(0.000337241 3.60425e-08 -0.000276387)
(0.000391456 6.63539e-08 -0.000236815)
(0.000434612 -6.73902e-08 -0.000186649)
(0.000467629 -1.95362e-07 -0.000127353)
(0.000492254 -1.47538e-07 -6.33435e-05)
(0.000509333 -1.97276e-08 -1.63111e-05)
(0.000514176 9.93252e-08 2.03742e-05)
(0.000506985 1.12512e-07 6.95672e-05)
(0.000492569 1.13012e-07 0.000129824)
(0.00046831 1.46715e-07 0.000184617)
(0.000435287 4.63624e-09 0.000235261)
(0.000390547 -7.24114e-08 0.000288904)
(0.000328885 -6.4035e-09 0.000333251)
(0.000250967 8.09619e-08 0.000350051)
(0.000172306 4.97853e-08 0.000360948)
(0.000103984 -1.62649e-08 0.000390616)
(4.45102e-05 2.06198e-08 0.000434585)
(2.22696e-05 5.46175e-07 -0.000527189)
(8.53467e-05 -2.26558e-07 -0.000465015)
(0.000154835 -1.54534e-07 -0.000440479)
(0.000230705 -1.84221e-07 -0.000404659)
(0.00030867 -6.13379e-08 -0.000371)
(0.000378619 3.79729e-08 -0.000338906)
(0.000436055 6.7194e-08 -0.000288703)
(0.000480531 -4.1143e-08 -0.000223142)
(0.000515458 -1.34424e-07 -0.000152775)
(0.000545931 -1.92868e-07 -8.43363e-05)
(0.00056918 -6.99746e-08 -2.92162e-05)
(0.000574908 9.04271e-08 1.91704e-05)
(0.000564253 1.72469e-07 7.70117e-05)
(0.000542007 2.7665e-07 0.00014452)
(0.000510611 1.18132e-07 0.000209659)
(0.000472233 -3.32863e-08 0.00027352)
(0.000424076 -9.09397e-08 0.000342911)
(0.000364495 1.8035e-08 0.000402265)
(0.000287814 1.19052e-07 0.000430082)
(0.000198202 1.2033e-07 0.000441232)
(0.000112363 6.01034e-08 0.000459679)
(4.57582e-05 7.26389e-08 0.000494845)
(2.66282e-05 6.20054e-07 -0.000603582)
(9.97597e-05 -1.1434e-07 -0.000534431)
(0.00017949 -4.24204e-08 -0.000516002)
(0.00026409 -8.56721e-08 -0.000484352)
(0.000349241 -7.91446e-08 -0.000447702)
(0.000426846 -6.75288e-08 -0.000406383)
(0.000491687 -4.98472e-08 -0.000343452)
(0.000541811 -3.9282e-08 -0.000264297)
(0.000580955 -3.55272e-08 -0.000184293)
(0.000614366 -8.77384e-08 -0.000108669)
(0.000638789 -1.20584e-07 -4.25399e-05)
(0.0006457 4.35428e-08 1.7917e-05)
(0.000635171 2.16494e-07 8.54575e-05)
(0.000609529 2.45999e-07 0.000163578)
(0.000571049 4.73404e-08 0.000243865)
(0.000521398 -4.10892e-08 0.000321592)
(0.00046241 -1.60884e-08 0.000400592)
(0.000397457 7.792e-10 0.000469379)
(0.000322351 2.6714e-08 0.000510777)
(0.000231075 1.22429e-07 0.000530545)
(0.00013554 1.21483e-07 0.000540998)
(5.57352e-05 1.23689e-07 0.000563717)
(3.22739e-05 7.36564e-07 -0.000697461)
(0.000118167 -2.64491e-08 -0.000621845)
(0.000211903 -1.10582e-08 -0.0006062)
(0.000308762 -8.4846e-09 -0.000575481)
(0.000401625 -6.14756e-08 -0.000532518)
(0.000484855 -1.41852e-07 -0.000478717)
(0.00055659 -1.93523e-07 -0.000402631)
(0.000615741 -9.43723e-08 -0.000311702)
(0.00066233 -4.71484e-08 -0.000222052)
(0.000699177 -9.7841e-08 -0.000135668)
(0.000723788 -1.66293e-07 -5.58939e-05)
(0.000732288 -3.77511e-08 1.55098e-05)
(0.000723916 1.58723e-07 9.38686e-05)
(0.000696155 1.02514e-07 0.000190215)
(0.000650273 2.83697e-09 0.000290785)
(0.000588027 2.80101e-08 0.000381917)
(0.000517813 7.24327e-08 0.000466284)
(0.000443157 8.57836e-08 0.000540136)
(0.000361576 7.96886e-08 0.000592314)
(0.000266851 1.35454e-07 0.000622536)
(0.000165586 1.52918e-07 0.000631149)
(7.05526e-05 7.78741e-08 0.000648934)
(3.83694e-05 8.69122e-07 -0.000812268)
(0.000139732 4.94739e-08 -0.000730338)
(0.000251117 7.43192e-08 -0.000713651)
(0.000362752 5.83778e-08 -0.000678475)
(0.000464964 -1.08925e-09 -0.000626039)
(0.000554414 -1.04835e-07 -0.000558267)
(0.00063424 -1.93793e-07 -0.000469205)
(0.000704398 -6.24464e-08 -0.000368521)
(0.000761822 -7.69788e-08 -0.000266694)
(0.000804615 -9.04769e-08 -0.000165858)
(0.000830577 -6.86322e-08 -7.16061e-05)
(0.000839195 -5.3069e-08 1.29747e-05)
(0.000830024 -1.97828e-08 0.000107098)
(0.000797877 -2.54916e-09 0.000226866)
(0.000743604 3.44186e-08 0.000349178)
(0.00067263 8.9834e-08 0.000450981)
(0.000594641 8.42069e-08 0.000539133)
(0.000508244 1.15311e-07 0.000618027)
(0.000412177 1.15459e-07 0.000680252)
(0.000306188 5.39081e-08 0.000720567)
(0.000195422 9.18515e-08 0.000731736)
(8.58502e-05 -5.41521e-08 0.000754)
(4.42976e-05 9.54287e-07 -0.000946882)
(0.000162556 -6.97022e-08 -0.000857429)
(0.000292843 -1.92018e-08 -0.000837173)
(0.00041936 8.94149e-08 -0.000793787)
(0.000533545 5.92313e-08 -0.000730177)
(0.000635101 3.19711e-08 -0.000650275)
(0.000727282 -8.53153e-08 -0.00054977)
(0.000811678 -1.52945e-07 -0.000436761)
(0.000881863 -1.07382e-07 -0.000318652)
(0.000931641 -8.46276e-08 -0.000201165)
(0.000959391 -2.7561e-08 -9.02633e-05)
(0.000965418 -7.86751e-08 1.40875e-05)
(0.000949046 -1.31579e-07 0.000131971)
(0.000909209 -4.1875e-08 0.000274035)
(0.00084983 6.18155e-08 0.000412932)
(0.000776679 6.94655e-08 0.000525526)
(0.000690669 7.89775e-08 0.000621999)
(0.000588419 1.19108e-07 0.000710793)
(0.000471233 1.93145e-07 0.00078429)
(0.00034638 9.99699e-08 0.000832164)
(0.000221245 4.24632e-08 0.000846427)
(9.76328e-05 -1.87134e-07 0.000877401)
(4.98237e-05 1.08211e-06 -0.00109882)
(0.000185879 -2.56103e-07 -0.000998455)
(0.00033356 -8.56769e-08 -0.000975526)
(0.0004759 2.54389e-08 -0.000924268)
(0.000608672 5.58295e-08 -0.000851028)
(0.000730145 6.10664e-08 -0.000761224)
(0.000839605 2.21519e-08 -0.000647255)
(0.000938136 -1.29553e-07 -0.000517914)
(0.00102004 -1.70184e-07 -0.000380001)
(0.00107721 -1.4219e-07 -0.000240377)
(0.00110622 -7.08431e-08 -0.000107072)
(0.00110816 -1.4093e-07 2.39246e-05)
(0.00108389 -1.14838e-07 0.000167965)
(0.00103815 7.15867e-09 0.000326874)
(0.000976727 6.44309e-08 0.000477395)
(0.000901257 -5.03605e-09 0.000605783)
(0.000801566 4.28633e-08 0.000720116)
(0.000678012 1.624e-07 0.000824196)
(0.000537747 1.53341e-07 0.000908542)
(0.000392212 1.14076e-07 0.000961952)
(0.000247785 6.27369e-08 0.000976691)
(0.0001079 -1.7661e-07 0.00101471)
(5.64346e-05 1.20526e-06 -0.00126706)
(0.000212867 -4.1784e-07 -0.00115175)
(0.000379635 -5.87587e-08 -0.00113046)
(0.000542031 -4.35387e-08 -0.00107549)
(0.000699545 -2.63985e-08 -0.000994255)
(0.000846134 7.85876e-08 -0.000892635)
(0.000974143 1.62698e-07 -0.000763262)
(0.00108426 1.15342e-08 -0.000613603)
(0.00117528 -1.02319e-07 -0.000451563)
(0.00123832 -1.11962e-07 -0.000283671)
(0.00126952 -7.39763e-08 -0.000120453)
(0.00126975 -1.25298e-07 4.03425e-05)
(0.00124123 -1.05864e-07 0.000207886)
(0.00119433 -1.21471e-07 0.000380481)
(0.0011313 -1.28287e-07 0.00054666)
(0.00104438 -7.23357e-08 0.000699124)
(0.000925141 2.73907e-08 0.000838839)
(0.000779372 8.47655e-08 0.000960707)
(0.000618561 4.96931e-08 0.00105663)
(0.000450754 6.78675e-08 0.0011148)
(0.000281328 8.59994e-08 0.00112602)
(0.000120175 -9.35831e-08 0.00116549)
(6.55627e-05 1.30835e-06 -0.00145823)
(0.000245896 -4.89871e-07 -0.00132462)
(0.000437554 -6.04879e-08 -0.00130834)
(0.000627369 -3.09634e-08 -0.00125171)
(0.000813086 -5.65604e-08 -0.00116051)
(0.000985226 2.12233e-09 -0.00104321)
(0.00113236 1.75456e-07 -0.000895407)
(0.00125345 8.36594e-08 -0.000722574)
(0.00135036 -4.80034e-08 -0.000532521)
(0.00141892 -5.12447e-08 -0.000332561)
(0.00145379 -9.97553e-08 -0.000134042)
(0.00145597 -4.96459e-08 5.84186e-05)
(0.00142856 -5.73609e-08 0.000248228)
(0.00138116 -1.70309e-07 0.000438557)
(0.00131102 -1.69019e-07 0.000628011)
(0.00120502 9.67553e-09 0.000811105)
(0.00106415 1.02868e-07 0.000978664)
(0.000898695 1.75172e-08 0.00112085)
(0.000718381 -4.51468e-08 0.00123112)
(0.000526453 -1.49641e-08 0.00129618)
(0.000328431 1.18572e-07 0.00130098)
(0.000138998 -6.61785e-08 0.0013353)
(7.60724e-05 1.65307e-06 -0.00168231)
(0.000282597 -4.13437e-07 -0.00152662)
(0.000505206 -8.94916e-08 -0.00151579)
(0.000729964 -1.0786e-07 -0.00145789)
(0.000947566 -1.67641e-07 -0.00135191)
(0.00114495 -7.0301e-08 -0.00121289)
(0.00131251 -2.30644e-08 -0.00104032)
(0.00144817 9.3304e-09 -0.000840584)
(0.00155285 -5.65667e-08 -0.000620333)
(0.00162805 -7.12441e-08 -0.000387822)
(0.00167058 -8.02502e-09 -0.00015489)
(0.00167705 1.01118e-07 7.00026e-05)
(0.0016518 -6.93248e-08 0.000287806)
(0.001599 -2.63009e-07 0.000505736)
(0.00151339 -1.68022e-07 0.000727021)
(0.00138575 4.92928e-08 0.000942139)
(0.00122438 9.93174e-08 0.00113733)
(0.00104181 -4.65957e-08 0.00130225)
(0.000842807 -1.3885e-07 0.00143115)
(0.000627047 -1.94685e-07 0.00150804)
(0.000399677 -4.45624e-08 0.00150788)
(0.000171615 -1.61659e-07 0.00153684)
(8.72095e-05 1.89979e-06 -0.00194312)
(0.000322198 -4.15695e-07 -0.00176555)
(0.000583447 -1.47814e-07 -0.00176034)
(0.000848876 -1.03472e-07 -0.00169792)
(0.00110016 -1.59894e-07 -0.00157059)
(0.00132417 -1.75782e-07 -0.00140215)
(0.00151625 -1.65522e-07 -0.00119925)
(0.00167194 -8.22528e-08 -0.000968525)
(0.00179102 -7.80134e-09 -0.000716733)
(0.00187518 -1.46288e-08 -0.000452604)
(0.00192518 1.72317e-08 -0.000185994)
(0.00193618 7.07534e-08 7.36184e-05)
(0.00190961 -1.29574e-07 0.000329294)
(0.00184685 -3.05268e-07 0.000586885)
(0.00174317 -1.33297e-07 0.000844385)
(0.00159771 -2.07397e-08 0.00109147)
(0.0014182 4.76863e-08 0.00131422)
(0.00121654 -1.14316e-08 0.00150353)
(0.000995966 -1.21581e-07 0.00165472)
(0.000755185 -1.77582e-07 0.00174739)
(0.000494982 -1.6992e-08 0.00175214)
(0.000217658 -2.43156e-07 0.00178897)
(0.000100551 2.15867e-06 -0.00224414)
(0.000371819 -5.24825e-07 -0.00204543)
(0.000678851 -1.46874e-07 -0.00204641)
(0.000987927 2.21132e-08 -0.00197508)
(0.00127497 1.12699e-07 -0.00182123)
(0.00153021 -1.57521e-07 -0.00161818)
(0.00175279 -2.37005e-07 -0.00138042)
(0.00193557 -7.65711e-08 -0.00111535)
(0.0020731 8.69922e-08 -0.000828477)
(0.00216758 1.94106e-07 -0.000527619)
(0.00222166 1.34961e-07 -0.000223854)
(0.00223435 6.31905e-08 7.64861e-05)
(0.00220506 -5.00367e-08 0.00037696)
(0.00213125 -3.15269e-09 0.000679775)
(0.002012 -5.71586e-08 0.000977282)
(0.00185182 -4.85731e-08 0.00126086)
(0.00165368 -1.25932e-08 0.00151522)
(0.00142625 -6.50324e-08 0.00172953)
(0.00117442 -7.64537e-08 0.00190297)
(0.000898594 5.3311e-09 0.00201521)
(0.000596397 1.74732e-07 0.00203687)
(0.000265015 -3.28752e-07 0.00210271)
(0.000118828 2.5826e-06 -0.00259479)
(0.000439856 -6.34168e-07 -0.00236905)
(0.00079838 -2.78504e-07 -0.00237528)
(0.00115222 7.49824e-09 -0.00229421)
(0.00147779 1.14179e-07 -0.00211181)
(0.00177128 -1.04123e-07 -0.00187054)
(0.00203042 -2.42906e-07 -0.001593)
(0.0022446 -2.37202e-08 -0.00128733)
(0.00240551 2.00766e-07 -0.000959051)
(0.00251248 3.12541e-07 -0.000614834)
(0.00257137 2.36377e-07 -0.000265638)
(0.00258374 3.33188e-08 8.17896e-05)
(0.00254892 -1.50293e-08 0.000430874)
(0.00246299 6.57944e-08 0.000780987)
(0.00232765 -1.57463e-08 0.0011257)
(0.00214853 -1.23943e-07 0.00145379)
(0.0019271 -1.84843e-07 0.0017459)
(0.00166658 -1.28577e-07 0.00199108)
(0.00137162 -9.78659e-08 0.00218921)
(0.00104375 8.79695e-08 0.00232343)
(0.000686938 1.9468e-07 0.00237069)
(0.000304513 -4.54769e-07 0.00247633)
(0.000141213 3.12513e-06 -0.0030101)
(0.000524895 -7.19153e-07 -0.00274531)
(0.000939963 -3.03983e-07 -0.00275108)
(0.00134165 -4.73975e-08 -0.00265747)
(0.00171367 -1.08142e-08 -0.00244693)
(0.0020497 -2.22254e-08 -0.00216619)
(0.00234767 -6.58423e-08 -0.00184321)
(0.00259715 -3.68138e-08 -0.00148949)
(0.00278751 1.96725e-07 -0.00111012)
(0.00291578 2.55338e-07 -0.000715049)
(0.00298563 2.31722e-07 -0.000312825)
(0.00300013 -4.68638e-08 9.07518e-05)
(0.00295633 1.56454e-09 0.00049441)
(0.00285242 4.90473e-08 0.000896497)
(0.0026951 -9.38458e-08 0.00129441)
(0.00248919 -1.8124e-07 0.00167241)
(0.0022365 -1.59397e-07 0.00200869)
(0.00193635 -7.06559e-08 0.00229333)
(0.00158774 2.03025e-08 0.00252642)
(0.00119706 1.02978e-07 0.00269019)
(0.000776254 1.40712e-07 0.00276364)
(0.000341116 -6.31587e-07 0.0029051)
(0.000166267 3.76878e-06 -0.00349997)
(0.000618235 -6.51042e-07 -0.0031838)
(0.00109545 -1.09549e-07 -0.00318345)
(0.00155243 -1.21006e-07 -0.00306993)
(0.00198079 -1.34827e-07 -0.00282738)
(0.00236774 -2.05523e-08 -0.0025083)
(0.0027069 -7.16871e-09 -0.00213606)
(0.00299577 -5.81438e-08 -0.00172515)
(0.00322076 8.59871e-08 -0.00128735)
(0.00337679 2.76978e-07 -0.000834258)
(0.00346482 1.51963e-07 -0.000369823)
(0.00348577 -1.54079e-08 0.000102821)
(0.00343399 7.29309e-08 0.000572081)
(0.00331025 1.21739e-07 0.001035)
(0.00312452 1.29377e-08 0.00149044)
(0.00288288 -2.40974e-08 0.00192155)
(0.00258909 -1.08483e-07 0.00230883)
(0.00223927 -5.03949e-08 0.00264353)
(0.00183149 9.52574e-08 0.00292337)
(0.00137551 1.30468e-07 0.0031251)
(0.000886706 2.02012e-07 0.003222)
(0.000387432 -6.18721e-07 0.00339041)
(0.000194033 4.40677e-06 -0.00407355)
(0.000718121 -5.68031e-07 -0.00369379)
(0.00126267 -3.18677e-08 -0.00367926)
(0.00178533 -2.05359e-07 -0.00353887)
(0.00227951 -3.31249e-07 -0.00325813)
(0.00272824 -1.23677e-07 -0.00289842)
(0.00312008 -7.29227e-08 -0.00247448)
(0.00345049 -4.96762e-08 -0.00199846)
(0.00371075 3.57881e-08 -0.00149359)
(0.0038966 1.69875e-07 -0.000974541)
(0.004007 8.47553e-08 -0.000438106)
(0.00403778 -3.31721e-09 0.000114731)
(0.00398261 6.54298e-08 0.000663119)
(0.00384331 1.76805e-07 0.00119809)
(0.00362795 2.17993e-07 0.00171795)
(0.00334566 8.04989e-08 0.00220975)
(0.00300195 -1.65358e-07 0.00265802)
(0.0025909 -6.36177e-08 0.00305214)
(0.0021148 1.2851e-07 0.00338597)
(0.00158701 9.8008e-08 0.00362995)
(0.00102439 3.02586e-07 0.00375)
(0.000447143 -6.48536e-07 0.00394518)
(0.000222715 5.01572e-06 -0.00473839)
(0.000821185 -7.28071e-07 -0.0042814)
(0.00144325 -2.0666e-07 -0.00424539)
(0.002042 -2.66975e-07 -0.00407543)
(0.00260852 -3.58928e-07 -0.00375223)
(0.00312562 -2.60914e-07 -0.00334461)
(0.00357952 -7.46779e-09 -0.00286381)
(0.00395846 2.23995e-08 -0.00231506)
(0.00425864 6.018e-08 -0.00173293)
(0.00448112 -1.80992e-08 -0.00113796)
(0.00461988 -8.89765e-09 -0.000518721)
(0.0046641 1.11085e-07 0.000123193)
(0.00461025 6.72792e-08 0.000761647)
(0.00446064 6.41086e-08 0.00138121)
(0.00421841 1.65679e-07 0.00197905)
(0.00389401 -6.67884e-08 0.00254604)
(0.00349185 -1.48415e-07 0.00306863)
(0.00300964 -4.86237e-08 0.00353061)
(0.00245478 1.069e-07 0.00392135)
(0.00184389 2.1698e-07 0.00421125)
(0.00119255 5.13017e-07 0.00435796)
(0.000520426 -6.95316e-07 0.00458533)
(0.000250814 5.66155e-06 -0.00549255)
(0.000922022 -1.13923e-06 -0.00494804)
(0.00163037 -4.3296e-07 -0.0048914)
(0.00231161 -3.33039e-07 -0.00468912)
(0.00294874 -2.78701e-07 -0.00431755)
(0.00353261 -2.11202e-07 -0.00385412)
(0.00405247 -4.99383e-08 -0.0033094)
(0.00449333 1.47718e-07 -0.00268492)
(0.00485109 -1.35516e-08 -0.00201809)
(0.00512743 -2.99671e-07 -0.00133369)
(0.00530648 -1.36269e-07 -0.000619833)
(0.00537337 6.33735e-08 0.000121024)
(0.00532897 2.97504e-09 0.000861652)
(0.00517387 -7.00971e-08 0.00158418)
(0.00490714 4.65526e-08 0.00227864)
(0.00453745 1.74984e-08 0.00293718)
(0.00407038 4.77352e-09 0.00354679)
(0.00351071 1.46445e-08 0.00408806)
(0.00286932 1.54239e-07 0.0045448)
(0.0021602 3.63914e-07 0.00488543)
(0.00139797 7.03757e-07 0.00506404)
(0.000609565 -7.43529e-07 0.00533121)
(0.000281302 6.4206e-06 -0.00633721)
(0.00102543 -1.4166e-06 -0.00569249)
(0.00181341 -7.22484e-07 -0.00561692)
(0.00256452 -2.11681e-07 -0.00537926)
(0.00325945 -5.49459e-08 -0.00495346)
(0.00390212 -5.52332e-08 -0.00443029)
(0.00448855 -4.46254e-08 -0.00382147)
(0.0050075 9.38096e-08 -0.00312478)
(0.0054514 -1.57781e-07 -0.00237227)
(0.0058067 -3.75978e-07 -0.00158626)
(0.00604831 -2.03126e-07 -0.000760989)
(0.0061607 -2.91569e-08 9.60185e-05)
(0.00614217 -3.86486e-08 0.000959513)
(0.00598826 -2.41798e-10 0.00180558)
(0.00569911 1.34083e-08 0.00261573)
(0.00528378 -2.54007e-08 0.00338356)
(0.00474999 7.58704e-08 0.00409746)
(0.00410639 1.22637e-07 0.00473272)
(0.00336485 1.77026e-07 0.00526978)
(0.00253821 3.08392e-07 0.0056732)
(0.00164554 7.25008e-07 0.0058921)
(0.000717559 -8.82486e-07 0.0062079)
(0.000318378 7.39472e-06 -0.00728815)
(0.00114111 -1.48157e-06 -0.00651117)
(0.00198584 -7.79683e-07 -0.00640003)
(0.00277399 -7.27298e-08 -0.00612052)
(0.0034995 1.48751e-07 -0.00564357)
(0.00417977 -8.88789e-08 -0.00506872)
(0.00482539 -4.46378e-08 -0.00440973)
(0.00543231 -5.46837e-08 -0.00365639)
(0.00598754 -2.03834e-07 -0.00282536)
(0.00645524 -1.3613e-07 -0.00193096)
(0.00679838 -1.16118e-07 -0.000975618)
(0.00699575 -1.39188e-07 2.3354e-05)
(0.00703258 1.52829e-08 0.00103538)
(0.00689873 1.45258e-07 0.00202913)
(0.00659956 5.76269e-08 0.00298321)
(0.00614373 5.49311e-08 0.00388654)
(0.00554005 8.75764e-08 0.00472611)
(0.00480355 -3.85443e-08 0.00547673)
(0.00394718 -5.64172e-08 0.00611512)
(0.00298531 1.07978e-08 0.00659839)
(0.00194218 5.87362e-07 0.00686736)
(0.000849022 -1.1431e-06 0.00724234)
(0.000361466 8.52332e-06 -0.00836484)
(0.00127279 -1.51805e-06 -0.00740057)
(0.00216142 -4.90937e-07 -0.00721447)
(0.00296331 -1.3044e-07 -0.0068785)
(0.00369086 1.38395e-08 -0.00635183)
(0.00437113 -1.70617e-08 -0.00574017)
(0.00503465 -3.28947e-08 -0.00506044)
(0.0057015 -5.08137e-08 -0.00428551)
(0.00636202 -4.09286e-08 -0.00340267)
(0.00697152 -6.69532e-08 -0.00240859)
(0.00747249 -1.14318e-07 -0.00131047)
(0.0078136 -6.20897e-08 -0.000142822)
(0.00795774 5.2253e-08 0.00104946)
(0.00789131 7.09114e-08 0.0022296)
(0.00761436 4.35647e-08 0.00336661)
(0.0071309 2.61805e-07 0.00444189)
(0.00645705 1.76415e-07 0.00543766)
(0.00561893 -6.96875e-08 0.0063322)
(0.00463325 -1.80466e-07 0.00709869)
(0.00351797 -1.67667e-07 0.00768412)
(0.00229765 4.81634e-07 0.00801889)
(0.00100756 -1.40314e-06 0.00846954)
(0.000411807 9.70154e-06 -0.00958338)
(0.00144341 -1.44793e-06 -0.00837691)
(0.00241255 -3.60524e-07 -0.00807055)
(0.00325373 -2.22232e-07 -0.00764187)
(0.00398304 -2.98865e-08 -0.00704155)
(0.00462609 1.17327e-07 -0.00639074)
(0.00523429 1.31889e-07 -0.00571191)
(0.00586662 9.79884e-08 -0.00496473)
(0.00655204 5.88055e-08 -0.00409094)
(0.00727148 -6.19656e-08 -0.00304713)
(0.00795668 -1.46892e-07 -0.0018264)
(0.00850924 -7.6343e-08 -0.000476136)
(0.00884547 -1.96957e-08 0.00093671)
(0.00892348 -1.39032e-07 0.00235637)
(0.00872584 -6.33232e-08 0.00373504)
(0.0082498 2.67873e-07 0.00503547)
(0.00752068 2.24577e-07 0.00623281)
(0.0065765 6.35381e-08 0.00730755)
(0.00544458 -1.79411e-07 0.00823326)
(0.00415184 -1.37138e-07 0.00895165)
(0.00272149 5.32447e-07 0.00937974)
(0.00119531 -1.53818e-06 0.00992866)
(0.000483175 1.12274e-05 -0.0109866)
(0.00170994 -1.6918e-06 -0.00949883)
(0.00285371 -2.64838e-07 -0.00903508)
(0.00381496 -4.94353e-08 -0.00845551)
(0.00459538 3.74066e-08 -0.00771866)
(0.00521329 2.42642e-07 -0.00697786)
(0.00572917 2.12598e-07 -0.0062729)
(0.00622768 -1.42828e-07 -0.00556473)
(0.00678567 -1.17647e-07 -0.00476961)
(0.00744952 -2.93023e-08 -0.0037846)
(0.00821394 -2.61307e-07 -0.00254126)
(0.00897814 -2.73863e-08 -0.00105433)
(0.00958629 1.0883e-07 0.000599462)
(0.00991414 -1.31905e-07 0.00232344)
(0.00988865 -1.57922e-07 0.00402665)
(0.00948813 -1.76807e-08 0.00563396)
(0.00874167 8.99492e-08 0.0071029)
(0.00769855 6.18095e-08 0.0084135)
(0.00640684 -1.62943e-07 0.00954276)
(0.00490765 -3.55423e-08 0.0104293)
(0.00323056 8.73565e-07 0.0109826)
(0.00142141 -1.78159e-06 0.0116617)
(0.000592598 1.34526e-05 -0.012675)
(0.00212643 -1.98004e-06 -0.0108735)
(0.00356202 -2.04163e-07 -0.0102063)
(0.00474593 7.44504e-10 -0.00940442)
(0.00566862 6.29684e-08 -0.00844823)
(0.00634166 2.9636e-07 -0.00753155)
(0.00681962 3.48602e-08 -0.00671464)
(0.00718159 -3.82246e-07 -0.00597848)
(0.00751424 -1.6403e-07 -0.00525457)
(0.00791961 -2.99787e-09 -0.00441315)
(0.00850241 -2.0083e-07 -0.00330745)
(0.00927513 -5.01995e-08 -0.00184956)
(0.0101008 -3.00146e-08 -3.782e-05)
(0.0107521 -1.32571e-07 0.00201802)
(0.0110203 -1.86653e-07 0.00413907)
(0.0108063 -2.74099e-07 0.0061683)
(0.0101151 -6.15509e-08 0.00801597)
(0.00900435 7.64191e-08 0.00964896)
(0.00754897 -2.07131e-08 0.0110461)
(0.00581534 3.02902e-08 0.0121489)
(0.00384768 1.12551e-06 0.0128711)
(0.00169772 -2.07215e-06 0.0137257)
(0.00074264 1.65653e-05 -0.014786)
(0.00269724 -2.28908e-06 -0.0126235)
(0.00453366 -3.6442e-07 -0.0116862)
(0.00604273 -1.38131e-07 -0.0105878)
(0.00721603 6.81536e-08 -0.00933315)
(0.00806448 1.02494e-07 -0.00815267)
(0.00862702 -2.04697e-07 -0.00711737)
(0.00895563 -2.16697e-07 -0.006234)
(0.0091155 -2.09768e-07 -0.00546979)
(0.00921534 -1.76417e-07 -0.00471752)
(0.00940213 7.00087e-08 -0.00382043)
(0.00982838 -9.15011e-08 -0.00259781)
(0.0105465 -2.38394e-07 -0.000875328)
(0.0113876 -3.52532e-08 0.00137329)
(0.0120123 -1.63476e-07 0.00393988)
(0.0121266 -5.22103e-07 0.00652248)
(0.0116125 -2.87251e-07 0.00890046)
(0.0105015 3.84521e-08 0.0109847)
(0.00889753 1.4355e-07 0.0127513)
(0.00690328 2.13131e-07 0.0141488)
(0.00459032 1.19726e-06 0.0151044)
(0.0020302 -2.68065e-06 0.0161941)
(0.000924305 2.03959e-05 -0.0174378)
(0.00339389 -2.90851e-06 -0.0148554)
(0.00573362 -5.00185e-07 -0.0135716)
(0.00767225 -1.68852e-07 -0.0121105)
(0.0092093 -1.02975e-07 -0.0104919)
(0.0103635 -2.62631e-07 -0.00896823)
(0.0111537 -1.45609e-07 -0.0076213)
(0.0116001 -1.51713e-08 -0.00646966)
(0.0117467 -2.67827e-07 -0.00550383)
(0.0116604 -2.02304e-07 -0.0046709)
(0.0114535 1.82967e-07 -0.0038674)
(0.0113252 -1.07202e-07 -0.0029101)
(0.011505 -3.53287e-07 -0.00152403)
(0.0120827 -9.42636e-08 0.000560682)
(0.0128558 -1.47741e-07 0.00336833)
(0.0133563 -4.6474e-07 0.00654768)
(0.0131701 -4.15756e-07 0.00963633)
(0.012174 -1.16521e-07 0.0123665)
(0.0104651 8.47172e-08 0.0146595)
(0.00819348 2.03211e-07 0.0164696)
(0.00547988 1.42858e-06 0.0177494)
(0.00242796 -3.29471e-06 0.019147)
(0.00113283 2.47602e-05 -0.0207183)
(0.00420326 -3.67285e-06 -0.0176619)
(0.00715861 -7.2543e-07 -0.0159719)
(0.00964599 -1.59575e-07 -0.0140904)
(0.0116724 -2.27852e-07 -0.0120454)
(0.0132623 -3.30663e-07 -0.0101124)
(0.01442 -1.24436e-08 -0.00838003)
(0.0151462 1.02094e-07 -0.00685467)
(0.0154548 -8.10749e-08 -0.00553476)
(0.0153623 -8.73172e-08 -0.00441881)
(0.0149252 6.89171e-08 -0.00347153)
(0.0142964 -1.44965e-07 -0.00258322)
(0.0137387 -4.00564e-07 -0.00152217)
(0.0135522 -2.31948e-07 9.67428e-05)
(0.0139014 -2.20079e-07 0.00266588)
(0.014517 -1.98353e-07 0.00617591)
(0.01472 -2.62116e-07 0.0100651)
(0.0139879 -3.71864e-07 0.013696)
(0.0122551 -1.19225e-07 0.0167518)
(0.00970737 2.63403e-07 0.0191496)
(0.00653681 1.70606e-06 0.0208749)
(0.00290221 -4.04596e-06 0.022672)
(0.00137548 2.97602e-05 -0.0247262)
(0.00514956 -4.56494e-06 -0.0211536)
(0.00884739 -9.98808e-07 -0.0190121)
(0.0120232 -1.55866e-07 -0.0166548)
(0.0146837 -1.76602e-07 -0.0141289)
(0.0168528 -1.36801e-07 -0.0117314)