/*--------------------------------*- C++ -*----------------------------------*\
  =========                 |
  \\      /  F ield         | OpenFOAM: The Open Source CFD Toolbox
   \\    /   O peration     | Website:  https://openfoam.org
    \\  /    A nd           | Version:  7
     \\/     M anipulation  |
\*---------------------------------------------------------------------------*/
FoamFile
{
    version     2.0;
    format      ascii;
    class       volVectorField;
    location    "6";
    object      ddt0(hU);
}
// * * * * * * * * * * * * * * * * * * * * * * * * * * * * * * * * * * * * * //

dimensions      [0 2 -2 0 0 0 0];

internalField   nonuniform List<vector> 
400
(
(-8.07791e-09 -4.54013e-09 0)
(-3.2321e-08 -3.71289e-09 0)
(-2.85064e-08 -6.5782e-10 0)
(-1.99491e-08 7.34921e-09 0)
(-1.11934e-08 9.57078e-09 0)
(-8.75873e-09 6.25441e-09 0)
(-4.71345e-09 5.9047e-09 0)
(-7.2479e-09 5.90109e-09 0)
(-1.98964e-08 1.38746e-08 0)
(-3.18904e-08 2.26151e-08 0)
(-4.03235e-08 1.35891e-08 0)
(-4.3254e-08 -4.57994e-09 0)
(-4.2218e-08 -1.90303e-08 0)
(-3.73459e-08 -2.83834e-08 0)
(-3.48118e-08 -3.09907e-08 0)
(-2.90681e-08 -2.96225e-08 0)
(-2.49375e-08 -2.64442e-08 0)
(-1.62874e-08 -2.42483e-08 0)
(-1.31684e-08 -2.22112e-08 0)
(-2.12572e-09 -2.15659e-08 0)
(-6.41503e-09 -9.64918e-09 0)
(-2.52452e-08 -2.20314e-08 0)
(-1.48207e-08 -4.84238e-08 0)
(-3.89718e-09 -5.04181e-08 0)
(-9.26931e-09 -3.40182e-08 0)
(-1.51606e-08 -2.16173e-08 0)
(-2.27408e-08 -9.9226e-09 0)
(-1.864e-08 2.35038e-09 0)
(-1.30081e-08 1.64368e-08 0)
(-1.82162e-08 1.72603e-08 0)
(-3.41689e-08 1.66849e-08 0)
(-3.89382e-08 8.49745e-09 0)
(-3.67389e-08 -1.46676e-09 0)
(-3.12148e-08 -1.04007e-08 0)
(-2.72928e-08 -1.28072e-08 0)
(-2.19619e-08 -1.01387e-08 0)
(-1.87179e-08 -5.94285e-09 0)
(-1.25158e-08 -1.71284e-09 0)
(-1.05143e-08 1.16788e-09 0)
(-1.48244e-09 4.06561e-09 0)
(-2.28175e-09 -1.39752e-08 0)
(-3.93597e-08 -4.01041e-08 0)
(-3.89479e-08 -5.6462e-08 0)
(-4.05275e-09 -6.64736e-08 0)
(5.90371e-09 -6.00978e-08 0)
(5.55321e-09 -4.46438e-08 0)
(2.95735e-09 -2.08432e-08 0)
(-4.46646e-09 9.83873e-09 0)
(-2.90879e-08 3.16549e-08 0)
(-3.80639e-08 3.38299e-08 0)
(-3.63579e-08 1.68926e-08 0)
(-3.91861e-08 -6.72482e-09 0)
(-4.06132e-08 -2.84466e-08 0)
(-3.4994e-08 -4.4916e-08 0)
(-2.86002e-08 -5.1311e-08 0)
(-2.06665e-08 -5.13067e-08 0)
(-1.65995e-08 -4.77023e-08 0)
(-1.00641e-08 -4.28923e-08 0)
(-8.10456e-09 -3.7476e-08 0)
(3.30183e-09 -3.34209e-08 0)
(-5.21741e-09 -1.92264e-08 0)
(-9.33964e-09 -5.29628e-08 0)
(-9.20275e-09 -6.82103e-08 0)
(-1.17391e-08 -6.98886e-08 0)
(-5.92069e-09 -6.63238e-08 0)
(-7.17378e-09 -5.43553e-08 0)
(-8.12926e-09 -3.02195e-08 0)
(-1.29426e-08 5.26146e-09 0)
(-1.13334e-08 3.71751e-08 0)
(-2.67228e-08 5.44859e-08 0)
(-4.11105e-08 4.33059e-08 0)
(-3.98957e-08 1.57803e-08 0)
(-3.60033e-08 -9.585e-09 0)
(-2.86641e-08 -2.89807e-08 0)
(-2.06373e-08 -3.74884e-08 0)
(-1.27256e-08 -4.01686e-08 0)
(-8.21446e-09 -3.80522e-08 0)
(-3.20809e-09 -3.19035e-08 0)
(-1.03289e-09 -2.41051e-08 0)
(7.51009e-09 -1.63067e-08 0)
(-2.4267e-09 -2.33505e-08 0)
(-2.39858e-08 -6.77021e-08 0)
(-8.14811e-09 -1.08351e-07 0)
(6.26676e-09 -1.17104e-07 0)
(5.49445e-09 -1.10196e-07 0)
(5.29803e-09 -9.18167e-08 0)
(4.96836e-09 -5.62764e-08 0)
(-5.45362e-09 -7.83896e-09 0)
(-2.36826e-08 3.69506e-08 0)
(-3.25563e-08 4.38287e-08 0)
(-3.7458e-08 3.25359e-08 0)
(-3.96716e-08 5.29738e-09 0)
(-3.62683e-08 -2.21777e-08 0)
(-2.78092e-08 -4.43233e-08 0)
(-1.88326e-08 -5.6127e-08 0)
(-9.60946e-09 -6.25256e-08 0)
(-3.54044e-09 -6.41615e-08 0)
(4.2365e-09 -5.87274e-08 0)
(7.75476e-09 -5.16407e-08 0)
(1.85365e-08 -4.23962e-08 0)
(-1.73436e-09 -2.724e-08 0)
(-1.33261e-08 -7.89757e-08 0)
(-1.81626e-09 -1.10057e-07 0)
(4.2091e-09 -1.27485e-07 0)
(6.83823e-09 -1.29774e-07 0)
(6.33106e-09 -1.14121e-07 0)
(3.55145e-09 -7.31931e-08 0)
(9.54187e-10 -1.96297e-08 0)
(-9.38201e-09 2.46352e-08 0)
(-2.68946e-08 4.4479e-08 0)
(-3.2388e-08 3.2291e-08 0)
(-3.27951e-08 5.61727e-09 0)
(-2.96752e-08 -1.87295e-08 0)
(-2.21264e-08 -3.76666e-08 0)
(-1.41171e-08 -4.73781e-08 0)
(-5.58193e-09 -5.34935e-08 0)
(2.01029e-09 -5.5041e-08 0)
(1.02735e-08 -5.03025e-08 0)
(1.62039e-08 -4.34367e-08 0)
(2.54642e-08 -3.53805e-08 0)
(-1.9511e-09 -3.19667e-08 0)
(-7.22912e-09 -9.11177e-08 0)
(-4.22658e-10 -1.29048e-07 0)
(6.24568e-09 -1.49113e-07 0)
(7.72904e-09 -1.55929e-07 0)
(8.43671e-09 -1.39857e-07 0)
(9.05521e-09 -9.28196e-08 0)
(-2.52922e-11 -3.1814e-08 0)
(-9.95067e-09 1.08035e-08 0)
(-1.79821e-08 2.77484e-08 0)
(-2.62877e-08 1.68567e-08 0)
(-2.70397e-08 -7.8313e-09 0)
(-2.33299e-08 -2.88833e-08 0)
(-1.71768e-08 -4.47374e-08 0)
(-1.09124e-08 -5.19614e-08 0)
(-2.8702e-09 -5.64784e-08 0)
(6.02274e-09 -5.7896e-08 0)
(1.64619e-08 -5.37288e-08 0)
(2.39043e-08 -5.04016e-08 0)
(3.43706e-08 -4.42396e-08 0)
(-5.94151e-10 -3.76786e-08 0)
(-4.25657e-09 -1.04594e-07 0)
(1.69586e-09 -1.43732e-07 0)
(6.5464e-09 -1.66747e-07 0)
(7.31374e-09 -1.79763e-07 0)
(9.8962e-09 -1.64623e-07 0)
(7.53664e-09 -1.14876e-07 0)
(2.49874e-09 -4.94526e-08 0)
(-4.70779e-09 1.7626e-09 0)
(-1.1981e-08 1.70958e-08 0)
(-1.70541e-08 6.35001e-09 0)
(-1.83569e-08 -1.48718e-08 0)
(-1.71025e-08 -3.04892e-08 0)
(-1.3986e-08 -4.03245e-08 0)
(-9.56604e-09 -4.13172e-08 0)
(-2.26383e-09 -4.09254e-08 0)
(7.11051e-09 -4.01958e-08 0)
(1.76495e-08 -3.77231e-08 0)
(2.567e-08 -4.04711e-08 0)
(3.48369e-08 -4.20065e-08 0)
(-3.13934e-11 -4.27075e-08 0)
(-2.14715e-09 -1.16715e-07 0)
(2.7442e-09 -1.54892e-07 0)
(4.32287e-09 -1.82032e-07 0)
(6.1451e-09 -1.98585e-07 0)
(7.24417e-09 -1.8509e-07 0)
(6.63805e-09 -1.32185e-07 0)
(3.28192e-09 -6.22785e-08 0)
(-9.50042e-10 -1.08221e-08 0)
(-5.97818e-09 5.10877e-09 0)
(-9.92597e-09 -5.59511e-09 0)
(-1.09149e-08 -2.46869e-08 0)
(-1.06144e-08 -3.55051e-08 0)
(-9.42992e-09 -3.86588e-08 0)
(-6.73788e-09 -3.22551e-08 0)
(-1.40452e-09 -2.58377e-08 0)
(5.79118e-09 -2.2419e-08 0)
(1.36155e-08 -2.15808e-08 0)
(1.96316e-08 -3.0846e-08 0)
(2.63693e-08 -4.05271e-08 0)
(-2.00617e-10 -4.65319e-08 0)
(-4.88234e-10 -1.22494e-07 0)
(1.23306e-09 -1.62612e-07 0)
(1.70784e-09 -1.89056e-07 0)
(2.36122e-09 -2.07424e-07 0)
(2.85933e-09 -1.94328e-07 0)
(2.75237e-09 -1.40637e-07 0)
(1.62973e-09 -6.96293e-08 0)
(3.87374e-10 -1.80498e-08 0)
(-1.75017e-09 -2.03062e-09 0)
(-3.09883e-09 -1.12303e-08 0)
(-3.33002e-09 -2.8203e-08 0)
(-3.42655e-09 -3.60617e-08 0)
(-3.30013e-09 -3.52003e-08 0)
(-2.44308e-09 -2.43669e-08 0)
(-4.88034e-10 -1.42716e-08 0)
(2.19852e-09 -9.31259e-09 0)
(5.08422e-09 -9.65665e-09 0)
(7.3463e-09 -2.33027e-08 0)
(9.88846e-09 -3.86254e-08 0)
(2.0674e-10 -4.65433e-08 0)
(4.76478e-10 -1.22512e-07 0)
(-1.24893e-09 -1.62636e-07 0)
(-1.74095e-09 -1.89073e-07 0)
(-2.41222e-09 -2.07422e-07 0)
(-2.92748e-09 -1.9433e-07 0)
(-2.81898e-09 -1.40655e-07 0)
(-1.70153e-09 -6.96427e-08 0)
(-4.34191e-10 -1.80574e-08 0)
(1.71712e-09 -2.04148e-09 0)
(3.05655e-09 -1.12269e-08 0)
(3.30327e-09 -2.81841e-08 0)
(3.43449e-09 -3.60418e-08 0)
(3.32269e-09 -3.51882e-08 0)
(2.46307e-09 -2.43623e-08 0)
(4.93761e-10 -1.42702e-08 0)
(-2.19902e-09 -9.31133e-09 0)
(-5.08542e-09 -9.65491e-09 0)
(-7.34498e-09 -2.33019e-08 0)
(-9.88815e-09 -3.86244e-08 0)
(4.07611e-11 -4.27337e-08 0)
(2.13161e-09 -1.16769e-07 0)
(-2.76699e-09 -1.5495e-07 0)
(-4.35142e-09 -1.82077e-07 0)
(-6.19755e-09 -1.98609e-07 0)
(-7.31312e-09 -1.85126e-07 0)
(-6.71311e-09 -1.32219e-07 0)
(-3.34113e-09 -6.23092e-08 0)
(8.88097e-10 -1.08302e-08 0)
(5.94689e-09 5.1047e-09 0)
(9.92168e-09 -5.58564e-09 0)
(1.09122e-08 -2.46559e-08 0)
(1.06153e-08 -3.547e-08 0)
(9.43439e-09 -3.86348e-08 0)
(6.74706e-09 -3.22441e-08 0)
(1.40928e-09 -2.58322e-08 0)
(-5.78867e-09 -2.2413e-08 0)
(-1.36146e-08 -2.15729e-08 0)
(-1.96298e-08 -3.08406e-08 0)
(-2.63683e-08 -4.05213e-08 0)
(5.9491e-10 -3.77147e-08 0)
(4.2357e-09 -1.04666e-07 0)
(-1.72316e-09 -1.43804e-07 0)
(-6.57962e-09 -1.66809e-07 0)
(-7.36831e-09 -1.79829e-07 0)
(-9.96386e-09 -1.64684e-07 0)
(-7.61096e-09 -1.1492e-07 0)
(-2.55474e-09 -4.94956e-08 0)
(4.65863e-09 1.73716e-09 0)
(1.19292e-08 1.71018e-08 0)
(1.70349e-08 6.36622e-09 0)
(1.83563e-08 -1.48515e-08 0)
(1.71009e-08 -3.04686e-08 0)
(1.39809e-08 -4.03086e-08 0)
(9.56961e-09 -4.13098e-08 0)
(2.27134e-09 -4.09224e-08 0)
(-7.10143e-09 -4.01916e-08 0)
(-1.76447e-08 -3.77159e-08 0)
(-2.56669e-08 -4.04673e-08 0)
(-3.48364e-08 -4.20014e-08 0)
(1.95897e-09 -3.20051e-08 0)
(7.20644e-09 -9.11944e-08 0)
(3.8416e-10 -1.29129e-07 0)
(-6.28967e-09 -1.49185e-07 0)
(-7.78026e-09 -1.55992e-07 0)
(-8.50121e-09 -1.39905e-07 0)
(-9.11685e-09 -9.28769e-08 0)
(-4.24532e-11 -3.18653e-08 0)
(9.91369e-09 1.0761e-08 0)
(1.79559e-08 2.77322e-08 0)
(2.62589e-08 1.6865e-08 0)
(2.70191e-08 -7.81573e-09 0)
(2.33163e-08 -2.88659e-08 0)
(1.7164e-08 -4.47166e-08 0)
(1.09111e-08 -5.19426e-08 0)
(2.87837e-09 -5.6462e-08 0)
(-6.00899e-09 -5.78794e-08 0)
(-1.64512e-08 -5.37088e-08 0)
(-2.38995e-08 -5.03847e-08 0)
(-3.43669e-08 -4.42187e-08 0)
(1.74438e-09 -2.72804e-08 0)
(1.32999e-08 -7.90555e-08 0)
(1.76293e-09 -1.10144e-07 0)
(-4.25199e-09 -1.27558e-07 0)
(-6.88718e-09 -1.29819e-07 0)
(-6.38714e-09 -1.14174e-07 0)
(-3.60938e-09 -7.32483e-08 0)
(-1.00814e-09 -1.96792e-08 0)
(9.33094e-09 2.45917e-08 0)
(2.68632e-08 4.44526e-08 0)
(3.23665e-08 3.22827e-08 0)
(3.27796e-08 5.61893e-09 0)
(2.96706e-08 -1.87265e-08 0)
(2.21233e-08 -3.76601e-08 0)
(1.41225e-08 -4.73707e-08 0)
(5.59418e-09 -5.34877e-08 0)
(-1.9895e-09 -5.50366e-08 0)
(-1.02552e-08 -5.0298e-08 0)
(-1.61897e-08 -4.34383e-08 0)
(-2.54564e-08 -3.53799e-08 0)
(2.44516e-09 -2.33805e-08 0)
(2.39653e-08 -6.77843e-08 0)
(8.08496e-09 -1.08424e-07 0)
(-6.3183e-09 -1.17149e-07 0)
(-5.53257e-09 -1.10219e-07 0)
(-5.34658e-09 -9.18506e-08 0)
(-5.01102e-09 -5.63178e-08 0)
(5.40462e-09 -7.89669e-09 0)
(2.36205e-08 3.69204e-08 0)
(3.2533e-08 4.38027e-08 0)
(3.74377e-08 3.25226e-08 0)
(3.96531e-08 5.30787e-09 0)
(3.62561e-08 -2.21623e-08 0)
(2.7798e-08 -4.43052e-08 0)
(1.88271e-08 -5.611e-08 0)
(9.60855e-09 -6.25081e-08 0)
(3.54478e-09 -6.41445e-08 0)
(-4.23006e-09 -5.87073e-08 0)
(-7.75176e-09 -5.16279e-08 0)
(-1.8536e-08 -4.23685e-08 0)
(5.21754e-09 -1.92549e-08 0)
(9.30181e-09 -5.30207e-08 0)
(9.18833e-09 -6.82617e-08 0)
(1.1688e-08 -6.99445e-08 0)
(5.86064e-09 -6.63676e-08 0)
(7.12532e-09 -5.4378e-08 0)
(8.07325e-09 -3.02611e-08 0)
(1.29257e-08 5.2246e-09 0)
(1.13321e-08 3.71599e-08 0)
(2.667e-08 5.4474e-08 0)
(4.11025e-08 4.3302e-08 0)
(3.98966e-08 1.57837e-08 0)
(3.60014e-08 -9.58711e-09 0)
(2.86645e-08 -2.89819e-08 0)
(2.06514e-08 -3.74867e-08 0)
(1.27484e-08 -4.01651e-08 0)
(8.24516e-09 -3.80452e-08 0)
(3.24497e-09 -3.18984e-08 0)
(1.06833e-09 -2.41038e-08 0)
(-7.47436e-09 -1.6301e-08 0)
(2.30127e-09 -1.40059e-08 0)
(3.93776e-08 -4.01565e-08 0)
(3.88612e-08 -5.65312e-08 0)
(3.9739e-09 -6.65213e-08 0)
(-5.94626e-09 -6.0131e-08 0)
(-5.58292e-09 -4.46579e-08 0)
(-2.99562e-09 -2.08715e-08 0)
(4.38867e-09 9.81757e-09 0)
(2.90233e-08 3.1611e-08 0)
(3.8017e-08 3.38173e-08 0)
(3.63426e-08 1.68904e-08 0)
(3.91692e-08 -6.73232e-09 0)
(4.05931e-08 -2.84557e-08 0)
(3.49806e-08 -4.49181e-08 0)
(2.85934e-08 -5.1311e-08 0)
(2.06585e-08 -5.13021e-08 0)
(1.65923e-08 -4.76982e-08 0)
(1.00596e-08 -4.2884e-08 0)
(8.0995e-09 -3.74744e-08 0)
(-3.30809e-09 -3.34079e-08 0)
(6.43373e-09 -9.66123e-09 0)
(2.52258e-08 -2.20712e-08 0)
(1.47615e-08 -4.84677e-08 0)
(3.84949e-09 -5.04178e-08 0)
(9.22394e-09 -3.40194e-08 0)
(1.51203e-08 -2.16229e-08 0)
(2.27085e-08 -9.91976e-09 0)
(1.8652e-08 2.35489e-09 0)
(1.30025e-08 1.64303e-08 0)
(1.8194e-08 1.72716e-08 0)
(3.4133e-08 1.66915e-08 0)
(3.89166e-08 8.49684e-09 0)
(3.6745e-08 -1.46098e-09 0)
(3.12415e-08 -1.03907e-08 0)
(2.73319e-08 -1.2797e-08 0)
(2.20072e-08 -1.01293e-08 0)
(1.87664e-08 -5.93496e-09 0)
(1.25742e-08 -1.7038e-09 0)
(1.05728e-08 1.17233e-09 0)
(1.55211e-09 4.07892e-09 0)
(8.09951e-09 -4.54424e-09 0)
(3.23096e-08 -3.7263e-09 0)
(2.84687e-08 -6.67061e-10 0)
(1.98888e-08 7.348e-09 0)
(1.11366e-08 9.56758e-09 0)
(8.71428e-09 6.24956e-09 0)
(4.69606e-09 5.90768e-09 0)
(7.21604e-09 5.91123e-09 0)
(1.9868e-08 1.38806e-08 0)
(3.18718e-08 2.26251e-08 0)
(4.02814e-08 1.3589e-08 0)
(4.32258e-08 -4.59472e-09 0)
(4.22034e-08 -1.90525e-08 0)
(3.73277e-08 -2.84073e-08 0)
(3.47891e-08 -3.1009e-08 0)
(2.90426e-08 -2.96362e-08 0)
(2.49127e-08 -2.64525e-08 0)
(1.62681e-08 -2.42563e-08 0)
(1.31512e-08 -2.22162e-08 0)
(2.11555e-09 -2.15754e-08 0)
)
;

boundaryField
{
    sides
    {
        type            calculated;
        value           nonuniform List<vector> 
40
(
(8.09951e-09 0 0)
(3.23096e-08 0 0)
(2.84687e-08 0 0)
(1.98888e-08 0 0)
(1.11366e-08 0 0)
(8.71428e-09 0 0)
(4.69606e-09 0 0)
(7.21604e-09 0 0)
(1.9868e-08 0 0)
(3.18718e-08 0 0)
(4.02814e-08 0 0)
(4.32258e-08 0 0)
(4.22034e-08 0 0)
(3.73277e-08 0 0)
(3.47891e-08 0 0)
(2.90426e-08 0 0)
(2.49127e-08 0 0)
(1.62681e-08 0 0)
(1.31512e-08 0 0)
(2.11555e-09 0 0)
(-8.07791e-09 0 0)
(-3.2321e-08 0 0)
(-2.85064e-08 0 0)
(-1.99491e-08 0 0)
(-1.11934e-08 0 0)
(-8.75873e-09 0 0)
(-4.71345e-09 0 0)
(-7.2479e-09 0 0)
(-1.98964e-08 0 0)
(-3.18904e-08 0 0)
(-4.03235e-08 0 0)
(-4.3254e-08 0 0)
(-4.2218e-08 0 0)
(-3.73459e-08 0 0)
(-3.48118e-08 0 0)
(-2.90681e-08 0 0)
(-2.49375e-08 0 0)
(-1.62874e-08 0 0)
(-1.31684e-08 0 0)
(-2.12572e-09 0 0)
)
;
    }
    inlet
    {
        type            calculated;
        value           uniform (0 0 0);
    }
    outlet
    {
        type            calculated;
        value           nonuniform List<vector> 
20
(
(-2.12572e-09 -2.15659e-08 0)
(-1.48244e-09 4.06561e-09 0)
(3.30183e-09 -3.34209e-08 0)
(7.51009e-09 -1.63067e-08 0)
(1.85365e-08 -4.23962e-08 0)
(2.54642e-08 -3.53805e-08 0)
(3.43706e-08 -4.42396e-08 0)
(3.48369e-08 -4.20065e-08 0)
(2.63693e-08 -4.05271e-08 0)
(9.88846e-09 -3.86254e-08 0)
(-9.88815e-09 -3.86244e-08 0)
(-2.63683e-08 -4.05213e-08 0)
(-3.48364e-08 -4.20014e-08 0)
(-3.43669e-08 -4.42187e-08 0)
(-2.54564e-08 -3.53799e-08 0)
(-1.8536e-08 -4.23685e-08 0)
(-7.47436e-09 -1.6301e-08 0)
(-3.30809e-09 -3.34079e-08 0)
(1.55211e-09 4.07892e-09 0)
(2.11555e-09 -2.15754e-08 0)
)
;
    }
    frontAndBack
    {
        type            empty;
    }
}


// ************************************************************************* //
