/*--------------------------------*- C++ -*----------------------------------*\
  =========                 |
  \\      /  F ield         | OpenFOAM: The Open Source CFD Toolbox
   \\    /   O peration     | Website:  https://openfoam.org
    \\  /    A nd           | Version:  7
     \\/     M anipulation  |
\*---------------------------------------------------------------------------*/
FoamFile
{
    version     2.0;
    format      ascii;
    class       volVectorField;
    location    "6";
    object      hU_0;
}
// * * * * * * * * * * * * * * * * * * * * * * * * * * * * * * * * * * * * * //

dimensions      [0 2 -1 0 0 0 0];

internalField   nonuniform List<vector> 
400
(
(0.000999989 -9.80081e-09 0)
(0.00100002 -2.56888e-08 0)
(0.00100006 -3.90529e-08 0)
(0.00100007 -5.1037e-08 0)
(0.00100007 -6.11988e-08 0)
(0.00100007 -6.82069e-08 0)
(0.00100006 -7.42077e-08 0)
(0.00100005 -8.15869e-08 0)
(0.00100003 -9.19937e-08 0)
(0.00100004 -1.09036e-07 0)
(0.00100005 -1.28882e-07 0)
(0.00100007 -1.44601e-07 0)
(0.0010001 -1.52084e-07 0)
(0.00100014 -1.60102e-07 0)
(0.00100017 -1.60523e-07 0)
(0.00100023 -1.72748e-07 0)
(0.00100025 -1.70169e-07 0)
(0.00100036 -1.98884e-07 0)
(0.00100037 -1.91312e-07 0)
(0.00100057 -2.65689e-07 0)
(0.00099999 1.7009e-09 0)
(0.00100003 8.50514e-09 0)
(0.00100007 2.24634e-08 0)
(0.00100008 4.13456e-08 0)
(0.00100008 5.81266e-08 0)
(0.00100008 7.17118e-08 0)
(0.00100008 8.27268e-08 0)
(0.00100007 8.92757e-08 0)
(0.00100006 8.65415e-08 0)
(0.00100005 8.0103e-08 0)
(0.00100005 7.30787e-08 0)
(0.00100007 6.43547e-08 0)
(0.00100009 5.96406e-08 0)
(0.00100013 5.02436e-08 0)
(0.00100015 4.98551e-08 0)
(0.0010002 3.27371e-08 0)
(0.00100023 3.55353e-08 0)
(0.00100031 -3.98178e-09 0)
(0.00100033 2.82905e-09 0)
(0.00100045 -9.63848e-08 0)
(0.000999989 -8.96179e-09 0)
(0.00100002 -2.07055e-08 0)
(0.00100005 -2.34165e-08 0)
(0.00100007 -2.09658e-08 0)
(0.00100007 -1.76793e-08 0)
(0.00100006 -1.59065e-08 0)
(0.00100005 -1.78582e-08 0)
(0.00100003 -2.9381e-08 0)
(0.00100003 -5.10668e-08 0)
(0.00100003 -8.32445e-08 0)
(0.00100005 -1.13305e-07 0)
(0.00100006 -1.3846e-07 0)
(0.00100009 -1.54347e-07 0)
(0.00100012 -1.70902e-07 0)
(0.00100015 -1.78363e-07 0)
(0.00100019 -2.00972e-07 0)
(0.00100022 -2.07243e-07 0)
(0.00100029 -2.50837e-07 0)
(0.00100031 -2.54956e-07 0)
(0.00100042 -3.44155e-07 0)
(0.000999992 -7.38062e-09 0)
(0.00100002 -1.00103e-08 0)
(0.00100005 6.02134e-10 0)
(0.00100007 1.80756e-08 0)
(0.00100007 3.75445e-08 0)
(0.00100007 5.61294e-08 0)
(0.00100007 6.86952e-08 0)
(0.00100006 6.72428e-08 0)
(0.00100005 4.90858e-08 0)
(0.00100004 1.91143e-08 0)
(0.00100005 -1.2678e-08 0)
(0.00100006 -3.95643e-08 0)
(0.00100008 -5.59688e-08 0)
(0.0010001 -7.43696e-08 0)
(0.00100013 -8.3362e-08 0)
(0.00100016 -1.11676e-07 0)
(0.00100019 -1.20868e-07 0)
(0.00100024 -1.74711e-07 0)
(0.00100026 -1.80741e-07 0)
(0.00100034 -2.85644e-07 0)
(0.000999992 -1.16242e-08 0)
(0.00100002 -1.83692e-08 0)
(0.00100005 -9.46452e-09 0)
(0.00100006 7.24116e-09 0)
(0.00100006 2.42148e-08 0)
(0.00100005 3.74001e-08 0)
(0.00100005 3.93261e-08 0)
(0.00100003 2.13212e-08 0)
(0.00100003 -1.71625e-08 0)
(0.00100003 -6.41355e-08 0)
(0.00100004 -1.07011e-07 0)
(0.00100006 -1.41812e-07 0)
(0.00100007 -1.64072e-07 0)
(0.00100009 -1.85286e-07 0)
(0.00100011 -1.96781e-07 0)
(0.00100014 -2.24987e-07 0)
(0.00100017 -2.36193e-07 0)
(0.00100021 -2.86013e-07 0)
(0.00100023 -2.95013e-07 0)
(0.00100029 -3.85277e-07 0)
(0.000999993 -1.39831e-08 0)
(0.00100001 -1.86033e-08 0)
(0.00100004 -7.68878e-09 0)
(0.00100005 1.05909e-08 0)
(0.00100005 3.28984e-08 0)
(0.00100005 5.41996e-08 0)
(0.00100005 6.35865e-08 0)
(0.00100004 5.04542e-08 0)
(0.00100004 1.54756e-08 0)
(0.00100003 -3.43662e-08 0)
(0.00100004 -8.26546e-08 0)
(0.00100005 -1.21398e-07 0)
(0.00100006 -1.46521e-07 0)
(0.00100007 -1.70183e-07 0)
(0.00100009 -1.84322e-07 0)
(0.00100011 -2.15872e-07 0)
(0.00100013 -2.30433e-07 0)
(0.00100017 -2.84666e-07 0)
(0.00100018 -2.95943e-07 0)
(0.00100023 -3.90324e-07 0)
(0.000999995 -1.59051e-08 0)
(0.00100001 -1.96529e-08 0)
(0.00100003 -6.94895e-09 0)
(0.00100004 1.34218e-08 0)
(0.00100004 3.87242e-08 0)
(0.00100004 6.22227e-08 0)
(0.00100004 6.89367e-08 0)
(0.00100003 4.63759e-08 0)
(0.00100003 -5.2865e-09 0)
(0.00100003 -6.65765e-08 0)
(0.00100003 -1.22119e-07 0)
(0.00100004 -1.65313e-07 0)
(0.00100005 -1.92983e-07 0)
(0.00100006 -2.17174e-07 0)
(0.00100007 -2.30804e-07 0)
(0.00100009 -2.60519e-07 0)
(0.0010001 -2.73274e-07 0)
(0.00100013 -3.2425e-07 0)
(0.00100014 -3.34462e-07 0)
(0.00100018 -4.22633e-07 0)
(0.000999996 -1.71769e-08 0)
(0.00100001 -1.97515e-08 0)
(0.00100002 -5.91673e-09 0)
(0.00100003 1.46523e-08 0)
(0.00100003 4.13725e-08 0)
(0.00100003 6.67728e-08 0)
(0.00100003 7.32961e-08 0)
(0.00100002 4.8251e-08 0)
(0.00100002 -4.15302e-09 0)
(0.00100002 -7.0233e-08 0)
(0.00100002 -1.31408e-07 0)
(0.00100003 -1.7921e-07 0)
(0.00100004 -2.10165e-07 0)
(0.00100004 -2.36146e-07 0)
(0.00100005 -2.50591e-07 0)
(0.00100006 -2.80188e-07 0)
(0.00100007 -2.9256e-07 0)
(0.00100009 -3.42493e-07 0)
(0.0010001 -3.52462e-07 0)
(0.00100012 -4.37895e-07 0)
(0.000999998 -1.80273e-08 0)
(0.00100001 -1.96093e-08 0)
(0.00100001 -5.38885e-09 0)
(0.00100002 1.52282e-08 0)
(0.00100002 4.31991e-08 0)
(0.00100002 7.03522e-08 0)
(0.00100002 7.72112e-08 0)
(0.00100001 4.93679e-08 0)
(0.00100001 -9.51028e-09 0)
(0.00100001 -8.10591e-08 0)
(0.00100002 -1.4622e-07 0)
(0.00100002 -1.96589e-07 0)
(0.00100002 -2.29104e-07 0)
(0.00100003 -2.5561e-07 0)
(0.00100003 -2.69893e-07 0)
(0.00100004 -2.98529e-07 0)
(0.00100004 -3.09621e-07 0)
(0.00100005 -3.57721e-07 0)
(0.00100006 -3.66692e-07 0)
(0.00100007 -4.49559e-07 0)
(0.000999999 -1.85407e-08 0)
(0.001 -1.94361e-08 0)
(0.001 -5.20564e-09 0)
(0.00100001 1.53591e-08 0)
(0.00100001 4.39229e-08 0)
(0.00100001 7.20263e-08 0)
(0.00100001 7.85814e-08 0)
(0.001 4.88038e-08 0)
(0.001 -1.23032e-08 0)
(0.001 -8.60626e-08 0)
(0.00100001 -1.53173e-07 0)
(0.00100001 -2.05058e-07 0)
(0.00100001 -2.38589e-07 0)
(0.00100001 -2.6549e-07 0)
(0.00100001 -2.79724e-07 0)
(0.00100001 -3.07814e-07 0)
(0.00100001 -3.18104e-07 0)
(0.00100002 -3.65101e-07 0)
(0.00100002 -3.73463e-07 0)
(0.00100002 -4.55022e-07 0)
(0.001 -1.85416e-08 0)
(0.000999998 -1.94352e-08 0)
(0.000999995 -5.20362e-09 0)
(0.000999994 1.53597e-08 0)
(0.000999994 4.39218e-08 0)
(0.000999994 7.20255e-08 0)
(0.000999995 7.85794e-08 0)
(0.000999995 4.88016e-08 0)
(0.000999996 -1.23054e-08 0)
(0.000999995 -8.60638e-08 0)
(0.000999995 -1.53174e-07 0)
(0.000999994 -2.05058e-07 0)
(0.000999993 -2.3859e-07 0)
(0.000999991 -2.6549e-07 0)
(0.00099999 -2.79724e-07 0)
(0.000999987 -3.07811e-07 0)
(0.000999985 -3.18102e-07 0)
(0.000999982 -3.65096e-07 0)
(0.00099998 -3.73458e-07 0)
(0.000999975 -4.55014e-07 0)
(0.001 -1.80314e-08 0)
(0.000999995 -1.96078e-08 0)
(0.000999986 -5.38273e-09 0)
(0.000999983 1.52324e-08 0)
(0.000999982 4.31988e-08 0)
(0.000999982 7.03479e-08 0)
(0.000999984 7.72046e-08 0)
(0.000999986 4.93619e-08 0)
(0.000999987 -9.51722e-09 0)
(0.000999987 -8.10656e-08 0)
(0.000999985 -1.46225e-07 0)
(0.000999981 -1.96591e-07 0)
(0.000999978 -2.29106e-07 0)
(0.000999974 -2.55609e-07 0)
(0.000999969 -2.69891e-07 0)
(0.000999962 -2.98521e-07 0)
(0.000999956 -3.09612e-07 0)
(0.000999945 -3.57705e-07 0)
(0.00099994 -3.66677e-07 0)
(0.000999926 -4.49532e-07 0)
(0.001 -1.71828e-08 0)
(0.000999991 -1.97492e-08 0)
(0.000999978 -5.90649e-09 0)
(0.000999972 1.46623e-08 0)
(0.00099997 4.13746e-08 0)
(0.000999971 6.6766e-08 0)
(0.000999974 7.32876e-08 0)
(0.000999977 4.82444e-08 0)
(0.000999979 -4.15739e-09 0)
(0.000999979 -7.02386e-08 0)
(0.000999975 -1.31416e-07 0)
(0.00099997 -1.79217e-07 0)
(0.000999964 -2.10172e-07 0)
(0.000999957 -2.36148e-07 0)
(0.000999949 -2.50592e-07 0)
(0.000999936 -2.8018e-07 0)
(0.000999926 -2.92552e-07 0)
(0.000999909 -3.42473e-07 0)
(0.0009999 -3.52442e-07 0)
(0.000999876 -4.37855e-07 0)
(0.00100001 -1.59112e-08 0)
(0.000999988 -1.96504e-08 0)
(0.000999969 -6.93625e-09 0)
(0.000999961 1.34359e-08 0)
(0.000999959 3.87287e-08 0)
(0.00099996 6.22178e-08 0)
(0.000999964 6.89278e-08 0)
(0.000999971 4.63682e-08 0)
(0.000999975 -5.28867e-09 0)
(0.000999973 -6.65761e-08 0)
(0.000999967 -1.2212e-07 0)
(0.000999959 -1.65311e-07 0)
(0.000999951 -1.9298e-07 0)
(0.000999939 -2.17163e-07 0)
(0.000999928 -2.30792e-07 0)
(0.00099991 -2.60495e-07 0)
(0.000999896 -2.73249e-07 0)
(0.000999871 -3.24208e-07 0)
(0.000999859 -3.3442e-07 0)
(0.000999824 -4.22563e-07 0)
(0.00100001 -1.39899e-08 0)
(0.000999986 -1.86021e-08 0)
(0.000999962 -7.67626e-09 0)
(0.000999952 1.06054e-08 0)
(0.00099995 3.29061e-08 0)
(0.000999952 5.41979e-08 0)
(0.000999954 6.35821e-08 0)
(0.000999957 5.0454e-08 0)
(0.000999963 1.54749e-08 0)
(0.000999966 -3.43673e-08 0)
(0.000999962 -8.26592e-08 0)
(0.000999953 -1.21405e-07 0)
(0.000999941 -1.46531e-07 0)
(0.000999925 -1.70187e-07 0)
(0.000999909 -1.8433e-07 0)
(0.000999886 -2.15868e-07 0)
(0.000999867 -2.30434e-07 0)
(0.000999834 -2.84649e-07 0)
(0.000999818 -2.95931e-07 0)
(0.000999772 -3.90279e-07 0)
(0.00100001 -1.16322e-08 0)
(0.000999984 -1.83688e-08 0)
(0.000999953 -9.44773e-09 0)
(0.000999941 7.26182e-09 0)
(0.000999942 2.42277e-08 0)
(0.000999946 3.74011e-08 0)
(0.000999954 3.93197e-08 0)
(0.000999966 2.13182e-08 0)
(0.000999972 -1.71589e-08 0)
(0.000999967 -6.41287e-08 0)
(0.000999957 -1.07002e-07 0)
(0.000999944 -1.41799e-07 0)
(0.000999928 -1.64061e-07 0)
(0.000999907 -1.85265e-07 0)
(0.000999886 -1.96762e-07 0)
(0.000999856 -2.24948e-07 0)
(0.000999833 -2.36157e-07 0)
(0.00099979 -2.85945e-07 0)
(0.000999774 -2.94949e-07 0)
(0.000999709 -3.85156e-07 0)
(0.00100001 -7.38983e-09 0)
(0.00099998 -1.00162e-08 0)
(0.000999948 6.03448e-10 0)
(0.000999934 1.80813e-08 0)
(0.000999931 3.75462e-08 0)
(0.000999931 5.61258e-08 0)
(0.000999933 6.86916e-08 0)
(0.000999937 6.72441e-08 0)
(0.000999946 4.90905e-08 0)
(0.000999957 1.91198e-08 0)
(0.000999953 -1.26772e-08 0)
(0.000999939 -3.9566e-08 0)
(0.000999921 -5.59749e-08 0)
(0.000999897 -7.43688e-08 0)
(0.000999874 -8.33667e-08 0)
(0.000999838 -1.11669e-07 0)
(0.000999812 -1.20869e-07 0)
(0.000999761 -1.74695e-07 0)
(0.000999738 -1.80734e-07 0)
(0.000999665 -2.85613e-07 0)
(0.00100001 -8.9669e-09 0)
(0.000999983 -2.07076e-08 0)
(0.000999946 -2.34107e-08 0)
(0.00099993 -2.09518e-08 0)
(0.000999933 -1.76701e-08 0)
(0.00099994 -1.5909e-08 0)
(0.00099995 -1.78646e-08 0)
(0.000999966 -2.93861e-08 0)
(0.000999974 -5.10681e-08 0)
(0.000999967 -8.32389e-08 0)
(0.000999955 -1.133e-07 0)
(0.000999936 -1.3845e-07 0)
(0.000999913 -1.5434e-07 0)
(0.00099988 -1.70882e-07 0)
(0.000999852 -1.78352e-07 0)
(0.000999805 -2.00936e-07 0)
(0.000999777 -2.07224e-07 0)
(0.000999708 -2.50772e-07 0)
(0.000999688 -2.54914e-07 0)
(0.000999577 -3.44033e-07 0)
(0.00100001 1.69757e-09 0)
(0.000999974 8.50075e-09 0)
(0.000999932 2.24668e-08 0)
(0.000999916 4.13556e-08 0)
(0.000999918 5.81375e-08 0)
(0.000999922 7.17179e-08 0)
(0.000999925 8.27307e-08 0)
(0.00099993 8.92809e-08 0)
(0.00099994 8.65507e-08 0)
(0.000999949 8.01114e-08 0)
(0.000999947 7.3084e-08 0)
(0.000999929 6.43635e-08 0)
(0.000999907 5.96453e-08 0)
(0.000999874 5.0253e-08 0)
(0.000999846 4.98538e-08 0)
(0.000999798 3.27454e-08 0)
(0.000999767 3.55281e-08 0)
(0.000999693 -3.9698e-09 0)
(0.000999667 2.82563e-09 0)
(0.00099955 -9.63595e-08 0)
(0.00100001 -9.80422e-09 0)
(0.000999979 -2.5698e-08 0)
(0.000999941 -3.90634e-08 0)
(0.000999925 -5.10484e-08 0)
(0.000999927 -6.12116e-08 0)
(0.000999932 -6.82231e-08 0)
(0.00099994 -7.42229e-08 0)
(0.000999953 -8.16019e-08 0)
(0.000999965 -9.20146e-08 0)
(0.000999965 -1.09061e-07 0)
(0.000999955 -1.28913e-07 0)
(0.000999929 -1.44626e-07 0)
(0.000999904 -1.52107e-07 0)
(0.00099986 -1.60106e-07 0)
(0.000999833 -1.60525e-07 0)
(0.000999769 -1.72729e-07 0)
(0.000999747 -1.7016e-07 0)
(0.000999638 -1.98852e-07 0)
(0.00099963 -1.91294e-07 0)
(0.000999426 -2.65663e-07 0)
)
;

boundaryField
{
    sides
    {
        type            slip;
    }
    inlet
    {
        type            fixedValue;
        value           uniform (0.001 0 0);
    }
    outlet
    {
        type            zeroGradient;
    }
    frontAndBack
    {
        type            empty;
    }
}


// ************************************************************************* //
