/*--------------------------------*- C++ -*----------------------------------*\
  =========                 |
  \\      /  F ield         | OpenFOAM: The Open Source CFD Toolbox
   \\    /   O peration     | Website:  https://openfoam.org
    \\  /    A nd           | Version:  7
     \\/     M anipulation  |
\*---------------------------------------------------------------------------*/
FoamFile
{
    version     2.0;
    format      ascii;
    class       surfaceScalarField;
    location    "6";
    object      phi;
}
// * * * * * * * * * * * * * * * * * * * * * * * * * * * * * * * * * * * * * //

dimensions      [0 4 -1 0 0 0 0];

internalField   nonuniform List<scalar> 
760
(
5.0001e-06
-2.87859e-12
5.00021e-06
-2.5627e-11
5.0003e-06
-2.41334e-11
5.00035e-06
-2.2476e-12
5.00036e-06
2.13555e-11
5.00033e-06
4.6292e-11
5.00026e-06
6.73566e-11
5.00019e-06
6.42776e-11
5.00016e-06
2.39858e-11
5.00018e-06
-3.11924e-11
5.00026e-06
-8.41187e-11
5.00039e-06
-1.39954e-10
5.00055e-06
-1.71295e-10
5.00075e-06
-2.13274e-10
5.00095e-06
-2.16987e-10
5.00121e-06
-2.80309e-10
5.00146e-06
-2.68054e-10
5.00186e-06
-4.21216e-10
5.00225e-06
-3.96491e-10
-8.38882e-10
5.00014e-06
-4.31065e-11
5.00026e-06
-7.42216e-11
5.00035e-06
-5.05413e-11
5.0004e-06
-6.48016e-12
5.00041e-06
3.85443e-11
5.00039e-06
7.43042e-11
5.00035e-06
1.0074e-10
5.00031e-06
1.01463e-10
5.00026e-06
6.11549e-11
5.00024e-06
-2.8661e-11
5.00029e-06
-1.49548e-10
5.00039e-06
-2.52728e-10
5.00052e-06
-3.16255e-10
5.00068e-06
-3.91927e-10
5.00086e-06
-4.13287e-10
5.00108e-06
-5.19243e-10
5.00132e-06
-5.24608e-10
5.00163e-06
-7.42734e-10
5.00195e-06
-7.25198e-10
-1.17242e-09
5.00009e-06
-3.90884e-11
5.00018e-06
-8.37103e-11
5.00027e-06
-6.39878e-11
5.00033e-06
-1.87432e-11
5.00033e-06
6.17208e-11
5.00028e-06
1.31198e-10
5.0002e-06
1.72894e-10
5.00013e-06
1.51942e-10
5.00014e-06
2.95297e-11
5.00017e-06
-9.5324e-11
5.00025e-06
-2.4539e-10
5.00035e-06
-3.83171e-10
5.00049e-06
-4.73224e-10
5.00065e-06
-5.67246e-10
5.00083e-06
-6.11952e-10
5.00104e-06
-7.36038e-10
5.00127e-06
-7.73147e-10
5.00152e-06
-1.00725e-09
5.00182e-06
-1.03306e-09
-1.54119e-09
5.00011e-06
-6.40772e-11
5.00021e-06
-1.09968e-10
5.00027e-06
-7.46217e-11
5.00032e-06
-5.4895e-12
5.00035e-06
7.59891e-11
5.00035e-06
1.53755e-10
5.00032e-06
1.98433e-10
5.00028e-06
1.71246e-10
5.00021e-06
7.11836e-11
5.00021e-06
-1.29058e-10
5.00025e-06
-3.22009e-10
5.00033e-06
-4.93284e-10
5.00043e-06
-6.07463e-10
5.00056e-06
-7.20385e-10
5.0007e-06
-7.78361e-10
5.00087e-06
-9.24867e-10
5.00106e-06
-9.7647e-10
5.00127e-06
-1.23743e-09
5.0015e-06
-1.26958e-09
-1.72845e-09
5.00009e-06
-7.6211e-11
5.00017e-06
-1.25832e-10
5.00024e-06
-9.02167e-11
5.00029e-06
-7.7337e-12
5.00029e-06
9.63487e-11
5.00026e-06
1.99218e-10
5.00019e-06
2.54892e-10
5.00014e-06
2.07258e-10
5.00015e-06
1.80535e-11
5.00017e-06
-1.90932e-10
5.00022e-06
-4.26336e-10
5.0003e-06
-6.20822e-10
5.00039e-06
-7.50151e-10
5.0005e-06
-8.71897e-10
5.00063e-06
-9.4185e-10
5.00078e-06
-1.09414e-09
5.00094e-06
-1.16011e-09
5.0011e-06
-1.41685e-09
5.00129e-06
-1.46367e-09
-1.93741e-09
5.00008e-06
-8.93004e-11
5.00015e-06
-1.38028e-10
5.0002e-06
-9.57978e-11
5.00024e-06
-8.3339e-12
5.00026e-06
1.06673e-10
5.00025e-06
2.20351e-10
5.00022e-06
2.7323e-10
5.0002e-06
2.0507e-10
5.00015e-06
2.10279e-11
5.00017e-06
-2.56748e-10
5.0002e-06
-5.18795e-10
5.00025e-06
-7.39167e-10
5.00032e-06
-8.85238e-10
5.0004e-06
-1.01499e-09
5.0005e-06
-1.08892e-09
5.00062e-06
-1.24419e-09
5.00075e-06
-1.31195e-09
5.00089e-06
-1.57092e-09
5.00104e-06
-1.62072e-09
-2.06349e-09
5.00006e-06
-9.98574e-11
5.00012e-06
-1.47048e-10
5.00016e-06
-1.01106e-10
5.0002e-06
-1.06006e-11
5.00021e-06
1.12217e-10
5.0002e-06
2.40388e-10
5.00016e-06
3.00053e-10
5.00013e-06
2.18586e-10
5.00013e-06
-1.59042e-11
5.00014e-06
-3.20263e-10
5.00017e-06
-6.17847e-10
5.00021e-06
-8.56069e-10
5.00026e-06
-1.01226e-09
5.00032e-06
-1.14551e-09
5.0004e-06
-1.21955e-09
5.00048e-06
-1.37069e-09
5.00059e-06
-1.43521e-09
5.00069e-06
-1.68692e-09
5.00081e-06
-1.73675e-09
-2.17011e-09
5.00005e-06
-1.07858e-10
5.00009e-06
-1.53739e-10
5.00012e-06
-1.03807e-10
5.00014e-06
-1.44878e-11
5.00016e-06
1.14335e-10
5.00015e-06
2.52101e-10
5.00012e-06
3.10406e-10
5.00011e-06
2.09859e-10
5.0001e-06
-4.25035e-11
5.00011e-06
-3.78376e-10
5.00013e-06
-6.98088e-10
5.00015e-06
-9.53158e-10
5.00019e-06
-1.11854e-09
5.00023e-06
-1.25317e-09
5.00028e-06
-1.3237e-09
5.00034e-06
-1.46729e-09
5.00042e-06
-1.52446e-09
5.00049e-06
-1.76796e-09
5.00058e-06
-1.81719e-09
-2.23985e-09
5.00003e-06
-1.13576e-10
5.00005e-06
-1.57357e-10
5.00007e-06
-1.06965e-10
5.00009e-06
-1.78577e-11
5.0001e-06
1.13602e-10
5.00009e-06
2.55749e-10
5.00008e-06
3.13891e-10
5.00007e-06
2.04663e-10
5.00006e-06
-6.60417e-11
5.00007e-06
-4.20032e-10
5.00008e-06
-7.54541e-10
5.00009e-06
-1.01891e-09
5.00011e-06
-1.18884e-09
5.00014e-06
-1.3231e-09
5.00017e-06
-1.39003e-09
5.00021e-06
-1.52722e-09
5.00025e-06
-1.57803e-09
5.0003e-06
-1.81504e-09
5.00035e-06
-1.86336e-09
-2.28059e-09
5.00001e-06
-1.15993e-10
5.00002e-06
-1.58537e-10
5.00002e-06
-1.0882e-10
5.00003e-06
-1.99248e-11
5.00003e-06
1.12975e-10
5.00003e-06
2.57699e-10
5.00003e-06
3.15734e-10
5.00002e-06
2.02236e-10
5.00002e-06
-7.52054e-11
5.00002e-06
-4.35578e-10
5.00003e-06
-7.74544e-10
5.00003e-06
-1.04181e-09
5.00004e-06
-1.21322e-09
5.00005e-06
-1.34724e-09
5.00006e-06
-1.41273e-09
5.00007e-06
-1.54744e-09
5.00008e-06
-1.59567e-09
5.0001e-06
-1.83014e-09
5.00012e-06
-1.8781e-09
-2.29368e-09
4.99999e-06
-1.13596e-10
4.99998e-06
-1.5737e-10
4.99998e-06
-1.0697e-10
4.99997e-06
-1.78662e-11
4.99997e-06
1.13595e-10
4.99997e-06
2.5573e-10
4.99997e-06
3.13855e-10
4.99998e-06
2.04632e-10
4.99998e-06
-6.60699e-11
4.99998e-06
-4.20056e-10
4.99997e-06
-7.54552e-10
4.99997e-06
-1.01891e-09
4.99996e-06
-1.18884e-09
4.99995e-06
-1.32309e-09
4.99994e-06
-1.39002e-09
4.99993e-06
-1.5272e-09
4.99992e-06
-1.57801e-09
4.9999e-06
-1.815e-09
4.99988e-06
-1.86331e-09
-2.2805e-09
4.99997e-06
-1.07894e-10
4.99995e-06
-1.53765e-10
4.99993e-06
-1.03802e-10
4.99991e-06
-1.44807e-11
4.9999e-06
1.14312e-10
4.99991e-06
2.52038e-10
4.99992e-06
3.10339e-10
4.99993e-06
2.09799e-10
4.99994e-06
-4.25334e-11
4.99993e-06
-3.78399e-10
4.99992e-06
-6.98109e-10
4.99991e-06
-9.5317e-10
4.99989e-06
-1.11854e-09
4.99986e-06
-1.25315e-09
4.99983e-06
-1.32369e-09
4.99979e-06
-1.46724e-09
4.99975e-06
-1.52441e-09
4.9997e-06
-1.76787e-09
4.99965e-06
-1.81709e-09
-2.23967e-09
4.99995e-06
-9.99042e-11
4.99991e-06
-1.47076e-10
4.99988e-06
-1.01089e-10
4.99986e-06
-1.05777e-11
4.99984e-06
1.12195e-10
4.99985e-06
2.40333e-10
4.99988e-06
2.99987e-10
4.99989e-06
2.1851e-10
4.9999e-06
-1.59351e-11
4.99989e-06
-3.20288e-10
4.99987e-06
-6.17869e-10
4.99985e-06
-8.56082e-10
4.99981e-06
-1.01227e-09
4.99977e-06
-1.14549e-09
4.99972e-06
-1.21953e-09
4.99966e-06
-1.37062e-09
4.99958e-06
-1.43514e-09
4.99951e-06
-1.68678e-09
4.99942e-06
-1.73662e-09
-2.16984e-09
4.99994e-06
-8.93518e-11
4.99988e-06
-1.3806e-10
4.99984e-06
-9.5778e-11
4.9998e-06
-8.3018e-12
4.99979e-06
1.06675e-10
4.9998e-06
2.2031e-10
4.99984e-06
2.73165e-10
4.99987e-06
2.05022e-10
4.99987e-06
2.10145e-11
4.99986e-06
-2.5676e-10
4.99983e-06
-5.18807e-10
4.99979e-06
-7.39172e-10
4.99974e-06
-8.85245e-10
4.99968e-06
-1.01496e-09
4.9996e-06
-1.0889e-09
4.99951e-06
-1.24411e-09
4.99941e-06
-1.31187e-09
4.99931e-06
-1.57074e-09
4.99919e-06
-1.62055e-09
-2.06318e-09
4.99992e-06
-7.62688e-11
4.99985e-06
-1.25874e-10
4.9998e-06
-9.01926e-11
4.99976e-06
-7.69182e-12
4.99974e-06
9.63692e-11
4.99975e-06
1.99181e-10
4.99978e-06
2.5484e-10
4.9998e-06
2.0722e-10
4.99985e-06
1.80357e-11
4.99983e-06
-1.90934e-10
4.9998e-06
-4.26334e-10
4.99975e-06
-6.20813e-10
4.99968e-06
-7.50148e-10
4.9996e-06
-8.71853e-10
4.9995e-06
-9.41815e-10
4.99938e-06
-1.09403e-09
4.99925e-06
-1.16001e-09
4.99911e-06
-1.41665e-09
4.99896e-06
-1.46349e-09
-1.93701e-09
4.99991e-06
-6.41239e-11
4.99983e-06
-1.10014e-10
4.99976e-06
-7.46029e-11
4.99971e-06
-5.47146e-12
4.99971e-06
7.60164e-11
4.99974e-06
1.5374e-10
4.99981e-06
1.98393e-10
4.99986e-06
1.71225e-10
4.99985e-06
7.12058e-11
4.99983e-06
-1.29027e-10
4.99978e-06
-3.21986e-10
4.9997e-06
-4.93246e-10
4.99961e-06
-6.07441e-10
4.9995e-06
-7.20324e-10
4.99937e-06
-7.78323e-10
4.99922e-06
-9.2475e-10
4.99906e-06
-9.76384e-10
4.9989e-06
-1.23722e-09
4.99871e-06
-1.26941e-09
-1.72806e-09
4.99989e-06
-3.91428e-11
4.99979e-06
-8.37539e-11
4.99973e-06
-6.4024e-11
4.99968e-06
-1.87274e-11
4.99965e-06
6.1727e-11
4.99965e-06
1.31166e-10
4.99968e-06
1.72839e-10
4.99972e-06
1.51914e-10
4.99979e-06
2.95235e-11
4.99979e-06
-9.53111e-11
4.99975e-06
-2.45378e-10
4.99967e-06
-3.83154e-10
4.99957e-06
-4.73227e-10
4.99944e-06
-5.67198e-10
4.9993e-06
-6.11932e-10
4.99913e-06
-7.3592e-10
4.99894e-06
-7.73086e-10
4.99873e-06
-1.00703e-09
4.9985e-06
-1.03292e-09
-1.54078e-09
4.99991e-06
-4.31421e-11
4.99982e-06
-7.42598e-11
4.99973e-06
-5.05351e-11
4.99967e-06
-6.43449e-12
4.99967e-06
3.85702e-11
4.99972e-06
7.43105e-11
4.9998e-06
1.00732e-10
4.99987e-06
1.01431e-10
4.99986e-06
6.11526e-11
4.99982e-06
-2.86092e-11
4.99975e-06
-1.49512e-10
4.99965e-06
-2.52677e-10
4.99951e-06
-3.16228e-10
4.99935e-06
-3.91853e-10
4.99916e-06
-4.13266e-10
4.99896e-06
-5.19127e-10
4.99873e-06
-5.24581e-10
4.99848e-06
-7.42536e-10
4.99818e-06
-7.25102e-10
-1.17206e-09
4.99986e-06
-2.90419e-12
4.99974e-06
-2.5675e-11
4.99965e-06
-2.41659e-11
4.9996e-06
-2.25483e-12
4.99959e-06
2.13416e-11
4.99961e-06
4.62453e-11
4.99965e-06
6.73094e-11
4.99969e-06
6.42409e-11
4.99974e-06
2.39519e-11
4.99976e-06
-3.12279e-11
4.99971e-06
-8.41677e-11
4.99961e-06
-1.39995e-10
4.99948e-06
-1.7134e-10
4.99932e-06
-2.13269e-10
4.99914e-06
-2.17002e-10
4.99892e-06
-2.80258e-10
4.99868e-06
-2.68056e-10
4.99837e-06
-4.21127e-10
4.99805e-06
-3.96469e-10
-8.3876e-10
4.9999e-06
4.99979e-06
4.9997e-06
4.99965e-06
4.99964e-06
4.99967e-06
4.99974e-06
4.99981e-06
4.99984e-06
4.99982e-06
4.99974e-06
4.99961e-06
4.99945e-06
4.99925e-06
4.99905e-06
4.99879e-06
4.99854e-06
4.99813e-06
4.99775e-06
)
;

boundaryField
{
    sides
    {
        type            calculated;
        value           uniform 0;
    }
    inlet
    {
        type            calculated;
        value           nonuniform List<scalar> 
20
(
-5e-06
-5e-06
-5e-06
-5e-06
-5e-06
-5e-06
-5e-06
-5e-06
-5e-06
-5e-06
-5e-06
-5e-06
-5e-06
-5e-06
-5e-06
-5e-06
-5e-06
-5e-06
-5e-06
-5e-06
)
;
    }
    outlet
    {
        type            calculated;
        value           nonuniform List<scalar> 
20
(
5.00309e-06
5.00228e-06
5.00218e-06
5.00168e-06
5.00149e-06
5.00116e-06
5.00091e-06
5.00065e-06
5.00039e-06
5.00013e-06
4.99987e-06
4.99961e-06
4.99935e-06
4.99909e-06
4.99884e-06
4.99851e-06
4.99832e-06
4.99782e-06
4.99772e-06
4.99691e-06
)
;
    }
    frontAndBack
    {
        type            empty;
        value           nonuniform 0();
    }
}


// ************************************************************************* //
