/*--------------------------------*- C++ -*----------------------------------*\
  =========                 |
  \\      /  F ield         | OpenFOAM: The Open Source CFD Toolbox
   \\    /   O peration     | Website:  https://openfoam.org
    \\  /    A nd           | Version:  7
     \\/     M anipulation  |
\*---------------------------------------------------------------------------*/
FoamFile
{
    version     2.0;
    format      ascii;
    class       volVectorField;
    location    "82";
    object      ddtCorrDdt0(hU);
}
// * * * * * * * * * * * * * * * * * * * * * * * * * * * * * * * * * * * * * //

dimensions      [0 2 -2 0 0 0 0];

internalField   nonuniform List<vector> 
400
(
(2.00001e-11 4.07392e-11 0)
(1.19679e-10 -4.88344e-11 0)
(-1.1694e-11 -4.93015e-11 0)
(-1.05237e-10 1.96368e-10 0)
(1.2076e-10 3.53157e-10 0)
(4.68718e-10 -1.35925e-10 0)
(-2.41475e-09 -1.9675e-10 0)
(-1.87449e-09 3.08855e-09 0)
(2.40638e-09 1.02466e-09 0)
(1.12276e-09 -3.88288e-11 0)
(1.35501e-10 -2.73334e-10 0)
(-1.62138e-10 -2.21318e-10 0)
(-2.33885e-10 -1.17256e-10 0)
(-1.66025e-10 -2.43718e-11 0)
(-2.70688e-11 3.39579e-11 0)
(8.15949e-11 6.90794e-11 0)
(8.46705e-11 7.89809e-11 0)
(4.07285e-11 5.38791e-11 0)
(-4.42809e-11 2.83012e-11 0)
(-1.04804e-10 -5.7848e-12 0)
(-2.71423e-11 4.75877e-11 0)
(2.64943e-11 -3.27154e-11 0)
(5.62306e-11 -1.07784e-10 0)
(1.99175e-10 2.2296e-10 0)
(-1.8815e-10 9.00921e-11 0)
(-2.63949e-10 1.41233e-10 0)
(2.59735e-09 -7.32958e-10 0)
(9.41052e-10 1.85158e-09 0)
(-1.59098e-09 1.02447e-09 0)
(-5.60441e-10 -2.17078e-11 0)
(-1.50208e-10 -2.81537e-10 0)
(1.3579e-11 -2.53056e-10 0)
(1.84058e-11 -1.72115e-10 0)
(2.55101e-11 -6.02158e-11 0)
(5.87427e-11 3.7634e-11 0)
(8.5361e-11 8.51758e-11 0)
(5.02544e-11 8.2975e-11 0)
(-1.42373e-12 2.97722e-11 0)
(-5.03437e-11 -1.19657e-11 0)
(-7.0802e-11 -1.29954e-11 0)
(-2.13138e-13 4.96893e-12 0)
(-2.76651e-11 4.10634e-11 0)
(1.22373e-11 -3.39461e-11 0)
(8.57998e-11 6.3795e-11 0)
(-4.54478e-11 -2.08219e-10 0)
(1.47857e-10 5.28518e-10 0)
(-4.38016e-10 -2.44762e-10 0)
(8.67241e-10 -1.11652e-09 0)
(-1.97125e-10 -1.91746e-10 0)
(-6.73425e-10 -1.63403e-10 0)
(-2.27038e-10 -5.33725e-11 0)
(-2.87687e-11 -6.50069e-11 0)
(7.8956e-11 -9.93077e-11 0)
(1.7535e-10 -4.84222e-11 0)
(1.65967e-10 4.05231e-11 0)
(9.93318e-11 9.42702e-11 0)
(3.88737e-12 8.66601e-11 0)
(-5.77557e-11 4.30096e-11 0)
(-7.57765e-11 3.35311e-11 0)
(-3.49423e-11 -3.19532e-12 0)
(-3.97538e-12 -1.15623e-11 0)
(-3.59174e-11 1.07152e-11 0)
(4.60869e-11 2.70821e-11 0)
(2.03576e-11 -1.28461e-11 0)
(1.86163e-10 1.09246e-10 0)
(-3.03431e-11 5.75612e-11 0)
(2.73853e-11 4.47287e-10 0)
(6.18003e-10 1.28726e-10 0)
(-5.51905e-10 -4.80863e-10 0)
(-3.45152e-10 -1.5771e-10 0)
(6.82455e-11 4.03799e-11 0)
(2.72789e-11 9.9739e-12 0)
(8.81868e-11 6.13586e-12 0)
(1.76708e-10 3.3123e-11 0)
(1.34752e-10 5.27313e-11 0)
(3.30132e-11 5.18684e-11 0)
(-4.54155e-11 3.48341e-11 0)
(-6.57879e-11 3.76691e-11 0)
(-5.09344e-11 1.01498e-10 0)
(6.46732e-13 4.32288e-11 0)
(-8.3518e-12 7.4739e-13 0)
(-3.41497e-11 -8.60028e-12 0)
(9.18071e-11 8.00593e-11 0)
(-9.94415e-12 -3.87762e-11 0)
(1.93066e-10 2.13386e-10 0)
(-2.06267e-10 -2.36862e-10 0)
(3.20036e-10 3.12911e-10 0)
(-2.82485e-10 -1.50899e-10 0)
(-4.67077e-10 -2.51816e-10 0)
(2.49232e-10 1.52005e-10 0)
(1.27719e-10 6.8991e-11 0)
(4.06266e-11 -1.56086e-11 0)
(1.35791e-10 1.72316e-11 0)
(1.24021e-10 2.83406e-11 0)
(2.95589e-11 -6.37309e-12 0)
(-5.9021e-11 -2.45658e-11 0)
(-8.78591e-11 1.30336e-12 0)
(-4.10559e-11 6.77504e-11 0)
(-1.87826e-11 1.73728e-10 0)
(-1.8056e-11 8.51661e-11 0)
(-1.21001e-11 1.82949e-11 0)
(-5.27581e-12 5.85875e-12 0)
(8.19231e-11 1.14299e-10 0)
(3.57654e-11 2.17221e-11 0)
(5.51459e-11 1.54808e-10 0)
(-7.92311e-11 1.70591e-11 0)
(1.19645e-10 1.86108e-10 0)
(-3.8252e-10 -1.65564e-10 0)
(1.42455e-10 2.25024e-10 0)
(2.52747e-10 1.76216e-10 0)
(-6.53616e-11 -4.43074e-11 0)
(6.26979e-11 -3.44801e-11 0)
(1.4473e-10 -3.18474e-11 0)
(1.83872e-11 -6.18104e-11 0)
(-6.06572e-11 -9.24623e-11 0)
(-5.2213e-11 -5.6935e-11 0)
(-2.59764e-11 5.53627e-11 0)
(2.38192e-11 1.63404e-10 0)
(4.04488e-12 2.43564e-10 0)
(-7.35945e-11 9.06658e-11 0)
(-1.21128e-11 5.54101e-13 0)
(2.30716e-11 1.73168e-11 0)
(1.26463e-11 8.51664e-12 0)
(5.5912e-11 9.13919e-11 0)
(-7.32294e-11 -1.77707e-11 0)
(4.40721e-11 1.77202e-10 0)
(-6.75604e-11 5.81405e-11 0)
(-5.53199e-11 1.01337e-10 0)
(2.43244e-10 2.82101e-10 0)
(-4.06279e-11 -1.88468e-11 0)
(-1.96747e-11 -5.51254e-11 0)
(1.40929e-10 4.06421e-12 0)
(1.95636e-11 -1.15827e-10 0)
(-1.40218e-10 -1.70879e-10 0)
(-1.49822e-10 -1.30371e-10 0)
(-3.75297e-11 -3.55827e-11 0)
(7.05999e-11 1.02344e-10 0)
(9.98262e-11 1.81133e-10 0)
(4.2149e-11 2.18333e-10 0)
(-6.70256e-11 7.51284e-11 0)
(-8.18355e-12 -3.58879e-11 0)
(3.82615e-11 4.18293e-11 0)
(-2.97688e-11 -2.49914e-11 0)
(4.46311e-11 1.20056e-10 0)
(-7.47528e-11 3.02028e-11 0)
(7.67332e-11 1.89691e-10 0)
(-1.20047e-10 7.32973e-11 0)
(1.0284e-10 2.15415e-10 0)
(1.08617e-11 1.06333e-10 0)
(-1.13374e-10 -6.23721e-11 0)
(1.54837e-10 -4.30918e-11 0)
(2.25288e-11 -1.25796e-10 0)
(-1.6464e-10 -2.47368e-10 0)
(-9.77928e-11 -2.14547e-10 0)
(-3.8182e-11 -7.99154e-11 0)
(2.4368e-11 9.16084e-11 0)
(1.16482e-10 2.06836e-10 0)
(1.26845e-10 1.82217e-10 0)
(2.26823e-11 1.69974e-10 0)
(-8.30601e-11 4.08488e-11 0)
(1.61001e-11 -2.07446e-11 0)
(3.565e-11 -1.92735e-12 0)
(-1.90371e-11 5.26757e-11 0)
(-3.0624e-12 4.9316e-11 0)
(-6.44025e-12 1.23005e-10 0)
(4.11098e-11 1.09271e-10 0)
(-1.81271e-11 1.12203e-10 0)
(9.23852e-11 1.80644e-10 0)
(-6.99231e-11 9.1673e-12 0)
(-2.79657e-11 4.20175e-11 0)
(5.63068e-11 -9.57679e-11 0)
(-1.24223e-10 -2.53553e-10 0)
(-1.19665e-10 -1.91011e-10 0)
(5.31774e-11 -1.19162e-10 0)
(8.26706e-11 -4.77609e-11 0)
(3.4976e-11 1.38453e-10 0)
(3.76653e-11 2.54779e-10 0)
(4.63322e-11 1.60314e-10 0)
(1.71889e-11 1.12764e-10 0)
(-1.31985e-11 1.74061e-11 0)
(-1.10264e-11 2.26768e-11 0)
(-1.63729e-11 -3.14365e-11 0)
(2.76412e-11 6.67573e-11 0)
(-1.53745e-11 3.03239e-11 0)
(5.19066e-11 1.40373e-10 0)
(-3.05846e-12 1.02318e-10 0)
(1.01833e-10 1.43514e-10 0)
(8.62031e-12 1.39565e-10 0)
(-1.52789e-11 2.68084e-11 0)
(-2.52216e-11 6.39301e-11 0)
(-1.50364e-10 -1.06389e-10 0)
(-1.73821e-11 -2.05436e-10 0)
(8.85441e-11 -9.45587e-11 0)
(5.09916e-11 -4.1241e-11 0)
(9.47761e-11 -2.15908e-11 0)
(1.12208e-10 1.18869e-10 0)
(-6.49765e-12 2.26156e-10 0)
(-8.94347e-11 1.59639e-10 0)
(-4.63701e-11 1.29108e-10 0)
(4.58842e-11 2.1412e-11 0)
(-2.24694e-11 3.48187e-12 0)
(-5.17155e-11 3.40976e-11 0)
(2.80221e-11 -4.72911e-12 0)
(-2.6477e-11 7.28126e-11 0)
(6.19035e-11 8.94252e-11 0)
(-2.99352e-11 1.68154e-10 0)
(1.18745e-10 1.42297e-10 0)
(-2.61293e-11 1.29624e-10 0)
(4.14543e-12 1.04062e-10 0)
(-6.5246e-12 2.11892e-11 0)
(-1.8517e-10 1.98403e-11 0)
(3.91493e-11 -2.52546e-11 0)
(1.54484e-10 -1.13947e-10 0)
(2.52096e-11 -6.59201e-11 0)
(5.50472e-11 2.43685e-11 0)
(8.32683e-11 6.83855e-11 0)
(-6.30316e-11 1.06528e-10 0)
(-1.62012e-10 1.39362e-10 0)
(-7.03815e-11 2.06859e-10 0)
(8.52562e-11 7.06008e-11 0)
(1.93027e-11 -1.92762e-11 0)
(-2.33059e-11 2.85912e-11 0)
(-3.28104e-11 -4.26184e-12 0)
(-4.82811e-11 1.21098e-10 0)
(1.00475e-11 7.50488e-11 0)
(-2.15866e-11 1.79744e-10 0)
(1.72361e-11 1.27628e-10 0)
(4.39041e-11 5.74055e-11 0)
(-5.5002e-11 1.38111e-10 0)
(3.78535e-11 -3.462e-11 0)
(-1.72555e-11 3.15504e-11 0)
(-1.0068e-10 7.45095e-11 0)
(-1.43414e-11 -1.02017e-10 0)
(6.99146e-11 -9.92586e-11 0)
(4.96371e-11 -6.51748e-12 0)
(-3.00553e-11 -8.0808e-12 0)
(-8.77261e-11 2.95404e-11 0)
(-8.12879e-11 1.50953e-10 0)
(-2.40712e-11 2.79626e-10 0)
(4.99416e-11 1.14541e-10 0)
(2.28461e-11 -3.9216e-11 0)
(1.7885e-11 -4.10757e-11 0)
(-6.3797e-11 1.01583e-10 0)
(-1.27192e-11 7.49002e-11 0)
(-8.52808e-11 1.52223e-10 0)
(1.60424e-11 9.24465e-11 0)
(-1.39269e-10 1.62892e-10 0)
(1.27721e-10 -3.73354e-11 0)
(-3.50004e-11 6.9494e-11 0)
(-1.52362e-11 -4.45738e-12 0)
(2.09838e-10 -1.12439e-10 0)
(-4.03961e-11 -5.85254e-11 0)
(-1.78406e-10 -6.50502e-11 0)
(-4.98122e-11 -7.14438e-11 0)
(-3.10292e-11 -5.67015e-11 0)
(-6.77923e-11 -2.35298e-11 0)
(-1.37271e-11 6.84e-11 0)
(2.13176e-11 1.84739e-10 0)
(8.21187e-12 2.86446e-10 0)
(2.01544e-12 1.10198e-10 0)
(2.7868e-11 -5.54989e-11 0)
(5.73837e-11 -3.22991e-11 0)
(-3.32378e-11 1.01486e-10 0)
(2.92629e-11 1.85758e-13 0)
(-1.3712e-10 1.9805e-10 0)
(4.59084e-11 -3.05419e-11 0)
(-1.75574e-10 1.77611e-10 0)
(4.6418e-11 -1.83877e-11 0)
(1.78977e-10 -1.0927e-10 0)
(-1.03454e-10 6.54228e-11 0)
(1.00434e-10 -9.11998e-11 0)
(1.33706e-10 -1.79862e-10 0)
(-6.37719e-11 -9.58019e-11 0)
(-1.32446e-10 -5.43706e-11 0)
(-1.03937e-10 -5.01949e-11 0)
(-2.58984e-11 1.64311e-11 0)
(6.11301e-11 1.00577e-10 0)
(6.61238e-11 1.42618e-10 0)
(7.3733e-12 2.13372e-10 0)
(-4.91433e-11 8.98873e-11 0)
(1.71372e-11 -1.36558e-11 0)
(4.84588e-11 2.01637e-11 0)
(1.65673e-11 -3.86407e-12 0)
(7.3119e-14 6.34433e-11 0)
(-7.7802e-11 1.0302e-10 0)
(-2.62969e-11 7.60909e-11 0)
(-1.26623e-11 1.57414e-10 0)
(-2.49204e-10 2.72566e-10 0)
(3.37535e-10 -1.89257e-10 0)
(1.75935e-10 -7.73555e-11 0)
(-3.76851e-11 -5.97396e-11 0)
(1.01382e-10 -1.87389e-10 0)
(4.6116e-11 -1.74568e-10 0)
(-1.19231e-10 -9.91109e-11 0)
(-1.37085e-10 -2.33705e-11 0)
(-5.44039e-11 8.2757e-11 0)
(3.64595e-11 1.4761e-10 0)
(7.28182e-11 1.28408e-10 0)
(6.15995e-11 1.51491e-10 0)
(-1.34948e-11 4.65654e-11 0)
(-8.22546e-12 9.10231e-11 0)
(3.09739e-12 4.54366e-11 0)
(5.49341e-11 -1.08224e-10 0)
(-4.71097e-11 6.28604e-11 0)
(8.07774e-11 -1.50266e-10 0)
(-1.82453e-10 3.25192e-10 0)
(2.75868e-10 -1.19679e-10 0)
(-5.72422e-10 5.49539e-10 0)
(-1.71817e-10 1.84272e-10 0)
(3.09251e-10 -1.58232e-10 0)
(3.31512e-11 -8.40241e-11 0)
(3.86886e-11 -1.06465e-10 0)
(8.50668e-11 -1.48046e-10 0)
(-9.91223e-12 -1.05733e-10 0)
(-6.30132e-11 -2.86233e-11 0)
(-5.38648e-11 5.71667e-11 0)
(1.52951e-12 1.16019e-10 0)
(5.19027e-11 9.08781e-11 0)
(5.66396e-11 7.55007e-11 0)
(7.77497e-12 1.21358e-11 0)
(-4.45454e-11 1.58327e-10 0)
(-1.15699e-10 4.22906e-11 0)
(-2.53522e-11 -1.10595e-10 0)
(-1.10763e-10 6.87563e-11 0)
(1.9577e-10 -8.92841e-11 0)
(-2.45768e-10 4.38303e-10 0)
(3.69603e-10 -3.32554e-10 0)
(3.30702e-10 2.01362e-10 0)
(-8.07415e-10 6.42203e-10 0)
(-8.5218e-11 1.00222e-10 0)
(1.0942e-10 -7.69298e-11 0)
(3.08107e-11 -9.08123e-11 0)
(6.71491e-11 -1.18732e-10 0)
(4.35387e-11 -8.72602e-11 0)
(-2.75932e-11 -3.19133e-11 0)
(-7.13233e-11 3.80673e-11 0)
(-3.46963e-11 1.02925e-10 0)
(1.19912e-11 9.43221e-11 0)
(4.72357e-11 7.37288e-11 0)
(6.76158e-11 6.46744e-12 0)
(-9.31502e-11 -1.79945e-11 0)
(-2.13171e-10 -1.32754e-11 0)
(-8.62914e-11 8.84067e-11 0)
(-5.81643e-11 4.79039e-11 0)
(1.85134e-10 2.93985e-10 0)
(-7.41145e-11 -2.51525e-10 0)
(-1.53188e-10 -8.12844e-10 0)
(1.01547e-09 -4.1966e-10 0)
(-3.19418e-10 2.7454e-10 0)
(-6.28955e-10 2.01287e-10 0)
(-1.3589e-10 -5.46947e-12 0)
(-9.4939e-12 -2.72542e-11 0)
(4.81457e-11 -3.75202e-11 0)
(5.23023e-11 -3.58479e-11 0)
(-9.08827e-12 -2.25477e-11 0)
(-5.9285e-11 1.93673e-11 0)
(-3.48021e-11 6.61788e-11 0)
(-8.7299e-12 7.019e-11 0)
(5.45014e-11 7.39442e-11 0)
(1.09222e-10 1.66239e-11 0)
(-1.72294e-11 -2.23286e-10 0)
(-2.05088e-11 -1.81539e-11 0)
(-6.36199e-11 2.85722e-10 0)
(7.92325e-11 -3.78142e-11 0)
(-3.71896e-10 1.62761e-10 0)
(-1.35358e-09 -4.20167e-10 0)
(-5.99301e-10 1.83282e-09 0)
(3.61394e-09 -4.6105e-10 0)
(2.5884e-10 -7.78539e-10 0)
(-3.98403e-10 1.02588e-10 0)
(-1.0137e-10 2.62347e-10 0)
(1.63061e-11 1.86831e-10 0)
(1.70103e-12 7.39862e-11 0)
(-5.84596e-12 2.28528e-12 0)
(-1.42226e-11 -1.388e-11 0)
(-3.20193e-11 -2.9899e-12 0)
(-3.29079e-11 7.94374e-12 0)
(-2.4651e-11 9.69343e-12 0)
(3.07379e-11 2.9638e-11 0)
(8.46128e-11 2.12995e-11 0)
(1.45451e-10 -1.27447e-10 0)
(1.7366e-10 1.3635e-11 0)
(-6.27149e-11 1.73336e-10 0)
(-1.1332e-10 -1.01022e-11 0)
(-8.07797e-11 -5.98672e-11 0)
(1.67583e-09 6.62144e-11 0)
(1.90461e-10 2.51462e-09 0)
(-4.366e-09 -1.30271e-10 0)
(6.98314e-10 -6.69043e-10 0)
(8.76093e-10 4.29917e-11 0)
(9.44427e-11 2.08637e-10 0)
(-1.84626e-10 1.21345e-10 0)
(-2.02149e-10 1.86531e-11 0)
(-9.36802e-11 -1.61456e-11 0)
(-9.31418e-12 -2.03084e-13 0)
(-1.04565e-11 2.86527e-11 0)
(-2.96695e-11 3.8802e-11 0)
(-2.92475e-11 3.51506e-11 0)
(2.91427e-11 4.01572e-11 0)
(7.54893e-11 7.62191e-12 0)
)
;

boundaryField
{
    sides
    {
        type            calculated;
        value           nonuniform List<vector> 
40
(
(1.45451e-10 0 0)
(1.7366e-10 0 0)
(-6.27149e-11 0 0)
(-1.1332e-10 0 0)
(-8.07797e-11 0 0)
(1.67583e-09 0 0)
(1.90461e-10 0 0)
(-4.366e-09 0 0)
(6.98314e-10 0 0)
(8.76093e-10 0 0)
(9.44427e-11 0 0)
(-1.84626e-10 0 0)
(-2.02149e-10 0 0)
(-9.36802e-11 0 0)
(-9.31418e-12 0 0)
(-1.04565e-11 0 0)
(-2.96695e-11 0 0)
(-2.92475e-11 0 0)
(2.91427e-11 0 0)
(7.54893e-11 0 0)
(2.00001e-11 0 0)
(1.19679e-10 0 0)
(-1.1694e-11 0 0)
(-1.05237e-10 0 0)
(1.2076e-10 0 0)
(4.68718e-10 0 0)
(-2.41475e-09 0 0)
(-1.87449e-09 0 0)
(2.40638e-09 0 0)
(1.12276e-09 0 0)
(1.35501e-10 0 0)
(-1.62138e-10 0 0)
(-2.33885e-10 0 0)
(-1.66025e-10 0 0)
(-2.70688e-11 0 0)
(8.15949e-11 0 0)
(8.46705e-11 0 0)
(4.07285e-11 0 0)
(-4.42809e-11 0 0)
(-1.04804e-10 0 0)
)
;
    }
    inlet
    {
        type            calculated;
        value           uniform (0 0 0);
    }
    outlet
    {
        type            calculated;
        value           nonuniform List<vector> 
20
(
(-1.04804e-10 -5.7848e-12 0)
(-7.0802e-11 -1.29954e-11 0)
(-3.49423e-11 -3.19532e-12 0)
(6.46732e-13 4.32288e-11 0)
(-1.8056e-11 8.51661e-11 0)
(-7.35945e-11 9.06658e-11 0)
(-6.70256e-11 7.51284e-11 0)
(-8.30601e-11 4.08488e-11 0)
(-1.31985e-11 1.74061e-11 0)
(4.58842e-11 2.1412e-11 0)
(8.52562e-11 7.06008e-11 0)
(4.99416e-11 1.14541e-10 0)
(2.01544e-12 1.10198e-10 0)
(-4.91433e-11 8.98873e-11 0)
(-1.34948e-11 4.65654e-11 0)
(7.77497e-12 1.21358e-11 0)
(6.76158e-11 6.46744e-12 0)
(1.09222e-10 1.66239e-11 0)
(8.46128e-11 2.12995e-11 0)
(7.54893e-11 7.62191e-12 0)
)
;
    }
    frontAndBack
    {
        type            empty;
    }
}


// ************************************************************************* //
