/*--------------------------------*- C++ -*----------------------------------*\
  =========                 |
  \\      /  F ield         | OpenFOAM: The Open Source CFD Toolbox
   \\    /   O peration     | Website:  https://openfoam.org
    \\  /    A nd           | Version:  7
     \\/     M anipulation  |
\*---------------------------------------------------------------------------*/
FoamFile
{
    version     2.0;
    format      ascii;
    class       volVectorField;
    location    "82";
    object      hU_0;
}
// * * * * * * * * * * * * * * * * * * * * * * * * * * * * * * * * * * * * * //

dimensions      [0 2 -1 0 0 0 0];

internalField   nonuniform List<vector> 
400
(
(0.001 -8.72429e-09 0)
(0.000999999 -2.37506e-08 0)
(0.001 -3.60035e-08 0)
(0.001 -4.67198e-08 0)
(0.00100001 -5.68649e-08 0)
(0.00100001 -6.73254e-08 0)
(0.00100002 -7.81468e-08 0)
(0.00100003 -8.91021e-08 0)
(0.00100004 -1.00042e-07 0)
(0.00100006 -1.12016e-07 0)
(0.00100007 -1.22703e-07 0)
(0.0010001 -1.36167e-07 0)
(0.00100011 -1.46497e-07 0)
(0.00100015 -1.633e-07 0)
(0.00100017 -1.72128e-07 0)
(0.00100024 -1.96269e-07 0)
(0.00100026 -2.00791e-07 0)
(0.00100038 -2.43038e-07 0)
(0.00100038 -2.39197e-07 0)
(0.00100061 -3.31876e-07 0)
(0.001 3.98042e-09 0)
(0.001 1.20963e-08 0)
(0.00100001 2.0212e-08 0)
(0.00100001 2.79479e-08 0)
(0.00100002 3.5206e-08 0)
(0.00100002 4.17442e-08 0)
(0.00100003 4.76963e-08 0)
(0.00100004 5.31733e-08 0)
(0.00100005 5.83597e-08 0)
(0.00100007 6.22332e-08 0)
(0.00100008 6.69187e-08 0)
(0.0010001 6.85633e-08 0)
(0.00100012 7.26986e-08 0)
(0.00100016 6.98987e-08 0)
(0.00100018 7.40508e-08 0)
(0.00100023 6.17014e-08 0)
(0.00100026 6.71876e-08 0)
(0.00100035 3.17868e-08 0)
(0.00100037 3.98679e-08 0)
(0.0010005 -5.45934e-08 0)
(0.001 -3.96858e-09 0)
(0.000999999 -1.30097e-08 0)
(0.001 -2.30314e-08 0)
(0.001 -3.36311e-08 0)
(0.00100001 -4.41825e-08 0)
(0.00100001 -5.50235e-08 0)
(0.00100002 -6.56025e-08 0)
(0.00100003 -7.74059e-08 0)
(0.00100004 -8.88966e-08 0)
(0.00100005 -1.02552e-07 0)
(0.00100006 -1.15278e-07 0)
(0.00100009 -1.32407e-07 0)
(0.0010001 -1.46468e-07 0)
(0.00100014 -1.69958e-07 0)
(0.00100016 -1.85059e-07 0)
(0.00100021 -2.21064e-07 0)
(0.00100023 -2.35644e-07 0)
(0.00100031 -2.97569e-07 0)
(0.00100033 -3.06251e-07 0)
(0.00100046 -4.22228e-07 0)
(0.001 -1.40594e-10 0)
(0.001 -6.35583e-12 0)
(0.00100001 6.71503e-10 0)
(0.00100001 1.37225e-09 0)
(0.00100001 2.04952e-09 0)
(0.00100002 1.92944e-09 0)
(0.00100003 1.56807e-09 0)
(0.00100004 -3.9291e-10 0)
(0.00100004 -2.41447e-09 0)
(0.00100006 -7.07446e-09 0)
(0.00100007 -1.12198e-08 0)
(0.00100009 -2.04547e-08 0)
(0.00100011 -2.71223e-08 0)
(0.00100013 -4.41952e-08 0)
(0.00100016 -5.34572e-08 0)
(0.00100019 -8.48823e-08 0)
(0.00100022 -9.54377e-08 0)
(0.00100028 -1.54658e-07 0)
(0.0010003 -1.61023e-07 0)
(0.00100039 -2.75936e-07 0)
(0.001 -2.88751e-09 0)
(0.001 -9.20244e-09 0)
(0.001 -1.62535e-08 0)
(0.001 -2.4305e-08 0)
(0.00100001 -3.29896e-08 0)
(0.00100001 -4.27107e-08 0)
(0.00100002 -5.28357e-08 0)
(0.00100002 -6.45506e-08 0)
(0.00100003 -7.64565e-08 0)
(0.00100004 -9.12425e-08 0)
(0.00100005 -1.05622e-07 0)
(0.00100007 -1.25387e-07 0)
(0.00100009 -1.42695e-07 0)
(0.00100011 -1.70862e-07 0)
(0.00100013 -1.91138e-07 0)
(0.00100016 -2.34223e-07 0)
(0.00100018 -2.5573e-07 0)
(0.00100024 -3.26536e-07 0)
(0.00100025 -3.41596e-07 0)
(0.00100033 -4.64486e-07 0)
(0.001 -2.54069e-09 0)
(0.001 -7.48439e-09 0)
(0.001 -1.21441e-08 0)
(0.00100001 -1.68646e-08 0)
(0.00100001 -2.16589e-08 0)
(0.00100001 -2.72059e-08 0)
(0.00100002 -3.31999e-08 0)
(0.00100002 -4.08538e-08 0)
(0.00100003 -4.89561e-08 0)
(0.00100004 -6.02073e-08 0)
(0.00100005 -7.1326e-08 0)
(0.00100006 -8.82471e-08 0)
(0.00100008 -1.03148e-07 0)
(0.0010001 -1.29363e-07 0)
(0.00100011 -1.48213e-07 0)
(0.00100014 -1.90144e-07 0)
(0.00100016 -2.10937e-07 0)
(0.0010002 -2.80497e-07 0)
(0.00100021 -2.94641e-07 0)
(0.00100027 -4.15112e-07 0)
(0.001 -2.87782e-09 0)
(0.001 -8.82656e-09 0)
(0.001 -1.51066e-08 0)
(0.001 -2.21243e-08 0)
(0.00100001 -2.98547e-08 0)
(0.00100001 -3.88566e-08 0)
(0.00100001 -4.86759e-08 0)
(0.00100002 -6.04505e-08 0)
(0.00100002 -7.29225e-08 0)
(0.00100003 -8.87173e-08 0)
(0.00100004 -1.04542e-07 0)
(0.00100005 -1.26404e-07 0)
(0.00100006 -1.463e-07 0)
(0.00100007 -1.77753e-07 0)
(0.00100009 -2.01707e-07 0)
(0.00100011 -2.49067e-07 0)
(0.00100012 -2.74637e-07 0)
(0.00100015 -3.49516e-07 0)
(0.00100016 -3.67313e-07 0)
(0.00100021 -4.92309e-07 0)
(0.001 -3.18118e-09 0)
(0.001 -9.70801e-09 0)
(0.001 -1.64805e-08 0)
(0.001 -2.38492e-08 0)
(0.001 -3.16877e-08 0)
(0.00100001 -4.06057e-08 0)
(0.00100001 -5.01243e-08 0)
(0.00100001 -6.15123e-08 0)
(0.00100002 -7.35372e-08 0)
(0.00100002 -8.88925e-08 0)
(0.00100003 -1.04392e-07 0)
(0.00100004 -1.26008e-07 0)
(0.00100004 -1.4584e-07 0)
(0.00100005 -1.77311e-07 0)
(0.00100006 -2.01569e-07 0)
(0.00100008 -2.49099e-07 0)
(0.00100009 -2.75162e-07 0)
(0.00100011 -3.49783e-07 0)
(0.00100012 -3.67732e-07 0)
(0.00100015 -4.90971e-07 0)
(0.001 -3.35513e-09 0)
(0.001 -1.02052e-08 0)
(0.001 -1.7255e-08 0)
(0.001 -2.49061e-08 0)
(0.001 -3.30449e-08 0)
(0.001 -4.23748e-08 0)
(0.00100001 -5.24428e-08 0)
(0.00100001 -6.45919e-08 0)
(0.00100001 -7.75333e-08 0)
(0.00100001 -9.40254e-08 0)
(0.00100002 -1.10815e-07 0)
(0.00100002 -1.339e-07 0)
(0.00100003 -1.55292e-07 0)
(0.00100003 -1.8856e-07 0)
(0.00100004 -2.14537e-07 0)
(0.00100005 -2.64042e-07 0)
(0.00100005 -2.91683e-07 0)
(0.00100007 -3.68305e-07 0)
(0.00100007 -3.87283e-07 0)
(0.00100009 -5.12621e-07 0)
(0.001 -3.42722e-09 0)
(0.001 -1.04336e-08 0)
(0.001 -1.7644e-08 0)
(0.001 -2.54727e-08 0)
(0.001 -3.38385e-08 0)
(0.001 -4.34425e-08 0)
(0.001 -5.38477e-08 0)
(0.001 -6.63656e-08 0)
(0.001 -7.96971e-08 0)
(0.001 -9.65791e-08 0)
(0.00100001 -1.1376e-07 0)
(0.00100001 -1.37219e-07 0)
(0.00100001 -1.59025e-07 0)
(0.00100001 -1.9266e-07 0)
(0.00100001 -2.19056e-07 0)
(0.00100002 -2.68842e-07 0)
(0.00100002 -2.96889e-07 0)
(0.00100002 -3.73579e-07 0)
(0.00100002 -3.92856e-07 0)
(0.00100003 -5.17612e-07 0)
(0.001 -3.41893e-09 0)
(0.001 -1.04215e-08 0)
(0.001 -1.76489e-08 0)
(0.000999999 -2.54797e-08 0)
(0.000999999 -3.38538e-08 0)
(0.000999999 -4.34509e-08 0)
(0.000999998 -5.38615e-08 0)
(0.000999997 -6.63653e-08 0)
(0.000999996 -7.9701e-08 0)
(0.000999995 -9.65774e-08 0)
(0.000999994 -1.13749e-07 0)
(0.000999993 -1.37223e-07 0)
(0.000999991 -1.59041e-07 0)
(0.000999989 -1.9267e-07 0)
(0.000999987 -2.1906e-07 0)
(0.000999984 -2.68841e-07 0)
(0.000999982 -2.96888e-07 0)
(0.000999978 -3.73575e-07 0)
(0.000999977 -3.92852e-07 0)
(0.00099997 -5.17606e-07 0)
(0.001 -3.33765e-09 0)
(0.001 -1.01852e-08 0)
(0.000999999 -1.72643e-08 0)
(0.000999998 -2.49121e-08 0)
(0.000999997 -3.30731e-08 0)
(0.000999996 -4.23872e-08 0)
(0.000999994 -5.2469e-08 0)
(0.000999992 -6.45908e-08 0)
(0.000999989 -7.75342e-08 0)
(0.000999986 -9.40225e-08 0)
(0.000999983 -1.10789e-07 0)
(0.000999978 -1.33893e-07 0)
(0.000999973 -1.55315e-07 0)
(0.000999967 -1.88581e-07 0)
(0.000999961 -2.14544e-07 0)
(0.000999952 -2.64024e-07 0)
(0.000999946 -2.91664e-07 0)
(0.000999934 -3.68275e-07 0)
(0.00099993 -3.87253e-07 0)
(0.000999911 -5.12562e-07 0)
(0.001 -3.17167e-09 0)
(0.001 -9.70441e-09 0)
(0.000999999 -1.64779e-08 0)
(0.000999997 -2.38432e-08 0)
(0.000999996 -3.16985e-08 0)
(0.000999993 -4.06073e-08 0)
(0.000999991 -5.0134e-08 0)
(0.000999987 -6.15169e-08 0)
(0.000999983 -7.35235e-08 0)
(0.000999977 -8.88914e-08 0)
(0.000999971 -1.04381e-07 0)
(0.000999964 -1.25987e-07 0)
(0.000999956 -1.45846e-07 0)
(0.000999945 -1.7734e-07 0)
(0.000999936 -2.01593e-07 0)
(0.000999921 -2.49097e-07 0)
(0.000999911 -2.75165e-07 0)
(0.000999889 -3.49787e-07 0)
(0.000999882 -3.6774e-07 0)
(0.000999852 -4.9096e-07 0)
(0.001 -2.88661e-09 0)
(0.000999999 -8.83695e-09 0)
(0.000999998 -1.50915e-08 0)
(0.000999996 -2.2121e-08 0)
(0.000999994 -2.98329e-08 0)
(0.000999991 -3.88543e-08 0)
(0.000999987 -4.86564e-08 0)
(0.000999982 -6.04649e-08 0)
(0.000999977 -7.29044e-08 0)
(0.000999969 -8.86941e-08 0)
(0.000999962 -1.04533e-07 0)
(0.000999951 -1.26367e-07 0)
(0.000999941 -1.46259e-07 0)
(0.000999925 -1.77721e-07 0)
(0.000999913 -2.01686e-07 0)
(0.000999891 -2.49018e-07 0)
(0.000999878 -2.74594e-07 0)
(0.000999847 -3.49437e-07 0)
(0.000999839 -3.67242e-07 0)
(0.000999792 -4.9217e-07 0)
(0.001 -2.55731e-09 0)
(0.000999999 -7.4935e-09 0)
(0.000999997 -1.21373e-08 0)
(0.000999995 -1.6871e-08 0)
(0.000999991 -2.16341e-08 0)
(0.000999987 -2.72265e-08 0)
(0.000999982 -3.31834e-08 0)
(0.000999975 -4.0888e-08 0)
(0.000999968 -4.89993e-08 0)
(0.000999959 -6.02137e-08 0)
(0.000999949 -7.13426e-08 0)
(0.000999935 -8.82532e-08 0)
(0.000999922 -1.03136e-07 0)
(0.000999903 -1.29345e-07 0)
(0.000999886 -1.48215e-07 0)
(0.000999859 -1.90151e-07 0)
(0.000999841 -2.10951e-07 0)
(0.000999802 -2.80488e-07 0)
(0.000999787 -2.94643e-07 0)
(0.000999731 -4.15096e-07 0)
(0.001 -2.8933e-09 0)
(0.001 -9.20174e-09 0)
(0.000999999 -1.62594e-08 0)
(0.000999997 -2.43006e-08 0)
(0.000999994 -3.29842e-08 0)
(0.00099999 -4.27028e-08 0)
(0.000999984 -5.28225e-08 0)
(0.000999977 -6.45146e-08 0)
(0.000999969 -7.65065e-08 0)
(0.000999958 -9.12711e-08 0)
(0.000999946 -1.05633e-07 0)
(0.00099993 -1.25386e-07 0)
(0.000999915 -1.42677e-07 0)
(0.000999891 -1.7081e-07 0)
(0.000999872 -1.91104e-07 0)
(0.000999837 -2.34175e-07 0)
(0.000999817 -2.55698e-07 0)
(0.000999764 -3.26439e-07 0)
(0.000999752 -3.41522e-07 0)
(0.00099967 -4.64324e-07 0)
(0.001 -1.37857e-10 0)
(0.000999998 -7.85228e-12 0)
(0.000999995 6.44495e-10 0)
(0.000999991 1.36873e-09 0)
(0.000999986 2.03458e-09 0)
(0.00099998 1.97473e-09 0)
(0.000999973 1.52585e-09 0)
(0.000999965 -3.12576e-10 0)
(0.000999955 -2.42304e-09 0)
(0.000999943 -7.13599e-09 0)
(0.00099993 -1.12668e-08 0)
(0.000999912 -2.04879e-08 0)
(0.000999894 -2.71425e-08 0)
(0.000999867 -4.41842e-08 0)
(0.000999845 -5.34468e-08 0)
(0.000999805 -8.4864e-08 0)
(0.000999779 -9.54312e-08 0)
(0.00099972 -1.54619e-07 0)
(0.000999699 -1.60992e-07 0)
(0.000999611 -2.75873e-07 0)
(0.001 -3.95897e-09 0)
(0.001 -1.3003e-08 0)
(0.001 -2.30375e-08 0)
(0.000999998 -3.36367e-08 0)
(0.000999995 -4.41837e-08 0)
(0.000999989 -5.49219e-08 0)
(0.000999983 -6.57287e-08 0)
(0.000999973 -7.73465e-08 0)
(0.000999963 -8.88783e-08 0)
(0.000999949 -1.02561e-07 0)
(0.000999935 -1.15288e-07 0)
(0.000999914 -1.32415e-07 0)
(0.000999896 -1.46496e-07 0)
(0.000999864 -1.69967e-07 0)
(0.000999841 -1.85073e-07 0)
(0.000999791 -2.21047e-07 0)
(0.000999767 -2.35664e-07 0)
(0.000999687 -2.9754e-07 0)
(0.000999672 -3.06258e-07 0)
(0.000999539 -4.22151e-07 0)
(0.001 3.98773e-09 0)
(0.000999996 1.20967e-08 0)
(0.000999991 2.02381e-08 0)
(0.000999987 2.79569e-08 0)
(0.000999982 3.51724e-08 0)
(0.000999976 4.1592e-08 0)
(0.000999969 4.78295e-08 0)
(0.000999959 5.30054e-08 0)
(0.000999948 5.84734e-08 0)
(0.000999934 6.23817e-08 0)
(0.000999919 6.69991e-08 0)
(0.000999897 6.85906e-08 0)
(0.000999878 7.26813e-08 0)
(0.000999844 6.98906e-08 0)
(0.000999819 7.40508e-08 0)
(0.000999767 6.17429e-08 0)
(0.000999738 6.72107e-08 0)
(0.000999654 3.18528e-08 0)
(0.000999629 3.99127e-08 0)
(0.000999495 -5.44715e-08 0)
(0.001 -8.72403e-09 0)
(0.001 -2.37584e-08 0)
(0.001 -3.59899e-08 0)
(0.000999997 -4.67142e-08 0)
(0.000999993 -5.69113e-08 0)
(0.000999986 -6.75615e-08 0)
(0.000999979 -7.79455e-08 0)
(0.000999968 -8.93119e-08 0)
(0.000999958 -9.99622e-08 0)
(0.000999942 -1.11925e-07 0)
(0.000999928 -1.22685e-07 0)
(0.000999903 -1.36201e-07 0)
(0.000999886 -1.46562e-07 0)
(0.000999846 -1.63366e-07 0)
(0.000999826 -1.72192e-07 0)
(0.00099976 -1.96324e-07 0)
(0.000999742 -2.00855e-07 0)
(0.000999623 -2.43112e-07 0)
(0.000999618 -2.3928e-07 0)
(0.000999394 -3.32006e-07 0)
)
;

boundaryField
{
    sides
    {
        type            slip;
    }
    inlet
    {
        type            fixedValue;
        value           uniform (0.001 0 0);
    }
    outlet
    {
        type            zeroGradient;
    }
    frontAndBack
    {
        type            empty;
    }
}


// ************************************************************************* //
