/*--------------------------------*- C++ -*----------------------------------*\
  =========                 |
  \\      /  F ield         | OpenFOAM: The Open Source CFD Toolbox
   \\    /   O peration     | Website:  https://openfoam.org
    \\  /    A nd           | Version:  7
     \\/     M anipulation  |
\*---------------------------------------------------------------------------*/
FoamFile
{
    version     2.0;
    format      ascii;
    class       volVectorField;
    location    "60";
    object      ddt0(hU);
}
// * * * * * * * * * * * * * * * * * * * * * * * * * * * * * * * * * * * * * //

dimensions      [0 2 -2 0 0 0 0];

internalField   nonuniform List<vector> 
400
(
(-1.01016e-10 -1.89402e-10 0)
(-4.3464e-10 -1.50625e-10 0)
(-2.19623e-10 4.24458e-11 0)
(1.72495e-10 -1.59069e-10 0)
(2.63107e-10 -6.9984e-10 0)
(-1.46546e-09 -1.7165e-10 0)
(1.01719e-10 -8.90928e-10 0)
(2.337e-09 -1.54684e-09 0)
(-9.47139e-10 3.88699e-10 0)
(-4.06391e-11 4.41857e-10 0)
(-2.61743e-10 3.9687e-10 0)
(-2.05382e-11 2.2104e-10 0)
(-1.88154e-10 -9.53375e-11 0)
(-5.56007e-10 -3.38949e-10 0)
(-6.57683e-10 -3.97117e-10 0)
(-4.31214e-10 -3.82941e-10 0)
(-1.79818e-11 -2.30788e-10 0)
(1.98922e-10 -1.15229e-10 0)
(4.23891e-10 6.49365e-11 0)
(1.51671e-10 2.38185e-10 0)
(3.70663e-11 -2.69312e-10 0)
(-1.16064e-10 -1.63793e-11 0)
(-2.45638e-10 3.45873e-10 0)
(-5.68052e-11 2.19251e-10 0)
(-1.91162e-10 -6.69581e-10 0)
(1.91957e-09 3.57908e-10 0)
(8.00639e-10 -1.31585e-09 0)
(-4.05141e-09 -1.26357e-09 0)
(1.26806e-09 3.77362e-10 0)
(-7.94132e-11 3.56798e-11 0)
(-3.88376e-10 2.12966e-10 0)
(-3.74703e-10 1.78535e-10 0)
(-5.30182e-10 -1.19566e-10 0)
(-6.1543e-10 -3.10425e-10 0)
(-5.21545e-10 -2.84864e-10 0)
(-2.92389e-10 -2.08417e-10 0)
(3.15423e-11 -1.45546e-10 0)
(1.79949e-10 -1.11138e-10 0)
(3.56792e-10 -8.32929e-11 0)
(1.46644e-10 5.17997e-11 0)
(4.76179e-12 -8.30332e-11 0)
(1.41361e-10 -1.61281e-10 0)
(-2.77721e-11 -3.35615e-10 0)
(-3.97858e-11 -2.16089e-10 0)
(-3.77723e-11 -4.70827e-10 0)
(9.19702e-11 3.19513e-11 0)
(-1.28119e-09 -5.27686e-10 0)
(1.60327e-09 9.50755e-10 0)
(4.50056e-10 1.79739e-10 0)
(-3.79132e-10 4.39061e-11 0)
(-1.46295e-10 3.4546e-10 0)
(-5.40594e-10 2.43952e-10 0)
(-8.30883e-10 -9.64411e-11 0)
(-6.7041e-10 -4.28094e-10 0)
(-3.65385e-10 -5.66329e-10 0)
(-6.89081e-11 -6.74753e-10 0)
(2.35843e-10 -5.43342e-10 0)
(2.74603e-10 -3.63946e-10 0)
(4.29546e-10 -4.56139e-11 0)
(1.27988e-10 3.76756e-10 0)
(3.6201e-11 6.04781e-11 0)
(-2.70918e-11 -2.26268e-10 0)
(-8.74967e-11 -6.27351e-10 0)
(-9.16866e-11 -6.09861e-10 0)
(1.48421e-10 -4.41419e-10 0)
(-9.90696e-11 -8.3049e-10 0)
(2.33378e-10 -5.68774e-11 0)
(9.17072e-10 2.6856e-10 0)
(-4.75803e-10 -3.58146e-10 0)
(-6.05289e-11 1.68701e-10 0)
(-3.57592e-11 2.86364e-10 0)
(-5.80104e-10 7.02298e-11 0)
(-7.51422e-10 -1.16172e-10 0)
(-5.38373e-10 -3.65373e-10 0)
(-2.84925e-10 -5.76727e-10 0)
(-9.12245e-11 -8.37987e-10 0)
(1.21558e-10 -7.61489e-10 0)
(1.59537e-10 -5.66138e-10 0)
(2.63016e-10 -1.7062e-10 0)
(1.07407e-10 4.38309e-10 0)
(7.72492e-11 7.03553e-11 0)
(-3.83096e-11 -1.66598e-10 0)
(4.55637e-12 -4.39509e-10 0)
(-1.39554e-10 -6.80948e-10 0)
(5.50758e-11 -4.15454e-10 0)
(-2.61896e-10 -8.59954e-10 0)
(3.29567e-10 -9.56667e-11 0)
(-2.06269e-10 -5.06307e-10 0)
(-3.27296e-10 -2.40119e-10 0)
(1.38392e-10 2.98841e-10 0)
(-2.46101e-10 2.28496e-10 0)
(-5.32331e-10 7.90669e-11 0)
(-3.8158e-10 2.84176e-11 0)
(-1.83769e-10 -2.3031e-10 0)
(-1.01226e-10 -5.53333e-10 0)
(-6.7211e-11 -9.11071e-10 0)
(3.07386e-11 -8.74507e-10 0)
(5.10355e-11 -6.88322e-10 0)
(1.70997e-10 -2.80792e-10 0)
(4.7373e-11 4.28426e-10 0)
(2.64767e-11 -3.21127e-11 0)
(-1.53352e-10 -4.43933e-10 0)
(-1.02198e-10 -7.56039e-10 0)
(-8.78869e-11 -1.10801e-09 0)
(5.12327e-11 -9.33272e-10 0)
(2.7308e-11 -9.04158e-10 0)
(2.94391e-10 -4.97066e-10 0)
(-1.29231e-10 -4.45887e-10 0)
(1.75944e-10 2.16083e-10 0)
(1.02638e-10 4.85624e-10 0)
(-4.91064e-10 4.28571e-10 0)
(-5.0657e-10 4.22419e-10 0)
(-3.22691e-10 2.35794e-10 0)
(-3.01078e-10 -3.31574e-10 0)
(-2.72309e-10 -8.66878e-10 0)
(-1.48695e-10 -1.33208e-09 0)
(3.55611e-11 -1.17343e-09 0)
(1.20576e-10 -8.53511e-10 0)
(3.60436e-10 -2.44173e-10 0)
(2.39312e-10 6.72893e-10 0)
(-2.07716e-11 -1.43868e-10 0)
(-1.14493e-10 -4.67524e-10 0)
(-1.02337e-10 -7.22109e-10 0)
(2.64898e-13 -8.99453e-10 0)
(-2.59363e-11 -1.06145e-09 0)
(6.74347e-11 -8.40589e-10 0)
(-3.92467e-11 -7.54579e-10 0)
(-1.21616e-10 -4.62391e-10 0)
(9.65858e-11 3.24452e-11 0)
(-1.92479e-10 1.32436e-10 0)
(-2.35903e-10 3.63624e-10 0)
(3.62946e-11 5.32099e-10 0)
(7.00857e-11 2.51768e-10 0)
(-1.19694e-10 -3.77918e-10 0)
(-2.4165e-10 -8.66554e-10 0)
(-2.46123e-10 -1.30204e-09 0)
(-2.01258e-10 -1.17815e-09 0)
(-1.58955e-10 -8.61075e-10 0)
(6.85356e-11 -2.89386e-10 0)
(1.97662e-10 6.32453e-10 0)
(-4.85764e-11 -2.49604e-10 0)
(-5.36381e-11 -5.46893e-10 0)
(-8.6438e-11 -8.63965e-10 0)
(3.53208e-11 -9.7776e-10 0)
(-1.34089e-12 -1.17977e-09 0)
(1.45859e-10 -9.77836e-10 0)
(-3.11779e-11 -8.26149e-10 0)
(1.01002e-10 -3.15382e-10 0)
(3.89946e-12 6.98269e-11 0)
(-1.69295e-10 3.80587e-10 0)
(2.17463e-11 7.08867e-10 0)
(-2.70389e-11 6.28952e-10 0)
(-2.0894e-10 8.67916e-11 0)
(-2.4313e-10 -6.80465e-10 0)
(-2.3151e-10 -1.16277e-09 0)
(-1.69829e-10 -1.56461e-09 0)
(-3.6789e-11 -1.33669e-09 0)
(3.69863e-11 -8.83066e-10 0)
(2.43505e-10 -1.00745e-10 0)
(2.40665e-10 8.75276e-10 0)
(-1.89426e-11 -2.62846e-10 0)
(5.64752e-12 -6.37253e-10 0)
(-2.90402e-11 -8.99562e-10 0)
(2.27521e-11 -1.11872e-09 0)
(4.32317e-11 -1.17488e-09 0)
(8.84291e-11 -1.11751e-09 0)
(1.97929e-12 -8.95046e-10 0)
(7.08777e-11 -4.39865e-10 0)
(-6.8944e-11 -1.13304e-10 0)
(-5.19718e-11 4.11154e-10 0)
(3.18823e-11 6.50388e-10 0)
(-1.29786e-10 4.85696e-10 0)
(-1.85194e-10 9.2188e-11 0)
(-6.64574e-11 -6.10676e-10 0)
(-2.26281e-11 -1.13168e-09 0)
(-3.79284e-11 -1.55405e-09 0)
(1.0516e-11 -1.34794e-09 0)
(6.29138e-11 -8.99366e-10 0)
(8.7967e-11 -1.26807e-10 0)
(3.71373e-11 8.6924e-10 0)
(2.196e-12 -2.26515e-10 0)
(-4.86038e-12 -6.84064e-10 0)
(2.81833e-11 -9.37708e-10 0)
(-1.12555e-11 -1.21235e-09 0)
(3.24544e-11 -1.24501e-09 0)
(-3.72514e-11 -1.21223e-09 0)
(4.99378e-11 -9.2609e-10 0)
(9.4841e-12 -4.81251e-10 0)
(3.28613e-11 -6.6878e-11 0)
(5.65306e-11 4.73627e-10 0)
(-9.40317e-11 6.43723e-10 0)
(-1.07565e-10 4.91836e-10 0)
(-1.15811e-10 1.47423e-10 0)
(-1.46738e-10 -5.64616e-10 0)
(-6.44816e-11 -1.13745e-09 0)
(5.96148e-11 -1.59986e-09 0)
(1.55432e-10 -1.38129e-09 0)
(1.74004e-10 -9.30972e-10 0)
(1.44841e-10 -1.39735e-10 0)
(-2.40861e-11 8.96538e-10 0)
(9.77843e-12 -2.22261e-10 0)
(-1.14328e-11 -6.17745e-10 0)
(4.34318e-11 -9.86476e-10 0)
(-3.15973e-11 -1.19083e-09 0)
(8.09708e-12 -1.3025e-09 0)
(-8.34638e-11 -1.17427e-09 0)
(6.75719e-11 -9.25383e-10 0)
(-3.65825e-12 -5.10302e-10 0)
(4.75666e-11 -3.52219e-11 0)
(5.65196e-11 3.56638e-10 0)
(-1.28775e-10 6.26089e-10 0)
(-5.39711e-11 5.86818e-10 0)
(5.26894e-13 1.90214e-10 0)
(-4.87003e-11 -4.67067e-10 0)
(3.44824e-11 -9.63395e-10 0)
(1.44638e-10 -1.48973e-09 0)
(1.60213e-10 -1.37981e-09 0)
(1.278e-10 -1.0137e-09 0)
(-4.38343e-11 -2.73023e-10 0)
(-1.80725e-10 8.23228e-10 0)
(1.23494e-11 -1.97183e-10 0)
(2.55883e-11 -5.84095e-10 0)
(2.25906e-11 -9.62389e-10 0)
(-8.67538e-12 -1.13086e-09 0)
(-1.56758e-11 -1.2573e-09 0)
(-6.55515e-11 -1.08199e-09 0)
(-3.71918e-11 -8.56958e-10 0)
(3.01515e-11 -5.44676e-10 0)
(-4.45279e-13 -5.26613e-11 0)
(1.22485e-10 2.07572e-10 0)
(1.5253e-10 4.85357e-10 0)
(4.06254e-11 5.67992e-10 0)
(2.01831e-11 2.41371e-10 0)
(7.90973e-11 -3.49092e-10 0)
(4.71325e-11 -8.19337e-10 0)
(-3.65537e-11 -1.37263e-09 0)
(-3.22238e-11 -1.32546e-09 0)
(3.38685e-11 -1.04473e-09 0)
(-1.72673e-12 -4.16084e-10 0)
(-6.98937e-11 7.00348e-10 0)
(-2.19303e-11 -1.58274e-10 0)
(3.15213e-11 -5.73531e-10 0)
(6.35216e-12 -8.37383e-10 0)
(6.60946e-11 -1.12382e-09 0)
(-2.31244e-11 -1.1264e-09 0)
(2.0763e-11 -1.06634e-09 0)
(-1.67365e-10 -7.1016e-10 0)
(3.55187e-12 -4.62389e-10 0)
(-1.01866e-10 6.24413e-11 0)
(-2.63747e-11 4.07795e-10 0)
(3.65814e-10 4.51904e-10 0)
(3.48882e-10 3.88222e-10 0)
(2.53665e-10 1.26556e-10 0)
(2.70153e-10 -4.66672e-10 0)
(1.42507e-10 -9.88227e-10 0)
(-8.19867e-11 -1.46813e-09 0)
(-2.30255e-10 -1.28655e-09 0)
(-2.09635e-10 -9.55278e-10 0)
(-2.40163e-10 -3.14862e-10 0)
(-6.90125e-11 7.42589e-10 0)
(-2.14011e-11 -1.55159e-10 0)
(2.0088e-11 -4.66678e-10 0)
(2.76798e-12 -6.86885e-10 0)
(7.68589e-11 -9.64371e-10 0)
(-5.21733e-11 -8.89459e-10 0)
(1.0328e-10 -1.03953e-09 0)
(-1.04133e-10 -6.56576e-10 0)
(-6.83754e-12 -4.70771e-10 0)
(9.46659e-11 -1.92962e-10 0)
(-1.75666e-10 3.65979e-10 0)
(8.43029e-11 4.04173e-10 0)
(3.78692e-10 1.79225e-10 0)
(3.73277e-10 -3.49908e-11 0)
(2.62447e-10 -4.94947e-10 0)
(1.31358e-10 -9.13881e-10 0)
(8.74964e-12 -1.28444e-09 0)
(-1.30431e-10 -1.1147e-09 0)
(-1.49853e-10 -8.11373e-10 0)
(-1.08265e-10 -2.67754e-10 0)
(5.82974e-11 6.37856e-10 0)
(1.7749e-11 -1.67992e-10 0)
(6.9256e-11 -4.31887e-10 0)
(9.23262e-11 -7.58821e-10 0)
(2.91297e-11 -8.63732e-10 0)
(-7.6238e-11 -9.615e-10 0)
(-7.26777e-11 -8.9422e-10 0)
(-5.48866e-11 -5.62926e-10 0)
(-4.137e-10 -5.84621e-11 0)
(1.13843e-10 -3.84546e-13 0)
(4.24256e-11 5.30417e-10 0)
(-8.27569e-11 7.70875e-10 0)
(3.68479e-10 4.25743e-10 0)
(7.07346e-10 -9.11593e-11 0)
(6.26127e-10 -7.01715e-10 0)
(3.98091e-10 -1.08867e-09 0)
(1.18603e-10 -1.38183e-09 0)
(-2.3197e-10 -1.11062e-09 0)
(-3.50257e-10 -7.01853e-10 0)
(-4.17917e-10 -4.02572e-11 0)
(-1.04719e-10 7.75323e-10 0)
(4.83766e-11 -7.63218e-11 0)
(6.8149e-11 -1.61097e-10 0)
(1.10624e-10 -3.78927e-10 0)
(-6.35177e-11 -3.82475e-10 0)
(7.1109e-11 -7.98836e-10 0)
(-1.00998e-10 -2.97867e-10 0)
(3.9616e-10 -7.06195e-10 0)
(-3.08847e-10 1.24922e-10 0)
(-4.98981e-11 3.48816e-12 0)
(3.4926e-10 1.05193e-10 0)
(-4.33964e-11 5.04667e-10 0)
(-4.77641e-11 4.75666e-10 0)
(3.0649e-10 5.23161e-11 0)
(4.69777e-10 -4.88218e-10 0)
(4.38927e-10 -8.01061e-10 0)
(2.84909e-10 -1.02731e-09 0)
(1.71041e-11 -8.60447e-10 0)
(-1.13789e-10 -5.53479e-10 0)
(-2.7176e-10 -9.2161e-11 0)
(-1.0553e-10 5.18148e-10 0)
(3.8526e-11 -5.65997e-11 0)
(2.14915e-10 -1.9857e-10 0)
(2.29649e-10 -4.10374e-10 0)
(-9.48481e-11 -5.46863e-10 0)
(7.86571e-11 -9.33962e-10 0)
(-3.87231e-10 -1.86761e-10 0)
(4.03092e-10 -1.23038e-09 0)
(-3.63873e-11 -1.73683e-10 0)
(-6.13603e-10 2.59287e-10 0)
(3.04321e-10 1.34918e-10 0)
(3.25843e-10 4.24346e-10 0)
(6.71207e-11 5.26487e-10 0)
(2.30876e-10 1.96502e-10 0)
(4.92303e-10 -3.52451e-10 0)
(5.58754e-10 -7.18394e-10 0)
(4.18408e-10 -9.72658e-10 0)
(1.15123e-10 -8.19916e-10 0)
(-9.23616e-11 -5.44328e-10 0)
(-3.74082e-10 -1.04882e-10 0)
(-2.55186e-10 4.73377e-10 0)
(4.32258e-11 1.87626e-11 0)
(2.6388e-10 -1.94809e-10 0)
(1.25502e-10 -2.7395e-10 0)
(-1.33923e-10 -5.11985e-10 0)
(8.68895e-11 -3.56816e-10 0)
(-3.18585e-10 -5.58315e-10 0)
(-2.45917e-10 -1.41237e-09 0)
(1.65857e-09 -6.55872e-10 0)
(-4.17389e-10 4.39794e-10 0)
(2.19405e-10 3.34896e-10 0)
(6.26849e-10 1.56044e-10 0)
(2.26288e-10 1.82133e-10 0)
(1.50899e-10 1.24352e-10 0)
(3.30636e-10 -1.5993e-10 0)
(4.28637e-10 -4.43831e-10 0)
(3.24885e-10 -7.00759e-10 0)
(2.47388e-11 -6.39036e-10 0)
(-1.52723e-10 -4.62529e-10 0)
(-4.7911e-10 -9.69733e-11 0)
(-2.44907e-10 3.68138e-10 0)
(-7.23383e-12 1.60132e-10 0)
(1.90739e-10 -6.89647e-11 0)
(1.66733e-10 -2.05158e-10 0)
(6.12955e-11 -3.06152e-10 0)
(-2.04477e-10 6.01247e-10 0)
(-6.03481e-10 -8.08058e-10 0)
(-9.70334e-10 2.62153e-09 0)
(4.16319e-09 -5.96963e-10 0)
(4.79073e-10 -6.74128e-10 0)
(-3.02821e-10 -2.34022e-10 0)
(2.18093e-10 -5.47276e-10 0)
(4.32152e-10 -3.27617e-10 0)
(4.69518e-10 6.50327e-11 0)
(4.58455e-10 1.76189e-10 0)
(3.88751e-10 5.66653e-11 0)
(2.63889e-10 -1.49427e-10 0)
(3.69517e-11 -2.71546e-10 0)
(-8.93554e-11 -2.71063e-10 0)
(-3.18705e-10 -1.82566e-10 0)
(-1.85693e-10 2.69923e-11 0)
(-1.13884e-10 7.31742e-11 0)
(-7.64305e-11 -1.4972e-10 0)
(6.86301e-11 -4.11139e-10 0)
(2.95875e-10 -4.27186e-10 0)
(-2.09481e-10 2.25878e-10 0)
(1.03252e-09 -5.42984e-10 0)
(2.54826e-10 3.2827e-09 0)
(-5.61434e-09 -2.27535e-11 0)
(2.41467e-10 -5.76984e-10 0)
(8.8163e-11 -3.43754e-11 0)
(3.28646e-10 -1.20013e-10 0)
(1.02346e-09 -3.49434e-11 0)
(9.32464e-10 5.15695e-11 0)
(4.99854e-10 -5.14483e-11 0)
(1.93811e-10 -2.08891e-10 0)
(4.5311e-11 -3.57594e-10 0)
(-9.72864e-11 -3.0515e-10 0)
(-1.07637e-10 -1.97991e-10 0)
(-2.98635e-10 1.66725e-11 0)
(-1.18808e-10 2.25661e-10 0)
)
;

boundaryField
{
    sides
    {
        type            calculated;
        value           nonuniform List<vector> 
40
(
(-1.13884e-10 0 0)
(-7.64305e-11 0 0)
(6.86301e-11 0 0)
(2.95875e-10 0 0)
(-2.09481e-10 0 0)
(1.03252e-09 0 0)
(2.54826e-10 0 0)
(-5.61434e-09 0 0)
(2.41467e-10 0 0)
(8.8163e-11 0 0)
(3.28646e-10 0 0)
(1.02346e-09 0 0)
(9.32464e-10 0 0)
(4.99854e-10 0 0)
(1.93811e-10 0 0)
(4.5311e-11 0 0)
(-9.72864e-11 0 0)
(-1.07637e-10 0 0)
(-2.98635e-10 0 0)
(-1.18808e-10 0 0)
(-1.01016e-10 0 0)
(-4.3464e-10 0 0)
(-2.19623e-10 0 0)
(1.72495e-10 0 0)
(2.63107e-10 0 0)
(-1.46546e-09 0 0)
(1.01719e-10 0 0)
(2.337e-09 0 0)
(-9.47139e-10 0 0)
(-4.06391e-11 0 0)
(-2.61743e-10 0 0)
(-2.05382e-11 0 0)
(-1.88154e-10 0 0)
(-5.56007e-10 0 0)
(-6.57683e-10 0 0)
(-4.31214e-10 0 0)
(-1.79818e-11 0 0)
(1.98922e-10 0 0)
(4.23891e-10 0 0)
(1.51671e-10 0 0)
)
;
    }
    inlet
    {
        type            calculated;
        value           uniform (0 0 0);
    }
    outlet
    {
        type            calculated;
        value           nonuniform List<vector> 
20
(
(1.51671e-10 2.38185e-10 0)
(1.46644e-10 5.17997e-11 0)
(1.27988e-10 3.76756e-10 0)
(1.07407e-10 4.38309e-10 0)
(4.7373e-11 4.28426e-10 0)
(2.39312e-10 6.72893e-10 0)
(1.97662e-10 6.32453e-10 0)
(2.40665e-10 8.75276e-10 0)
(3.71373e-11 8.6924e-10 0)
(-2.40861e-11 8.96538e-10 0)
(-1.80725e-10 8.23228e-10 0)
(-6.98937e-11 7.00348e-10 0)
(-6.90125e-11 7.42589e-10 0)
(5.82974e-11 6.37856e-10 0)
(-1.04719e-10 7.75323e-10 0)
(-1.0553e-10 5.18148e-10 0)
(-2.55186e-10 4.73377e-10 0)
(-2.44907e-10 3.68138e-10 0)
(-1.85693e-10 2.69923e-11 0)
(-1.18808e-10 2.25661e-10 0)
)
;
    }
    frontAndBack
    {
        type            empty;
    }
}


// ************************************************************************* //
