/*--------------------------------*- C++ -*----------------------------------*\
  =========                 |
  \\      /  F ield         | OpenFOAM: The Open Source CFD Toolbox
   \\    /   O peration     | Website:  https://openfoam.org
    \\  /    A nd           | Version:  7
     \\/     M anipulation  |
\*---------------------------------------------------------------------------*/
FoamFile
{
    version     2.0;
    format      ascii;
    class       surfaceScalarField;
    location    "60";
    object      ddtCorrDdt0(phi);
}
// * * * * * * * * * * * * * * * * * * * * * * * * * * * * * * * * * * * * * //

dimensions      [0 4 -2 0 0 0 0];

internalField   nonuniform List<scalar> 
760
(
-1.57346e-12
-1.33129e-12
-2.50871e-12
-2.40502e-13
-4.25251e-13
1.14442e-12
5.15397e-12
-9.43784e-13
-9.59158e-12
-2.98988e-12
2.4063e-12
9.12767e-11
5.85575e-12
2.36869e-10
-8.97843e-13
-2.38782e-10
3.25662e-13
-2.37461e-12
-1.67366e-12
8.19182e-13
-4.23209e-13
1.24604e-12
-7.177e-14
1.09771e-12
-1.94386e-12
-1.30745e-13
-3.27569e-12
-1.29749e-12
-2.85367e-12
-1.5524e-12
-1.13187e-12
-1.43799e-12
5.71281e-13
-9.25525e-13
1.5731e-12
-5.35999e-13
1.535e-12
-4.34942e-14
6.98512e-13
-4.95563e-13
-2.25439e-12
1.12081e-13
-7.76844e-13
-1.45617e-12
-1.66958e-13
-2.67047e-13
3.30968e-13
3.07878e-12
-3.79776e-12
9.82808e-12
3.31797e-12
-1.35015e-11
-1.5316e-11
-2.0658e-12
-5.04944e-12
1.58376e-12
3.60355e-12
-1.69304e-12
3.22086e-13
-1.66604e-12
1.17806e-12
-2.18141e-12
1.06983e-12
-2.97502e-12
-4.00149e-13
-2.92258e-12
-1.81916e-12
-2.00922e-12
-2.26565e-12
-6.40526e-13
-2.4787e-12
5.63594e-13
-1.99367e-12
1.31523e-12
-1.31947e-12
1.3292e-12
-3.06392e-13
1.13751e-12
9.30658e-13
-5.64755e-13
1.05251e-12
-9.12474e-13
-2.637e-13
-1.89763e-12
-2.81816e-12
-9.24099e-13
4.87837e-12
-3.07409e-12
-7.75911e-12
-3.14729e-13
1.90768e-12
-2.76103e-12
7.74863e-12
8.5874e-12
-2.28557e-12
-8.36869e-13
-5.96615e-13
3.95951e-14
-1.46951e-12
1.47075e-12
-3.78214e-12
4.53331e-13
-3.9757e-12
-8.96414e-13
-2.50316e-12
-2.06091e-12
-9.33489e-13
-2.66302e-12
4.43564e-13
-3.51242e-12
1.28125e-12
-3.08563e-12
1.73448e-12
-2.229e-12
1.50955e-12
-5.23954e-13
1.98524e-12
1.54792e-13
4.25374e-13
-1.45572e-13
-1.0024e-12
5.95927e-13
-2.93809e-12
-2.44888e-12
-3.31705e-12
3.73494e-12
-2.25697e-12
-4.3761e-12
-4.94193e-12
7.25563e-12
1.08711e-12
-7.67546e-13
-1.9868e-12
-1.94873e-12
-2.03371e-12
7.2762e-13
1.61508e-12
-1.61716e-12
1.77522e-12
-3.74919e-12
4.41699e-13
-3.31193e-12
-3.66904e-13
-1.86774e-12
-1.65226e-12
-8.16533e-13
-2.98652e-12
1.68121e-14
-4.55584e-12
6.868e-13
-4.22759e-12
1.03546e-12
-3.18033e-12
9.80123e-13
-1.02905e-12
2.27261e-12
1.81626e-13
2.21579e-13
-1.76901e-13
-1.51379e-12
5.8948e-13
-3.09325e-12
-1.34025e-12
-4.96673e-12
4.60194e-15
-2.81883e-12
-5.47414e-13
-4.7667e-12
1.852e-12
-1.69236e-12
-3.0747e-12
-3.06424e-12
2.12575e-13
-1.71566e-13
1.29479e-13
2.01263e-12
-2.43733e-12
1.36553e-12
-2.48015e-12
9.30437e-13
-1.28077e-12
7.19091e-13
-5.41911e-13
-1.10582e-12
-3.89207e-13
-3.28842e-12
-1.60738e-13
-5.41366e-12
1.86132e-13
-5.00793e-12
5.56126e-13
-3.86526e-12
6.49833e-13
-1.47155e-12
2.63957e-12
-4.83825e-13
-3.23876e-13
-4.81528e-13
-2.17907e-12
-5.30045e-13
-3.39304e-12
5.29614e-13
-5.09936e-12
-1.07051e-12
-5.12159e-12
1.88535e-12
-3.88555e-12
1.21112e-13
-3.04881e-12
-5.3565e-13
-2.033e-12
1.5938e-12
1.22045e-12
-1.25702e-12
1.63222e-12
-2.96115e-12
1.77605e-12
-1.88123e-12
2.47327e-12
-1.34521e-12
1.46739e-12
-1.44866e-12
-1.65274e-12
-1.1098e-12
-4.41264e-12
-2.87634e-13
-6.73186e-12
3.75776e-13
-5.93799e-12
1.06688e-12
-4.32321e-12
1.58864e-12
-1.39026e-12
3.22231e-12
-5.82144e-13
-1.05979e-12
-9.22128e-14
-2.60422e-12
-8.13153e-13
-4.13159e-12
6.50865e-13
-4.37024e-12
-7.37413e-13
-5.81504e-12
9.38883e-13
-4.42573e-12
-1.1731e-12
-4.0205e-12
3.28457e-13
-1.7587e-12
-9.78798e-14
2.56441e-13
-1.57863e-12
9.59854e-13
-4.85681e-13
2.79777e-12
5.46806e-13
3.278e-12
-2.40159e-14
9.67546e-13
-1.05605e-12
-2.68361e-12
-1.29741e-12
-5.05224e-12
-1.00362e-12
-7.10769e-12
-9.05136e-13
-6.24488e-12
-4.78837e-13
-4.33796e-12
7.54263e-13
-1.01531e-12
3.74055e-12
-2.70426e-13
-1.45738e-12
-2.75803e-13
-2.83674e-12
-5.67861e-14
-4.4286e-12
-1.11588e-13
-5.16693e-12
4.79167e-13
-5.82795e-12
4.14527e-13
-5.35975e-12
-1.82221e-13
-4.49894e-12
7.89504e-13
-1.98855e-12
-9.72387e-13
-3.43424e-13
-4.00426e-13
1.99458e-12
3.09226e-13
3.57561e-12
-6.33746e-13
2.73337e-12
-1.16381e-12
1.69666e-13
-1.23509e-12
-3.45852e-12
-1.04318e-12
-5.78279e-12
-4.0861e-13
-7.77346e-12
1.237e-14
-6.73983e-12
4.51226e-13
-4.4781e-12
1.26568e-12
-4.76473e-13
4.43432e-12
2.93109e-13
-1.20097e-12
-3.1326e-13
-3.52059e-12
3.24875e-13
-4.5305e-12
-2.35949e-13
-6.01174e-12
6.06802e-13
-6.00857e-12
1.78575e-14
-5.9926e-12
2.99829e-13
-4.53698e-12
1.11502e-13
-2.28806e-12
-6.95147e-13
-4.38686e-13
1.81526e-13
2.46792e-12
-6.98697e-14
3.17926e-12
-9.90596e-13
2.19464e-12
-7.10072e-13
5.23945e-13
-1.53597e-13
-3.06106e-12
-1.13787e-13
-5.93043e-12
-6.17184e-14
-8.03541e-12
1.85588e-13
-6.78405e-12
3.39333e-13
-4.39937e-12
3.40191e-13
-4.44557e-13
4.51924e-12
3.41765e-15
-1.08963e-12
2.09242e-13
-3.37532e-12
-4.45949e-14
-4.87619e-12
9.29496e-14
-6.13367e-12
-1.03021e-13
-6.37173e-12
-3.64875e-14
-5.98176e-12
4.07531e-13
-4.60004e-12
-1.66456e-13
-2.52255e-12
3.9106e-13
-3.4793e-13
-1.02016e-13
2.05706e-12
-5.41724e-13
3.14461e-12
-5.05343e-13
2.7378e-12
-8.2936e-13
1.02189e-12
-5.66617e-13
-2.40056e-12
1.36845e-13
-5.16099e-12
5.27616e-13
-7.70923e-12
8.35959e-13
-6.94329e-12
9.56267e-13
-4.9382e-12
2.70396e-13
-1.08839e-12
4.2882e-12
-2.06781e-13
-1.13357e-12
3.27519e-13
-2.82533e-12
-1.90181e-13
-5.04605e-12
1.69432e-13
-5.79629e-12
-3.5917e-13
-6.59738e-12
-7.63923e-14
-5.63473e-12
4.14841e-13
-4.53424e-12
-2.55747e-13
-2.57014e-12
5.96135e-13
-1.15576e-13
-2.58576e-13
1.35189e-12
-5.32572e-13
2.95983e-12
3.98445e-15
3.0629e-12
-2.97025e-13
9.71888e-13
-8.10457e-14
-2.07229e-12
5.84791e-13
-4.25797e-12
6.87003e-13
-6.9813e-12
7.22413e-13
-6.7353e-12
4.6863e-13
-5.16747e-12
-5.94843e-13
-1.73996e-12
3.80414e-12
1.44691e-13
-8.32711e-13
-1.63707e-13
-3.00355e-12
2.65398e-13
-4.55706e-12
-2.18778e-13
-5.5011e-12
3.00537e-14
-6.10591e-12
-5.31043e-13
-5.38731e-12
2.30238e-13
-4.12848e-12
-8.53825e-15
-2.72483e-12
2.05202e-13
-5.95866e-14
8.76366e-13
1.18216e-12
5.26994e-13
2.13294e-12
3.18395e-15
2.53821e-12
2.06129e-13
1.1614e-12
4.6517e-13
-1.8383e-12
3.83771e-14
-4.39709e-12
-3.62365e-13
-7.05579e-12
1.0873e-14
-6.50938e-12
3.23101e-13
-5.06556e-12
-2.13286e-13
-1.99745e-12
3.50378e-12
-9.04742e-14
-7.84701e-13
-1.9476e-13
-2.76064e-12
5.37629e-13
-3.72334e-12
-2.23073e-13
-5.5585e-12
4.19825e-13
-4.97538e-12
-6.37567e-13
-5.24759e-12
-5.1283e-13
-3.22813e-12
2.50174e-13
-2.43861e-12
-8.64067e-13
-1.09999e-13
9.99604e-13
2.09932e-12
2.07859e-12
1.79673e-12
1.32857e-12
1.05964e-12
1.3346e-12
2.63923e-13
1.16906e-12
-2.22588e-12
5.85864e-14
-4.69167e-12
-9.15656e-13
-6.86233e-12
-1.11841e-12
-5.96421e-12
-1.07666e-12
-4.42302e-12
-7.84157e-13
-1.58129e-12
3.37067e-12
-3.45369e-13
-7.39009e-13
2.45304e-13
-2.01754e-12
-2.62289e-13
-3.51396e-12
6.54007e-13
-4.46828e-12
-2.03287e-13
-4.12385e-12
5.07617e-13
-5.18177e-12
-1.16361e-12
-2.92594e-12
1.08818e-12
-1.38102e-12
-4.00113e-13
-7.15048e-13
-6.40632e-13
2.76746e-12
1.36363e-12
3.33848e-12
2.06283e-12
1.35283e-12
1.70766e-12
-6.69861e-13
9.46776e-13
-3.32917e-12
2.21612e-13
-5.28699e-12
-3.15093e-13
-6.85678e-12
-7.40733e-13
-5.64743e-12
-7.78389e-13
-3.76821e-12
-1.39334e-13
-6.08548e-13
3.63851e-12
1.11703e-13
-7.57217e-13
4.68741e-13
-1.49202e-12
-3.51619e-13
-2.87342e-12
1.15736e-12
-2.67912e-12
-1.82753e-12
-4.80271e-12
1.15228e-12
-3.1444e-12
-2.2287e-12
-2.6757e-12
-6.59477e-13
3.44764e-13
1.29729e-12
-2.98851e-13
-7.17892e-13
1.16855e-12
3.87909e-13
3.29798e-12
3.0025e-12
2.34546e-12
3.58288e-12
-2.44323e-13
2.49117e-12
-3.11851e-12
1.19607e-12
-4.6968e-12
-2.35226e-13
-5.8925e-12
-1.51383e-12
-4.81867e-12
-2.0213e-12
-3.03149e-12
-1.33359e-12
-2.73133e-13
3.23451e-12
4.15625e-13
-3.02619e-13
4.1642e-14
-1.06757e-12
3.68599e-13
-2.10916e-12
1.15162e-13
-2.4669e-12
-6.73222e-13
-4.76829e-12
1.56548e-12
-3.07471e-13
3.23534e-13
-5.52051e-12
-2.11242e-12
1.14602e-12
1.95305e-12
1.00916e-12
7.99928e-13
7.22704e-13
-8.50925e-13
2.42838e-12
6.89466e-13
2.89168e-12
2.188e-12
8.72024e-13
2.31261e-12
-2.1535e-12
1.77205e-12
-3.99719e-12
7.97519e-13
-5.2358e-12
-2.7091e-13
-4.35977e-12
-1.02433e-12
-2.76865e-12
-1.04237e-12
-3.91251e-13
2.57077e-12
1.17128e-12
-1.86333e-13
3.98008e-13
-8.19617e-13
1.29258e-12
-1.48414e-12
-2.19449e-12
-2.92553e-12
2.551e-12
-1.95518e-12
-3.75573e-12
-2.86297e-12
4.79779e-12
-4.27876e-12
-4.37257e-12
-4.48516e-12
-5.06978e-14
2.49308e-12
2.29595e-12
3.37617e-13
5.82119e-13
7.68769e-13
4.54864e-13
1.77036e-12
1.86687e-12
1.12122e-12
2.72856e-12
-9.75868e-13
2.49222e-12
-2.68175e-12
1.41071e-12
-3.98787e-12
6.24743e-14
-3.51287e-12
-1.14141e-12
-2.48441e-12
-1.67725e-12
-5.85445e-13
2.00677e-12
1.32071e-12
7.81316e-13
6.14097e-13
-9.42188e-13
8.05459e-13
-1.6556e-12
-3.56672e-12
-3.17076e-12
6.23746e-12
6.36022e-13
-1.01438e-11
-3.94748e-12
1.03661e-11
-2.45466e-12
9.40679e-13
-5.90703e-12
-1.25381e-12
-9.79619e-13
3.28458e-12
7.43746e-13
2.0345e-12
-3.80638e-13
5.59179e-13
-8.61338e-14
1.12192e-12
4.36483e-13
1.95165e-12
-1.61162e-13
1.97528e-12
-1.20512e-12
9.50334e-13
-2.30166e-12
-3.25377e-13
-2.38168e-12
-1.52968e-12
-1.90862e-12
-1.98116e-12
-7.19156e-13
1.02856e-12
2.76141e-13
6.33543e-13
1.295e-12
-7.37487e-13
6.87668e-14
-1.84011e-12
-4.65702e-13
-9.26903e-13
1.4831e-12
2.76496e-12
-1.29991e-11
-3.06872e-10
1.56359e-11
4.64025e-10
1.12085e-11
-3.57089e-10
-1.16324e-12
-1.03639e-11
-6.06986e-14
-3.96598e-13
1.80784e-12
-1.26022e-12
2.26871e-12
-1.15693e-12
2.29911e-12
-2.16583e-13
2.0673e-12
1.34663e-13
1.62655e-12
-2.14747e-13
8.1115e-13
-9.47587e-13
-1.43823e-13
-1.17465e-12
-9.12911e-13
-1.08245e-12
-1.34705e-12
-4.39726e-13
5.77764e-13
-9.55207e-13
-4.10175e-13
-4.51337e-13
5.37254e-12
-8.93106e-12
2.21541e-11
-3.06967e-11
-7.54016e-12
1.58235e-12
-3.07841e-13
3.97055e-12
5.35908e-12
3.54965e-12
1.51582e-12
4.55337e-13
-1.35113e-13
-4.94474e-13
-8.78475e-13
-1.13466e-12
)
;

boundaryField
{
    sides
    {
        type            calculated;
        value           uniform 0;
    }
    inlet
    {
        type            calculated;
        value           uniform 0;
    }
    outlet
    {
        type            calculated;
        value           nonuniform List<scalar> 
20
(
6.63287e-13
6.97612e-13
4.68927e-13
4.77962e-13
9.84541e-14
1.32558e-12
1.28812e-12
1.51751e-12
2.19547e-13
-3.86257e-13
-1.26142e-12
-6.01432e-13
-2.72278e-13
6.13663e-13
-3.06584e-13
-3.74309e-13
-1.33195e-12
-1.18886e-12
-1.03002e-12
-6.4331e-13
)
;
    }
    frontAndBack
    {
        type            empty;
        value           nonuniform 0();
    }
}


// ************************************************************************* //
