/*--------------------------------*- C++ -*----------------------------------*\
  =========                 |
  \\      /  F ield         | OpenFOAM: The Open Source CFD Toolbox
   \\    /   O peration     | Website:  https://openfoam.org
    \\  /    A nd           | Version:  7
     \\/     M anipulation  |
\*---------------------------------------------------------------------------*/
FoamFile
{
    version     2.0;
    format      ascii;
    class       surfaceScalarField;
    location    "60";
    object      phi_0;
}
// * * * * * * * * * * * * * * * * * * * * * * * * * * * * * * * * * * * * * //

dimensions      [0 4 -1 0 0 0 0];

internalField   nonuniform List<scalar> 
760
(
4.99999e-06
9.81046e-12
5e-06
-4.5722e-12
5.00001e-06
-1.28339e-11
5.00003e-06
-1.90527e-11
5.00005e-06
-2.64269e-11
5.00009e-06
-2.95552e-11
5.00013e-06
-3.73273e-11
5.00018e-06
-6.22929e-11
5.00025e-06
-6.23668e-11
5.00032e-06
-7.78565e-11
5.00041e-06
-9.02178e-11
5.00053e-06
-1.14532e-10
5.00065e-06
-1.27751e-10
5.00082e-06
-1.68661e-10
5.001e-06
-1.78611e-10
5.00126e-06
-2.56963e-10
5.00151e-06
-2.5568e-10
5.00195e-06
-4.31005e-10
5.00236e-06
-4.12932e-10
-8.90887e-10
5.00002e-06
-1.20592e-11
5.00004e-06
-1.94063e-11
5.00005e-06
-2.94803e-11
5.00008e-06
-4.14116e-11
5.0001e-06
-5.35598e-11
5.00014e-06
-6.8081e-11
5.00018e-06
-8.27766e-11
5.00023e-06
-1.02193e-10
5.00029e-06
-1.22641e-10
5.00037e-06
-1.52717e-10
5.00045e-06
-1.77317e-10
5.00056e-06
-2.23109e-10
5.00069e-06
-2.51966e-10
5.00084e-06
-3.25779e-10
5.00102e-06
-3.55091e-10
5.00125e-06
-4.86438e-10
5.0015e-06
-5.0835e-10
5.00184e-06
-7.66568e-10
5.00218e-06
-7.57627e-10
-1.26065e-09
4.99999e-06
-4.81941e-12
5e-06
-2.0725e-11
5e-06
-3.78396e-11
5.00002e-06
-5.63761e-11
5.00004e-06
-7.54222e-11
5.00007e-06
-9.76975e-11
5.00011e-06
-1.20437e-10
5.00016e-06
-1.50469e-10
5.00021e-06
-1.81139e-10
5.00028e-06
-2.23084e-10
5.00037e-06
-2.62817e-10
5.00047e-06
-3.24855e-10
5.00059e-06
-3.74311e-10
5.00074e-06
-4.69866e-10
5.00091e-06
-5.27412e-10
5.00111e-06
-6.87181e-10
5.00135e-06
-7.46528e-10
5.00162e-06
-1.03904e-09
5.00194e-06
-1.07955e-09
-1.6874e-09
5.00001e-06
-1.28527e-11
5.00002e-06
-3.38782e-11
5.00004e-06
-5.46781e-11
5.00006e-06
-7.73673e-11
5.00009e-06
-1.00652e-10
5.00012e-06
-1.28455e-10
5.00015e-06
-1.57564e-10
5.0002e-06
-1.95543e-10
5.00025e-06
-2.34129e-10
5.00032e-06
-2.8781e-10
5.00039e-06
-3.39048e-10
5.00048e-06
-4.17354e-10
5.00059e-06
-4.81509e-10
5.00072e-06
-5.99589e-10
5.00087e-06
-6.75081e-10
5.00105e-06
-8.65757e-10
5.00124e-06
-9.4521e-10
5.00148e-06
-1.27731e-09
5.00173e-06
-1.32674e-09
-1.89523e-09
5e-06
-1.19538e-11
5e-06
-3.70137e-11
5.00001e-06
-6.22822e-11
5.00002e-06
-8.96731e-11
5.00004e-06
-1.18627e-10
5.00007e-06
-1.52121e-10
5.0001e-06
-1.88539e-10
5.00013e-06
-2.33524e-10
5.00018e-06
-2.81171e-10
5.00024e-06
-3.44401e-10
5.00031e-06
-4.07413e-10
5.00039e-06
-4.97839e-10
5.00048e-06
-5.777e-10
5.00059e-06
-7.10877e-10
5.00072e-06
-8.06185e-10
5.00087e-06
-1.01343e-09
5.00104e-06
-1.11459e-09
5.00122e-06
-1.45848e-09
5.00142e-06
-1.52731e-09
-2.15954e-09
5e-06
-1.44252e-11
5.00001e-06
-4.39282e-11
5.00002e-06
-7.3274e-11
5.00004e-06
-1.04404e-10
5.00005e-06
-1.37302e-10
5.00008e-06
-1.75163e-10
5.00011e-06
-2.16408e-10
5.00014e-06
-2.67332e-10
5.00018e-06
-3.21786e-10
5.00023e-06
-3.93347e-10
5.00029e-06
-4.65128e-10
5.00036e-06
-5.66697e-10
5.00043e-06
-6.57549e-10
5.00053e-06
-8.045e-10
5.00063e-06
-9.1193e-10
5.00076e-06
-1.13535e-09
5.00089e-06
-1.24865e-09
5.00104e-06
-1.61198e-09
5.00121e-06
-1.69057e-09
-2.2896e-09
5e-06
-1.62879e-11
5.00001e-06
-4.83993e-11
5.00001e-06
-8.05325e-11
5.00002e-06
-1.14357e-10
5.00004e-06
-1.50356e-10
5.00005e-06
-1.92078e-10
5.00008e-06
-2.37623e-10
5.0001e-06
-2.93468e-10
5.00013e-06
-3.53664e-10
5.00017e-06
-4.31401e-10
5.00022e-06
-5.10628e-10
5.00027e-06
-6.20241e-10
5.00033e-06
-7.20467e-10
5.0004e-06
-8.76883e-10
5.00049e-06
-9.95298e-10
5.00058e-06
-1.22877e-09
5.00069e-06
-1.35295e-09
5.0008e-06
-1.72246e-09
5.00091e-06
-1.80509e-09
-2.4379e-09
5e-06
-1.73079e-11
5e-06
-5.14213e-11
5.00001e-06
-8.55637e-11
5.00002e-06
-1.21974e-10
5.00003e-06
-1.60491e-10
5.00004e-06
-2.0504e-10
5.00006e-06
-2.53621e-10
5.00008e-06
-3.13113e-10
5.0001e-06
-3.77314e-10
5.00013e-06
-4.59794e-10
5.00016e-06
-5.44362e-10
5.0002e-06
-6.59931e-10
5.00025e-06
-7.66371e-10
5.0003e-06
-9.29738e-10
5.00036e-06
-1.05483e-09
5.00043e-06
-1.2955e-09
5.0005e-06
-1.42567e-09
5.00058e-06
-1.80275e-09
5.00067e-06
-1.89271e-09
-2.51164e-09
5e-06
-1.7819e-11
5e-06
-5.32291e-11
5.00001e-06
-8.87304e-11
5.00001e-06
-1.26717e-10
5.00002e-06
-1.66853e-10
5.00002e-06
-2.13053e-10
5.00003e-06
-2.63446e-10
5.00005e-06
-3.25091e-10
5.00006e-06
-3.91682e-10
5.00008e-06
-4.76964e-10
5.0001e-06
-5.64636e-10
5.00012e-06
-6.83574e-10
5.00015e-06
-7.93744e-10
5.00018e-06
-9.61159e-10
5.00022e-06
-1.09035e-09
5.00026e-06
-1.33519e-09
5.0003e-06
-1.46935e-09
5.00035e-06
-1.84983e-09
5.00039e-06
-1.94001e-09
-2.56753e-09
5e-06
-1.7998e-11
5e-06
-5.38001e-11
5e-06
-8.98022e-11
5e-06
-1.28294e-10
5.00001e-06
-1.69007e-10
5.00001e-06
-2.15756e-10
5.00001e-06
-2.66801e-10
5.00002e-06
-3.29091e-10
5.00002e-06
-3.96454e-10
5.00003e-06
-4.82582e-10
5.00003e-06
-5.71242e-10
5.00004e-06
-6.91389e-10
5.00005e-06
-8.02951e-10
5.00006e-06
-9.71717e-10
5.00007e-06
-1.10239e-09
5.00009e-06
-1.34854e-09
5.0001e-06
-1.48398e-09
5.00012e-06
-1.86511e-09
5.00013e-06
-1.95697e-09
-2.58371e-09
5e-06
-1.78298e-11
5e-06
-5.31532e-11
5e-06
-8.87149e-11
5e-06
-1.26662e-10
4.99999e-06
-1.6686e-10
4.99999e-06
-2.13015e-10
4.99999e-06
-2.63504e-10
4.99998e-06
-3.25084e-10
4.99998e-06
-3.91718e-10
4.99997e-06
-4.76931e-10
4.99997e-06
-5.64466e-10
4.99996e-06
-6.83478e-10
4.99995e-06
-7.93714e-10
4.99994e-06
-9.61087e-10
4.99993e-06
-1.09034e-09
4.99991e-06
-1.33529e-09
4.9999e-06
-1.46952e-09
4.99988e-06
-1.84991e-09
4.99987e-06
-1.94004e-09
-2.56742e-09
5e-06
-1.72453e-11
5e-06
-5.13605e-11
4.99999e-06
-8.55625e-11
4.99999e-06
-1.21925e-10
4.99998e-06
-1.60544e-10
4.99998e-06
-2.05018e-10
4.99997e-06
-2.53693e-10
4.99995e-06
-3.13154e-10
4.99994e-06
-3.77356e-10
4.99992e-06
-4.59832e-10
4.9999e-06
-5.44246e-10
4.99988e-06
-6.59763e-10
4.99985e-06
-7.6628e-10
4.99982e-06
-9.29674e-10
4.99978e-06
-1.05482e-09
4.99974e-06
-1.29554e-09
4.9997e-06
-1.42581e-09
4.99965e-06
-1.80279e-09
4.99961e-06
-1.89269e-09
-2.51147e-09
5e-06
-1.61906e-11
5e-06
-4.83943e-11
4.99999e-06
-8.04994e-11
4.99998e-06
-1.14421e-10
4.99997e-06
-1.50416e-10
4.99996e-06
-1.92092e-10
4.99994e-06
-2.37611e-10
4.99992e-06
-2.93566e-10
4.9999e-06
-3.5367e-10
4.99987e-06
-4.3149e-10
4.99984e-06
-5.10766e-10
4.9998e-06
-6.20219e-10
4.99975e-06
-7.20385e-10
4.9997e-06
-8.76793e-10
4.99964e-06
-9.95222e-10
4.99957e-06
-1.22864e-09
4.9995e-06
-1.35293e-09
4.99942e-06
-1.72235e-09
4.99933e-06
-1.805e-09
-2.43757e-09
5e-06
-1.43893e-11
4.99999e-06
-4.39427e-11
4.99999e-06
-7.32818e-11
4.99998e-06
-1.04532e-10
4.99996e-06
-1.37176e-10
4.99995e-06
-1.75223e-10
4.99992e-06
-2.16264e-10
4.9999e-06
-2.67413e-10
4.99987e-06
-3.21796e-10
4.99983e-06
-3.93292e-10
4.99978e-06
-4.65288e-10
4.99973e-06
-5.66858e-10
4.99967e-06
-6.57601e-10
4.99959e-06
-8.04411e-10
4.99951e-06
-9.11775e-10
4.99942e-06
-1.13507e-09
4.99931e-06
-1.24842e-09
4.9992e-06
-1.61168e-09
4.99909e-06
-1.69037e-09
-2.28922e-09
5e-06
-1.20229e-11
4.99999e-06
-3.70652e-11
4.99998e-06
-6.23423e-11
4.99996e-06
-8.96117e-11
4.99995e-06
-1.18484e-10
4.99992e-06
-1.52279e-10
4.99989e-06
-1.88329e-10
4.99986e-06
-2.3341e-10
4.99982e-06
-2.81282e-10
4.99977e-06
-3.44329e-10
4.99971e-06
-4.07403e-10
4.99965e-06
-4.97977e-10
4.99957e-06
-5.77864e-10
4.99947e-06
-7.10883e-10
4.99937e-06
-8.06114e-10
4.99924e-06
-1.01316e-09
4.99911e-06
-1.11433e-09
4.99896e-06
-1.45809e-09
4.99879e-06
-1.52711e-09
-2.15911e-09
5e-06
-1.30239e-11
5e-06
-3.39449e-11
4.99999e-06
-5.4676e-11
4.99998e-06
-7.71087e-11
4.99996e-06
-1.00726e-10
4.99993e-06
-1.28337e-10
4.9999e-06
-1.57538e-10
4.99987e-06
-1.95021e-10
4.99982e-06
-2.34093e-10
4.99976e-06
-2.87753e-10
4.99969e-06
-3.38889e-10
4.99961e-06
-4.17299e-10
4.99952e-06
-4.81613e-10
4.99941e-06
-5.9964e-10
4.99928e-06
-6.75122e-10
4.99913e-06
-8.65584e-10
4.99896e-06
-9.45019e-10
4.99878e-06
-1.27692e-09
4.99858e-06
-1.32649e-09
-1.89471e-09
4.99999e-06
-4.93643e-12
4.99998e-06
-2.074e-11
4.99996e-06
-3.77632e-11
4.99994e-06
-5.62629e-11
4.99991e-06
-7.56345e-11
4.99988e-06
-9.74235e-11
4.99985e-06
-1.21332e-10
4.9998e-06
-1.50023e-10
4.99975e-06
-1.8085e-10
4.99968e-06
-2.23057e-10
4.99961e-06
-2.62696e-10
4.99952e-06
-3.24721e-10
4.99941e-06
-3.74336e-10
4.99928e-06
-4.69931e-10
4.99913e-06
-5.27566e-10
4.99895e-06
-6.87187e-10
4.99876e-06
-7.46557e-10
4.99852e-06
-1.03882e-09
4.99827e-06
-1.07943e-09
-1.68701e-09
5.00001e-06
-1.18834e-11
5e-06
-1.9289e-11
5e-06
-2.94355e-11
4.99998e-06
-4.17045e-11
4.99996e-06
-5.37213e-11
4.99993e-06
-6.82029e-11
4.99989e-06
-8.37105e-11
4.99984e-06
-1.03657e-10
4.99979e-06
-1.22474e-10
4.99972e-06
-1.52679e-10
4.99963e-06
-1.7731e-10
4.99953e-06
-2.22925e-10
4.99941e-06
-2.51801e-10
4.99926e-06
-3.25639e-10
4.99909e-06
-3.55159e-10
4.99889e-06
-4.86434e-10
4.99865e-06
-5.0848e-10
4.99838e-06
-7.66374e-10
4.99806e-06
-7.57518e-10
-1.26017e-09
4.99998e-06
9.98447e-12
4.99996e-06
-4.43604e-12
4.99995e-06
-1.29792e-11
4.99992e-06
-1.96274e-11
4.9999e-06
-2.62546e-11
4.99986e-06
-3.51859e-11
4.99982e-06
-4.29185e-11
4.99977e-06
-5.78599e-11
4.99971e-06
-6.27213e-11
4.99963e-06
-7.81158e-11
4.99955e-06
-9.03559e-11
4.99944e-06
-1.14429e-10
4.99932e-06
-1.27593e-10
4.99916e-06
-1.68572e-10
4.99898e-06
-1.7871e-10
4.99875e-06
-2.571e-10
4.9985e-06
-2.55894e-10
4.99817e-06
-4.31082e-10
4.99782e-06
-4.13012e-10
-8.90886e-10
5.00001e-06
5e-06
4.99999e-06
4.99997e-06
4.99995e-06
4.99991e-06
4.99987e-06
4.99982e-06
4.99975e-06
4.99968e-06
4.99959e-06
4.99947e-06
4.99934e-06
4.99918e-06
4.999e-06
4.99874e-06
4.99848e-06
4.99805e-06
4.99764e-06
)
;

boundaryField
{
    sides
    {
        type            calculated;
        value           uniform 0;
    }
    inlet
    {
        type            calculated;
        value           nonuniform List<scalar> 
20
(
-5e-06
-5e-06
-5e-06
-5e-06
-5e-06
-5e-06
-5e-06
-5e-06
-5e-06
-5e-06
-5e-06
-5e-06
-5e-06
-5e-06
-5e-06
-5e-06
-5e-06
-5e-06
-5e-06
-5e-06
)
;
    }
    outlet
    {
        type            calculated;
        value           nonuniform List<scalar> 
20
(
5.00325e-06
5.00255e-06
5.00237e-06
5.00194e-06
5.00169e-06
5.00134e-06
5.00106e-06
5.00074e-06
5.00045e-06
5.00015e-06
4.99985e-06
4.99955e-06
4.99926e-06
4.99894e-06
4.99866e-06
4.99831e-06
4.99806e-06
4.99763e-06
4.99745e-06
4.99675e-06
)
;
    }
    frontAndBack
    {
        type            empty;
        value           nonuniform 0();
    }
}


// ************************************************************************* //
