/*--------------------------------*- C++ -*----------------------------------*\
  =========                 |
  \\      /  F ield         | OpenFOAM: The Open Source CFD Toolbox
   \\    /   O peration     | Website:  https://openfoam.org
    \\  /    A nd           | Version:  7
     \\/     M anipulation  |
\*---------------------------------------------------------------------------*/
FoamFile
{
    version     2.0;
    format      ascii;
    class       volVectorField;
    location    "60";
    object      U;
}
// * * * * * * * * * * * * * * * * * * * * * * * * * * * * * * * * * * * * * //

dimensions      [0 1 -1 0 0 0 0];

internalField   nonuniform List<vector> 
400
(
(0.0999931 -8.76533e-07 0)
(0.099993 -2.3793e-06 0)
(0.0999931 -3.5956e-06 0)
(0.0999935 -4.65745e-06 0)
(0.099994 -5.67258e-06 0)
(0.0999947 -6.72091e-06 0)
(0.0999955 -7.7841e-06 0)
(0.0999967 -8.88821e-06 0)
(0.0999978 -9.96708e-06 0)
(0.0999996 -1.11793e-05 0)
(0.100001 -1.22699e-05 0)
(0.100004 -1.36351e-05 0)
(0.100006 -1.4681e-05 0)
(0.10001 -1.63598e-05 0)
(0.100013 -1.72317e-05 0)
(0.10002 -1.96282e-05 0)
(0.100022 -2.00596e-05 0)
(0.100035 -2.42774e-05 0)
(0.100036 -2.38799e-05 0)
(0.10006 -3.31665e-05 0)
(0.0999943 3.9223e-07 0)
(0.0999948 1.20496e-06 0)
(0.0999953 2.02065e-06 0)
(0.0999958 2.79194e-06 0)
(0.0999963 3.50429e-06 0)
(0.099997 4.15669e-06 0)
(0.0999978 4.75713e-06 0)
(0.0999989 5.30394e-06 0)
(0.1 5.84645e-06 0)
(0.100002 6.23406e-06 0)
(0.100003 6.6973e-06 0)
(0.100006 6.85217e-06 0)
(0.100008 7.25479e-06 0)
(0.100012 6.96952e-06 0)
(0.100014 7.38699e-06 0)
(0.10002 6.15694e-06 0)
(0.100024 6.71646e-06 0)
(0.100033 3.1821e-06 0)
(0.100036 4.00243e-06 0)
(0.10005 -5.443e-06 0)
(0.0999948 -4.01949e-07 0)
(0.0999947 -1.3108e-06 0)
(0.0999948 -2.31087e-06 0)
(0.099995 -3.36018e-06 0)
(0.0999954 -4.40178e-06 0)
(0.099996 -5.46415e-06 0)
(0.0999967 -6.52412e-06 0)
(0.0999977 -7.69211e-06 0)
(0.0999988 -8.85471e-06 0)
(0.1 -1.02376e-05 0)
(0.100002 -1.15326e-05 0)
(0.100004 -1.32698e-05 0)
(0.100006 -1.46981e-05 0)
(0.10001 -1.70512e-05 0)
(0.100013 -1.85485e-05 0)
(0.100018 -2.21244e-05 0)
(0.100021 -2.35437e-05 0)
(0.100029 -2.97191e-05 0)
(0.100032 -3.05534e-05 0)
(0.100046 -4.21752e-05 0)
(0.0999956 -1.84958e-08 0)
(0.0999958 -1.73123e-08 0)
(0.0999962 4.8495e-08 0)
(0.0999967 1.32735e-07 0)
(0.0999972 2.2061e-07 0)
(0.0999979 2.26106e-07 0)
(0.0999986 2.04511e-07 0)
(0.0999995 1.86292e-08 0)
(0.100001 -1.98759e-07 0)
(0.100002 -6.84185e-07 0)
(0.100003 -1.12791e-06 0)
(0.100005 -2.0817e-06 0)
(0.100007 -2.77503e-06 0)
(0.10001 -4.48832e-06 0)
(0.100013 -5.40171e-06 0)
(0.100017 -8.51658e-06 0)
(0.10002 -9.52241e-06 0)
(0.100027 -1.54215e-05 0)
(0.100029 -1.60108e-05 0)
(0.100039 -2.75289e-05 0)
(0.0999963 -2.94839e-07 0)
(0.0999963 -9.37183e-07 0)
(0.0999964 -1.64537e-06 0)
(0.0999966 -2.44422e-06 0)
(0.099997 -3.29608e-06 0)
(0.0999974 -4.25282e-06 0)
(0.099998 -5.24709e-06 0)
(0.0999988 -6.4143e-06 0)
(0.0999997 -7.61235e-06 0)
(0.100001 -9.1041e-06 0)
(0.100002 -1.05707e-05 0)
(0.100004 -1.25779e-05 0)
(0.100006 -1.43358e-05 0)
(0.100008 -1.71607e-05 0)
(0.100011 -1.91775e-05 0)
(0.100014 -2.34595e-05 0)
(0.100017 -2.55562e-05 0)
(0.100022 -3.26099e-05 0)
(0.100024 -3.40623e-05 0)
(0.100033 -4.63766e-05 0)
(0.099997 -2.65544e-07 0)
(0.0999971 -7.70714e-07 0)
(0.0999973 -1.23118e-06 0)
(0.0999976 -1.68657e-06 0)
(0.099998 -2.13682e-06 0)
(0.0999984 -2.66643e-06 0)
(0.099999 -3.24321e-06 0)
(0.0999997 -4.00658e-06 0)
(0.1 -4.82812e-06 0)
(0.100002 -5.98189e-06 0)
(0.100003 -7.14233e-06 0)
(0.100004 -8.88014e-06 0)
(0.100006 -1.04097e-05 0)
(0.100008 -1.30412e-05 0)
(0.10001 -1.49077e-05 0)
(0.100013 -1.90575e-05 0)
(0.100015 -2.10598e-05 0)
(0.100019 -2.79794e-05 0)
(0.100021 -2.9324e-05 0)
(0.100027 -4.14159e-05 0)
(0.0999976 -3.01811e-07 0)
(0.0999977 -9.09351e-07 0)
(0.0999979 -1.53628e-06 0)
(0.0999981 -2.22853e-06 0)
(0.0999983 -2.98169e-06 0)
(0.0999987 -3.85798e-06 0)
(0.0999991 -4.81837e-06 0)
(0.0999996 -5.98684e-06 0)
(0.1 -7.23648e-06 0)
(0.100001 -8.83794e-06 0)
(0.100002 -1.04603e-05 0)
(0.100003 -1.2687e-05 0)
(0.100004 -1.47181e-05 0)
(0.100006 -1.78799e-05 0)
(0.100007 -2.02614e-05 0)
(0.10001 -2.49585e-05 0)
(0.100011 -2.74398e-05 0)
(0.100015 -3.48905e-05 0)
(0.100016 -3.65962e-05 0)
(0.100021 -4.91313e-05 0)
(0.0999983 -3.33542e-07 0)
(0.0999984 -9.99137e-07 0)
(0.0999985 -1.67424e-06 0)
(0.0999986 -2.39501e-06 0)
(0.0999988 -3.15304e-06 0)
(0.0999991 -4.01357e-06 0)
(0.0999994 -4.94178e-06 0)
(0.0999998 -6.07113e-06 0)
(0.1 -7.28464e-06 0)
(0.100001 -8.85317e-06 0)
(0.100001 -1.04546e-05 0)
(0.100002 -1.26682e-05 0)
(0.100003 -1.47005e-05 0)
(0.100004 -1.78611e-05 0)
(0.100005 -2.02623e-05 0)
(0.100007 -2.49613e-05 0)
(0.100008 -2.74769e-05 0)
(0.100011 -3.4897e-05 0)
(0.100012 -3.66102e-05 0)
(0.100015 -4.89843e-05 0)
(0.099999 -3.5059e-07 0)
(0.099999 -1.04845e-06 0)
(0.0999991 -1.75203e-06 0)
(0.0999992 -2.50152e-06 0)
(0.0999993 -3.29036e-06 0)
(0.0999995 -4.19506e-06 0)
(0.0999996 -5.18e-06 0)
(0.0999999 -6.38422e-06 0)
(0.1 -7.68774e-06 0)
(0.100001 -9.36398e-06 0)
(0.100001 -1.10911e-05 0)
(0.100001 -1.34528e-05 0)
(0.100002 -1.56428e-05 0)
(0.100003 -1.89861e-05 0)
(0.100003 -2.1563e-05 0)
(0.100004 -2.64633e-05 0)
(0.100005 -2.91361e-05 0)
(0.100006 -3.67547e-05 0)
(0.100007 -3.85663e-05 0)
(0.100009 -5.1145e-05 0)
(0.0999997 -3.57633e-07 0)
(0.0999997 -1.07163e-06 0)
(0.0999997 -1.79164e-06 0)
(0.0999997 -2.56028e-06 0)
(0.0999998 -3.37089e-06 0)
(0.0999998 -4.30109e-06 0)
(0.0999999 -5.31637e-06 0)
(0.1 -6.55694e-06 0)
(0.1 -7.90133e-06 0)
(0.1 -9.62034e-06 0)
(0.1 -1.13917e-05 0)
(0.1 -1.37934e-05 0)
(0.100001 -1.60241e-05 0)
(0.100001 -1.94009e-05 0)
(0.100001 -2.20164e-05 0)
(0.100001 -2.69408e-05 0)
(0.100002 -2.96508e-05 0)
(0.100002 -3.72752e-05 0)
(0.100002 -3.91159e-05 0)
(0.100003 -5.16416e-05 0)
(0.1 -3.5741e-07 0)
(0.1 -1.07076e-06 0)
(0.1 -1.79173e-06 0)
(0.1 -2.55992e-06 0)
(0.1 -3.3713e-06 0)
(0.1 -4.30081e-06 0)
(0.1 -5.31667e-06 0)
(0.1 -6.55732e-06 0)
(0.0999999 -7.90136e-06 0)
(0.0999998 -9.62087e-06 0)
(0.0999997 -1.1391e-05 0)
(0.0999995 -1.3792e-05 0)
(0.0999993 -1.60233e-05 0)
(0.0999991 -1.93997e-05 0)
(0.0999989 -2.2015e-05 0)
(0.0999986 -2.69407e-05 0)
(0.0999983 -2.9652e-05 0)
(0.0999979 -3.72767e-05 0)
(0.0999977 -3.91174e-05 0)
(0.0999971 -5.1642e-05 0)
(0.100001 -3.49364e-07 0)
(0.100001 -1.04717e-06 0)
(0.100001 -1.75209e-06 0)
(0.100001 -2.50133e-06 0)
(0.100001 -3.29126e-06 0)
(0.100001 -4.19492e-06 0)
(0.1 -5.18054e-06 0)
(0.1 -6.38562e-06 0)
(0.0999998 -7.68813e-06 0)
(0.0999995 -9.36529e-06 0)
(0.0999991 -1.10908e-05 0)
(0.0999985 -1.34506e-05 0)
(0.099998 -1.56404e-05 0)
(0.0999973 -1.89826e-05 0)
(0.0999967 -2.156e-05 0)
(0.0999957 -2.64619e-05 0)
(0.099995 -2.91372e-05 0)
(0.0999936 -3.67553e-05 0)
(0.0999932 -3.85673e-05 0)
(0.0999912 -5.11412e-05 0)
(0.100002 -3.31653e-07 0)
(0.100002 -9.98579e-07 0)
(0.100002 -1.67391e-06 0)
(0.100001 -2.39631e-06 0)
(0.100001 -3.15336e-06 0)
(0.100001 -4.01452e-06 0)
(0.100001 -4.94175e-06 0)
(0.1 -6.0734e-06 0)
(0.0999997 -7.28602e-06 0)
(0.0999991 -8.85436e-06 0)
(0.0999985 -1.04571e-05 0)
(0.0999976 -1.26699e-05 0)
(0.0999968 -1.47004e-05 0)
(0.0999956 -1.78595e-05 0)
(0.0999945 -2.02614e-05 0)
(0.0999928 -2.49615e-05 0)
(0.0999917 -2.74791e-05 0)
(0.0999894 -3.48995e-05 0)
(0.0999885 -3.66137e-05 0)
(0.0999853 -4.89848e-05 0)
(0.100002 -3.01068e-07 0)
(0.100002 -9.09261e-07 0)
(0.100002 -1.53623e-06 0)
(0.100002 -2.22963e-06 0)
(0.100002 -2.98039e-06 0)
(0.100001 -3.8593e-06 0)
(0.100001 -4.81698e-06 0)
(0.1 -5.98716e-06 0)
(0.0999998 -7.23815e-06 0)
(0.099999 -8.83667e-06 0)
(0.0999981 -1.04611e-05 0)
(0.0999969 -1.26896e-05 0)
(0.0999958 -1.47196e-05 0)
(0.0999941 -1.78782e-05 0)
(0.0999926 -2.02586e-05 0)
(0.0999903 -2.49527e-05 0)
(0.0999887 -2.74347e-05 0)
(0.0999853 -3.48822e-05 0)
(0.0999843 -3.65892e-05 0)
(0.0999793 -4.91177e-05 0)
(0.100003 -2.66787e-07 0)
(0.100003 -7.71293e-07 0)
(0.100003 -1.23189e-06 0)
(0.100002 -1.68537e-06 0)
(0.100002 -2.13648e-06 0)
(0.100002 -2.66711e-06 0)
(0.100001 -3.24291e-06 0)
(0.1 -4.00396e-06 0)
(0.0999995 -4.83045e-06 0)
(0.0999985 -5.98244e-06 0)
(0.0999974 -7.14248e-06 0)
(0.0999959 -8.88343e-06 0)
(0.0999944 -1.04153e-05 0)
(0.0999923 -1.30456e-05 0)
(0.0999904 -1.49101e-05 0)
(0.0999874 -1.90566e-05 0)
(0.0999853 -2.10584e-05 0)
(0.0999811 -2.79765e-05 0)
(0.0999793 -2.93226e-05 0)
(0.0999733 -4.14138e-05 0)
(0.100004 -2.97818e-07 0)
(0.100004 -9.38083e-07 0)
(0.100004 -1.64459e-06 0)
(0.100003 -2.44046e-06 0)
(0.100003 -3.29794e-06 0)
(0.100003 -4.24888e-06 0)
(0.100002 -5.24995e-06 0)
(0.100001 -6.40746e-06 0)
(0.1 -7.60967e-06 0)
(0.0999991 -9.10361e-06 0)
(0.0999978 -1.05677e-05 0)
(0.099996 -1.25749e-05 0)
(0.0999942 -1.43369e-05 0)
(0.0999916 -1.7162e-05 0)
(0.0999895 -1.91788e-05 0)
(0.0999856 -2.34552e-05 0)
(0.0999833 -2.55515e-05 0)
(0.0999776 -3.25988e-05 0)
(0.099976 -3.40537e-05 0)
(0.0999673 -4.636e-05 0)
(0.100004 -2.26117e-08 0)
(0.100004 -1.87071e-08 0)
(0.100004 5.13319e-08 0)
(0.100003 1.36285e-07 0)
(0.100003 2.16034e-07 0)
(0.100002 2.29415e-07 0)
(0.100001 1.9378e-07 0)
(0.1 1.84174e-08 0)
(0.0999994 -1.92487e-07 0)
(0.0999981 -6.8207e-07 0)
(0.0999966 -1.12534e-06 0)
(0.0999946 -2.07848e-06 0)
(0.0999926 -2.77474e-06 0)
(0.0999897 -4.48979e-06 0)
(0.0999871 -5.4046e-06 0)
(0.0999828 -8.51685e-06 0)
(0.0999797 -9.52187e-06 0)
(0.0999734 -1.54172e-05 0)
(0.0999707 -1.60073e-05 0)
(0.0999614 -2.75227e-05 0)
(0.100005 -4.00173e-07 0)
(0.100005 -1.31088e-06 0)
(0.100005 -2.31094e-06 0)
(0.100005 -3.36212e-06 0)
(0.100005 -4.40188e-06 0)
(0.100004 -5.47241e-06 0)
(0.100003 -6.5346e-06 0)
(0.100002 -7.70168e-06 0)
(0.100001 -8.85204e-06 0)
(0.0999996 -1.02368e-05 0)
(0.099998 -1.15357e-05 0)
(0.0999957 -1.32704e-05 0)
(0.0999936 -1.46974e-05 0)
(0.0999901 -1.70497e-05 0)
(0.0999874 -1.85512e-05 0)
(0.0999821 -2.21261e-05 0)
(0.0999791 -2.35487e-05 0)
(0.0999706 -2.97181e-05 0)
(0.0999684 -3.05549e-05 0)
(0.0999544 -4.2168e-05 0)
(0.100006 3.99158e-07 0)
(0.100005 1.20723e-06 0)
(0.100005 2.01486e-06 0)
(0.100004 2.78096e-06 0)
(0.100004 3.51222e-06 0)
(0.100003 4.15444e-06 0)
(0.100002 4.78646e-06 0)
(0.100001 5.29798e-06 0)
(0.1 5.83381e-06 0)
(0.0999984 6.22886e-06 0)
(0.0999967 6.69275e-06 0)
(0.0999943 6.8546e-06 0)
(0.0999921 7.26225e-06 0)
(0.0999884 6.97803e-06 0)
(0.0999855 7.39066e-06 0)
(0.0999799 6.15964e-06 0)
(0.0999764 6.71605e-06 0)
(0.0999674 3.18716e-06 0)
(0.0999642 4.00684e-06 0)
(0.09995 -5.43067e-06 0)
(0.100007 -8.73683e-07 0)
(0.100007 -2.37824e-06 0)
(0.100007 -3.60041e-06 0)
(0.100007 -4.6666e-06 0)
(0.100006 -5.66978e-06 0)
(0.100005 -6.71785e-06 0)
(0.100004 -7.75575e-06 0)
(0.100003 -8.89301e-06 0)
(0.100002 -9.9842e-06 0)
(0.1 -1.11896e-05 0)
(0.0999989 -1.22777e-05 0)
(0.0999961 -1.3639e-05 0)
(0.0999941 -1.46832e-05 0)
(0.0999898 -1.63631e-05 0)
(0.0999874 -1.7238e-05 0)
(0.0999803 -1.96363e-05 0)
(0.0999779 -2.00691e-05 0)
(0.0999653 -2.42872e-05 0)
(0.0999638 -2.38892e-05 0)
(0.0999403 -3.31801e-05 0)
)
;

boundaryField
{
    sides
    {
        type            calculated;
        value           nonuniform List<vector> 
40
(
(0.100007 0 0)
(0.100007 0 0)
(0.100007 0 0)
(0.100007 0 0)
(0.100006 0 0)
(0.100005 0 0)
(0.100004 0 0)
(0.100003 0 0)
(0.100002 0 0)
(0.1 0 0)
(0.0999989 0 0)
(0.0999961 0 0)
(0.0999941 0 0)
(0.0999898 0 0)
(0.0999874 0 0)
(0.0999803 0 0)
(0.0999779 0 0)
(0.0999653 0 0)
(0.0999638 0 0)
(0.0999403 0 0)
(0.0999931 0 0)
(0.099993 0 0)
(0.0999931 0 0)
(0.0999935 0 0)
(0.099994 0 0)
(0.0999947 0 0)
(0.0999955 0 0)
(0.0999967 0 0)
(0.0999978 0 0)
(0.0999996 0 0)
(0.100001 0 0)
(0.100004 0 0)
(0.100006 0 0)
(0.10001 0 0)
(0.100013 0 0)
(0.10002 0 0)
(0.100022 0 0)
(0.100035 0 0)
(0.100036 0 0)
(0.10006 0 0)
)
;
    }
    inlet
    {
        type            calculated;
        value           nonuniform List<vector> 
20
(
(0.0999931 0 0)
(0.0999943 0 0)
(0.0999948 0 0)
(0.0999956 0 0)
(0.0999963 0 0)
(0.099997 0 0)
(0.0999976 0 0)
(0.0999983 0 0)
(0.099999 0 0)
(0.0999997 0 0)
(0.1 0 0)
(0.100001 0 0)
(0.100002 0 0)
(0.100002 0 0)
(0.100003 0 0)
(0.100004 0 0)
(0.100004 0 0)
(0.100005 0 0)
(0.100006 0 0)
(0.100007 0 0)
)
;
    }
    outlet
    {
        type            calculated;
        value           nonuniform List<vector> 
20
(
(0.100061 -3.31667e-05 0)
(0.10005 -5.44303e-06 0)
(0.100046 -4.21754e-05 0)
(0.100039 -2.7529e-05 0)
(0.100033 -4.63767e-05 0)
(0.100027 -4.14159e-05 0)
(0.100021 -4.91314e-05 0)
(0.100015 -4.89843e-05 0)
(0.100009 -5.11451e-05 0)
(0.100003 -5.16417e-05 0)
(0.099997 -5.1642e-05 0)
(0.0999911 -5.11412e-05 0)
(0.0999852 -4.89848e-05 0)
(0.0999792 -4.91177e-05 0)
(0.0999732 -4.14137e-05 0)
(0.099967 -4.63599e-05 0)
(0.0999612 -2.75227e-05 0)
(0.099954 -4.21678e-05 0)
(0.0999496 -5.43065e-06 0)
(0.0999394 -3.31798e-05 0)
)
;
    }
    frontAndBack
    {
        type            empty;
    }
}


// ************************************************************************* //
