/*--------------------------------*- C++ -*----------------------------------*\
  =========                 |
  \\      /  F ield         | OpenFOAM: The Open Source CFD Toolbox
   \\    /   O peration     | Website:  https://openfoam.org
    \\  /    A nd           | Version:  7
     \\/     M anipulation  |
\*---------------------------------------------------------------------------*/
FoamFile
{
    version     2.0;
    format      ascii;
    class       volVectorField;
    location    "46";
    object      ddtCorrDdt0(hU);
}
// * * * * * * * * * * * * * * * * * * * * * * * * * * * * * * * * * * * * * //

dimensions      [0 2 -2 0 0 0 0];

internalField   nonuniform List<vector> 
400
(
(-1.49338e-10 -7.56892e-11 0)
(2.06276e-10 -1.01976e-10 0)
(8.85619e-10 2.77308e-10 0)
(8.81112e-10 2.07997e-10 0)
(1.45256e-10 1.20499e-09 0)
(-1.3333e-09 2.46866e-09 0)
(7.88722e-10 3.0617e-09 0)
(3.4276e-09 -1.79902e-10 0)
(-1.65852e-09 5.35034e-10 0)
(-1.06596e-09 1.41039e-10 0)
(-3.61831e-10 -3.68649e-10 0)
(3.30725e-10 -6.77412e-10 0)
(7.53243e-10 -7.00167e-10 0)
(9.90943e-10 -2.36807e-10 0)
(1.03536e-09 2.60362e-10 0)
(1.08185e-09 8.05019e-10 0)
(3.03885e-10 1.10589e-09 0)
(-2.45661e-10 1.02621e-09 0)
(-1.20151e-09 1.1454e-09 0)
(-1.88387e-09 1.98575e-10 0)
(-2.94432e-11 1.18481e-10 0)
(5.28815e-11 -5.41388e-11 0)
(7.21589e-10 8.87764e-11 0)
(1.10798e-09 -6.24792e-10 0)
(1.05054e-09 2.88318e-10 0)
(1.95817e-09 1.05748e-09 0)
(2.55047e-10 1.35712e-09 0)
(-4.40019e-09 -1.68716e-10 0)
(-2.09559e-10 5.90266e-10 0)
(-1.00139e-09 6.28405e-10 0)
(-7.11744e-10 4.23376e-10 0)
(-1.04979e-10 1.25098e-10 0)
(4.57326e-10 -1.47204e-10 0)
(9.35222e-10 -1.47775e-10 0)
(1.07898e-09 -4.6449e-12 0)
(1.12059e-09 1.43722e-10 0)
(3.92747e-10 3.95907e-10 0)
(-1.36726e-10 3.62936e-10 0)
(-9.57211e-10 7.22776e-10 0)
(-1.73332e-09 5.32901e-10 0)
(7.08941e-12 1.51685e-10 0)
(3.46333e-11 -1.27533e-10 0)
(6.17071e-10 3.25717e-10 0)
(9.15137e-10 9.04133e-10 0)
(8.14955e-10 1.59796e-09 0)
(5.12668e-10 1.78091e-09 0)
(-6.97254e-10 1.47648e-09 0)
(1.6079e-10 2.7046e-09 0)
(-4.83505e-10 1.2051e-09 0)
(-4.74159e-10 1.21185e-10 0)
(-2.2665e-10 -8.63936e-10 0)
(1.16646e-10 -1.37739e-09 0)
(6.14202e-10 -1.45964e-09 0)
(1.16797e-09 -7.53719e-10 0)
(1.28093e-09 6.16028e-11 0)
(1.17936e-09 1.02212e-09 0)
(2.31266e-10 1.79331e-09 0)
(-2.84103e-10 1.71067e-09 0)
(-1.32428e-09 2.40083e-09 0)
(-2.00432e-09 9.20648e-10 0)
(-1.21648e-10 1.015e-10 0)
(7.35701e-11 -2.45607e-10 0)
(8.51884e-10 1.83672e-10 0)
(1.14211e-09 1.22921e-09 0)
(9.59616e-10 1.77246e-09 0)
(2.61215e-10 2.34025e-09 0)
(1.85964e-10 2.94636e-09 0)
(-4.97416e-10 2.75456e-09 0)
(-9.84209e-10 1.8365e-09 0)
(-1.00578e-09 5.67442e-10 0)
(-8.04122e-10 -8.60151e-10 0)
(-2.75602e-10 -1.6573e-09 0)
(3.32872e-10 -1.83647e-09 0)
(9.75431e-10 -9.62639e-10 0)
(1.13987e-09 5.00727e-11 0)
(1.0235e-09 1.20879e-09 0)
(3.44554e-10 2.23998e-09 0)
(-8.27379e-11 2.16512e-09 0)
(-7.5591e-10 3.0965e-09 0)
(-1.43177e-09 1.31278e-09 0)
(-2.11107e-10 9.21576e-11 0)
(1.92484e-10 -2.07583e-11 0)
(4.63976e-10 1.72189e-10 0)
(5.54928e-10 8.62953e-10 0)
(3.67647e-10 1.4832e-09 0)
(2.87656e-10 2.03952e-09 0)
(3.73208e-10 2.72796e-09 0)
(-1.15047e-10 2.30774e-09 0)
(-9.54853e-11 1.7191e-09 0)
(-3.37247e-10 3.18911e-10 0)
(-2.7882e-10 -1.09105e-09 0)
(-2.67414e-12 -1.859e-09 0)
(2.74228e-10 -2.0472e-09 0)
(6.13476e-10 -1.16786e-09 0)
(6.40521e-10 -1.598e-10 0)
(5.85848e-10 1.07819e-09 0)
(9.64027e-11 2.31508e-09 0)
(-9.30288e-11 2.24231e-09 0)
(-6.48065e-10 3.38489e-09 0)
(-1.25535e-09 1.57314e-09 0)
(-2.20386e-10 -1.29842e-10 0)
(3.90868e-10 6.8628e-11 0)
(7.85035e-10 5.98834e-10 0)
(9.76477e-10 1.7884e-09 0)
(5.82912e-10 2.89118e-09 0)
(4.28211e-10 4.01967e-09 0)
(-1.65482e-10 4.23352e-09 0)
(-5.64947e-10 3.73199e-09 0)
(-8.65614e-10 2.2367e-09 0)
(-1.26501e-09 -8.79955e-12 0)
(-7.53924e-10 -1.85496e-09 0)
(-1.81596e-11 -2.8129e-09 0)
(6.32722e-10 -2.91698e-09 0)
(1.12661e-09 -1.53106e-09 0)
(1.12369e-09 -7.4533e-11 0)
(1.02048e-09 1.74494e-09 0)
(3.78985e-10 3.41234e-09 0)
(-6.84635e-12 3.32834e-09 0)
(-9.07829e-10 4.65923e-09 0)
(-1.59242e-09 1.85483e-09 0)
(-1.06981e-10 -1.82918e-10 0)
(3.02579e-10 3.17588e-11 0)
(4.40915e-10 3.07763e-10 0)
(4.77555e-10 1.0575e-09 0)
(2.53566e-10 1.97962e-09 0)
(2.71669e-10 3.12155e-09 0)
(1.2187e-10 3.57337e-09 0)
(2.93559e-10 3.4908e-09 0)
(-1.69464e-10 2.18125e-09 0)
(-3.56176e-10 3.73692e-10 0)
(-1.3154e-10 -1.35419e-09 0)
(-1.27073e-10 -2.48845e-09 0)
(-1.33133e-11 -2.78119e-09 0)
(1.36013e-10 -1.58343e-09 0)
(1.09089e-10 -2.46974e-10 0)
(2.40159e-10 1.43932e-09 0)
(1.65511e-10 3.1874e-09 0)
(2.47198e-11 3.15913e-09 0)
(-2.17196e-10 4.63901e-09 0)
(-6.42815e-10 2.10504e-09 0)
(4.80675e-12 -1.88645e-10 0)
(2.1744e-10 1.46176e-11 0)
(3.54917e-10 5.23742e-10 0)
(4.1376e-10 1.33741e-09 0)
(4.34581e-10 2.6557e-09 0)
(2.90971e-10 3.80045e-09 0)
(1.02431e-10 4.36532e-09 0)
(-1.1791e-10 3.75586e-09 0)
(-5.55437e-10 2.03679e-09 0)
(-4.05803e-10 -9.77955e-11 0)
(-2.34283e-10 -2.30216e-09 0)
(-1.29484e-10 -3.52567e-09 0)
(2.8937e-10 -3.61647e-09 0)
(5.35241e-10 -1.98608e-09 0)
(5.0095e-10 -1.7148e-10 0)
(6.28866e-10 2.01946e-09 0)
(2.97137e-10 3.95826e-09 0)
(-7.5542e-11 3.76912e-09 0)
(-7.39644e-10 5.292e-09 0)
(-1.11109e-09 2.17147e-09 0)
(1.78282e-11 -1.83002e-10 0)
(1.1997e-10 3.88189e-11 0)
(2.64884e-10 6.53901e-10 0)
(2.78591e-10 1.38227e-09 0)
(2.38105e-10 2.62118e-09 0)
(7.51446e-11 3.65766e-09 0)
(2.07539e-11 4.25725e-09 0)
(-9.69883e-11 3.67412e-09 0)
(-1.24072e-10 2.2294e-09 0)
(-3.01932e-11 1.21912e-10 0)
(-8.14021e-11 -2.18857e-09 0)
(-1.87092e-11 -3.39452e-09 0)
(1.25211e-10 -3.60357e-09 0)
(1.31442e-10 -2.191e-09 0)
(9.96492e-11 -4.41259e-10 0)
(1.31763e-10 1.73854e-09 0)
(-1.43013e-11 3.73514e-09 0)
(-2.37442e-10 3.6115e-09 0)
(-3.66032e-10 5.35387e-09 0)
(-3.83589e-10 2.38526e-09 0)
(-2.64899e-11 -2.09386e-10 0)
(6.99902e-11 1.288e-10 0)
(1.31351e-10 6.88294e-10 0)
(9.08732e-11 1.38549e-09 0)
(6.30293e-11 2.5872e-09 0)
(4.43809e-11 3.75535e-09 0)
(5.73878e-11 4.35325e-09 0)
(-2.60858e-11 3.74123e-09 0)
(1.48002e-11 2.12073e-09 0)
(-8.48114e-11 -2.46782e-10 0)
(-1.51319e-10 -2.6279e-09 0)
(-5.89334e-11 -3.80104e-09 0)
(-6.43655e-11 -3.90921e-09 0)
(5.07637e-12 -2.27507e-09 0)
(2.07196e-10 -3.52232e-10 0)
(2.95479e-10 1.9181e-09 0)
(9.63256e-11 3.90894e-09 0)
(1.09798e-11 3.74734e-09 0)
(-1.86312e-10 5.50096e-09 0)
(-3.33409e-10 2.35521e-09 0)
(-1.66417e-11 -1.89836e-10 0)
(-7.70591e-12 2.23889e-10 0)
(-1.95962e-11 6.75178e-10 0)
(-5.90959e-11 1.38311e-09 0)
(-3.85335e-11 2.53542e-09 0)
(-4.82386e-11 3.72472e-09 0)
(-3.84428e-11 4.27119e-09 0)
(-9.95476e-11 3.72301e-09 0)
(4.42175e-11 2.06422e-09 0)
(5.17655e-11 -3.01904e-10 0)
(6.78812e-11 -2.60543e-09 0)
(1.95881e-10 -3.85587e-09 0)
(5.58372e-11 -4.00055e-09 0)
(-8.82144e-11 -2.28536e-09 0)
(-9.58748e-11 -3.68437e-10 0)
(-2.57338e-10 1.8397e-09 0)
(-2.5919e-10 3.85263e-09 0)
(-1.3587e-10 3.76603e-09 0)
(1.6254e-10 5.53969e-09 0)
(3.32475e-10 2.3677e-09 0)
(3.86922e-11 -1.38632e-10 0)
(-1.53199e-10 2.44592e-10 0)
(-2.32707e-10 6.23349e-10 0)
(-2.8105e-10 1.41123e-09 0)
(-1.73655e-10 2.46592e-09 0)
(-1.0552e-10 3.60193e-09 0)
(3.85375e-11 4.04521e-09 0)
(2.76417e-11 3.6204e-09 0)
(1.15951e-10 2.1291e-09 0)
(1.27101e-10 -7.60612e-11 0)
(-2.11639e-11 -2.17583e-09 0)
(-5.12584e-11 -3.44955e-09 0)
(-6.61296e-11 -3.76371e-09 0)
(-1.1003e-10 -2.24165e-09 0)
(-1.22902e-10 -4.90463e-10 0)
(-1.38029e-10 1.60624e-09 0)
(3.55627e-11 3.63974e-09 0)
(2.50755e-10 3.62901e-09 0)
(3.22067e-10 5.39977e-09 0)
(3.25727e-10 2.39655e-09 0)
(8.51453e-11 -1.23275e-10 0)
(-2.67172e-10 1.3436e-10 0)
(-4.00332e-10 5.16275e-10 0)
(-4.57195e-10 1.34404e-09 0)
(-3.85991e-10 2.50961e-09 0)
(-3.25334e-10 3.75303e-09 0)
(-7.33214e-11 4.2301e-09 0)
(2.30222e-10 3.65222e-09 0)
(3.54985e-10 2.08385e-09 0)
(5.79229e-10 -3.04176e-10 0)
(3.65123e-10 -2.42474e-09 0)
(-6.33095e-11 -3.51197e-09 0)
(-3.02264e-10 -3.65083e-09 0)
(-4.68966e-10 -2.04014e-09 0)
(-5.73618e-10 -2.25498e-10 0)
(-6.18371e-10 1.96272e-09 0)
(-1.49512e-10 3.8938e-09 0)
(1.45929e-10 3.71644e-09 0)
(6.85949e-10 5.26877e-09 0)
(1.05276e-09 2.16775e-09 0)
(1.08183e-10 -1.05542e-10 0)
(-2.91762e-10 -2.51844e-11 0)
(-5.52234e-10 3.16113e-10 0)
(-4.99361e-10 9.83075e-10 0)
(-3.44964e-10 2.04016e-09 0)
(-1.76476e-10 2.99686e-09 0)
(-2.68993e-10 3.72635e-09 0)
(6.55351e-12 3.35035e-09 0)
(-3.51681e-11 2.31259e-09 0)
(1.85415e-10 4.56949e-10 0)
(4.09319e-10 -1.50323e-09 0)
(1.67641e-10 -2.51064e-09 0)
(-5.31638e-11 -2.71738e-09 0)
(-1.62627e-10 -1.57918e-09 0)
(-1.82634e-10 -2.52156e-10 0)
(-2.34539e-10 1.45942e-09 0)
(-7.07502e-11 3.15046e-09 0)
(3.03174e-11 3.0618e-09 0)
(2.437e-10 4.58107e-09 0)
(6.54969e-10 2.10068e-09 0)
(1.1185e-10 -7.28227e-11 0)
(-3.60212e-10 -7.81923e-11 0)
(-8.86846e-10 6.15709e-10 0)
(-9.51615e-10 1.75816e-09 0)
(-7.55279e-10 2.99447e-09 0)
(-2.5494e-10 3.9374e-09 0)
(3.55221e-11 4.4333e-09 0)
(6.08347e-10 3.81908e-09 0)
(1.07459e-09 2.22213e-09 0)
(9.42516e-10 2.26572e-10 0)
(7.36353e-10 -1.81813e-09 0)
(1.67494e-10 -2.8479e-09 0)
(-6.25458e-10 -2.88483e-09 0)
(-1.17214e-09 -1.49849e-09 0)
(-1.18412e-09 -2.8632e-11 0)
(-1.06763e-09 1.79829e-09 0)
(-3.84684e-10 3.41955e-09 0)
(5.81763e-11 3.28886e-09 0)
(1.01483e-09 4.62163e-09 0)
(1.64903e-09 1.84164e-09 0)
(4.66628e-11 4.82686e-11 0)
(-1.89273e-10 -1.71981e-10 0)
(-4.92963e-10 2.78563e-10 0)
(-5.60479e-10 8.84121e-10 0)
(-4.19879e-10 1.49672e-09 0)
(-3.50482e-10 2.29877e-09 0)
(-7.63884e-11 2.45786e-09 0)
(-8.23796e-11 2.47033e-09 0)
(2.04973e-10 1.70679e-09 0)
(2.34759e-10 4.53569e-10 0)
(1.2268e-10 -9.44354e-10 0)
(6.03196e-11 -1.83747e-09 0)
(-2.40507e-10 -2.04696e-09 0)
(-6.0983e-10 -1.14684e-09 0)
(-6.57249e-10 -1.06153e-10 0)
(-6.563e-10 1.13476e-09 0)
(-1.58328e-10 2.36674e-09 0)
(1.19904e-10 2.28689e-09 0)
(7.38437e-10 3.38055e-09 0)
(1.31404e-09 1.55192e-09 0)
(5.84098e-11 -6.00837e-11 0)
(-1.03983e-10 -4.16045e-10 0)
(-7.92658e-10 3.79754e-10 0)
(-1.14483e-09 1.135e-09 0)
(-8.52729e-10 1.79269e-09 0)
(-5.22287e-10 2.7252e-09 0)
(-4.71156e-11 2.55935e-09 0)
(9.54459e-10 2.42923e-09 0)
(1.15202e-09 1.77021e-09 0)
(9.77549e-10 5.89041e-10 0)
(6.14394e-10 -7.52315e-10 0)
(2.35821e-10 -1.61966e-09 0)
(-3.00947e-10 -1.83281e-09 0)
(-9.21735e-10 -9.48653e-10 0)
(-1.10381e-09 8.24836e-11 0)
(-1.06389e-09 1.25309e-09 0)
(-4.07579e-10 2.30206e-09 0)
(6.60509e-11 2.23899e-09 0)
(7.80077e-10 3.12066e-09 0)
(1.47387e-09 1.29825e-09 0)
(3.28043e-11 4.88989e-11 0)
(-7.19924e-11 2.2306e-11 0)
(-5.29364e-10 2.81333e-10 0)
(-8.90185e-10 8.31459e-10 0)
(-7.48056e-10 1.42831e-09 0)
(-4.67081e-10 2.09813e-09 0)
(-7.76497e-10 1.5794e-09 0)
(4.09397e-10 1.99413e-09 0)
(1.0213e-09 1.07545e-09 0)
(6.79331e-10 5.00782e-12 0)
(9.89293e-11 -8.61964e-10 0)
(-1.97706e-10 -1.34649e-09 0)
(-5.90184e-10 -1.44458e-09 0)
(-1.10703e-09 -7.5931e-10 0)
(-1.22933e-09 3.5532e-11 0)
(-1.18741e-09 1.01147e-09 0)
(-2.76896e-10 1.81897e-09 0)
(2.36429e-10 1.75874e-09 0)
(1.29539e-09 2.43469e-09 0)
(2.01663e-09 9.28481e-10 0)
(1.4978e-10 1.58151e-10 0)
(1.188e-11 3.70967e-10 0)
(-8.01963e-10 -3.94693e-10 0)
(-1.20653e-09 -3.01958e-10 0)
(-7.31359e-10 5.46245e-10 0)
(-1.32878e-09 2.46126e-11 0)
(-5.71508e-10 2.26764e-09 0)
(5.21787e-09 1.10423e-09 0)
(1.02568e-09 5.7962e-10 0)
(1.16392e-09 3.60558e-10 0)
(7.41786e-10 3.09049e-10 0)
(7.42666e-11 1.12031e-10 0)
(-4.74321e-10 -1.67499e-10 0)
(-9.39443e-10 -2.01338e-10 0)
(-1.0599e-09 -8.94392e-11 0)
(-1.09419e-09 8.57345e-11 0)
(-3.89351e-10 3.92421e-10 0)
(1.02565e-10 3.88468e-10 0)
(9.07011e-10 7.53442e-10 0)
(1.70822e-09 5.4813e-10 0)
(2.22818e-10 -3.06822e-11 0)
(-2.28609e-10 7.3133e-11 0)
(-8.16119e-10 -5.39643e-11 0)
(-7.9838e-10 5.07118e-10 0)
(-4.6949e-10 1.63851e-09 0)
(7.72128e-10 1.263e-09 0)
(7.23713e-10 3.793e-09 0)
(-5.34864e-09 1.47591e-09 0)
(1.60906e-10 5.47286e-10 0)
(1.07373e-09 -3.19473e-11 0)
(5.88402e-10 -4.48409e-10 0)
(-3.11426e-10 -7.03871e-10 0)
(-8.15893e-10 -7.31104e-10 0)
(-1.0451e-09 -2.81321e-10 0)
(-1.01699e-09 2.05873e-10 0)
(-9.98039e-10 7.70436e-10 0)
(-2.37153e-10 1.1012e-09 0)
(2.42471e-10 1.03615e-09 0)
(1.15312e-09 1.15795e-09 0)
(1.83551e-09 2.03622e-10 0)
)
;

boundaryField
{
    sides
    {
        type            calculated;
        value           nonuniform List<vector> 
40
(
(2.22818e-10 0 0)
(-2.28609e-10 0 0)
(-8.16119e-10 0 0)
(-7.9838e-10 0 0)
(-4.6949e-10 0 0)
(7.72128e-10 0 0)
(7.23713e-10 0 0)
(-5.34864e-09 0 0)
(1.60906e-10 0 0)
(1.07373e-09 0 0)
(5.88402e-10 0 0)
(-3.11426e-10 0 0)
(-8.15893e-10 0 0)
(-1.0451e-09 0 0)
(-1.01699e-09 0 0)
(-9.98039e-10 0 0)
(-2.37153e-10 0 0)
(2.42471e-10 0 0)
(1.15312e-09 0 0)
(1.83551e-09 0 0)
(-1.49338e-10 0 0)
(2.06276e-10 0 0)
(8.85619e-10 0 0)
(8.81112e-10 0 0)
(1.45256e-10 0 0)
(-1.3333e-09 0 0)
(7.88722e-10 0 0)
(3.4276e-09 0 0)
(-1.65852e-09 0 0)
(-1.06596e-09 0 0)
(-3.61831e-10 0 0)
(3.30725e-10 0 0)
(7.53243e-10 0 0)
(9.90943e-10 0 0)
(1.03536e-09 0 0)
(1.08185e-09 0 0)
(3.03885e-10 0 0)
(-2.45661e-10 0 0)
(-1.20151e-09 0 0)
(-1.88387e-09 0 0)
)
;
    }
    inlet
    {
        type            calculated;
        value           uniform (0 0 0);
    }
    outlet
    {
        type            calculated;
        value           nonuniform List<vector> 
20
(
(-1.88387e-09 1.98575e-10 0)
(-1.73332e-09 5.32901e-10 0)
(-2.00432e-09 9.20648e-10 0)
(-1.43177e-09 1.31278e-09 0)
(-1.25535e-09 1.57314e-09 0)
(-1.59242e-09 1.85483e-09 0)
(-6.42815e-10 2.10504e-09 0)
(-1.11109e-09 2.17147e-09 0)
(-3.83589e-10 2.38526e-09 0)
(-3.33409e-10 2.35521e-09 0)
(3.32475e-10 2.3677e-09 0)
(3.25727e-10 2.39655e-09 0)
(1.05276e-09 2.16775e-09 0)
(6.54969e-10 2.10068e-09 0)
(1.64903e-09 1.84164e-09 0)
(1.31404e-09 1.55192e-09 0)
(1.47387e-09 1.29825e-09 0)
(2.01663e-09 9.28481e-10 0)
(1.70822e-09 5.4813e-10 0)
(1.83551e-09 2.03622e-10 0)
)
;
    }
    frontAndBack
    {
        type            empty;
    }
}


// ************************************************************************* //
