/*--------------------------------*- C++ -*----------------------------------*\
  =========                 |
  \\      /  F ield         | OpenFOAM: The Open Source CFD Toolbox
   \\    /   O peration     | Website:  https://openfoam.org
    \\  /    A nd           | Version:  7
     \\/     M anipulation  |
\*---------------------------------------------------------------------------*/
FoamFile
{
    version     2.0;
    format      ascii;
    class       surfaceScalarField;
    location    "46";
    object      ddtCorrDdt0(phi);
}
// * * * * * * * * * * * * * * * * * * * * * * * * * * * * * * * * * * * * * //

dimensions      [0 4 -2 0 0 0 0];

internalField   nonuniform List<scalar> 
760
(
1.82904e-12
-1.0416e-13
8.21504e-13
-1.90982e-13
8.18929e-12
5.55398e-13
-5.89391e-13
-1.11772e-12
-3.24363e-12
3.72794e-11
-3.90644e-12
3.08081e-10
1.89542e-11
3.23321e-10
-1.98363e-12
6.92669e-12
-5.31184e-12
3.75308e-12
-3.37099e-12
1.02919e-12
-2.75418e-14
2.22219e-14
2.85577e-12
-1.03184e-12
4.41015e-12
-1.63504e-12
5.04554e-12
-8.39585e-13
5.18135e-12
4.5346e-13
3.58791e-12
2.01615e-12
1.15799e-14
3.23552e-12
-3.52551e-12
3.05014e-12
-7.86747e-12
4.1574e-12
1.71722e-12
1.52979e-12
3.60783e-13
2.1835e-12
-1.3229e-12
3.0946e-12
1.61485e-12
5.05659e-12
1.53304e-12
9.01749e-12
5.10579e-12
9.62527e-12
6.44364e-12
-1.93771e-11
-6.81669e-13
-5.63729e-12
7.17903e-12
-3.96814e-12
6.55157e-12
-4.10791e-12
1.82245e-12
-2.21181e-12
-1.77288e-12
8.56026e-13
-3.9223e-12
3.54939e-12
-4.6669e-12
5.08723e-12
-2.54234e-12
5.41436e-12
1.8822e-13
3.89017e-12
3.32368e-12
4.76843e-13
6.14232e-12
-2.59012e-12
5.71987e-12
-6.85913e-12
8.37208e-12
3.72574e-12
1.09677e-12
-3.25046e-12
2.98163e-12
-7.49783e-13
6.56323e-13
1.43981e-12
6.7995e-12
4.13466e-12
3.37327e-12
6.41094e-12
-7.69108e-13
1.17556e-11
-1.98611e-12
7.85268e-12
-5.7411e-13
1.33789e-11
-2.14683e-12
6.56966e-12
-1.40309e-12
2.32707e-12
-3.81252e-13
-3.38477e-12
1.73926e-12
-6.70993e-12
4.4767e-12
-7.59055e-12
6.33536e-12
-4.08777e-12
6.10384e-12
1.37752e-13
3.50996e-12
5.0943e-12
-3.04312e-13
9.38044e-12
-3.95572e-12
9.0583e-12
-8.5336e-12
1.30709e-11
5.4404e-12
4.99595e-13
5.92883e-13
3.79701e-12
-9.21493e-13
3.00353e-12
1.06763e-12
5.73366e-12
5.86519e-12
4.20938e-12
9.72463e-12
-6.13244e-14
1.12863e-11
2.77248e-13
1.7553e-11
-4.80356e-12
1.27666e-11
-4.09884e-12
9.11523e-12
-4.55711e-12
1.81887e-12
-2.80353e-12
-5.74347e-12
-4.14424e-15
-9.84234e-12
3.29012e-12
-1.06086e-11
5.52737e-12
-5.7739e-12
5.35565e-12
-2.96101e-13
3.38165e-12
6.04692e-12
5.28112e-13
1.18799e-11
-2.00239e-12
1.14481e-11
-5.53365e-12
1.66973e-11
7.30744e-12
3.78641e-13
-1.15457e-13
2.73863e-12
2.9882e-13
1.36896e-12
1.79966e-12
2.59677e-12
6.35451e-12
1.50071e-12
1.08303e-11
2.88112e-12
1.44963e-11
-4.80952e-13
1.63809e-11
-4.15588e-13
1.45509e-11
-5.50043e-13
1.02952e-11
-1.73152e-12
1.45781e-12
-7.11552e-13
-6.64711e-12
5.81976e-13
-1.08602e-11
2.29153e-12
-1.1689e-11
3.39601e-12
-6.38678e-12
3.00407e-12
-6.17177e-13
1.59638e-12
6.65928e-12
-1.34166e-13
1.37481e-11
-1.75637e-12
1.33928e-11
-4.89568e-12
1.97277e-11
8.55158e-12
1.51114e-12
-9.90965e-13
3.62993e-12
1.80515e-13
3.766e-12
1.92735e-12
3.88735e-12
6.87597e-12
2.34943e-12
1.15326e-11
1.67065e-12
1.80326e-11
-3.04876e-12
1.90667e-11
-2.79699e-12
1.81228e-11
-5.40461e-12
1.06504e-11
-5.13697e-12
-6.60565e-14
-1.8571e-12
-8.76298e-12
1.37653e-12
-1.37826e-11
4.5045e-12
-1.46241e-11
5.77943e-12
-7.86941e-12
5.2501e-12
-6.80318e-13
3.44658e-12
8.27555e-12
7.82346e-13
1.69123e-11
-1.99197e-12
1.66588e-11
-6.28185e-12
2.35544e-11
9.94376e-12
1.9395e-12
-1.05123e-12
1.60638e-12
3.38848e-13
2.44156e-12
2.57236e-12
1.07324e-12
6.87876e-12
2.25754e-12
1.25702e-11
7.05333e-13
1.78593e-11
9.56979e-13
2.02605e-11
6.26483e-13
1.83218e-11
-1.81944e-12
1.03718e-11
-7.77793e-13
9.4299e-13
-6.95422e-13
-8.68041e-12
-5.83506e-13
-1.48668e-11
5.36046e-13
-1.59957e-11
6.52328e-13
-8.94044e-12
7.15626e-13
-1.15101e-12
1.02159e-12
8.432e-12
4.45506e-13
1.773e-11
-3.22736e-13
1.724e-11
-2.22588e-12
2.47791e-11
1.0672e-11
2.05151e-12
-8.05255e-13
9.19726e-13
3.06754e-14
2.30227e-12
2.97932e-12
1.45755e-12
6.4959e-12
2.58417e-12
1.3044e-11
4.8472e-13
1.84695e-11
3.39905e-13
2.18222e-11
-2.02274e-12
1.87642e-11
-2.46175e-12
1.10838e-11
-9.89906e-13
5.67197e-13
-1.27429e-12
-1.10365e-11
1.98681e-13
-1.71934e-11
2.39343e-12
-1.79456e-11
2.51085e-12
-1.04738e-11
2.61832e-12
-1.63912e-12
2.46416e-12
9.34801e-12
5.42885e-13
1.92443e-11
-1.92188e-12
1.85442e-11
-4.69193e-12
2.67564e-11
1.14834e-11
1.07379e-12
-9.35701e-13
9.3864e-13
3.17291e-13
1.30245e-12
3.28725e-12
1.15171e-12
6.88904e-12
9.87222e-13
1.30557e-11
2.48257e-13
1.8686e-11
-1.07682e-13
2.16404e-11
-8.90526e-13
1.84363e-11
-1.20904e-13
1.0669e-11
-8.23566e-14
-8.06542e-13
-5.40645e-13
-1.26153e-11
2.45609e-13
-1.82486e-11
7.9105e-13
-1.88085e-11
4.56061e-13
-1.10899e-11
5.04047e-13
-1.70273e-12
4.61483e-13
9.52482e-12
-6.43032e-13
1.93105e-11
-1.4587e-12
1.82365e-11
-1.88717e-12
2.67459e-11
1.16356e-11
1.89212e-14
-1.06707e-12
8.49372e-13
9.35909e-13
3.05644e-13
3.53456e-12
5.46951e-13
7.04473e-12
1.83261e-13
1.27743e-11
4.67333e-13
1.84034e-11
-9.12829e-14
2.10986e-11
-1.47019e-13
1.83274e-11
5.34499e-14
1.03796e-11
-7.62404e-13
-1.26272e-12
-4.9047e-13
-1.29314e-11
-1.91861e-13
-1.905e-11
-2.6236e-13
-1.98305e-11
5.03037e-13
-1.16678e-11
1.34462e-12
-2.23825e-12
1.05911e-12
8.92384e-12
1.46467e-13
1.90544e-11
-5.02087e-13
1.87448e-11
-1.30255e-12
2.7894e-11
1.19958e-11
-5.89203e-13
-7.57487e-13
3.23136e-13
1.27986e-12
-3.9708e-13
3.19254e-12
1.03286e-14
6.87562e-12
-5.28549e-13
1.25306e-11
-8.72436e-14
1.83556e-11
-4.21765e-13
2.08056e-11
-1.15974e-13
1.82321e-11
4.44657e-13
1.01054e-11
-2.55802e-14
-1.3817e-12
7.94323e-13
-1.24231e-11
7.90441e-13
-1.87666e-11
-2.98378e-13
-1.96875e-11
-4.60153e-13
-1.12074e-11
-7.76315e-13
-1.85977e-12
-1.30555e-12
8.78653e-12
-1.02399e-12
1.87602e-11
7.32452e-14
1.83903e-11
1.32195e-12
2.7105e-11
1.17553e-11
-9.40789e-13
-5.50196e-13
-9.38878e-13
1.18058e-12
-1.26667e-12
2.82034e-12
-9.09711e-13
6.81942e-12
-9.58027e-13
1.19846e-11
-2.54369e-13
1.81888e-11
3.34051e-13
2.05242e-11
2.66349e-13
1.83812e-11
7.18616e-13
1.06485e-11
6.00859e-14
-8.32288e-13
-1.4618e-13
-1.11758e-11
-1.47587e-13
-1.72192e-11
-5.01882e-13
-1.86103e-11
-5.34194e-13
-1.08679e-11
-6.60731e-13
-1.96404e-12
-3.38935e-13
8.81201e-12
7.92208e-13
1.88306e-11
1.34309e-12
1.85063e-11
1.60808e-12
2.683e-11
1.14852e-11
-1.06188e-12
-6.23874e-13
-2.17362e-12
4.23264e-13
-1.66127e-12
2.66082e-12
-2.36659e-12
6.60269e-12
-1.61711e-12
1.21527e-11
-1.48583e-12
1.76678e-11
9.87877e-13
2.02206e-11
1.29434e-12
1.76471e-11
2.09901e-12
1.12525e-11
2.51333e-12
3.47826e-13
7.42031e-13
-9.78347e-12
-9.42689e-13
-1.47751e-11
-1.93522e-12
-1.56811e-11
-2.56799e-12
-9.0568e-12
-2.96559e-12
-1.33507e-12
-2.00849e-12
8.41544e-12
1.62938e-13
1.74829e-11
1.93768e-12
1.67367e-11
4.32811e-12
2.4474e-11
1.06285e-11
-1.21019e-12
-6.20372e-13
-2.73619e-12
-5.37498e-13
-2.03466e-12
1.87861e-12
-2.31544e-12
6.43508e-12
-1.18563e-12
1.2751e-11
-1.69241e-12
1.68998e-11
-2.47653e-13
2.07554e-11
2.68725e-13
1.74547e-11
-3.42823e-13
1.10407e-11
1.69255e-12
1.42676e-12
1.68893e-12
-9.04162e-12
2.13742e-13
-1.4109e-11
-6.69842e-13
-1.43417e-11
-9.08571e-13
-7.70087e-12
-9.17149e-13
-5.30917e-13
-8.11584e-13
8.51026e-12
-3.94299e-14
1.68194e-11
6.03032e-13
1.6211e-11
2.29508e-12
2.32717e-11
9.919e-12
-1.79776e-12
-7.18533e-14
-3.98934e-12
-7.97908e-13
-3.94605e-12
2.10074e-12
-3.8163e-12
6.77462e-12
-3.33621e-12
1.05026e-11
-9.41087e-14
1.5212e-11
1.16879e-12
1.67364e-11
4.94133e-12
1.64335e-11
4.4471e-12
9.73173e-12
3.95271e-12
2.2791e-12
2.63724e-12
-5.91089e-12
-1.01143e-12
-1.08371e-11
-4.66997e-12
-1.16763e-11
-6.05205e-12
-6.26983e-12
-5.44502e-12
-3.46415e-13
-3.68529e-12
6.94417e-12
-7.70981e-13
1.39404e-11
2.5479e-12
1.34539e-11
6.74517e-12
1.96162e-11
8.45026e-12
-1.78461e-12
1.96725e-14
-2.14756e-12
-1.57589e-12
-1.58255e-12
1.81374e-12
-2.57612e-12
5.74875e-12
-2.57184e-12
9.35198e-12
-1.02759e-12
1.39098e-11
-6.81603e-14
1.27633e-11
2.18899e-13
1.19954e-11
1.0322e-12
9.46296e-12
5.08222e-13
2.15956e-12
6.7218e-13
-5.10307e-12
-2.69289e-13
-9.65982e-12
-2.24925e-12
-1.06569e-11
-3.39514e-12
-5.73997e-12
-3.18101e-12
-9.77368e-14
-2.0154e-12
6.28882e-12
-5.07563e-14
1.22182e-11
2.13683e-12
1.18624e-11
5.33298e-12
1.6782e-11
7.19362e-12
-2.10588e-12
-4.64599e-12
-1.88372e-12
-2.09137e-13
-4.04577e-12
1.47073e-12
-5.52388e-12
3.44311e-12
-2.91393e-12
7.33099e-12
-3.07758e-12
9.53418e-12
3.31567e-12
1.12702e-11
5.68665e-12
1.14006e-11
4.84389e-12
5.27644e-12
3.63511e-12
1.8871e-12
2.22096e-12
-3.06427e-12
5.35508e-14
-6.54029e-12
-3.07985e-12
-7.60103e-12
-5.21909e-12
-4.12e-12
-5.38409e-12
1.40295e-13
-3.69434e-12
5.19671e-12
-7.31905e-13
9.626e-12
1.98274e-12
9.4153e-12
5.70913e-12
1.32654e-11
5.43544e-12
-2.97393e-12
4.55603e-13
7.65854e-13
1.02787e-12
-3.73917e-12
-4.28328e-14
-5.57025e-12
1.32059e-12
-6.48457e-13
6.62058e-12
-6.66911e-12
9.68021e-12
1.29224e-12
1.12209e-11
3.57917e-12
4.35302e-12
4.28771e-12
6.01638e-12
1.30758e-12
8.63466e-13
-3.14341e-13
-2.14048e-12
-1.82101e-12
-3.91545e-12
-4.25688e-12
-4.63005e-12
-5.97342e-12
-2.60653e-12
-6.01932e-12
-1.98174e-14
-3.67843e-12
3.1823e-12
1.17875e-13
6.17044e-12
3.68855e-12
5.85293e-12
8.46417e-12
8.53593e-12
3.80879e-12
-4.93568e-13
3.39616e-13
-2.04496e-12
9.55755e-13
-4.14646e-12
-1.53474e-12
-6.06148e-12
1.8338e-12
-2.33583e-12
-6.32107e-11
-1.14611e-11
-3.11659e-10
1.84601e-11
3.56378e-10
1.28857e-11
-1.0543e-10
5.48699e-12
-3.08613e-12
4.67102e-12
5.22736e-13
2.07507e-12
-4.80043e-13
-9.57316e-13
-1.1297e-12
-3.62441e-12
-1.67148e-12
-5.04569e-12
-9.71625e-13
-5.29716e-12
1.77081e-13
-3.79245e-12
1.77133e-12
-5.14335e-13
3.15969e-12
2.32798e-12
3.08011e-12
6.63821e-12
4.25764e-12
1.78675e-12
1.01323e-12
-5.66936e-12
-3.65149e-12
1.36529e-12
-7.17894e-12
1.44437e-11
-2.03177e-11
-1.04402e-11
2.75384e-12
4.54992e-12
5.71005e-13
-3.03285e-12
-4.74305e-12
-5.18247e-12
-4.88843e-12
-3.12837e-12
1.69942e-13
3.35331e-12
7.60534e-12
)
;

boundaryField
{
    sides
    {
        type            calculated;
        value           uniform 0;
    }
    inlet
    {
        type            calculated;
        value           uniform 0;
    }
    outlet
    {
        type            calculated;
        value           nonuniform List<scalar> 
20
(
-9.63006e-12
-8.79271e-12
-9.97982e-12
-7.17279e-12
-6.28809e-12
-8.23162e-12
-3.45547e-12
-5.76438e-12
-2.13596e-12
-1.5739e-12
1.5756e-12
1.83336e-12
5.48552e-12
3.46235e-12
8.36772e-12
6.51281e-12
7.4783e-12
1.01776e-11
8.72926e-12
9.373e-12
)
;
    }
    frontAndBack
    {
        type            empty;
        value           nonuniform 0();
    }
}


// ************************************************************************* //
