/*--------------------------------*- C++ -*----------------------------------*\
  =========                 |
  \\      /  F ield         | OpenFOAM: The Open Source CFD Toolbox
   \\    /   O peration     | Website:  https://openfoam.org
    \\  /    A nd           | Version:  7
     \\/     M anipulation  |
\*---------------------------------------------------------------------------*/
FoamFile
{
    version     2.0;
    format      ascii;
    class       volVectorField;
    location    "46";
    object      hU;
}
// * * * * * * * * * * * * * * * * * * * * * * * * * * * * * * * * * * * * * //

dimensions      [0 2 -1 0 0 0 0];

internalField   nonuniform List<vector> 
400
(
(0.001 -8.65105e-09 0)
(0.000999999 -2.34321e-08 0)
(0.001 -3.53965e-08 0)
(0.001 -4.61244e-08 0)
(0.00100001 -5.64672e-08 0)
(0.00100001 -6.72268e-08 0)
(0.00100002 -7.83178e-08 0)
(0.00100003 -9.00639e-08 0)
(0.00100004 -1.00881e-07 0)
(0.00100006 -1.12737e-07 0)
(0.00100007 -1.23089e-07 0)
(0.0010001 -1.36082e-07 0)
(0.00100012 -1.45869e-07 0)
(0.00100016 -1.62275e-07 0)
(0.00100017 -1.71033e-07 0)
(0.00100024 -1.9525e-07 0)
(0.00100026 -2.00346e-07 0)
(0.00100038 -2.42919e-07 0)
(0.00100038 -2.39795e-07 0)
(0.00100061 -3.32798e-07 0)
(0.001 3.98475e-09 0)
(0.001 1.20847e-08 0)
(0.00100001 2.02885e-08 0)
(0.00100001 2.80412e-08 0)
(0.00100002 3.54585e-08 0)
(0.00100002 4.2167e-08 0)
(0.00100003 4.83006e-08 0)
(0.00100004 5.34436e-08 0)
(0.00100005 5.87451e-08 0)
(0.00100007 6.25177e-08 0)
(0.00100008 6.71091e-08 0)
(0.0010001 6.87627e-08 0)
(0.00100012 7.29998e-08 0)
(0.00100016 7.03878e-08 0)
(0.00100018 7.46218e-08 0)
(0.00100023 6.23966e-08 0)
(0.00100026 6.77439e-08 0)
(0.00100035 3.21983e-08 0)
(0.00100037 4.00728e-08 0)
(0.00100051 -5.49278e-08 0)
(0.001 -3.84259e-09 0)
(0.000999999 -1.25025e-08 0)
(0.001 -2.20804e-08 0)
(0.001 -3.24138e-08 0)
(0.001 -4.29786e-08 0)
(0.00100001 -5.4181e-08 0)
(0.00100002 -6.54486e-08 0)
(0.00100003 -7.77453e-08 0)
(0.00100004 -8.97752e-08 0)
(0.00100005 -1.03528e-07 0)
(0.00100007 -1.15815e-07 0)
(0.00100009 -1.32209e-07 0)
(0.00100011 -1.4538e-07 0)
(0.00100014 -1.68111e-07 0)
(0.00100016 -1.83009e-07 0)
(0.00100021 -2.18945e-07 0)
(0.00100023 -2.34454e-07 0)
(0.00100031 -2.96938e-07 0)
(0.00100033 -3.06826e-07 0)
(0.00100046 -4.23897e-07 0)
(0.001 4.73721e-11 0)
(0.001 7.98148e-10 0)
(0.00100001 2.14744e-09 0)
(0.00100001 3.28323e-09 0)
(0.00100001 3.90191e-09 0)
(0.00100002 3.35474e-09 0)
(0.00100003 2.19529e-09 0)
(0.00100003 -5.61222e-10 0)
(0.00100004 -3.26566e-09 0)
(0.00100006 -8.18662e-09 0)
(0.00100007 -1.19009e-08 0)
(0.00100009 -2.02636e-08 0)
(0.00100011 -2.57922e-08 0)
(0.00100013 -4.18449e-08 0)
(0.00100016 -5.08342e-08 0)
(0.0010002 -8.21546e-08 0)
(0.00100022 -9.38417e-08 0)
(0.00100028 -1.53786e-07 0)
(0.0010003 -1.61624e-07 0)
(0.00100039 -2.78017e-07 0)
(0.001 -2.69854e-09 0)
(0.001 -8.49547e-09 0)
(0.001 -1.50125e-08 0)
(0.001 -2.26144e-08 0)
(0.00100001 -3.11697e-08 0)
(0.00100001 -4.11472e-08 0)
(0.00100002 -5.19162e-08 0)
(0.00100002 -6.44587e-08 0)
(0.00100003 -7.70775e-08 0)
(0.00100004 -9.2166e-08 0)
(0.00100005 -1.06149e-07 0)
(0.00100007 -1.25047e-07 0)
(0.00100009 -1.41194e-07 0)
(0.00100011 -1.68279e-07 0)
(0.00100013 -1.88259e-07 0)
(0.00100016 -2.31173e-07 0)
(0.00100018 -2.5387e-07 0)
(0.00100024 -3.25463e-07 0)
(0.00100025 -3.42051e-07 0)
(0.00100033 -4.66663e-07 0)
(0.001 -2.14118e-09 0)
(0.001 -6.12229e-09 0)
(0.001 -9.93752e-09 0)
(0.001 -1.41748e-08 0)
(0.00100001 -1.90435e-08 0)
(0.00100001 -2.53239e-08 0)
(0.00100002 -3.25479e-08 0)
(0.00100002 -4.15823e-08 0)
(0.00100003 -5.06595e-08 0)
(0.00100004 -6.21437e-08 0)
(0.00100005 -7.24604e-08 0)
(0.00100007 -8.79593e-08 0)
(0.00100008 -1.01102e-07 0)
(0.0010001 -1.25821e-07 0)
(0.00100011 -1.44297e-07 0)
(0.00100014 -1.86092e-07 0)
(0.00100016 -2.08653e-07 0)
(0.0010002 -2.79319e-07 0)
(0.00100021 -2.95747e-07 0)
(0.00100027 -4.18346e-07 0)
(0.001 -2.4202e-09 0)
(0.001 -7.44131e-09 0)
(0.001 -1.29414e-08 0)
(0.001 -1.94064e-08 0)
(0.00100001 -2.69737e-08 0)
(0.00100001 -3.64221e-08 0)
(0.00100001 -4.72356e-08 0)
(0.00100002 -6.02852e-08 0)
(0.00100002 -7.37878e-08 0)
(0.00100003 -9.00525e-08 0)
(0.00100004 -1.05389e-07 0)
(0.00100005 -1.26084e-07 0)
(0.00100006 -1.44413e-07 0)
(0.00100008 -1.74424e-07 0)
(0.00100009 -1.97968e-07 0)
(0.00100011 -2.45056e-07 0)
(0.00100012 -2.72199e-07 0)
(0.00100015 -3.48122e-07 0)
(0.00100016 -3.68021e-07 0)
(0.00100021 -4.95351e-07 0)
(0.001 -2.61692e-09 0)
(0.001 -8.08207e-09 0)
(0.001 -1.39751e-08 0)
(0.001 -2.07531e-08 0)
(0.001 -2.85509e-08 0)
(0.00100001 -3.8193e-08 0)
(0.00100001 -4.90671e-08 0)
(0.00100001 -6.20114e-08 0)
(0.00100002 -7.51577e-08 0)
(0.00100002 -9.08683e-08 0)
(0.00100003 -1.05544e-07 0)
(0.00100004 -1.25575e-07 0)
(0.00100004 -1.43422e-07 0)
(0.00100006 -1.73179e-07 0)
(0.00100006 -1.97005e-07 0)
(0.00100008 -2.44368e-07 0)
(0.00100009 -2.72469e-07 0)
(0.00100011 -3.48376e-07 0)
(0.00100012 -3.68883e-07 0)
(0.00100015 -4.94617e-07 0)
(0.001 -2.70875e-09 0)
(0.001 -8.41936e-09 0)
(0.001 -1.46016e-08 0)
(0.001 -2.1695e-08 0)
(0.001 -2.98133e-08 0)
(0.001 -3.98147e-08 0)
(0.00100001 -5.11582e-08 0)
(0.00100001 -6.48003e-08 0)
(0.00100001 -7.8899e-08 0)
(0.00100001 -9.58802e-08 0)
(0.00100002 -1.12025e-07 0)
(0.00100002 -1.33693e-07 0)
(0.00100003 -1.53194e-07 0)
(0.00100003 -1.84713e-07 0)
(0.00100004 -2.10157e-07 0)
(0.00100005 -2.59338e-07 0)
(0.00100005 -2.88873e-07 0)
(0.00100007 -3.66732e-07 0)
(0.00100007 -3.88221e-07 0)
(0.00100009 -5.1626e-07 0)
(0.001 -2.75141e-09 0)
(0.001 -8.57187e-09 0)
(0.001 -1.49028e-08 0)
(0.001 -2.21312e-08 0)
(0.001 -3.04306e-08 0)
(0.001 -4.07382e-08 0)
(0.001 -5.25515e-08 0)
(0.001 -6.67116e-08 0)
(0.001 -8.12786e-08 0)
(0.001 -9.86151e-08 0)
(0.00100001 -1.15023e-07 0)
(0.00100001 -1.36908e-07 0)
(0.00100001 -1.56672e-07 0)
(0.00100001 -1.88481e-07 0)
(0.00100001 -2.14381e-07 0)
(0.00100002 -2.6393e-07 0)
(0.00100002 -2.94038e-07 0)
(0.00100002 -3.72031e-07 0)
(0.00100002 -3.93949e-07 0)
(0.00100003 -5.21408e-07 0)
(0.001 -2.7516e-09 0)
(0.001 -8.56692e-09 0)
(0.001 -1.49007e-08 0)
(0.001 -2.21263e-08 0)
(0.000999999 -3.04285e-08 0)
(0.000999999 -4.07363e-08 0)
(0.000999998 -5.25541e-08 0)
(0.000999997 -6.671e-08 0)
(0.000999996 -8.12821e-08 0)
(0.000999995 -9.8618e-08 0)
(0.000999994 -1.15023e-07 0)
(0.000999992 -1.36914e-07 0)
(0.000999991 -1.5668e-07 0)
(0.000999989 -1.88483e-07 0)
(0.000999987 -2.14383e-07 0)
(0.000999984 -2.63931e-07 0)
(0.000999982 -2.94034e-07 0)
(0.000999978 -3.72022e-07 0)
(0.000999977 -3.93941e-07 0)
(0.00099997 -5.21402e-07 0)
(0.001 -2.70934e-09 0)
(0.001 -8.40589e-09 0)
(0.000999999 -1.4596e-08 0)
(0.000999999 -2.16818e-08 0)
(0.000999998 -2.98132e-08 0)
(0.000999996 -3.98113e-08 0)
(0.000999994 -5.11681e-08 0)
(0.000999992 -6.47983e-08 0)
(0.000999989 -7.89062e-08 0)
(0.000999986 -9.58915e-08 0)
(0.000999982 -1.12024e-07 0)
(0.000999978 -1.33699e-07 0)
(0.000999973 -1.53206e-07 0)
(0.000999967 -1.84714e-07 0)
(0.000999961 -2.10158e-07 0)
(0.000999952 -2.59325e-07 0)
(0.000999946 -2.88851e-07 0)
(0.000999933 -3.66688e-07 0)
(0.00099993 -3.88184e-07 0)
(0.000999911 -5.16199e-07 0)
(0.001 -2.6132e-09 0)
(0.000999999 -8.06766e-09 0)
(0.000999999 -1.39685e-08 0)
(0.000999998 -2.07447e-08 0)
(0.000999996 -2.85577e-08 0)
(0.000999994 -3.81928e-08 0)
(0.000999991 -4.90764e-08 0)
(0.000999987 -6.20146e-08 0)
(0.000999983 -7.51578e-08 0)
(0.000999977 -9.08868e-08 0)
(0.000999971 -1.05555e-07 0)
(0.000999963 -1.2558e-07 0)
(0.000999955 -1.43434e-07 0)
(0.000999944 -1.73192e-07 0)
(0.000999935 -1.9702e-07 0)
(0.000999921 -2.44371e-07 0)
(0.000999911 -2.72472e-07 0)
(0.00099989 -3.48368e-07 0)
(0.000999882 -3.68883e-07 0)
(0.000999851 -4.94601e-07 0)
(0.001 -2.408e-09 0)
(0.000999999 -7.43391e-09 0)
(0.000999998 -1.29382e-08 0)
(0.000999997 -1.94113e-08 0)
(0.000999994 -2.69756e-08 0)
(0.000999991 -3.64303e-08 0)
(0.000999987 -4.72259e-08 0)
(0.000999983 -6.02867e-08 0)
(0.000999977 -7.37694e-08 0)
(0.000999969 -9.00408e-08 0)
(0.000999961 -1.05389e-07 0)
(0.00099995 -1.26066e-07 0)
(0.00099994 -1.44393e-07 0)
(0.000999925 -1.74397e-07 0)
(0.000999912 -1.97944e-07 0)
(0.000999891 -2.45006e-07 0)
(0.000999878 -2.72156e-07 0)
(0.000999846 -3.48039e-07 0)
(0.000999839 -3.67945e-07 0)
(0.000999791 -4.95207e-07 0)
(0.001 -2.12454e-09 0)
(0.000999999 -6.12326e-09 0)
(0.000999997 -9.93904e-09 0)
(0.000999995 -1.4184e-08 0)
(0.000999992 -1.90475e-08 0)
(0.000999988 -2.534e-08 0)
(0.000999983 -3.25399e-08 0)
(0.000999976 -4.15821e-08 0)
(0.000999968 -5.06587e-08 0)
(0.000999958 -6.21329e-08 0)
(0.000999948 -7.24685e-08 0)
(0.000999934 -8.79662e-08 0)
(0.000999921 -1.01106e-07 0)
(0.000999902 -1.25823e-07 0)
(0.000999886 -1.44303e-07 0)
(0.000999859 -1.86094e-07 0)
(0.000999841 -2.08668e-07 0)
(0.000999802 -2.79318e-07 0)
(0.000999788 -2.95756e-07 0)
(0.000999731 -4.1833e-07 0)
(0.001 -2.69757e-09 0)
(0.001 -8.51243e-09 0)
(0.000999999 -1.50088e-08 0)
(0.000999997 -2.26131e-08 0)
(0.000999994 -3.11666e-08 0)
(0.00099999 -4.11274e-08 0)
(0.000999985 -5.1924e-08 0)
(0.000999977 -6.44375e-08 0)
(0.000999969 -7.70612e-08 0)
(0.000999957 -9.21348e-08 0)
(0.000999946 -1.06126e-07 0)
(0.000999929 -1.25025e-07 0)
(0.000999914 -1.41176e-07 0)
(0.00099989 -1.68243e-07 0)
(0.000999871 -1.8823e-07 0)
(0.000999836 -2.3112e-07 0)
(0.000999817 -2.53837e-07 0)
(0.000999764 -3.25374e-07 0)
(0.000999752 -3.41987e-07 0)
(0.000999669 -4.66503e-07 0)
(0.001 3.22038e-11 0)
(0.000999998 7.64789e-10 0)
(0.000999995 2.15112e-09 0)
(0.000999991 3.26812e-09 0)
(0.000999987 3.88082e-09 0)
(0.000999981 3.3772e-09 0)
(0.000999974 2.14116e-09 0)
(0.000999966 -6.04571e-10 0)
(0.000999956 -3.28317e-09 0)
(0.000999942 -8.18555e-09 0)
(0.000999929 -1.18963e-08 0)
(0.00099991 -2.02596e-08 0)
(0.000999892 -2.57912e-08 0)
(0.000999866 -4.18347e-08 0)
(0.000999844 -5.08288e-08 0)
(0.000999805 -8.21362e-08 0)
(0.000999779 -9.38365e-08 0)
(0.00099972 -1.53753e-07 0)
(0.000999699 -1.61607e-07 0)
(0.000999611 -2.77961e-07 0)
(0.001 -3.85748e-09 0)
(0.001 -1.24905e-08 0)
(0.001 -2.2079e-08 0)
(0.000999999 -3.24146e-08 0)
(0.000999996 -4.30004e-08 0)
(0.00099999 -5.42002e-08 0)
(0.000999983 -6.54901e-08 0)
(0.000999974 -7.78288e-08 0)
(0.000999964 -8.97967e-08 0)
(0.000999949 -1.03536e-07 0)
(0.000999934 -1.15819e-07 0)
(0.000999913 -1.32208e-07 0)
(0.000999894 -1.45391e-07 0)
(0.000999863 -1.68111e-07 0)
(0.00099984 -1.83028e-07 0)
(0.000999791 -2.18935e-07 0)
(0.000999767 -2.34473e-07 0)
(0.000999687 -2.96905e-07 0)
(0.000999672 -3.06834e-07 0)
(0.000999538 -4.2382e-07 0)
(0.001 3.97072e-09 0)
(0.000999996 1.21285e-08 0)
(0.000999991 2.02607e-08 0)
(0.000999987 2.80561e-08 0)
(0.000999983 3.55305e-08 0)
(0.000999977 4.21455e-08 0)
(0.00099997 4.84476e-08 0)
(0.00099996 5.35688e-08 0)
(0.000999949 5.87223e-08 0)
(0.000999933 6.24851e-08 0)
(0.000999918 6.70994e-08 0)
(0.000999896 6.87704e-08 0)
(0.000999876 7.30009e-08 0)
(0.000999843 7.03999e-08 0)
(0.000999818 7.46245e-08 0)
(0.000999767 6.24308e-08 0)
(0.000999738 6.77658e-08 0)
(0.000999654 3.22701e-08 0)
(0.00099963 4.01224e-08 0)
(0.000999495 -5.48026e-08 0)
(0.001 -8.65624e-09 0)
(0.001 -2.34154e-08 0)
(0.001 -3.54233e-08 0)
(0.000999998 -4.61257e-08 0)
(0.000999994 -5.64027e-08 0)
(0.000999987 -6.72339e-08 0)
(0.00099998 -7.81799e-08 0)
(0.000999969 -8.99214e-08 0)
(0.000999958 -1.00934e-07 0)
(0.000999941 -1.12806e-07 0)
(0.000999927 -1.23144e-07 0)
(0.000999902 -1.36129e-07 0)
(0.000999884 -1.45921e-07 0)
(0.000999845 -1.62328e-07 0)
(0.000999825 -1.71094e-07 0)
(0.000999759 -1.95308e-07 0)
(0.000999742 -2.00412e-07 0)
(0.000999623 -2.42992e-07 0)
(0.000999618 -2.39876e-07 0)
(0.000999393 -3.32927e-07 0)
)
;

boundaryField
{
    sides
    {
        type            slip;
    }
    inlet
    {
        type            fixedValue;
        value           uniform (0.001 0 0);
    }
    outlet
    {
        type            zeroGradient;
    }
    frontAndBack
    {
        type            empty;
    }
}


// ************************************************************************* //
