/*--------------------------------*- C++ -*----------------------------------*\
  =========                 |
  \\      /  F ield         | OpenFOAM: The Open Source CFD Toolbox
   \\    /   O peration     | Website:  https://openfoam.org
    \\  /    A nd           | Version:  7
     \\/     M anipulation  |
\*---------------------------------------------------------------------------*/
FoamFile
{
    version     2.0;
    format      ascii;
    class       volVectorField;
    location    "46";
    object      hU_0;
}
// * * * * * * * * * * * * * * * * * * * * * * * * * * * * * * * * * * * * * //

dimensions      [0 2 -1 0 0 0 0];

internalField   nonuniform List<vector> 
400
(
(0.001 -8.64081e-09 0)
(0.000999999 -2.34282e-08 0)
(0.001 -3.54117e-08 0)
(0.001 -4.61512e-08 0)
(0.00100001 -5.66098e-08 0)
(0.00100001 -6.74564e-08 0)
(0.00100002 -7.86336e-08 0)
(0.00100003 -9.01292e-08 0)
(0.00100004 -1.00919e-07 0)
(0.00100006 -1.12746e-07 0)
(0.00100007 -1.23051e-07 0)
(0.0010001 -1.36015e-07 0)
(0.00100012 -1.45797e-07 0)
(0.00100016 -1.62245e-07 0)
(0.00100017 -1.71052e-07 0)
(0.00100024 -1.95324e-07 0)
(0.00100026 -2.00454e-07 0)
(0.00100038 -2.4302e-07 0)
(0.00100038 -2.39911e-07 0)
(0.00100061 -3.32823e-07 0)
(0.001 3.9791e-09 0)
(0.001 1.20714e-08 0)
(0.00100001 2.02923e-08 0)
(0.00100001 2.80895e-08 0)
(0.00100002 3.54078e-08 0)
(0.00100002 4.20834e-08 0)
(0.00100003 4.81374e-08 0)
(0.00100004 5.34332e-08 0)
(0.00100005 5.87058e-08 0)
(0.00100007 6.24703e-08 0)
(0.00100008 6.70767e-08 0)
(0.0010001 6.87532e-08 0)
(0.00100012 7.30153e-08 0)
(0.00100016 7.04075e-08 0)
(0.00100018 7.46295e-08 0)
(0.00100023 6.23887e-08 0)
(0.00100026 6.77087e-08 0)
(0.00100035 3.21664e-08 0)
(0.00100037 4.00055e-08 0)
(0.00100051 -5.49807e-08 0)
(0.001 -3.85804e-09 0)
(0.000999999 -1.25001e-08 0)
(0.001 -2.21108e-08 0)
(0.001 -3.24988e-08 0)
(0.001 -4.31267e-08 0)
(0.00100001 -5.43591e-08 0)
(0.00100002 -6.56028e-08 0)
(0.00100003 -7.79741e-08 0)
(0.00100004 -8.99088e-08 0)
(0.00100005 -1.03544e-07 0)
(0.00100007 -1.15731e-07 0)
(0.00100009 -1.3207e-07 0)
(0.00100011 -1.45226e-07 0)
(0.00100014 -1.68021e-07 0)
(0.00100016 -1.82999e-07 0)
(0.00100021 -2.19032e-07 0)
(0.00100023 -2.34624e-07 0)
(0.00100031 -2.97102e-07 0)
(0.00100033 -3.07063e-07 0)
(0.00100046 -4.23996e-07 0)
(0.001 2.92278e-11 0)
(0.001 8.23281e-10 0)
(0.00100001 2.12474e-09 0)
(0.00100001 3.17501e-09 0)
(0.00100001 3.73787e-09 0)
(0.00100002 3.11293e-09 0)
(0.00100003 1.92532e-09 0)
(0.00100003 -8.47987e-10 0)
(0.00100004 -3.45548e-09 0)
(0.00100006 -8.2531e-09 0)
(0.00100007 -1.18243e-08 0)
(0.00100009 -2.00982e-08 0)
(0.00100011 -2.55983e-08 0)
(0.00100013 -4.17302e-08 0)
(0.00100016 -5.08208e-08 0)
(0.0010002 -8.22581e-08 0)
(0.00100022 -9.4054e-08 0)
(0.00100028 -1.53993e-07 0)
(0.0010003 -1.6193e-07 0)
(0.00100039 -2.78157e-07 0)
(0.001 -2.71536e-09 0)
(0.001 -8.49131e-09 0)
(0.001 -1.50315e-08 0)
(0.001 -2.26905e-08 0)
(0.00100001 -3.1309e-08 0)
(0.00100001 -4.13424e-08 0)
(0.00100002 -5.21813e-08 0)
(0.00100002 -6.46923e-08 0)
(0.00100003 -7.72483e-08 0)
(0.00100004 -9.22094e-08 0)
(0.00100005 -1.06046e-07 0)
(0.00100007 -1.24857e-07 0)
(0.00100009 -1.40976e-07 0)
(0.00100011 -1.68144e-07 0)
(0.00100013 -1.88226e-07 0)
(0.00100016 -2.31263e-07 0)
(0.00100018 -2.54088e-07 0)
(0.00100024 -3.25679e-07 0)
(0.00100025 -3.42387e-07 0)
(0.00100033 -4.6683e-07 0)
(0.001 -2.1326e-09 0)
(0.001 -6.12294e-09 0)
(0.001 -9.98947e-09 0)
(0.001 -1.43381e-08 0)
(0.00100001 -1.93193e-08 0)
(0.00100001 -2.57032e-08 0)
(0.00100002 -3.29708e-08 0)
(0.00100002 -4.19501e-08 0)
(0.00100003 -5.08941e-08 0)
(0.00100004 -6.21605e-08 0)
(0.00100005 -7.22795e-08 0)
(0.00100007 -8.76725e-08 0)
(0.00100008 -1.00794e-07 0)
(0.0010001 -1.25645e-07 0)
(0.00100011 -1.44267e-07 0)
(0.00100014 -1.86242e-07 0)
(0.00100016 -2.08978e-07 0)
(0.0010002 -2.79645e-07 0)
(0.00100021 -2.96217e-07 0)
(0.00100027 -4.18549e-07 0)
(0.001 -2.40032e-09 0)
(0.001 -7.43882e-09 0)
(0.001 -1.29617e-08 0)
(0.001 -1.94982e-08 0)
(0.00100001 -2.71525e-08 0)
(0.00100001 -3.6715e-08 0)
(0.00100001 -4.75793e-08 0)
(0.00100002 -6.06238e-08 0)
(0.00100002 -7.40154e-08 0)
(0.00100003 -9.00957e-08 0)
(0.00100004 -1.05253e-07 0)
(0.00100005 -1.25832e-07 0)
(0.00100006 -1.44121e-07 0)
(0.00100008 -1.74243e-07 0)
(0.00100009 -1.97921e-07 0)
(0.00100011 -2.45174e-07 0)
(0.00100012 -2.72502e-07 0)
(0.00100015 -3.48431e-07 0)
(0.00100016 -3.68489e-07 0)
(0.00100021 -4.95579e-07 0)
(0.001 -2.59049e-09 0)
(0.001 -8.07618e-09 0)
(0.001 -1.40118e-08 0)
(0.001 -2.08712e-08 0)
(0.001 -2.87915e-08 0)
(0.00100001 -3.85565e-08 0)
(0.00100001 -4.94882e-08 0)
(0.00100001 -6.2389e-08 0)
(0.00100002 -7.53711e-08 0)
(0.00100002 -9.08656e-08 0)
(0.00100003 -1.05322e-07 0)
(0.00100004 -1.25222e-07 0)
(0.00100004 -1.43045e-07 0)
(0.00100006 -1.72954e-07 0)
(0.00100006 -1.96959e-07 0)
(0.00100008 -2.4454e-07 0)
(0.00100009 -2.7285e-07 0)
(0.00100011 -3.48747e-07 0)
(0.00100012 -3.69417e-07 0)
(0.00100015 -4.94854e-07 0)
(0.001 -2.68196e-09 0)
(0.001 -8.41096e-09 0)
(0.001 -1.46483e-08 0)
(0.001 -2.18137e-08 0)
(0.001 -3.00515e-08 0)
(0.001 -4.0161e-08 0)
(0.00100001 -5.15688e-08 0)
(0.00100001 -6.51695e-08 0)
(0.00100001 -7.91271e-08 0)
(0.00100001 -9.59046e-08 0)
(0.00100002 -1.1182e-07 0)
(0.00100002 -1.33352e-07 0)
(0.00100003 -1.5282e-07 0)
(0.00100003 -1.84471e-07 0)
(0.00100004 -2.10084e-07 0)
(0.00100005 -2.59483e-07 0)
(0.00100005 -2.89233e-07 0)
(0.00100007 -3.67085e-07 0)
(0.00100007 -3.88755e-07 0)
(0.00100009 -5.16516e-07 0)
(0.001 -2.72385e-09 0)
(0.001 -8.56835e-09 0)
(0.001 -1.49509e-08 0)
(0.001 -2.22459e-08 0)
(0.001 -3.06629e-08 0)
(0.001 -4.10907e-08 0)
(0.001 -5.29726e-08 0)
(0.001 -6.70864e-08 0)
(0.001 -8.14999e-08 0)
(0.001 -9.86076e-08 0)
(0.00100001 -1.14775e-07 0)
(0.00100001 -1.36527e-07 0)
(0.00100001 -1.56266e-07 0)
(0.00100001 -1.88228e-07 0)
(0.00100001 -2.14317e-07 0)
(0.00100002 -2.64094e-07 0)
(0.00100002 -2.94416e-07 0)
(0.00100002 -3.72396e-07 0)
(0.00100002 -3.94495e-07 0)
(0.00100003 -5.21659e-07 0)
(0.001 -2.72561e-09 0)
(0.001 -8.57335e-09 0)
(0.001 -1.49484e-08 0)
(0.001 -2.22404e-08 0)
(0.000999999 -3.06538e-08 0)
(0.000999999 -4.10851e-08 0)
(0.000999998 -5.29671e-08 0)
(0.000999997 -6.70808e-08 0)
(0.000999996 -8.14996e-08 0)
(0.000999995 -9.86036e-08 0)
(0.000999994 -1.14775e-07 0)
(0.000999992 -1.36533e-07 0)
(0.000999991 -1.56267e-07 0)
(0.000999989 -1.88228e-07 0)
(0.000999987 -2.1432e-07 0)
(0.000999984 -2.64089e-07 0)
(0.000999982 -2.94404e-07 0)
(0.000999978 -3.72385e-07 0)
(0.000999977 -3.9449e-07 0)
(0.00099997 -5.21654e-07 0)
(0.001 -2.68869e-09 0)
(0.001 -8.41598e-09 0)
(0.000999999 -1.46422e-08 0)
(0.000999999 -2.17998e-08 0)
(0.000999998 -3.00352e-08 0)
(0.000999996 -4.01491e-08 0)
(0.000999994 -5.1561e-08 0)
(0.000999992 -6.51557e-08 0)
(0.000999989 -7.91292e-08 0)
(0.000999986 -9.58968e-08 0)
(0.000999982 -1.11813e-07 0)
(0.000999978 -1.33358e-07 0)
(0.000999973 -1.52821e-07 0)
(0.000999967 -1.84465e-07 0)
(0.000999961 -2.10083e-07 0)
(0.000999952 -2.59459e-07 0)
(0.000999946 -2.89196e-07 0)
(0.000999933 -3.67038e-07 0)
(0.00099993 -3.88721e-07 0)
(0.000999911 -5.16456e-07 0)
(0.001 -2.59658e-09 0)
(0.000999999 -8.06864e-09 0)
(0.000999999 -1.40065e-08 0)
(0.000999998 -2.08584e-08 0)
(0.000999996 -2.87902e-08 0)
(0.000999994 -3.85461e-08 0)
(0.000999991 -4.94913e-08 0)
(0.000999987 -6.23765e-08 0)
(0.000999983 -7.53753e-08 0)
(0.000999977 -9.08725e-08 0)
(0.000999971 -1.05317e-07 0)
(0.000999963 -1.25224e-07 0)
(0.000999955 -1.43056e-07 0)
(0.000999944 -1.72964e-07 0)
(0.000999935 -1.96971e-07 0)
(0.000999921 -2.44537e-07 0)
(0.000999911 -2.72843e-07 0)
(0.00099989 -3.48733e-07 0)
(0.000999882 -3.69413e-07 0)
(0.000999851 -4.94837e-07 0)
(0.001 -2.39582e-09 0)
(0.000999999 -7.42213e-09 0)
(0.000999998 -1.29597e-08 0)
(0.000999997 -1.94975e-08 0)
(0.000999994 -2.71632e-08 0)
(0.000999991 -3.6712e-08 0)
(0.000999987 -4.75834e-08 0)
(0.000999983 -6.06188e-08 0)
(0.000999977 -7.39997e-08 0)
(0.000999969 -9.00976e-08 0)
(0.000999961 -1.05245e-07 0)
(0.00099995 -1.25806e-07 0)
(0.00099994 -1.44105e-07 0)
(0.000999925 -1.74218e-07 0)
(0.000999912 -1.97897e-07 0)
(0.000999891 -2.45127e-07 0)
(0.000999878 -2.72457e-07 0)
(0.000999846 -3.4834e-07 0)
(0.000999838 -3.68406e-07 0)
(0.000999791 -4.95433e-07 0)
(0.001 -2.11754e-09 0)
(0.000999999 -6.11015e-09 0)
(0.000999997 -9.99248e-09 0)
(0.000999995 -1.43476e-08 0)
(0.000999992 -1.93281e-08 0)
(0.000999988 -2.57235e-08 0)
(0.000999983 -3.29671e-08 0)
(0.000999976 -4.19651e-08 0)
(0.000999968 -5.0889e-08 0)
(0.000999958 -6.2167e-08 0)
(0.000999948 -7.22979e-08 0)
(0.000999934 -8.76773e-08 0)
(0.000999921 -1.008e-07 0)
(0.000999902 -1.25648e-07 0)
(0.000999886 -1.44276e-07 0)
(0.000999859 -1.8625e-07 0)
(0.000999841 -2.08997e-07 0)
(0.000999802 -2.79641e-07 0)
(0.000999788 -2.96221e-07 0)
(0.000999731 -4.18531e-07 0)
(0.001 -2.70475e-09 0)
(0.001 -8.50294e-09 0)
(0.000999999 -1.50355e-08 0)
(0.000999997 -2.26892e-08 0)
(0.000999994 -3.13079e-08 0)
(0.00099999 -4.13453e-08 0)
(0.000999985 -5.21645e-08 0)
(0.000999977 -6.46738e-08 0)
(0.000999969 -7.72308e-08 0)
(0.000999957 -9.21841e-08 0)
(0.000999946 -1.06038e-07 0)
(0.000999929 -1.2484e-07 0)
(0.000999914 -1.40958e-07 0)
(0.00099989 -1.68108e-07 0)
(0.000999871 -1.88199e-07 0)
(0.000999836 -2.31214e-07 0)
(0.000999817 -2.54062e-07 0)
(0.000999764 -3.25594e-07 0)
(0.000999752 -3.42323e-07 0)
(0.000999669 -4.66669e-07 0)
(0.001 3.40036e-11 0)
(0.000999998 7.90721e-10 0)
(0.000999995 2.11631e-09 0)
(0.000999991 3.17264e-09 0)
(0.000999987 3.70164e-09 0)
(0.000999981 3.12201e-09 0)
(0.000999974 1.85635e-09 0)
(0.000999966 -8.52944e-10 0)
(0.000999956 -3.45969e-09 0)
(0.000999942 -8.24692e-09 0)
(0.000999929 -1.1827e-08 0)
(0.00099991 -2.0099e-08 0)
(0.000999892 -2.55977e-08 0)
(0.000999866 -4.17203e-08 0)
(0.000999844 -5.08166e-08 0)
(0.000999805 -8.22424e-08 0)
(0.000999779 -9.40549e-08 0)
(0.00099972 -1.53968e-07 0)
(0.000999699 -1.61918e-07 0)
(0.000999611 -2.781e-07 0)
(0.001 -3.86736e-09 0)
(0.001 -1.24974e-08 0)
(0.001 -2.21037e-08 0)
(0.000999999 -3.24928e-08 0)
(0.000999996 -4.31387e-08 0)
(0.00099999 -5.43943e-08 0)
(0.000999983 -6.57295e-08 0)
(0.000999974 -7.79892e-08 0)
(0.000999964 -8.99103e-08 0)
(0.000999949 -1.03539e-07 0)
(0.000999934 -1.1573e-07 0)
(0.000999913 -1.32071e-07 0)
(0.000999894 -1.4524e-07 0)
(0.000999863 -1.68021e-07 0)
(0.00099984 -1.83016e-07 0)
(0.000999791 -2.1902e-07 0)
(0.000999767 -2.34645e-07 0)
(0.000999687 -2.97074e-07 0)
(0.000999672 -3.07075e-07 0)
(0.000999538 -4.2392e-07 0)
(0.001 3.94888e-09 0)
(0.000999996 1.20994e-08 0)
(0.000999991 2.03022e-08 0)
(0.000999987 2.80577e-08 0)
(0.000999983 3.54926e-08 0)
(0.000999977 4.21104e-08 0)
(0.00099997 4.83556e-08 0)
(0.00099996 5.34042e-08 0)
(0.000999949 5.86448e-08 0)
(0.000999933 6.24504e-08 0)
(0.000999918 6.70809e-08 0)
(0.000999896 6.8764e-08 0)
(0.000999876 7.3017e-08 0)
(0.000999843 7.04222e-08 0)
(0.000999818 7.46383e-08 0)
(0.000999767 6.24284e-08 0)
(0.000999738 6.77323e-08 0)
(0.000999654 3.22362e-08 0)
(0.00099963 4.00519e-08 0)
(0.000999495 -5.48571e-08 0)
(0.001 -8.65654e-09 0)
(0.001 -2.34164e-08 0)
(0.001 -3.54128e-08 0)
(0.000999998 -4.6195e-08 0)
(0.000999994 -5.65525e-08 0)
(0.000999987 -6.73998e-08 0)
(0.000999979 -7.83725e-08 0)
(0.000999969 -9.0182e-08 0)
(0.000999958 -1.01017e-07 0)
(0.000999941 -1.12809e-07 0)
(0.000999927 -1.23097e-07 0)
(0.000999902 -1.36058e-07 0)
(0.000999884 -1.45848e-07 0)
(0.000999845 -1.62296e-07 0)
(0.000999825 -1.71108e-07 0)
(0.000999759 -1.95379e-07 0)
(0.000999742 -2.00519e-07 0)
(0.000999623 -2.43094e-07 0)
(0.000999618 -2.39994e-07 0)
(0.000999393 -3.32952e-07 0)
)
;

boundaryField
{
    sides
    {
        type            slip;
    }
    inlet
    {
        type            fixedValue;
        value           uniform (0.001 0 0);
    }
    outlet
    {
        type            zeroGradient;
    }
    frontAndBack
    {
        type            empty;
    }
}


// ************************************************************************* //
