/*--------------------------------*- C++ -*----------------------------------*\
  =========                 |
  \\      /  F ield         | OpenFOAM: The Open Source CFD Toolbox
   \\    /   O peration     | Website:  https://openfoam.org
    \\  /    A nd           | Version:  7
     \\/     M anipulation  |
\*---------------------------------------------------------------------------*/
FoamFile
{
    version     2.0;
    format      ascii;
    class       volVectorField;
    location    "46";
    object      U;
}
// * * * * * * * * * * * * * * * * * * * * * * * * * * * * * * * * * * * * * //

dimensions      [0 1 -1 0 0 0 0];

internalField   nonuniform List<vector> 
400
(
(0.099993 -8.65045e-07 0)
(0.099993 -2.34304e-06 0)
(0.099993 -3.5394e-06 0)
(0.0999933 -4.61212e-06 0)
(0.0999938 -5.64633e-06 0)
(0.0999945 -6.72222e-06 0)
(0.0999954 -7.83126e-06 0)
(0.0999965 -9.0058e-06 0)
(0.0999977 -1.00874e-05 0)
(0.0999996 -1.1273e-05 0)
(0.100001 -1.23082e-05 0)
(0.100004 -1.36074e-05 0)
(0.100006 -1.4586e-05 0)
(0.10001 -1.62266e-05 0)
(0.100013 -1.71025e-05 0)
(0.10002 -1.95242e-05 0)
(0.100022 -2.00338e-05 0)
(0.100035 -2.42912e-05 0)
(0.100036 -2.3979e-05 0)
(0.10006 -3.32796e-05 0)
(0.0999942 3.98452e-07 0)
(0.0999947 1.2084e-06 0)
(0.0999952 2.02873e-06 0)
(0.0999956 2.80396e-06 0)
(0.0999961 3.54565e-06 0)
(0.0999968 4.21647e-06 0)
(0.0999976 4.8298e-06 0)
(0.0999987 5.34407e-06 0)
(0.1 5.8742e-06 0)
(0.100002 6.25146e-06 0)
(0.100003 6.71059e-06 0)
(0.100006 6.87595e-06 0)
(0.100008 7.29966e-06 0)
(0.100012 7.0385e-06 0)
(0.100015 7.46191e-06 0)
(0.10002 6.23946e-06 0)
(0.100024 6.77422e-06 0)
(0.100033 3.21977e-06 0)
(0.100036 4.00723e-06 0)
(0.10005 -5.49276e-06 0)
(0.0999947 -3.84239e-07 0)
(0.0999946 -1.25018e-06 0)
(0.0999947 -2.20792e-06 0)
(0.0999948 -3.2412e-06 0)
(0.0999952 -4.29764e-06 0)
(0.0999958 -5.41782e-06 0)
(0.0999966 -6.54453e-06 0)
(0.0999976 -7.77414e-06 0)
(0.0999988 -8.97708e-06 0)
(0.1 -1.03523e-05 0)
(0.100002 -1.1581e-05 0)
(0.100004 -1.32203e-05 0)
(0.100007 -1.45374e-05 0)
(0.10001 -1.68104e-05 0)
(0.100013 -1.83003e-05 0)
(0.100018 -2.18938e-05 0)
(0.100021 -2.34448e-05 0)
(0.100029 -2.96933e-05 0)
(0.100032 -3.06823e-05 0)
(0.100046 -4.23895e-05 0)
(0.0999955 4.737e-09 0)
(0.0999958 7.98112e-08 0)
(0.0999961 2.14734e-07 0)
(0.0999965 3.28309e-07 0)
(0.099997 3.90174e-07 0)
(0.0999977 3.3546e-07 0)
(0.0999984 2.1952e-07 0)
(0.0999994 -5.612e-08 0)
(0.1 -3.26553e-07 0)
(0.100002 -8.18631e-07 0)
(0.100004 -1.19004e-06 0)
(0.100006 -2.02629e-06 0)
(0.100008 -2.57914e-06 0)
(0.10001 -4.18436e-06 0)
(0.100013 -5.08329e-06 0)
(0.100017 -8.21528e-06 0)
(0.10002 -9.384e-06 0)
(0.100027 -1.53784e-05 0)
(0.100029 -1.61623e-05 0)
(0.100039 -2.78016e-05 0)
(0.0999962 -2.69844e-07 0)
(0.0999962 -8.49514e-07 0)
(0.0999963 -1.50119e-06 0)
(0.0999965 -2.26135e-06 0)
(0.0999968 -3.11686e-06 0)
(0.0999973 -4.11457e-06 0)
(0.0999979 -5.19143e-06 0)
(0.0999987 -6.44564e-06 0)
(0.0999997 -7.70748e-06 0)
(0.100001 -9.2163e-06 0)
(0.100002 -1.06145e-05 0)
(0.100004 -1.25043e-05 0)
(0.100006 -1.4119e-05 0)
(0.100008 -1.68275e-05 0)
(0.100011 -1.88255e-05 0)
(0.100014 -2.31169e-05 0)
(0.100017 -2.53866e-05 0)
(0.100022 -3.2546e-05 0)
(0.100024 -3.42049e-05 0)
(0.100033 -4.66662e-05 0)
(0.0999969 -2.14111e-07 0)
(0.099997 -6.1221e-07 0)
(0.0999972 -9.93721e-07 0)
(0.0999975 -1.41743e-06 0)
(0.0999978 -1.9043e-06 0)
(0.0999983 -2.53232e-06 0)
(0.0999989 -3.25469e-06 0)
(0.0999996 -4.15812e-06 0)
(0.1 -5.06581e-06 0)
(0.100002 -6.21421e-06 0)
(0.100003 -7.24587e-06 0)
(0.100004 -8.79573e-06 0)
(0.100006 -1.011e-05 0)
(0.100008 -1.25819e-05 0)
(0.10001 -1.44294e-05 0)
(0.100013 -1.86089e-05 0)
(0.100015 -2.08651e-05 0)
(0.100019 -2.79317e-05 0)
(0.100021 -2.95746e-05 0)
(0.100027 -4.18346e-05 0)
(0.0999976 -2.42014e-07 0)
(0.0999977 -7.44114e-07 0)
(0.0999978 -1.29411e-06 0)
(0.099998 -1.9406e-06 0)
(0.0999982 -2.69731e-06 0)
(0.0999986 -3.64212e-06 0)
(0.099999 -4.72345e-06 0)
(0.0999996 -6.02839e-06 0)
(0.1 -7.37862e-06 0)
(0.100001 -9.00507e-06 0)
(0.100002 -1.05387e-05 0)
(0.100003 -1.26081e-05 0)
(0.100004 -1.44411e-05 0)
(0.100006 -1.74421e-05 0)
(0.100007 -1.97966e-05 0)
(0.10001 -2.45053e-05 0)
(0.100011 -2.72197e-05 0)
(0.100015 -3.48119e-05 0)
(0.100016 -3.68019e-05 0)
(0.100021 -4.9535e-05 0)
(0.0999983 -2.61687e-07 0)
(0.0999983 -8.08193e-07 0)
(0.0999984 -1.39749e-06 0)
(0.0999986 -2.07528e-06 0)
(0.0999987 -2.85504e-06 0)
(0.099999 -3.81924e-06 0)
(0.0999993 -4.90663e-06 0)
(0.0999997 -6.20105e-06 0)
(0.1 -7.51566e-06 0)
(0.100001 -9.0867e-06 0)
(0.100002 -1.05543e-05 0)
(0.100002 -1.25574e-05 0)
(0.100003 -1.4342e-05 0)
(0.100004 -1.73177e-05 0)
(0.100006 -1.97003e-05 0)
(0.100007 -2.44366e-05 0)
(0.100008 -2.72468e-05 0)
(0.100011 -3.48374e-05 0)
(0.100011 -3.68882e-05 0)
(0.100015 -4.94616e-05 0)
(0.099999 -2.70873e-07 0)
(0.099999 -8.41928e-07 0)
(0.0999991 -1.46015e-06 0)
(0.0999991 -2.16947e-06 0)
(0.0999992 -2.9813e-06 0)
(0.0999994 -3.98143e-06 0)
(0.0999996 -5.11577e-06 0)
(0.0999999 -6.47997e-06 0)
(0.1 -7.88983e-06 0)
(0.100001 -9.58794e-06 0)
(0.100001 -1.12024e-05 0)
(0.100001 -1.33692e-05 0)
(0.100002 -1.53193e-05 0)
(0.100003 -1.84712e-05 0)
(0.100003 -2.10156e-05 0)
(0.100004 -2.59337e-05 0)
(0.100005 -2.88872e-05 0)
(0.100006 -3.66731e-05 0)
(0.100007 -3.8822e-05 0)
(0.100009 -5.1626e-05 0)
(0.0999997 -2.7514e-07 0)
(0.0999997 -8.57184e-07 0)
(0.0999997 -1.49028e-06 0)
(0.0999997 -2.21311e-06 0)
(0.0999998 -3.04305e-06 0)
(0.0999998 -4.07381e-06 0)
(0.0999999 -5.25513e-06 0)
(0.1 -6.67114e-06 0)
(0.1 -8.12784e-06 0)
(0.1 -9.86148e-06 0)
(0.1 -1.15023e-05 0)
(0.1 -1.36907e-05 0)
(0.100001 -1.56671e-05 0)
(0.100001 -1.8848e-05 0)
(0.100001 -2.1438e-05 0)
(0.100001 -2.63929e-05 0)
(0.100002 -2.94038e-05 0)
(0.100002 -3.72031e-05 0)
(0.100002 -3.93949e-05 0)
(0.100003 -5.21408e-05 0)
(0.1 -2.75161e-07 0)
(0.1 -8.56695e-07 0)
(0.1 -1.49007e-06 0)
(0.1 -2.21264e-06 0)
(0.1 -3.04286e-06 0)
(0.1 -4.07365e-06 0)
(0.1 -5.25542e-06 0)
(0.1 -6.67102e-06 0)
(0.0999999 -8.12823e-06 0)
(0.0999998 -9.86183e-06 0)
(0.0999997 -1.15023e-05 0)
(0.0999995 -1.36915e-05 0)
(0.0999993 -1.5668e-05 0)
(0.0999991 -1.88484e-05 0)
(0.0999989 -2.14384e-05 0)
(0.0999985 -2.63931e-05 0)
(0.0999983 -2.94034e-05 0)
(0.0999979 -3.72022e-05 0)
(0.0999977 -3.93941e-05 0)
(0.0999971 -5.21402e-05 0)
(0.100001 -2.70937e-07 0)
(0.100001 -8.40597e-07 0)
(0.100001 -1.45962e-06 0)
(0.100001 -2.16821e-06 0)
(0.100001 -2.98135e-06 0)
(0.100001 -3.98117e-06 0)
(0.1 -5.11686e-06 0)
(0.1 -6.47989e-06 0)
(0.0999998 -7.89069e-06 0)
(0.0999994 -9.58923e-06 0)
(0.099999 -1.12024e-05 0)
(0.0999985 -1.337e-05 0)
(0.099998 -1.53207e-05 0)
(0.0999973 -1.84715e-05 0)
(0.0999967 -2.10159e-05 0)
(0.0999957 -2.59326e-05 0)
(0.099995 -2.88852e-05 0)
(0.0999936 -3.66689e-05 0)
(0.0999931 -3.88184e-05 0)
(0.0999911 -5.162e-05 0)
(0.100002 -2.61325e-07 0)
(0.100002 -8.0678e-07 0)
(0.100002 -1.39687e-06 0)
(0.100001 -2.0745e-06 0)
(0.100001 -2.85581e-06 0)
(0.100001 -3.81934e-06 0)
(0.100001 -4.90772e-06 0)
(0.1 -6.20156e-06 0)
(0.0999998 -7.51589e-06 0)
(0.0999991 -9.08881e-06 0)
(0.0999984 -1.05556e-05 0)
(0.0999976 -1.25581e-05 0)
(0.0999967 -1.43436e-05 0)
(0.0999955 -1.73194e-05 0)
(0.0999945 -1.97022e-05 0)
(0.0999929 -2.44373e-05 0)
(0.0999917 -2.72474e-05 0)
(0.0999894 -3.4837e-05 0)
(0.0999885 -3.68884e-05 0)
(0.0999852 -4.94602e-05 0)
(0.100002 -2.40805e-07 0)
(0.100002 -7.43408e-07 0)
(0.100002 -1.29385e-06 0)
(0.100002 -1.94118e-06 0)
(0.100002 -2.69762e-06 0)
(0.100001 -3.64312e-06 0)
(0.100001 -4.7227e-06 0)
(0.1 -6.0288e-06 0)
(0.0999998 -7.3771e-06 0)
(0.099999 -9.00427e-06 0)
(0.0999981 -1.05391e-05 0)
(0.0999969 -1.26068e-05 0)
(0.0999957 -1.44395e-05 0)
(0.099994 -1.744e-05 0)
(0.0999926 -1.97947e-05 0)
(0.0999902 -2.45009e-05 0)
(0.0999887 -2.72159e-05 0)
(0.0999853 -3.48041e-05 0)
(0.0999843 -3.67947e-05 0)
(0.0999793 -4.95208e-05 0)
(0.100003 -2.12461e-07 0)
(0.100003 -6.12345e-07 0)
(0.100003 -9.93934e-07 0)
(0.100003 -1.41844e-06 0)
(0.100002 -1.90481e-06 0)
(0.100002 -2.53407e-06 0)
(0.100001 -3.25408e-06 0)
(0.1 -4.15833e-06 0)
(0.0999995 -5.06601e-06 0)
(0.0999984 -6.21345e-06 0)
(0.0999972 -7.24703e-06 0)
(0.0999957 -8.79683e-06 0)
(0.0999942 -1.01109e-05 0)
(0.0999921 -1.25825e-05 0)
(0.0999903 -1.44305e-05 0)
(0.0999874 -1.86097e-05 0)
(0.0999853 -2.08671e-05 0)
(0.0999811 -2.79321e-05 0)
(0.0999793 -2.95757e-05 0)
(0.0999733 -4.1833e-05 0)
(0.100004 -2.69768e-07 0)
(0.100004 -8.51275e-07 0)
(0.100004 -1.50093e-06 0)
(0.100003 -2.26139e-06 0)
(0.100003 -3.11678e-06 0)
(0.100003 -4.11289e-06 0)
(0.100002 -5.19258e-06 0)
(0.100001 -6.44398e-06 0)
(0.1 -7.70638e-06 0)
(0.099999 -9.21378e-06 0)
(0.0999977 -1.06129e-05 0)
(0.0999959 -1.25029e-05 0)
(0.0999941 -1.4118e-05 0)
(0.0999915 -1.68248e-05 0)
(0.0999894 -1.88235e-05 0)
(0.0999856 -2.31124e-05 0)
(0.0999833 -2.53841e-05 0)
(0.0999776 -3.25378e-05 0)
(0.099976 -3.41989e-05 0)
(0.0999672 -4.66504e-05 0)
(0.100004 3.22052e-09 0)
(0.100004 7.64823e-08 0)
(0.100004 2.15121e-07 0)
(0.100003 3.26827e-07 0)
(0.100003 3.88099e-07 0)
(0.100002 3.37734e-07 0)
(0.100002 2.14125e-07 0)
(0.100001 -6.04595e-08 0)
(0.0999995 -3.2833e-07 0)
(0.099998 -8.18586e-07 0)
(0.0999965 -1.18967e-06 0)
(0.0999944 -2.02603e-06 0)
(0.0999924 -2.5792e-06 0)
(0.0999895 -4.18359e-06 0)
(0.099987 -5.08302e-06 0)
(0.0999827 -8.21381e-06 0)
(0.0999798 -9.38383e-06 0)
(0.0999734 -1.53755e-05 0)
(0.0999707 -1.61609e-05 0)
(0.0999614 -2.77962e-05 0)
(0.100005 -3.85769e-07 0)
(0.100005 -1.24912e-06 0)
(0.100005 -2.20802e-06 0)
(0.100005 -3.24163e-06 0)
(0.100005 -4.30026e-06 0)
(0.100004 -5.4203e-06 0)
(0.100003 -6.54934e-06 0)
(0.100002 -7.78326e-06 0)
(0.100001 -8.98011e-06 0)
(0.0999996 -1.03541e-05 0)
(0.0999979 -1.15824e-05 0)
(0.0999956 -1.32214e-05 0)
(0.0999935 -1.45397e-05 0)
(0.09999 -1.68117e-05 0)
(0.0999874 -1.83034e-05 0)
(0.099982 -2.18941e-05 0)
(0.0999791 -2.34479e-05 0)
(0.0999706 -2.96911e-05 0)
(0.0999684 -3.06838e-05 0)
(0.0999543 -4.23822e-05 0)
(0.100006 3.97095e-07 0)
(0.100005 1.21292e-06 0)
(0.100005 2.02619e-06 0)
(0.100004 2.80576e-06 0)
(0.100004 3.55325e-06 0)
(0.100003 4.21478e-06 0)
(0.100002 4.84503e-06 0)
(0.100001 5.35717e-06 0)
(0.1 5.87254e-06 0)
(0.0999983 6.24882e-06 0)
(0.0999966 6.71027e-06 0)
(0.0999941 6.87736e-06 0)
(0.0999919 7.30041e-06 0)
(0.0999883 7.04027e-06 0)
(0.0999854 7.46272e-06 0)
(0.0999798 6.24328e-06 0)
(0.0999764 6.77676e-06 0)
(0.0999674 3.22707e-06 0)
(0.0999642 4.01229e-06 0)
(0.0999499 -5.48028e-06 0)
(0.100007 -8.65684e-07 0)
(0.100007 -2.3417e-06 0)
(0.100007 -3.54258e-06 0)
(0.100007 -4.61289e-06 0)
(0.100006 -5.64065e-06 0)
(0.100005 -6.72385e-06 0)
(0.100005 -7.81851e-06 0)
(0.100003 -8.99273e-06 0)
(0.100002 -1.00941e-05 0)
(0.1 -1.12813e-05 0)
(0.0999987 -1.23152e-05 0)
(0.099996 -1.36137e-05 0)
(0.0999939 -1.45929e-05 0)
(0.0999897 -1.62337e-05 0)
(0.0999873 -1.71102e-05 0)
(0.0999803 -1.95317e-05 0)
(0.0999779 -2.0042e-05 0)
(0.0999653 -2.42999e-05 0)
(0.0999638 -2.39881e-05 0)
(0.0999401 -3.3293e-05 0)
)
;

boundaryField
{
    sides
    {
        type            calculated;
        value           nonuniform List<vector> 
40
(
(0.100007 0 0)
(0.100007 0 0)
(0.100007 0 0)
(0.100007 0 0)
(0.100006 0 0)
(0.100005 0 0)
(0.100005 0 0)
(0.100003 0 0)
(0.100002 0 0)
(0.1 0 0)
(0.0999987 0 0)
(0.099996 0 0)
(0.0999939 0 0)
(0.0999897 0 0)
(0.0999873 0 0)
(0.0999803 0 0)
(0.0999779 0 0)
(0.0999653 0 0)
(0.0999638 0 0)
(0.0999401 0 0)
(0.099993 0 0)
(0.099993 0 0)
(0.099993 0 0)
(0.0999933 0 0)
(0.0999938 0 0)
(0.0999945 0 0)
(0.0999954 0 0)
(0.0999965 0 0)
(0.0999977 0 0)
(0.0999996 0 0)
(0.100001 0 0)
(0.100004 0 0)
(0.100006 0 0)
(0.10001 0 0)
(0.100013 0 0)
(0.10002 0 0)
(0.100022 0 0)
(0.100035 0 0)
(0.100036 0 0)
(0.10006 0 0)
)
;
    }
    inlet
    {
        type            calculated;
        value           nonuniform List<vector> 
20
(
(0.099993 0 0)
(0.0999942 0 0)
(0.0999947 0 0)
(0.0999955 0 0)
(0.0999962 0 0)
(0.0999969 0 0)
(0.0999976 0 0)
(0.0999983 0 0)
(0.099999 0 0)
(0.0999997 0 0)
(0.1 0 0)
(0.100001 0 0)
(0.100002 0 0)
(0.100002 0 0)
(0.100003 0 0)
(0.100004 0 0)
(0.100004 0 0)
(0.100005 0 0)
(0.100006 0 0)
(0.100007 0 0)
)
;
    }
    outlet
    {
        type            calculated;
        value           nonuniform List<vector> 
20
(
(0.100061 -3.32798e-05 0)
(0.100051 -5.49278e-06 0)
(0.100046 -4.23897e-05 0)
(0.100039 -2.78017e-05 0)
(0.100033 -4.66663e-05 0)
(0.100027 -4.18346e-05 0)
(0.100021 -4.95351e-05 0)
(0.100015 -4.94617e-05 0)
(0.100009 -5.1626e-05 0)
(0.100003 -5.21408e-05 0)
(0.099997 -5.21402e-05 0)
(0.0999911 -5.16199e-05 0)
(0.0999851 -4.94601e-05 0)
(0.0999791 -4.95207e-05 0)
(0.0999731 -4.1833e-05 0)
(0.0999669 -4.66503e-05 0)
(0.0999611 -2.77961e-05 0)
(0.0999538 -4.2382e-05 0)
(0.0999495 -5.48026e-06 0)
(0.0999393 -3.32927e-05 0)
)
;
    }
    frontAndBack
    {
        type            empty;
    }
}


// ************************************************************************* //
