/*--------------------------------*- C++ -*----------------------------------*\
  =========                 |
  \\      /  F ield         | OpenFOAM: The Open Source CFD Toolbox
   \\    /   O peration     | Website:  https://openfoam.org
    \\  /    A nd           | Version:  7
     \\/     M anipulation  |
\*---------------------------------------------------------------------------*/
FoamFile
{
    version     2.0;
    format      ascii;
    class       volVectorField;
    location    "19";
    object      ddt0(hU);
}
// * * * * * * * * * * * * * * * * * * * * * * * * * * * * * * * * * * * * * //

dimensions      [0 2 -2 0 0 0 0];

internalField   nonuniform List<vector> 
400
(
(4.40411e-09 -1.91195e-09 0)
(-9.97112e-09 -9.9436e-09 0)
(-2.23049e-08 -1.40322e-08 0)
(-2.1937e-08 -1.72699e-08 0)
(-1.50679e-08 -1.97325e-08 0)
(-1.21635e-08 -2.02122e-08 0)
(-8.67794e-09 -1.74848e-08 0)
(-3.24194e-09 -1.26751e-08 0)
(1.35751e-09 -5.58612e-09 0)
(5.21567e-09 1.35777e-09 0)
(5.25573e-09 5.79496e-09 0)
(2.21399e-09 7.75431e-09 0)
(-2.69421e-09 8.7007e-09 0)
(-9.62628e-09 6.61054e-09 0)
(-1.55558e-08 2.69638e-09 0)
(-2.05148e-08 -3.77566e-09 0)
(-1.34408e-08 -9.6002e-09 0)
(-6.56534e-09 -1.06893e-08 0)
(9.54985e-09 -1.02487e-08 0)
(1.7331e-08 -1.48141e-09 0)
(3.29238e-09 1.74651e-09 0)
(-1.31584e-08 -2.56641e-09 0)
(-2.61341e-08 -3.78037e-09 0)
(-2.53538e-08 -4.58274e-09 0)
(-2.09995e-08 -6.59311e-09 0)
(-1.43328e-08 -8.14358e-09 0)
(-6.33681e-09 -4.5316e-09 0)
(4.30932e-09 -5.2871e-10 0)
(1.12402e-08 2.81936e-09 0)
(1.29757e-08 4.73584e-09 0)
(9.13992e-09 6.04315e-09 0)
(3.3898e-09 7.52766e-09 0)
(-3.80097e-09 9.55713e-09 0)
(-1.2537e-08 9.05139e-09 0)
(-1.9625e-08 6.47037e-09 0)
(-2.48288e-08 -5.73919e-10 0)
(-1.66533e-08 -8.86634e-09 0)
(-9.1306e-09 -1.39403e-08 0)
(9.84988e-09 -1.89529e-08 0)
(1.97427e-08 -5.7339e-09 0)
(3.84948e-09 3.07789e-09 0)
(-9.15371e-09 -5.11764e-09 0)
(-1.85803e-08 -8.96691e-09 0)
(-1.69093e-08 -8.78866e-09 0)
(-1.15164e-08 -1.29774e-08 0)
(-8.91417e-09 -1.49106e-08 0)
(-4.99517e-09 -9.53055e-09 0)
(-1.61022e-09 -3.53753e-09 0)
(1.35772e-09 2.29316e-09 0)
(2.43053e-09 7.26212e-09 0)
(1.72706e-09 1.17382e-08 0)
(1.98909e-10 1.58964e-08 0)
(-2.85944e-09 1.96849e-08 0)
(-8.11406e-09 1.69955e-08 0)
(-1.25202e-08 1.0233e-08 0)
(-1.64627e-08 -5.25129e-09 0)
(-1.0493e-08 -2.11015e-08 0)
(-5.92608e-09 -2.86734e-08 0)
(6.00751e-09 -3.61203e-08 0)
(1.31891e-08 -9.45145e-09 0)
(3.1103e-09 1.15172e-09 0)
(-8.41654e-09 -1.12104e-08 0)
(-2.08026e-08 -1.70474e-08 0)
(-2.19743e-08 -1.90995e-08 0)
(-1.69812e-08 -2.48554e-08 0)
(-7.18323e-09 -2.38911e-08 0)
(-5.90689e-10 -1.93895e-08 0)
(4.63931e-09 -1.14224e-08 0)
(1.05753e-08 -3.51743e-09 0)
(1.07522e-08 4.49508e-09 0)
(6.87581e-09 1.24777e-08 0)
(2.17063e-09 1.88128e-08 0)
(-4.72097e-09 2.41876e-08 0)
(-1.36808e-08 2.12174e-08 0)
(-2.04545e-08 1.27869e-08 0)
(-2.42768e-08 -7.49399e-09 0)
(-1.50352e-08 -2.89592e-08 0)
(-6.67965e-09 -3.88377e-08 0)
(1.09452e-08 -4.8566e-08 0)
(1.87799e-08 -1.33722e-08 0)
(2.78393e-09 2.50818e-09 0)
(-3.19267e-09 -4.2346e-09 0)
(-1.11622e-08 -9.29334e-09 0)
(-1.3983e-08 -1.6532e-08 0)
(-6.85038e-09 -2.20916e-08 0)
(-3.11987e-09 -2.43298e-08 0)
(-6.29675e-09 -2.23964e-08 0)
(-5.47124e-09 -1.26514e-08 0)
(-2.86215e-09 -3.63347e-09 0)
(-4.73863e-10 4.89506e-09 0)
(-4.2785e-10 1.38817e-08 0)
(-1.55855e-09 2.17037e-08 0)
(-3.3431e-09 2.85222e-08 0)
(-6.29569e-09 2.52732e-08 0)
(-8.98503e-09 1.54175e-08 0)
(-1.24292e-08 -9.03739e-09 0)
(-8.86866e-09 -3.47735e-08 0)
(-6.5902e-09 -4.68328e-08 0)
(2.10394e-09 -5.93607e-08 0)
(8.95291e-09 -1.66556e-08 0)
(1.88555e-09 1.24223e-09 0)
(-1.75464e-09 -7.9756e-09 0)
(-1.4539e-08 -1.83773e-08 0)
(-1.30079e-08 -2.8997e-08 0)
(-9.122e-09 -4.01582e-08 0)
(-1.07773e-08 -4.5703e-08 0)
(-4.17034e-09 -3.87663e-08 0)
(3.37981e-09 -2.59014e-08 0)
(6.56422e-09 -1.21159e-08 0)
(6.74314e-09 1.4782e-09 0)
(3.7099e-09 1.41748e-08 0)
(-6.55429e-10 2.46543e-08 0)
(-6.23951e-09 3.37493e-08 0)
(-1.22007e-08 2.98162e-08 0)
(-1.59583e-08 1.71716e-08 0)
(-1.78933e-08 -1.3382e-08 0)
(-1.04505e-08 -4.47459e-08 0)
(-4.50533e-09 -5.85415e-08 0)
(8.32748e-09 -7.24414e-08 0)
(1.42098e-08 -1.96773e-08 0)
(2.21608e-09 2.03593e-09 0)
(2.34033e-10 -3.14951e-09 0)
(-6.86542e-09 -1.36871e-08 0)
(-9.28569e-09 -2.84512e-08 0)
(-6.51593e-09 -4.12113e-08 0)
(-1.64315e-09 -4.38109e-08 0)
(-6.66787e-10 -3.79416e-08 0)
(-2.31102e-09 -2.7843e-08 0)
(-1.67412e-09 -1.5628e-08 0)
(-4.43224e-10 -3.04677e-09 0)
(-1.10257e-09 9.46223e-09 0)
(-2.3689e-09 2.09777e-08 0)
(-3.69662e-09 3.24342e-08 0)
(-5.50073e-09 3.04501e-08 0)
(-6.89754e-09 1.86259e-08 0)
(-8.91378e-09 -1.31978e-08 0)
(-6.27773e-09 -4.7036e-08 0)
(-4.50512e-09 -6.20117e-08 0)
(1.68482e-09 -7.83814e-08 0)
(6.5715e-09 -2.27566e-08 0)
(1.16415e-09 2.86614e-09 0)
(1.5508e-09 2.59582e-10 0)
(-5.29771e-09 -1.36559e-08 0)
(-6.88288e-09 -3.50107e-08 0)
(-3.38683e-09 -5.02534e-08 0)
(-3.15209e-09 -5.5612e-08 0)
(-4.77264e-09 -5.12693e-08 0)
(-1.29909e-09 -3.75749e-08 0)
(1.73594e-09 -2.08789e-08 0)
(2.04672e-09 -4.25853e-09 0)
(4.29869e-10 1.14939e-08 0)
(-1.23233e-09 2.5533e-08 0)
(-3.59007e-09 3.84193e-08 0)
(-6.8872e-09 3.50225e-08 0)
(-9.16197e-09 2.01281e-08 0)
(-1.04127e-08 -1.71039e-08 0)
(-6.32858e-09 -5.48484e-08 0)
(-3.16163e-09 -7.05762e-08 0)
(4.37713e-09 -8.69847e-08 0)
(8.31748e-09 -2.3664e-08 0)
(4.75349e-10 2.49395e-09 0)
(1.43811e-09 2.72952e-09 0)
(-2.52632e-09 -1.36614e-08 0)
(-3.39328e-09 -3.57481e-08 0)
(-2.7142e-09 -5.37518e-08 0)
(-2.38071e-09 -6.0794e-08 0)
(5.06347e-10 -5.44567e-08 0)
(9.3749e-10 -4.06271e-08 0)
(-9.38748e-11 -2.50688e-08 0)
(-6.32109e-10 -9.18145e-09 0)
(-1.07678e-09 6.85702e-09 0)
(-1.20043e-09 2.18831e-08 0)
(-1.84651e-09 3.62878e-08 0)
(-3.39048e-09 3.46759e-08 0)
(-4.39369e-09 2.14682e-08 0)
(-4.69094e-09 -1.54588e-08 0)
(-2.75588e-09 -5.44936e-08 0)
(-1.41574e-09 -7.10808e-08 0)
(1.60557e-09 -8.97474e-08 0)
(3.53525e-09 -2.59438e-08 0)
(-7.52827e-11 1.78658e-09 0)
(3.21534e-10 4.29054e-09 0)
(-6.81937e-10 -1.31093e-08 0)
(-9.30942e-10 -3.91762e-08 0)
(-1.09694e-09 -5.7462e-08 0)
(8.21695e-11 -6.24948e-08 0)
(6.51328e-10 -5.79063e-08 0)
(-6.51873e-10 -4.52802e-08 0)
(-1.1108e-09 -2.79925e-08 0)
(-7.41883e-10 -9.61329e-09 0)
(-3.53353e-11 8.32076e-09 0)
(5.7907e-10 2.40698e-08 0)
(3.88067e-10 3.82661e-08 0)
(-6.61447e-10 3.56136e-08 0)
(-1.79796e-09 2.13174e-08 0)
(-2.71435e-09 -1.72627e-08 0)
(-2.02591e-09 -5.73201e-08 0)
(-1.45095e-09 -7.39505e-08 0)
(5.0207e-10 -9.22834e-08 0)
(1.91904e-09 -2.57688e-08 0)
(6.98553e-11 1.78579e-09 0)
(-3.10706e-10 4.29277e-09 0)
(6.99452e-10 -1.31095e-08 0)
(9.45752e-10 -3.91787e-08 0)
(1.11058e-09 -5.74606e-08 0)
(-7.18265e-11 -6.24953e-08 0)
(-6.40155e-10 -5.79029e-08 0)
(6.68734e-10 -4.52831e-08 0)
(1.12668e-09 -2.79933e-08 0)
(7.6221e-10 -9.61086e-09 0)
(5.72032e-11 8.32109e-09 0)
(-5.63278e-10 2.4067e-08 0)
(-3.74377e-10 3.82611e-08 0)
(6.75142e-10 3.56108e-08 0)
(1.81492e-09 2.13178e-08 0)
(2.72764e-09 -1.72614e-08 0)
(2.02988e-09 -5.73178e-08 0)
(1.44943e-09 -7.39522e-08 0)
(-5.15661e-10 -9.22815e-08 0)
(-1.95142e-09 -2.57658e-08 0)
(-4.7938e-10 2.49181e-09 0)
(-1.42679e-09 2.73305e-09 0)
(2.54346e-09 -1.3663e-08 0)
(3.41127e-09 -3.57559e-08 0)
(2.72827e-09 -5.37554e-08 0)
(2.39785e-09 -6.07952e-08 0)
(-4.94863e-10 -5.44561e-08 0)
(-9.2397e-10 -4.06292e-08 0)
(1.17347e-10 -2.50725e-08 0)
(6.51943e-10 -9.18117e-09 0)
(1.0914e-09 6.85862e-09 0)
(1.21242e-09 2.18827e-08 0)
(1.86192e-09 3.62786e-08 0)
(3.40761e-09 3.46645e-08 0)
(4.41282e-09 2.14575e-08 0)
(4.70253e-09 -1.54702e-08 0)
(2.75684e-09 -5.44898e-08 0)
(1.40922e-09 -7.10816e-08 0)
(-1.62506e-09 -8.9723e-08 0)
(-3.56795e-09 -2.59149e-08 0)
(-1.16772e-09 2.86262e-09 0)
(-1.54035e-09 2.62696e-10 0)
(5.31388e-09 -1.36602e-08 0)
(6.89814e-09 -3.50192e-08 0)
(3.40246e-09 -5.02631e-08 0)
(3.16657e-09 -5.56166e-08 0)
(4.79232e-09 -5.12781e-08 0)
(1.313e-09 -3.75868e-08 0)
(-1.72611e-09 -2.08874e-08 0)
(-2.02899e-09 -4.26064e-09 0)
(-4.09145e-10 1.1494e-08 0)
(1.24728e-09 2.55317e-08 0)
(3.60372e-09 3.84079e-08 0)
(6.89856e-09 3.50085e-08 0)
(9.17354e-09 2.01153e-08 0)
(1.04191e-08 -1.71229e-08 0)
(6.32918e-09 -5.48511e-08 0)
(3.16113e-09 -7.05882e-08 0)
(-4.38985e-09 -8.6962e-08 0)
(-8.34253e-09 -2.36233e-08 0)
(-2.21875e-09 2.03366e-09 0)
(-2.25878e-10 -3.14913e-09 0)
(6.88198e-09 -1.36935e-08 0)
(9.30387e-09 -2.84659e-08 0)
(6.52971e-09 -4.12193e-08 0)
(1.66095e-09 -4.38153e-08 0)
(6.74687e-10 -3.79473e-08 0)
(2.32659e-09 -2.7854e-08 0)
(1.6931e-09 -1.56355e-08 0)
(4.55539e-10 -3.04721e-09 0)
(1.11394e-09 9.46152e-09 0)
(2.38028e-09 2.0973e-08 0)
(3.7104e-09 3.24147e-08 0)
(5.51185e-09 3.0431e-08 0)
(6.90949e-09 1.86135e-08 0)
(8.91992e-09 -1.32042e-08 0)
(6.27812e-09 -4.70157e-08 0)
(4.50171e-09 -6.20052e-08 0)
(-1.70152e-09 -7.83301e-08 0)
(-6.59504e-09 -2.27091e-08 0)
(-1.89148e-09 1.24092e-09 0)
(1.7593e-09 -7.97287e-09 0)
(1.45497e-08 -1.83828e-08 0)
(1.30215e-08 -2.90078e-08 0)
(9.13879e-09 -4.01634e-08 0)
(1.07943e-08 -4.57093e-08 0)
(4.19371e-09 -3.8777e-08 0)
(-3.36054e-09 -2.59119e-08 0)
(-6.55268e-09 -1.21219e-08 0)
(-6.73137e-09 1.48585e-09 0)
(-3.69287e-09 1.41854e-08 0)
(6.72207e-10 2.46603e-08 0)
(6.25353e-09 3.37392e-08 0)
(1.22062e-08 2.97999e-08 0)
(1.59638e-08 1.71559e-08 0)
(1.78899e-08 -1.34102e-08 0)
(1.0442e-08 -4.47511e-08 0)
(4.49735e-09 -5.85611e-08 0)
(-8.34698e-09 -7.24097e-08 0)
(-1.42214e-08 -1.9614e-08 0)
(-2.78604e-09 2.50404e-09 0)
(3.19308e-09 -4.23327e-09 0)
(1.1176e-08 -9.298e-09 0)
(1.40005e-08 -1.65363e-08 0)
(6.86235e-09 -2.20975e-08 0)
(3.13362e-09 -2.4329e-08 0)
(6.3168e-09 -2.23989e-08 0)
(5.49226e-09 -1.26565e-08 0)
(2.87818e-09 -3.63748e-09 0)
(4.84068e-10 4.90147e-09 0)
(4.34343e-10 1.389e-08 0)
(1.56318e-09 2.17058e-08 0)
(3.34837e-09 2.85052e-08 0)
(6.29566e-09 2.52571e-08 0)
(8.98668e-09 1.54105e-08 0)
(1.2427e-08 -9.03543e-09 0)
(8.86679e-09 -3.47433e-08 0)
(6.59236e-09 -4.68201e-08 0)
(-2.11661e-09 -5.92969e-08 0)
(-8.96362e-09 -1.66036e-08 0)
(-3.11152e-09 1.15129e-09 0)
(8.41807e-09 -1.12116e-08 0)
(2.08138e-08 -1.70517e-08 0)
(2.19861e-08 -1.91075e-08 0)
(1.69972e-08 -2.48645e-08 0)
(7.19899e-09 -2.38957e-08 0)
(6.1299e-10 -1.94011e-08 0)
(-4.61681e-09 -1.14348e-08 0)
(-1.05594e-08 -3.52011e-09 0)
(-1.07385e-08 4.50833e-09 0)
(-6.8661e-09 1.24912e-08 0)
(-2.16361e-09 1.88179e-08 0)
(4.72644e-09 2.41752e-08 0)
(1.36748e-08 2.12004e-08 0)
(2.04469e-08 1.27722e-08 0)
(2.42548e-08 -7.51759e-09 0)
(1.50117e-08 -2.89592e-08 0)
(6.65714e-09 -3.88478e-08 0)
(-1.09705e-08 -4.85203e-08 0)
(-1.87697e-08 -1.3308e-08 0)
(-3.85133e-09 3.07879e-09 0)
(9.15414e-09 -5.11338e-09 0)
(1.85955e-08 -8.96546e-09 0)
(1.6921e-08 -8.79439e-09 0)
(1.15321e-08 -1.29734e-08 0)
(8.93274e-09 -1.49107e-08 0)
(5.02133e-09 -9.52541e-09 0)
(1.62983e-09 -3.5367e-09 0)
(-1.34304e-09 2.2935e-09 0)
(-2.42027e-09 7.26426e-09 0)
(-1.72362e-09 1.17416e-08 0)
(-1.99396e-10 1.58998e-08 0)
(2.8599e-09 1.96795e-08 0)
(8.10795e-09 1.69933e-08 0)
(1.25154e-08 1.02397e-08 0)
(1.64544e-08 -5.24159e-09 0)
(1.04847e-08 -2.10771e-08 0)
(5.92611e-09 -2.8668e-08 0)
(-6.01951e-09 -3.60846e-08 0)
(-1.31896e-08 -9.41821e-09 0)
(-3.29377e-09 1.7424e-09 0)
(1.31653e-08 -2.56952e-09 0)
(2.61345e-08 -3.78723e-09 0)
(2.53683e-08 -4.59036e-09 0)
(2.10266e-08 -6.59525e-09 0)
(1.43715e-08 -8.14458e-09 0)
(6.34384e-09 -4.53052e-09 0)
(-4.29239e-09 -5.31462e-10 0)
(-1.12354e-08 2.82589e-09 0)
(-1.29667e-08 4.74988e-09 0)
(-9.13499e-09 6.05621e-09 0)
(-3.39096e-09 7.53502e-09 0)
(3.79303e-09 9.55103e-09 0)
(1.25142e-08 9.04036e-09 0)
(1.96028e-08 6.45548e-09 0)
(2.47956e-08 -5.89034e-10 0)
(1.66314e-08 -8.86317e-09 0)
(9.11437e-09 -1.39381e-08 0)
(-9.86317e-09 -1.88976e-08 0)
(-1.97163e-08 -5.68718e-09 0)
(-4.40373e-09 -1.91363e-09 0)
(9.9747e-09 -9.94461e-09 0)
(2.23295e-08 -1.40353e-08 0)
(2.1953e-08 -1.72697e-08 0)
(1.50717e-08 -1.97412e-08 0)
(1.21722e-08 -2.0218e-08 0)
(8.71623e-09 -1.74925e-08 0)
(3.26297e-09 -1.26866e-08 0)
(-1.33359e-09 -5.5936e-09 0)
(-5.20464e-09 1.35677e-09 0)
(-5.24454e-09 5.79408e-09 0)
(-2.20697e-09 7.7538e-09 0)
(2.69662e-09 8.70156e-09 0)
(9.61677e-09 6.61233e-09 0)
(1.55456e-08 2.70478e-09 0)
(2.04944e-08 -3.77711e-09 0)
(1.34148e-08 -9.60647e-09 0)
(6.53589e-09 -1.06974e-08 0)
(-9.58261e-09 -1.02565e-08 0)
(-1.73171e-08 -1.47572e-09 0)
)
;

boundaryField
{
    sides
    {
        type            calculated;
        value           nonuniform List<vector> 
40
(
(-4.40373e-09 0 0)
(9.9747e-09 0 0)
(2.23295e-08 0 0)
(2.1953e-08 0 0)
(1.50717e-08 0 0)
(1.21722e-08 0 0)
(8.71623e-09 0 0)
(3.26297e-09 0 0)
(-1.33359e-09 0 0)
(-5.20464e-09 0 0)
(-5.24454e-09 0 0)
(-2.20697e-09 0 0)
(2.69662e-09 0 0)
(9.61677e-09 0 0)
(1.55456e-08 0 0)
(2.04944e-08 0 0)
(1.34148e-08 0 0)
(6.53589e-09 0 0)
(-9.58261e-09 0 0)
(-1.73171e-08 0 0)
(4.40411e-09 0 0)
(-9.97112e-09 0 0)
(-2.23049e-08 0 0)
(-2.1937e-08 0 0)
(-1.50679e-08 0 0)
(-1.21635e-08 0 0)
(-8.67794e-09 0 0)
(-3.24194e-09 0 0)
(1.35751e-09 0 0)
(5.21567e-09 0 0)
(5.25573e-09 0 0)
(2.21399e-09 0 0)
(-2.69421e-09 0 0)
(-9.62628e-09 0 0)
(-1.55558e-08 0 0)
(-2.05148e-08 0 0)
(-1.34408e-08 0 0)
(-6.56534e-09 0 0)
(9.54985e-09 0 0)
(1.7331e-08 0 0)
)
;
    }
    inlet
    {
        type            calculated;
        value           uniform (0 0 0);
    }
    outlet
    {
        type            calculated;
        value           nonuniform List<vector> 
20
(
(1.7331e-08 -1.48141e-09 0)
(1.97427e-08 -5.7339e-09 0)
(1.31891e-08 -9.45145e-09 0)
(1.87799e-08 -1.33722e-08 0)
(8.95291e-09 -1.66556e-08 0)
(1.42098e-08 -1.96773e-08 0)
(6.5715e-09 -2.27566e-08 0)
(8.31748e-09 -2.3664e-08 0)
(3.53525e-09 -2.59438e-08 0)
(1.91904e-09 -2.57688e-08 0)
(-1.95142e-09 -2.57658e-08 0)
(-3.56795e-09 -2.59149e-08 0)
(-8.34253e-09 -2.36233e-08 0)
(-6.59504e-09 -2.27091e-08 0)
(-1.42214e-08 -1.9614e-08 0)
(-8.96362e-09 -1.66036e-08 0)
(-1.87697e-08 -1.3308e-08 0)
(-1.31896e-08 -9.41821e-09 0)
(-1.97163e-08 -5.68718e-09 0)
(-1.73171e-08 -1.47572e-09 0)
)
;
    }
    frontAndBack
    {
        type            empty;
    }
}


// ************************************************************************* //
