/*--------------------------------*- C++ -*----------------------------------*\
  =========                 |
  \\      /  F ield         | OpenFOAM: The Open Source CFD Toolbox
   \\    /   O peration     | Website:  https://openfoam.org
    \\  /    A nd           | Version:  7
     \\/     M anipulation  |
\*---------------------------------------------------------------------------*/
FoamFile
{
    version     2.0;
    format      ascii;
    class       surfaceScalarField;
    location    "19";
    object      phi_0;
}
// * * * * * * * * * * * * * * * * * * * * * * * * * * * * * * * * * * * * * //

dimensions      [0 4 -1 0 0 0 0];

internalField   nonuniform List<scalar> 
760
(
4.99999e-06
-6.66326e-12
5e-06
-3.47224e-11
5.00002e-06
-4.89365e-11
5.00005e-06
-5.57708e-11
5.00008e-06
-6.13616e-11
5.0001e-06
-5.66343e-11
5.00012e-06
-5.1116e-11
5.00015e-06
-4.92096e-11
5.00019e-06
-5.17605e-11
5.00024e-06
-6.3889e-11
5.00031e-06
-7.9848e-11
5.00041e-06
-1.12287e-10
5.00055e-06
-1.39504e-10
5.00074e-06
-1.97884e-10
5.00096e-06
-2.195e-10
5.00126e-06
-3.06166e-10
5.00155e-06
-2.85504e-10
5.00199e-06
-4.43976e-10
5.00237e-06
-3.85141e-10
-8.40002e-10
5.00002e-06
-4.19293e-11
5.00004e-06
-8.48158e-11
5.00008e-06
-1.10788e-10
5.00011e-06
-1.28051e-10
5.00015e-06
-1.25781e-10
5.00018e-06
-1.10001e-10
5.0002e-06
-9.10253e-11
5.00022e-06
-8.5887e-11
5.00025e-06
-9.15923e-11
5.00029e-06
-1.1719e-10
5.00035e-06
-1.51271e-10
5.00044e-06
-2.16807e-10
5.00058e-06
-2.79239e-10
5.00077e-06
-3.90872e-10
5.00099e-06
-4.46589e-10
5.00128e-06
-5.93729e-10
5.00157e-06
-5.74507e-10
5.00192e-06
-7.97257e-10
5.00223e-06
-6.98426e-10
-1.15953e-09
4.99999e-06
-4.87593e-11
5e-06
-1.11829e-10
5.00001e-06
-1.48446e-10
5.00002e-06
-1.71754e-10
5.00004e-06
-1.75048e-10
5.00007e-06
-1.59893e-10
5.00009e-06
-1.40001e-10
5.00012e-06
-1.35211e-10
5.00015e-06
-1.468e-10
5.0002e-06
-1.8279e-10
5.00027e-06
-2.33033e-10
5.00037e-06
-3.18465e-10
5.00049e-06
-4.10317e-10
5.00066e-06
-5.56936e-10
5.00086e-06
-6.49215e-10
5.00109e-06
-8.32904e-10
5.00135e-06
-8.36307e-10
5.00164e-06
-1.08314e-09
5.00194e-06
-1.00244e-09
-1.54127e-09
5e-06
-6.39415e-11
5.00002e-06
-1.48908e-10
5.00006e-06
-2.02787e-10
5.0001e-06
-2.36097e-10
5.00014e-06
-2.33298e-10
5.00016e-06
-2.06417e-10
5.00018e-06
-1.77401e-10
5.00019e-06
-1.6835e-10
5.00021e-06
-1.80078e-10
5.00024e-06
-2.24339e-10
5.00029e-06
-2.93417e-10
5.00037e-06
-4.08443e-10
5.00049e-06
-5.34992e-10
5.00065e-06
-7.24713e-10
5.00085e-06
-8.4885e-10
5.00108e-06
-1.06893e-09
5.00131e-06
-1.06824e-09
5.00156e-06
-1.33303e-09
5.00177e-06
-1.21567e-09
-1.70172e-09
5e-06
-6.59518e-11
5e-06
-1.61506e-10
5.00001e-06
-2.26174e-10
5.00003e-06
-2.62043e-10
5.00005e-06
-2.67221e-10
5.00007e-06
-2.46386e-10
5.00009e-06
-2.13954e-10
5.00011e-06
-2.04343e-10
5.00014e-06
-2.24107e-10
5.00019e-06
-2.79824e-10
5.00024e-06
-3.61382e-10
5.00032e-06
-4.89985e-10
5.00041e-06
-6.37739e-10
5.00053e-06
-8.51421e-10
5.00068e-06
-1.00211e-09
5.00086e-06
-1.24669e-09
5.00105e-06
-1.25842e-09
5.00124e-06
-1.52934e-09
5.00143e-06
-1.40752e-09
-1.93286e-09
5e-06
-6.32513e-11
5.00001e-06
-1.75458e-10
5.00004e-06
-2.57238e-10
5.00007e-06
-3.0262e-10
5.00009e-06
-2.99047e-10
5.00011e-06
-2.6571e-10
5.00012e-06
-2.33589e-10
5.00013e-06
-2.2683e-10
5.00014e-06
-2.48229e-10
5.00016e-06
-3.11099e-10
5.0002e-06
-4.08916e-10
5.00026e-06
-5.59274e-10
5.00035e-06
-7.32967e-10
5.00047e-06
-9.76243e-10
5.00061e-06
-1.14915e-09
5.00077e-06
-1.41312e-09
5.00093e-06
-1.41713e-09
5.00109e-06
-1.69092e-09
5.00123e-06
-1.54442e-09
-2.02566e-09
5e-06
-6.07747e-11
5e-06
-1.79904e-10
5.00002e-06
-2.7072e-10
5.00003e-06
-3.17965e-10
5.00005e-06
-3.19073e-10
5.00006e-06
-2.90741e-10
5.00008e-06
-2.56867e-10
5.00009e-06
-2.48618e-10
5.00011e-06
-2.76257e-10
5.00014e-06
-3.47624e-10
5.00017e-06
-4.54304e-10
5.00022e-06
-6.14829e-10
5.00028e-06
-8.02781e-10
5.00036e-06
-1.06205e-09
5.00046e-06
-1.25065e-09
5.00058e-06
-1.52945e-09
5.00069e-06
-1.53659e-09
5.00081e-06
-1.81112e-09
5.00092e-06
-1.65184e-09
-2.1518e-09
5e-06
-5.65442e-11
5e-06
-1.81247e-10
5.00001e-06
-2.82252e-10
5.00003e-06
-3.3397e-10
5.00005e-06
-3.33177e-10
5.00006e-06
-3.02005e-10
5.00006e-06
-2.67688e-10
5.00007e-06
-2.62406e-10
5.00008e-06
-2.92039e-10
5.00009e-06
-3.6781e-10
5.00011e-06
-4.82807e-10
5.00015e-06
-6.54116e-10
5.0002e-06
-8.56411e-10
5.00026e-06
-1.13185e-09
5.00034e-06
-1.33331e-09
5.00043e-06
-1.62192e-09
5.00052e-06
-1.62426e-09
5.0006e-06
-1.89783e-09
5.00068e-06
-1.72616e-09
-2.20361e-09
5e-06
-5.31192e-11
5e-06
-1.81609e-10
5.00001e-06
-2.88661e-10
5.00002e-06
-3.43201e-10
5.00003e-06
-3.40556e-10
5.00003e-06
-3.09422e-10
5.00004e-06
-2.76525e-10
5.00004e-06
-2.71313e-10
5.00005e-06
-3.0324e-10
5.00006e-06
-3.82637e-10
5.00007e-06
-5.03034e-10
5.0001e-06
-6.80727e-10
5.00012e-06
-8.90151e-10
5.00016e-06
-1.17248e-09
5.00021e-06
-1.37902e-09
5.00026e-06
-1.67218e-09
5.0003e-06
-1.67344e-09
5.00035e-06
-1.94664e-09
5.00039e-06
-1.76834e-09
-2.24972e-09
5e-06
-5.20207e-11
5e-06
-1.81763e-10
5e-06
-2.90221e-10
5.00001e-06
-3.45072e-10
5.00001e-06
-3.43007e-10
5.00001e-06
-3.1299e-10
5.00001e-06
-2.80011e-10
5.00001e-06
-2.7496e-10
5.00002e-06
-3.07008e-10
5.00002e-06
-3.87482e-10
5.00003e-06
-5.09381e-10
5.00003e-06
-6.88267e-10
5.00004e-06
-8.99624e-10
5.00005e-06
-1.18483e-09
5.00007e-06
-1.39491e-09
5.00008e-06
-1.6914e-09
5.0001e-06
-1.69279e-09
5.00012e-06
-1.966e-09
5.00014e-06
-1.78355e-09
-2.26068e-09
5e-06
-5.31113e-11
5e-06
-1.81602e-10
5e-06
-2.88658e-10
4.99999e-06
-3.43199e-10
4.99999e-06
-3.40558e-10
4.99999e-06
-3.0943e-10
4.99999e-06
-2.76542e-10
4.99999e-06
-2.71328e-10
4.99998e-06
-3.03247e-10
4.99998e-06
-3.82641e-10
4.99997e-06
-5.03044e-10
4.99997e-06
-6.80736e-10
4.99996e-06
-8.90163e-10
4.99995e-06
-1.17246e-09
4.99993e-06
-1.37901e-09
4.99992e-06
-1.67212e-09
4.9999e-06
-1.67339e-09
4.99988e-06
-1.94655e-09
4.99986e-06
-1.76825e-09
-2.24963e-09
5e-06
-5.65304e-11
5e-06
-1.81237e-10
4.99999e-06
-2.82252e-10
4.99998e-06
-3.33969e-10
4.99997e-06
-3.33182e-10
4.99997e-06
-3.0203e-10
4.99996e-06
-2.67721e-10
4.99996e-06
-2.62437e-10
4.99995e-06
-2.92061e-10
4.99994e-06
-3.67827e-10
4.99993e-06
-4.82831e-10
4.9999e-06
-6.54133e-10
4.99988e-06
-8.56427e-10
4.99984e-06
-1.1318e-09
4.99979e-06
-1.33327e-09
4.99974e-06
-1.6218e-09
4.9997e-06
-1.62416e-09
4.99965e-06
-1.89766e-09
4.9996e-06
-1.72596e-09
-2.20348e-09
5e-06
-6.0758e-11
5e-06
-1.79894e-10
4.99999e-06
-2.70726e-10
4.99997e-06
-3.1797e-10
4.99995e-06
-3.19083e-10
4.99994e-06
-2.9077e-10
4.99994e-06
-2.56919e-10
4.99993e-06
-2.48663e-10
4.99992e-06
-2.76284e-10
4.99991e-06
-3.47643e-10
4.99988e-06
-4.54337e-10
4.99985e-06
-6.14854e-10
4.9998e-06
-8.02813e-10
4.99974e-06
-1.06199e-09
4.99966e-06
-1.25062e-09
4.99957e-06
-1.52929e-09
4.99948e-06
-1.53647e-09
4.99939e-06
-1.81088e-09
4.99932e-06
-1.65158e-09
-2.15157e-09
5e-06
-6.32349e-11
5e-06
-1.75449e-10
4.99998e-06
-2.57245e-10
4.99997e-06
-3.02631e-10
4.99995e-06
-2.9907e-10
4.99994e-06
-2.65754e-10
4.99992e-06
-2.33645e-10
4.99991e-06
-2.26876e-10
4.99989e-06
-2.48259e-10
4.99986e-06
-3.11123e-10
4.99983e-06
-4.08958e-10
4.99978e-06
-5.59303e-10
4.99972e-06
-7.33001e-10
4.99964e-06
-9.76166e-10
4.99954e-06
-1.1491e-09
4.99942e-06
-1.41291e-09
4.99931e-06
-1.41697e-09
4.99919e-06
-1.69061e-09
4.99908e-06
-1.54408e-09
-2.0254e-09
5e-06
-6.5938e-11
4.99999e-06
-1.61508e-10
4.99996e-06
-2.26196e-10
4.99993e-06
-2.62064e-10
4.99991e-06
-2.67248e-10
4.99989e-06
-2.46438e-10
4.99988e-06
-2.14028e-10
4.99987e-06
-2.04407e-10
4.99986e-06
-2.24153e-10
4.99984e-06
-2.7986e-10
4.9998e-06
-3.61439e-10
4.99974e-06
-4.90026e-10
4.99965e-06
-6.37795e-10
4.99953e-06
-8.51356e-10
4.99939e-06
-1.00209e-09
4.99923e-06
-1.24649e-09
4.99907e-06
-1.2583e-09
4.99891e-06
-1.52903e-09
4.99877e-06
-1.40721e-09
-1.93258e-09
5e-06
-6.39306e-11
5e-06
-1.48912e-10
4.99999e-06
-2.02805e-10
4.99997e-06
-2.36113e-10
4.99995e-06
-2.33326e-10
4.99993e-06
-2.06466e-10
4.99991e-06
-1.77463e-10
4.99989e-06
-1.68398e-10
4.99986e-06
-1.8011e-10
4.99981e-06
-2.24363e-10
4.99976e-06
-2.93469e-10
4.99968e-06
-4.08474e-10
4.99959e-06
-5.35038e-10
4.99947e-06
-7.24625e-10
4.99932e-06
-8.48818e-10
4.99914e-06
-1.06869e-09
4.99895e-06
-1.06809e-09
4.99876e-06
-1.33265e-09
4.99857e-06
-1.21531e-09
-1.70136e-09
5e-06
-4.87578e-11
4.99998e-06
-1.11844e-10
4.99994e-06
-1.48476e-10
4.9999e-06
-1.71787e-10
4.99986e-06
-1.75093e-10
4.99984e-06
-1.59957e-10
4.99982e-06
-1.40077e-10
4.99981e-06
-1.35279e-10
4.99979e-06
-1.46859e-10
4.99976e-06
-1.82844e-10
4.99971e-06
-2.33114e-10
4.99963e-06
-3.18521e-10
4.99951e-06
-4.10398e-10
4.99935e-06
-5.56899e-10
4.99915e-06
-6.49247e-10
4.99892e-06
-8.32756e-10
4.99869e-06
-8.36263e-10
4.99844e-06
-1.08288e-09
4.99823e-06
-1.00223e-09
-1.54103e-09
5.00001e-06
-4.19298e-11
5e-06
-8.48275e-11
4.99999e-06
-1.10809e-10
4.99998e-06
-1.28069e-10
4.99996e-06
-1.25802e-10
4.99993e-06
-1.10027e-10
4.99991e-06
-9.10711e-11
4.99988e-06
-8.59197e-11
4.99985e-06
-9.16224e-11
4.9998e-06
-1.17207e-10
4.99973e-06
-1.51317e-10
4.99963e-06
-2.16817e-10
4.99951e-06
-2.79284e-10
4.99934e-06
-3.9079e-10
4.99914e-06
-4.46599e-10
4.99891e-06
-5.93529e-10
4.99865e-06
-5.74464e-10
4.99836e-06
-7.9693e-10
4.99806e-06
-6.98227e-10
-1.1592e-09
4.99998e-06
-6.6772e-12
4.99996e-06
-3.47466e-11
4.99992e-06
-4.89444e-11
4.99989e-06
-5.58073e-11
4.99985e-06
-6.14323e-11
4.99982e-06
-5.67245e-11
4.9998e-06
-5.11379e-11
4.99978e-06
-4.92587e-11
4.99975e-06
-5.18044e-11
4.99971e-06
-6.39619e-11
4.99965e-06
-7.99483e-11
4.99956e-06
-1.12378e-10
4.99942e-06
-1.39622e-10
4.99923e-06
-1.97951e-10
4.99901e-06
-2.19611e-10
4.99872e-06
-3.06186e-10
4.99843e-06
-2.85568e-10
4.99808e-06
-4.43931e-10
4.99777e-06
-3.85122e-10
-8.40052e-10
5.00001e-06
5e-06
4.99998e-06
4.99995e-06
4.99992e-06
4.9999e-06
4.99988e-06
4.99985e-06
4.99981e-06
4.99976e-06
4.99969e-06
4.99959e-06
4.99945e-06
4.99926e-06
4.99904e-06
4.99874e-06
4.99845e-06
4.99801e-06
4.99762e-06
)
;

boundaryField
{
    sides
    {
        type            calculated;
        value           uniform 0;
    }
    inlet
    {
        type            calculated;
        value           nonuniform List<scalar> 
20
(
-5e-06
-5e-06
-5e-06
-5e-06
-5e-06
-5e-06
-5e-06
-5e-06
-5e-06
-5e-06
-5e-06
-5e-06
-5e-06
-5e-06
-5e-06
-5e-06
-5e-06
-5e-06
-5e-06
-5e-06
)
;
    }
    outlet
    {
        type            calculated;
        value           nonuniform List<scalar> 
20
(
5.00321e-06
5.00255e-06
5.00232e-06
5.00193e-06
5.00166e-06
5.00132e-06
5.00105e-06
5.00073e-06
5.00044e-06
5.00015e-06
4.99985e-06
4.99956e-06
4.99927e-06
4.99895e-06
4.99868e-06
4.99834e-06
4.99807e-06
4.99768e-06
4.99745e-06
4.99678e-06
)
;
    }
    frontAndBack
    {
        type            empty;
        value           nonuniform 0();
    }
}


// ************************************************************************* //
