/*--------------------------------*- C++ -*----------------------------------*\
  =========                 |
  \\      /  F ield         | OpenFOAM: The Open Source CFD Toolbox
   \\    /   O peration     | Website:  https://openfoam.org
    \\  /    A nd           | Version:  7
     \\/     M anipulation  |
\*---------------------------------------------------------------------------*/
FoamFile
{
    version     2.0;
    format      ascii;
    class       volScalarField;
    location    "69";
    object      ddt0(h);
}
// * * * * * * * * * * * * * * * * * * * * * * * * * * * * * * * * * * * * * //

dimensions      [0 1 -1 0 0 0 0];

internalField   nonuniform List<scalar> 
400
(
4.39016e-10
5.89275e-12
3.21242e-09
4.17568e-10
-1.57364e-09
-2.07133e-08
-9.74755e-09
-4.18209e-09
4.17733e-09
2.80871e-09
6.75607e-10
-1.10655e-09
-1.72598e-09
-1.19683e-09
-3.94822e-10
-2.11026e-11
-9.11791e-11
-1.95654e-10
-1.44998e-10
-4.51612e-11
9.08142e-10
4.90188e-10
-2.08144e-10
7.09868e-10
8.39828e-10
1.88782e-08
1.15628e-08
5.86131e-10
-1.72265e-09
-1.38947e-09
-9.02546e-10
-5.79842e-10
-4.35853e-10
-2.11236e-10
-1.01101e-10
-1.65854e-10
-2.44286e-10
-2.43684e-10
-1.92088e-10
-7.39704e-11
1.06597e-09
9.04735e-10
-1.7359e-09
1.36778e-09
6.1772e-10
3.9777e-09
-4.85913e-09
3.02164e-09
-9.00955e-10
-2.22518e-09
-1.38291e-09
-5.70519e-10
1.89806e-10
4.4677e-10
7.3986e-11
-2.85566e-10
-2.79365e-10
-2.44153e-10
-2.94409e-10
-1.46287e-10
5.12997e-10
7.77133e-10
-4.72059e-10
1.37172e-10
3.93306e-10
4.22149e-10
1.27306e-09
2.57689e-09
-1.84244e-09
-1.40841e-09
-3.56405e-10
-3.51187e-11
3.64234e-10
2.87997e-10
-2.18666e-10
-4.84782e-10
-3.21719e-10
-2.12698e-10
-3.22236e-10
-2.00121e-10
3.58157e-10
6.82075e-10
9.08425e-10
-7.31527e-10
1.46966e-09
-1.75328e-09
1.97919e-09
-8.79914e-10
-1.74209e-09
6.92045e-10
2.66356e-10
3.29394e-10
3.59355e-10
-1.93019e-10
-5.51063e-10
-5.54918e-10
-3.87561e-10
-2.01149e-10
-1.5458e-10
-9.0805e-11
3.08848e-10
2.1761e-10
1.15975e-09
-4.89633e-10
7.89666e-10
-6.88965e-10
1.01297e-09
-1.61865e-09
8.57531e-10
8.80793e-10
-1.52435e-10
3.70171e-10
5.40593e-11
-7.61756e-10
-7.17631e-10
-3.74054e-10
-3.13448e-10
-1.37551e-10
1.78171e-10
1.57578e-10
4.66546e-10
1.84353e-10
5.26084e-10
7.0723e-10
-5.0431e-10
4.22224e-10
-3.532e-10
-2.24833e-10
9.13265e-10
-4.63223e-10
-6.4488e-12
4.69332e-10
-4.10848e-10
-9.69838e-10
-6.0229e-10
-1.70102e-10
-1.37087e-10
3.7418e-11
4.11276e-10
2.93158e-10
3.50973e-10
6.133e-10
-3.95002e-10
7.283e-10
-4.74612e-10
5.7412e-10
-7.68845e-10
4.53917e-10
-1.77677e-10
-4.98274e-10
6.89022e-10
-1.27348e-10
-8.7458e-10
-4.04186e-10
-8.51943e-11
-1.07575e-10
-2.06849e-11
2.44461e-10
4.11539e-10
2.15336e-10
3.34169e-11
3.77808e-10
-1.43916e-10
9.60318e-11
1.30176e-10
3.80751e-10
-9.07109e-11
3.90491e-10
-3.00821e-10
1.28739e-10
2.40325e-10
-6.35286e-10
-3.2535e-10
4.89939e-10
3.6478e-10
-5.99299e-11
-4.13939e-11
1.23029e-10
1.4469e-10
5.8431e-11
-1.00211e-10
-3.63169e-10
2.79109e-10
1.85432e-11
6.13575e-10
1.87214e-10
6.01003e-10
-2.11003e-11
1.77797e-10
2.92522e-10
-5.18896e-10
-1.18263e-10
5.23618e-10
4.19068e-10
2.6786e-10
2.99667e-10
1.50678e-10
-2.34076e-10
-4.06409e-10
-1.8672e-10
-1.40711e-10
-5.38122e-10
3.6409e-10
-1.51586e-10
5.16285e-10
-1.06737e-10
6.20595e-10
-2.7416e-10
1.87123e-10
2.31222e-10
-7.76105e-10
2.09759e-11
6.72189e-10
2.26597e-10
8.71809e-11
3.05432e-10
1.54782e-10
-3.83159e-10
-6.61395e-10
-3.23448e-10
-1.46187e-10
3.48372e-11
-2.97392e-11
-5.46369e-10
-1.58043e-10
-3.53743e-10
-6.84667e-11
-6.82677e-11
-4.03371e-10
1.69912e-10
-2.41303e-10
-5.66789e-10
2.51472e-11
3.86873e-10
7.98152e-11
-1.92076e-10
-1.07506e-10
-1.22563e-10
-3.16493e-10
-2.066e-10
-2.80275e-11
4.1124e-10
-8.25968e-10
-1.66953e-10
-9.27861e-10
-4.6004e-11
-9.02632e-10
4.44718e-10
-5.68148e-10
-2.36139e-10
7.3744e-10
-3.11945e-10
-6.99055e-10
-9.12739e-11
-2.80247e-11
-1.80073e-10
4.57774e-11
2.45277e-10
9.13178e-11
-3.34438e-11
9.93741e-12
-2.4727e-10
-6.13253e-10
3.85158e-10
-1.32398e-09
4.4221e-10
-8.95419e-10
4.08785e-10
5.98825e-10
-5.87754e-10
6.48336e-10
7.04357e-10
-2.68209e-10
-5.10065e-10
-1.72494e-10
1.73809e-10
2.81798e-10
3.33193e-10
3.81749e-10
1.91471e-10
-4.2771e-10
-7.45239e-10
2.40659e-10
-4.06319e-10
-1.45317e-10
6.78265e-11
1.70082e-10
-9.39029e-10
1.55066e-09
5.17886e-10
1.73805e-10
9.35131e-10
4.50237e-10
-2.62683e-10
-5.26979e-11
3.54734e-10
3.01157e-10
2.40992e-10
4.15464e-10
2.61626e-10
-9.12379e-10
-7.62314e-10
3.51338e-10
-1.07573e-09
1.26026e-09
-2.01482e-09
1.63656e-09
-2.84496e-09
-4.77093e-10
1.00808e-09
2.53938e-10
7.42244e-10
7.91713e-10
2.5911e-10
1.7125e-10
2.82284e-10
2.1663e-10
1.58646e-10
1.86387e-10
9.68946e-11
-9.24033e-10
-1.97401e-10
-3.62674e-10
-6.84495e-10
9.67891e-10
-1.82763e-09
1.83516e-09
2.1109e-09
-3.02827e-09
-4.00807e-10
5.9549e-11
3.60428e-10
7.8656e-10
6.90496e-10
3.77624e-10
1.84241e-10
1.55341e-10
1.03904e-10
-1.91783e-11
-4.3479e-11
-1.04965e-09
5.70754e-12
-1.63182e-09
-3.33868e-10
1.73555e-10
1.08816e-09
-1.44412e-10
2.01558e-09
-8.242e-10
-1.92473e-09
-8.41942e-10
-1.0601e-10
6.07725e-10
8.42492e-10
5.47533e-10
2.28447e-10
1.67725e-10
1.20541e-10
-2.82163e-12
-3.18988e-11
-5.90236e-10
-3.25706e-10
-1.04432e-09
-4.30776e-11
-3.69785e-10
1.49078e-08
-4.51764e-09
2.71374e-08
9.9142e-10
-7.90363e-10
-1.43583e-10
1.59201e-10
3.33164e-10
5.36454e-10
5.077e-10
3.14157e-10
1.9471e-10
1.6508e-10
1.18345e-10
4.03735e-11
-1.42107e-10
-1.53174e-09
4.16017e-10
5.7706e-11
-2.29742e-09
-1.38458e-08
1.65605e-09
-2.80935e-08
2.53416e-09
3.1947e-09
1.5779e-09
6.53622e-11
-4.19823e-10
1.26937e-11
4.4371e-10
4.50856e-10
2.73812e-10
2.01048e-10
1.75296e-10
6.71177e-11
)
;

boundaryField
{
    sides
    {
        type            calculated;
        value           nonuniform List<scalar> 
40
(
-1.42107e-10
-1.53174e-09
4.16017e-10
5.7706e-11
-2.29742e-09
-1.38458e-08
1.65605e-09
-2.80935e-08
2.53416e-09
3.1947e-09
1.5779e-09
6.53622e-11
-4.19823e-10
1.26937e-11
4.4371e-10
4.50856e-10
2.73812e-10
2.01048e-10
1.75296e-10
6.71177e-11
4.39016e-10
5.89275e-12
3.21242e-09
4.17568e-10
-1.57364e-09
-2.07133e-08
-9.74755e-09
-4.18209e-09
4.17733e-09
2.80871e-09
6.75607e-10
-1.10655e-09
-1.72598e-09
-1.19683e-09
-3.94822e-10
-2.11026e-11
-9.11791e-11
-1.95654e-10
-1.44998e-10
-4.51612e-11
)
;
    }
    inlet
    {
        type            calculated;
        value           nonuniform List<scalar> 
20
(
4.39016e-10
9.08142e-10
1.06597e-09
5.12997e-10
3.58157e-10
3.08848e-10
4.66546e-10
3.50973e-10
3.34169e-11
-1.00211e-10
-1.40711e-10
-1.46187e-10
-2.80275e-11
9.93741e-12
-4.2771e-10
-9.12379e-10
-9.24033e-10
-1.04965e-09
-5.90236e-10
-1.42107e-10
)
;
    }
    outlet
    {
        type            calculated;
        value           uniform 0;
    }
    frontAndBack
    {
        type            empty;
    }
}


// ************************************************************************* //
