/*--------------------------------*- C++ -*----------------------------------*\
  =========                 |
  \\      /  F ield         | OpenFOAM: The Open Source CFD Toolbox
   \\    /   O peration     | Website:  https://openfoam.org
    \\  /    A nd           | Version:  7
     \\/     M anipulation  |
\*---------------------------------------------------------------------------*/
FoamFile
{
    version     2.0;
    format      ascii;
    class       volVectorField;
    location    "69";
    object      ddtCorrDdt0(hU);
}
// * * * * * * * * * * * * * * * * * * * * * * * * * * * * * * * * * * * * * //

dimensions      [0 2 -2 0 0 0 0];

internalField   nonuniform List<vector> 
400
(
(1.10065e-10 7.50327e-11 0)
(1.28566e-10 -7.70887e-11 0)
(-1.05212e-10 4.80176e-11 0)
(-6.16838e-11 5.02437e-10 0)
(4.34773e-10 1.8792e-10 0)
(-1.62123e-09 -8.26339e-10 0)
(-2.51432e-09 -4.60732e-10 0)
(-1.70469e-09 1.99855e-09 0)
(1.65514e-09 8.92449e-10 0)
(1.25097e-09 -1.08899e-10 0)
(3.58866e-10 -4.04432e-10 0)
(-1.16516e-10 -2.93137e-10 0)
(-1.86199e-10 -5.36229e-11 0)
(-4.92959e-14 1.33651e-10 0)
(1.79593e-10 1.97331e-10 0)
(2.01704e-10 2.0563e-10 0)
(7.68829e-11 1.37025e-10 0)
(-4.917e-13 6.57024e-11 0)
(-1.34052e-10 -2.31324e-11 0)
(-9.07272e-11 -1.0259e-10 0)
(-2.63842e-12 9.44855e-11 0)
(7.62796e-11 -1.53558e-10 0)
(9.22342e-11 -6.41255e-11 0)
(9.45909e-11 5.45918e-10 0)
(-6.42591e-10 -8.58819e-11 0)
(1.73708e-09 -1.83751e-10 0)
(2.54489e-09 -9.31934e-10 0)
(2.89316e-10 1.30016e-09 0)
(-1.03752e-09 1.04446e-09 0)
(-4.69966e-10 3.999e-11 0)
(-3.95784e-11 -3.58706e-10 0)
(1.77466e-10 -3.42188e-10 0)
(2.34673e-10 -1.51813e-10 0)
(2.52596e-10 4.8808e-11 0)
(2.35516e-10 1.5035e-10 0)
(1.61904e-10 1.77101e-10 0)
(1.73662e-11 1.40974e-10 0)
(-5.62551e-11 5.96616e-11 0)
(-1.44039e-10 5.04883e-12 0)
(-7.65438e-11 -3.96171e-11 0)
(-5.43209e-11 7.02203e-11 0)
(4.25404e-12 1.26828e-10 0)
(8.58845e-11 6.80808e-11 0)
(1.11525e-11 2.35637e-10 0)
(-1.27315e-10 6.76332e-11 0)
(7.57422e-12 1.00607e-09 0)
(-5.7604e-10 -6.95943e-11 0)
(1.08928e-09 -6.36226e-10 0)
(-9.88711e-11 -1.87339e-10 0)
(-6.33812e-10 -2.47427e-10 0)
(-1.94063e-10 -1.71248e-10 0)
(1.60102e-10 -1.20385e-10 0)
(3.80403e-10 -1.98671e-11 0)
(4.21017e-10 1.50763e-10 0)
(2.93496e-10 2.59985e-10 0)
(1.11081e-10 3.15355e-10 0)
(-7.77985e-11 2.2409e-10 0)
(-1.34789e-10 1.18287e-10 0)
(-2.11525e-10 -9.35214e-13 0)
(-5.51629e-11 -1.64892e-10 0)
(-3.69479e-11 4.61576e-11 0)
(2.41447e-12 2.46563e-10 0)
(9.54701e-11 1.83161e-10 0)
(-8.29674e-12 1.1626e-10 0)
(6.76498e-11 4.56523e-10 0)
(-1.40342e-10 3.17679e-10 0)
(-3.64545e-11 7.10972e-10 0)
(5.30633e-10 2.89167e-10 0)
(-4.84992e-10 -4.56222e-10 0)
(-3.885e-10 -2.80958e-10 0)
(1.04558e-10 -5.47594e-11 0)
(2.38614e-10 2.34192e-11 0)
(3.60694e-10 1.37795e-10 0)
(3.72899e-10 2.62036e-10 0)
(2.35927e-10 2.9459e-10 0)
(6.74034e-11 3.20577e-10 0)
(-7.51258e-11 2.28828e-10 0)
(-1.05094e-10 1.58759e-10 0)
(-1.46108e-10 7.21454e-11 0)
(-3.42976e-11 -1.65053e-10 0)
(-2.96388e-11 3.83481e-11 0)
(-2.95655e-11 1.66507e-10 0)
(8.83057e-11 2.47498e-10 0)
(-2.98839e-11 9.53503e-11 0)
(1.5907e-10 4.27568e-10 0)
(-2.16048e-10 2.7969e-11 0)
(3.12026e-10 4.9162e-10 0)
(-2.11557e-10 -2.19715e-11 0)
(-5.29968e-10 -2.97029e-10 0)
(2.00865e-10 1.68298e-11 0)
(2.21393e-10 -2.87576e-11 0)
(2.06156e-10 -2.86564e-11 0)
(2.69002e-10 1.07872e-10 0)
(1.74415e-10 2.34591e-10 0)
(5.24066e-11 2.47991e-10 0)
(-2.50702e-11 2.87656e-10 0)
(-7.10747e-11 2.46259e-10 0)
(-3.12671e-11 2.13906e-10 0)
(-5.63877e-11 1.33439e-10 0)
(9.21273e-12 -1.50602e-10 0)
(-1.25259e-11 8.48698e-11 0)
(5.77434e-12 2.08052e-10 0)
(7.00293e-11 4.27732e-10 0)
(-1.13571e-12 3.38096e-10 0)
(1.17789e-11 4.65342e-10 0)
(-1.55831e-10 2.70804e-10 0)
(6.66099e-11 3.38964e-10 0)
(-4.72236e-10 -1.9083e-10 0)
(5.00782e-11 4.69261e-11 0)
(2.833e-10 -5.56064e-11 0)
(8.68515e-11 -2.57914e-10 0)
(2.66975e-10 -1.37689e-10 0)
(3.02885e-10 4.28897e-11 0)
(9.40314e-11 2.35034e-10 0)
(-2.08765e-11 3.23411e-10 0)
(-2.92664e-11 4.3158e-10 0)
(-4.79024e-11 3.89332e-10 0)
(-1.78428e-11 3.35551e-10 0)
(-7.14273e-11 1.57953e-10 0)
(-2.75662e-11 -2.4701e-10 0)
(-3.37976e-12 6.38859e-11 0)
(2.63996e-11 1.72156e-10 0)
(-4.72306e-12 2.97878e-10 0)
(1.91404e-11 4.45811e-10 0)
(-1.01214e-10 3.51635e-10 0)
(1.97623e-11 4.91635e-10 0)
(-8.00439e-11 2.84117e-10 0)
(-9.43219e-11 1.65917e-10 0)
(2.15185e-10 2.33547e-10 0)
(-5.2467e-11 -1.74781e-10 0)
(2.20427e-11 -2.31618e-10 0)
(2.05366e-10 -1.00072e-10 0)
(6.49076e-11 -6.01415e-11 0)
(-8.97996e-11 1.31762e-10 0)
(-8.73373e-11 3.27187e-10 0)
(2.52719e-11 5.02916e-10 0)
(1.13887e-10 4.71813e-10 0)
(1.33435e-10 3.88266e-10 0)
(6.74568e-11 2.1188e-10 0)
(1.59184e-11 -2.13107e-10 0)
(-4.70274e-12 1.26534e-11 0)
(4.13312e-11 1.8334e-10 0)
(-2.1949e-11 2.4773e-10 0)
(3.33311e-11 5.03628e-10 0)
(-1.03407e-10 4.4392e-10 0)
(3.04303e-11 5.50273e-10 0)
(-1.73748e-10 2.96645e-10 0)
(4.535e-11 2.6522e-10 0)
(-3.29636e-11 -9.63778e-12 0)
(-1.20368e-10 -2.8732e-10 0)
(2.10246e-10 -2.45469e-10 0)
(1.10157e-10 -2.09886e-10 0)
(-4.86245e-11 -1.12644e-10 0)
(3.2837e-11 2.07691e-10 0)
(4.7317e-11 4.97091e-10 0)
(3.20789e-11 7.31308e-10 0)
(7.91412e-11 6.19202e-10 0)
(9.89973e-11 4.12086e-10 0)
(-1.74889e-11 1.60592e-10 0)
(-5.61383e-11 -2.90871e-10 0)
(1.45091e-11 1.47096e-11 0)
(3.96201e-11 1.49232e-10 0)
(2.48995e-12 3.10213e-10 0)
(4.79319e-12 4.05475e-10 0)
(-2.303e-11 5.10214e-10 0)
(5.7882e-12 4.74786e-10 0)
(-5.41049e-11 3.76038e-10 0)
(5.97779e-11 2.87613e-10 0)
(-8.03123e-11 -4.58136e-11 0)
(-5.22704e-12 -1.20545e-10 0)
(8.7774e-11 -2.41854e-10 0)
(-8.1549e-11 -2.90339e-10 0)
(-4.16292e-11 -3.53889e-11 0)
(1.42583e-10 2.82253e-10 0)
(1.36443e-10 4.84612e-10 0)
(4.50307e-11 7.55092e-10 0)
(3.21044e-11 6.80665e-10 0)
(5.16222e-11 4.20263e-10 0)
(1.4903e-11 1.39375e-10 0)
(-3.17342e-11 -3.03227e-10 0)
(-1.13629e-11 6.5074e-11 0)
(-1.22477e-11 1.32775e-10 0)
(4.15115e-11 3.32407e-10 0)
(1.52184e-12 3.71316e-10 0)
(5.75354e-11 5.04199e-10 0)
(-1.42432e-12 4.45596e-10 0)
(8.45709e-11 3.94166e-10 0)
(-8.21812e-12 2.29864e-10 0)
(-1.42337e-11 -4.36637e-11 0)
(1.23199e-12 -1.18754e-10 0)
(-1.32529e-10 -2.64746e-10 0)
(-1.56556e-11 -2.30675e-10 0)
(1.07576e-10 8.28763e-11 0)
(8.55518e-11 3.73388e-10 0)
(1.41406e-10 5.11151e-10 0)
(1.58172e-10 7.36829e-10 0)
(1.25154e-11 6.48427e-10 0)
(-1.00797e-10 3.89446e-10 0)
(-1.13739e-10 8.84488e-11 0)
(-4.95016e-11 -3.47744e-10 0)
(-2.55164e-11 6.55174e-11 0)
(-5.49197e-11 2.04596e-10 0)
(2.77204e-11 2.78243e-10 0)
(-1.42492e-11 4.16913e-10 0)
(7.56375e-11 4.47095e-10 0)
(-1.01516e-11 4.85409e-10 0)
(1.18667e-10 3.65737e-10 0)
(-2.30288e-11 2.02354e-10 0)
(2.2942e-11 1.55379e-11 0)
(2.68328e-11 -1.85032e-10 0)
(-1.81393e-10 -1.80321e-10 0)
(-7.42675e-12 -9.13651e-11 0)
(9.40369e-11 4.55119e-11 0)
(-1.81506e-11 3.48998e-10 0)
(4.78432e-11 5.5528e-10 0)
(1.07281e-10 6.77755e-10 0)
(-3.89109e-11 5.17425e-10 0)
(-1.58689e-10 3.33128e-10 0)
(-7.91771e-11 1.07665e-10 0)
(2.86706e-11 -3.28743e-10 0)
(9.93608e-12 4.82518e-11 0)
(-4.02048e-11 2.02919e-10 0)
(-4.38077e-11 2.86136e-10 0)
(-4.64658e-11 4.71286e-10 0)
(2.94391e-11 4.39558e-10 0)
(1.07773e-11 4.94541e-10 0)
(4.86626e-11 3.47784e-10 0)
(5.82261e-11 1.38132e-10 0)
(-5.28424e-11 6.70631e-11 0)
(2.92431e-11 -2.29265e-10 0)
(-6.10225e-11 -1.77375e-10 0)
(-1.71627e-10 -1.04368e-11 0)
(-7.65058e-11 3.8874e-11 0)
(3.11801e-11 2.95376e-10 0)
(3.07175e-11 4.9323e-10 0)
(-4.33455e-11 5.66147e-10 0)
(-1.03324e-10 4.33482e-10 0)
(-9.71766e-11 3.52078e-10 0)
(-3.26647e-11 1.89768e-10 0)
(3.27217e-11 -2.71152e-10 0)
(1.58347e-11 1.04975e-11 0)
(-3.20496e-12 1.33183e-10 0)
(-8.10928e-11 3.81817e-10 0)
(-1.72434e-11 4.28458e-10 0)
(-6.87213e-11 5.38715e-10 0)
(5.02133e-11 4.29996e-10 0)
(-8.30747e-11 3.85079e-10 0)
(1.77859e-10 1.35725e-11 0)
(-1.7118e-11 -3.66865e-11 0)
(-3.80498e-11 -2.28549e-10 0)
(1.42065e-10 -3.30308e-10 0)
(-1.50346e-10 -1.20275e-10 0)
(-3.01805e-10 1.20108e-10 0)
(-1.44352e-10 3.63312e-10 0)
(-1.03085e-10 4.60892e-10 0)
(-1.16398e-10 5.44987e-10 0)
(-1.48007e-11 4.69903e-10 0)
(5.40114e-11 4.06291e-10 0)
(1.02075e-10 2.09595e-10 0)
(6.86178e-11 -2.68735e-10 0)
(3.55183e-11 -2.36892e-11 0)
(4.17234e-11 1.34174e-10 0)
(-4.4763e-11 3.47305e-10 0)
(4.52575e-11 3.27329e-10 0)
(-1.07685e-10 5.76173e-10 0)
(6.42842e-11 3.31716e-10 0)
(-1.53638e-10 4.47021e-10 0)
(6.75444e-11 1.09811e-10 0)
(1.93456e-10 -1.37131e-10 0)
(-1.14497e-10 -7.54856e-11 0)
(9.20792e-11 -2.50712e-10 0)
(1.01823e-10 -2.3289e-10 0)
(-1.51778e-10 5.36623e-11 0)
(-2.42935e-10 3.14e-10 0)
(-2.12154e-10 3.96117e-10 0)
(-1.13141e-10 5.15948e-10 0)
(2.60796e-11 4.75377e-10 0)
(5.94933e-11 3.92553e-10 0)
(5.50622e-11 2.3628e-10 0)
(1.12776e-11 -1.91703e-10 0)
(3.39346e-11 3.24735e-11 0)
(3.49601e-11 1.95245e-10 0)
(3.78684e-12 2.4811e-10 0)
(3.73409e-11 4.07781e-10 0)
(-3.52264e-12 4.72199e-10 0)
(4.12501e-11 3.95334e-10 0)
(8.26154e-11 3.35553e-10 0)
(-1.91092e-10 3.34294e-10 0)
(3.57964e-10 -2.91777e-10 0)
(1.43188e-10 -2.98276e-10 0)
(-1.14812e-10 -2.76913e-10 0)
(-5.49465e-12 -2.88019e-10 0)
(-1.22856e-10 -5.1085e-11 0)
(-3.03158e-10 2.7633e-10 0)
(-2.73339e-10 4.5886e-10 0)
(-9.27738e-11 6.06879e-10 0)
(1.00989e-10 4.93814e-10 0)
(1.5348e-10 3.37065e-10 0)
(1.86322e-10 1.44247e-10 0)
(2.498e-11 -2.44508e-10 0)
(3.88581e-12 1.46435e-10 0)
(2.14844e-12 1.60869e-10 0)
(6.28032e-11 7.34202e-11 0)
(5.98063e-13 3.13277e-10 0)
(1.37989e-10 7.60137e-11 0)
(-1.69275e-10 5.29545e-10 0)
(3.31202e-10 2.14561e-11 0)
(-5.14139e-10 5.88961e-10 0)
(-2.35573e-10 2.09446e-10 0)
(2.37935e-10 -2.34007e-10 0)
(-1.85698e-11 -2.07023e-10 0)
(7.99171e-12 -1.99143e-10 0)
(1.91203e-11 -1.1813e-10 0)
(-1.21738e-10 1.12172e-10 0)
(-1.77755e-10 3.0465e-10 0)
(-1.19288e-10 4.48657e-10 0)
(5.53672e-12 3.7534e-10 0)
(6.29538e-11 2.31284e-10 0)
(9.3533e-11 7.81354e-11 0)
(-3.94862e-11 -1.8737e-10 0)
(-6.11794e-11 2.45213e-10 0)
(-1.28907e-10 1.93533e-10 0)
(-2.63738e-11 1.42875e-10 0)
(-8.04045e-11 3.81125e-10 0)
(2.65565e-10 8.9986e-11 0)
(-1.29832e-10 5.48373e-10 0)
(4.36013e-10 -2.14571e-10 0)
(5.52648e-10 1.63056e-10 0)
(-7.02077e-10 6.01369e-10 0)
(-2.13235e-10 4.46504e-11 0)
(-7.15225e-11 -1.82961e-10 0)
(-1.22089e-10 -1.81675e-10 0)
(-7.17083e-11 -1.1021e-10 0)
(-9.84812e-11 7.96654e-11 0)
(-1.51651e-10 2.37166e-10 0)
(-1.43878e-10 3.68592e-10 0)
(-3.13959e-11 3.11152e-10 0)
(3.34914e-11 1.82908e-10 0)
(9.87776e-11 2.30446e-11 0)
(2.56013e-11 -2.03827e-10 0)
(-1.19453e-10 3.3493e-11 0)
(-1.89962e-10 9.38447e-11 0)
(-6.95564e-11 2.41951e-10 0)
(-6.94144e-11 2.11465e-10 0)
(1.70945e-10 4.00284e-10 0)
(-2.69388e-11 -1.68021e-10 0)
(-5.36437e-11 -7.50474e-10 0)
(1.06516e-09 -2.83559e-10 0)
(-1.29125e-10 1.59625e-10 0)
(-7.28297e-10 7.38653e-11 0)
(-4.11688e-10 -9.52475e-11 0)
(-2.36112e-10 -5.17873e-11 0)
(-1.07085e-10 5.33884e-12 0)
(-5.58287e-11 8.35746e-11 0)
(-8.69929e-11 1.44947e-10 0)
(-9.14961e-11 2.3521e-10 0)
(-2.61708e-12 2.08544e-10 0)
(2.63146e-11 1.27309e-10 0)
(1.43397e-10 1.82763e-12 0)
(7.48476e-11 -1.65623e-10 0)
(-3.64603e-11 -2.069e-10 0)
(-5.86831e-11 5.68061e-11 0)
(-4.65891e-11 2.96371e-10 0)
(7.99744e-11 -1.98667e-10 0)
(-2.35321e-10 3.63278e-10 0)
(4.51886e-10 -1.14815e-10 0)
(-2.01212e-10 1.99799e-09 0)
(4.15207e-09 -4.47034e-10 0)
(2.15978e-10 -8.51403e-10 0)
(-4.40671e-10 6.51928e-12 0)
(-2.58958e-10 3.17572e-10 0)
(-1.8307e-10 3.01711e-10 0)
(-2.06932e-10 1.39837e-10 0)
(-1.85833e-10 1.33427e-11 0)
(-1.40621e-10 -2.03584e-11 0)
(-9.3314e-11 2.44932e-11 0)
(-2.16906e-11 6.09584e-11 0)
(5.43134e-12 5.49439e-11 0)
(1.13754e-10 4.30143e-11 0)
(9.04626e-11 -1.55903e-11 0)
(1.74449e-10 -9.87334e-11 0)
(1.13818e-10 1.12016e-10 0)
(-1.26832e-10 2.43362e-10 0)
(4.87299e-13 -7.82998e-11 0)
(1.80323e-12 1.80094e-10 0)
(5.10267e-11 3.30149e-10 0)
(-1.00217e-10 2.61677e-09 0)
(-4.86983e-09 -3.86445e-10 0)
(7.03713e-10 -8.47768e-10 0)
(1.03028e-09 -1.27811e-10 0)
(1.57047e-10 1.81052e-10 0)
(-3.85835e-10 1.78764e-10 0)
(-5.19079e-10 1.0365e-10 0)
(-3.47173e-10 8.1948e-11 0)
(-1.47387e-10 9.28954e-11 0)
(-4.15713e-11 1.25637e-10 0)
(2.03132e-11 9.36698e-11 0)
(2.39142e-11 6.23059e-11 0)
(1.32284e-10 -1.46652e-12 0)
(7.95203e-11 -8.90253e-11 0)
)
;

boundaryField
{
    sides
    {
        type            calculated;
        value           nonuniform List<vector> 
40
(
(1.74449e-10 0 0)
(1.13818e-10 0 0)
(-1.26832e-10 0 0)
(4.87299e-13 0 0)
(1.80323e-12 0 0)
(5.10267e-11 0 0)
(-1.00217e-10 0 0)
(-4.86983e-09 0 0)
(7.03713e-10 0 0)
(1.03028e-09 0 0)
(1.57047e-10 0 0)
(-3.85835e-10 0 0)
(-5.19079e-10 0 0)
(-3.47173e-10 0 0)
(-1.47387e-10 0 0)
(-4.15713e-11 0 0)
(2.03132e-11 0 0)
(2.39142e-11 0 0)
(1.32284e-10 0 0)
(7.95203e-11 0 0)
(1.10065e-10 0 0)
(1.28566e-10 0 0)
(-1.05212e-10 0 0)
(-6.16838e-11 0 0)
(4.34773e-10 0 0)
(-1.62123e-09 0 0)
(-2.51432e-09 0 0)
(-1.70469e-09 0 0)
(1.65514e-09 0 0)
(1.25097e-09 0 0)
(3.58866e-10 0 0)
(-1.16516e-10 0 0)
(-1.86199e-10 0 0)
(-4.92959e-14 0 0)
(1.79593e-10 0 0)
(2.01704e-10 0 0)
(7.68829e-11 0 0)
(-4.917e-13 0 0)
(-1.34052e-10 0 0)
(-9.07272e-11 0 0)
)
;
    }
    inlet
    {
        type            calculated;
        value           uniform (0 0 0);
    }
    outlet
    {
        type            calculated;
        value           nonuniform List<vector> 
20
(
(-9.07272e-11 -1.0259e-10 0)
(-7.65438e-11 -3.96171e-11 0)
(-5.51629e-11 -1.64892e-10 0)
(-3.42976e-11 -1.65053e-10 0)
(9.21273e-12 -1.50602e-10 0)
(-2.75662e-11 -2.4701e-10 0)
(1.59184e-11 -2.13107e-10 0)
(-5.61383e-11 -2.90871e-10 0)
(-3.17342e-11 -3.03227e-10 0)
(-4.95016e-11 -3.47744e-10 0)
(2.86706e-11 -3.28743e-10 0)
(3.27217e-11 -2.71152e-10 0)
(6.86178e-11 -2.68735e-10 0)
(1.12776e-11 -1.91703e-10 0)
(2.498e-11 -2.44508e-10 0)
(-3.94862e-11 -1.8737e-10 0)
(2.56013e-11 -2.03827e-10 0)
(7.48476e-11 -1.65623e-10 0)
(9.04626e-11 -1.55903e-11 0)
(7.95203e-11 -8.90253e-11 0)
)
;
    }
    frontAndBack
    {
        type            empty;
    }
}


// ************************************************************************* //
