/*--------------------------------*- C++ -*----------------------------------*\
  =========                 |
  \\      /  F ield         | OpenFOAM: The Open Source CFD Toolbox
   \\    /   O peration     | Website:  https://openfoam.org
    \\  /    A nd           | Version:  7
     \\/     M anipulation  |
\*---------------------------------------------------------------------------*/
FoamFile
{
    version     2.0;
    format      ascii;
    class       surfaceScalarField;
    location    "69";
    object      phi;
}
// * * * * * * * * * * * * * * * * * * * * * * * * * * * * * * * * * * * * * //

dimensions      [0 4 -1 0 0 0 0];

internalField   nonuniform List<scalar> 
760
(
4.99999e-06
1.00815e-11
4.99999e-06
-4.41219e-12
5.00001e-06
-1.29071e-11
5.00003e-06
-1.92384e-11
5.00005e-06
-2.65815e-11
5.00009e-06
-3.75573e-11
5.00013e-06
-4.80977e-11
5.00018e-06
-4.43069e-11
5.00025e-06
-6.2343e-11
5.00032e-06
-7.82459e-11
5.00041e-06
-9.0191e-11
5.00053e-06
-1.13884e-10
5.00066e-06
-1.2656e-10
5.00082e-06
-1.67425e-10
5.001e-06
-1.77759e-10
5.00126e-06
-2.5674e-10
5.00151e-06
-2.56331e-10
5.00195e-06
-4.31998e-10
5.00236e-06
-4.14626e-10
-8.91934e-10
5.00002e-06
-1.16755e-11
5.00004e-06
-1.88799e-11
5.00005e-06
-2.92789e-11
5.00007e-06
-4.16424e-11
5.0001e-06
-5.43098e-11
5.00014e-06
-6.8979e-11
5.00018e-06
-8.5304e-11
5.00023e-06
-1.04712e-10
5.00029e-06
-1.24149e-10
5.00037e-06
-1.53532e-10
5.00045e-06
-1.77006e-10
5.00056e-06
-2.21625e-10
5.00069e-06
-2.49539e-10
5.00084e-06
-3.23335e-10
5.00102e-06
-3.53328e-10
5.00125e-06
-4.85877e-10
5.0015e-06
-5.09546e-10
5.00184e-06
-7.68437e-10
5.00218e-06
-7.6089e-10
-1.26265e-09
4.99999e-06
-4.50131e-12
4.99999e-06
-2.01484e-11
5e-06
-3.7499e-11
5.00002e-06
-5.66625e-11
5.00004e-06
-7.66839e-11
5.00007e-06
-9.94488e-11
5.00011e-06
-1.23352e-10
5.00016e-06
-1.53233e-10
5.00021e-06
-1.8327e-10
5.00029e-06
-2.24229e-10
5.00037e-06
-2.62099e-10
5.00047e-06
-3.22485e-10
5.00059e-06
-3.70715e-10
5.00074e-06
-4.66318e-10
5.00091e-06
-5.24889e-10
5.00111e-06
-6.86476e-10
5.00135e-06
-7.48487e-10
5.00162e-06
-1.04201e-09
5.00195e-06
-1.08476e-09
-1.69058e-09
5.00001e-06
-1.24533e-11
5.00002e-06
-3.29678e-11
5.00004e-06
-5.4028e-11
5.00006e-06
-7.75404e-11
5.00008e-06
-1.02173e-10
5.00011e-06
-1.31189e-10
5.00015e-06
-1.61113e-10
5.0002e-06
-1.99032e-10
5.00025e-06
-2.37319e-10
5.00032e-06
-2.89213e-10
5.00039e-06
-3.37967e-10
5.00049e-06
-4.14197e-10
5.00059e-06
-4.76736e-10
5.00072e-06
-5.94837e-10
5.00087e-06
-6.7164e-10
5.00105e-06
-8.64659e-10
5.00124e-06
-9.47611e-10
5.00148e-06
-1.28107e-09
5.00173e-06
-1.33342e-09
-1.89935e-09
5e-06
-1.14413e-11
5e-06
-3.60938e-11
5.00001e-06
-6.16775e-11
5.00002e-06
-9.00393e-11
5.00004e-06
-1.20256e-10
5.00006e-06
-1.55366e-10
5.0001e-06
-1.92487e-10
5.00013e-06
-2.37861e-10
5.00018e-06
-2.84628e-10
5.00024e-06
-3.45894e-10
5.00031e-06
-4.06343e-10
5.00039e-06
-4.94458e-10
5.00048e-06
-5.7238e-10
5.00059e-06
-7.05438e-10
5.00072e-06
-8.02148e-10
5.00087e-06
-1.01204e-09
5.00104e-06
-1.11727e-09
5.00122e-06
-1.46279e-09
5.00142e-06
-1.53514e-09
-2.16441e-09
5e-06
-1.36406e-11
5.00001e-06
-4.27329e-11
5.00002e-06
-7.24779e-11
5.00003e-06
-1.04796e-10
5.00005e-06
-1.39262e-10
5.00008e-06
-1.78877e-10
5.00011e-06
-2.21306e-10
5.00014e-06
-2.72539e-10
5.00018e-06
-3.25792e-10
5.00023e-06
-3.95163e-10
5.00029e-06
-4.63829e-10
5.00036e-06
-5.62438e-10
5.00043e-06
-6.50898e-10
5.00053e-06
-7.97792e-10
5.00063e-06
-9.07019e-10
5.00075e-06
-1.13378e-09
5.00089e-06
-1.25204e-09
5.00104e-06
-1.61736e-09
5.00121e-06
-1.70006e-09
-2.29541e-09
5e-06
-1.54592e-11
5.00001e-06
-4.71792e-11
5.00001e-06
-7.98314e-11
5.00002e-06
-1.14836e-10
5.00004e-06
-1.52554e-10
5.00005e-06
-1.95926e-10
5.00008e-06
-2.42757e-10
5.0001e-06
-2.98793e-10
5.00013e-06
-3.57882e-10
5.00017e-06
-4.33466e-10
5.00022e-06
-5.09344e-10
5.00027e-06
-6.15777e-10
5.00033e-06
-7.13445e-10
5.00041e-06
-8.69712e-10
5.00049e-06
-9.89949e-10
5.00058e-06
-1.22688e-09
5.00069e-06
-1.35639e-09
5.0008e-06
-1.72804e-09
5.00091e-06
-1.81513e-09
-2.44414e-09
5e-06
-1.65632e-11
5e-06
-5.02007e-11
5.00001e-06
-8.48162e-11
5.00002e-06
-1.22376e-10
5.00003e-06
-1.6269e-10
5.00004e-06
-2.09069e-10
5.00006e-06
-2.59094e-10
5.00008e-06
-3.18813e-10
5.0001e-06
-3.81931e-10
5.00013e-06
-4.61932e-10
5.00016e-06
-5.42775e-10
5.0002e-06
-6.54921e-10
5.00025e-06
-7.58573e-10
5.0003e-06
-9.21819e-10
5.00036e-06
-1.04898e-09
5.00042e-06
-1.29351e-09
5.0005e-06
-1.42951e-09
5.00058e-06
-1.80896e-09
5.00067e-06
-1.90375e-09
-2.51844e-09
5e-06
-1.71207e-11
5e-06
-5.20315e-11
5.00001e-06
-8.79213e-11
5.00001e-06
-1.27142e-10
5.00002e-06
-1.69121e-10
5.00002e-06
-2.1726e-10
5.00003e-06
-2.69085e-10
5.00005e-06
-3.30925e-10
5.00006e-06
-3.9635e-10
5.00008e-06
-4.78987e-10
5.0001e-06
-5.62867e-10
5.00012e-06
-6.78351e-10
5.00015e-06
-7.85666e-10
5.00018e-06
-9.53008e-10
5.00022e-06
-1.08442e-09
5.00026e-06
-1.33324e-09
5.0003e-06
-1.47333e-09
5.00035e-06
-1.85615e-09
5.00039e-06
-1.95121e-09
-2.57448e-09
5e-06
-1.72645e-11
5e-06
-5.25995e-11
5e-06
-8.90385e-11
5e-06
-1.2879e-10
5.00001e-06
-1.71362e-10
5.00001e-06
-2.20021e-10
5.00001e-06
-2.72461e-10
5.00002e-06
-3.34978e-10
5.00002e-06
-4.01179e-10
5.00003e-06
-4.84732e-10
5.00003e-06
-5.69577e-10
5.00004e-06
-6.86162e-10
5.00005e-06
-7.94783e-10
5.00006e-06
-9.63413e-10
5.00007e-06
-1.09625e-09
5.00009e-06
-1.34643e-09
5.0001e-06
-1.4879e-09
5.00011e-06
-1.87149e-09
5.00013e-06
-1.96845e-09
-2.59079e-09
5e-06
-1.70534e-11
5e-06
-5.19319e-11
5e-06
-8.79825e-11
5e-06
-1.27168e-10
4.99999e-06
-1.69255e-10
4.99999e-06
-2.17321e-10
4.99999e-06
-2.69196e-10
4.99998e-06
-3.30989e-10
4.99998e-06
-3.96353e-10
4.99997e-06
-4.79028e-10
4.99997e-06
-5.62773e-10
4.99996e-06
-6.78272e-10
4.99995e-06
-7.85758e-10
4.99994e-06
-9.53081e-10
4.99993e-06
-1.08445e-09
4.99991e-06
-1.33331e-09
4.9999e-06
-1.47341e-09
4.99988e-06
-1.85608e-09
4.99987e-06
-1.95108e-09
-2.5743e-09
5e-06
-1.64834e-11
5e-06
-5.01753e-11
4.99999e-06
-8.48036e-11
4.99999e-06
-1.22381e-10
4.99998e-06
-1.62785e-10
4.99998e-06
-2.09156e-10
4.99997e-06
-2.59181e-10
4.99995e-06
-3.1893e-10
4.99994e-06
-3.81913e-10
4.99992e-06
-4.61941e-10
4.9999e-06
-5.42705e-10
4.99988e-06
-6.54774e-10
4.99985e-06
-7.58546e-10
4.99982e-06
-9.2186e-10
4.99978e-06
-1.04905e-09
4.99974e-06
-1.29358e-09
4.9997e-06
-1.42955e-09
4.99965e-06
-1.8088e-09
4.99961e-06
-1.90353e-09
-2.51818e-09
5e-06
-1.55018e-11
5e-06
-4.72104e-11
4.99999e-06
-7.97239e-11
4.99998e-06
-1.14883e-10
4.99997e-06
-1.52486e-10
4.99996e-06
-1.95994e-10
4.99994e-06
-2.42695e-10
4.99992e-06
-2.98888e-10
4.9999e-06
-3.57905e-10
4.99987e-06
-4.33367e-10
4.99984e-06
-5.09318e-10
4.9998e-06
-6.15686e-10
4.99975e-06
-7.13308e-10
4.9997e-06
-8.69616e-10
4.99964e-06
-9.89954e-10
4.99958e-06
-1.22684e-09
4.9995e-06
-1.35636e-09
4.99942e-06
-1.72785e-09
4.99933e-06
-1.81494e-09
-2.44376e-09
5e-06
-1.37451e-11
4.99999e-06
-4.27619e-11
4.99999e-06
-7.25046e-11
4.99998e-06
-1.04819e-10
4.99996e-06
-1.39109e-10
4.99995e-06
-1.78893e-10
4.99992e-06
-2.21185e-10
4.9999e-06
-2.72504e-10
4.99987e-06
-3.25997e-10
4.99983e-06
-3.95154e-10
4.99978e-06
-4.63792e-10
4.99973e-06
-5.62392e-10
4.99967e-06
-6.50778e-10
4.99959e-06
-7.97615e-10
4.99951e-06
-9.06893e-10
4.99942e-06
-1.13359e-09
4.99931e-06
-1.25193e-09
4.9992e-06
-1.61714e-09
4.99909e-06
-1.69988e-09
-2.295e-09
5e-06
-1.14727e-11
4.99999e-06
-3.61221e-11
4.99998e-06
-6.18136e-11
4.99997e-06
-8.99759e-11
4.99995e-06
-1.20283e-10
4.99992e-06
-1.55193e-10
4.99989e-06
-1.92471e-10
4.99986e-06
-2.3752e-10
4.99982e-06
-2.84755e-10
4.99977e-06
-3.46157e-10
4.99971e-06
-4.06497e-10
4.99964e-06
-4.94523e-10
4.99957e-06
-5.72378e-10
4.99947e-06
-7.05305e-10
4.99937e-06
-8.02016e-10
4.99925e-06
-1.01181e-09
4.99911e-06
-1.11715e-09
4.99896e-06
-1.46257e-09
4.99879e-06
-1.53503e-09
-2.16399e-09
5e-06
-1.23803e-11
5e-06
-3.30004e-11
4.99999e-06
-5.41306e-11
4.99998e-06
-7.74399e-11
4.99996e-06
-1.02233e-10
4.99994e-06
-1.30886e-10
4.9999e-06
-1.61389e-10
4.99987e-06
-1.98791e-10
4.99982e-06
-2.36965e-10
4.99976e-06
-2.89323e-10
4.99969e-06
-3.38194e-10
4.99961e-06
-4.14354e-10
4.99952e-06
-4.7684e-10
4.99941e-06
-5.94774e-10
4.99928e-06
-6.71554e-10
4.99913e-06
-8.64439e-10
4.99896e-06
-9.47476e-10
4.99878e-06
-1.28079e-09
4.99858e-06
-1.33328e-09
-1.89887e-09
4.99999e-06
-4.44454e-12
4.99998e-06
-2.01823e-11
4.99996e-06
-3.74496e-11
4.99994e-06
-5.66211e-11
4.99992e-06
-7.6693e-11
4.99989e-06
-9.96647e-11
4.99985e-06
-1.23779e-10
4.9998e-06
-1.53378e-10
4.99975e-06
-1.82963e-10
4.99968e-06
-2.24002e-10
4.99961e-06
-2.62154e-10
4.99951e-06
-3.22635e-10
4.99941e-06
-3.70899e-10
4.99928e-06
-4.66378e-10
4.99913e-06
-5.24943e-10
4.99896e-06
-6.86377e-10
4.99876e-06
-7.48461e-10
4.99852e-06
-1.04179e-09
4.99827e-06
-1.08469e-09
-1.6902e-09
5.00001e-06
-1.17174e-11
5.00001e-06
-1.88072e-11
5e-06
-2.90114e-11
4.99998e-06
-4.17402e-11
4.99996e-06
-5.43755e-11
4.99993e-06
-6.99996e-11
4.99989e-06
-8.43264e-11
4.99984e-06
-1.05183e-10
4.99978e-06
-1.24059e-10
4.99971e-06
-1.53179e-10
4.99963e-06
-1.7675e-10
4.99953e-06
-2.21484e-10
4.99941e-06
-2.49573e-10
4.99926e-06
-3.23349e-10
4.99909e-06
-3.53422e-10
4.99889e-06
-4.85797e-10
4.99865e-06
-5.09567e-10
4.99838e-06
-7.6817e-10
4.99805e-06
-7.60756e-10
-1.26216e-09
4.99998e-06
9.98187e-12
4.99996e-06
-4.26909e-12
4.99995e-06
-1.2723e-11
4.99993e-06
-1.96658e-11
4.9999e-06
-2.68244e-11
4.99986e-06
-3.31805e-11
4.99982e-06
-3.46439e-11
4.99977e-06
-4.72199e-11
4.99971e-06
-6.28696e-11
4.99963e-06
-7.82054e-11
4.99955e-06
-8.98967e-11
4.99944e-06
-1.13657e-10
4.99931e-06
-1.26577e-10
4.99916e-06
-1.67556e-10
4.99898e-06
-1.77953e-10
4.99875e-06
-2.56846e-10
4.9985e-06
-2.56459e-10
4.99817e-06
-4.32001e-10
4.99782e-06
-4.14665e-10
-8.91916e-10
5.00001e-06
5.00001e-06
4.99999e-06
4.99997e-06
4.99995e-06
4.99991e-06
4.99987e-06
4.99982e-06
4.99975e-06
4.99968e-06
4.99958e-06
4.99947e-06
4.99934e-06
4.99918e-06
4.999e-06
4.99874e-06
4.99849e-06
4.99805e-06
4.99764e-06
)
;

boundaryField
{
    sides
    {
        type            calculated;
        value           uniform 0;
    }
    inlet
    {
        type            calculated;
        value           nonuniform List<scalar> 
20
(
-5e-06
-5e-06
-5e-06
-5e-06
-5e-06
-5e-06
-5e-06
-5e-06
-5e-06
-5e-06
-5e-06
-5e-06
-5e-06
-5e-06
-5e-06
-5e-06
-5e-06
-5e-06
-5e-06
-5e-06
)
;
    }
    outlet
    {
        type            calculated;
        value           nonuniform List<scalar> 
20
(
5.00325e-06
5.00255e-06
5.00237e-06
5.00194e-06
5.00169e-06
5.00134e-06
5.00106e-06
5.00074e-06
5.00045e-06
5.00015e-06
4.99985e-06
4.99955e-06
4.99926e-06
4.99894e-06
4.99866e-06
4.99831e-06
4.99806e-06
4.99763e-06
4.99745e-06
4.99675e-06
)
;
    }
    frontAndBack
    {
        type            empty;
        value           nonuniform 0();
    }
}


// ************************************************************************* //
