/*--------------------------------*- C++ -*----------------------------------*\
  =========                 |
  \\      /  F ield         | OpenFOAM: The Open Source CFD Toolbox
   \\    /   O peration     | Website:  https://openfoam.org
    \\  /    A nd           | Version:  7
     \\/     M anipulation  |
\*---------------------------------------------------------------------------*/
FoamFile
{
    version     2.0;
    format      ascii;
    class       volVectorField;
    location    "79";
    object      ddt0(hU);
}
// * * * * * * * * * * * * * * * * * * * * * * * * * * * * * * * * * * * * * //

dimensions      [0 2 -2 0 0 0 0];

internalField   nonuniform List<vector> 
400
(
(2.34178e-11 5.55954e-11 0)
(1.48654e-10 -1.42605e-10 0)
(-8.92738e-11 -3.62535e-11 0)
(-1.51459e-10 1.74086e-10 0)
(-2.45045e-11 1.39414e-10 0)
(8.67988e-10 7.06191e-11 0)
(-1.27566e-09 -5.19189e-10 0)
(-9.48172e-10 6.88909e-10 0)
(9.81788e-10 6.5549e-10 0)
(8.0091e-10 -1.78985e-11 0)
(2.0755e-10 -1.56084e-10 0)
(-5.5685e-11 -1.44931e-10 0)
(-3.44646e-10 -6.10506e-11 0)
(-3.61667e-10 3.97657e-11 0)
(-1.11073e-10 8.84233e-11 0)
(9.65771e-11 5.82229e-11 0)
(1.43703e-10 -2.10037e-13 0)
(7.50086e-11 -4.64643e-11 0)
(3.64881e-11 -7.74622e-11 0)
(3.93414e-11 -2.3702e-11 0)
(-3.35694e-12 3.29111e-11 0)
(1.80227e-11 -1.83506e-10 0)
(-2.11465e-11 -3.52079e-12 0)
(8.16499e-11 3.41434e-10 0)
(-1.84533e-10 -3.19832e-13 0)
(-7.17301e-10 3.9943e-10 0)
(1.46347e-09 -9.97361e-10 0)
(-3.75168e-10 6.18531e-10 0)
(-1.54482e-10 7.37804e-10 0)
(-3.10405e-10 -5.20603e-11 0)
(-5.00612e-11 -1.90563e-10 0)
(2.96169e-11 -2.37411e-10 0)
(-4.19861e-11 -1.7541e-10 0)
(-5.31843e-11 1.25025e-11 0)
(6.62468e-12 1.61235e-10 0)
(3.24721e-11 1.7227e-10 0)
(1.20249e-11 8.25949e-11 0)
(-2.90582e-11 -1.51841e-11 0)
(-3.53308e-12 -8.2328e-11 0)
(5.75093e-11 -5.0578e-11 0)
(1.21069e-10 2.1208e-11 0)
(-2.10248e-11 -1.5904e-11 0)
(-2.95307e-11 -9.37859e-11 0)
(-4.77026e-11 -9.37409e-12 0)
(-1.73376e-10 -3.29709e-10 0)
(1.06316e-11 2.57828e-10 0)
(-6.42973e-10 -3.48564e-10 0)
(1.34991e-09 -6.991e-11 0)
(-1.79274e-10 -1.49537e-10 0)
(-4.55727e-10 -1.13903e-10 0)
(-1.45537e-10 5.46649e-11 0)
(-1.26573e-10 4.03657e-11 0)
(1.0421e-11 2.32794e-11 0)
(1.74806e-10 7.2971e-11 0)
(1.58599e-10 1.15364e-10 0)
(1.158e-11 6.17641e-11 0)
(-8.74428e-11 -4.46838e-11 0)
(-1.2154e-10 -1.03683e-10 0)
(-2.61708e-11 -1.48976e-10 0)
(1.01216e-10 -5.77713e-11 0)
(3.22801e-11 9.66183e-11 0)
(-8.99235e-11 5.21967e-11 0)
(-4.64247e-11 -1.4919e-10 0)
(-1.08266e-10 -2.26917e-10 0)
(7.95528e-11 -9.57792e-11 0)
(-1.06637e-10 -2.271e-10 0)
(8.84685e-11 3.57467e-10 0)
(5.24937e-10 2.99066e-11 0)
(-4.0764e-10 -4.79804e-10 0)
(-1.65926e-10 -9.60746e-11 0)
(5.59608e-11 1.06419e-10 0)
(-4.60496e-11 1.3429e-10 0)
(8.25189e-11 2.07092e-10 0)
(1.96416e-10 1.90883e-10 0)
(9.75542e-11 8.03029e-11 0)
(-8.70531e-11 -7.06789e-11 0)
(-1.55613e-10 -1.79926e-10 0)
(-1.21914e-10 -1.69758e-10 0)
(-1.43088e-11 -1.60498e-10 0)
(1.04435e-10 -5.1434e-11 0)
(-7.46955e-11 2.40581e-11 0)
(-1.47521e-10 1.88394e-11 0)
(-1.95735e-11 -3.40034e-14 0)
(-8.62028e-11 -1.68316e-10 0)
(1.66503e-10 7.75768e-11 0)
(-1.87677e-10 -4.22789e-10 0)
(3.28048e-10 1.55711e-10 0)
(-2.38321e-10 -3.1056e-10 0)
(-4.39764e-10 -3.11545e-10 0)
(2.29427e-10 1.23577e-10 0)
(4.12342e-11 1.02969e-10 0)
(4.4666e-12 1.25826e-10 0)
(1.71118e-10 2.40222e-10 0)
(1.14534e-10 1.78579e-10 0)
(-5.8418e-11 -1.01901e-11 0)
(-1.78161e-10 -1.74645e-10 0)
(-1.41953e-10 -2.3853e-10 0)
(-2.43919e-11 -1.7433e-10 0)
(8.05136e-11 -1.41469e-10 0)
(1.1281e-10 -3.98489e-11 0)
(-7.22736e-11 -6.86969e-11 0)
(-8.00945e-11 -2.08942e-11 0)
(-3.0094e-11 6.64919e-11 0)
(-4.94558e-11 -1.29218e-10 0)
(3.0023e-11 -6.42426e-11 0)
(-6.82626e-11 -2.8398e-10 0)
(1.63824e-10 -1.57542e-10 0)
(-3.5085e-10 -4.74712e-10 0)
(2.12879e-10 2.64134e-11 0)
(2.65136e-10 1.0671e-10 0)
(-8.27084e-11 5.04285e-11 0)
(1.05157e-10 1.99002e-10 0)
(1.49673e-10 2.376e-10 0)
(-1.14719e-10 8.85764e-11 0)
(-2.64072e-10 -9.67414e-11 0)
(-2.17482e-10 -2.30542e-10 0)
(-5.94178e-11 -2.5315e-10 0)
(9.29361e-11 -1.6479e-10 0)
(1.8599e-10 -1.73714e-10 0)
(1.41345e-10 -5.43317e-11 0)
(-2.95791e-11 -6.94924e-11 0)
(1.57885e-11 -1.3604e-11 0)
(-3.4322e-11 9.24912e-12 0)
(2.55242e-11 4.00775e-11 0)
(-7.61553e-11 -1.44652e-10 0)
(4.58383e-11 -3.48623e-11 0)
(-9.76724e-11 -2.29913e-10 0)
(-6.28775e-11 -1.73124e-10 0)
(2.23101e-10 8.58919e-11 0)
(-7.875e-11 -9.39125e-11 0)
(1.84078e-12 4.89788e-11 0)
(1.87037e-10 2.11138e-10 0)
(1.1606e-11 1.08311e-10 0)
(-2.36276e-10 -1.25403e-11 0)
(-2.73732e-10 -4.61556e-11 0)
(-1.17935e-10 -9.64134e-11 0)
(6.94389e-11 -1.31858e-10 0)
(1.59681e-10 -8.92146e-11 0)
(1.57044e-10 -1.62635e-10 0)
(7.37198e-11 -7.74258e-11 0)
(1.53856e-11 -3.67577e-11 0)
(6.57632e-11 1.55037e-11 0)
(-3.4202e-11 -7.31332e-11 0)
(2.96533e-11 2.26771e-11 0)
(-9.60016e-11 -1.50908e-10 0)
(3.59078e-11 -7.74647e-11 0)
(-1.58742e-10 -2.38158e-10 0)
(9.3475e-11 -5.5183e-11 0)
(1.72778e-11 -7.40188e-11 0)
(-7.05441e-11 -6.8112e-11 0)
(1.99916e-10 1.23669e-10 0)
(3.36241e-11 1.30569e-10 0)
(-1.96691e-10 3.09306e-11 0)
(-1.7384e-10 2.02038e-12 0)
(-1.34285e-10 6.29413e-11 0)
(-6.20961e-11 4.96504e-11 0)
(8.69354e-11 -4.61017e-11 0)
(1.39995e-10 -9.5822e-11 0)
(9.60729e-11 -2.1336e-10 0)
(2.21987e-11 -9.24798e-11 0)
(4.68004e-11 3.90586e-11 0)
(4.76996e-11 -2.37992e-12 0)
(-1.22307e-11 -3.69713e-11 0)
(-4.39113e-12 -1.08254e-10 0)
(-2.34353e-11 -1.02014e-10 0)
(-3.67817e-13 -1.75099e-10 0)
(-5.60745e-11 -1.85396e-10 0)
(5.69707e-11 -8.26924e-11 0)
(-6.77748e-11 -1.60303e-10 0)
(-2.80148e-12 1.09302e-11 0)
(7.64862e-11 3.1169e-11 0)
(-1.05176e-10 -2.07597e-11 0)
(-1.01666e-10 8.19746e-11 0)
(7.47045e-11 9.95847e-11 0)
(9.52669e-11 9.17581e-11 0)
(2.39696e-11 9.26246e-11 0)
(1.73068e-11 3.74106e-12 0)
(1.3948e-11 -1.04566e-10 0)
(-3.42269e-11 -2.66238e-10 0)
(-6.36919e-11 -1.26184e-10 0)
(5.68178e-12 8.02052e-11 0)
(-2.97631e-11 -1.27092e-11 0)
(2.35844e-11 -2.17489e-12 0)
(-1.52339e-11 -1.33667e-10 0)
(3.9289e-11 -1.21039e-10 0)
(-2.96979e-11 -2.25401e-10 0)
(6.57549e-11 -2.00164e-10 0)
(-2.237e-11 -1.48966e-10 0)
(-2.40325e-11 -1.46029e-10 0)
(-2.24565e-12 3.61791e-11 0)
(-1.11796e-10 3.96209e-11 0)
(1.22532e-11 4.65095e-11 0)
(1.28068e-10 1.76677e-10 0)
(1.13423e-10 1.25524e-10 0)
(1.42919e-10 1.41605e-11 0)
(1.25474e-10 -3.33322e-11 0)
(-9.28856e-12 -1.03971e-10 0)
(-1.39677e-10 -1.7713e-10 0)
(-1.60696e-10 -3.0838e-10 0)
(-8.1112e-11 -1.3413e-10 0)
(-2.14031e-11 1.92984e-11 0)
(-5.77452e-11 5.11443e-11 0)
(2.90126e-11 -3.02156e-11 0)
(-2.62909e-11 -5.72397e-11 0)
(5.06517e-11 -1.58712e-10 0)
(-3.75576e-11 -1.7242e-10 0)
(1.11139e-10 -2.1875e-10 0)
(-2.66541e-11 -1.73949e-10 0)
(-4.90876e-13 -7.82519e-11 0)
(-2.67677e-12 4.33811e-12 0)
(-1.82589e-10 1.66809e-10 0)
(1.10903e-11 2.27901e-10 0)
(1.44327e-10 1.62876e-10 0)
(7.35332e-11 6.53218e-11 0)
(1.30409e-10 -2.01467e-11 0)
(1.70284e-10 -1.52579e-10 0)
(1.67e-11 -2.76479e-10 0)
(-1.43481e-10 -2.76123e-10 0)
(-1.7258e-10 -3.12317e-10 0)
(-7.6714e-11 -1.16547e-10 0)
(1.1558e-11 -1.83371e-11 0)
(7.72519e-13 3.89211e-11 0)
(-1.74128e-12 -3.84804e-11 0)
(-2.95075e-11 -7.29111e-12 0)
(1.65068e-11 -1.50053e-10 0)
(-1.7928e-11 -1.143e-10 0)
(3.35034e-11 -1.89438e-10 0)
(4.98763e-11 -2.08501e-10 0)
(-4.80186e-11 -2.83599e-11 0)
(3.13703e-11 -4.57581e-11 0)
(-4.09296e-11 1.78432e-10 0)
(-1.47479e-10 3.396e-10 0)
(-7.10199e-11 2.20218e-10 0)
(5.47203e-11 8.81531e-11 0)
(9.06824e-11 -2.0218e-11 0)
(4.94009e-11 -2.14805e-10 0)
(-7.02992e-13 -3.50746e-10 0)
(-2.81421e-11 -2.89884e-10 0)
(-4.22611e-11 -2.80111e-10 0)
(-1.56346e-11 -9.96623e-11 0)
(3.64076e-12 -3.77234e-12 0)
(5.09656e-11 -3.50872e-11 0)
(-1.51342e-11 1.05985e-11 0)
(3.46022e-11 -8.73047e-11 0)
(-3.81918e-11 -6.9723e-11 0)
(4.61575e-11 -1.69196e-10 0)
(-1.04542e-10 -1.19624e-10 0)
(1.38495e-10 -2.73259e-10 0)
(-4.918e-11 -5.90342e-11 0)
(-3.26166e-11 9.94356e-14 0)
(1.85772e-10 5.5109e-11 0)
(-7.78912e-11 2.41854e-10 0)
(-2.37752e-10 3.20139e-10 0)
(-1.0472e-10 2.14175e-10 0)
(-4.51122e-11 1.9641e-11 0)
(-1.72345e-11 -1.9044e-10 0)
(6.69667e-11 -2.9624e-10 0)
(1.17294e-10 -2.36771e-10 0)
(6.4077e-11 -2.45092e-10 0)
(2.97649e-12 -8.15941e-11 0)
(-1.68291e-11 8.4882e-12 0)
(5.65938e-11 -4.37491e-11 0)
(7.23192e-12 -1.35402e-11 0)
(9.87406e-11 -1.37272e-10 0)
(-7.20087e-11 2.94869e-11 0)
(9.49483e-11 -2.46201e-10 0)
(-1.54724e-10 -3.57872e-11 0)
(8.09269e-11 -2.35704e-10 0)
(1.61432e-10 -2.40076e-10 0)
(-1.2672e-10 3.5974e-11 0)
(1.34693e-10 -2.62382e-11 0)
(1.82854e-10 -9.86208e-12 0)
(-7.183e-11 1.94066e-10 0)
(-2.20163e-10 2.38632e-10 0)
(-2.22405e-10 1.30773e-10 0)
(-9.44451e-11 -1.24754e-11 0)
(6.74477e-11 -1.33057e-10 0)
(1.53065e-10 -1.47308e-10 0)
(1.39095e-10 -1.96232e-10 0)
(4.18141e-11 -7.4678e-11 0)
(-4.42406e-11 2.50852e-11 0)
(1.20177e-11 -2.61461e-11 0)
(6.86318e-11 -1.11741e-10 0)
(1.09423e-10 -7.72848e-11 0)
(2.01381e-11 -1.37269e-10 0)
(3.92552e-11 -2.23733e-10 0)
(-3.02283e-12 -1.57521e-10 0)
(-3.05633e-10 3.09656e-11 0)
(2.80462e-10 -3.65364e-10 0)
(3.36231e-11 -7.64002e-11 0)
(-1.01662e-10 5.0513e-11 0)
(2.08087e-10 -4.08513e-11 0)
(2.12265e-10 2.97003e-11 0)
(-2.60612e-11 1.18011e-10 0)
(-1.44472e-10 1.52286e-10 0)
(-9.25721e-11 8.51989e-11 0)
(-6.99409e-12 -5.0949e-11 0)
(8.48893e-11 -1.19193e-10 0)
(7.9213e-11 -2.00348e-10 0)
(-3.8269e-11 -7.37703e-11 0)
(-5.47448e-11 2.41056e-11 0)
(-5.05141e-11 -8.7419e-13 0)
(8.71941e-11 -5.31556e-11 0)
(1.78977e-11 7.32825e-11 0)
(1.44663e-10 -2.89016e-10 0)
(-1.42157e-10 1.40876e-10 0)
(3.59496e-10 -3.68237e-10 0)
(-5.56675e-10 3.01668e-10 0)
(-1.87508e-10 3.70709e-11 0)
(2.88195e-10 -1.73374e-10 0)
(-5.88678e-11 2.91608e-11 0)
(7.40449e-11 -3.0839e-12 0)
(2.71087e-10 -8.51543e-11 0)
(1.76595e-10 -5.166e-11 0)
(6.23749e-12 5.58284e-11 0)
(-9.27389e-11 8.52878e-11 0)
(-1.02426e-10 1.11936e-11 0)
(-2.32569e-11 -5.9045e-11 0)
(-4.50699e-12 -1.68791e-10 0)
(-6.97606e-11 -8.76946e-11 0)
(-3.88487e-12 -1.03422e-12 0)
(-5.99562e-11 -4.37924e-11 0)
(7.02437e-11 -2.0084e-12 0)
(-4.99756e-11 5.6277e-11 0)
(2.22881e-10 -3.30152e-10 0)
(-1.98473e-10 1.87912e-10 0)
(3.74272e-10 -7.76127e-10 0)
(3.52193e-10 3.70573e-12 0)
(-7.33314e-10 3.84842e-10 0)
(-1.16043e-10 2.10557e-11 0)
(-3.90691e-11 1.47568e-11 0)
(-9.89204e-11 3.20143e-11 0)
(1.4995e-10 -5.89052e-11 0)
(2.9817e-10 -1.06347e-10 0)
(2.06766e-10 -6.62336e-11 0)
(3.10025e-11 -2.74469e-11 0)
(-8.81007e-11 -3.52049e-11 0)
(-1.00907e-10 -6.6794e-11 0)
(-1.01477e-10 -1.65087e-10 0)
(-9.46079e-11 -8.27981e-11 0)
(3.11409e-11 -2.3537e-11 0)
(-7.036e-11 -1.4393e-11 0)
(3.44991e-11 2.17991e-11 0)
(-7.6326e-11 -7.41388e-11 0)
(1.44752e-10 1.24151e-10 0)
(-1.61611e-10 -4.58178e-10 0)
(-9.03222e-12 -1.17155e-09 0)
(8.74048e-10 -1.84066e-10 0)
(-4.37896e-10 1.6817e-10 0)
(-4.61675e-10 1.25292e-10 0)
(-2.04772e-10 4.35771e-11 0)
(-1.70843e-10 1.48128e-10 0)
(6.9624e-11 1.54348e-10 0)
(2.94335e-10 2.71352e-11 0)
(2.80446e-10 -9.08565e-11 0)
(1.33568e-10 -1.24626e-10 0)
(-3.61494e-11 -9.88956e-11 0)
(-1.17963e-10 -7.35019e-11 0)
(-1.4505e-10 -1.09292e-10 0)
(-1.01311e-10 -4.15866e-11 0)
(-2.63659e-11 -9.36804e-11 0)
(3.37794e-11 1.32514e-10 0)
(4.98533e-11 6.0834e-11 0)
(1.66243e-10 -2.88769e-10 0)
(-3.20228e-10 3.41949e-10 0)
(-1.42703e-09 -3.75604e-10 0)
(-2.69027e-10 2.40134e-09 0)
(5.45763e-09 -8.6203e-10 0)
(-2.78392e-10 -5.24504e-10 0)
(-4.24094e-10 1.41771e-10 0)
(-7.1832e-11 2.52e-10 0)
(4.78211e-12 3.68119e-10 0)
(-1.57925e-11 3.17977e-10 0)
(3.45395e-11 9.22569e-11 0)
(1.02846e-10 -1.03922e-10 0)
(1.28923e-10 -1.46384e-10 0)
(5.33514e-11 -8.79224e-11 0)
(-3.55348e-11 -1.89154e-11 0)
(-8.14989e-11 -6.35471e-12 0)
(-6.96235e-11 -6.21227e-12 0)
(5.6348e-11 -7.86737e-11 0)
(1.57012e-10 9.24891e-11 0)
(-3.6198e-11 1.45925e-11 0)
(8.15347e-11 -2.54954e-10 0)
(9.39592e-11 4.48275e-12 0)
(1.95449e-09 3.49831e-11 0)
(-2.15907e-10 3.00278e-09 0)
(-6.09109e-09 -8.64684e-10 0)
(1.13147e-09 -5.23581e-10 0)
(6.02163e-10 1.30757e-10 0)
(1.86919e-10 2.66262e-10 0)
(-2.39526e-11 2.92886e-10 0)
(-3.18808e-10 2.04202e-10 0)
(-3.14866e-10 4.01871e-11 0)
(-6.44307e-11 -7.63727e-11 0)
(1.56666e-10 -1.10582e-10 0)
(1.54255e-10 -8.60524e-11 0)
(4.92287e-11 -4.34978e-11 0)
(-5.23903e-11 -3.3188e-11 0)
(-8.65165e-11 6.01189e-13 0)
)
;

boundaryField
{
    sides
    {
        type            calculated;
        value           nonuniform List<vector> 
40
(
(5.6348e-11 0 0)
(1.57012e-10 0 0)
(-3.6198e-11 0 0)
(8.15347e-11 0 0)
(9.39592e-11 0 0)
(1.95449e-09 0 0)
(-2.15907e-10 0 0)
(-6.09109e-09 0 0)
(1.13147e-09 0 0)
(6.02163e-10 0 0)
(1.86919e-10 0 0)
(-2.39526e-11 0 0)
(-3.18808e-10 0 0)
(-3.14866e-10 0 0)
(-6.44307e-11 0 0)
(1.56666e-10 0 0)
(1.54255e-10 0 0)
(4.92287e-11 0 0)
(-5.23903e-11 0 0)
(-8.65165e-11 0 0)
(2.34178e-11 0 0)
(1.48654e-10 0 0)
(-8.92738e-11 0 0)
(-1.51459e-10 0 0)
(-2.45045e-11 0 0)
(8.67988e-10 0 0)
(-1.27566e-09 0 0)
(-9.48172e-10 0 0)
(9.81788e-10 0 0)
(8.0091e-10 0 0)
(2.0755e-10 0 0)
(-5.5685e-11 0 0)
(-3.44646e-10 0 0)
(-3.61667e-10 0 0)
(-1.11073e-10 0 0)
(9.65771e-11 0 0)
(1.43703e-10 0 0)
(7.50086e-11 0 0)
(3.64881e-11 0 0)
(3.93414e-11 0 0)
)
;
    }
    inlet
    {
        type            calculated;
        value           uniform (0 0 0);
    }
    outlet
    {
        type            calculated;
        value           nonuniform List<vector> 
20
(
(3.93414e-11 -2.3702e-11 0)
(5.75093e-11 -5.0578e-11 0)
(1.01216e-10 -5.77713e-11 0)
(1.04435e-10 -5.1434e-11 0)
(1.1281e-10 -3.98489e-11 0)
(1.41345e-10 -5.43317e-11 0)
(7.37198e-11 -7.74258e-11 0)
(2.21987e-11 -9.24798e-11 0)
(-6.36919e-11 -1.26184e-10 0)
(-8.1112e-11 -1.3413e-10 0)
(-7.6714e-11 -1.16547e-10 0)
(-1.56346e-11 -9.96623e-11 0)
(2.97649e-12 -8.15941e-11 0)
(4.18141e-11 -7.4678e-11 0)
(-3.8269e-11 -7.37703e-11 0)
(-6.97606e-11 -8.76946e-11 0)
(-9.46079e-11 -8.27981e-11 0)
(-1.01311e-10 -4.15866e-11 0)
(-6.96235e-11 -6.21227e-12 0)
(-8.65165e-11 6.01189e-13 0)
)
;
    }
    frontAndBack
    {
        type            empty;
    }
}


// ************************************************************************* //
