/*--------------------------------*- C++ -*----------------------------------*\
  =========                 |
  \\      /  F ield         | OpenFOAM: The Open Source CFD Toolbox
   \\    /   O peration     | Website:  https://openfoam.org
    \\  /    A nd           | Version:  7
     \\/     M anipulation  |
\*---------------------------------------------------------------------------*/
FoamFile
{
    version     2.0;
    format      ascii;
    class       surfaceScalarField;
    location    "79";
    object      ddtCorrDdt0(phi);
}
// * * * * * * * * * * * * * * * * * * * * * * * * * * * * * * * * * * * * * //

dimensions      [0 4 -2 0 0 0 0];

internalField   nonuniform List<scalar> 
760
(
1.91257e-12
3.0947e-14
-4.41428e-13
-8.54591e-13
-1.94989e-12
3.76921e-13
1.10715e-12
1.31369e-12
-4.1277e-13
3.23928e-13
5.56894e-12
1.52981e-10
-1.37e-11
2.5105e-10
3.33117e-12
3.1616e-10
5.49631e-12
1.4471e-11
1.84365e-12
4.95305e-13
4.8084e-13
-2.90072e-13
-1.07432e-12
-6.99006e-13
-2.00023e-12
-7.13152e-13
-1.26964e-12
-2.45085e-13
7.69946e-14
3.60165e-13
7.04915e-13
5.8315e-13
5.95952e-13
3.38796e-13
2.77529e-13
-2.68979e-14
1.54262e-13
-3.41634e-13
-1.90923e-13
-2.64686e-13
-7.67674e-13
2.39964e-13
-7.48786e-13
-2.23695e-13
-6.06199e-13
1.32372e-12
8.44655e-13
-4.93827e-12
-7.1857e-13
3.20697e-12
8.82114e-13
3.54228e-12
-1.47603e-11
-1.90764e-12
-8.82965e-13
-1.5405e-12
3.95702e-13
-9.13389e-13
-7.969e-13
1.62921e-13
-3.26673e-13
1.05593e-14
-1.78835e-13
-3.10867e-13
-2.34162e-13
-1.52863e-13
7.70359e-14
1.59846e-13
5.4779e-13
1.68303e-13
5.5623e-13
-7.04548e-14
1.26158e-13
-1.25199e-13
-2.51056e-13
1.45507e-13
-5.87102e-13
-2.906e-13
-7.22184e-13
5.87e-13
6.10505e-13
-7.42119e-14
6.1047e-13
-8.8905e-13
-2.31915e-12
-1.56996e-13
2.42641e-12
-1.52562e-12
-6.50951e-12
2.83807e-12
5.87824e-12
6.38347e-13
2.66571e-12
7.13038e-13
-2.88154e-12
-1.04863e-12
-1.11994e-12
-9.173e-13
-6.49026e-13
8.30992e-16
-4.27193e-13
2.90131e-13
5.18192e-13
6.14208e-13
9.58302e-13
8.18492e-13
5.18365e-13
6.7365e-13
-2.06065e-13
8.06289e-14
-6.38844e-13
-5.43221e-13
-4.60522e-13
-6.89191e-13
2.3971e-13
-7.71318e-13
-2.8027e-13
-6.02065e-13
3.32352e-13
-4.49666e-13
2.08553e-13
6.78126e-13
-4.23012e-13
-2.09339e-12
-8.58028e-13
3.15069e-12
-2.902e-13
-4.00442e-12
-2.52334e-12
4.6512e-12
1.87638e-12
-6.07967e-13
1.36237e-13
-2.15957e-12
-2.7333e-12
3.71557e-13
-6.2188e-14
-9.23013e-14
6.98198e-13
-7.2588e-14
5.78672e-13
7.79869e-13
1.13078e-12
8.89782e-13
1.08527e-12
7.89611e-14
2.99678e-13
-6.82687e-13
-6.1941e-13
-8.02889e-13
-1.1498e-12
-4.14817e-13
-9.72259e-13
2.7934e-13
-7.98466e-13
-2.17722e-13
-7.58123e-13
-2.04622e-13
-8.72355e-13
6.70219e-14
4.60065e-13
3.3297e-13
-4.33615e-13
-1.04753e-12
6.06572e-13
5.4609e-13
-5.16667e-13
-2.47354e-12
1.94978e-12
-8.10515e-14
-3.74404e-12
-3.27119e-12
2.70834e-13
-8.15359e-13
9.85954e-13
1.13692e-12
-2.81368e-13
3.95396e-13
5.08331e-13
6.85238e-13
8.61343e-13
1.27764e-12
1.75273e-13
7.63685e-13
-6.42957e-13
-3.45071e-13
-8.91583e-13
-1.16254e-12
-4.60301e-13
-1.33902e-12
1.57046e-13
-8.97416e-13
5.37279e-13
-7.81743e-13
-2.25117e-13
-4.49937e-13
-3.98047e-13
-3.47658e-13
-1.28768e-13
-5.45758e-13
4.60816e-13
9.28178e-13
-3.21376e-13
-1.42486e-12
-6.77948e-13
1.56499e-12
-4.0161e-13
-1.06911e-12
-1.09013e-12
-9.70539e-13
-1.52745e-12
2.27252e-12
9.60793e-13
1.95416e-15
-2.5873e-14
-1.87819e-13
5.10022e-14
9.5677e-13
1.15338e-12
1.98959e-13
1.03969e-12
-1.09402e-12
2.02506e-13
-1.32839e-12
-5.01698e-13
-7.22055e-13
-1.00702e-12
1.42744e-13
-1.05664e-12
7.64456e-13
-6.28222e-13
8.30725e-13
-8.477e-13
-3.50158e-13
-1.18649e-13
-2.9721e-13
3.1385e-13
-7.58521e-14
-7.7602e-13
-3.84442e-13
7.53795e-13
5.41166e-13
-9.49185e-13
-9.50042e-13
8.52772e-13
-7.95045e-14
-1.49963e-12
-1.32076e-12
1.12477e-12
-3.04554e-13
3.99419e-13
-1.99161e-14
-6.29629e-13
-6.96716e-13
6.75438e-13
5.98325e-13
6.81333e-13
1.10724e-12
-5.55651e-13
2.42959e-13
-1.45259e-12
-2.02043e-13
-1.15068e-12
3.34426e-14
-7.71285e-14
-7.06385e-14
7.51948e-13
-3.9968e-13
8.37249e-13
-3.83745e-13
5.24262e-13
-8.65246e-13
-3.96965e-13
2.24312e-13
-7.6028e-14
5.38896e-14
1.66687e-13
1.57269e-13
-4.03469e-13
-4.72926e-13
-2.64168e-13
1.05179e-13
-4.9851e-13
-3.66849e-13
-6.10587e-13
-5.2498e-13
-9.82617e-13
9.87e-13
-2.35034e-13
-7.46049e-13
-7.15052e-13
4.55012e-13
-7.15081e-14
8.97703e-13
4.52847e-13
-6.35696e-13
8.08913e-14
-9.19445e-13
3.68071e-14
-7.40651e-13
2.02109e-13
-6.63967e-13
5.72158e-13
6.86551e-14
6.10555e-13
7.81321e-13
3.60919e-14
6.26843e-13
-4.73766e-13
2.09502e-13
-1.17926e-12
-5.22694e-13
4.71351e-13
4.57832e-13
-2.82874e-13
-1.78774e-13
4.19608e-13
3.87251e-14
-4.84934e-13
-8.1127e-13
2.99874e-13
-4.96076e-13
-4.98209e-13
-1.16255e-12
1.749e-13
-9.19946e-13
1.26488e-13
-6.37651e-13
-5.18286e-13
-8.61108e-13
4.18354e-13
1.90361e-13
-1.08968e-14
-5.80849e-14
-7.48845e-13
-1.5537e-13
-2.07739e-14
8.04188e-13
5.65931e-13
7.12217e-13
2.33787e-13
2.39725e-13
4.80785e-14
1.97254e-13
1.66288e-13
-9.67332e-14
-6.93795e-15
-6.1673e-13
-2.94236e-13
-1.44428e-12
-6.6323e-13
-1.88374e-13
3.38738e-13
1.07141e-13
7.12471e-14
-8.01956e-14
-3.15327e-14
2.093e-13
-5.47873e-13
-7.17666e-14
-7.27663e-13
-1.26676e-14
-1.08095e-12
3.76081e-13
-1.06391e-12
-3.66119e-13
-8.34542e-13
1.44237e-13
-5.92818e-13
-4.46935e-13
1.20515e-13
-3.54446e-13
4.54658e-13
5.50056e-13
6.32939e-13
5.29491e-13
8.95628e-13
5.94424e-13
4.91597e-13
8.15758e-13
-7.37695e-14
3.27297e-13
-4.93227e-13
-4.63668e-13
-9.36676e-13
-7.81361e-13
-1.15141e-12
-5.92375e-13
-1.61082e-12
-6.5801e-13
-4.13133e-13
-1.41435e-13
1.98263e-13
4.51697e-13
-2.89307e-13
-2.82806e-13
3.58528e-13
-2.81352e-14
-1.66985e-13
-8.60238e-13
1.53646e-13
-6.29145e-13
5.09736e-13
-1.08546e-12
-4.38719e-13
-8.75248e-13
3.66369e-13
-1.77858e-13
-7.25428e-13
-8.13369e-14
-5.79448e-13
1.16301e-12
7.1116e-13
1.60489e-12
4.08379e-13
7.48142e-13
3.90046e-13
1.93215e-13
9.8818e-13
-9.96783e-14
5.48366e-13
-9.76547e-13
-4.9911e-13
-1.75918e-12
-8.59515e-13
-1.57357e-12
-5.76511e-13
-1.5175e-12
-5.33296e-13
2.90044e-13
-3.45846e-14
-3.04652e-13
-8.40468e-14
1.50477e-13
-1.12131e-13
-2.62543e-13
-8.56212e-15
2.69375e-13
-6.38144e-13
-3.0669e-13
-5.30245e-13
5.62257e-13
-8.26282e-13
-1.55298e-13
-1.2193e-12
-7.72876e-14
-9.99171e-14
1.28377e-13
-2.75066e-13
-5.44363e-13
6.59744e-13
-6.3053e-13
1.78408e-12
-8.87584e-14
1.52125e-12
4.28575e-13
7.46259e-13
4.70229e-13
-1.16021e-13
1.11028e-13
-1.20038e-12
-1.89134e-13
-1.75019e-12
-1.78234e-13
-1.34245e-12
-9.89497e-14
-1.3213e-12
-4.73805e-13
3.66127e-13
-9.13889e-15
-2.26937e-13
-2.89341e-13
4.89355e-13
2.28909e-13
-5.91343e-13
-8.85865e-13
6.2557e-13
-1.89459e-14
-5.74352e-13
-1.07622e-12
8.14097e-14
-2.93701e-13
6.74902e-13
-1.47747e-12
-8.14034e-13
-5.8033e-13
7.3555e-13
1.81446e-13
5.08764e-13
-2.43767e-13
-1.11908e-12
4.13251e-13
-9.08568e-13
1.50798e-12
-2.87838e-13
1.37861e-12
-1.83988e-13
4.08225e-13
1.25472e-13
-5.56023e-13
4.8998e-13
-1.06906e-12
4.62003e-13
-9.15695e-13
1.6255e-13
-1.08633e-12
-3.9908e-13
7.4541e-14
9.54746e-14
4.53858e-13
-1.14863e-13
-2.07393e-13
-4.49148e-13
4.78133e-13
-6.14334e-13
-2.27504e-13
1.75357e-13
3.47108e-13
-1.67979e-12
-1.14409e-12
-2.38494e-13
1.58146e-12
-9.68095e-13
-3.49955e-13
-1.90103e-12
-1.46224e-13
2.05715e-13
1.16732e-12
1.734e-13
2.58086e-13
-3.61161e-13
-7.92119e-13
4.52828e-13
-1.20483e-12
9.70547e-13
-9.06517e-13
8.4757e-13
-2.48697e-14
3.21648e-13
6.69421e-13
-3.80896e-13
7.52665e-13
-6.36714e-13
4.15449e-13
-9.27068e-13
-3.19837e-13
-1.10313e-13
1.79819e-13
4.41933e-13
-1.17516e-13
-2.40839e-13
-6.29059e-13
1.64667e-12
2.89252e-13
-1.54951e-12
-1.5306e-12
1.91411e-12
-7.03567e-14
-2.27221e-12
-1.08086e-12
2.75793e-13
1.97498e-12
1.4335e-12
-1.53581e-12
-7.59012e-13
-1.06561e-12
2.69175e-13
2.32078e-13
1.33939e-12
-1.74031e-13
5.2734e-13
-3.71065e-13
-5.69698e-13
2.88195e-14
-7.37025e-13
6.04778e-13
-2.7162e-13
6.02372e-13
2.88495e-13
3.108e-14
5.18292e-13
-3.67243e-13
7.92453e-14
-8.57443e-13
-3.77676e-13
-3.24335e-13
9.66932e-14
-6.04983e-14
-1.03882e-13
4.82414e-13
-1.12194e-13
5.98484e-13
2.8354e-13
-6.9931e-13
-1.67151e-12
1.26113e-12
1.63816e-12
7.79151e-15
-3.1519e-12
-3.67419e-12
7.72474e-13
1.64378e-12
2.23723e-12
3.94723e-13
-6.65715e-13
-3.40699e-13
6.58935e-14
1.05779e-12
3.32555e-13
1.29586e-12
-3.0842e-13
4.71467e-13
-5.40685e-13
-3.37958e-13
-1.34154e-13
-6.11055e-13
1.14116e-13
-2.83224e-13
-6.2204e-14
5.11859e-14
-3.22298e-13
-1.90243e-13
-8.88221e-13
-4.59887e-13
-3.27495e-13
-2.79434e-13
-1.21768e-13
-1.31069e-14
1.08023e-12
3.98844e-13
-1.5909e-12
-4.18317e-13
2.81241e-12
-6.60095e-14
-2.81977e-12
-2.59503e-13
5.22132e-12
-3.74368e-12
-2.9918e-12
-1.75512e-12
-2.11176e-12
8.71553e-13
2.66352e-13
1.17993e-12
-7.01778e-13
5.3534e-13
3.55171e-14
6.30126e-13
1.29027e-12
2.07031e-13
1.43324e-12
-3.88251e-13
5.60482e-13
-5.81299e-13
-2.77649e-13
-4.53964e-13
-5.11368e-13
-3.23244e-13
-4.62395e-13
-3.46047e-13
-4.78818e-13
-7.08528e-13
-3.32159e-13
-7.46593e-13
-1.52349e-12
2.43164e-13
4.18151e-13
1.22201e-12
5.02287e-13
-3.03037e-12
-1.13005e-12
5.1632e-12
1.59087e-12
-7.62465e-12
-8.8489e-12
8.17675e-12
-8.6884e-13
-4.82456e-13
-6.58425e-12
-3.07938e-12
1.94215e-13
-1.1978e-12
9.3782e-13
-1.07204e-12
7.38764e-13
-3.87071e-13
1.01872e-12
1.03594e-12
1.05548e-12
1.60352e-12
4.05033e-13
1.07477e-12
-3.81338e-13
1.86258e-13
-6.66478e-13
-4.76319e-13
-5.23118e-13
-7.0085e-13
-3.3209e-13
-6.0329e-13
-3.7517e-13
-1.33182e-13
-1.12737e-13
-3.57844e-13
3.74679e-13
6.56732e-13
4.07455e-13
-2.83105e-13
7.82526e-13
-1.17429e-12
-3.8692e-12
4.88146e-13
-1.20141e-11
2.8248e-10
2.31548e-11
4.52685e-10
9.07866e-12
-4.80649e-11
-2.04869e-12
2.88205e-12
-1.20404e-12
-1.75081e-13
3.8968e-14
6.53619e-13
-4.84025e-14
1.2165e-12
-3.17804e-15
1.27516e-12
3.2404e-13
6.42972e-13
6.32137e-13
-1.79532e-13
5.28371e-13
-5.70346e-13
-8.6726e-15
-4.69716e-13
-3.67652e-13
-2.22658e-13
-3.68307e-13
-1.20508e-13
2.37806e-15
1.80041e-12
7.20009e-14
-1.84242e-12
3.09506e-12
-1.14697e-12
2.03808e-11
-3.4073e-11
-4.50417e-12
4.30336e-12
1.54366e-12
6.15399e-13
-9.6324e-13
-1.84421e-12
-1.06085e-12
3.43247e-13
9.48875e-13
5.1837e-13
-8.95398e-14
-3.75054e-13
)
;

boundaryField
{
    sides
    {
        type            calculated;
        value           uniform 0;
    }
    inlet
    {
        type            calculated;
        value           uniform 0;
    }
    outlet
    {
        type            calculated;
        value           nonuniform List<scalar> 
20
(
1.35161e-13
2.95036e-13
6.07644e-13
6.51372e-13
6.01029e-13
6.71229e-13
3.40473e-13
6.56846e-14
-3.90677e-13
-4.31716e-13
-3.60473e-13
-9.54393e-14
2.2461e-14
2.15026e-13
-2.82144e-13
-4.56376e-13
-4.90682e-13
-4.36108e-13
-2.78844e-13
-3.82727e-13
)
;
    }
    frontAndBack
    {
        type            empty;
        value           nonuniform 0();
    }
}


// ************************************************************************* //
