/*--------------------------------*- C++ -*----------------------------------*\
  =========                 |
  \\      /  F ield         | OpenFOAM: The Open Source CFD Toolbox
   \\    /   O peration     | Website:  https://openfoam.org
    \\  /    A nd           | Version:  7
     \\/     M anipulation  |
\*---------------------------------------------------------------------------*/
FoamFile
{
    version     2.0;
    format      ascii;
    class       volVectorField;
    location    "79";
    object      hU_0;
}
// * * * * * * * * * * * * * * * * * * * * * * * * * * * * * * * * * * * * * //

dimensions      [0 2 -1 0 0 0 0];

internalField   nonuniform List<vector> 
400
(
(0.001 -8.71651e-09 0)
(0.000999999 -2.37793e-08 0)
(0.001 -3.6063e-08 0)
(0.001 -4.67687e-08 0)
(0.00100001 -5.69061e-08 0)
(0.00100001 -6.73485e-08 0)
(0.00100002 -7.81036e-08 0)
(0.00100003 -8.90806e-08 0)
(0.00100004 -9.99333e-08 0)
(0.00100006 -1.11922e-07 0)
(0.00100007 -1.22657e-07 0)
(0.0010001 -1.36171e-07 0)
(0.00100011 -1.46545e-07 0)
(0.00100015 -1.63379e-07 0)
(0.00100017 -1.72215e-07 0)
(0.00100024 -1.96352e-07 0)
(0.00100026 -2.00826e-07 0)
(0.00100038 -2.43044e-07 0)
(0.00100038 -2.39139e-07 0)
(0.00100061 -3.31797e-07 0)
(0.001 4.01685e-09 0)
(0.001 1.20919e-08 0)
(0.00100001 2.01735e-08 0)
(0.00100001 2.79145e-08 0)
(0.00100002 3.51506e-08 0)
(0.00100002 4.16886e-08 0)
(0.00100003 4.76631e-08 0)
(0.00100004 5.31306e-08 0)
(0.00100005 5.8362e-08 0)
(0.00100007 6.22479e-08 0)
(0.00100008 6.69189e-08 0)
(0.0010001 6.85512e-08 0)
(0.00100012 7.26816e-08 0)
(0.00100016 6.98689e-08 0)
(0.00100018 7.40063e-08 0)
(0.00100023 6.1637e-08 0)
(0.00100026 6.71298e-08 0)
(0.00100035 3.17427e-08 0)
(0.00100037 3.98542e-08 0)
(0.0010005 -5.45625e-08 0)
(0.001 -3.97522e-09 0)
(0.000999999 -1.30617e-08 0)
(0.001 -2.31232e-08 0)
(0.001 -3.37359e-08 0)
(0.00100001 -4.42738e-08 0)
(0.00100001 -5.5072e-08 0)
(0.00100002 -6.56122e-08 0)
(0.00100003 -7.73414e-08 0)
(0.00100004 -8.88353e-08 0)
(0.00100005 -1.02485e-07 0)
(0.00100006 -1.15247e-07 0)
(0.00100009 -1.3243e-07 0)
(0.0010001 -1.46553e-07 0)
(0.00100014 -1.701e-07 0)
(0.00100016 -1.85223e-07 0)
(0.00100021 -2.21237e-07 0)
(0.00100023 -2.35739e-07 0)
(0.00100031 -2.97607e-07 0)
(0.00100033 -3.06169e-07 0)
(0.00100046 -4.22076e-07 0)
(0.001 -1.95186e-10 0)
(0.001 -9.72254e-11 0)
(0.00100001 5.42872e-10 0)
(0.00100001 1.21441e-09 0)
(0.00100001 1.90755e-09 0)
(0.00100002 1.82072e-09 0)
(0.00100003 1.5223e-09 0)
(0.00100004 -3.77948e-10 0)
(0.00100004 -2.35313e-09 0)
(0.00100006 -7.00874e-09 0)
(0.00100007 -1.11867e-08 0)
(0.00100009 -2.04809e-08 0)
(0.00100011 -2.72342e-08 0)
(0.00100013 -4.43893e-08 0)
(0.00100016 -5.36819e-08 0)
(0.00100019 -8.51159e-08 0)
(0.00100022 -9.55651e-08 0)
(0.00100028 -1.54707e-07 0)
(0.0010003 -1.60921e-07 0)
(0.00100039 -2.75738e-07 0)
(0.001 -2.9375e-09 0)
(0.001 -9.28705e-09 0)
(0.001 -1.63682e-08 0)
(0.001 -2.44502e-08 0)
(0.00100001 -3.31341e-08 0)
(0.00100001 -4.28244e-08 0)
(0.00100002 -5.28976e-08 0)
(0.00100002 -6.45507e-08 0)
(0.00100003 -7.64166e-08 0)
(0.00100004 -9.11843e-08 0)
(0.00100005 -1.05587e-07 0)
(0.00100007 -1.25412e-07 0)
(0.00100009 -1.42814e-07 0)
(0.00100011 -1.71074e-07 0)
(0.00100013 -1.91385e-07 0)
(0.00100016 -2.34481e-07 0)
(0.00100018 -2.55875e-07 0)
(0.00100024 -3.26595e-07 0)
(0.00100025 -3.41495e-07 0)
(0.00100033 -4.64273e-07 0)
(0.001 -2.59518e-09 0)
(0.001 -7.61693e-09 0)
(0.001 -1.23293e-08 0)
(0.00100001 -1.70727e-08 0)
(0.00100001 -2.18428e-08 0)
(0.00100001 -2.73205e-08 0)
(0.00100002 -3.32228e-08 0)
(0.00100002 -4.07849e-08 0)
(0.00100003 -4.88274e-08 0)
(0.00100004 -6.00625e-08 0)
(0.00100005 -7.12359e-08 0)
(0.00100006 -8.82658e-08 0)
(0.00100008 -1.03312e-07 0)
(0.0010001 -1.29654e-07 0)
(0.00100011 -1.48545e-07 0)
(0.00100014 -1.9048e-07 0)
(0.00100016 -2.11113e-07 0)
(0.0010002 -2.80563e-07 0)
(0.00100021 -2.94483e-07 0)
(0.00100027 -4.14814e-07 0)
(0.001 -2.91948e-09 0)
(0.001 -8.95733e-09 0)
(0.001 -1.52991e-08 0)
(0.001 -2.23496e-08 0)
(0.00100001 -3.00764e-08 0)
(0.00100001 -3.90294e-08 0)
(0.00100001 -4.87679e-08 0)
(0.00100002 -6.04508e-08 0)
(0.00100002 -7.28533e-08 0)
(0.00100003 -8.86122e-08 0)
(0.00100004 -1.04471e-07 0)
(0.00100005 -1.26423e-07 0)
(0.00100006 -1.46446e-07 0)
(0.00100007 -1.78022e-07 0)
(0.00100009 -2.02021e-07 0)
(0.00100011 -2.49401e-07 0)
(0.00100012 -2.74837e-07 0)
(0.00100015 -3.49624e-07 0)
(0.00100016 -3.67206e-07 0)
(0.00100021 -4.9203e-07 0)
(0.001 -3.21736e-09 0)
(0.001 -9.84773e-09 0)
(0.001 -1.66986e-08 0)
(0.001 -2.41032e-08 0)
(0.001 -3.1923e-08 0)
(0.00100001 -4.07669e-08 0)
(0.00100001 -5.01741e-08 0)
(0.00100001 -6.14493e-08 0)
(0.00100002 -7.3396e-08 0)
(0.00100002 -8.87281e-08 0)
(0.00100003 -1.04293e-07 0)
(0.00100004 -1.2603e-07 0)
(0.00100004 -1.4602e-07 0)
(0.00100005 -1.77635e-07 0)
(0.00100006 -2.01938e-07 0)
(0.00100008 -2.49479e-07 0)
(0.00100009 -2.75377e-07 0)
(0.00100011 -3.49892e-07 0)
(0.00100012 -3.67586e-07 0)
(0.00100015 -4.90642e-07 0)
(0.001 -3.39716e-09 0)
(0.001 -1.03526e-08 0)
(0.001 -1.74816e-08 0)
(0.001 -2.51681e-08 0)
(0.001 -3.32882e-08 0)
(0.001 -4.25474e-08 0)
(0.00100001 -5.25104e-08 0)
(0.00100001 -6.45491e-08 0)
(0.00100001 -7.74111e-08 0)
(0.00100001 -9.38736e-08 0)
(0.00100002 -1.10715e-07 0)
(0.00100002 -1.33908e-07 0)
(0.00100003 -1.55451e-07 0)
(0.00100003 -1.88864e-07 0)
(0.00100004 -2.14895e-07 0)
(0.00100005 -2.64426e-07 0)
(0.00100005 -2.9191e-07 0)
(0.00100007 -3.6843e-07 0)
(0.00100007 -3.87155e-07 0)
(0.00100009 -5.12293e-07 0)
(0.001 -3.48177e-09 0)
(0.001 -1.05915e-08 0)
(0.001 -1.78746e-08 0)
(0.001 -2.57369e-08 0)
(0.001 -3.40862e-08 0)
(0.001 -4.36181e-08 0)
(0.001 -5.39108e-08 0)
(0.001 -6.63083e-08 0)
(0.001 -7.95583e-08 0)
(0.001 -9.6417e-08 0)
(0.00100001 -1.13662e-07 0)
(0.00100001 -1.37242e-07 0)
(0.00100001 -1.59209e-07 0)
(0.00100001 -1.92993e-07 0)
(0.00100001 -2.19441e-07 0)
(0.00100002 -2.69242e-07 0)
(0.00100002 -2.9711e-07 0)
(0.00100002 -3.73678e-07 0)
(0.00100002 -3.92691e-07 0)
(0.00100003 -5.1726e-07 0)
(0.001 -3.48393e-09 0)
(0.001 -1.05872e-08 0)
(0.001 -1.78789e-08 0)
(0.000999999 -2.57369e-08 0)
(0.000999999 -3.40928e-08 0)
(0.000999999 -4.36203e-08 0)
(0.000999998 -5.39205e-08 0)
(0.000999997 -6.6307e-08 0)
(0.000999996 -7.95633e-08 0)
(0.000999995 -9.64185e-08 0)
(0.000999994 -1.13656e-07 0)
(0.000999993 -1.37252e-07 0)
(0.000999991 -1.5923e-07 0)
(0.000999989 -1.93009e-07 0)
(0.000999987 -2.19455e-07 0)
(0.000999984 -2.69251e-07 0)
(0.000999982 -2.97107e-07 0)
(0.000999978 -3.7366e-07 0)
(0.000999976 -3.92669e-07 0)
(0.00099997 -5.17247e-07 0)
(0.001 -3.40273e-09 0)
(0.001 -1.03475e-08 0)
(0.000999999 -1.74881e-08 0)
(0.000999998 -2.51612e-08 0)
(0.000999997 -3.33015e-08 0)
(0.000999996 -4.25488e-08 0)
(0.000999994 -5.25291e-08 0)
(0.000999992 -6.45446e-08 0)
(0.000999989 -7.74138e-08 0)
(0.000999986 -9.38761e-08 0)
(0.000999983 -1.10696e-07 0)
(0.000999978 -1.33911e-07 0)
(0.000999973 -1.55484e-07 0)
(0.000999967 -1.88898e-07 0)
(0.000999961 -2.14924e-07 0)
(0.000999952 -2.64431e-07 0)
(0.000999946 -2.91891e-07 0)
(0.000999934 -3.68365e-07 0)
(0.00099993 -3.87084e-07 0)
(0.000999911 -5.12216e-07 0)
(0.001 -3.22579e-09 0)
(0.001 -9.85121e-09 0)
(0.000999999 -1.6693e-08 0)
(0.000999997 -2.40935e-08 0)
(0.000999996 -3.19302e-08 0)
(0.000999993 -4.07643e-08 0)
(0.000999991 -5.01807e-08 0)
(0.000999987 -6.14495e-08 0)
(0.000999983 -7.33824e-08 0)
(0.000999977 -8.87305e-08 0)
(0.000999971 -1.04283e-07 0)
(0.000999964 -1.2601e-07 0)
(0.000999956 -1.46028e-07 0)
(0.000999945 -1.77669e-07 0)
(0.000999936 -2.0198e-07 0)
(0.000999921 -2.49502e-07 0)
(0.000999911 -2.75385e-07 0)
(0.000999889 -3.49869e-07 0)
(0.000999882 -3.67556e-07 0)
(0.000999852 -4.90614e-07 0)
(0.001 -2.92603e-09 0)
(0.000999999 -8.96224e-09 0)
(0.000999998 -1.52874e-08 0)
(0.000999996 -2.23569e-08 0)
(0.000999994 -3.0062e-08 0)
(0.000999991 -3.90313e-08 0)
(0.000999987 -4.87474e-08 0)
(0.000999982 -6.04615e-08 0)
(0.000999977 -7.28299e-08 0)
(0.000999969 -8.85898e-08 0)
(0.000999962 -1.04463e-07 0)
(0.000999951 -1.26379e-07 0)
(0.000999941 -1.46394e-07 0)
(0.000999925 -1.7798e-07 0)
(0.000999913 -2.01999e-07 0)
(0.000999891 -2.49363e-07 0)
(0.000999878 -2.74806e-07 0)
(0.000999847 -3.49545e-07 0)
(0.000999839 -3.67127e-07 0)
(0.000999792 -4.91887e-07 0)
(0.001 -2.5895e-09 0)
(0.000999999 -7.61634e-09 0)
(0.000999997 -1.23347e-08 0)
(0.000999995 -1.70937e-08 0)
(0.000999991 -2.18268e-08 0)
(0.000999987 -2.7347e-08 0)
(0.000999982 -3.32025e-08 0)
(0.000999975 -4.08123e-08 0)
(0.000999968 -4.88602e-08 0)
(0.000999959 -6.00617e-08 0)
(0.000999949 -7.12537e-08 0)
(0.000999935 -8.82691e-08 0)
(0.000999922 -1.03287e-07 0)
(0.000999903 -1.29617e-07 0)
(0.000999886 -1.48529e-07 0)
(0.000999859 -1.9048e-07 0)
(0.000999841 -2.1114e-07 0)
(0.000999802 -2.80583e-07 0)
(0.000999787 -2.9451e-07 0)
(0.000999731 -4.14809e-07 0)
(0.001 -2.91327e-09 0)
(0.001 -9.28477e-09 0)
(0.000999999 -1.63892e-08 0)
(0.000999997 -2.44482e-08 0)
(0.000999994 -3.31317e-08 0)
(0.00099999 -4.28173e-08 0)
(0.000999984 -5.28792e-08 0)
(0.000999977 -6.45105e-08 0)
(0.000999969 -7.64563e-08 0)
(0.000999958 -9.12015e-08 0)
(0.000999946 -1.05599e-07 0)
(0.00099993 -1.2542e-07 0)
(0.000999915 -1.42796e-07 0)
(0.000999891 -1.71008e-07 0)
(0.000999872 -1.91327e-07 0)
(0.000999837 -2.34413e-07 0)
(0.000999817 -2.55846e-07 0)
(0.000999764 -3.26529e-07 0)
(0.000999752 -3.41458e-07 0)
(0.00099967 -4.64129e-07 0)
(0.001 -1.61989e-10 0)
(0.000999998 -1.07257e-10 0)
(0.000999995 4.99183e-10 0)
(0.00099999 1.22204e-09 0)
(0.000999986 1.89599e-09 0)
(0.00099998 1.87157e-09 0)
(0.000999973 1.47533e-09 0)
(0.000999965 -3.06577e-10 0)
(0.000999955 -2.37061e-09 0)
(0.000999943 -7.06336e-09 0)
(0.00099993 -1.12306e-08 0)
(0.000999912 -2.052e-08 0)
(0.000999894 -2.72593e-08 0)
(0.000999867 -4.43749e-08 0)
(0.000999845 -5.36576e-08 0)
(0.000999805 -8.50774e-08 0)
(0.000999779 -9.55475e-08 0)
(0.00099972 -1.54677e-07 0)
(0.000999698 -1.6091e-07 0)
(0.000999611 -2.75685e-07 0)
(0.001 -3.9904e-09 0)
(0.001 -1.30605e-08 0)
(0.001 -2.31162e-08 0)
(0.000999998 -3.37304e-08 0)
(0.000999995 -4.42674e-08 0)
(0.000999989 -5.4984e-08 0)
(0.000999983 -6.57293e-08 0)
(0.000999973 -7.72969e-08 0)
(0.000999963 -8.88154e-08 0)
(0.00099995 -1.02488e-07 0)
(0.000999936 -1.15246e-07 0)
(0.000999915 -1.32429e-07 0)
(0.000999896 -1.46586e-07 0)
(0.000999864 -1.70124e-07 0)
(0.000999841 -1.85248e-07 0)
(0.000999791 -2.21214e-07 0)
(0.000999767 -2.35741e-07 0)
(0.000999687 -2.9756e-07 0)
(0.000999671 -3.06167e-07 0)
(0.000999539 -4.21998e-07 0)
(0.001 3.9516e-09 0)
(0.000999996 1.20987e-08 0)
(0.000999991 2.02568e-08 0)
(0.000999987 2.79184e-08 0)
(0.000999982 3.5114e-08 0)
(0.000999976 4.15431e-08 0)
(0.000999969 4.77636e-08 0)
(0.000999959 5.29612e-08 0)
(0.000999948 5.84468e-08 0)
(0.000999934 6.23525e-08 0)
(0.000999919 6.69891e-08 0)
(0.000999897 6.85772e-08 0)
(0.000999878 7.26426e-08 0)
(0.000999845 6.98252e-08 0)
(0.000999819 7.39807e-08 0)
(0.000999767 6.16772e-08 0)
(0.000999738 6.71731e-08 0)
(0.000999654 3.18378e-08 0)
(0.000999629 3.99226e-08 0)
(0.000999496 -5.44323e-08 0)
(0.001 -8.74884e-09 0)
(0.001 -2.37811e-08 0)
(0.001 -3.60148e-08 0)
(0.000999997 -4.67722e-08 0)
(0.000999993 -5.69604e-08 0)
(0.000999986 -6.75603e-08 0)
(0.000999979 -7.79516e-08 0)
(0.000999968 -8.92852e-08 0)
(0.000999958 -9.98968e-08 0)
(0.000999942 -1.11878e-07 0)
(0.000999928 -1.22657e-07 0)
(0.000999903 -1.36213e-07 0)
(0.000999886 -1.46627e-07 0)
(0.000999846 -1.63466e-07 0)
(0.000999826 -1.72292e-07 0)
(0.00099976 -1.96407e-07 0)
(0.000999742 -2.0088e-07 0)
(0.000999623 -2.43104e-07 0)
(0.000999618 -2.39208e-07 0)
(0.000999394 -3.31922e-07 0)
)
;

boundaryField
{
    sides
    {
        type            slip;
    }
    inlet
    {
        type            fixedValue;
        value           uniform (0.001 0 0);
    }
    outlet
    {
        type            zeroGradient;
    }
    frontAndBack
    {
        type            empty;
    }
}


// ************************************************************************* //
