/*--------------------------------*- C++ -*----------------------------------*\
  =========                 |
  \\      /  F ield         | OpenFOAM: The Open Source CFD Toolbox
   \\    /   O peration     | Website:  https://openfoam.org
    \\  /    A nd           | Version:  7
     \\/     M anipulation  |
\*---------------------------------------------------------------------------*/
FoamFile
{
    version     2.0;
    format      ascii;
    class       surfaceScalarField;
    location    "79";
    object      phi;
}
// * * * * * * * * * * * * * * * * * * * * * * * * * * * * * * * * * * * * * //

dimensions      [0 4 -1 0 0 0 0];

internalField   nonuniform List<scalar> 
760
(
4.99999e-06
1.00878e-11
4.99999e-06
-4.51834e-12
5.00001e-06
-1.30637e-11
5.00003e-06
-1.95051e-11
5.00005e-06
-2.65683e-11
5.00009e-06
-2.9195e-11
5.00013e-06
-4.81653e-11
5.00018e-06
-4.48576e-11
5.00025e-06
-6.22351e-11
5.00032e-06
-7.81256e-11
5.00041e-06
-9.01873e-11
5.00053e-06
-1.1411e-10
5.00065e-06
-1.27009e-10
5.00082e-06
-1.67931e-10
5.001e-06
-1.78165e-10
5.00126e-06
-2.57003e-10
5.00151e-06
-2.56291e-10
5.00195e-06
-4.31826e-10
5.00236e-06
-4.14116e-10
-8.9146e-10
5.00002e-06
-1.17283e-11
5.00004e-06
-1.91832e-11
5.00005e-06
-2.96171e-11
5.00008e-06
-4.20349e-11
5.0001e-06
-5.46021e-11
5.00014e-06
-6.89305e-11
5.00018e-06
-8.49451e-11
5.00023e-06
-1.0399e-10
5.00029e-06
-1.23585e-10
5.00037e-06
-1.53204e-10
5.00045e-06
-1.77075e-10
5.00056e-06
-2.22143e-10
5.00069e-06
-2.50454e-10
5.00084e-06
-3.24356e-10
5.00102e-06
-3.54193e-10
5.00125e-06
-4.86453e-10
5.0015e-06
-5.0949e-10
5.00184e-06
-7.6809e-10
5.00218e-06
-7.59891e-10
-1.26176e-09
4.99999e-06
-4.70962e-12
4.99999e-06
-2.0531e-11
5e-06
-3.79612e-11
5.00002e-06
-5.70572e-11
5.00004e-06
-7.69351e-11
5.00007e-06
-9.93208e-11
5.00011e-06
-1.22852e-10
5.00016e-06
-1.52383e-10
5.00021e-06
-1.82536e-10
5.00029e-06
-2.23762e-10
5.00037e-06
-2.62269e-10
5.00047e-06
-3.23301e-10
5.00059e-06
-3.72079e-10
5.00074e-06
-4.67847e-10
5.00091e-06
-5.26195e-10
5.00111e-06
-6.87341e-10
5.00135e-06
-7.48348e-10
5.00162e-06
-1.04143e-09
5.00194e-06
-1.08312e-09
-1.68911e-09
5.00001e-06
-1.27742e-11
5.00002e-06
-3.35511e-11
5.00004e-06
-5.4709e-11
5.00006e-06
-7.80952e-11
5.00008e-06
-1.0241e-10
5.00012e-06
-1.31e-10
5.00015e-06
-1.60349e-10
5.0002e-06
-1.97987e-10
5.00025e-06
-2.36245e-10
5.00032e-06
-2.88576e-10
5.00039e-06
-3.38179e-10
5.00048e-06
-4.15248e-10
5.00059e-06
-4.78534e-10
5.00072e-06
-5.96895e-10
5.00087e-06
-6.73432e-10
5.00105e-06
-8.65858e-10
5.00124e-06
-9.47468e-10
5.00148e-06
-1.28033e-09
5.00173e-06
-1.33132e-09
-1.89749e-09
5e-06
-1.18149e-11
5e-06
-3.67444e-11
5.00001e-06
-6.2418e-11
5.00002e-06
-9.06373e-11
5.00004e-06
-1.20455e-10
5.00006e-06
-1.55045e-10
5.0001e-06
-1.91622e-10
5.00013e-06
-2.36647e-10
5.00018e-06
-2.83438e-10
5.00024e-06
-3.45183e-10
5.00031e-06
-4.06531e-10
5.00039e-06
-4.95576e-10
5.00048e-06
-5.74393e-10
5.00059e-06
-7.07813e-10
5.00072e-06
-8.04241e-10
5.00087e-06
-1.01345e-09
5.00104e-06
-1.11712e-09
5.00122e-06
-1.46196e-09
5.00142e-06
-1.53271e-09
-2.1622e-09
5e-06
-1.40366e-11
5.00001e-06
-4.34979e-11
5.00002e-06
-7.33704e-11
5.00003e-06
-1.0555e-10
5.00005e-06
-1.39535e-10
5.00008e-06
-1.78439e-10
5.00011e-06
-2.20174e-10
5.00014e-06
-2.70964e-10
5.00018e-06
-3.24277e-10
5.00023e-06
-3.94231e-10
5.00029e-06
-4.6399e-10
5.00036e-06
-5.63784e-10
5.00043e-06
-6.53376e-10
5.00053e-06
-8.00682e-10
5.00063e-06
-9.09514e-10
5.00075e-06
-1.13541e-09
5.00089e-06
-1.2518e-09
5.00104e-06
-1.61631e-09
5.00121e-06
-1.69713e-09
-2.29279e-09
5e-06
-1.58041e-11
5.00001e-06
-4.79841e-11
5.00001e-06
-8.0779e-11
5.00002e-06
-1.1561e-10
5.00004e-06
-1.5285e-10
5.00005e-06
-1.95493e-10
5.00008e-06
-2.4158e-10
5.0001e-06
-2.97149e-10
5.00013e-06
-3.56277e-10
5.00017e-06
-4.32416e-10
5.00022e-06
-5.09441e-10
5.00027e-06
-6.17136e-10
5.00033e-06
-7.16005e-10
5.0004e-06
-8.72719e-10
5.00049e-06
-9.92549e-10
5.00058e-06
-1.22862e-09
5.00069e-06
-1.3562e-09
5.0008e-06
-1.72701e-09
5.00091e-06
-1.8121e-09
-2.44137e-09
5e-06
-1.68545e-11
5e-06
-5.10254e-11
5.00001e-06
-8.58395e-11
5.00002e-06
-1.23241e-10
5.00003e-06
-1.63029e-10
5.00004e-06
-2.08625e-10
5.00006e-06
-2.57807e-10
5.00008e-06
-3.16992e-10
5.0001e-06
-3.80123e-10
5.00013e-06
-4.60753e-10
5.00016e-06
-5.42879e-10
5.0002e-06
-6.56402e-10
5.00025e-06
-7.61343e-10
5.0003e-06
-9.25045e-10
5.00036e-06
-1.05175e-09
5.00042e-06
-1.29536e-09
5.0005e-06
-1.42926e-09
5.00058e-06
-1.8078e-09
5.00067e-06
-1.9004e-09
-2.51541e-09
5e-06
-1.74268e-11
5e-06
-5.28975e-11
5.00001e-06
-8.89906e-11
5.00001e-06
-1.28022e-10
5.00002e-06
-1.69426e-10
5.00002e-06
-2.16738e-10
5.00003e-06
-2.67705e-10
5.00005e-06
-3.29007e-10
5.00006e-06
-3.94475e-10
5.00008e-06
-4.77793e-10
5.0001e-06
-5.63002e-10
5.00012e-06
-6.79896e-10
5.00015e-06
-7.88512e-10
5.00018e-06
-9.56303e-10
5.00022e-06
-1.08725e-09
5.00026e-06
-1.33512e-09
5.0003e-06
-1.47304e-09
5.00035e-06
-1.85492e-09
5.00039e-06
-1.94778e-09
-2.57137e-09
5e-06
-1.76428e-11
5e-06
-5.35088e-11
5e-06
-9.00992e-11
5e-06
-1.2962e-10
5.00001e-06
-1.71608e-10
5.00001e-06
-2.19452e-10
5.00001e-06
-2.71051e-10
5.00002e-06
-3.3303e-10
5.00002e-06
-3.99263e-10
5.00003e-06
-4.83486e-10
5.00003e-06
-5.6967e-10
5.00004e-06
-6.87695e-10
5.00005e-06
-7.97674e-10
5.00006e-06
-9.66815e-10
5.00007e-06
-1.09923e-09
5.00009e-06
-1.34842e-09
5.0001e-06
-1.48766e-09
5.00012e-06
-1.87024e-09
5.00013e-06
-1.96488e-09
-2.58759e-09
5e-06
-1.74796e-11
5e-06
-5.28505e-11
5e-06
-8.90233e-11
5e-06
-1.27973e-10
4.99999e-06
-1.69481e-10
4.99999e-06
-2.16731e-10
4.99999e-06
-2.67765e-10
4.99998e-06
-3.29036e-10
4.99998e-06
-3.94453e-10
4.99997e-06
-4.77808e-10
4.99997e-06
-5.62891e-10
4.99996e-06
-6.79812e-10
4.99995e-06
-7.88627e-10
4.99994e-06
-9.5646e-10
4.99993e-06
-1.0874e-09
4.99991e-06
-1.33526e-09
4.9999e-06
-1.47315e-09
4.99988e-06
-1.85485e-09
4.99987e-06
-1.94761e-09
-2.57117e-09
5e-06
-1.68808e-11
5e-06
-5.10448e-11
4.99999e-06
-8.58177e-11
4.99999e-06
-1.232e-10
4.99998e-06
-1.63065e-10
4.99998e-06
-2.08635e-10
4.99997e-06
-2.57835e-10
4.99995e-06
-3.17055e-10
4.99994e-06
-3.80074e-10
4.99992e-06
-4.60744e-10
4.9999e-06
-5.4279e-10
4.99988e-06
-6.56238e-10
4.99985e-06
-7.61307e-10
4.99982e-06
-9.2513e-10
4.99978e-06
-1.05194e-09
4.99974e-06
-1.29553e-09
4.9997e-06
-1.42936e-09
4.99965e-06
-1.80764e-09
4.99961e-06
-1.90015e-09
-2.51513e-09
5e-06
-1.58203e-11
5e-06
-4.80105e-11
4.99999e-06
-8.07081e-11
4.99998e-06
-1.15692e-10
4.99997e-06
-1.52791e-10
4.99996e-06
-1.9555e-10
4.99994e-06
-2.41497e-10
4.99992e-06
-2.9722e-10
4.9999e-06
-3.56272e-10
4.99987e-06
-4.32328e-10
4.99984e-06
-5.09442e-10
4.9998e-06
-6.17049e-10
4.99975e-06
-7.1583e-10
4.9997e-06
-8.72578e-10
4.99964e-06
-9.92557e-10
4.99958e-06
-1.22863e-09
4.9995e-06
-1.35622e-09
4.99942e-06
-1.72685e-09
4.99933e-06
-1.81191e-09
-2.44098e-09
5e-06
-1.40002e-11
4.99999e-06
-4.34955e-11
4.99999e-06
-7.34404e-11
4.99998e-06
-1.0562e-10
4.99996e-06
-1.3944e-10
4.99995e-06
-1.78526e-10
4.99992e-06
-2.20062e-10
4.9999e-06
-2.70947e-10
4.99987e-06
-3.24464e-10
4.99983e-06
-3.94198e-10
4.99978e-06
-4.63988e-10
4.99973e-06
-5.63785e-10
4.99967e-06
-6.53246e-10
4.99959e-06
-8.00424e-10
4.99951e-06
-9.09292e-10
4.99942e-06
-1.13517e-09
4.99931e-06
-1.2517e-09
4.9992e-06
-1.61613e-09
4.99909e-06
-1.69698e-09
-2.29241e-09
5e-06
-1.17177e-11
4.99999e-06
-3.67507e-11
4.99998e-06
-6.25565e-11
4.99997e-06
-9.06007e-11
4.99995e-06
-1.20569e-10
4.99992e-06
-1.54917e-10
4.99989e-06
-1.91623e-10
4.99986e-06
-2.36322e-10
4.99982e-06
-2.836e-10
4.99977e-06
-3.45404e-10
4.99971e-06
-4.06643e-10
4.99964e-06
-4.95665e-10
4.99957e-06
-5.7443e-10
4.99947e-06
-7.0765e-10
4.99937e-06
-8.04004e-10
4.99925e-06
-1.01313e-09
4.99911e-06
-1.11697e-09
4.99896e-06
-1.46176e-09
4.99879e-06
-1.53266e-09
-2.16182e-09
5e-06
-1.26884e-11
5e-06
-3.35826e-11
4.99999e-06
-5.47689e-11
4.99998e-06
-7.80094e-11
4.99996e-06
-1.025e-10
4.99994e-06
-1.30624e-10
4.9999e-06
-1.60654e-10
4.99987e-06
-1.97779e-10
4.99982e-06
-2.35985e-10
4.99976e-06
-2.88712e-10
4.99969e-06
-3.38344e-10
4.99961e-06
-4.15373e-10
4.99952e-06
-4.78683e-10
4.99941e-06
-5.96877e-10
4.99928e-06
-6.73319e-10
4.99913e-06
-8.65562e-10
4.99896e-06
-9.47277e-10
4.99878e-06
-1.28004e-09
4.99858e-06
-1.33121e-09
-1.89703e-09
4.99999e-06
-4.75975e-12
4.99998e-06
-2.05603e-11
4.99996e-06
-3.78773e-11
4.99994e-06
-5.7018e-11
4.99992e-06
-7.68443e-11
4.99988e-06
-9.94206e-11
4.99985e-06
-1.2338e-10
4.9998e-06
-1.52537e-10
4.99975e-06
-1.82306e-10
4.99968e-06
-2.23642e-10
4.99961e-06
-2.62325e-10
4.99952e-06
-3.2341e-10
4.99941e-06
-3.72276e-10
4.99928e-06
-4.67973e-10
4.99913e-06
-5.26298e-10
4.99895e-06
-6.8723e-10
4.99876e-06
-7.48273e-10
4.99852e-06
-1.04117e-09
4.99827e-06
-1.08303e-09
-1.68874e-09
5.00001e-06
-1.19314e-11
5.00001e-06
-1.90922e-11
5e-06
-2.93574e-11
4.99998e-06
-4.20889e-11
4.99996e-06
-5.44758e-11
4.99993e-06
-7.00077e-11
4.99989e-06
-8.39539e-11
4.99984e-06
-1.04963e-10
4.99978e-06
-1.23498e-10
4.99971e-06
-1.52917e-10
4.99963e-06
-1.76888e-10
4.99953e-06
-2.2199e-10
4.99941e-06
-2.50455e-10
4.99926e-06
-3.24394e-10
4.99909e-06
-3.5436e-10
4.99889e-06
-4.86422e-10
4.99865e-06
-5.09498e-10
4.99838e-06
-7.67774e-10
4.99805e-06
-7.59715e-10
-1.26125e-09
4.99998e-06
9.86463e-12
4.99996e-06
-4.35235e-12
4.99995e-06
-1.28969e-11
4.99992e-06
-1.97881e-11
4.9999e-06
-2.69071e-11
4.99986e-06
-3.62677e-11
4.99982e-06
-3.43086e-11
4.99977e-06
-4.89582e-11
4.99971e-06
-6.25187e-11
4.99963e-06
-7.80267e-11
4.99955e-06
-8.99757e-11
4.99944e-06
-1.1392e-10
4.99932e-06
-1.27e-10
4.99916e-06
-1.68068e-10
4.99898e-06
-1.78422e-10
4.99875e-06
-2.57172e-10
4.9985e-06
-2.56426e-10
4.99817e-06
-4.31787e-10
4.99782e-06
-4.1411e-10
-8.91423e-10
5.00001e-06
5.00001e-06
4.99999e-06
4.99997e-06
4.99995e-06
4.99991e-06
4.99987e-06
4.99982e-06
4.99975e-06
4.99968e-06
4.99959e-06
4.99947e-06
4.99934e-06
4.99918e-06
4.999e-06
4.99874e-06
4.99848e-06
4.99805e-06
4.99764e-06
)
;

boundaryField
{
    sides
    {
        type            calculated;
        value           uniform 0;
    }
    inlet
    {
        type            calculated;
        value           nonuniform List<scalar> 
20
(
-5e-06
-5e-06
-5e-06
-5e-06
-5e-06
-5e-06
-5e-06
-5e-06
-5e-06
-5e-06
-5e-06
-5e-06
-5e-06
-5e-06
-5e-06
-5e-06
-5e-06
-5e-06
-5e-06
-5e-06
)
;
    }
    outlet
    {
        type            calculated;
        value           nonuniform List<scalar> 
20
(
5.00325e-06
5.00255e-06
5.00237e-06
5.00194e-06
5.00169e-06
5.00134e-06
5.00106e-06
5.00074e-06
5.00045e-06
5.00015e-06
4.99985e-06
4.99955e-06
4.99926e-06
4.99894e-06
4.99866e-06
4.99831e-06
4.99806e-06
4.99763e-06
4.99745e-06
4.99675e-06
)
;
    }
    frontAndBack
    {
        type            empty;
        value           nonuniform 0();
    }
}


// ************************************************************************* //
