/*--------------------------------*- C++ -*----------------------------------*\
  =========                 |
  \\      /  F ield         | OpenFOAM: The Open Source CFD Toolbox
   \\    /   O peration     | Website:  https://openfoam.org
    \\  /    A nd           | Version:  7
     \\/     M anipulation  |
\*---------------------------------------------------------------------------*/
FoamFile
{
    version     2.0;
    format      ascii;
    class       volVectorField;
    location    "79";
    object      U;
}
// * * * * * * * * * * * * * * * * * * * * * * * * * * * * * * * * * * * * * //

dimensions      [0 1 -1 0 0 0 0];

internalField   nonuniform List<vector> 
400
(
(0.0999931 -8.71824e-07 0)
(0.099993 -2.37891e-06 0)
(0.0999931 -3.60539e-06 0)
(0.0999934 -4.6751e-06 0)
(0.0999939 -5.6888e-06 0)
(0.0999947 -6.7423e-06 0)
(0.0999955 -7.80687e-06 0)
(0.0999966 -8.91742e-06 0)
(0.0999978 -9.98835e-06 0)
(0.0999996 -1.11903e-05 0)
(0.100001 -1.22656e-05 0)
(0.100004 -1.36174e-05 0)
(0.100006 -1.46546e-05 0)
(0.10001 -1.63372e-05 0)
(0.100013 -1.72202e-05 0)
(0.10002 -1.96338e-05 0)
(0.100022 -2.00817e-05 0)
(0.100035 -2.43039e-05 0)
(0.100036 -2.39141e-05 0)
(0.10006 -3.31796e-05 0)
(0.0999943 4.00614e-07 0)
(0.0999947 1.20773e-06 0)
(0.0999952 2.01896e-06 0)
(0.0999958 2.79396e-06 0)
(0.0999963 3.51596e-06 0)
(0.099997 4.16506e-06 0)
(0.0999978 4.76488e-06 0)
(0.0999988 5.30619e-06 0)
(0.1 5.84206e-06 0)
(0.100002 6.22589e-06 0)
(0.100003 6.69078e-06 0)
(0.100006 6.85304e-06 0)
(0.100008 7.26582e-06 0)
(0.100012 6.98579e-06 0)
(0.100014 7.40124e-06 0)
(0.10002 6.1651e-06 0)
(0.100024 6.71385e-06 0)
(0.100033 3.17436e-06 0)
(0.100036 3.98481e-06 0)
(0.10005 -5.45665e-06 0)
(0.0999948 -3.97606e-07 0)
(0.0999947 -1.30628e-06 0)
(0.0999947 -2.31267e-06 0)
(0.099995 -3.37366e-06 0)
(0.0999953 -4.42949e-06 0)
(0.099996 -5.50192e-06 0)
(0.0999967 -6.56669e-06 0)
(0.0999977 -7.72912e-06 0)
(0.0999988 -8.88279e-06 0)
(0.1 -1.02489e-05 0)
(0.100002 -1.15238e-05 0)
(0.100004 -1.32419e-05 0)
(0.100006 -1.46547e-05 0)
(0.10001 -1.70091e-05 0)
(0.100013 -1.85208e-05 0)
(0.100018 -2.21223e-05 0)
(0.100021 -2.35735e-05 0)
(0.100029 -2.9761e-05 0)
(0.100032 -3.0618e-05 0)
(0.100046 -4.2208e-05 0)
(0.0999956 -1.79812e-08 0)
(0.0999958 -9.36193e-09 0)
(0.0999962 5.21876e-08 0)
(0.0999966 1.19922e-07 0)
(0.0999972 1.88875e-07 0)
(0.0999978 1.82687e-07 0)
(0.0999986 1.51961e-07 0)
(0.0999995 -3.50989e-08 0)
(0.100001 -2.38589e-07 0)
(0.100002 -7.02695e-07 0)
(0.100003 -1.11814e-06 0)
(0.100005 -2.04705e-06 0)
(0.100007 -2.72167e-06 0)
(0.10001 -4.43687e-06 0)
(0.100013 -5.36686e-06 0)
(0.100017 -8.51161e-06 0)
(0.10002 -9.55783e-06 0)
(0.100027 -1.54722e-05 0)
(0.100029 -1.60938e-05 0)
(0.100039 -2.75744e-05 0)
(0.0999963 -2.93012e-07 0)
(0.0999963 -9.28384e-07 0)
(0.0999964 -1.63742e-06 0)
(0.0999966 -2.44602e-06 0)
(0.0999969 -3.31352e-06 0)
(0.0999974 -4.285e-06 0)
(0.099998 -5.2889e-06 0)
(0.0999988 -6.45584e-06 0)
(0.0999997 -7.64481e-06 0)
(0.100001 -9.11804e-06 0)
(0.100002 -1.05574e-05 0)
(0.100004 -1.25398e-05 0)
(0.100006 -1.42788e-05 0)
(0.100008 -1.71047e-05 0)
(0.100011 -1.91374e-05 0)
(0.100014 -2.34489e-05 0)
(0.100017 -2.55894e-05 0)
(0.100022 -3.26611e-05 0)
(0.100024 -3.41511e-05 0)
(0.100033 -4.64279e-05 0)
(0.099997 -2.59997e-07 0)
(0.099997 -7.61766e-07 0)
(0.0999972 -1.23254e-06 0)
(0.0999975 -1.70871e-06 0)
(0.0999979 -2.18447e-06 0)
(0.0999984 -2.73532e-06 0)
(0.099999 -3.32317e-06 0)
(0.0999997 -4.08241e-06 0)
(0.1 -4.88383e-06 0)
(0.100002 -6.00491e-06 0)
(0.100003 -7.12271e-06 0)
(0.100004 -8.82466e-06 0)
(0.100006 -1.03283e-05 0)
(0.100008 -1.29635e-05 0)
(0.10001 -1.48545e-05 0)
(0.100013 -1.90498e-05 0)
(0.100015 -2.11137e-05 0)
(0.100019 -2.8058e-05 0)
(0.100021 -2.94502e-05 0)
(0.100027 -4.14822e-05 0)
(0.0999976 -2.92681e-07 0)
(0.0999977 -8.96014e-07 0)
(0.0999978 -1.52934e-06 0)
(0.099998 -2.23508e-06 0)
(0.0999983 -3.00816e-06 0)
(0.0999986 -3.90391e-06 0)
(0.0999991 -4.87802e-06 0)
(0.0999996 -6.04734e-06 0)
(0.1 -7.28453e-06 0)
(0.100001 -8.86117e-06 0)
(0.100002 -1.04468e-05 0)
(0.100003 -1.264e-05 0)
(0.100004 -1.46426e-05 0)
(0.100006 -1.78016e-05 0)
(0.100007 -2.02022e-05 0)
(0.10001 -2.49409e-05 0)
(0.100011 -2.74849e-05 0)
(0.100015 -3.49631e-05 0)
(0.100016 -3.6722e-05 0)
(0.100021 -4.92037e-05 0)
(0.0999983 -3.22163e-07 0)
(0.0999984 -9.84844e-07 0)
(0.0999985 -1.67008e-06 0)
(0.0999986 -2.41001e-06 0)
(0.0999988 -3.19361e-06 0)
(0.0999991 -4.0775e-06 0)
(0.0999994 -5.01949e-06 0)
(0.0999998 -6.14589e-06 0)
(0.1 -7.33979e-06 0)
(0.100001 -8.87339e-06 0)
(0.100002 -1.04283e-05 0)
(0.100002 -1.26011e-05 0)
(0.100003 -1.46011e-05 0)
(0.100004 -1.77636e-05 0)
(0.100005 -2.01936e-05 0)
(0.100007 -2.49476e-05 0)
(0.100008 -2.7538e-05 0)
(0.100011 -3.49897e-05 0)
(0.100012 -3.67602e-05 0)
(0.100015 -4.90649e-05 0)
(0.099999 -3.39464e-07 0)
(0.099999 -1.03501e-06 0)
(0.0999991 -1.74865e-06 0)
(0.0999992 -2.51735e-06 0)
(0.0999993 -3.33012e-06 0)
(0.0999994 -4.25615e-06 0)
(0.0999996 -5.25327e-06 0)
(0.0999999 -6.45575e-06 0)
(0.1 -7.74252e-06 0)
(0.100001 -9.38766e-06 0)
(0.100001 -1.10707e-05 0)
(0.100001 -1.33906e-05 0)
(0.100002 -1.55447e-05 0)
(0.100003 -1.88859e-05 0)
(0.100003 -2.14889e-05 0)
(0.100004 -2.64419e-05 0)
(0.100005 -2.9191e-05 0)
(0.100006 -3.68435e-05 0)
(0.100007 -3.87174e-05 0)
(0.100009 -5.12303e-05 0)
(0.0999997 -3.47521e-07 0)
(0.0999997 -1.05884e-06 0)
(0.0999997 -1.78772e-06 0)
(0.0999997 -2.57469e-06 0)
(0.0999998 -3.41001e-06 0)
(0.0999998 -4.36373e-06 0)
(0.0999999 -5.39337e-06 0)
(0.1 -6.63223e-06 0)
(0.1 -7.95734e-06 0)
(0.1 -9.64162e-06 0)
(0.1 -1.13653e-05 0)
(0.1 -1.37236e-05 0)
(0.100001 -1.59196e-05 0)
(0.100001 -1.92981e-05 0)
(0.100001 -2.19438e-05 0)
(0.100001 -2.69246e-05 0)
(0.100002 -2.97122e-05 0)
(0.100002 -3.73694e-05 0)
(0.100002 -3.92718e-05 0)
(0.100003 -5.17272e-05 0)
(0.1 -3.48052e-07 0)
(0.1 -1.05836e-06 0)
(0.1 -1.78803e-06 0)
(0.1 -2.57424e-06 0)
(0.1 -3.41061e-06 0)
(0.1 -4.36369e-06 0)
(0.1 -5.39402e-06 0)
(0.1 -6.63255e-06 0)
(0.0999999 -7.95714e-06 0)
(0.0999998 -9.64183e-06 0)
(0.0999997 -1.13642e-05 0)
(0.0999995 -1.37228e-05 0)
(0.0999993 -1.59209e-05 0)
(0.0999991 -1.92999e-05 0)
(0.0999989 -2.19453e-05 0)
(0.0999986 -2.69262e-05 0)
(0.0999983 -2.97133e-05 0)
(0.0999979 -3.73689e-05 0)
(0.0999977 -3.92703e-05 0)
(0.0999971 -5.17261e-05 0)
(0.100001 -3.40264e-07 0)
(0.100001 -1.03472e-06 0)
(0.100001 -1.74878e-06 0)
(0.100001 -2.51652e-06 0)
(0.100001 -3.33111e-06 0)
(0.100001 -4.25628e-06 0)
(0.1 -5.2543e-06 0)
(0.1 -6.4568e-06 0)
(0.0999998 -7.7419e-06 0)
(0.0999995 -9.38787e-06 0)
(0.0999991 -1.10687e-05 0)
(0.0999986 -1.33881e-05 0)
(0.099998 -1.55455e-05 0)
(0.0999973 -1.88883e-05 0)
(0.0999967 -2.14921e-05 0)
(0.0999957 -2.64447e-05 0)
(0.099995 -2.91923e-05 0)
(0.0999936 -3.68399e-05 0)
(0.0999932 -3.87119e-05 0)
(0.0999912 -5.1223e-05 0)
(0.100002 -3.22593e-07 0)
(0.100002 -9.85359e-07 0)
(0.100002 -1.66925e-06 0)
(0.100001 -2.41043e-06 0)
(0.100001 -3.19345e-06 0)
(0.100001 -4.07835e-06 0)
(0.100001 -5.0192e-06 0)
(0.1 -6.14759e-06 0)
(0.0999997 -7.3396e-06 0)
(0.0999991 -8.87301e-06 0)
(0.0999985 -1.04281e-05 0)
(0.0999976 -1.25995e-05 0)
(0.0999968 -1.46e-05 0)
(0.0999956 -1.77646e-05 0)
(0.0999945 -2.01973e-05 0)
(0.0999929 -2.49517e-05 0)
(0.0999917 -2.75413e-05 0)
(0.0999894 -3.49896e-05 0)
(0.0999885 -3.67587e-05 0)
(0.0999853 -4.90626e-05 0)
(0.100002 -2.92504e-07 0)
(0.100002 -8.96381e-07 0)
(0.100002 -1.5293e-06 0)
(0.100002 -2.23656e-06 0)
(0.100002 -3.00659e-06 0)
(0.100001 -3.90512e-06 0)
(0.100001 -4.87591e-06 0)
(0.1 -6.04766e-06 0)
(0.0999998 -7.28591e-06 0)
(0.099999 -8.8594e-06 0)
(0.0999981 -1.04463e-05 0)
(0.0999969 -1.26384e-05 0)
(0.0999957 -1.46386e-05 0)
(0.0999941 -1.77963e-05 0)
(0.0999926 -2.01988e-05 0)
(0.0999903 -2.49365e-05 0)
(0.0999887 -2.74819e-05 0)
(0.0999853 -3.4956e-05 0)
(0.0999843 -3.67149e-05 0)
(0.0999793 -4.91897e-05 0)
(0.100003 -2.58755e-07 0)
(0.100003 -7.61836e-07 0)
(0.100003 -1.23456e-06 0)
(0.100002 -1.70968e-06 0)
(0.100002 -2.18495e-06 0)
(0.100002 -2.7359e-06 0)
(0.100001 -3.32293e-06 0)
(0.1 -4.08052e-06 0)
(0.0999995 -4.88843e-06 0)
(0.0999985 -6.00772e-06 0)
(0.0999974 -7.1249e-06 0)
(0.0999959 -8.8271e-06 0)
(0.0999944 -1.0329e-05 0)
(0.0999923 -1.29614e-05 0)
(0.0999904 -1.48522e-05 0)
(0.0999874 -1.90477e-05 0)
(0.0999853 -2.11145e-05 0)
(0.0999811 -2.80593e-05 0)
(0.0999793 -2.94528e-05 0)
(0.0999733 -4.14816e-05 0)
(0.100004 -2.91388e-07 0)
(0.100004 -9.28518e-07 0)
(0.100004 -1.63892e-06 0)
(0.100003 -2.4445e-06 0)
(0.100003 -3.31563e-06 0)
(0.100003 -4.28071e-06 0)
(0.100002 -5.29158e-06 0)
(0.100001 -6.45047e-06 0)
(0.1 -7.64404e-06 0)
(0.0999991 -9.12132e-06 0)
(0.0999978 -1.05599e-05 0)
(0.099996 -1.25417e-05 0)
(0.0999942 -1.42804e-05 0)
(0.0999916 -1.7102e-05 0)
(0.0999895 -1.91332e-05 0)
(0.0999856 -2.34413e-05 0)
(0.0999833 -2.55849e-05 0)
(0.0999776 -3.26535e-05 0)
(0.099976 -3.41473e-05 0)
(0.0999673 -4.64136e-05 0)
(0.100004 -1.66861e-08 0)
(0.100004 -1.10046e-08 0)
(0.100004 5.06677e-08 0)
(0.100003 1.22057e-07 0)
(0.100003 1.87689e-07 0)
(0.100002 1.86414e-07 0)
(0.100001 1.42794e-07 0)
(0.1 -3.30058e-08 0)
(0.0999994 -2.33817e-07 0)
(0.0999981 -7.04908e-07 0)
(0.0999966 -1.12245e-06 0)
(0.0999946 -2.05115e-06 0)
(0.0999926 -2.7259e-06 0)
(0.0999897 -4.43846e-06 0)
(0.0999871 -5.36673e-06 0)
(0.0999828 -8.50847e-06 0)
(0.0999798 -9.55552e-06 0)
(0.0999734 -1.54686e-05 0)
(0.0999707 -1.60925e-05 0)
(0.0999614 -2.75693e-05 0)
(0.100005 -3.99067e-07 0)
(0.100005 -1.3063e-06 0)
(0.100005 -2.3117e-06 0)
(0.100005 -3.37394e-06 0)
(0.100005 -4.42559e-06 0)
(0.100004 -5.50529e-06 0)
(0.100003 -6.57323e-06 0)
(0.100002 -7.73524e-06 0)
(0.100001 -8.88172e-06 0)
(0.0999996 -1.0248e-05 0)
(0.099998 -1.15246e-05 0)
(0.0999957 -1.32422e-05 0)
(0.0999936 -1.46575e-05 0)
(0.0999901 -1.70123e-05 0)
(0.0999875 -1.85259e-05 0)
(0.0999821 -2.21232e-05 0)
(0.0999791 -2.35758e-05 0)
(0.0999706 -2.97575e-05 0)
(0.0999684 -3.06183e-05 0)
(0.0999544 -4.22005e-05 0)
(0.100006 3.95234e-07 0)
(0.100005 1.21088e-06 0)
(0.100005 2.02492e-06 0)
(0.100004 2.79014e-06 0)
(0.100004 3.51399e-06 0)
(0.100003 4.15578e-06 0)
(0.100002 4.78629e-06 0)
(0.100001 5.29655e-06 0)
(0.1 5.8384e-06 0)
(0.0999984 6.23492e-06 0)
(0.0999967 6.7005e-06 0)
(0.0999943 6.86084e-06 0)
(0.0999921 7.26787e-06 0)
(0.0999885 6.9846e-06 0)
(0.0999856 7.39813e-06 0)
(0.0999799 6.16677e-06 0)
(0.0999764 6.71647e-06 0)
(0.0999674 3.18331e-06 0)
(0.0999642 3.99191e-06 0)
(0.09995 -5.44346e-06 0)
(0.100007 -8.75229e-07 0)
(0.100007 -2.37754e-06 0)
(0.100007 -3.60249e-06 0)
(0.100007 -4.67939e-06 0)
(0.100006 -5.69691e-06 0)
(0.100005 -6.75094e-06 0)
(0.100005 -7.78936e-06 0)
(0.100003 -8.92602e-06 0)
(0.100002 -9.99626e-06 0)
(0.1 -1.11889e-05 0)
(0.0999989 -1.22648e-05 0)
(0.0999961 -1.36196e-05 0)
(0.0999941 -1.46613e-05 0)
(0.0999898 -1.63464e-05 0)
(0.0999874 -1.72303e-05 0)
(0.0999803 -1.96425e-05 0)
(0.0999779 -2.00897e-05 0)
(0.0999653 -2.43118e-05 0)
(0.0999638 -2.39218e-05 0)
(0.0999402 -3.31925e-05 0)
)
;

boundaryField
{
    sides
    {
        type            calculated;
        value           nonuniform List<vector> 
40
(
(0.100007 0 0)
(0.100007 0 0)
(0.100007 0 0)
(0.100007 0 0)
(0.100006 0 0)
(0.100005 0 0)
(0.100005 0 0)
(0.100003 0 0)
(0.100002 0 0)
(0.1 0 0)
(0.0999989 0 0)
(0.0999961 0 0)
(0.0999941 0 0)
(0.0999898 0 0)
(0.0999874 0 0)
(0.0999803 0 0)
(0.0999779 0 0)
(0.0999653 0 0)
(0.0999638 0 0)
(0.0999402 0 0)
(0.0999931 0 0)
(0.099993 0 0)
(0.0999931 0 0)
(0.0999934 0 0)
(0.0999939 0 0)
(0.0999947 0 0)
(0.0999955 0 0)
(0.0999966 0 0)
(0.0999978 0 0)
(0.0999996 0 0)
(0.100001 0 0)
(0.100004 0 0)
(0.100006 0 0)
(0.10001 0 0)
(0.100013 0 0)
(0.10002 0 0)
(0.100022 0 0)
(0.100035 0 0)
(0.100036 0 0)
(0.10006 0 0)
)
;
    }
    inlet
    {
        type            calculated;
        value           nonuniform List<vector> 
20
(
(0.0999931 0 0)
(0.0999943 0 0)
(0.0999948 0 0)
(0.0999956 0 0)
(0.0999963 0 0)
(0.0999969 0 0)
(0.0999976 0 0)
(0.0999983 0 0)
(0.099999 0 0)
(0.0999997 0 0)
(0.1 0 0)
(0.100001 0 0)
(0.100002 0 0)
(0.100002 0 0)
(0.100003 0 0)
(0.100004 0 0)
(0.100004 0 0)
(0.100005 0 0)
(0.100006 0 0)
(0.100007 0 0)
)
;
    }
    outlet
    {
        type            calculated;
        value           nonuniform List<vector> 
20
(
(0.100061 -3.31799e-05 0)
(0.10005 -5.45667e-06 0)
(0.100046 -4.22082e-05 0)
(0.100039 -2.75745e-05 0)
(0.100033 -4.64281e-05 0)
(0.100027 -4.14822e-05 0)
(0.100021 -4.92038e-05 0)
(0.100015 -4.9065e-05 0)
(0.100009 -5.12303e-05 0)
(0.100003 -5.17272e-05 0)
(0.099997 -5.1726e-05 0)
(0.0999911 -5.1223e-05 0)
(0.0999852 -4.90626e-05 0)
(0.0999792 -4.91896e-05 0)
(0.0999731 -4.14815e-05 0)
(0.099967 -4.64135e-05 0)
(0.0999611 -2.75692e-05 0)
(0.0999539 -4.22003e-05 0)
(0.0999495 -5.44344e-06 0)
(0.0999394 -3.31922e-05 0)
)
;
    }
    frontAndBack
    {
        type            empty;
    }
}


// ************************************************************************* //
