/*--------------------------------*- C++ -*----------------------------------*\
  =========                 |
  \\      /  F ield         | OpenFOAM: The Open Source CFD Toolbox
   \\    /   O peration     | Website:  https://openfoam.org
    \\  /    A nd           | Version:  7
     \\/     M anipulation  |
\*---------------------------------------------------------------------------*/
FoamFile
{
    version     2.0;
    format      ascii;
    class       volScalarField;
    location    "72";
    object      ddt0(h);
}
// * * * * * * * * * * * * * * * * * * * * * * * * * * * * * * * * * * * * * //

dimensions      [0 1 -1 0 0 0 0];

internalField   nonuniform List<scalar> 
400
(
-4.32131e-10
-1.11454e-09
4.30866e-10
-7.53657e-10
2.31742e-09
-1.42693e-08
-7.99625e-09
-1.03493e-08
3.68571e-09
1.84603e-09
6.56284e-10
5.33522e-10
1.07251e-10
-1.77369e-10
5.11233e-12
2.28253e-10
2.17847e-10
1.17849e-10
-8.5845e-12
-4.34109e-11
-4.60245e-10
-3.80016e-10
-5.39697e-10
-3.70332e-10
-1.50288e-09
1.14196e-08
1.056e-08
7.99093e-09
-3.35402e-10
-5.02114e-10
-1.34038e-10
1.34504e-10
6.91634e-11
1.30575e-10
2.64699e-10
2.49061e-10
1.56925e-10
1.38672e-10
1.08048e-10
3.6618e-11
-8.4418e-10
1.70005e-11
-1.42525e-09
2.77402e-10
-2.7394e-09
4.89809e-09
-5.16056e-09
1.6915e-09
-1.85674e-10
-1.43243e-09
-1.00177e-10
-1.22791e-10
-4.57458e-11
3.45263e-10
4.36546e-10
2.38334e-10
9.89657e-11
1.22005e-10
1.62291e-10
8.42331e-11
-7.57567e-10
-1.34616e-10
-6.24719e-10
1.04011e-10
-6.12827e-10
-1.05689e-10
7.06212e-10
4.07017e-09
-2.82555e-09
-5.49147e-10
5.20203e-10
5.46636e-11
2.24209e-10
5.26019e-10
3.83819e-10
6.09458e-11
-8.3045e-11
5.44974e-12
9.86407e-11
4.94124e-11
-6.65154e-10
-5.8792e-10
3.10401e-11
-6.80073e-10
1.59766e-09
-2.42496e-09
1.89781e-09
-2.20209e-09
-1.65877e-09
1.11985e-09
2.08239e-10
9.01065e-11
5.51859e-10
4.86398e-10
2.1076e-10
-3.18106e-11
-2.10029e-10
-1.85058e-10
-3.68956e-11
4.60576e-12
-1.97413e-10
-6.08856e-10
3.47692e-10
-6.58594e-10
1.06518e-09
-7.06041e-10
6.64985e-10
-1.74847e-09
1.04263e-09
9.14972e-10
-3.19971e-10
3.87512e-10
6.57769e-10
7.4113e-11
-8.23342e-11
1.03073e-10
-3.83551e-11
-2.67516e-10
-6.17412e-11
7.8975e-11
1.67606e-10
-3.19973e-10
-9.27823e-11
2.27946e-10
-7.13597e-10
3.22238e-10
-4.60937e-10
-1.86129e-11
1.16148e-09
-2.66223e-10
-5.60567e-11
5.93302e-10
1.61729e-10
-4.34122e-10
-2.94406e-10
2.85973e-10
3.51197e-10
-1.42004e-11
8.7528e-11
1.66821e-10
2.26928e-11
3.35425e-10
-6.4216e-10
3.81182e-10
-8.94433e-10
2.01586e-10
-8.21626e-10
6.57606e-10
1.487e-10
-3.74625e-10
5.64637e-10
-7.6745e-11
-7.0103e-10
-4.34946e-10
-1.8512e-10
1.37008e-10
4.58774e-10
3.97247e-10
2.71399e-10
1.33918e-10
-3.14605e-10
2.45322e-10
-1.59002e-10
-5.51438e-11
-2.39024e-10
8.43972e-12
-2.50433e-10
3.8916e-10
-2.79302e-10
-9.01921e-11
1.02775e-10
-6.59781e-10
-5.47758e-10
1.48481e-10
7.36943e-11
-2.38276e-10
6.11099e-11
4.23441e-10
2.44806e-10
8.78545e-12
-2.61191e-10
-3.92524e-10
2.74558e-10
-9.324e-11
4.33635e-10
4.51131e-11
5.41695e-10
-9.99552e-11
-1.0314e-10
1.22283e-11
-5.0774e-10
-6.8818e-11
3.68418e-10
2.57235e-10
2.33538e-11
-2.54265e-10
-1.84045e-10
6.9863e-11
-1.91778e-10
-2.46464e-10
-4.44714e-11
-4.407e-10
3.76563e-10
-2.19009e-10
4.8285e-10
-4.98236e-11
7.10963e-10
-2.66775e-10
-3.06452e-11
1.39134e-10
-5.26813e-10
2.52566e-10
6.83499e-10
2.81644e-10
6.22638e-11
-1.66396e-10
-2.69741e-10
-1.93808e-10
-4.76121e-10
-3.71241e-10
1.48893e-10
2.64503e-10
1.06249e-10
-4.42696e-10
-8.03566e-11
-1.8194e-10
1.3047e-10
7.91851e-11
-2.97149e-10
2.31016e-10
7.38059e-11
-2.61786e-10
3.60991e-11
4.58537e-10
3.09554e-10
-1.58183e-10
-2.28219e-10
-1.18876e-10
-3.17173e-10
-2.51144e-10
4.32428e-10
7.09719e-10
-5.4945e-10
1.24853e-10
-6.35794e-10
1.67567e-10
-6.1666e-10
6.3507e-10
-2.96922e-10
-9.34654e-11
7.93698e-10
-1.73256e-10
-6.20455e-10
-4.42077e-11
1.78e-10
1.72799e-10
2.29276e-10
3.90379e-11
-1.76636e-10
-1.0743e-10
5.31901e-10
1.08624e-10
-2.05266e-10
9.12676e-10
-7.81558e-10
7.70333e-10
-7.65813e-10
4.74662e-10
5.82635e-10
-6.64913e-10
2.53001e-10
3.59247e-10
-3.02422e-10
-5.08335e-10
-1.80768e-10
3.84651e-10
4.45561e-10
-1.50071e-12
-4.04583e-11
7.36103e-11
1.34952e-10
-3.20207e-10
7.64047e-10
3.16594e-10
6.02011e-10
3.56568e-10
-2.86392e-11
-1.00261e-09
1.38316e-09
1.41928e-10
-6.01534e-10
1.34471e-10
7.96504e-11
-4.70078e-10
-3.539e-10
1.63805e-10
2.0813e-10
-3.22637e-11
1.32926e-10
1.78644e-10
-1.34892e-10
-6.14043e-11
1.19414e-09
-3.05141e-11
2.09648e-09
-2.12033e-09
1.68698e-09
-3.03073e-09
-8.3676e-12
1.04514e-09
-3.60251e-10
-2.12785e-10
8.96617e-11
-2.22422e-10
-3.81698e-10
-2.7964e-10
-1.72284e-10
2.32732e-11
2.62032e-10
1.73857e-10
1.50007e-10
7.4444e-10
4.1294e-10
-1.9137e-10
6.2351e-10
-2.29488e-09
2.81994e-09
3.74023e-10
-3.36649e-09
3.4312e-10
1.44532e-10
-2.80748e-10
-6.17571e-11
-4.95543e-11
-3.17072e-10
-5.03549e-10
-3.77655e-10
4.87522e-12
2.47646e-10
1.35728e-10
5.92523e-10
1.8741e-09
-1.804e-10
-3.60866e-10
-1.72488e-09
1.69875e-09
-2.57119e-10
7.96777e-09
-2.20503e-09
-1.20986e-09
2.14335e-10
-4.92459e-11
-1.02198e-10
-1.56675e-11
-2.06623e-10
-4.47938e-10
-4.14646e-10
-1.26502e-10
9.17444e-11
7.87469e-11
7.11344e-10
7.64558e-10
1.04945e-10
3.0054e-10
-2.79824e-09
2.1463e-08
-6.04615e-09
8.56879e-09
2.83424e-09
-7.41435e-10
-1.7066e-10
-1.73004e-10
-2.98797e-10
-1.74095e-10
-6.69673e-11
-1.33492e-10
-2.29909e-10
-1.86472e-10
-1.0712e-10
-3.58273e-11
1.22054e-09
-7.02266e-10
3.75611e-10
1.20948e-09
3.5029e-09
-1.92005e-08
2.68252e-09
-1.41835e-08
7.50936e-10
1.28221e-10
-7.5665e-10
-4.62595e-10
-3.50044e-10
-1.77764e-10
1.21129e-10
1.89747e-10
-1.99468e-11
-2.1584e-10
-2.91109e-10
-1.4879e-10
)
;

boundaryField
{
    sides
    {
        type            calculated;
        value           nonuniform List<scalar> 
40
(
1.22054e-09
-7.02266e-10
3.75611e-10
1.20948e-09
3.5029e-09
-1.92005e-08
2.68252e-09
-1.41835e-08
7.50936e-10
1.28221e-10
-7.5665e-10
-4.62595e-10
-3.50044e-10
-1.77764e-10
1.21129e-10
1.89747e-10
-1.99468e-11
-2.1584e-10
-2.91109e-10
-1.4879e-10
-4.32131e-10
-1.11454e-09
4.30866e-10
-7.53657e-10
2.31742e-09
-1.42693e-08
-7.99625e-09
-1.03493e-08
3.68571e-09
1.84603e-09
6.56284e-10
5.33522e-10
1.07251e-10
-1.77369e-10
5.11233e-12
2.28253e-10
2.17847e-10
1.17849e-10
-8.5845e-12
-4.34109e-11
)
;
    }
    inlet
    {
        type            calculated;
        value           nonuniform List<scalar> 
20
(
-4.32131e-10
-4.60245e-10
-8.4418e-10
-7.57567e-10
-6.65154e-10
-1.97413e-10
1.67606e-10
2.26928e-11
-3.14605e-10
-2.61191e-10
-4.44714e-11
1.48893e-10
4.32428e-10
5.31901e-10
1.34952e-10
-1.34892e-10
1.50007e-10
5.92523e-10
7.11344e-10
1.22054e-09
)
;
    }
    outlet
    {
        type            calculated;
        value           uniform 0;
    }
    frontAndBack
    {
        type            empty;
    }
}


// ************************************************************************* //
