/*--------------------------------*- C++ -*----------------------------------*\
  =========                 |
  \\      /  F ield         | OpenFOAM: The Open Source CFD Toolbox
   \\    /   O peration     | Website:  https://openfoam.org
    \\  /    A nd           | Version:  7
     \\/     M anipulation  |
\*---------------------------------------------------------------------------*/
FoamFile
{
    version     2.0;
    format      ascii;
    class       surfaceScalarField;
    location    "72";
    object      ddtCorrDdt0(phi);
}
// * * * * * * * * * * * * * * * * * * * * * * * * * * * * * * * * * * * * * //

dimensions      [0 4 -2 0 0 0 0];

internalField   nonuniform List<scalar> 
760
(
5.60634e-13
5.02219e-13
6.56445e-13
-2.93572e-13
-9.56875e-13
-5.49827e-13
6.92017e-13
-1.86231e-13
-2.98618e-12
4.20128e-13
-1.00593e-12
-2.49265e-10
-2.31467e-11
2.59074e-10
8.1175e-12
4.19998e-10
5.37537e-12
1.7044e-11
9.6895e-13
7.57579e-13
-2.90649e-13
2.6776e-14
-7.03141e-13
-1.86484e-13
-1.44135e-12
-4.36867e-13
-1.59245e-12
-5.1358e-13
-7.88335e-13
-3.05094e-13
2.29707e-13
-1.81647e-13
5.20273e-13
-1.7742e-13
3.70266e-13
-3.41679e-13
2.71529e-13
-3.53782e-13
5.88304e-14
-4.71274e-13
4.06177e-13
5.00479e-14
-1.16079e-13
-4.47429e-13
-1.12739e-12
1.90854e-12
-6.22378e-13
-3.46542e-12
-2.49743e-12
1.07227e-11
8.38889e-12
1.51884e-11
-1.55517e-11
-7.72056e-12
-1.59648e-11
-1.26255e-12
9.48765e-13
-1.57947e-12
-4.20721e-13
-7.73156e-13
-2.98199e-13
-7.8436e-13
-1.08024e-13
-1.02109e-12
-3.8709e-13
-9.92893e-13
-5.30765e-13
-5.02743e-13
-3.49976e-13
1.0215e-13
-3.97035e-13
2.08329e-13
-5.40292e-13
1.66214e-13
-7.16509e-13
4.11873e-13
-5.73661e-13
1.50028e-13
-6.44417e-13
-4.71567e-13
-8.09323e-13
-3.04736e-13
2.01387e-13
-9.81369e-13
-1.63281e-12
-6.18796e-13
3.88589e-12
-2.42796e-12
-5.99028e-12
1.17718e-12
2.85507e-12
-1.85107e-14
3.67171e-12
4.08259e-12
-3.22149e-12
-2.73341e-13
-1.706e-12
-1.5324e-12
-8.58098e-13
-5.98262e-14
-1.1919e-12
2.42411e-14
-8.67455e-13
-1.61611e-13
-3.75368e-13
-2.86207e-13
-1.30873e-13
-3.32019e-13
4.50477e-14
-7.70784e-13
1.6595e-14
-1.03401e-12
1.57519e-13
-1.0175e-12
7.26399e-13
-3.82064e-13
6.22754e-13
-2.71831e-13
-7.1785e-13
-8.68942e-13
-6.57986e-13
4.67806e-13
-8.15023e-13
-1.94885e-12
-1.13999e-12
3.91848e-12
-7.72482e-13
-4.28596e-12
-3.25092e-12
5.84596e-12
1.37293e-12
-3.19313e-13
-6.20874e-14
-3.53864e-12
-3.64553e-12
1.9706e-13
2.23851e-13
-2.73952e-13
8.28333e-13
-9.18172e-13
2.5444e-13
-4.75374e-13
2.40781e-13
-1.0149e-13
-7.62936e-14
-3.21369e-13
-5.95329e-13
-5.46432e-13
-1.31804e-12
-4.15804e-13
-1.485e-12
-1.7074e-15
-1.10119e-12
6.88865e-13
2.65017e-14
1.07971e-12
1.77046e-13
-4.90005e-13
-4.63334e-13
-9.58118e-13
4.07197e-13
-7.05339e-13
-6.20929e-13
-1.75109e-12
7.31515e-13
1.26292e-13
-7.51883e-13
-2.94186e-12
1.91374e-12
-5.49375e-14
-4.52901e-12
-3.4708e-12
1.41818e-13
-3.08795e-13
9.15146e-13
1.56019e-12
-5.9732e-13
7.1237e-13
-2.65235e-13
5.5207e-13
1.86537e-13
6.02935e-13
1.25366e-13
-2.06455e-13
-4.25468e-13
-1.19929e-12
-8.44622e-13
-2.02255e-12
-4.7116e-13
-1.81178e-12
2.1405e-13
-1.02278e-12
4.38337e-13
3.28462e-13
1.42557e-12
-2.703e-14
-1.75723e-13
8.20495e-14
-1.00944e-12
-3.68068e-13
-1.03487e-12
9.53067e-13
-1.74707e-12
-1.3543e-12
-1.64844e-12
1.50729e-12
-9.59308e-13
-1.16553e-12
-1.19407e-12
-1.07982e-12
-1.0702e-12
2.02556e-12
1.55183e-12
-1.94845e-13
8.55348e-13
-8.6271e-13
6.12245e-13
-2.76044e-14
1.20504e-12
-2.49386e-13
5.56598e-13
-6.09224e-13
-8.42911e-13
-7.20171e-13
-1.92481e-12
-6.04097e-13
-2.7342e-12
2.03911e-13
-2.19131e-12
9.53427e-13
-1.18496e-12
4.03853e-13
1.11883e-13
1.41817e-12
-2.50425e-13
-3.32895e-14
5.4455e-13
-6.6465e-13
-5.37473e-13
-1.80709e-12
7.91353e-13
-1.30791e-12
-1.16056e-12
-2.58624e-12
6.27353e-13
-1.1582e-12
-1.52319e-12
-1.58335e-12
1.03399e-12
-5.81439e-14
5.98682e-13
7.20145e-13
-6.83413e-13
1.19141e-13
2.38298e-13
1.13825e-12
2.06261e-13
1.32776e-12
-5.45887e-13
-4.26976e-14
-8.02454e-13
-1.30403e-12
-6.64017e-13
-1.89072e-12
-2.33182e-13
-2.53012e-12
5.87719e-13
-2.13906e-12
8.61487e-13
-1.60504e-12
-1.49296e-13
-7.10406e-13
1.04683e-12
-1.46679e-13
-1.51322e-13
-7.04809e-14
-3.92335e-13
1.77461e-13
-1.53658e-12
-3.89023e-13
-1.95274e-12
5.61672e-15
-2.32762e-12
-2.63511e-13
-1.91107e-12
-4.00202e-13
-1.51244e-12
1.1937e-12
-4.96815e-14
-6.05396e-13
-9.71254e-14
1.90879e-13
6.08976e-13
4.30211e-13
1.01573e-12
-1.14851e-12
3.25836e-13
-1.24607e-12
-2.79354e-13
-6.81845e-13
-9.65493e-13
-4.66082e-13
-1.51707e-12
1.73649e-13
-2.06533e-12
1.02874e-12
-1.83998e-12
1.06481e-12
-1.99345e-12
1.00763e-13
-1.48031e-12
7.51485e-13
2.6665e-13
1.40087e-14
-5.32782e-13
-1.00168e-12
1.73292e-13
-1.092e-12
-5.78633e-13
-2.14617e-12
3.36564e-13
-1.87741e-12
-2.39129e-13
-2.08588e-12
3.82706e-13
-1.25067e-12
2.99155e-13
-3.53898e-13
-5.24268e-13
-3.10996e-13
2.77552e-13
8.12487e-13
-2.56114e-13
3.9867e-13
-1.10953e-12
-9.64752e-14
-4.96338e-13
4.06487e-13
4.34909e-14
-3.06747e-13
-3.49245e-14
-1.46919e-12
5.00083e-14
-2.01303e-12
1.60557e-13
-1.54739e-12
1.27354e-13
-1.76383e-12
1.69846e-13
-1.44303e-12
7.66209e-13
-1.10745e-13
-1.62061e-13
-6.49263e-14
-1.03616e-12
-3.90254e-13
-1.44946e-12
-3.94672e-14
-1.85939e-12
5.66808e-14
-1.68844e-12
2.87576e-13
-1.53699e-12
6.23384e-13
-1.01861e-12
-3.16335e-13
-3.66544e-13
1.31409e-13
7.57032e-14
-4.17517e-13
7.92675e-13
-4.43861e-13
8.41996e-13
4.23219e-13
6.32436e-13
1.19401e-13
4.57703e-13
-2.68971e-13
-4.35632e-13
2.30075e-13
-1.37914e-12
2.65411e-13
-2.21159e-12
-7.03194e-13
-1.99594e-12
-9.14202e-13
-1.67304e-12
3.39338e-13
-6.24346e-13
1.32341e-12
-2.67989e-13
-5.13461e-13
1.61852e-13
-7.65667e-13
-4.32894e-13
-1.86638e-12
1.93071e-13
-1.422e-12
-3.03665e-14
-1.72224e-12
3.5057e-13
-1.04495e-12
6.15225e-13
-1.02426e-12
-5.31437e-13
-4.65843e-13
2.98583e-13
5.1436e-13
-6.32773e-13
5.89591e-13
-4.05373e-13
1.43219e-12
1.07268e-12
1.42665e-12
5.36373e-13
1.26491e-14
-1.05873e-13
-9.93131e-13
5.15378e-13
-1.34091e-12
3.99215e-13
-2.46219e-12
-9.91272e-13
-2.64543e-12
-1.42279e-12
-1.63309e-12
-1.99837e-14
2.9925e-13
1.89748e-12
2.61159e-13
-3.85523e-13
-1.89576e-13
-1.16672e-12
2.68444e-13
-1.43096e-12
-2.50909e-13
-1.27231e-12
2.21369e-13
-1.65046e-12
-3.36291e-13
-1.33926e-12
4.48261e-13
-1.2019e-12
-1.99338e-13
-1.12408e-12
-1.0297e-13
3.76133e-13
2.35716e-13
3.79342e-13
-1.53748e-13
9.28558e-13
3.14014e-14
1.4131e-12
4.86056e-13
3.84727e-13
5.12247e-13
-9.44028e-13
2.97001e-13
-1.75935e-12
1.06348e-15
-2.89463e-12
-4.29837e-13
-2.796e-12
-5.34094e-13
-1.53303e-12
-1.35112e-13
4.89269e-13
1.96158e-12
2.15857e-13
-4.06866e-13
8.0795e-14
-1.00322e-12
7.82205e-13
-6.64271e-13
-5.14185e-13
-2.09519e-12
3.00684e-13
-1.41599e-12
-8.19041e-13
-2.21653e-12
-1.69508e-13
-9.70709e-13
6.71855e-13
-1.48733e-12
-7.43441e-13
-2.25085e-13
6.71082e-13
8.64167e-13
7.44148e-13
3.41301e-13
-3.89513e-13
3.28705e-13
1.12716e-13
4.12664e-13
6.08616e-13
-5.38916e-13
2.22992e-13
-1.62194e-12
1.1864e-13
-2.54347e-12
4.04117e-13
-2.37771e-12
1.57803e-13
-1.65402e-12
-6.70956e-13
-1.80027e-13
1.47137e-12
1.33688e-13
-2.18133e-13
8.72645e-13
-4.47792e-13
-5.24993e-14
-1.29043e-12
4.29834e-13
-2.18235e-12
-5.25622e-13
-1.51071e-12
1.3944e-13
-2.75371e-12
-1.18402e-12
-7.36192e-13
1.64216e-12
-6.74688e-13
-8.74252e-14
-1.35559e-12
-3.17973e-13
8.71745e-13
7.77526e-13
1.05951e-12
2.48778e-13
2.29022e-13
-7.95715e-14
4.64813e-14
3.58701e-14
-6.10384e-13
8.34117e-14
-1.33802e-12
3.78696e-13
-1.99163e-12
9.70746e-13
-1.96246e-12
8.32006e-13
-1.84559e-12
-4.8586e-13
-8.45582e-13
9.99952e-13
4.10258e-13
1.26211e-13
7.48797e-13
-3.72973e-13
-4.91332e-13
-1.83959e-12
1.38519e-12
-1.44252e-12
-1.76485e-12
-2.93504e-12
1.52197e-12
-6.92942e-13
-2.19634e-12
-7.36982e-13
2.44085e-13
1.74503e-12
1.84214e-12
-9.81062e-13
-2.41828e-13
-5.73783e-13
2.04108e-13
8.25633e-13
1.02225e-12
6.35312e-13
7.12239e-13
1.76867e-14
3.60237e-13
-6.05723e-13
1.73552e-13
-9.71087e-13
-3.07685e-14
-1.44404e-12
2.55574e-13
-1.43528e-12
3.58446e-13
-1.54124e-12
-5.20899e-13
-1.09749e-12
5.69004e-13
4.46577e-13
4.25315e-13
-1.62018e-13
-5.78226e-13
8.55926e-15
-1.68345e-12
5.66176e-13
-1.2121e-12
-4.17462e-13
-2.47272e-12
1.47528e-12
2.223e-12
-4.65816e-13
-3.69546e-12
-3.09718e-12
3.34599e-12
2.01098e-12
1.99055e-12
1.10646e-12
-6.5831e-13
-2.697e-14
1.43882e-13
4.91275e-13
6.51386e-13
5.87034e-13
1.54968e-13
4.23933e-13
-5.23099e-13
1.3378e-13
-9.15065e-13
-2.26102e-13
-1.29971e-12
-3.42429e-14
-1.09582e-12
2.34896e-13
-1.01711e-12
-1.48794e-14
-7.53992e-13
4.65358e-13
-6.39372e-14
2.19191e-14
-9.22326e-13
-7.61021e-13
9.15466e-13
-5.90876e-13
-1.42954e-12
-8.39306e-13
3.3771e-12
1.92374e-13
-3.76003e-12
-7.82726e-13
6.28952e-12
-1.97039e-12
-5.10796e-12
-8.06106e-12
-1.71473e-12
2.82514e-12
1.59141e-12
9.85919e-13
7.84005e-13
-1.79597e-13
5.88733e-13
1.23564e-13
8.50175e-13
7.33518e-14
8.54879e-13
-3.58859e-13
4.06872e-13
-7.7464e-13
-1.59102e-13
-1.09292e-12
-3.72786e-13
-7.79554e-13
-3.67144e-13
-5.51963e-13
-8.62975e-14
-2.01447e-13
6.07856e-13
-1.1449e-12
-1.32666e-12
-1.75694e-12
-7.53047e-13
1.35356e-12
1.05645e-12
-1.44014e-12
-1.08372e-13
5.79079e-12
1.78965e-12
-8.94976e-12
-7.08907e-12
7.81954e-12
-1.73388e-12
2.88854e-12
-1.36153e-11
-4.07119e-12
-2.91823e-12
5.17364e-13
1.19665e-12
1.38741e-12
3.52301e-13
9.3007e-13
-4.93895e-14
9.00389e-13
-6.17528e-14
8.05269e-13
-2.52956e-13
4.23565e-13
-5.8511e-13
-9.88291e-14
-8.23498e-13
-5.8008e-13
-5.60693e-13
-8.38601e-13
-2.54013e-13
-3.3207e-13
1.20201e-13
5.13776e-13
-1.66685e-13
-1.34217e-12
2.02465e-13
-5.73235e-14
-1.68681e-13
1.3331e-12
1.3415e-12
1.30479e-13
6.52468e-12
-1.52919e-12
-1.06063e-11
-1.85354e-10
-9.68664e-13
4.62831e-10
1.57211e-11
3.76203e-10
5.72494e-13
1.34747e-11
-4.14485e-13
3.18564e-13
6.65591e-13
4.26549e-13
8.31541e-13
-5.07632e-14
8.47794e-13
-2.14586e-13
7.6733e-13
-2.85185e-13
6.75727e-13
-3.73286e-13
4.07461e-13
-4.57988e-13
-2.03715e-13
-2.89238e-13
-6.76828e-13
-6.58923e-14
-4.6353e-13
2.05541e-13
3.68394e-13
1.09408e-12
2.44152e-12
-9.08294e-13
5.85513e-13
-1.34424e-11
2.03776e-11
-1.07596e-11
-1.25805e-11
2.87722e-12
-4.81583e-13
-2.87977e-13
6.92672e-13
1.08411e-12
9.92758e-13
8.89991e-13
5.69261e-13
-1.58513e-13
-7.47965e-13
-6.77715e-13
)
;

boundaryField
{
    sides
    {
        type            calculated;
        value           uniform 0;
    }
    inlet
    {
        type            calculated;
        value           uniform 0;
    }
    outlet
    {
        type            calculated;
        value           nonuniform List<scalar> 
20
(
5.06549e-14
4.61694e-13
8.68478e-13
9.86677e-13
2.25738e-13
-4.10726e-13
-1.05518e-12
-6.37445e-13
1.97828e-13
1.2107e-12
1.04938e-12
1.7992e-13
-1.06668e-12
-1.28989e-12
-1.08773e-12
-1.1214e-13
3.07888e-13
4.24615e-13
-7.87191e-15
-3.02008e-13
)
;
    }
    frontAndBack
    {
        type            empty;
        value           nonuniform 0();
    }
}


// ************************************************************************* //
