/*--------------------------------*- C++ -*----------------------------------*\
  =========                 |
  \\      /  F ield         | OpenFOAM: The Open Source CFD Toolbox
   \\    /   O peration     | Website:  https://openfoam.org
    \\  /    A nd           | Version:  7
     \\/     M anipulation  |
\*---------------------------------------------------------------------------*/
FoamFile
{
    version     2.0;
    format      ascii;
    class       volVectorField;
    location    "72";
    object      ddtCorrDdt0(hU);
}
// * * * * * * * * * * * * * * * * * * * * * * * * * * * * * * * * * * * * * //

dimensions      [0 2 -2 0 0 0 0];

internalField   nonuniform List<vector> 
400
(
(8.60988e-11 6.68726e-11 0)
(4.5956e-11 -6.58472e-11 0)
(9.96241e-12 -1.42097e-10 0)
(-8.74712e-11 -7.39024e-11 0)
(2.5516e-10 5.14274e-11 0)
(-1.03497e-09 -3.70375e-10 0)
(-2.06042e-09 -3.09973e-10 0)
(-2.03259e-09 2.43493e-09 0)
(1.75676e-09 7.81937e-10 0)
(7.07193e-10 1.38566e-10 0)
(-5.06928e-12 -9.04952e-12 0)
(-9.64959e-11 -4.56545e-11 0)
(-2.23021e-10 -8.73522e-11 0)
(-3.24663e-10 -1.03707e-10 0)
(-2.46834e-10 -9.07862e-11 0)
(-5.54174e-11 -9.28622e-11 0)
(9.06054e-11 -7.09369e-11 0)
(8.08788e-11 -6.0735e-11 0)
(9.41861e-11 -8.57338e-12 0)
(1.42494e-11 6.50266e-11 0)
(-1.68606e-11 1.49892e-10 0)
(-5.05301e-11 2.3544e-12 0)
(-6.41409e-11 -1.30942e-10 0)
(1.42896e-10 5.39381e-12 0)
(-4.55976e-10 -2.05572e-10 0)
(1.10756e-09 2.23379e-10 0)
(2.54392e-09 -8.40449e-10 0)
(9.48896e-10 1.25933e-09 0)
(-1.07011e-09 8.31102e-10 0)
(-3.33994e-10 1.06614e-11 0)
(-2.28599e-10 -1.04464e-10 0)
(-1.45491e-10 -1.05177e-10 0)
(-1.89925e-10 -1.38036e-10 0)
(-2.10941e-10 -9.83168e-11 0)
(-1.52901e-10 -1.29262e-11 0)
(-4.62166e-11 1.22322e-11 0)
(3.94379e-11 -2.46038e-11 0)
(3.13828e-11 -8.23059e-11 0)
(8.98267e-11 -1.07538e-10 0)
(7.00209e-11 -2.12548e-11 0)
(-7.09658e-11 -7.71329e-12 0)
(-1.04086e-10 -3.75875e-11 0)
(-1.51244e-10 -1.71607e-10 0)
(-3.05297e-11 -1.31642e-10 0)
(-3.51722e-11 -5.14713e-10 0)
(2.7343e-10 4.42449e-10 0)
(-7.99232e-10 -4.75309e-10 0)
(9.12615e-10 -8.99525e-10 0)
(6.65954e-11 -5.34232e-11 0)
(-6.049e-10 -1.61244e-10 0)
(-2.11202e-10 2.97627e-11 0)
(-2.04673e-10 3.37283e-11 0)
(-2.24558e-10 -4.60748e-11 0)
(-1.1957e-10 -9.36455e-11 0)
(-4.99463e-11 -8.85974e-11 0)
(-2.14849e-11 -1.39277e-10 0)
(1.37681e-11 -1.69726e-10 0)
(7.34335e-12 -1.78798e-10 0)
(1.33775e-10 -8.41482e-11 0)
(1.32842e-10 9.88371e-11 0)
(-3.10136e-11 -1.58397e-10 0)
(-9.7313e-11 -1.38147e-10 0)
(-9.77263e-11 -1.79465e-10 0)
(-1.04542e-10 -2.3253e-10 0)
(1.72467e-10 -1.97929e-10 0)
(-3.16127e-11 -4.23498e-10 0)
(7.07497e-11 1.60186e-10 0)
(8.56301e-10 1.30329e-10 0)
(-6.32137e-10 -5.64101e-10 0)
(-3.18369e-10 -1.35421e-10 0)
(5.22394e-11 7.94021e-11 0)
(-1.45166e-10 3.77694e-11 0)
(-1.51408e-10 2.60919e-11 0)
(-4.90774e-11 -2.98173e-11 0)
(-4.42385e-11 -1.01665e-10 0)
(-1.01531e-10 -2.26774e-10 0)
(-9.36454e-11 -2.68406e-10 0)
(-4.71771e-11 -2.23386e-10 0)
(1.03815e-10 -4.06071e-11 0)
(1.50573e-10 1.74334e-10 0)
(1.08584e-11 -1.07112e-10 0)
(-5.23181e-11 -1.41303e-10 0)
(7.50674e-12 -1.11297e-10 0)
(-8.24069e-11 -2.51987e-10 0)
(1.83515e-10 -9.78642e-12 0)
(-2.20273e-10 -5.4239e-10 0)
(3.3028e-10 1.09262e-10 0)
(-3.67658e-10 -3.85004e-10 0)
(-5.21442e-10 -3.62993e-10 0)
(2.25647e-10 1.76451e-10 0)
(1.27176e-11 1.28351e-10 0)
(-1.12284e-10 6.57466e-11 0)
(8.24843e-12 8.59055e-11 0)
(3.53726e-11 -1.59301e-11 0)
(-3.80461e-11 -1.59196e-10 0)
(-1.35792e-10 -3.0663e-10 0)
(-1.30569e-10 -3.11294e-10 0)
(-3.80805e-11 -2.06574e-10 0)
(9.32775e-11 2.0758e-11 0)
(5.63256e-11 2.27699e-10 0)
(3.04352e-11 -5.86888e-11 0)
(-4.14649e-11 -2.0348e-10 0)
(5.75482e-13 -2.10455e-10 0)
(-8.36413e-12 -3.80087e-10 0)
(6.74165e-11 -2.2442e-10 0)
(-6.79647e-11 -3.72305e-10 0)
(1.35007e-10 -1.3597e-10 0)
(-3.63952e-10 -3.89089e-10 0)
(1.76489e-10 1.85989e-10 0)
(2.34826e-10 2.79772e-10 0)
(-1.7291e-10 1.64283e-10 0)
(-8.29694e-11 2.02352e-10 0)
(-4.94062e-12 1.20626e-10 0)
(-1.08071e-10 -1.2657e-10 0)
(-1.53187e-10 -3.4675e-10 0)
(-1.25773e-10 -5.12224e-10 0)
(-2.54979e-11 -4.21596e-10 0)
(9.62331e-11 -2.3171e-10 0)
(1.71098e-10 5.67474e-11 0)
(-1.47154e-11 3.14225e-10 0)
(2.7731e-11 -2.35749e-11 0)
(-3.16614e-12 -1.57722e-10 0)
(-1.22254e-11 -2.7517e-10 0)
(6.30502e-11 -2.89119e-10 0)
(-7.52388e-11 -4.2118e-10 0)
(-9.91969e-12 -2.27303e-10 0)
(-1.24074e-10 -2.98868e-10 0)
(-7.58998e-11 -1.38307e-10 0)
(2.47653e-10 1.88882e-10 0)
(-5.05782e-11 5.04818e-11 0)
(-6.64357e-11 1.43944e-10 0)
(8.07348e-11 2.3869e-10 0)
(-2.72164e-11 4.71417e-11 0)
(-1.62358e-10 -2.04593e-10 0)
(-1.6344e-10 -3.59229e-10 0)
(-7.64831e-11 -4.99853e-10 0)
(5.14276e-11 -4.17601e-10 0)
(1.25095e-10 -2.73516e-10 0)
(8.11666e-11 -7.27469e-11 0)
(-1.18949e-10 2.27211e-10 0)
(4.79624e-12 -1.93743e-11 0)
(5.66239e-12 -1.07382e-10 0)
(-5.10307e-11 -3.34553e-10 0)
(4.19604e-11 -3.35645e-10 0)
(-9.59481e-11 -4.9705e-10 0)
(2.67406e-11 -3.07995e-10 0)
(-1.33472e-10 -3.02006e-10 0)
(1.34594e-10 9.52255e-12 0)
(7.30024e-11 8.31543e-11 0)
(-8.63568e-11 9.5981e-11 0)
(1.05188e-10 2.38792e-10 0)
(-6.95101e-11 1.72115e-10 0)
(-2.73064e-10 -4.56383e-11 0)
(-1.97114e-10 -2.48737e-10 0)
(-1.20139e-10 -3.62796e-10 0)
(-3.28569e-11 -4.83183e-10 0)
(1.38206e-10 -4.13299e-10 0)
(2.08023e-10 -3.62746e-10 0)
(1.35384e-10 -2.02181e-10 0)
(-6.80136e-11 1.99593e-10 0)
(5.52758e-12 -1.20798e-11 0)
(-8.15641e-13 -1.46472e-10 0)
(-5.63445e-11 -2.68602e-10 0)
(-3.14848e-11 -4.10516e-10 0)
(-3.3223e-11 -4.16843e-10 0)
(2.47027e-11 -3.9048e-10 0)
(-1.06377e-11 -2.69705e-10 0)
(1.05982e-10 -4.12814e-11 0)
(-4.24316e-11 -5.39091e-11 0)
(-2.79448e-11 1.3211e-10 0)
(2.98872e-11 1.32296e-10 0)
(-1.63949e-10 1.66905e-11 0)
(-1.80435e-10 2.15278e-11 0)
(-2.03841e-11 -1.08316e-10 0)
(7.68791e-12 -2.807e-10 0)
(-2.02705e-11 -3.96734e-10 0)
(2.18931e-11 -3.38511e-10 0)
(4.76294e-11 -3.82027e-10 0)
(3.35659e-11 -3.06015e-10 0)
(2.59986e-11 1.40571e-10 0)
(-1.85861e-11 -1.26193e-11 0)
(-4.13666e-11 -2.04657e-10 0)
(-1.77301e-11 -2.58497e-10 0)
(-6.59762e-11 -4.01291e-10 0)
(2.61301e-11 -3.58348e-10 0)
(1.25338e-11 -3.64915e-10 0)
(1.2031e-10 -2.27498e-10 0)
(1.42678e-11 -6.99052e-11 0)
(-2.42433e-11 -2.00396e-11 0)
(-7.04467e-12 1.68907e-10 0)
(-1.13982e-10 1.26078e-10 0)
(-4.55163e-12 5.18733e-11 0)
(7.36333e-11 8.96753e-11 0)
(-9.31881e-12 -7.38303e-11 0)
(-7.51049e-12 -2.90991e-10 0)
(3.3213e-11 -4.28404e-10 0)
(-4.53517e-11 -3.55444e-10 0)
(-1.46861e-10 -3.4348e-10 0)
(-5.76993e-11 -2.05111e-10 0)
(1.51035e-10 2.11218e-10 0)
(-2.15627e-11 -6.75579e-11 0)
(-4.40581e-11 -1.76414e-10 0)
(1.53126e-11 -3.27302e-10 0)
(-6.03357e-11 -3.28514e-10 0)
(4.46759e-11 -3.45702e-10 0)
(-5.01819e-13 -2.65115e-10 0)
(1.45211e-10 -2.10468e-10 0)
(-2.16014e-11 -8.42771e-11 0)
(-2.66763e-11 6.25917e-11 0)
(-7.51758e-12 1.43101e-10 0)
(-1.4821e-10 2.34553e-10 0)
(7.14763e-11 2.1e-10 0)
(1.90913e-10 4.31895e-11 0)
(4.14804e-11 -1.49912e-10 0)
(4.03353e-11 -2.7746e-10 0)
(8.78845e-11 -4.72184e-10 0)
(-6.30404e-11 -4.66937e-10 0)
(-2.26366e-10 -3.31362e-10 0)
(-1.65879e-10 -2.90159e-11 0)
(1.09347e-10 3.27503e-10 0)
(1.76265e-11 -9.05375e-11 0)
(2.19507e-11 -1.87022e-10 0)
(2.26276e-11 -3.26467e-10 0)
(-2.48979e-11 -2.71468e-10 0)
(3.00897e-12 -3.35099e-10 0)
(-2.10158e-11 -2.35518e-10 0)
(2.15805e-11 -2.2386e-10 0)
(3.48169e-11 -1.65809e-10 0)
(-5.98321e-11 7.98229e-11 0)
(3.19681e-11 8.10574e-11 0)
(1.79682e-11 2.3133e-10 0)
(-3.19662e-11 2.90529e-10 0)
(4.78461e-11 4.50988e-11 0)
(1.19913e-10 -1.86214e-10 0)
(9.13704e-11 -2.97719e-10 0)
(1.67978e-11 -5.25571e-10 0)
(-4.92205e-11 -5.4228e-10 0)
(-8.64986e-11 -3.20564e-10 0)
(-8.05024e-11 6.76133e-11 0)
(1.21869e-11 3.785e-10 0)
(1.96061e-11 -7.71274e-11 0)
(7.81627e-11 -2.1431e-10 0)
(4.03316e-11 -2.16289e-10 0)
(6.25339e-11 -3.43153e-10 0)
(-6.6982e-11 -3.10932e-10 0)
(-9.00832e-12 -3.54376e-10 0)
(-1.51877e-10 -2.07213e-10 0)
(1.05347e-10 -2.43069e-10 0)
(-4.01442e-11 4.54871e-11 0)
(-3.56026e-11 1.50382e-10 0)
(2.01531e-10 1.44399e-10 0)
(2.45622e-11 1.86089e-10 0)
(-6.00179e-11 7.72044e-11 0)
(8.60983e-11 -1.69528e-10 0)
(9.77515e-11 -3.68318e-10 0)
(3.7068e-11 -5.70322e-10 0)
(5.25711e-11 -5.27441e-10 0)
(6.02363e-11 -3.18527e-10 0)
(-8.16985e-11 4.57856e-11 0)
(-1.57122e-10 3.62767e-10 0)
(2.32217e-11 -6.24136e-11 0)
(1.0267e-10 -1.5244e-10 0)
(5.88873e-11 -1.86101e-10 0)
(1.06253e-10 -4.11759e-10 0)
(-1.01829e-10 -2.82146e-10 0)
(3.88278e-11 -4.85081e-10 0)
(-1.71275e-10 -1.84063e-10 0)
(6.8434e-11 -2.4755e-10 0)
(1.98701e-10 -1.89042e-10 0)
(-1.07187e-10 1.40258e-10 0)
(6.84607e-11 1.02801e-10 0)
(1.31499e-10 3.39843e-11 0)
(-4.79263e-13 4.99007e-11 0)
(-2.3029e-11 -9.52059e-11 0)
(9.63831e-12 -2.72358e-10 0)
(7.03752e-11 -4.28606e-10 0)
(1.46737e-10 -4.19914e-10 0)
(1.70729e-10 -3.46743e-10 0)
(1.89229e-11 -1.18823e-10 0)
(-1.69189e-10 2.25842e-10 0)
(7.87756e-12 -2.98539e-11 0)
(8.57453e-11 -1.14333e-10 0)
(8.94551e-11 -3.27832e-10 0)
(6.81448e-11 -4.05836e-10 0)
(-3.06132e-11 -4.43503e-10 0)
(-2.9344e-11 -3.82307e-10 0)
(-4.58452e-11 -1.56203e-10 0)
(-3.01453e-10 8.79915e-11 0)
(3.01767e-10 -2.11741e-10 0)
(1.52155e-10 8.01569e-11 0)
(-5.0478e-11 2.25126e-10 0)
(1.52264e-10 1.04029e-10 0)
(1.98277e-10 1.05134e-11 0)
(9.02053e-11 -1.34345e-10 0)
(4.80736e-11 -2.59792e-10 0)
(3.77399e-11 -3.84464e-10 0)
(1.90939e-11 -3.69469e-10 0)
(5.23944e-11 -3.51187e-10 0)
(-4.49878e-11 -1.77774e-10 0)
(-1.3998e-10 1.86558e-10 0)
(-2.28703e-11 5.20996e-11 0)
(1.58041e-11 -7.30553e-11 0)
(6.55179e-11 -3.07883e-10 0)
(-2.93938e-11 -2.08294e-10 0)
(1.65245e-10 -4.93628e-10 0)
(-1.09365e-10 9.37484e-11 0)
(3.35573e-10 -3.99987e-10 0)
(-5.60986e-10 4.53e-10 0)
(-8.43976e-11 5.59177e-11 0)
(3.98399e-10 -1.477e-10 0)
(6.40218e-11 7.88405e-11 0)
(3.74618e-11 1.09267e-10 0)
(1.32052e-10 1.12759e-11 0)
(9.86677e-11 -9.82351e-11 0)
(5.15909e-11 -1.64671e-10 0)
(-1.67656e-12 -2.49636e-10 0)
(-3.6386e-11 -2.39178e-10 0)
(2.67481e-11 -2.47981e-10 0)
(1.0718e-11 -1.93061e-10 0)
(-7.13314e-12 8.21653e-11 0)
(-5.88752e-11 1.04485e-10 0)
(-5.74162e-11 -1.29907e-10 0)
(3.04792e-11 -3.70197e-10 0)
(-8.43002e-11 -2.51701e-10 0)
(2.60454e-10 -3.79287e-10 0)
(-2.45279e-10 2.92976e-10 0)
(4.47349e-10 -7.24965e-10 0)
(1.85337e-10 -5.19544e-11 0)
(-9.32027e-10 4.65972e-10 0)
(8.84324e-11 -4.25335e-11 0)
(2.67274e-10 -1.56457e-11 0)
(1.15511e-10 8.24946e-11 0)
(1.55931e-10 2.68894e-11 0)
(1.87496e-10 -8.69355e-11 0)
(1.30583e-10 -1.73411e-10 0)
(2.13759e-11 -2.53004e-10 0)
(-7.22603e-11 -2.02891e-10 0)
(-6.30047e-11 -1.68248e-10 0)
(-6.0649e-11 -9.83508e-11 0)
(2.82475e-11 1.13247e-10 0)
(-1.29101e-10 -7.24015e-11 0)
(-1.79951e-10 -1.26304e-10 0)
(-7.17064e-11 -5.03256e-11 0)
(-3.84643e-12 -1.70749e-10 0)
(2.87203e-10 1.07348e-10 0)
(-1.443e-10 -9.87115e-12 0)
(-4.05339e-10 -9.75486e-10 0)
(1.58675e-09 -1.76213e-09 0)
(-4.2712e-10 1.18768e-10 0)
(-4.16219e-10 2.42175e-10 0)
(2.70812e-10 5.81776e-11 0)
(2.29244e-10 4.41012e-11 0)
(1.81779e-10 9.9726e-12 0)
(1.86253e-10 -7.71744e-11 0)
(1.33989e-10 -1.59523e-10 0)
(3.1676e-11 -2.14303e-10 0)
(-9.03893e-11 -1.4611e-10 0)
(-1.28859e-10 -8.5612e-11 0)
(-1.47846e-10 2.44305e-12 0)
(2.78002e-11 1.32645e-10 0)
(-2.82811e-11 -3.06035e-10 0)
(3.67681e-11 -6.04694e-11 0)
(2.84764e-11 3.85897e-10 0)
(1.51155e-10 9.51458e-11 0)
(7.76967e-11 1.89914e-10 0)
(9.95681e-10 -1.39597e-09 0)
(-2.31603e-09 1.96647e-09 0)
(1.95331e-09 6.49971e-10 0)
(1.66841e-09 -5.15502e-10 0)
(-1.46875e-10 2.08039e-10 0)
(4.29587e-11 5.99425e-11 0)
(1.6401e-10 -6.6767e-11 0)
(1.62981e-10 -6.26572e-11 0)
(1.70009e-10 -4.99899e-11 0)
(1.59433e-10 -5.17947e-11 0)
(1.16842e-10 -5.25737e-11 0)
(4.31584e-12 -2.73549e-11 0)
(-8.29732e-11 -4.37332e-12 0)
(-1.43539e-10 1.09325e-11 0)
(-3.11106e-11 4.04722e-11 0)
(1.64299e-10 -1.87256e-10 0)
(2.79885e-10 -5.42199e-11 0)
(1.53298e-10 1.60219e-10 0)
(-2.21813e-11 1.52207e-11 0)
(-6.47708e-10 -1.13767e-10 0)
(-5.55562e-10 -1.31079e-09 0)
(2.06869e-09 2.55208e-09 0)
(-3.18199e-09 2.11162e-09 0)
(-6.28439e-10 -2.34399e-10 0)
(3.04385e-10 1.39699e-10 0)
(-1.3582e-10 9.84324e-11 0)
(5.05498e-11 -1.1605e-11 0)
(1.83557e-10 -5.23408e-11 0)
(2.08843e-10 -8.23294e-11 0)
(2.05687e-10 -9.94469e-11 0)
(1.63793e-10 -1.11096e-10 0)
(2.77208e-11 -7.13153e-11 0)
(-8.79432e-11 -3.10126e-11 0)
(-1.83994e-10 4.08203e-11 0)
(-7.33643e-11 9.20406e-11 0)
)
;

boundaryField
{
    sides
    {
        type            calculated;
        value           nonuniform List<vector> 
40
(
(1.64299e-10 0 0)
(2.79885e-10 0 0)
(1.53298e-10 0 0)
(-2.21813e-11 0 0)
(-6.47708e-10 0 0)
(-5.55562e-10 0 0)
(2.06869e-09 0 0)
(-3.18199e-09 0 0)
(-6.28439e-10 0 0)
(3.04385e-10 0 0)
(-1.3582e-10 0 0)
(5.05498e-11 0 0)
(1.83557e-10 0 0)
(2.08843e-10 0 0)
(2.05687e-10 0 0)
(1.63793e-10 0 0)
(2.77208e-11 0 0)
(-8.79432e-11 0 0)
(-1.83994e-10 0 0)
(-7.33643e-11 0 0)
(8.60988e-11 0 0)
(4.5956e-11 0 0)
(9.96241e-12 0 0)
(-8.74712e-11 0 0)
(2.5516e-10 0 0)
(-1.03497e-09 0 0)
(-2.06042e-09 0 0)
(-2.03259e-09 0 0)
(1.75676e-09 0 0)
(7.07193e-10 0 0)
(-5.06928e-12 0 0)
(-9.64959e-11 0 0)
(-2.23021e-10 0 0)
(-3.24663e-10 0 0)
(-2.46834e-10 0 0)
(-5.54174e-11 0 0)
(9.06054e-11 0 0)
(8.08788e-11 0 0)
(9.41861e-11 0 0)
(1.42494e-11 0 0)
)
;
    }
    inlet
    {
        type            calculated;
        value           uniform (0 0 0);
    }
    outlet
    {
        type            calculated;
        value           nonuniform List<vector> 
20
(
(1.42494e-11 6.50266e-11 0)
(7.00209e-11 -2.12548e-11 0)
(1.32842e-10 9.88371e-11 0)
(1.50573e-10 1.74334e-10 0)
(5.63256e-11 2.27699e-10 0)
(-1.47154e-11 3.14225e-10 0)
(-1.18949e-10 2.27211e-10 0)
(-6.80136e-11 1.99593e-10 0)
(2.59986e-11 1.40571e-10 0)
(1.51035e-10 2.11218e-10 0)
(1.09347e-10 3.27503e-10 0)
(1.21869e-11 3.785e-10 0)
(-1.57122e-10 3.62767e-10 0)
(-1.69189e-10 2.25842e-10 0)
(-1.3998e-10 1.86558e-10 0)
(-7.13314e-12 8.21653e-11 0)
(2.82475e-11 1.13247e-10 0)
(2.78002e-11 1.32645e-10 0)
(-3.11106e-11 4.04722e-11 0)
(-7.33643e-11 9.20406e-11 0)
)
;
    }
    frontAndBack
    {
        type            empty;
    }
}


// ************************************************************************* //
