/*--------------------------------*- C++ -*----------------------------------*\
  =========                 |
  \\      /  F ield         | OpenFOAM: The Open Source CFD Toolbox
   \\    /   O peration     | Website:  https://openfoam.org
    \\  /    A nd           | Version:  7
     \\/     M anipulation  |
\*---------------------------------------------------------------------------*/
FoamFile
{
    version     2.0;
    format      ascii;
    class       surfaceScalarField;
    location    "72";
    object      phi;
}
// * * * * * * * * * * * * * * * * * * * * * * * * * * * * * * * * * * * * * //

dimensions      [0 4 -1 0 0 0 0];

internalField   nonuniform List<scalar> 
760
(
4.99999e-06
1.00159e-11
4.99999e-06
-4.40157e-12
5.00001e-06
-1.29455e-11
5.00003e-06
-1.94646e-11
5.00005e-06
-2.64244e-11
5.00009e-06
-3.63245e-11
5.00013e-06
-4.76704e-11
5.00018e-06
-4.5661e-11
5.00025e-06
-6.21314e-11
5.00032e-06
-7.80782e-11
5.00041e-06
-9.02347e-11
5.00053e-06
-1.14233e-10
5.00065e-06
-1.27214e-10
5.00082e-06
-1.68139e-10
5.001e-06
-1.78291e-10
5.00126e-06
-2.56964e-10
5.00151e-06
-2.56091e-10
5.00195e-06
-4.31559e-10
5.00236e-06
-4.13757e-10
-8.91336e-10
5.00002e-06
-1.18304e-11
5.00004e-06
-1.90821e-11
5.00005e-06
-2.94097e-11
5.00008e-06
-4.18205e-11
5.0001e-06
-5.43348e-11
5.00014e-06
-6.8486e-11
5.00018e-06
-8.45946e-11
5.00023e-06
-1.04228e-10
5.00029e-06
-1.23418e-10
5.00037e-06
-1.53208e-10
5.00045e-06
-1.77266e-10
5.00056e-06
-2.22463e-10
5.00069e-06
-2.50871e-10
5.00084e-06
-3.247e-10
5.00102e-06
-3.54368e-10
5.00125e-06
-4.86337e-10
5.0015e-06
-5.09094e-10
5.00184e-06
-7.67609e-10
5.00218e-06
-7.59218e-10
-1.26152e-09
4.99999e-06
-4.77903e-12
4.99999e-06
-2.04875e-11
5e-06
-3.77233e-11
5.00002e-06
-5.66074e-11
5.00004e-06
-7.63394e-11
5.00007e-06
-9.86867e-11
5.00011e-06
-1.22228e-10
5.00016e-06
-1.51821e-10
5.00021e-06
-1.82258e-10
5.00029e-06
-2.23807e-10
5.00037e-06
-2.62563e-10
5.00047e-06
-3.23797e-10
5.00059e-06
-3.72678e-10
5.00074e-06
-4.68286e-10
5.00091e-06
-5.26359e-10
5.00111e-06
-6.87065e-10
5.00135e-06
-7.47686e-10
5.00162e-06
-1.04066e-09
5.00194e-06
-1.08207e-09
-1.68877e-09
5.00001e-06
-1.28083e-11
5.00002e-06
-3.35536e-11
5.00004e-06
-5.45085e-11
5.00006e-06
-7.75656e-11
5.00008e-06
-1.01587e-10
5.00012e-06
-1.30066e-10
5.00015e-06
-1.59436e-10
5.0002e-06
-1.97288e-10
5.00025e-06
-2.35912e-10
5.00032e-06
-2.88567e-10
5.00039e-06
-3.38566e-10
5.00048e-06
-4.15898e-10
5.00059e-06
-4.79292e-10
5.00072e-06
-5.97428e-10
5.00087e-06
-6.73613e-10
5.00105e-06
-8.6549e-10
5.00124e-06
-9.46603e-10
5.00148e-06
-1.27933e-09
5.00173e-06
-1.32995e-09
-1.897e-09
5e-06
-1.1764e-11
5e-06
-3.67017e-11
5.00001e-06
-6.22167e-11
5.00002e-06
-9.0108e-11
5.00004e-06
-1.19574e-10
5.00006e-06
-1.53971e-10
5.0001e-06
-1.90516e-10
5.00013e-06
-2.35771e-10
5.00018e-06
-2.82892e-10
5.00024e-06
-3.45096e-10
5.00031e-06
-4.06901e-10
5.00039e-06
-4.96238e-10
5.00048e-06
-5.75183e-10
5.00059e-06
-7.08377e-10
5.00072e-06
-8.04446e-10
5.00087e-06
-1.01305e-09
5.00104e-06
-1.11613e-09
5.00122e-06
-1.46077e-09
5.00142e-06
-1.53106e-09
-2.16162e-09
5e-06
-1.40431e-11
5.00001e-06
-4.3488e-11
5.00002e-06
-7.31743e-11
5.00004e-06
-1.04997e-10
5.00005e-06
-1.38561e-10
5.00008e-06
-1.77177e-10
5.00011e-06
-2.18859e-10
5.00014e-06
-2.69876e-10
5.00018e-06
-3.23638e-10
5.00023e-06
-3.94146e-10
5.00029e-06
-4.64462e-10
5.00036e-06
-5.64604e-10
5.00043e-06
-6.54355e-10
5.00053e-06
-8.01409e-10
5.00063e-06
-9.09833e-10
5.00075e-06
-1.13498e-09
5.00089e-06
-1.25061e-09
5.00104e-06
-1.61483e-09
5.00121e-06
-1.69511e-09
-2.29209e-09
5e-06
-1.58876e-11
5.00001e-06
-4.79778e-11
5.00001e-06
-8.05144e-11
5.00002e-06
-1.14991e-10
5.00004e-06
-1.51836e-10
5.00005e-06
-1.94192e-10
5.00008e-06
-2.40219e-10
5.0001e-06
-2.96033e-10
5.00013e-06
-3.55614e-10
5.00017e-06
-4.32328e-10
5.00022e-06
-5.09918e-10
5.00027e-06
-6.17978e-10
5.00033e-06
-7.17051e-10
5.00041e-06
-8.73549e-10
5.00049e-06
-9.92996e-10
5.00058e-06
-1.2283e-09
5.00069e-06
-1.35501e-09
5.0008e-06
-1.72548e-09
5.00091e-06
-1.80996e-09
-2.44061e-09
5e-06
-1.69963e-11
5e-06
-5.1051e-11
5.00001e-06
-8.5545e-11
5.00002e-06
-1.22549e-10
5.00003e-06
-1.61928e-10
5.00004e-06
-2.07229e-10
5.00006e-06
-2.5637e-10
5.00008e-06
-3.15825e-10
5.0001e-06
-3.79454e-10
5.00013e-06
-4.60693e-10
5.00016e-06
-5.4341e-10
5.0002e-06
-6.57338e-10
5.00025e-06
-7.62509e-10
5.0003e-06
-9.25966e-10
5.00036e-06
-1.05225e-09
5.00042e-06
-1.295e-09
5.0005e-06
-1.42797e-09
5.00058e-06
-1.80614e-09
5.00067e-06
-1.89811e-09
-2.51462e-09
5e-06
-1.75707e-11
5e-06
-5.29484e-11
5.00001e-06
-8.87059e-11
5.00001e-06
-1.27283e-10
5.00002e-06
-1.68237e-10
5.00002e-06
-2.15251e-10
5.00003e-06
-2.662e-10
5.00005e-06
-3.27804e-10
5.00006e-06
-3.93797e-10
5.00008e-06
-4.77728e-10
5.0001e-06
-5.63536e-10
5.00012e-06
-6.8084e-10
5.00015e-06
-7.89666e-10
5.00018e-06
-9.57169e-10
5.00022e-06
-1.08766e-09
5.00026e-06
-1.33467e-09
5.0003e-06
-1.47169e-09
5.00035e-06
-1.85325e-09
5.00039e-06
-1.94547e-09
-2.57056e-09
5e-06
-1.77402e-11
5e-06
-5.35523e-11
5e-06
-8.98417e-11
5e-06
-1.289e-10
5.00001e-06
-1.70407e-10
5.00001e-06
-2.17937e-10
5.00001e-06
-2.69509e-10
5.00002e-06
-3.31786e-10
5.00002e-06
-3.98531e-10
5.00003e-06
-4.83368e-10
5.00003e-06
-5.7017e-10
5.00004e-06
-6.88616e-10
5.00005e-06
-7.9881e-10
5.00006e-06
-9.67645e-10
5.00007e-06
-1.09956e-09
5.00009e-06
-1.34788e-09
5.0001e-06
-1.48624e-09
5.00012e-06
-1.8685e-09
5.00013e-06
-1.96247e-09
-2.58674e-09
5e-06
-1.75385e-11
5e-06
-5.28795e-11
5e-06
-8.8781e-11
5e-06
-1.2728e-10
4.99999e-06
-1.68299e-10
4.99999e-06
-2.15235e-10
4.99999e-06
-2.66239e-10
4.99998e-06
-3.27806e-10
4.99998e-06
-3.93729e-10
4.99997e-06
-4.7771e-10
4.99997e-06
-5.6342e-10
4.99996e-06
-6.80743e-10
4.99995e-06
-7.89746e-10
4.99994e-06
-9.57246e-10
4.99993e-06
-1.08764e-09
4.99991e-06
-1.33464e-09
4.9999e-06
-1.47171e-09
4.99988e-06
-1.85314e-09
4.99987e-06
-1.94525e-09
-2.57032e-09
5e-06
-1.69513e-11
5e-06
-5.10692e-11
4.99999e-06
-8.55538e-11
4.99999e-06
-1.22498e-10
4.99998e-06
-1.61913e-10
4.99998e-06
-2.0721e-10
4.99997e-06
-2.56393e-10
4.99995e-06
-3.15894e-10
4.99994e-06
-3.79397e-10
4.99992e-06
-4.60672e-10
4.9999e-06
-5.43349e-10
4.99988e-06
-6.57216e-10
4.99985e-06
-7.62486e-10
4.99982e-06
-9.25989e-10
4.99978e-06
-1.05225e-09
4.99974e-06
-1.29495e-09
4.9997e-06
-1.42794e-09
4.99965e-06
-1.80596e-09
4.99961e-06
-1.89782e-09
-2.5143e-09
5e-06
-1.59374e-11
5e-06
-4.8026e-11
4.99999e-06
-8.03974e-11
4.99998e-06
-1.14974e-10
4.99997e-06
-1.51698e-10
4.99996e-06
-1.94236e-10
4.99994e-06
-2.40191e-10
4.99992e-06
-2.9617e-10
4.9999e-06
-3.5567e-10
4.99987e-06
-4.32271e-10
4.99984e-06
-5.09957e-10
4.9998e-06
-6.17971e-10
4.99975e-06
-7.16971e-10
4.9997e-06
-8.73461e-10
4.99964e-06
-9.92955e-10
4.99958e-06
-1.22819e-09
4.9995e-06
-1.35496e-09
4.99942e-06
-1.72532e-09
4.99933e-06
-1.80978e-09
-2.44022e-09
5e-06
-1.41354e-11
4.99999e-06
-4.34863e-11
4.99999e-06
-7.31396e-11
4.99998e-06
-1.04985e-10
4.99996e-06
-1.38461e-10
4.99995e-06
-1.77304e-10
4.99992e-06
-2.18822e-10
4.9999e-06
-2.69937e-10
4.99987e-06
-3.23888e-10
4.99983e-06
-3.94151e-10
4.99978e-06
-4.64459e-10
4.99973e-06
-5.6463e-10
4.99967e-06
-6.5432e-10
4.99959e-06
-8.01294e-10
4.99951e-06
-9.09747e-10
4.99942e-06
-1.13483e-09
4.99931e-06
-1.25053e-09
4.9992e-06
-1.61467e-09
4.99909e-06
-1.695e-09
-2.29172e-09
5e-06
-1.1771e-11
4.99999e-06
-3.66652e-11
4.99998e-06
-6.22965e-11
4.99997e-06
-9.01188e-11
4.99995e-06
-1.19794e-10
4.99992e-06
-1.53888e-10
4.99989e-06
-1.90525e-10
4.99986e-06
-2.35452e-10
4.99982e-06
-2.83058e-10
4.99977e-06
-3.45295e-10
4.99971e-06
-4.06945e-10
4.99964e-06
-4.96246e-10
4.99957e-06
-5.75209e-10
4.99947e-06
-7.08317e-10
4.99937e-06
-8.04409e-10
4.99925e-06
-1.01293e-09
4.99911e-06
-1.11607e-09
4.99896e-06
-1.46056e-09
4.99879e-06
-1.53099e-09
-2.16123e-09
5e-06
-1.26724e-11
5e-06
-3.35093e-11
4.99999e-06
-5.46321e-11
4.99998e-06
-7.7668e-11
4.99996e-06
-1.01826e-10
4.99994e-06
-1.29623e-10
4.9999e-06
-1.5968e-10
4.99987e-06
-1.96862e-10
4.99982e-06
-2.35538e-10
4.99976e-06
-2.88657e-10
4.99969e-06
-3.38638e-10
4.99961e-06
-4.15874e-10
4.99952e-06
-4.79303e-10
4.99941e-06
-5.9737e-10
4.99928e-06
-6.73595e-10
4.99913e-06
-8.65355e-10
4.99896e-06
-9.46504e-10
4.99878e-06
-1.27902e-09
4.99858e-06
-1.32978e-09
-1.89652e-09
4.99999e-06
-4.66263e-12
4.99998e-06
-2.05135e-11
4.99996e-06
-3.77714e-11
4.99994e-06
-5.66932e-11
4.99992e-06
-7.62234e-11
4.99988e-06
-9.86099e-11
4.99985e-06
-1.22538e-10
4.9998e-06
-1.5231e-10
4.99975e-06
-1.81902e-10
4.99968e-06
-2.23634e-10
4.99961e-06
-2.626e-10
4.99952e-06
-3.23813e-10
4.99941e-06
-3.72722e-10
4.99928e-06
-4.68271e-10
4.99913e-06
-5.26405e-10
4.99895e-06
-6.86987e-10
4.99876e-06
-7.47659e-10
4.99852e-06
-1.0404e-09
4.99827e-06
-1.08196e-09
-1.68838e-09
5.00001e-06
-1.19335e-11
5.00001e-06
-1.91794e-11
5e-06
-2.92505e-11
4.99998e-06
-4.16788e-11
4.99996e-06
-5.38796e-11
4.99993e-06
-6.9402e-11
4.99989e-06
-8.35059e-11
4.99984e-06
-1.04547e-10
4.99978e-06
-1.2351e-10
4.99971e-06
-1.52971e-10
4.99963e-06
-1.77165e-10
4.99953e-06
-2.22396e-10
4.99941e-06
-2.5086e-10
4.99926e-06
-3.24618e-10
4.99909e-06
-3.54383e-10
4.99889e-06
-4.86208e-10
4.99865e-06
-5.0908e-10
4.99838e-06
-7.67317e-10
4.99806e-06
-7.59071e-10
-1.26102e-09
4.99998e-06
9.82875e-12
4.99996e-06
-4.46071e-12
4.99995e-06
-1.27337e-11
4.99992e-06
-1.93182e-11
4.9999e-06
-2.66209e-11
4.99986e-06
-3.21619e-11
4.99982e-06
-3.3761e-11
4.99977e-06
-4.40782e-11
4.99971e-06
-6.2418e-11
4.99963e-06
-7.81081e-11
4.99955e-06
-9.02158e-11
4.99944e-06
-1.1424e-10
4.99932e-06
-1.27271e-10
4.99916e-06
-1.68179e-10
4.99898e-06
-1.7838e-10
4.99875e-06
-2.56998e-10
4.9985e-06
-2.5618e-10
4.99817e-06
-4.31546e-10
4.99782e-06
-4.13797e-10
-8.91327e-10
5.00001e-06
5.00001e-06
4.99999e-06
4.99997e-06
4.99995e-06
4.99991e-06
4.99987e-06
4.99982e-06
4.99975e-06
4.99968e-06
4.99959e-06
4.99947e-06
4.99934e-06
4.99918e-06
4.999e-06
4.99874e-06
4.99848e-06
4.99805e-06
4.99764e-06
)
;

boundaryField
{
    sides
    {
        type            calculated;
        value           uniform 0;
    }
    inlet
    {
        type            calculated;
        value           nonuniform List<scalar> 
20
(
-5e-06
-5e-06
-5e-06
-5e-06
-5e-06
-5e-06
-5e-06
-5e-06
-5e-06
-5e-06
-5e-06
-5e-06
-5e-06
-5e-06
-5e-06
-5e-06
-5e-06
-5e-06
-5e-06
-5e-06
)
;
    }
    outlet
    {
        type            calculated;
        value           nonuniform List<scalar> 
20
(
5.00325e-06
5.00255e-06
5.00237e-06
5.00194e-06
5.00169e-06
5.00134e-06
5.00106e-06
5.00074e-06
5.00045e-06
5.00015e-06
4.99985e-06
4.99955e-06
4.99926e-06
4.99894e-06
4.99866e-06
4.99831e-06
4.99806e-06
4.99763e-06
4.99745e-06
4.99675e-06
)
;
    }
    frontAndBack
    {
        type            empty;
        value           nonuniform 0();
    }
}


// ************************************************************************* //
