/*--------------------------------*- C++ -*----------------------------------*\
  =========                 |
  \\      /  F ield         | OpenFOAM: The Open Source CFD Toolbox
   \\    /   O peration     | Website:  https://openfoam.org
    \\  /    A nd           | Version:  7
     \\/     M anipulation  |
\*---------------------------------------------------------------------------*/
FoamFile
{
    version     2.0;
    format      ascii;
    class       surfaceScalarField;
    location    "72";
    object      phi_0;
}
// * * * * * * * * * * * * * * * * * * * * * * * * * * * * * * * * * * * * * //

dimensions      [0 4 -1 0 0 0 0];

internalField   nonuniform List<scalar> 
760
(
4.99999e-06
9.976e-12
4.99999e-06
-4.36923e-12
5.00001e-06
-1.29239e-11
5.00003e-06
-1.9445e-11
5.00005e-06
-2.6458e-11
5.00009e-06
-3.21731e-11
5.00013e-06
-3.7992e-11
5.00018e-06
-5.31222e-11
5.00025e-06
-6.2311e-11
5.00032e-06
-7.82165e-11
5.00041e-06
-9.02703e-11
5.00053e-06
-1.14233e-10
5.00066e-06
-1.27183e-10
5.00082e-06
-1.68088e-10
5.001e-06
-1.78254e-10
5.00126e-06
-2.5694e-10
5.00151e-06
-2.5607e-10
5.00195e-06
-4.31526e-10
5.00236e-06
-4.13722e-10
-8.9134e-10
5.00002e-06
-1.18911e-11
5.00004e-06
-1.90547e-11
5.00005e-06
-2.93339e-11
5.00008e-06
-4.17304e-11
5.0001e-06
-5.42338e-11
5.00014e-06
-6.86509e-11
5.00018e-06
-8.37431e-11
5.00023e-06
-1.04631e-10
5.00029e-06
-1.23562e-10
5.00037e-06
-1.53233e-10
5.00045e-06
-1.77249e-10
5.00056e-06
-2.22459e-10
5.00069e-06
-2.5084e-10
5.00084e-06
-3.24645e-10
5.00102e-06
-3.54326e-10
5.00125e-06
-4.86294e-10
5.0015e-06
-5.09041e-10
5.00184e-06
-7.67541e-10
5.00218e-06
-7.59163e-10
-1.26153e-09
4.99999e-06
-4.74705e-12
4.99999e-06
-2.04534e-11
5e-06
-3.76279e-11
5.00002e-06
-5.65303e-11
5.00004e-06
-7.61029e-11
5.00007e-06
-9.89059e-11
5.00011e-06
-1.21901e-10
5.00016e-06
-1.51758e-10
5.00021e-06
-1.82328e-10
5.00029e-06
-2.23694e-10
5.00037e-06
-2.62537e-10
5.00047e-06
-3.23796e-10
5.00059e-06
-3.72658e-10
5.00074e-06
-4.6825e-10
5.00091e-06
-5.26321e-10
5.00111e-06
-6.86991e-10
5.00135e-06
-7.47592e-10
5.00162e-06
-1.04056e-09
5.00194e-06
-1.08203e-09
-1.68883e-09
5.00001e-06
-1.2743e-11
5.00002e-06
-3.34969e-11
5.00004e-06
-5.44032e-11
5.00006e-06
-7.74734e-11
5.00008e-06
-1.01405e-10
5.00012e-06
-1.2992e-10
5.00015e-06
-1.59438e-10
5.0002e-06
-1.97472e-10
5.00025e-06
-2.35648e-10
5.00032e-06
-2.88497e-10
5.00039e-06
-3.38631e-10
5.00048e-06
-4.15929e-10
5.00059e-06
-4.79306e-10
5.00072e-06
-5.97419e-10
5.00087e-06
-6.73559e-10
5.00105e-06
-8.65363e-10
5.00124e-06
-9.46461e-10
5.00148e-06
-1.27922e-09
5.00173e-06
-1.32994e-09
-1.8971e-09
5e-06
-1.17045e-11
5e-06
-3.66182e-11
5.00001e-06
-6.21228e-11
5.00002e-06
-8.99597e-11
5.00004e-06
-1.1954e-10
5.00006e-06
-1.5368e-10
5.0001e-06
-1.90511e-10
5.00013e-06
-2.35532e-10
5.00018e-06
-2.82738e-10
5.00024e-06
-3.45196e-10
5.00031e-06
-4.06993e-10
5.00039e-06
-4.96291e-10
5.00048e-06
-5.75236e-10
5.00059e-06
-7.08373e-10
5.00072e-06
-8.04349e-10
5.00087e-06
-1.01285e-09
5.00104e-06
-1.11594e-09
5.00122e-06
-1.46066e-09
5.00142e-06
-1.53106e-09
-2.16174e-09
5e-06
-1.40122e-11
5.00001e-06
-4.33884e-11
5.00002e-06
-7.30786e-11
5.00004e-06
-1.04801e-10
5.00005e-06
-1.38463e-10
5.00008e-06
-1.77019e-10
5.00011e-06
-2.18779e-10
5.00014e-06
-2.69713e-10
5.00018e-06
-3.23717e-10
5.00023e-06
-3.9427e-10
5.00029e-06
-4.64533e-10
5.00036e-06
-5.64709e-10
5.00043e-06
-6.54431e-10
5.00053e-06
-8.0136e-10
5.00063e-06
-9.09669e-10
5.00075e-06
-1.13471e-09
5.00089e-06
-1.25037e-09
5.00104e-06
-1.61469e-09
5.00121e-06
-1.69509e-09
-2.29222e-09
5e-06
-1.58896e-11
5.00001e-06
-4.789e-11
5.00001e-06
-8.03731e-11
5.00002e-06
-1.14839e-10
5.00004e-06
-1.51613e-10
5.00005e-06
-1.94057e-10
5.00008e-06
-2.40087e-10
5.0001e-06
-2.95979e-10
5.00013e-06
-3.55699e-10
5.00017e-06
-4.3237e-10
5.00022e-06
-5.10002e-10
5.00027e-06
-6.18118e-10
5.00033e-06
-7.17098e-10
5.00041e-06
-8.73446e-10
5.00049e-06
-9.92817e-10
5.00058e-06
-1.22806e-09
5.00069e-06
-1.35479e-09
5.0008e-06
-1.72529e-09
5.00091e-06
-1.80987e-09
-2.4407e-09
5e-06
-1.70023e-11
5e-06
-5.10094e-11
5.00001e-06
-8.5386e-11
5.00002e-06
-1.22372e-10
5.00003e-06
-1.6168e-10
5.00004e-06
-2.0704e-10
5.00006e-06
-2.56199e-10
5.00008e-06
-3.15804e-10
5.0001e-06
-3.79468e-10
5.00013e-06
-4.60743e-10
5.00016e-06
-5.43519e-10
5.0002e-06
-6.57407e-10
5.00025e-06
-7.62497e-10
5.0003e-06
-9.2586e-10
5.00036e-06
-1.05209e-09
5.00042e-06
-1.29481e-09
5.0005e-06
-1.4278e-09
5.00058e-06
-1.80594e-09
5.00067e-06
-1.89796e-09
-2.51469e-09
5e-06
-1.75704e-11
5e-06
-5.2887e-11
5.00001e-06
-8.85748e-11
5.00001e-06
-1.27082e-10
5.00002e-06
-1.68017e-10
5.00002e-06
-2.15045e-10
5.00003e-06
-2.66038e-10
5.00005e-06
-3.27771e-10
5.00006e-06
-3.93772e-10
5.00008e-06
-4.77791e-10
5.0001e-06
-5.6361e-10
5.00012e-06
-6.80837e-10
5.00015e-06
-7.89666e-10
5.00018e-06
-9.57124e-10
5.00022e-06
-1.08752e-09
5.00026e-06
-1.33448e-09
5.0003e-06
-1.47153e-09
5.00035e-06
-1.85308e-09
5.00039e-06
-1.94534e-09
-2.57065e-09
5e-06
-1.77178e-11
5e-06
-5.34608e-11
5e-06
-8.9696e-11
5e-06
-1.28723e-10
5.00001e-06
-1.70232e-10
5.00001e-06
-2.17783e-10
5.00001e-06
-2.69393e-10
5.00002e-06
-3.31745e-10
5.00002e-06
-3.98534e-10
5.00003e-06
-4.83433e-10
5.00003e-06
-5.70256e-10
5.00004e-06
-6.88675e-10
5.00005e-06
-7.98844e-10
5.00006e-06
-9.67602e-10
5.00007e-06
-1.09943e-09
5.00009e-06
-1.34766e-09
5.0001e-06
-1.48603e-09
5.00012e-06
-1.86834e-09
5.00013e-06
-1.96241e-09
-2.58687e-09
5e-06
-1.74906e-11
5e-06
-5.27722e-11
5e-06
-8.86212e-11
5e-06
-1.27138e-10
4.99999e-06
-1.68153e-10
4.99999e-06
-2.15122e-10
4.99999e-06
-2.66155e-10
4.99998e-06
-3.27742e-10
4.99998e-06
-3.93771e-10
4.99997e-06
-4.77769e-10
4.99997e-06
-5.63525e-10
4.99996e-06
-6.80887e-10
4.99995e-06
-7.89793e-10
4.99994e-06
-9.57164e-10
4.99993e-06
-1.0875e-09
4.99991e-06
-1.3344e-09
4.9999e-06
-1.47144e-09
4.99988e-06
-1.85297e-09
4.99987e-06
-1.94524e-09
-2.57049e-09
5e-06
-1.6906e-11
5e-06
-5.09488e-11
4.99999e-06
-8.54388e-11
4.99999e-06
-1.22341e-10
4.99998e-06
-1.61768e-10
4.99998e-06
-2.07055e-10
4.99997e-06
-2.56297e-10
4.99995e-06
-3.15774e-10
4.99994e-06
-3.79409e-10
4.99992e-06
-4.60727e-10
4.9999e-06
-5.43418e-10
4.99988e-06
-6.57337e-10
4.99985e-06
-7.62555e-10
4.99982e-06
-9.25934e-10
4.99978e-06
-1.0521e-09
4.99974e-06
-1.29466e-09
4.9997e-06
-1.42765e-09
4.99965e-06
-1.80578e-09
4.99961e-06
-1.89782e-09
-2.51447e-09
5e-06
-1.59026e-11
5e-06
-4.79599e-11
4.99999e-06
-8.03e-11
4.99998e-06
-1.14755e-10
4.99997e-06
-1.5154e-10
4.99996e-06
-1.94008e-10
4.99994e-06
-2.40078e-10
4.99992e-06
-2.9605e-10
4.9999e-06
-3.55606e-10
4.99987e-06
-4.32351e-10
4.99984e-06
-5.10027e-10
4.9998e-06
-6.18002e-10
4.99975e-06
-7.17e-10
4.9997e-06
-8.73428e-10
4.99964e-06
-9.92821e-10
4.99958e-06
-1.22794e-09
4.9995e-06
-1.35471e-09
4.99942e-06
-1.72515e-09
4.99933e-06
-1.80974e-09
-2.44035e-09
5e-06
-1.41371e-11
4.99999e-06
-4.34544e-11
4.99999e-06
-7.29807e-11
4.99998e-06
-1.04801e-10
4.99996e-06
-1.38233e-10
4.99995e-06
-1.77081e-10
4.99992e-06
-2.18697e-10
4.9999e-06
-2.69929e-10
4.99987e-06
-3.2377e-10
4.99983e-06
-3.94178e-10
4.99978e-06
-4.64578e-10
4.99973e-06
-5.6468e-10
4.99967e-06
-6.5432e-10
4.99959e-06
-8.01237e-10
4.99951e-06
-9.09627e-10
4.99942e-06
-1.13464e-09
4.99931e-06
-1.25034e-09
4.9992e-06
-1.61448e-09
4.99909e-06
-1.6949e-09
-2.29181e-09
5e-06
-1.1793e-11
4.99999e-06
-3.66137e-11
4.99998e-06
-6.21262e-11
4.99996e-06
-8.99769e-11
4.99995e-06
-1.19499e-10
4.99992e-06
-1.53894e-10
4.99989e-06
-1.90374e-10
4.99986e-06
-2.35621e-10
4.99982e-06
-2.83074e-10
4.99977e-06
-3.45238e-10
4.99971e-06
-4.07e-10
4.99964e-06
-4.96318e-10
4.99957e-06
-5.7522e-10
4.99947e-06
-7.08255e-10
4.99937e-06
-8.04316e-10
4.99925e-06
-1.0128e-09
4.99911e-06
-1.11594e-09
4.99896e-06
-1.46041e-09
4.99879e-06
-1.53087e-09
-2.16129e-09
5e-06
-1.26947e-11
5e-06
-3.34283e-11
4.99999e-06
-5.45034e-11
4.99998e-06
-7.75374e-11
4.99996e-06
-1.0169e-10
4.99994e-06
-1.29705e-10
4.9999e-06
-1.59393e-10
4.99987e-06
-1.96861e-10
4.99982e-06
-2.35784e-10
4.99976e-06
-2.88674e-10
4.99969e-06
-3.38644e-10
4.99961e-06
-4.1593e-10
4.99952e-06
-4.79327e-10
4.99941e-06
-5.97318e-10
4.99928e-06
-6.73505e-10
4.99913e-06
-8.65235e-10
4.99896e-06
-9.46398e-10
4.99878e-06
-1.27892e-09
4.99858e-06
-1.32971e-09
-1.89657e-09
4.99999e-06
-4.63779e-12
4.99998e-06
-2.04367e-11
4.99996e-06
-3.77311e-11
4.99994e-06
-5.6615e-11
4.99992e-06
-7.62825e-11
4.99988e-06
-9.83677e-11
4.99985e-06
-1.22542e-10
4.9998e-06
-1.51597e-10
4.99975e-06
-1.81932e-10
4.99968e-06
-2.23765e-10
4.99961e-06
-2.62614e-10
4.99952e-06
-3.23825e-10
4.99941e-06
-3.72732e-10
4.99928e-06
-4.68236e-10
4.99913e-06
-5.26327e-10
4.99895e-06
-6.86877e-10
4.99876e-06
-7.47576e-10
4.99852e-06
-1.04035e-09
4.99827e-06
-1.08194e-09
-1.68844e-09
5.00001e-06
-1.18324e-11
5.00001e-06
-1.91385e-11
5e-06
-2.93274e-11
4.99998e-06
-4.16649e-11
4.99996e-06
-5.39462e-11
4.99993e-06
-6.86113e-11
4.99989e-06
-8.45283e-11
4.99984e-06
-1.04906e-10
4.99979e-06
-1.2324e-10
4.99971e-06
-1.53022e-10
4.99963e-06
-1.77211e-10
4.99953e-06
-2.22404e-10
4.99941e-06
-2.50861e-10
4.99926e-06
-3.24598e-10
4.99909e-06
-3.54323e-10
4.99889e-06
-4.86119e-10
4.99865e-06
-5.09016e-10
4.99838e-06
-7.67288e-10
4.99806e-06
-7.59081e-10
-1.26107e-09
4.99998e-06
9.93927e-12
4.99996e-06
-4.48235e-12
4.99995e-06
-1.28226e-11
4.99992e-06
-1.92905e-11
4.9999e-06
-2.63935e-11
4.99986e-06
-3.74414e-11
4.99982e-06
-4.35845e-11
4.99977e-06
-5.5527e-11
4.99971e-06
-6.26077e-11
4.99963e-06
-7.81119e-11
4.99955e-06
-9.02564e-11
4.99944e-06
-1.14248e-10
4.99932e-06
-1.2726e-10
4.99916e-06
-1.68156e-10
4.99898e-06
-1.78341e-10
4.99875e-06
-2.56944e-10
4.9985e-06
-2.56143e-10
4.99817e-06
-4.31535e-10
4.99782e-06
-4.13815e-10
-8.91364e-10
5.00001e-06
5.00001e-06
4.99999e-06
4.99997e-06
4.99995e-06
4.99991e-06
4.99987e-06
4.99982e-06
4.99975e-06
4.99968e-06
4.99959e-06
4.99947e-06
4.99934e-06
4.99918e-06
4.999e-06
4.99874e-06
4.99848e-06
4.99805e-06
4.99764e-06
)
;

boundaryField
{
    sides
    {
        type            calculated;
        value           uniform 0;
    }
    inlet
    {
        type            calculated;
        value           nonuniform List<scalar> 
20
(
-5e-06
-5e-06
-5e-06
-5e-06
-5e-06
-5e-06
-5e-06
-5e-06
-5e-06
-5e-06
-5e-06
-5e-06
-5e-06
-5e-06
-5e-06
-5e-06
-5e-06
-5e-06
-5e-06
-5e-06
)
;
    }
    outlet
    {
        type            calculated;
        value           nonuniform List<scalar> 
20
(
5.00325e-06
5.00255e-06
5.00237e-06
5.00194e-06
5.00169e-06
5.00134e-06
5.00106e-06
5.00074e-06
5.00045e-06
5.00015e-06
4.99985e-06
4.99955e-06
4.99926e-06
4.99894e-06
4.99866e-06
4.99831e-06
4.99806e-06
4.99763e-06
4.99745e-06
4.99675e-06
)
;
    }
    frontAndBack
    {
        type            empty;
        value           nonuniform 0();
    }
}


// ************************************************************************* //
