/*--------------------------------*- C++ -*----------------------------------*\
  =========                 |
  \\      /  F ield         | OpenFOAM: The Open Source CFD Toolbox
   \\    /   O peration     | Website:  https://openfoam.org
    \\  /    A nd           | Version:  7
     \\/     M anipulation  |
\*---------------------------------------------------------------------------*/
FoamFile
{
    version     2.0;
    format      ascii;
    class       volVectorField;
    location    "72";
    object      U;
}
// * * * * * * * * * * * * * * * * * * * * * * * * * * * * * * * * * * * * * //

dimensions      [0 1 -1 0 0 0 0];

internalField   nonuniform List<vector> 
400
(
(0.0999931 -8.72738e-07 0)
(0.099993 -2.37611e-06 0)
(0.0999931 -3.60004e-06 0)
(0.0999934 -4.6689e-06 0)
(0.0999939 -5.68106e-06 0)
(0.0999947 -6.72875e-06 0)
(0.0999955 -7.79643e-06 0)
(0.0999966 -8.89913e-06 0)
(0.0999978 -9.98289e-06 0)
(0.0999996 -1.11904e-05 0)
(0.100001 -1.22693e-05 0)
(0.100004 -1.36235e-05 0)
(0.100006 -1.46618e-05 0)
(0.10001 -1.63423e-05 0)
(0.100013 -1.72216e-05 0)
(0.10002 -1.96296e-05 0)
(0.100022 -2.00737e-05 0)
(0.100035 -2.42949e-05 0)
(0.100036 -2.39045e-05 0)
(0.10006 -3.31783e-05 0)
(0.0999943 3.98041e-07 0)
(0.0999947 1.209e-06 0)
(0.0999953 2.01936e-06 0)
(0.0999958 2.79062e-06 0)
(0.0999963 3.51216e-06 0)
(0.099997 4.1668e-06 0)
(0.0999978 4.76649e-06 0)
(0.0999989 5.3129e-06 0)
(0.1 5.84495e-06 0)
(0.100002 6.22733e-06 0)
(0.100003 6.69132e-06 0)
(0.100006 6.85186e-06 0)
(0.100008 7.26192e-06 0)
(0.100012 6.98085e-06 0)
(0.100014 7.39744e-06 0)
(0.10002 6.16394e-06 0)
(0.100024 6.71597e-06 0)
(0.100033 3.1778e-06 0)
(0.100036 3.99131e-06 0)
(0.10005 -5.4528e-06 0)
(0.0999948 -3.9876e-07 0)
(0.0999947 -1.30487e-06 0)
(0.0999947 -2.30822e-06 0)
(0.099995 -3.36544e-06 0)
(0.0999954 -4.41778e-06 0)
(0.099996 -5.48973e-06 0)
(0.0999967 -6.55454e-06 0)
(0.0999977 -7.72505e-06 0)
(0.0999988 -8.8789e-06 0)
(0.1 -1.02503e-05 0)
(0.100002 -1.15298e-05 0)
(0.100004 -1.32513e-05 0)
(0.100006 -1.4666e-05 0)
(0.10001 -1.70177e-05 0)
(0.100013 -1.85242e-05 0)
(0.100018 -2.21172e-05 0)
(0.100021 -2.35612e-05 0)
(0.100029 -2.97466e-05 0)
(0.100032 -3.05991e-05 0)
(0.100046 -4.22024e-05 0)
(0.0999956 -1.8461e-08 0)
(0.0999958 -8.7809e-09 0)
(0.0999962 5.78103e-08 0)
(0.0999967 1.32613e-07 0)
(0.0999972 2.06483e-07 0)
(0.0999978 2.01394e-07 0)
(0.0999986 1.69469e-07 0)
(0.0999995 -2.07701e-08 0)
(0.100001 -2.31112e-07 0)
(0.100002 -7.02057e-07 0)
(0.100003 -1.1245e-06 0)
(0.100005 -2.05823e-06 0)
(0.100007 -2.73506e-06 0)
(0.10001 -4.44643e-06 0)
(0.100013 -5.37017e-06 0)
(0.100017 -8.50477e-06 0)
(0.10002 -9.54182e-06 0)
(0.100027 -1.54537e-05 0)
(0.100029 -1.60685e-05 0)
(0.100039 -2.75659e-05 0)
(0.0999963 -2.9327e-07 0)
(0.0999963 -9.29045e-07 0)
(0.0999964 -1.63576e-06 0)
(0.0999966 -2.43945e-06 0)
(0.0999969 -3.30155e-06 0)
(0.0999974 -4.26999e-06 0)
(0.099998 -5.27314e-06 0)
(0.0999988 -6.44344e-06 0)
(0.0999997 -7.63777e-06 0)
(0.100001 -9.11753e-06 0)
(0.100002 -1.05644e-05 0)
(0.100004 -1.25519e-05 0)
(0.100006 -1.42931e-05 0)
(0.100008 -1.71149e-05 0)
(0.100011 -1.91413e-05 0)
(0.100014 -2.34425e-05 0)
(0.100017 -2.55728e-05 0)
(0.100022 -3.26416e-05 0)
(0.100024 -3.41231e-05 0)
(0.100033 -4.64173e-05 0)
(0.099997 -2.59156e-07 0)
(0.0999971 -7.59866e-07 0)
(0.0999973 -1.22584e-06 0)
(0.0999975 -1.69377e-06 0)
(0.0999979 -2.16091e-06 0)
(0.0999984 -2.70691e-06 0)
(0.099999 -3.29473e-06 0)
(0.0999997 -4.05986e-06 0)
(0.1 -4.8708e-06 0)
(0.100002 -6.00369e-06 0)
(0.100003 -7.13293e-06 0)
(0.100004 -8.84184e-06 0)
(0.100006 -1.03482e-05 0)
(0.100008 -1.29775e-05 0)
(0.10001 -1.48597e-05 0)
(0.100013 -1.90398e-05 0)
(0.100015 -2.10893e-05 0)
(0.100019 -2.80287e-05 0)
(0.100021 -2.94111e-05 0)
(0.100027 -4.14696e-05 0)
(0.0999976 -2.93424e-07 0)
(0.0999977 -8.96023e-07 0)
(0.0999978 -1.52581e-06 0)
(0.099998 -2.22571e-06 0)
(0.0999983 -2.99142e-06 0)
(0.0999986 -3.8814e-06 0)
(0.0999991 -4.85357e-06 0)
(0.0999996 -6.02633e-06 0)
(0.1 -7.27114e-06 0)
(0.100001 -8.85785e-06 0)
(0.100002 -1.04539e-05 0)
(0.100003 -1.26542e-05 0)
(0.100004 -1.46608e-05 0)
(0.100006 -1.78163e-05 0)
(0.100007 -2.02102e-05 0)
(0.10001 -2.49349e-05 0)
(0.100011 -2.74631e-05 0)
(0.100015 -3.4935e-05 0)
(0.100016 -3.66818e-05 0)
(0.100021 -4.91886e-05 0)
(0.0999983 -3.24457e-07 0)
(0.0999984 -9.85397e-07 0)
(0.0999985 -1.6648e-06 0)
(0.0999986 -2.39675e-06 0)
(0.0999988 -3.17163e-06 0)
(0.0999991 -4.04934e-06 0)
(0.0999994 -4.9905e-06 0)
(0.0999998 -6.12274e-06 0)
(0.1 -7.32709e-06 0)
(0.100001 -8.87345e-06 0)
(0.100002 -1.04405e-05 0)
(0.100002 -1.26211e-05 0)
(0.100003 -1.46248e-05 0)
(0.100004 -1.77815e-05 0)
(0.100005 -2.02024e-05 0)
(0.100007 -2.49392e-05 0)
(0.100008 -2.75113e-05 0)
(0.100011 -3.4956e-05 0)
(0.100012 -3.67147e-05 0)
(0.100015 -4.90497e-05 0)
(0.099999 -3.42338e-07 0)
(0.099999 -1.03587e-06 0)
(0.0999991 -1.7428e-06 0)
(0.0999992 -2.50281e-06 0)
(0.0999993 -3.30715e-06 0)
(0.0999994 -4.22761e-06 0)
(0.0999996 -5.22435e-06 0)
(0.0999999 -6.43233e-06 0)
(0.1 -7.72879e-06 0)
(0.100001 -9.38555e-06 0)
(0.100001 -1.10802e-05 0)
(0.100001 -1.34083e-05 0)
(0.100002 -1.55674e-05 0)
(0.100003 -1.8904e-05 0)
(0.100003 -2.14987e-05 0)
(0.100004 -2.64351e-05 0)
(0.100005 -2.91656e-05 0)
(0.100006 -3.68107e-05 0)
(0.100007 -3.86713e-05 0)
(0.100009 -5.12136e-05 0)
(0.0999997 -3.49941e-07 0)
(0.0999997 -1.0598e-06 0)
(0.0999997 -1.78234e-06 0)
(0.0999997 -2.56017e-06 0)
(0.0999998 -3.3861e-06 0)
(0.0999998 -4.33345e-06 0)
(0.0999999 -5.36246e-06 0)
(0.1 -6.60736e-06 0)
(0.1 -7.94315e-06 0)
(0.1 -9.64006e-06 0)
(0.1 -1.13761e-05 0)
(0.1 -1.37427e-05 0)
(0.100001 -1.59429e-05 0)
(0.100001 -1.93151e-05 0)
(0.100001 -2.19509e-05 0)
(0.100001 -2.69142e-05 0)
(0.100002 -2.96839e-05 0)
(0.100002 -3.73347e-05 0)
(0.100002 -3.92243e-05 0)
(0.100003 -5.17108e-05 0)
(0.1 -3.49647e-07 0)
(0.1 -1.05908e-06 0)
(0.1 -1.78301e-06 0)
(0.1 -2.56012e-06 0)
(0.1 -3.38676e-06 0)
(0.1 -4.33338e-06 0)
(0.1 -5.36295e-06 0)
(0.1 -6.60746e-06 0)
(0.0999999 -7.94251e-06 0)
(0.0999998 -9.63993e-06 0)
(0.0999997 -1.1375e-05 0)
(0.0999995 -1.37418e-05 0)
(0.0999993 -1.59438e-05 0)
(0.0999991 -1.93161e-05 0)
(0.0999989 -2.19508e-05 0)
(0.0999986 -2.69141e-05 0)
(0.0999983 -2.96841e-05 0)
(0.0999979 -3.7334e-05 0)
(0.0999977 -3.92224e-05 0)
(0.0999971 -5.17093e-05 0)
(0.100001 -3.41614e-07 0)
(0.100001 -1.03525e-06 0)
(0.100001 -1.74354e-06 0)
(0.100001 -2.50228e-06 0)
(0.100001 -3.30771e-06 0)
(0.100001 -4.22745e-06 0)
(0.1 -5.22521e-06 0)
(0.1 -6.43324e-06 0)
(0.0999998 -7.72765e-06 0)
(0.0999995 -9.38529e-06 0)
(0.0999991 -1.10784e-05 0)
(0.0999985 -1.34061e-05 0)
(0.099998 -1.5568e-05 0)
(0.0999973 -1.89049e-05 0)
(0.0999967 -2.14984e-05 0)
(0.0999957 -2.64337e-05 0)
(0.099995 -2.91647e-05 0)
(0.0999936 -3.68066e-05 0)
(0.0999932 -3.8665e-05 0)
(0.0999912 -5.12058e-05 0)
(0.100002 -3.24497e-07 0)
(0.100002 -9.85993e-07 0)
(0.100002 -1.66376e-06 0)
(0.100001 -2.39611e-06 0)
(0.100001 -3.17021e-06 0)
(0.100001 -4.04978e-06 0)
(0.100001 -4.9907e-06 0)
(0.1 -6.12515e-06 0)
(0.0999997 -7.32742e-06 0)
(0.0999991 -8.87325e-06 0)
(0.0999985 -1.0441e-05 0)
(0.0999976 -1.26207e-05 0)
(0.0999968 -1.46248e-05 0)
(0.0999956 -1.77824e-05 0)
(0.0999945 -2.02037e-05 0)
(0.0999929 -2.49397e-05 0)
(0.0999917 -2.75126e-05 0)
(0.0999894 -3.49557e-05 0)
(0.0999885 -3.67131e-05 0)
(0.0999853 -4.90472e-05 0)
(0.100002 -2.9482e-07 0)
(0.100002 -8.96652e-07 0)
(0.100002 -1.52438e-06 0)
(0.100002 -2.22541e-06 0)
(0.100002 -2.98895e-06 0)
(0.100001 -3.88272e-06 0)
(0.100001 -4.85263e-06 0)
(0.1 -6.02804e-06 0)
(0.0999998 -7.27377e-06 0)
(0.099999 -8.85675e-06 0)
(0.0999981 -1.04538e-05 0)
(0.0999969 -1.26536e-05 0)
(0.0999957 -1.46588e-05 0)
(0.0999941 -1.78129e-05 0)
(0.0999926 -2.02076e-05 0)
(0.0999903 -2.49302e-05 0)
(0.0999887 -2.74597e-05 0)
(0.0999853 -3.4928e-05 0)
(0.0999843 -3.6675e-05 0)
(0.0999793 -4.91747e-05 0)
(0.100003 -2.60483e-07 0)
(0.100003 -7.59939e-07 0)
(0.100003 -1.22633e-06 0)
(0.100002 -1.69397e-06 0)
(0.100002 -2.16186e-06 0)
(0.100002 -2.70806e-06 0)
(0.100001 -3.29525e-06 0)
(0.1 -4.05883e-06 0)
(0.0999995 -4.87615e-06 0)
(0.0999985 -6.00678e-06 0)
(0.0999974 -7.13459e-06 0)
(0.0999959 -8.8439e-06 0)
(0.0999944 -1.03499e-05 0)
(0.0999923 -1.29781e-05 0)
(0.0999904 -1.48608e-05 0)
(0.0999874 -1.90405e-05 0)
(0.0999853 -2.10912e-05 0)
(0.0999811 -2.80298e-05 0)
(0.0999793 -2.94135e-05 0)
(0.0999733 -4.14691e-05 0)
(0.100004 -2.91915e-07 0)
(0.100004 -9.28169e-07 0)
(0.100004 -1.63763e-06 0)
(0.100003 -2.44021e-06 0)
(0.100003 -3.30583e-06 0)
(0.100003 -4.26564e-06 0)
(0.100002 -5.27547e-06 0)
(0.100001 -6.43633e-06 0)
(0.1 -7.63626e-06 0)
(0.0999991 -9.12037e-06 0)
(0.0999978 -1.05654e-05 0)
(0.099996 -1.25514e-05 0)
(0.0999942 -1.42932e-05 0)
(0.0999916 -1.7113e-05 0)
(0.0999895 -1.91401e-05 0)
(0.0999856 -2.34385e-05 0)
(0.0999833 -2.55703e-05 0)
(0.0999776 -3.26336e-05 0)
(0.099976 -3.41182e-05 0)
(0.0999673 -4.64026e-05 0)
(0.100004 -1.4976e-08 0)
(0.100004 -7.87557e-09 0)
(0.100004 5.42585e-08 0)
(0.100003 1.29418e-07 0)
(0.100003 2.02581e-07 0)
(0.100002 2.07919e-07 0)
(0.100001 1.64111e-07 0)
(0.1 -1.71779e-08 0)
(0.0999994 -2.23771e-07 0)
(0.0999981 -7.02636e-07 0)
(0.0999966 -1.12649e-06 0)
(0.0999946 -2.05911e-06 0)
(0.0999926 -2.73636e-06 0)
(0.0999897 -4.44666e-06 0)
(0.0999871 -5.37087e-06 0)
(0.0999828 -8.50381e-06 0)
(0.0999798 -9.54101e-06 0)
(0.0999734 -1.54499e-05 0)
(0.0999707 -1.60664e-05 0)
(0.0999614 -2.75604e-05 0)
(0.100005 -3.98819e-07 0)
(0.100005 -1.30543e-06 0)
(0.100005 -2.30783e-06 0)
(0.100005 -3.36641e-06 0)
(0.100005 -4.41415e-06 0)
(0.100004 -5.48772e-06 0)
(0.100003 -6.55886e-06 0)
(0.100002 -7.73025e-06 0)
(0.100001 -8.87625e-06 0)
(0.0999996 -1.02479e-05 0)
(0.099998 -1.15309e-05 0)
(0.0999957 -1.32524e-05 0)
(0.0999936 -1.46683e-05 0)
(0.0999901 -1.70187e-05 0)
(0.0999874 -1.85272e-05 0)
(0.0999821 -2.21172e-05 0)
(0.0999791 -2.35637e-05 0)
(0.0999706 -2.97436e-05 0)
(0.0999684 -3.05998e-05 0)
(0.0999544 -4.21951e-05 0)
(0.100006 3.94127e-07 0)
(0.100005 1.20692e-06 0)
(0.100005 2.02454e-06 0)
(0.100004 2.79507e-06 0)
(0.100004 3.51724e-06 0)
(0.100003 4.14864e-06 0)
(0.100002 4.78315e-06 0)
(0.100001 5.30158e-06 0)
(0.1 5.83747e-06 0)
(0.0999984 6.23258e-06 0)
(0.0999967 6.69542e-06 0)
(0.0999943 6.8551e-06 0)
(0.0999921 7.26397e-06 0)
(0.0999885 6.9838e-06 0)
(0.0999855 7.39927e-06 0)
(0.0999799 6.16863e-06 0)
(0.0999764 6.71915e-06 0)
(0.0999674 3.18565e-06 0)
(0.0999642 3.99699e-06 0)
(0.09995 -5.44022e-06 0)
(0.100007 -8.74926e-07 0)
(0.100007 -2.3778e-06 0)
(0.100007 -3.5984e-06 0)
(0.100007 -4.66736e-06 0)
(0.100006 -5.68304e-06 0)
(0.100005 -6.74921e-06 0)
(0.100005 -7.78253e-06 0)
(0.100003 -8.91068e-06 0)
(0.100002 -9.99448e-06 0)
(0.1 -1.11931e-05 0)
(0.0999988 -1.22726e-05 0)
(0.0999961 -1.36279e-05 0)
(0.0999941 -1.46677e-05 0)
(0.0999898 -1.63486e-05 0)
(0.0999874 -1.72287e-05 0)
(0.0999803 -1.96367e-05 0)
(0.0999779 -2.00815e-05 0)
(0.0999653 -2.43035e-05 0)
(0.0999638 -2.39132e-05 0)
(0.0999402 -3.31916e-05 0)
)
;

boundaryField
{
    sides
    {
        type            calculated;
        value           nonuniform List<vector> 
40
(
(0.100007 0 0)
(0.100007 0 0)
(0.100007 0 0)
(0.100007 0 0)
(0.100006 0 0)
(0.100005 0 0)
(0.100005 0 0)
(0.100003 0 0)
(0.100002 0 0)
(0.1 0 0)
(0.0999988 0 0)
(0.0999961 0 0)
(0.0999941 0 0)
(0.0999898 0 0)
(0.0999874 0 0)
(0.0999803 0 0)
(0.0999779 0 0)
(0.0999653 0 0)
(0.0999638 0 0)
(0.0999402 0 0)
(0.0999931 0 0)
(0.099993 0 0)
(0.0999931 0 0)
(0.0999934 0 0)
(0.0999939 0 0)
(0.0999947 0 0)
(0.0999955 0 0)
(0.0999966 0 0)
(0.0999978 0 0)
(0.0999996 0 0)
(0.100001 0 0)
(0.100004 0 0)
(0.100006 0 0)
(0.10001 0 0)
(0.100013 0 0)
(0.10002 0 0)
(0.100022 0 0)
(0.100035 0 0)
(0.100036 0 0)
(0.10006 0 0)
)
;
    }
    inlet
    {
        type            calculated;
        value           nonuniform List<vector> 
20
(
(0.0999931 0 0)
(0.0999943 0 0)
(0.0999948 0 0)
(0.0999956 0 0)
(0.0999963 0 0)
(0.099997 0 0)
(0.0999976 0 0)
(0.0999983 0 0)
(0.099999 0 0)
(0.0999997 0 0)
(0.1 0 0)
(0.100001 0 0)
(0.100002 0 0)
(0.100002 0 0)
(0.100003 0 0)
(0.100004 0 0)
(0.100004 0 0)
(0.100005 0 0)
(0.100006 0 0)
(0.100007 0 0)
)
;
    }
    outlet
    {
        type            calculated;
        value           nonuniform List<vector> 
20
(
(0.100061 -3.31786e-05 0)
(0.10005 -5.45283e-06 0)
(0.100046 -4.22026e-05 0)
(0.100039 -2.75659e-05 0)
(0.100033 -4.64174e-05 0)
(0.100027 -4.14697e-05 0)
(0.100021 -4.91887e-05 0)
(0.100015 -4.90497e-05 0)
(0.100009 -5.12136e-05 0)
(0.100003 -5.17108e-05 0)
(0.099997 -5.17093e-05 0)
(0.0999911 -5.12057e-05 0)
(0.0999852 -4.90472e-05 0)
(0.0999792 -4.91746e-05 0)
(0.0999731 -4.1469e-05 0)
(0.099967 -4.64024e-05 0)
(0.0999611 -2.75603e-05 0)
(0.0999539 -4.21949e-05 0)
(0.0999496 -5.4402e-06 0)
(0.0999394 -3.31914e-05 0)
)
;
    }
    frontAndBack
    {
        type            empty;
    }
}


// ************************************************************************* //
