/*--------------------------------*- C++ -*----------------------------------*\
  =========                 |
  \\      /  F ield         | OpenFOAM: The Open Source CFD Toolbox
   \\    /   O peration     | Website:  https://openfoam.org
    \\  /    A nd           | Version:  7
     \\/     M anipulation  |
\*---------------------------------------------------------------------------*/
FoamFile
{
    version     2.0;
    format      ascii;
    class       volScalarField;
    location    "400";
    object      epsilon;
}
// * * * * * * * * * * * * * * * * * * * * * * * * * * * * * * * * * * * * * //

dimensions      [0 2 -3 0 0 0 0];

internalField   nonuniform List<scalar> 
120313
(
79.5072
85.0012
91.9239
96.1631
98.2607
99.1573
98.7213
97.127
92.9743
88.5361
83.3525
77.4575
71.8945
67.3954
63.6769
60.0617
56.4947
53.1135
49.9419
47.1226
44.5189
41.8803
38.9848
37.1422
80.2372
84.0735
90.9374
95.5466
97.8098
98.8768
97.7754
95.6193
92.4877
88.2412
83.1232
77.8556
72.8539
68.4839
64.2992
60.4767
56.7191
53.1906
49.8873
46.8602
44.1512
41.2477
38.3608
37.8953
78.0563
80.9923
87.1454
91.8338
94.1041
95.2516
94.5971
92.2504
89.0191
84.7765
79.7914
74.6519
69.7722
65.4744
61.4091
57.7378
54.1597
50.8242
47.7146
44.8356
42.2464
39.4327
36.7989
36.7546
77.4591
80.1882
86.2234
90.954
93.2667
94.4461
93.9163
91.4667
88.1489
83.8152
78.842
73.71
68.8555
64.5019
60.4479
56.8341
53.3351
50.0765
47.0373
44.2012
41.6317
38.8434
36.2736
36.3255
77.558
80.3374
86.4375
91.1649
93.4709
94.6408
94.0781
91.5928
88.248
83.8707
78.8796
73.7554
68.8827
64.5481
60.4922
56.8809
53.3801
50.1102
47.0595
44.2069
41.6279
38.8275
36.2488
36.2921
78.3972
81.4774
87.833
92.5689
94.8317
95.954
95.1955
92.7701
89.4272
85.0615
80.0309
74.8742
69.9623
65.6691
61.6153
57.9442
54.3592
50.9934
47.8434
44.9038
42.272
39.4076
36.7318
36.6604
81.0676
85.1655
92.3156
97.0551
99.2974
100.256
98.9199
96.7564
93.417
88.9344
83.7917
78.4622
73.406
69.0494
64.8925
61.0609
57.284
53.7037
50.3236
47.1787
44.3826
41.3574
38.3496
37.8196
82.3778
88.182
95.9222
100.294
102.294
103.012
102.221
100.387
95.8487
91.0477
85.7361
79.7259
74.145
69.7043
65.8474
62.1715
58.4953
54.952
51.6322
48.6002
45.8244
42.9658
39.7492
37.787
4.07908
7.91664
12.1132
16.8826
22.277
28.6025
36.6021
47.1771
56.4072
64.6912
73.5273
78.8985
82.5571
84.452
85.1514
84.9851
83.931
81.8079
78.5721
74.596
70.2034
65.7924
61.5539
57.4744
53.6242
50.0097
46.612
43.5064
40.6345
37.9903
35.5246
33.2572
31.1729
29.273
27.5277
26.2681
4.03373
7.92859
12.1923
16.9993
22.435
28.8658
37.0939
47.8287
57.8309
73.7526
85.3865
93.0067
97.1548
98.8138
99.1622
98.5709
97.4317
93.0961
89.4449
84.2348
79.1237
73.8378
68.8169
63.9155
59.2818
54.8786
50.8532
47.1344
43.789
40.7098
37.8594
35.1716
32.6509
29.8034
28.5453
26.4748
3.91895
7.88052
12.2055
17.0577
22.5071
28.9017
37.012
47.4437
57.6958
74.3703
88.9329
96.4672
101.114
103.048
103.654
102.542
100.48
96.71
92.4695
87.3164
81.8365
76.3464
71.0763
65.9863
61.1325
56.5466
52.3675
48.4979
45.0381
41.8356
38.8658
36.0748
33.3446
30.3625
28.9981
26.7121
3.83438
7.87632
12.2776
17.1834
22.6369
28.9563
36.8784
46.926
57.088
74.0925
89.2438
98.1512
102.97
104.872
105.57
105
102.111
98.4669
93.6368
88.3569
82.7576
77.1684
71.8143
66.6219
61.7102
57.0162
52.7776
48.8334
45.3136
42.0765
39.0474
36.248
33.2768
30.3347
28.8505
26.5661
3.84423
7.92645
12.3977
17.3653
22.8427
29.1289
36.9477
46.772
56.8432
74.0472
89.4774
98.708
103.777
105.701
106.401
105.693
102.764
99.0122
94.0105
88.6341
82.9606
77.324
71.9483
66.7192
61.791
57.0899
52.8347
48.8832
45.3393
42.0933
39.0426
36.2281
33.1736
30.2583
28.7283
26.4576
3.8223
7.90983
12.4137
17.4202
22.926
29.2208
37.027
46.8016
56.8809
74.1626
89.611
98.8377
103.899
105.832
106.552
105.751
102.827
99.0221
94.0039
88.5986
82.914
77.277
71.9049
66.6785
61.7524
57.0552
52.7975
48.844
45.2918
42.0413
38.9826
36.1662
33.1187
30.2001
28.6818
26.4156
3.7103
7.78699
12.2829
17.3009
22.8384
29.1815
37.0549
46.9604
57.1534
74.4053
89.5824
98.4647
103.267
105.183
105.943
105.204
102.338
98.535
93.6662
88.293
82.6679
77.0766
71.7314
66.5481
61.6359
56.9562
52.7025
48.7513
45.1975
41.9461
38.8851
36.0715
33.1078
30.1591
28.7131
26.4371
3.56532
7.60633
12.0528
17.0501
22.6216
29.0593
37.108
47.3556
57.8908
74.8975
89.3511
97.0852
101.633
103.593
104.357
103.279
100.947
96.97
92.6967
87.295
81.8302
76.3454
71.0864
66.0201
61.1687
56.6014
52.3979
48.5043
44.9757
41.737
38.6957
35.8671
33.1204
30.1735
28.8404
26.5738
3.54881
7.49269
11.8732
16.8483
22.4789
29.0977
37.5171
48.5506
59.1303
75.3126
87.4311
94.4737
98.509
100.37
100.851
100.196
98.6368
94.0935
90.2686
84.8937
79.7203
74.4188
69.3943
64.5524
59.9041
55.4967
51.4023
47.6284
44.1577
41.008
38.0354
35.2681
32.6725
29.9147
28.8195
26.798
3.56406
7.38335
11.6716
16.5765
22.185
28.8556
37.458
48.9874
59.6271
73.3386
83.118
89.9622
93.5845
95.1475
95.5432
95.086
93.956
90.8871
86.9643
82.1171
77.219
72.2491
67.409
62.9101
58.5522
54.3979
50.5055
46.8995
43.5865
40.5626
37.7369
35.1988
32.7558
29.9601
28.9972
27.0358
3.45873
7.21532
11.4413
16.2869
21.8374
28.4357
36.9291
48.2059
57.3983
66.7326
75.1028
80.7983
84.4715
86.3695
87.0639
86.889
85.7822
83.5949
80.389
76.0922
71.5544
67.0051
62.6434
58.5776
54.6963
50.9961
47.5329
44.2881
41.2694
38.4659
35.8759
33.516
31.3897
29.3889
27.6655
26.1296
3.16989
6.95089
11.1211
15.9479
21.4869
27.9813
36.0687
46.512
56.5118
64.6967
73.6
79.2004
83.1021
85.2583
86.2286
86.1393
84.955
82.7115
79.4005
75.1911
70.7021
66.1679
61.8599
57.767
53.8432
50.146
46.6673
43.4119
40.3855
37.5963
35.0367
32.6983
30.5608
28.6627
26.9362
25.6078
109.601
123.073
134.803
141.075
142.389
140.603
136.017
130.352
124.479
117.343
109.872
102.182
94.6
87.2774
80.4699
73.7922
67.8551
62.1703
57.2495
52.5989
48.5874
44.8295
41.5446
38.6951
3.87707
7.24627
11.8718
17.823
25.2772
34.4468
45.4271
57.8983
75.513
105.984
120.566
131.953
137.934
139.474
138.029
133.901
127.913
121.507
115.609
108.205
100.694
93.2344
86.1005
79.3019
72.973
67.0734
61.6895
56.7598
52.3194
48.2755
44.6625
41.3188
38.3807
35.7589
33.0375
30.707
3.78754
7.17056
11.8759
17.9204
25.5083
34.8551
46.0195
58.5603
76.3557
107.614
122.014
133.422
139.082
140.257
138.603
134.362
127.963
121.424
114.824
107.538
100.207
92.7546
85.6852
78.8704
72.6428
66.6761
61.4033
56.426
52.1193
48.0349
44.5266
41.1812
38.2793
35.3794
33.2906
30.622
3.69528
7.09855
11.8475
17.968
25.6558
35.1174
46.4021
59.0631
76.7217
108.81
123.605
135.295
140.989
141.957
139.974
135.098
128.939
122.429
115.513
108.147
100.616
93.1211
85.9452
79.1435
72.8
66.9073
61.5722
56.6792
52.3239
48.2851
44.7608
41.369
38.3662
35.2523
33.1412
30.5029
3.61486
7.05481
11.8433
18.0258
25.7779
35.2985
46.6324
59.3217
76.7615
109.135
124.042
136.051
141.869
142.746
140.556
135.213
129.449
122.97
115.881
108.393
100.744
93.191
86.0824
79.1641
72.8738
66.7591
61.4878
56.4759
52.194
48.0986
44.6304
41.2617
38.2477
35.1758
33.039
30.3918
3.5934
7.05421
11.8804
18.1189
25.9293
35.4997
46.8717
59.5709
76.8815
109.393
124.208
136.275
142.131
142.92
140.646
134.953
129.665
123.071
115.861
108.28
100.615
93.0268
85.9867
78.91
72.6324
66.5552
61.2991
56.3085
52.0326
47.9563
44.5054
41.1446
38.1296
35.0625
32.9323
30.2872
3.56517
7.02592
11.8615
18.126
25.9693
35.5749
46.9867
59.7152
77.004
109.499
124.215
136.243
142.08
142.825
140.497
134.793
129.563
122.929
115.71
108.102
100.439
92.862
85.8269
78.7785
72.5131
66.4532
61.207
56.2245
51.9508
47.8774
44.4231
41.0701
38.0593
35.0005
32.8754
30.2382
3.48869
6.93145
11.7387
17.9828
25.8174
35.4294
46.8689
59.6303
76.9103
109.069
123.836
135.805
141.631
142.471
140.228
134.725
129.221
122.64
115.492
107.948
100.284
92.7641
85.691
78.818
72.551
66.5018
61.243
56.2622
51.9741
47.8866
44.4022
41.0623
38.0587
35.0039
32.8873
30.2569
3.40292
6.81197
11.5641
17.7518
25.5441
35.1383
46.5964
59.396
76.6854
108.218
123.061
134.816
140.593
141.558
139.531
134.453
128.558
121.956
115.034
107.582
100.027
92.5576
85.4396
78.7229
72.4316
66.6123
61.3079
56.4476
52.0832
48.048
44.5003
41.1254
38.1246
35.0823
32.9811
30.3463
3.39299
6.73647
11.4245
17.55
25.2997
34.8906
46.3903
59.2593
76.6499
107.316
121.89
133.274
138.901
140.011
138.26
133.833
127.529
121.011
114.25
106.886
99.5037
92.1354
85.0973
78.4439
72.2317
66.476
61.2149
56.3856
52.0109
47.9933
44.4066
41.0463
38.1012
35.123
33.05
30.4569
3.39882
6.664
11.2806
17.328
25.0087
34.5576
46.0455
58.8842
76.145
106.151
120.496
131.584
137.128
138.278
136.667
132.533
126.297
119.95
113.446
106.224
98.9365
91.6886
84.7592
78.2003
72.0673
66.3843
61.1637
56.3714
52.0091
48.0214
44.4124
41.095
38.1543
35.2101
33.1677
30.5474
3.30546
6.5259
11.0473
16.9805
24.5309
33.9515
45.3388
58.1202
75.5003
106.438
121.319
132.729
138.579
139.827
138.117
133.645
127.692
121.525
115.558
107.876
100.323
92.8906
85.7687
79.0308
72.7339
66.9109
61.556
56.6647
52.2172
48.1656
44.5217
41.165
38.1886
35.4706
32.747
30.4204
3.1596
6.36206
10.7603
16.5642
23.957
33.1981
44.4665
57.4663
75.6252
107.606
123.966
135.828
141.953
143.069
140.932
135.976
130.396
124.12
117.584
109.761
101.92
94.1981
86.8049
79.8274
73.3183
67.3481
61.8715
56.9022
52.41
48.3386
44.6855
41.3145
38.3485
35.6134
32.7578
30.3357
166.943
171.657
173.043
171.055
164.927
155.509
144.719
133.687
122.737
112.332
102.561
93.7101
85.9908
78.6504
73.1548
65.6017
61.4321
55.3635
52.2294
47.483
44.9101
41.4102
39.0677
36.9533
3.30512
6.82899
13.0498
22.7301
36.1966
52.9988
71.9954
92.3024
125.716
168.061
171.748
173.391
171.923
166.583
157.701
147.142
136.103
125.164
114.906
105.172
96.2031
88.0692
80.7731
74.1691
68.1964
62.8129
58.0032
53.6341
49.7382
46.184
42.9927
40.0729
37.3245
35.1325
34.6753
32.7938
3.26974
6.83835
13.2369
23.4032
37.5764
55.0014
74.4467
95.1863
128.579
170.143
172.233
173.532
171.868
166.441
157.503
146.899
135.786
124.784
114.641
104.681
96.1517
87.623
80.8895
73.6763
68.5784
61.7658
57.8684
52.2327
49.356
44.8588
42.3247
39.5993
37.1378
34.6499
32.465
30.4363
3.20328
6.67683
13.1385
23.6185
38.0522
55.5523
74.9942
95.7983
128.447
169.614
171.006
172.21
170.402
164.742
155.644
144.987
133.904
122.965
112.667
102.921
94.1173
86.1769
79.049
72.5344
66.7527
61.4126
56.7971
52.5516
48.8692
45.4409
42.4866
39.7407
37.3693
33.7332
31.767
29.8709
3.12813
6.68975
13.2287
23.6461
38.0203
55.5116
74.7836
95.3475
127.421
168.725
169.581
170.576
168.588
162.693
153.487
142.812
131.833
120.93
110.65
100.983
92.2889
84.553
78.2711
70.772
66.015
58.9269
55.5412
50.2887
47.7043
43.5736
41.3966
38.6502
36.486
34.0832
31.816
29.7627
3.13843
6.70953
13.2028
23.6639
38.1101
55.4783
74.6626
95.3475
127.224
168.385
168.713
169.488
167.314
161.255
151.994
141.346
130.462
119.559
109.32
99.7097
91.4359
83.4182
77.7609
68.8618
64.6658
57.972
54.7563
49.622
47.1206
43.0941
41.0879
38.047
36.0736
33.8119
31.6005
29.5732
3.1311
6.66357
13.155
23.7032
38.0557
55.2797
74.7135
95.7579
127.552
168.341
168.449
169.145
166.917
160.828
151.557
140.929
130.067
119.182
108.952
99.3811
91.1799
83.1537
77.5297
68.6941
64.5216
57.8679
54.6738
49.5557
47.0652
43.0419
41.0235
38.0303
36.0449
33.7749
31.5595
29.5329
3.08158
6.5901
13.0399
23.5569
37.8493
55.0199
74.47
95.5622
127.171
167.797
168.408
169.341
167.305
161.377
152.171
141.538
130.656
119.785
109.552
99.9492
91.3905
83.7833
77.7289
70.0733
65.4514
58.5857
55.2514
50.0847
47.5166
43.4114
41.1926
38.6062
36.4226
34.0297
31.7555
29.6843
3.01462
6.50665
12.884
23.288
37.6039
54.7892
73.9757
94.8072
126.382
167.214
168.872
170.175
168.4
162.734
153.621
143.031
132.059
121.164
110.881
101.236
92.5516
84.801
77.8698
71.5893
65.9734
60.8803
56.368
52.2691
48.6297
45.2894
42.3601
39.6092
37.1126
34.5337
32.1642
29.9862
2.98668
6.45186
12.807
23.099
37.4178
54.8899
74.1827
94.7885
126.699
167.84
170.2
171.61
169.887
164.378
155.34
144.779
133.688
122.74
112.507
102.711
93.9833
86.1208
79.109
72.8022
67.1268
62.03
57.4589
53.2906
49.5288
46.0726
43.0042
40.1261
37.522
34.889
32.4992
30.3278
2.98085
6.30322
12.5405
22.8235
37.1045
54.6456
74.3103
95.3054
127.931
169.346
171.667
172.79
170.79
165.03
155.941
145.343
134.203
123.248
113.047
103.377
94.6277
86.7503
79.7214
73.4142
67.7332
62.6444
58.0567
53.8544
50.0453
46.5294
43.3768
40.4262
37.7506
35.1404
32.8051
30.6805
2.89227
6.20346
12.2033
21.9906
35.915
53.2565
72.9331
94.4046
127.985
169.544
172.24
173.265
171.069
164.917
155.683
145.018
133.831
122.969
112.774
103.17
94.3548
86.5521
79.5047
73.2324
67.5764
62.538
57.9708
53.8269
50.0167
46.5383
43.3406
40.4244
37.6942
35.603
34.7579
32.7704
2.72014
5.92007
11.6386
20.8517
33.9685
50.5396
69.6372
90.9651
125.495
166.935
170.821
172.287
170.246
163.93
154.628
143.964
132.803
121.97
111.779
102.208
93.4402
85.6908
78.7238
72.5106
66.8687
61.9148
57.4096
53.3535
49.6081
46.2074
43.0417
40.1831
37.4791
35.466
34.6798
32.7107
115.802
95.4071
79.8737
66.332
55.0714
46.5694
39.914
34.7172
30.9538
27.9782
25.4463
23.3117
21.4101
19.8349
18.3298
17.1295
15.957
15.0838
14.3221
13.7913
13.3124
12.9584
12.6798
11.8462
57.3709
175.293
227.88
234.016
232.172
230.013
226.469
221.899
215.236
120.292
99.0444
82.7427
68.9807
57.06
47.9784
41.068
35.4201
31.4037
28.34
25.8211
23.6708
21.7978
20.1149
18.672
17.3724
16.3005
15.314
14.5681
13.9464
13.4923
13.0708
12.7582
12.4351
11.5819
14.6451
16.0326
65.9226
193.89
235.636
241.136
238.699
234.944
229.606
224.497
215.776
119.292
98.5935
82.3545
68.6597
56.7945
47.8023
40.9516
35.3251
31.3845
28.3084
25.8191
23.6623
21.8243
20.1209
18.6932
17.3632
16.2853
15.2991
14.572
13.9949
13.5563
13.2178
12.9026
12.6873
12.1999
11.8791
11.0081
61.2856
169.812
234.162
244.48
240.509
234.745
228.684
223.076
214.169
118.806
97.8911
81.3508
67.3964
55.5957
46.7117
39.9169
34.558
30.791
27.8095
25.3576
23.2364
21.397
19.754
18.3345
17.0512
15.9754
15.0204
14.282
13.7307
13.3487
13.1143
12.9241
12.8156
12.4289
12.0378
11.1464
60.3823
191.753
240.907
245.629
240.459
235.173
227.838
221.451
213.28
118.882
97.46
80.4385
66.1755
54.3519
45.5722
38.8126
33.719
30.1091
27.2306
24.8226
22.7284
20.9367
19.3293
17.9864
16.6654
15.6179
14.6712
13.966
13.4665
13.1111
12.9509
12.8314
12.8107
12.4598
12.0465
11.0949
75.6395
192.672
237.929
245.664
240.952
233.932
226.339
220.118
212.132
118.701
97.0366
79.7869
65.3593
53.5305
44.826
38.1041
33.1884
29.6746
26.8523
24.4698
22.4057
20.6815
19.065
17.717
16.4237
15.4177
14.5201
13.85
13.3765
13.0423
12.9201
12.7991
12.8137
12.4694
12.0476
11.0717
68.8792
180.26
238.006
247.93
240.517
232.537
225.76
219.743
211.778
118.689
96.9528
79.6474
65.1852
53.3416
44.6511
37.9446
33.0719
29.5575
26.7716
24.3816
22.3409
20.6261
19.0226
17.6892
16.4075
15.4124
14.5247
13.8632
13.3991
13.0683
12.9591
12.8297
12.8441
12.4884
12.0584
11.0703
69.297
181.042
238.074
248.095
240.266
232.145
225.465
219.445
211.412
118.724
97.0808
80.0311
65.7176
53.8304
45.0816
38.3281
33.331
29.7796
26.9382
24.5515
22.5014
20.746
19.1778
17.8797
16.599
15.5891
14.6824
14.0036
13.5343
13.1808
13.0718
12.8856
12.8909
12.5205
12.0946
11.1124
69.9278
182.028
237.856
247.353
240.701
232.475
225.221
218.989
211.337
118.611
97.4926
80.8169
66.7448
54.8132
45.9501
39.1263
33.9057
30.1986
27.298
24.8566
22.7934
20.9839
19.4233
18.0654
16.8675
15.8625
14.9615
14.2564
13.7319
13.3577
13.1421
12.9661
12.8854
12.4846
12.0468
11.1123
65.0654
194.124
241.564
247.311
241.371
234.854
227.298
220.609
212.284
118.024
97.5662
81.3948
67.6276
55.722
46.7804
39.9252
34.4784
30.6186
27.6555
25.151
23.0746
21.2509
19.6747
18.3132
17.1167
16.1075
15.2197
14.5103
13.9681
13.5477
13.2532
13.0006
12.834
12.398
11.9755
11.0981
59.3187
174.725
237.393
247.363
241.393
235.131
228.762
222.636
212.858
116.258
96.1576
80.2005
66.614
55.0636
46.3089
39.6022
34.2658
30.4986
27.5617
25.1249
23.059
21.2694
19.6957
18.3541
17.1709
16.1788
15.3038
14.6017
14.0551
13.604
13.2678
12.9236
12.7087
12.2171
11.8766
11.067
64.5052
190.001
234.629
241.535
238.351
233.893
228.436
224.278
213.497
113.967
94.0082
78.1116
64.6825
53.5597
45.193
38.6405
33.663
30.1265
27.3101
24.9514
22.8831
21.1329
19.5526
18.243
17.0575
16.1048
15.2235
14.5601
13.9969
13.5718
13.2034
12.8378
12.6241
11.7308
14.3371
15.906
57.8934
170.194
223.205
231.437
228.348
225.965
222.99
219.529
210.931
112.493
92.7862
76.6127
63.1032
52.1112
44.1447
37.5634
33.0695
29.7589
27.0562
24.7254
22.6674
20.931
19.3652
18.0684
16.8808
15.9463
15.0725
14.4067
13.8384
13.4291
13.0578
12.7119
12.4954
11.5826
14.2485
15.7812
1.68656
1.99188
2.15568
2.20386
2.18281
2.1181
2.02994
1.93026
1.82874
1.73706
1.64932
1.57078
1.49872
1.43547
1.37906
1.33287
1.29527
1.26842
1.2494
1.24216
1.24491
1.25649
1.27374
1.17685
0.00996974
0.00937161
0.00890247
0.00845676
0.00817084
0.00784403
0.0127086
0.0388947
0.07696
0.131974
0.353358
0.921777
1.80204
2.02212
1.56729
1.92832
2.13644
2.21114
2.20484
2.14858
2.06329
1.96476
1.86189
1.76399
1.67835
1.59858
1.52731
1.46327
1.40841
1.36153
1.32434
1.29544
1.27708
1.26759
1.26736
1.27451
1.28848
1.28551
1.20717
1.69543
1.96523
0.00996969
0.00936248
0.00886445
0.0084924
0.00816536
0.00784882
0.0091967
0.019911
0.0433684
0.098071
0.306702
0.816311
1.58234
1.87227
1.53936
1.90754
2.12054
2.19971
2.19716
2.14432
2.06178
1.9654
1.86305
1.76844
1.68047
1.60323
1.53214
1.46889
1.41371
1.36735
1.33096
1.30416
1.28729
1.28038
1.28472
1.2971
1.31624
1.33828
1.35342
1.37594
1.39496
0.00996962
0.00935368
0.00889736
0.00849951
0.00816527
0.00784933
0.00803877
0.0178403
0.0449474
0.101891
0.29741
0.752448
1.4706
1.85002
1.5588
1.92645
2.1297
2.19857
2.1883
2.12811
2.04132
1.94075
1.8379
1.7442
1.65698
1.58
1.50944
1.44725
1.39301
1.34636
1.30838
1.27913
1.26123
1.25316
1.2582
1.27491
1.30157
1.3339
1.36603
1.38985
1.42193
0.00991104
0.0093163
0.00885554
0.00844705
0.00817202
0.00785148
0.00894426
0.0151959
0.025032
0.069807
0.235147
0.673557
1.44706
1.87252
1.5899
1.94943
2.14008
2.19659
2.1758
2.10723
2.0148
1.91034
1.80672
1.71376
1.62697
1.55028
1.47994
1.41853
1.36473
1.31853
1.28167
1.25417
1.23857
1.23189
1.23883
1.25699
1.28523
1.32031
1.35403
1.37776
1.41062
0.00991095
0.00935077
0.00888872
0.00850466
0.00817739
0.00786844
0.00813
0.0121161
0.0229296
0.0686567
0.233555
0.682032
1.47816
1.92113
1.62374
1.97975
2.16129
2.20859
2.17962
2.10464
2.00809
1.90135
1.79705
1.70393
1.61695
1.53974
1.46953
1.40794
1.35503
1.31057
1.27583
1.25074
1.23778
1.23293
1.24152
1.26096
1.28953
1.3237
1.35514
1.38193
1.40727
0.00991096
0.00933083
0.00889753
0.00848799
0.00813645
0.00784795
0.00778925
0.0117604
0.0210721
0.0600003
0.224428
0.690998
1.54697
1.98833
1.63813
1.9945
2.17202
2.2171
2.18517
2.10801
2.01002
1.90243
1.79867
1.70325
1.6186
1.54037
1.47104
1.40986
1.35782
1.31422
1.2804
1.25619
1.24465
1.23956
1.24913
1.26929
1.29823
1.3328
1.36477
1.38711
1.42043
0.00991101
0.00932111
0.00886005
0.00846276
0.00817087
0.00783696
0.0077653
0.0113952
0.0195942
0.0567562
0.216207
0.677145
1.52601
1.95913
1.61706
1.97814
2.16498
2.21573
2.18846
2.11467
2.01824
1.91159
1.80684
1.71343
1.62629
1.54966
1.48023
1.42029
1.3689
1.32539
1.29164
1.26716
1.25529
1.25092
1.25996
1.2795
1.3081
1.34211
1.37346
1.40095
1.42886
0.00996828
0.00935178
0.0088863
0.0085182
0.00817937
0.00784808
0.00774294
0.0105217
0.0195294
0.0607467
0.218647
0.653726
1.44874
1.87191
1.57727
1.94381
2.14277
2.2052
2.1871
2.12013
2.02745
1.92286
1.81876
1.7219
1.63643
1.55808
1.48842
1.42848
1.37714
1.33485
1.30197
1.27764
1.26452
1.25849
1.26479
1.28081
1.30558
1.33619
1.36605
1.39313
1.42386
0.00991099
0.00933049
0.00887168
0.00851034
0.0081658
0.00785077
0.00837715
0.0125513
0.0211077
0.0626467
0.212985
0.606373
1.32848
1.76631
1.51898
1.89286
2.10444
2.17911
2.17132
2.1124
2.02544
1.92464
1.82144
1.72446
1.63858
1.56006
1.49076
1.43092
1.38031
1.33882
1.30689
1.28423
1.27151
1.2669
1.27237
1.2861
1.30848
1.33532
1.36265
1.38529
1.41878
0.00991099
0.00931604
0.00886465
0.00850272
0.00815983
0.00786513
0.00798108
0.0144719
0.0256032
0.0682809
0.217531
0.596252
1.24229
1.66737
1.43035
1.79054
1.99298
2.06768
2.06556
2.01384
1.93599
1.84327
1.74736
1.65981
1.57848
1.50761
1.44328
1.38797
1.34139
1.30376
1.27518
1.2561
1.2454
1.24372
1.25082
1.26488
1.28562
1.31017
1.33331
1.35854
1.38325
0.00996958
0.00935889
0.00890821
0.00849243
0.00816733
0.00781913
0.00868677
0.0153606
0.026175
0.0652216
0.223909
0.62543
1.23299
1.51502
1.33473
1.67669
1.86454
1.93627
1.9371
1.89224
1.82303
1.73932
1.65566
1.57656
1.50806
1.44319
1.38652
1.336
1.2943
1.26023
1.23553
1.21948
1.21215
1.21322
1.22283
1.23876
1.2614
1.28757
1.19894
1.68468
1.94971
0.00989701
0.00932532
0.00885822
0.0084976
0.0081455
0.00785107
0.0112242
0.0260828
0.0540016
0.103609
0.280908
0.693737
1.30336
1.53796
1.31598
1.63694
1.80665
1.86955
1.86486
1.82047
1.75116
1.67282
1.59607
1.5238
1.46005
1.39878
1.34512
1.29718
1.25745
1.22455
1.20118
1.18586
1.17912
1.18075
1.1913
1.20811
1.23228
1.26085
1.14826
1.64649
1.9322
0.00602186
0.0064388
0.0069868
0.00760077
0.0082301
0.0088373
0.00939824
0.00990075
0.0103398
0.0107291
0.0110706
0.0113783
0.01166
0.0119252
0.012186
0.0124613
0.0127659
0.0131229
0.013555
0.0140837
0.0147234
0.0154965
0.0163563
0.0152154
0.00995213
0.00952329
0.00910603
0.00871195
0.00834347
0.00800044
0.00768049
0.00738064
0.00710048
0.00683871
0.00659151
0.00635741
0.00613708
0.00583666
0.00591928
0.00631606
0.00686413
0.00749448
0.00815231
0.00879384
0.00939098
0.0099287
0.0104011
0.0108127
0.0111823
0.0115144
0.0118144
0.0121028
0.0123952
0.0126999
0.0130384
0.0134216
0.0138764
0.0144181
0.0150698
0.0158404
0.0167492
0.0174036
0.016156
0.0249353
0.0294654
0.00995117
0.00951665
0.00910315
0.00871077
0.00834278
0.00799914
0.00767777
0.00737783
0.00709812
0.00683583
0.0065881
0.00635404
0.00613483
0.00583464
0.00591508
0.00630653
0.00685293
0.00748592
0.00814872
0.0087991
0.00940508
0.00995474
0.0104349
0.0108594
0.0112341
0.0115777
0.0118891
0.0121907
0.0124892
0.012806
0.0131552
0.0135631
0.0140491
0.0146407
0.0153536
0.0162111
0.0172237
0.0183761
0.0195411
0.021103
0.0227971
0.00995027
0.00951442
0.00910131
0.00871022
0.00834326
0.008
0.00767827
0.007378
0.00709738
0.00683391
0.00658585
0.00635247
0.00613373
0.0058498
0.0059324
0.00633271
0.00689071
0.00752899
0.00819165
0.00883414
0.00942795
0.00996059
0.0104247
0.0108341
0.0111965
0.0115273
0.0118338
0.0121284
0.0124237
0.0127321
0.0130673
0.0134495
0.013903
0.0144591
0.0151455
0.0159988
0.0170478
0.0183108
0.0197556
0.0213931
0.0230814
0.00994924
0.00951317
0.00909928
0.00870707
0.00833941
0.00799687
0.00767681
0.00737689
0.00709576
0.0068323
0.00658441
0.00635174
0.00613441
0.00585039
0.00594198
0.00636611
0.00693318
0.00757401
0.00823154
0.00886203
0.00943861
0.00995146
0.010396
0.010789
0.0111358
0.0114522
0.0117443
0.0120286
0.0123116
0.0126089
0.0129342
0.0133107
0.0137602
0.0143109
0.0149894
0.0158242
0.0168384
0.0180511
0.0194592
0.0210646
0.0227492
0.0099489
0.00951257
0.00909916
0.00870746
0.00833951
0.00799523
0.007673
0.00737329
0.00709417
0.00683232
0.00658593
0.00635461
0.00613651
0.00585211
0.00596317
0.00640476
0.00699371
0.00764951
0.00831578
0.00894886
0.00952806
0.0100399
0.0104828
0.0108734
0.0112178
0.0115308
0.0118204
0.0121023
0.0123864
0.0126897
0.013027
0.0134211
0.013893
0.0144686
0.0151711
0.0160218
0.0170433
0.0182576
0.0196613
0.0212443
0.0229293
0.00994863
0.00951225
0.00909899
0.00870772
0.00834009
0.00799551
0.00767185
0.00737051
0.0070906
0.00682975
0.0065864
0.00635703
0.00613781
0.00583491
0.00596936
0.00642802
0.0070249
0.0076869
0.00835682
0.00899175
0.00957317
0.0100859
0.0105309
0.0109223
0.0112707
0.0115872
0.0118825
0.0121718
0.012465
0.0127797
0.0131304
0.0135401
0.0140297
0.0146238
0.0153475
0.0162185
0.0172569
0.0184841
0.0199087
0.0215207
0.0232305
0.0099489
0.0095125
0.00909899
0.00870721
0.00833884
0.00799404
0.00767132
0.00737084
0.00709119
0.0068306
0.00658698
0.00635692
0.00613793
0.00583491
0.00596291
0.00640702
0.00700061
0.00766235
0.00833559
0.00897651
0.00956279
0.0100832
0.010535
0.0109349
0.0112895
0.0116149
0.0119216
0.012223
0.0125296
0.0128574
0.0132207
0.0136426
0.0141438
0.0147514
0.0154904
0.0163781
0.0174419
0.0187073
0.0201702
0.0218294
0.0236244
0.00994932
0.00951343
0.0091001
0.00870826
0.00834005
0.00799563
0.00767388
0.00737526
0.00709595
0.00683263
0.00658602
0.00635532
0.00613673
0.00585245
0.00594616
0.00636126
0.00693778
0.00759029
0.00825969
0.00890219
0.00948952
0.0100126
0.0104665
0.0108648
0.0112193
0.0115427
0.0118453
0.0121461
0.0124533
0.0127853
0.0131546
0.0135817
0.0140841
0.0146879
0.0154147
0.016288
0.0173308
0.0185674
0.0200135
0.02167
0.0234834
0.0099498
0.0095138
0.00910001
0.00870798
0.00834056
0.00799808
0.00767763
0.00737718
0.00709561
0.0068318
0.00658379
0.00635131
0.00613423
0.00585142
0.00592026
0.0063123
0.0068625
0.00749212
0.00814688
0.00878136
0.00936626
0.00988827
0.0103416
0.0107373
0.0110878
0.0114059
0.0117039
0.0119993
0.0123032
0.0126322
0.0130016
0.0134316
0.0139394
0.0145495
0.0152804
0.0161526
0.0171898
0.0184119
0.0198212
0.0214571
0.0232277
0.00995037
0.00951464
0.00910188
0.00871073
0.00834332
0.00799955
0.00767762
0.00737712
0.00709591
0.00683236
0.00658452
0.0063513
0.00613324
0.0058326
0.00588081
0.00621924
0.00669657
0.0072482
0.0078268
0.00839179
0.00891784
0.00939012
0.00980173
0.0101669
0.0104902
0.0107895
0.0110713
0.0113541
0.0116465
0.0119674
0.0123285
0.0127531
0.0132545
0.0138569
0.0145757
0.0154319
0.0164416
0.0176206
0.0189336
0.0204893
0.0221701
0.00995129
0.00951749
0.00910355
0.00871065
0.0083425
0.00799897
0.00767772
0.00737748
0.00709733
0.00683511
0.00658747
0.00635374
0.00613402
0.00585137
0.00584512
0.00612136
0.00651986
0.00698413
0.00747705
0.00796242
0.00842071
0.00883409
0.00920341
0.00953415
0.0098394
0.0101236
0.010399
0.0106729
0.010961
0.0112732
0.0116293
0.0120435
0.0125389
0.0131314
0.0138451
0.0146945
0.0157063
0.0168838
0.015724
0.0243061
0.0291972
0.00995259
0.00952497
0.0091054
0.00871058
0.0083416
0.00799822
0.00767786
0.00737789
0.00709806
0.00683578
0.00658711
0.00635305
0.00613445
0.00585452
0.00582235
0.00607006
0.00643024
0.0068492
0.00729274
0.00772985
0.00814097
0.0085138
0.00885168
0.00915804
0.00944441
0.00970995
0.00996887
0.0102261
0.0104977
0.0107902
0.0111255
0.0115143
0.011982
0.0125424
0.0132237
0.0140387
0.0150212
0.0161785
0.014869
0.0227613
0.0276292
0.00557204
0.00545358
0.00516283
0.00501307
0.00486863
0.00472873
0.00459411
0.00446274
0.00433522
0.00420962
0.00408704
0.00396661
0.0038493
0.00373385
0.00362171
0.00351168
0.00340538
0.00330148
0.00320159
0.00310439
0.00301145
0.00292236
0.00284199
0.00276864
0.00994923
0.00951941
0.00910236
0.0087083
0.0083388
0.00799309
0.00766968
0.00736663
0.00708234
0.00681554
0.00656478
0.00632877
0.00610543
0.00585205
0.00558727
0.00546918
0.00517523
0.0050169
0.0048712
0.00473161
0.00459605
0.00446527
0.00433715
0.00421214
0.00408915
0.00396927
0.00385157
0.00373676
0.00362418
0.00351474
0.00340795
0.00330457
0.00320414
0.00310734
0.00301374
0.00292378
0.0028367
0.00275209
0.0026847
0.00264712
0.00257122
0.00994865
0.00951248
0.00909945
0.00870776
0.00833872
0.00799283
0.00766899
0.00736564
0.00708121
0.00681423
0.00656323
0.00632705
0.00610487
0.00585091
0.00558531
0.0054659
0.00517652
0.00501504
0.00486917
0.00472904
0.00459332
0.00446201
0.00433367
0.00420816
0.0040849
0.00396463
0.0038467
0.00373169
0.00361892
0.00350943
0.00340251
0.00329918
0.00319866
0.00310193
0.00300803
0.00291796
0.00283016
0.00274534
0.00266413
0.00258745
0.00252202
0.00994742
0.00950964
0.00909675
0.00870696
0.00833899
0.00799329
0.00766909
0.00736531
0.00708064
0.00681363
0.00656278
0.00632675
0.00610471
0.00585091
0.00558345
0.00546652
0.00516712
0.00501367
0.00486864
0.00472946
0.00459416
0.00446359
0.00433555
0.00421059
0.00408762
0.00396781
0.00385012
0.00373542
0.00362282
0.00351356
0.00340676
0.00330356
0.00320292
0.0031061
0.00301185
0.00292136
0.00283303
0.00274836
0.00266693
0.00259067
0.00252565
0.00994609
0.00950805
0.0090948
0.00870473
0.0083367
0.00799147
0.00766818
0.00736515
0.00708057
0.00681319
0.00656205
0.0063262
0.0061044
0.00585104
0.00558213
0.00546733
0.00516111
0.00501304
0.00486875
0.00472972
0.00459453
0.00446372
0.00433554
0.00421017
0.00408699
0.00396686
0.00384892
0.00373391
0.00362108
0.0035116
0.00340461
0.00330125
0.00320047
0.00310355
0.00300919
0.0029187
0.00283057
0.00274647
0.00266519
0.00258868
0.00252326
0.00994559
0.00950717
0.00909392
0.00870375
0.00833516
0.00798907
0.00766524
0.00736243
0.00707879
0.00681249
0.00656193
0.00632627
0.00610461
0.00585035
0.00558182
0.00546525
0.0051663
0.00501666
0.00487167
0.00473227
0.00459681
0.00446589
0.00433761
0.00421219
0.00408903
0.00396896
0.00385105
0.00373607
0.00362325
0.00351379
0.00340683
0.00330347
0.00320267
0.00310571
0.0030113
0.00292081
0.00283262
0.00274868
0.00266732
0.0025908
0.0025254
0.00994588
0.00950706
0.00909351
0.00870337
0.00833479
0.00798838
0.00766396
0.00736067
0.00707698
0.00681116
0.00656163
0.0063266
0.00610508
0.00585056
0.00558178
0.00546382
0.00516849
0.00501787
0.00487241
0.00473276
0.00459718
0.00446615
0.00433781
0.00421228
0.00408906
0.0039689
0.0038509
0.00373582
0.00362291
0.0035134
0.00340635
0.00330298
0.00320212
0.00310517
0.00301076
0.00292029
0.00283219
0.0027483
0.00266688
0.0025903
0.00252487
0.00994564
0.00950687
0.0090934
0.00870328
0.00833475
0.00798844
0.00766418
0.00736111
0.00707762
0.00681178
0.00656188
0.0063266
0.006105
0.00585021
0.0055841
0.00545307
0.00518208
0.00502444
0.00487569
0.00473435
0.00459795
0.00446645
0.00433789
0.00421224
0.00408893
0.00396871
0.00385068
0.0037356
0.00362269
0.00351318
0.00340617
0.0033028
0.00320201
0.00310512
0.00301079
0.00292048
0.00283244
0.00274856
0.00266721
0.00259055
0.00252517
0.00994552
0.00950727
0.00909401
0.00870381
0.00833537
0.00798964
0.00766621
0.00736356
0.00707955
0.00681249
0.00656175
0.00632619
0.00610463
0.00585064
0.0055817
0.00546778
0.00516106
0.00501286
0.0048687
0.00472989
0.0045949
0.00446426
0.00433622
0.00421095
0.00408784
0.00396771
0.00384981
0.00373473
0.0036219
0.00351234
0.00340534
0.00330196
0.00320119
0.00310434
0.0030101
0.00291986
0.00283202
0.00274819
0.00266671
0.00259003
0.00252411