/*--------------------------------*- C++ -*----------------------------------*\
  =========                 |
  \\      /  F ield         | OpenFOAM: The Open Source CFD Toolbox
   \\    /   O peration     | Website:  https://openfoam.org
    \\  /    A nd           | Version:  7
     \\/     M anipulation  |
\*---------------------------------------------------------------------------*/
FoamFile
{
    version     2.0;
    format      ascii;
    class       volScalarField;
    location    "400";
    object      k;
}
// * * * * * * * * * * * * * * * * * * * * * * * * * * * * * * * * * * * * * //

dimensions      [0 2 -2 0 0 0 0];

internalField   nonuniform List<scalar> 
120313
(
1.23155
1.38684
1.47731
1.52836
1.55243
1.5624
1.55794
1.54126
1.49765
1.44958
1.39368
1.32694
1.26286
1.2096
1.16493
1.12055
1.07548
1.03194
0.98998
0.951756
0.915114
0.874593
0.824234
0.738407
1.33193
1.57496
1.68891
1.75689
1.7884
1.80264
1.78997
1.76365
1.72572
1.67246
1.60818
1.53949
1.47309
1.41359
1.35547
1.30141
1.24698
1.19456
1.14403
1.0961
1.05073
0.996946
0.932462
0.804735
1.3203
1.56067
1.67544
1.74903
1.78263
1.79873
1.79148
1.76235
1.72179
1.66654
1.60136
1.53207
1.46472
1.40385
1.34517
1.29117
1.23722
1.18565
1.13618
1.08866
1.04312
0.987756
0.921821
0.79653
1.3174
1.55827
1.67448
1.75038
1.78537
1.80229
1.79664
1.76595
1.72407
1.66682
1.60084
1.53093
1.46305
1.40072
1.34137
1.28732
1.23383
1.18276
1.1338
1.08636
1.04043
0.984393
0.917901
0.792848
1.31814
1.55965
1.6767
1.75255
1.78747
1.80431
1.79837
1.76721
1.72497
1.66728
1.60094
1.53116
1.46301
1.40099
1.3416
1.28764
1.23418
1.18299
1.1339
1.08621
1.04012
0.983844
0.917184
0.792114
1.3225
1.56474
1.68199
1.7562
1.78979
1.80569
1.79734
1.76733
1.72565
1.66874
1.60294
1.53354
1.46581
1.40525
1.34666
1.29269
1.23883
1.18699
1.13713
1.08878
1.04262
0.986397
0.919706
0.794316
1.33664
1.58301
1.70011
1.76964
1.80096
1.81404
1.79915
1.77279
1.73314
1.67683
1.61229
1.5434
1.47645
1.41747
1.35998
1.30601
1.25168
1.19893
1.14777
1.09842
1.05196
0.996454
0.929857
0.801437
1.25029
1.41121
1.5099
1.56203
1.58498
1.59318
1.5855
1.56668
1.5196
1.46833
1.41192
1.34496
1.28144
1.22974
1.18417
1.13982
1.09453
1.04991
1.00702
0.966589
0.928056
0.884985
0.829901
0.741366
0.29546
0.55481
0.804407
1.0527
1.30175
1.55397
1.81284
2.07165
2.42797
2.65289
2.95494
3.1759
3.30678
3.37554
3.40397
3.40613
3.39154
3.35315
3.28108
3.1812
3.05914
2.93336
2.80232
2.6685
2.54231
2.41643
2.29791
2.18602
2.08237
1.98621
1.89167
1.8069
1.72363
1.64833
1.58624
1.54288
0.291632
0.553013
0.804991
1.05393
1.30137
1.5494
1.79883
2.02487
2.33812
3.27645
3.80077
4.1097
4.26364
4.32224
4.33268
4.30578
4.2611
4.17061
4.07413
3.92663
3.77052
3.60305
3.43584
3.26824
3.1045
2.94721
2.79979
2.66177
2.53347
2.4143
2.29611
2.1986
2.00726
1.90495
1.62934
1.52151
0.285255
0.550664
0.806499
1.05842
1.30684
1.55241
1.79301
1.99263
2.24677
3.1707
3.86494
4.22759
4.39729
4.45165
4.45712
4.4118
4.36005
4.2769
4.15774
4.00795
3.84396
3.67103
3.49828
3.32637
3.1588
2.99806
2.84799
2.70711
2.57809
2.45713
2.33697
2.23364
1.97587
1.84797
1.60182
1.50075
0.279786
0.550242
0.810458
1.06598
1.31555
1.55786
1.78824
1.96477
2.19053
3.11659
3.87023
4.24902
4.42677
4.48197
4.48616
4.4492
4.39381
4.3038
4.17299
4.0203
3.85103
3.67546
3.5006
3.32762
3.15992
2.99956
2.85035
2.71026
2.58156
2.46157
2.34171
2.23258
1.95274
1.81593
1.573
1.47854
0.280295
0.55253
0.815975
1.07448
1.32528
1.56564
1.79023
1.95726
2.17479
3.10238
3.87306
4.25577
4.43485
4.49111
4.49532
4.46115
4.40341
4.30821
4.17246
4.01696
3.84538
3.66868
3.49308
3.32139
3.15524
2.99619
2.84784
2.70818
2.5794
2.45952
2.33985
2.22835
1.94182
1.80424
1.56161
1.46946
0.279709
0.551754
0.816776
1.07717
1.32945
1.57021
1.79391
1.9587
2.17599
3.10678
3.87649
4.25813
4.43625
4.49202
4.49588
4.46138
4.403
4.30622
4.16969
4.01343
3.84171
3.66513
3.49009
3.31881
3.15318
2.99443
2.84607
2.70629
2.5771
2.4569
2.33677
2.22501
1.93848
1.80123
1.55855
1.4669
0.273775
0.545617
0.810684
1.072
1.32625
1.57
1.79739
1.96644
2.1916
3.12959
3.87951
4.25644
4.43138
4.48543
4.48905
4.45095
4.39481
4.29965
4.16613
4.01111
3.84133
3.66589
3.49242
3.321
3.1549
2.99546
2.84613
2.70549
2.57529
2.45414
2.33249
2.22227
1.94217
1.80666
1.56217
1.46943
0.265786
0.536692
0.799868
1.06065
1.31694
1.56632
1.80351
1.98667
2.23531
3.19463
3.88285
4.24317
4.40859
4.4602
4.46499
4.41673
4.3674
4.27386
4.1495
3.99708
3.8318
3.65907
3.48827
3.31915
3.15404
2.99467
2.84433
2.70231
2.57037
2.44733
2.32363
2.21799
1.95961
1.8333
1.58086
1.48318
0.265293
0.530695
0.789997
1.04895
1.30722
1.5647
1.81913
2.0364
2.34379
3.33346
3.85714
4.17078
4.3139
4.36423
4.36917
4.33507
4.28681
4.18703
4.08111
3.93095
3.77422
3.60666
3.4419
3.27819
3.11706
2.96078
2.81237
2.67231
2.54013
2.41791
2.29548
2.19221
1.99942
1.89743
1.63007
1.51909
0.267557
0.52496
0.779523
1.03498
1.29234
1.55376
1.82131
2.07152
2.45397
3.41469
3.74797
4.01472
4.14633
4.20108
4.2125
4.18801
4.1435
4.07844
3.97593
3.83836
3.68948
3.53134
3.37399
3.22058
3.06692
2.91715
2.77369
2.63768
2.50928
2.38962
2.27328
2.17011
2.04353
1.97058
1.68645
1.55755
0.26168
0.515873
0.768454
1.02271
1.28008
1.54278
1.81327
2.07056
2.43296
2.66206
2.93669
3.15292
3.27908
3.34562
3.37147
3.37121
3.35528
3.3171
3.24556
3.14099
3.0201
2.89339
2.76622
2.64026
2.51518
2.39263
2.27498
2.16327
2.05745
1.9568
1.86166
1.77383
1.69149
1.62011
1.57197
1.52858
0.244387
0.504507
0.757876
1.01465
1.27712
1.54778
1.83047
2.12404
2.50131
2.72355
3.01532
3.2381
3.37332
3.4453
3.47547
3.48244
3.47194
3.43154
3.35552
3.24989
3.12404
2.9918
2.85845
2.72522
2.59415
2.46715
2.34512
2.22875
2.11775
2.01284
1.91479
1.82431
1.74034
1.66661
1.60266
1.54736
4.48788
4.9238
5.25883
5.44985
5.50573
5.48726
5.42958
5.35716
5.22205
5.06845
4.87945
4.66962
4.45027
4.22967
4.01139
3.8024
3.60501
3.4197
3.24722
3.08636
2.93768
2.80076
2.66637
2.57162
0.384349
0.681298
1.00714
1.35792
1.73187
2.13171
2.56084
3.01123
3.58058
4.42553
4.86993
5.18898
5.36469
5.41708
5.39719
5.34009
5.26233
5.1617
5.02337
4.83529
4.62929
4.41286
4.1948
3.97934
3.77198
3.57624
3.3921
3.22131
3.06234
2.91504
2.77825
2.64944
2.53187
2.44011
2.30201
2.19066
0.376028
0.675046
1.0062
1.36057
1.73771
2.14049
2.57169
3.01893
3.58974
4.43089
4.87023
5.18484
5.3488
5.38724
5.35401
5.28612
5.20527
5.1112
4.96584
4.78219
4.57827
4.36345
4.14605
3.93195
3.72666
3.53357
3.35371
3.18676
3.03123
2.8876
2.75213
2.6308
2.5075
2.39281
2.30307
2.18384
0.368864
0.670125
1.00504
1.36346
1.74413
2.14893
2.57948
3.02055
3.57107
4.41554
4.86178
5.1897
5.35678
5.39251
5.35583
5.28736
5.21268
5.10386
4.94388
4.75766
4.55055
4.33341
4.11651
3.90365
3.69874
3.50524
3.32567
3.15951
3.00788
2.86667
2.73494
2.61921
2.49355
2.36936
2.27879
2.16393
0.36241
0.66753
1.00592
1.3681
1.75164
2.15717
2.58521
3.01807
3.55044
4.39911
4.84359
5.17772
5.35172
5.38742
5.35371
5.2931
5.22297
5.09419
4.9274
4.73584
4.52476
4.30626
4.08901
3.87692
3.67389
3.48341
3.30685
3.14303
2.99398
2.8556
2.726
2.61353
2.48513
2.35662
2.26531
2.15165
0.361035
0.667701
1.00864
1.37387
1.75992
2.16621
2.59292
3.02133
3.54448
4.3938
4.83219
5.16701
5.34458
5.38143
5.34883
5.29246
5.21899
5.08492
4.91303
4.71752
4.50474
4.28599
4.06858
3.85973
3.66018
3.47229
3.29758
3.13448
2.98612
2.84852
2.71955
2.60847
2.47875
2.34928
2.25811
2.14519
0.359556
0.666087
1.00795
1.37481
1.76259
2.16998
2.59739
3.02547
3.54648
4.39473
4.82978
5.16376
5.34151
5.37816
5.34553
5.28965
5.21464
5.07912
4.9068
4.71029
4.49772
4.27941
4.06294
3.8551
3.65643
3.46912
3.29461
3.13156
2.98294
2.84511
2.7158
2.60444
2.47437
2.34502
2.254
2.14132
0.354203
0.659919
1.00084
1.36763
1.75613
2.16505
2.59497
3.02628
3.55085
4.39592
4.83466
5.16772
5.343
5.37811
5.34456
5.28576
5.21331
5.08045
4.91017
4.71603
4.50503
4.28736
4.07265
3.86396
3.66388
3.47524
3.2992
3.13521
2.98499
2.84558
2.71453
2.60077
2.47094
2.34246
2.25197
2.13941
0.347913
0.651804
0.990108
1.355
1.74323
2.15418
2.58885
3.02814
3.56444
4.40489
4.84878
5.17729
5.34749
5.37918
5.34478
5.27975
5.20671
5.0851
4.91921
4.72931
4.52115
4.30487
4.09207
3.88444
3.6843
3.49372
3.31505
3.14802
2.99392
2.85058
2.7155
2.59759
2.46945
2.34424
2.25521
2.14386
0.347461
0.64606
0.980185
1.34217
1.72971
2.14352
2.58571
3.03967
3.59931
4.43311
4.86712
5.18245
5.34358
5.37683
5.34102
5.27162
5.19211
5.08655
4.92949
4.74356
4.54083
4.32699
4.11527
3.90853
3.70901
3.5183
3.33902
3.17027
3.0119
2.86554
2.72605
2.60345
2.47877
2.35866
2.27038
2.15772
0.348566
0.640222
0.969796
1.32839
1.71429
2.12933
2.57716
3.04357
3.621
4.44679
4.86737
5.17097
5.32966
5.36689
5.33527
5.26928
5.18833
5.09647
4.94663
4.76374
4.56142
4.35026
4.14002
3.9348
3.73625
3.54673
3.3671
3.19788
3.03779
2.88996
2.74808
2.62176
2.49605
2.38072
2.29286
2.17464
0.341587
0.630312
0.955911
1.31097
1.69428
2.10791
2.55602
3.02538
3.60341
4.45242
4.88637
5.20394
5.37589
5.42039
5.40222
5.34774
5.2706
5.17747
5.00879
4.82395
4.6168
4.40149
4.18603
3.97613
3.77334
3.58011
3.39674
3.22451
3.06228
2.91152
2.76812
2.6381
2.50815
2.4137
2.27574
2.16624
0.331054
0.620043
0.941099
1.29347
1.67442
2.08599
2.53287
3.00566
3.59474
4.44466
4.90755
5.23014
5.40364
5.4547
5.44651
5.39966
5.32716
5.21852
5.0448
4.85077
4.63653
4.41572
4.1945
3.98041
3.77421
3.57943
3.39434
3.22163
3.06072
2.91066
2.76878
2.6389
2.50942
2.41753
2.27918
2.16605
4.84277
5.22841
5.38489
5.41468
5.31342
5.13246
4.9194
4.72057
4.50409
4.28821
4.04563
3.82654
3.62141
3.43323
3.2549
3.10108
2.96348
2.83949
2.72475
2.62201
2.5253
2.43313
2.33772
2.29607
0.365252
0.632811
0.985094
1.41504
1.90419
2.43738
2.99079
3.55346
4.24256
4.88445
5.27045
5.43892
5.49249
5.40822
5.23719
5.021
4.79566
4.59356
4.37758
4.17201
3.94229
3.7298
3.5334
3.34948
3.18035
3.02973
2.89184
2.77038
2.65619
2.55536
2.44437
2.36604
2.27087
2.22461
2.22346
2.16682
0.359557
0.629806
0.988682
1.42862
1.9309
2.47457
3.03602
3.61126
4.31358
4.93447
5.27745
5.43752
5.48924
5.40493
5.23416
5.01566
4.7844
4.57513
4.35548
4.15389
3.92053
3.71851
3.51885
3.33265
3.16533
3.01635
2.88494
2.7656
2.64509
2.55297
2.43471
2.3659
2.25543
2.19081
2.07415
1.9917
0.354925
0.622323
0.984024
1.43183
1.93983
2.48517
3.04717
3.62741
4.32309
4.94369
5.22829
5.38162
5.42534
5.33471
5.15897
4.94102
4.71865
4.51455
4.28414
4.07702
3.84904
3.64247
3.45093
3.27261
3.10632
2.95625
2.82135
2.70512
2.59952
2.50626
2.40341
2.33973
2.24436
2.18189
2.05856
1.97108
0.348856
0.620732
0.985803
1.43289
1.94008
2.48547
3.04483
3.62118
4.30599
4.93241
5.17736
5.3195
5.35334
5.2541
5.07374
4.85706
4.64998
4.44617
4.21161
3.99214
3.76781
3.56538
3.37713
3.20246
3.04711
2.90764
2.78384
2.67296
2.57659
2.48912
2.39288
2.33625
2.24232
2.17732
2.05153
1.96114
0.348949
0.621707
0.985747
1.43421
1.94387
2.48789
3.04504
3.62178
4.30041
4.92846
5.14524
5.27943
5.30518
5.20067
5.01814
4.80616
4.6011
4.40382
4.16099
3.93604
3.71736
3.51773
3.33136
3.16955
3.02413
2.88958
2.76949
2.65904
2.56549
2.47919
2.38654
2.33205
2.23969
2.17315
2.05064
1.95811
0.349034
0.619967
0.983421
1.43404
1.94344
2.48554
3.04637
3.62878
4.30459
4.92883
5.13669
5.26944
5.29377
5.1882
5.00528
4.79484
4.58916
4.39205
4.15046
3.92515
3.70874
3.51063
3.3263
3.16612
3.02184
2.88803
2.76816
2.65802
2.564
2.47782
2.38463
2.32986
2.23641
2.16962
2.04489
1.953
0.345253
0.615041
0.976912
1.42668
1.93539
2.47725
3.03921
3.62364
4.29879
4.9208
5.15118
5.29072
5.32154
5.21909
5.03672
4.82011
4.61707
4.41609
4.17705
3.95613
3.73901
3.53967
3.35777
3.19002
3.04012
2.90352
2.78064
2.67
2.57194
2.48452
2.38598
2.32776
2.23037
2.16299
2.03427
1.94573
0.340005
0.608756
0.967714
1.41431
1.92281
2.46599
3.02612
3.60912
4.29033
4.91238
5.19328
5.34303
5.38229
5.28529
5.10447
4.88595
4.67027
4.46743
4.22807
4.01937
3.79454
3.59297
3.41256
3.24552
3.08945
2.9459
2.81369
2.69642
2.58776
2.49309
2.38508
2.32107
2.21975
2.1526
2.02802
1.94399
0.337729
0.603003
0.959785
1.40325
1.91123
2.46036
3.02549
3.60932
4.30329
4.92565
5.25318
5.40796
5.45032
5.35806
5.1795
4.9597
4.72996
4.52559
4.28811
4.08653
3.86365
3.65882
3.47582
3.30716
3.14955
3.00308
2.87041
2.74697
2.62239
2.52675
2.40606
2.33773
2.22735
2.1581
2.03466
1.95304
0.337694
0.594708
0.94606
1.38903
1.89714
2.44885
3.0215
3.6128
4.31675
4.94111
5.27894
5.43321
5.46923
5.37702
5.20089
4.98319
4.7541
4.54552
4.31966
4.12036
3.89216
3.69449
3.50804
3.34017
3.18253
3.03881
2.90305
2.78071
2.64831
2.55407
2.42662
2.3544
2.23686
2.16816
2.05164
1.97117
0.329686
0.585493
0.929427
1.36228
1.86425
2.41314
2.98497
3.57818
4.28357
4.90741
5.25723
5.41542
5.44501
5.3486
5.17353
4.95996
4.74268
4.54322
4.30998
4.10502
3.87437
3.67612
3.49065
3.3271
3.17249
3.0325
2.90115
2.78107
2.65727
2.55853
2.43247
2.35544
2.24705
2.19873
2.18791
2.13414
0.318621
0.570967
0.906606
1.32974
1.8178
2.35341
2.91417
3.49864
4.20693
4.82257
5.19941
5.36621
5.39354
5.29404
5.11869
4.90734
4.7023
4.50267
4.26771
4.04037
3.8152
3.62174
3.43776
3.28009
3.12966
2.99557
2.86614
2.7507
2.63995
2.53796
2.42378
2.34285
2.23962
2.19769
2.19094
2.13716
2.40893
2.18534
1.98982
1.79084
1.63315
1.49615
1.37803
1.27941
1.19399
1.12833
1.06709
1.01638
0.968696
0.927821
0.889146
0.863503
0.845688
0.835209
0.834655
0.835293
0.839361
0.845873
0.85109
0.832588
1.1898
2.30757
2.90976
3.18329
3.41601
3.66573
3.8871
4.10972
4.10475
2.49663
2.25596
2.06269
1.84699
1.67604
1.53305
1.40637
1.3039
1.21053
1.1412
1.08347
1.03395
0.988398
0.94501
0.910856
0.880777
0.86149
0.845664
0.838733
0.839181
0.839969
0.843819
0.850837
0.850819
0.831953
1.03877
1.14941
1.28509
2.48063
2.97908
3.24909
3.48162
3.73169
3.93031
4.15448
4.11388
2.48831
2.25452
2.06002
1.84344
1.67339
1.53083
1.40628
1.30235
1.20881
1.13972
1.08168
1.03286
0.988124
0.944439
0.908127
0.879205
0.86048
0.848737
0.844886
0.846356
0.850663
0.856952
0.866679
0.874573
0.873285
0.868414
0.847397
1.23483
2.25644
2.95839
3.27877
3.50966
3.73662
3.91874
4.13917
4.111
2.49812
2.24566
2.03648
1.81355
1.64416
1.49825
1.37833
1.27166
1.18578
1.12015
1.06391
1.01418
0.969411
0.927317
0.892854
0.861754
0.840671
0.82372
0.819786
0.821086
0.829453
0.844514
0.863335
0.886887
0.890583
0.883431
0.858148
1.19543
2.45859
3.02849
3.28467
3.49548
3.71521
3.90505
4.12177
4.1044
2.49308
2.23563
2.01045
1.78091
1.60927
1.46187
1.34488
1.23817
1.15927
1.09739
1.04209
0.991946
0.947038
0.906764
0.870089
0.841814
0.821907
0.810785
0.808984
0.813241
0.823372
0.841337
0.863388
0.891826
0.896243
0.887473
0.857831
1.37763
2.47544
3.00175
3.27726
3.49597
3.71636
3.8903
4.10533
4.08925
2.49532
2.23106
1.99627
1.7613
1.58724
1.43941
1.32303
1.21957
1.14346
1.08295
1.0279
0.977949
0.933359
0.89326
0.858699
0.834823
0.817358
0.80888
0.80782
0.812539
0.823828
0.842332
0.866321
0.894722
0.902576
0.88594
0.861857
1.3265
2.35986
2.99572
3.28277
3.48059
3.69445
3.87732
4.1072
4.09541
2.49951
2.23095
1.99408
1.75755
1.58245
1.43462
1.31839
1.21606
1.13994
1.08023
1.02504
0.975895
0.931782
0.892198
0.85869
0.835391
0.81863
0.810393
0.809517
0.814315
0.82613
0.844745
0.868857
0.897349
0.901608
0.890593
0.858145
1.32852
2.36307
2.99276
3.27731
3.47104
3.68748
3.86993
4.10127
4.09506
2.50597
2.23747
2.00727
1.77332
1.59768
1.44972
1.33148
1.22659
1.14918
1.08811
1.03282
0.984411
0.940392
0.90188
0.868301
0.842827
0.8255
0.815589
0.814415
0.818873
0.830125
0.847293
0.869969
0.896666
0.902708
0.884384
0.861318
1.32737
2.36958
2.98793
3.27418
3.47552
3.68737
3.86094
4.08478
4.08445
2.49987
2.24505
2.02994
1.80132
1.62652
1.47822
1.35672
1.25023
1.16657
1.10267
1.04661
0.997844
0.953218
0.915284
0.883377
0.857402
0.840963
0.827206
0.823155
0.824105
0.831037
0.843422
0.861838
0.883241
0.879102
0.869705
0.844965
1.24358
2.47505
3.02318
3.27923
3.48401
3.70706
3.8874
4.09975
4.08876
2.48906
2.24953
2.04948
1.82665
1.65317
1.50521
1.38095
1.27383
1.18351
1.11827
1.05786
1.01104
0.966884
0.92828
0.897333
0.872087
0.855115
0.844031
0.838411
0.838522
0.842002
0.848556
0.86237
0.871537
0.871504
0.860963
0.839346
1.18996
2.27724
2.97107
3.27159
3.48006
3.70554
3.89617
4.11921
4.06069
2.42552
2.20564
2.00951
1.79729
1.63284
1.48822
1.37045
1.26311
1.17765
1.11411
1.05743
1.0108
0.968606
0.929735
0.89986
0.875597
0.859311
0.849957
0.844358
0.844504
0.846076
0.849791
0.857422
0.859803
0.859045
0.85338
0.837117
1.25098
2.42474
2.93118
3.20282
3.42592
3.66609
3.87325
4.1077
4.03081
2.36618
2.14508
1.94007
1.74285
1.58726
1.45082
1.33966
1.23572
1.16201
1.10248
1.05054
1.00133
0.960537
0.921094
0.892499
0.867811
0.853806
0.844353
0.840663
0.840907
0.84359
0.846264
0.851859
0.854897
0.831292
1.01383
1.13128
1.14384
2.20452
2.8144
3.09547
3.32316
3.56153
3.7839
4.01069
3.96618
2.30613
2.10451
1.88742
1.69867
1.54375
1.41749
1.3032
1.21475
1.14769
1.09118
1.0385
0.987961
0.947356
0.908302
0.879335
0.853376
0.84095
0.830732
0.828099
0.828841
0.833054
0.83612
0.843021
0.845529
0.82016
1.01146
1.12596
0.04806
0.0611486
0.0710224
0.0776165
0.0821642
0.0850018
0.086606
0.0871481
0.0872907
0.0871923
0.086799
0.0864464
0.0860545
0.0855192
0.085532
0.0858762
0.0866973
0.0881819
0.0904422
0.0934446
0.0971301
0.101534
0.106165
0.0999208
0.000997399
0.000975114
0.000953126
0.000932058
0.000912075
0.000892343
0.000934728
0.00126938
0.0019115
0.00318136
0.00829171
0.0219677
0.043662
0.0498873
0.0444105
0.0589702
0.0702564
0.0776684
0.0827242
0.0859641
0.0877355
0.0886264
0.0886772
0.0884004
0.0882007
0.0879043
0.0872807
0.0872196
0.0873521
0.0877564
0.0886518
0.0900275
0.0920891
0.0948595
0.0983026
0.102369
0.106862
0.110148
0.104972
0.153715
0.183391
0.00099776
0.000975536
0.000953446
0.000932513
0.000912575
0.000892275
0.000897651
0.00104424
0.00142359
0.00257424
0.00736251
0.0198406
0.0391747
0.0470487
0.0440821
0.0587473
0.0701216
0.0776283
0.0827834
0.0861168
0.0879863
0.0888183
0.0889901
0.0888087
0.0884874
0.0882806
0.0878937
0.0877697
0.0878266
0.0882374
0.0891967
0.0907857
0.0931373
0.0962605
0.10016
0.104719
0.109943
0.115567
0.120211
0.125788
0.131495
0.000997308
0.000975187
0.000953358
0.000932037
0.000911644
0.000892589
0.000880029
0.000992142
0.00140009
0.00265326
0.0072296
0.0185978
0.036842
0.0467649
0.0447645
0.0594372
0.0705066
0.0776709
0.0825493
0.0855436
0.0872114
0.087865
0.0878121
0.087618
0.0872906
0.0870451
0.086791
0.0866437
0.0867089
0.0870187
0.0877522
0.0889857
0.0910053
0.0938648
0.0977218
0.10261
0.108493
0.115089
0.121721
0.127161
0.134345
0.000997571
0.000975059
0.000952933
0.000932152
0.000912288
0.000891584
0.000893335
0.000975024
0.00115268
0.00209638
0.00591766
0.0168049
0.0364282
0.0475854
0.0455898
0.0601323
0.0707951
0.0775425
0.0820266
0.0846462
0.085994
0.0864836
0.0863154
0.0860948
0.085727
0.0854291
0.085113
0.0848771
0.0849288
0.0852105
0.0859752
0.0873447
0.0895283
0.0925293
0.0965324
0.101519
0.107503
0.114279
0.121056
0.126511
0.133506
0.000997572
0.000975309
0.000952769
0.000931559
0.000912353
0.000892585
0.000884451
0.000933418
0.00110673
0.00203831
0.00585844
0.0170048
0.0371474
0.0487864
0.0466494
0.061174
0.0716128
0.0780676
0.0822602
0.0846166
0.0859079
0.0862569
0.0860089
0.0857358
0.0853154
0.0849426
0.0845782
0.0843581
0.0843934
0.0848121
0.0857495
0.0873222
0.0896933
0.0928628
0.0970163
0.102109
0.108144
0.114847
0.121505
0.127124
0.133544
0.000997377
0.000975022
0.000953065
0.000931676
0.000911467
0.0008919
0.000877394
0.000919338
0.00106164
0.00187343
0.00564489
0.0170473
0.0385184
0.0501797
0.0471586
0.0616655
0.0720546
0.0784275
0.0825241
0.0848025
0.0861009
0.0863667
0.086136
0.0857789
0.0854549
0.0850484
0.0847409
0.0845474
0.0846487
0.0851366
0.0861525
0.0877985
0.0902384
0.0934758
0.0977102
0.102863
0.108938
0.115671
0.122334
0.127614
0.13462
0.000997371
0.000974992
0.000953075
0.000931668
0.00091138
0.000891917
0.000877194
0.000914844
0.00104183
0.00180995
0.00546083
0.0167299
0.0380819
0.0494835
0.0465913
0.0612584
0.0718785
0.0784719
0.0827394
0.0851658
0.086446
0.086852
0.0866086
0.0863476
0.0859425
0.0856403
0.08539
0.0853073
0.0854598
0.0859433
0.0869556
0.0885693
0.090981
0.094189
0.0984133
0.103508
0.109569
0.116267
0.122803
0.128592
0.135316
0.000997528
0.000975492
0.000953156
0.000931558
0.000911855
0.000891946
0.000877465
0.000904828
0.00104135
0.00187772
0.00550691
0.0162212
0.0362612
0.0475818
0.0453475
0.0601457
0.0711474
0.0781227
0.0827231
0.0854334
0.0867943
0.0872869
0.0871116
0.0867416
0.0864292
0.0860835
0.0858276
0.0858049
0.0860351
0.0866334
0.0877316
0.0893375
0.0916445
0.0946864
0.0985875
0.103315
0.108919
0.115162
0.121316
0.126942
0.133924
0.000997553
0.000975068
0.000953017
0.000932383
0.000912432
0.000892139
0.000886522
0.000938388
0.00108817
0.00195847
0.00544275
0.0152564
0.0336346
0.0450892
0.0438284
0.0587098
0.0700518
0.0773694
0.0822804
0.085265
0.0868336
0.0874578
0.0873123
0.086933
0.0865758
0.0862233
0.0859973
0.0859893
0.0862823
0.0869538
0.0881321
0.0898919
0.0922968
0.0953982
0.0992427
0.103756
0.109113
0.114891
0.120698
0.125902
0.133118
0.000997331
0.000975066
0.000953435
0.000932258
0.000911664
0.000893763
0.000879017
0.000950422
0.00112924
0.00204452
0.00554909
0.0150394
0.031691
0.0423308
0.0412474
0.0554693
0.066231
0.0733249
0.0782139
0.081242
0.0830161
0.0836386
0.083769
0.0836721
0.0834364
0.0832087
0.0832625
0.0834313
0.0838928
0.0847391
0.0860725
0.0880267
0.0905871
0.0938143
0.0976877
0.102133
0.107255
0.112665
0.117918
0.123344
0.129482
0.000997564
0.00097521
0.00095328
0.000932514
0.000912189
0.000890622
0.000889733
0.000975202
0.00115133
0.00195045
0.00556202
0.0155051
0.031049
0.0386911
0.0382836
0.0517216
0.0616167
0.0683507
0.0730851
0.0761202
0.0780319
0.0788828
0.079269
0.0794356
0.0796835
0.0797958
0.0800376
0.08035
0.0809845
0.0819392
0.0834274
0.0854787
0.0881777
0.0915137
0.0955333
0.100077
0.105294
0.110734
0.104627
0.15011
0.178963
0.000997502
0.000975307
0.000952922
0.000931953
0.000912484
0.000892637
0.000921824
0.00111352
0.00154839
0.00258491
0.00662598
0.0167646
0.0321464
0.0384133
0.0372215
0.0499486
0.0591336
0.0655172
0.0699569
0.0729063
0.0746883
0.0756635
0.0762618
0.0766531
0.0770441
0.0772201
0.0775132
0.0778654
0.0785093
0.0794237
0.0809005
0.0828867
0.0855506
0.0888504
0.0928771
0.0974354
0.10273
0.108314
0.0995786
0.149162
0.179134
0.000753267
0.000763564
0.000782449
0.000806823
0.000835821
0.000868073
0.000902379
0.000937751
0.000973607
0.0010101
0.00104691
0.00108453
0.00112318
0.00116293
0.00120507
0.00125099
0.00130223
0.00136126
0.00143109
0.00151469
0.00161419
0.00173256
0.00186359
0.00182566
0.000997133
0.000974393
0.000951851
0.000930124
0.0009094
0.00088976
0.000871097
0.000853256
0.000836303
0.00082022
0.000804749
0.000789832
0.000775646
0.000761303
0.000750762
0.000759914
0.000778531
0.000803321
0.000833257
0.000866854
0.000902735
0.000939966
0.000977663
0.00101554
0.00105428
0.00109383
0.00113369
0.00117573
0.00122091
0.00126994
0.00132485
0.001387
0.00145938
0.00154441
0.00164524
0.00176402
0.00190389
0.00202817
0.001927
0.00295519
0.00352612
0.000997194
0.000974084
0.000951678
0.000930016
0.0009093
0.000889595
0.000870832
0.000853005
0.00083611
0.000819996
0.000804484
0.000789593
0.000775491
0.00076169
0.000750505
0.000759729
0.000778465
0.000803565
0.000833918
0.000868138
0.000904679
0.000942689
0.000981052
0.0010199
0.00105915
0.00109964
0.00114075
0.00118406
0.00122996
0.00128022
0.00133637
0.00140121
0.00147737
0.00156851
0.00167718
0.00180696
0.00196074
0.00213894
0.00232584
0.00256828
0.00283056
0.000997759
0.000974809
0.000952433
0.000930678
0.000909768
0.000889844
0.000870918
0.000853032
0.000836056
0.000819842
0.000804324
0.000789502
0.00077547
0.000761323
0.000750945
0.000760803
0.000780073
0.000805457
0.000835916
0.000869851
0.00090585
0.000943031
0.00098042
0.0010183
0.00105671
0.00109625
0.00113714
0.00117998
0.00122565
0.00127516
0.00132988
0.00139194
0.00146425
0.00155086
0.00165578
0.00178432
0.00194164
0.00213193
0.00235288
0.00260559
0.00286825
0.000997545
0.000974688
0.000952486
0.00093094
0.000910254
0.000890489
0.000871526
0.000853374
0.000836151
0.000819842
0.00080425
0.000789428
0.000775517
0.000761797
0.000751441
0.000761914
0.000781644
0.000807188
0.000837468
0.000870845
0.000905934
0.000942031
0.000978252
0.00101507
0.0010524
0.00109085
0.00113057
0.00117241
0.00121692
0.00126529
0.00131892
0.00138031
0.00145213
0.00153816
0.00164223
0.00176876
0.0019222
0.00210656
0.00232306
0.00257186
0.00283364
0.000997395
0.000974448
0.00095229
0.000930869
0.000910309
0.000890673
0.000871845
0.000853862
0.000836697
0.000820278
0.000804648
0.000789807
0.00077564
0.000761902
0.000752144
0.000763529
0.000784218
0.000810526
0.000841374
0.000875066
0.000910636
0.000947012
0.00098345
0.00102043
0.00105788
0.00109637
0.00113614
0.00117809
0.00122292
0.00127211
0.0013272
0.0013907
0.00146522
0.00155438
0.00166168
0.00179077
0.00194586
0.00213106
0.00234796
0.00259515
0.00285744
0.000997267
0.000974263
0.000952108
0.000930759
0.000910274
0.000890658
0.000871841
0.000853918
0.000836782
0.000820358
0.000804815
0.000790133
0.000775853
0.000761523
0.000752489
0.000764304
0.000785459
0.000812144
0.000843272
0.000877169
0.000913039
0.000949619
0.000986363
0.00102361
0.00106154
0.00110052
0.00114098
0.00118378
0.00122965
0.00128014
0.00133679
0.00140213
0.00147877
0.00157029
0.00168033
0.00181221
0.00196984
0.00215725
0.0023771
0.0026284
0.00289463
0.000997311
0.000974293
0.000952114
0.000930742
0.00091023
0.000890573
0.000871747
0.000853843
0.000836698
0.000820255
0.000804717
0.000789998
0.000775752
0.000761803
0.000752139
0.000763638
0.000784578
0.000811281
0.000842593
0.00087683
0.000912916
0.000949975
0.000987182
0.00102502
0.00106346
0.00110318
0.00114468
0.00118865
0.00123586
0.00128767
0.00134566
0.0014123
0.0014902
0.00158317
0.00169494
0.00182874
0.00198931
0.00218116
0.00240571
0.00266354
0.00294066
0.000997332
0.000974416
0.000952313
0.000930921
0.000910333
0.000890608
0.000871686
0.000853649
0.000836411
0.00081994
0.000804386
0.000789689
0.000775678
0.000761766
0.00075141
0.000762008
0.000782171
0.000808355
0.000839379
0.000873586
0.000909509
0.00094646
0.000983544
0.00102104
0.0010592
0.00109853
0.00113944
0.00118313
0.00123023
0.00128228
0.00134069
0.00140766
0.00148548
0.00157775
0.00168771
0.00181915
0.00197626
0.00216358
0.00238414
0.00263981
0.00291747
0.000997589
0.000974726
0.000952515
0.000930958
0.000910225
0.000890357
0.0008713
0.000853141
0.000835951
0.000819667
0.000804129
0.000789383
0.000775491
0.000761685
0.000750498
0.000760042
0.000779138
0.00080441
0.000834676
0.000868335
0.00090392
0.000940523
0.000977229
0.00101417
0.00105164
0.00109015
0.00113026
0.00117307
0.00121944
0.0012708
0.00132877
0.00139563
0.00147362
0.00156617
0.00167614
0.00180688
0.00196261
0.00214706
0.00236207
0.00261336
0.00288479
0.000997721
0.000974731
0.000952324
0.000930546
0.000909636
0.00088974
0.00087085
0.000852962
0.000835946
0.00081973
0.000804218
0.0007894
0.000775403
0.000761553
0.000749065
0.000756409
0.00077222
0.000793828
0.000820028
0.000849514
0.000881099
0.000913714
0.000946658
0.00098024
0.00101434
0.00104972
0.00108688
0.00112689
0.00117045
0.0012192
0.00127452
0.00133892
0.00141442
0.00150413
0.00161065
0.00173725
0.00188723
0.0020635
0.00226333
0.00250074
0.00275926
0.000997455
0.00097433
0.000951806
0.000930058
0.000909318
0.000889623
0.000870866
0.000853007
0.000836072
0.000819971
0.000804472
0.000789582
0.000775418
0.000761555
0.000747548
0.000752591
0.000764517
0.000781953
0.000803533
0.000828242
0.000855247
0.000883394
0.000912419
0.000942321
0.000973582
0.00100633
0.0010412
0.00107865
0.00111989
0.0011659
0.00121867
0.00127998
0.00135267
0.00143916
0.00154287
0.00166642
0.00181417
0.00198746
0.0019037
0.00291511
0.00351416
0.000997191
0.000974467
0.000951791
0.000930028
0.000909275
0.000889596
0.000870889
0.000853045
0.000836143
0.000820034
0.00080445
0.000789555
0.000775523
0.00076179
0.000746585
0.000750539
0.000760572
0.000775703
0.00079462
0.000816436
0.000840307
0.000865419
0.000891711
0.000919129
0.000948108
0.000978403
0.00101082
0.00104565
0.00108413
0.00112695
0.00117627
0.00123351
0.00130175
0.00138313
0.00148149
0.00159928
0.00174161
0.00191024
0.00181807
0.00280503
0.00335149
0.000743932
0.000726476
0.000719265
0.000701174
0.000689995
0.000680013
0.000670341
0.000660748
0.000651309
0.000641805
0.000632384
0.00062292
0.000613553
0.000604126
0.000594813
0.000585484
0.000576319
0.000567188
0.000558264
0.000549434
0.000540852
0.000532502
0.000524864
0.00051735
0.000996884
0.000974095
0.000951572
0.000929855
0.000909074
0.000889244
0.000870326
0.000852247
0.000834965
0.000818455
0.000802679
0.000787599
0.000773163
0.000758806
0.00074301
0.000726303
0.000718683
0.00070158
0.000689412
0.000679524
0.000669778
0.000660295
0.000650818
0.000641435
0.000631989
0.000622629
0.000613242
0.000603919
0.000594579
0.000585337
0.000576136
0.000567078
0.000558111
0.00054933
0.000540695
0.00053228
0.000524028
0.000515876
0.000509319
0.00050566
0.000498201
0.000997073
0.000973931
0.000951559
0.000929897
0.000909094
0.000889227
0.000870271
0.000852171
0.000834884
0.000818376
0.0008026
0.000787528
0.000773187
0.000758785
0.000742992
0.000726441
0.000718774
0.000701622
0.000689385
0.000679443
0.00066967
0.000660123
0.000650611
0.000641163
0.000631674
0.000622257
0.000612827
0.000603464
0.000594086
0.000584822
0.00057559
0.000566522
0.00055753
0.000548745
0.000540079
0.000531635
0.0005233
0.000515121
0.000507202
0.000499617
0.000493093
0.000997506
0.000974375
0.000952009
0.000930383
0.000909497
0.000889476
0.000870369
0.000852172
0.000834847
0.000818333
0.000802562
0.000787506
0.000773167
0.000758797
0.000742978
0.000726475
0.000718797
0.000701394
0.000689481
0.000679598
0.000669848
0.000660366
0.000650881
0.00064149
0.000632032
0.000622669
0.000613268
0.000603945
0.000594591
0.000585359
0.000576149
0.000567102
0.000558122
0.000549335
0.000540649
0.000532165
0.000523771
0.0005156
0.000507661
0.000500114
0.00049364
0.000997431
0.000974481
0.00095227
0.000930769
0.000909973
0.000889999
0.000870865
0.000852544
0.000835037
0.000818377
0.000802546
0.000787486
0.000773142
0.000758859
0.000742985
0.00072646
0.000718734
0.000701173
0.000689562
0.000679651
0.000669888
0.000660368
0.000650861
0.000641421
0.000631937
0.000622534
0.000613104
0.000603745