/*--------------------------------*- C++ -*----------------------------------*\
  =========                 |
  \\      /  F ield         | OpenFOAM: The Open Source CFD Toolbox
   \\    /   O peration     | Website:  https://openfoam.org
    \\  /    A nd           | Version:  7
     \\/     M anipulation  |
\*---------------------------------------------------------------------------*/
FoamFile
{
    version     2.0;
    format      ascii;
    class       volScalarField;
    location    "400";
    object      nut;
}
// * * * * * * * * * * * * * * * * * * * * * * * * * * * * * * * * * * * * * //

dimensions      [0 2 -1 0 0 0 0];

internalField   nonuniform List<scalar> 
120313
(
0.00171689
0.00203643
0.00213676
0.00218618
0.00220744
0.00221566
0.00221275
0.00220117
0.00217121
0.00213602
0.00209726
0.00204588
0.00199646
0.00195386
0.00191804
0.0018815
0.00184264
0.00180445
0.00176616
0.00173007
0.00169297
0.00164378
0.00156837
0.00132119
0.00198989
0.00265535
0.00282301
0.00290747
0.002943
0.00295777
0.00294919
0.00292767
0.00289802
0.00285289
0.00280019
0.00273973
0.0026807
0.00262604
0.00257166
0.00252049
0.00246736
0.00241447
0.00236117
0.0023075
0.00225053
0.00216863
0.00203994
0.00153802
0.00200994
0.00270659
0.00289905
0.00299803
0.00303917
0.00305706
0.00305343
0.0030301
0.00299724
0.0029485
0.00289244
0.00282981
0.00276738
0.00270901
0.00265195
0.00259866
0.00254365
0.00248933
0.0024349
0.00237904
0.00231806
0.00222682
0.00207826
0.00155358
0.00201655
0.00272532
0.00292669
0.0030317
0.0030759
0.00309533
0.00309333
0.00306858
0.00303482
0.00298329
0.00292538
0.00286172
0.00279784
0.00273762
0.00267889
0.00262424
0.00256886
0.00251422
0.00245966
0.002403
0.00234014
0.00224523
0.00209047
0.00155744
0.00201623
0.00272506
0.00292718
0.00303217
0.00307639
0.00309591
0.00309394
0.00306874
0.00303459
0.00298297
0.00292433
0.0028608
0.0027966
0.00273669
0.00267786
0.0026234
0.00256817
0.0025135
0.00245893
0.00240203
0.00233895
0.00224366
0.00208863
0.00155598
0.00200786
0.0027045
0.00289888
0.00299864
0.00304012
0.00305819
0.00305411
0.00303018
0.00299695
0.00294637
0.00288946
0.00282684
0.00276396
0.00270637
0.00264892
0.0025955
0.00254094
0.00248671
0.00243243
0.00237595
0.00231441
0.00222211
0.00207252
0.00154893
0.00198346
0.00264816
0.00281788
0.00290397
0.00293976
0.00295409
0.00294507
0.00292334
0.00289389
0.00284545
0.00279208
0.00273236
0.0026727
0.00261883
0.00256517
0.00251403
0.00246147
0.00240895
0.00235603
0.00230162
0.00224404
0.00216075
0.00202915
0.00152849
0.00170785
0.00203258
0.00213904
0.00218951
0.00221022
0.0022176
0.00221329
0.00220054
0.00216828
0.00213118
0.00209265
0.00204203
0.00199322
0.0019526
0.0019166
0.00188072
0.00184323
0.00180537
0.00176766
0.00173017
0.00169158
0.00164056
0.00155943
0.00130908
0.00192609
0.00349938
0.00480768
0.00590757
0.00684603
0.00759842
0.00808078
0.00818734
0.0094058
0.00979119
0.0106879
0.0115056
0.0119206
0.0121428
0.0122468
0.0122864
0.0123343
0.0123695
0.0123313
0.0122098
0.0119973
0.0117706
0.0114822
0.0111507
0.0108477
0.0105084
0.0101955
0.00988547
0.00960429
0.00934584
0.00906581
0.00883533
0.00857734
0.00835341
0.00822641
0.00815599
0.0018976
0.0034715
0.00478342
0.00588077
0.00679391
0.00748494
0.00785087
0.00771524
0.00850779
0.0131001
0.0152264
0.0163436
0.0168399
0.0170155
0.0170376
0.0169277
0.0167721
0.0168155
0.0167015
0.0164737
0.0161711
0.0158236
0.0154388
0.0150405
0.014632
0.014245
0.0138731
0.0135283
0.013192
0.0128862
0.0125329
0.0123692
0.011106
0.0109583
0.00837011
0.00786972
0.0018687
0.00346307
0.00479618
0.00591074
0.00682918
0.00750472
0.00781747
0.00753211
0.00787434
0.0121662
0.015117
0.0166744
0.0172108
0.0173079
0.0172491
0.0170834
0.0170273
0.0170227
0.0168252
0.0165573
0.01625
0.0158866
0.0154962
0.0150914
0.0146897
0.014306
0.0139398
0.0135998
0.0132819
0.0129884
0.0126468
0.012447
0.0105374
0.0101227
0.00796345
0.00758844
0.00183738
0.00345961
0.00481492
0.00595159
0.00688086
0.00754321
0.00780408
0.00740378
0.00756477
0.0117985
0.0151056
0.0165548
0.0171279
0.0172393
0.0171574
0.0169675
0.0170157
0.01693
0.0167375
0.0164634
0.0161283
0.0157553
0.0153573
0.0149587
0.0145626
0.0142023
0.0138545
0.0135377
0.0132366
0.0129607
0.0126392
0.0123758
0.0103131
0.00978362
0.00771879
0.00740594
0.00183935
0.00346637
0.00483342
0.00598346
0.00692009
0.00757358
0.00780683
0.00737148
0.00748855
0.0116983
0.0150882
0.0165138
0.0170568
0.0171741
0.0170929
0.016947
0.0169816
0.0168712
0.0166667
0.0163846
0.0160417
0.0156656
0.015263
0.014881
0.0145005
0.0141521
0.0138152
0.0135033
0.013207
0.0129339
0.0126206
0.0123357
0.0102298
0.00968251
0.00763975
0.00734525
0.00184217
0.0034639
0.0048367
0.00599456
0.00693844
0.00759396
0.00782216
0.00737768
0.00749187
0.0117133
0.0150924
0.0165104
0.0170476
0.0171596
0.0170731
0.0169394
0.016968
0.016854
0.0166458
0.0163624
0.01602
0.0156448
0.0152461
0.0148669
0.0144906
0.0141441
0.0138077
0.0134952
0.0131974
0.0129224
0.0126067
0.0123198
0.0102116
0.00966878
0.00762212
0.00733132
0.00181812
0.00344072
0.00481555
0.00597809
0.00693149
0.00760208
0.00784657
0.0074109
0.00756353
0.0118471
0.0151208
0.0165598
0.0171143
0.0172149
0.0171191
0.0169478
0.0169858
0.0168857
0.0166772
0.0164
0.0160645
0.015692
0.0153033
0.0149157
0.0145338
0.0141784
0.0138331
0.0135129
0.0132063
0.0129226
0.0125921
0.0123217
0.0102539
0.00974043
0.00764928
0.00735065
0.00178324
0.00340814
0.00477739
0.00593829
0.00690008
0.00759831
0.00788883
0.00750104
0.00776795
0.0122636
0.015186
0.0166905
0.0172111
0.0172831
0.0171934
0.0169994
0.0170057
0.016953
0.0167174
0.0164717
0.0161486
0.0157834
0.0154055
0.0150183
0.0146369
0.0142598
0.013896
0.0135498
0.0132207
0.0129154
0.0125578
0.0123443
0.0104348
0.0100249
0.00779883
0.00745039
0.0017849
0.00338295
0.00473071
0.00587755
0.00684167
0.00757263
0.00793852
0.00768734
0.0083612
0.013279
0.0153147
0.0165717
0.0170022
0.0170786
0.0170357
0.0168805
0.0167676
0.0167685
0.0166059
0.0163819
0.0160816
0.0157315
0.0153643
0.014983
0.0145974
0.0142163
0.0138486
0.0134943
0.0131507
0.0128308
0.0124681
0.0122638
0.0110121
0.0108315
0.00829795
0.00775011
0.00180772
0.00335925
0.00468564
0.00581589
0.00677544
0.00752977
0.00797014
0.00788383
0.0090894
0.0143091
0.0152104
0.0161248
0.0165336
0.0166942
0.0167157
0.0166012
0.0164457
0.0164713
0.0163598
0.0161473
0.0158653
0.0155342
0.0151989
0.0148385
0.0144579
0.0140792
0.0137094
0.0133511
0.0130013
0.01267
0.0123249
0.0120415
0.011474
0.011665
0.00882743
0.0080758
0.00178183
0.0033195
0.00464516
0.00577974
0.00675329
0.00753328
0.00801309
0.00800422
0.00928143
0.00955741
0.0103348
0.011073
0.0114561
0.0116637
0.0117501
0.011772
0.0118114
0.0118462
0.011793
0.0116691
0.0114723
0.0112447
0.0109936
0.0107104
0.0104093
0.0101031
0.00979952
0.00950994
0.00923147
0.00895897
0.00869443
0.00844922
0.00820337
0.00803804
0.00803885
0.00804798
0.00169572
0.00329562
0.00464825
0.00580997
0.00683177
0.00770538
0.00836063
0.00872975
0.0099641
0.0103188
0.0111181
0.0119151
0.0123238
0.0125303
0.0126072
0.012671
0.0127702
0.0128131
0.0127626
0.0126419
0.0124235
0.0121748
0.0118876
0.0115708
0.0112487
0.0109244
0.0106062
0.0102981
0.00999461
0.00969881
0.00941805
0.00916038
0.00891959
0.00872159
0.00858203
0.00841501
0.016539
0.0177288
0.0184637
0.018948
0.01916
0.0192734
0.0195066
0.019815
0.0197165
0.0197031
0.0195028
0.0192057
0.0188419
0.0184482
0.0179969
0.0176339
0.0172374
0.0169292
0.0165765
0.0162989
0.0159855
0.0157482
0.0154017
0.0153816
0.00342918
0.00576504
0.00768971
0.00931129
0.0106793
0.0118727
0.0129925
0.014095
0.0152801
0.0166315
0.0177037
0.0183649
0.0187784
0.0189357
0.0189937
0.0191671
0.0194843
0.0197345
0.0196446
0.0194464
0.0191544
0.0187978
0.0183933
0.0179714
0.0175476
0.0171611
0.0167868
0.0164538
0.0161319
0.0158418
0.015554
0.0152898
0.0150318
0.0149857
0.0144361
0.0140655
0.00335988
0.00571948
0.0076726
0.00929681
0.0106541
0.0118305
0.0129341
0.014007
0.0151889
0.0164194
0.0174958
0.0181336
0.0185132
0.0186231
0.0186135
0.0187171
0.0190566
0.0193636
0.0193284
0.0191397
0.0188255
0.0184743
0.0180554
0.0176419
0.0172064
0.0168539
0.0164855
0.016198
0.0158665
0.0156228
0.0153095
0.0151258
0.0147829
0.0145649
0.0143395
0.0140169
0.00331381
0.00569356
0.00767331
0.0093117
0.0106713
0.0118349
0.0129054
0.0139027
0.0149596
0.0161266
0.0172107
0.0179161
0.0183175
0.018436
0.0184438
0.0186239
0.0189662
0.0191494
0.0190436
0.0188371
0.0185227
0.0181491
0.0177451
0.0173288
0.0169129
0.0165274
0.0161665
0.0158511
0.0155619
0.0153174
0.0150398
0.0149248
0.0145857
0.0143324
0.0141021
0.0138162
0.00327004
0.00568458
0.00768953
0.00934506
0.0107123
0.0118647
0.0128988
0.0138193
0.0147796
0.015959
0.0170219
0.0177344
0.0181695
0.0182995
0.0183528
0.0186486
0.0189662
0.018993
0.0188567
0.0186224
0.0182899
0.0179089
0.0174809
0.0170879
0.0166696
0.0163584
0.016006
0.0157426
0.0154568
0.0152582
0.0149852
0.0148987
0.0145323
0.0142095
0.0139788
0.0137097
0.00326464
0.00568799
0.00770698
0.00937565
0.0107508
0.0118965
0.0129095
0.0137912
0.014707
0.015883
0.0169192
0.0176322
0.0180875
0.0182367
0.0183076
0.0186799
0.0189057
0.0189085
0.0187501
0.018498
0.0181517
0.017772
0.0173259
0.0169912
0.0166003
0.0163039
0.0159654
0.0157036
0.0154235
0.0152277
0.0149563
0.0148834
0.0145026
0.0141668
0.0139351
0.0136746
0.00326358
0.0056833
0.00770869
0.00938481
0.0107668
0.0119127
0.0129223
0.0137957
0.0147002
0.0158744
0.0169014
0.0176141
0.0180734
0.0182266
0.0183045
0.0186823
0.018889
0.0188871
0.018727
0.0184715
0.018127
0.0177489
0.0173101
0.0169787
0.0165936
0.0162992
0.0159606
0.0156978
0.0154149
0.0152163
0.0149427
0.0148643
0.0144781
0.0141404
0.0139085
0.0136473
0.00323657
0.00565457
0.00767988
0.009361
0.0107508
0.0119073
0.0129307
0.0138227
0.0147544
0.0159456
0.0169874
0.0176981
0.0181407
0.0182715
0.0183329
0.0186641
0.0189294
0.0189416
0.0187882
0.018543
0.0182141
0.0178337
0.0174206
0.0170483
0.0166526
0.0163447
0.0159957
0.0157238
0.0154291
0.0152184
0.0149358
0.0148252
0.0144381
0.0141081
0.0138785
0.0136146
0.00320134
0.0056131
0.00762948
0.00930848
0.0107068
0.0118858
0.0129451
0.0138943
0.0149112
0.0161366
0.0171944
0.017894
0.0183054
0.0183967
0.018426
0.0186595
0.0189788
0.0190826
0.0189324
0.0187111
0.0183918
0.0180198
0.0176388
0.0172504
0.0168665
0.0164917
0.0161326
0.0158005
0.015489
0.0152207
0.0149135
0.0147664
0.0143958
0.014098
0.0138788
0.0136311
0.00320237
0.00557642
0.00756868
0.00923811
0.0106432
0.0118519
0.0129711
0.0140326
0.0152114
0.0164814
0.0174912
0.0181371
0.0185013
0.0185837
0.0185693
0.0186882
0.0190249
0.0192426
0.0191422
0.0189465
0.0186497
0.0182889
0.0179111
0.0175271
0.0171408
0.0167589
0.0163917
0.0160423
0.0156975
0.0153984
0.0150613
0.0148617
0.0145137
0.0142555
0.0140368
0.0137578
0.00321724
0.00553565
0.00750362
0.00916527
0.0105759
0.0118082
0.0129819
0.0141583
0.0154973
0.0167653
0.0176952
0.0182887
0.018643
0.0187471
0.0187453
0.0188548
0.0191824
0.0194886
0.0194121
0.0192271
0.0189272
0.0185762
0.0181996
0.0178188
0.0174332
0.0170543
0.0166825
0.0163271
0.015969
0.0156527
0.0153037
0.0150535
0.0146963
0.0144874
0.0142654
0.0139329
0.00317697
0.00547914
0.00744423
0.00910917
0.0105317
0.0117784
0.0129688
0.0141734
0.0154782
0.0167625
0.0177127
0.0183628
0.0187691
0.018911
0.0190169
0.0192589
0.0195794
0.0198523
0.0195392
0.0194143
0.0191215
0.0187703
0.0183873
0.0180039
0.017618
0.01724
0.0168692
0.0165142
0.0161629
0.0158396
0.0154896
0.0152159
0.0148258
0.0147823
0.0142336
0.0138833
0.00312182
0.00543862
0.00740778
0.00909042
0.0105327
0.0117965
0.0129848
0.0141485
0.0153784
0.0165227
0.0174852
0.0181251
0.0185127
0.0187171
0.0189439
0.0192979
0.0195871
0.0197467
0.0194796
0.0192938
0.0189832
0.0186296
0.0182414
0.0178626
0.0174857
0.0171216
0.0167595
0.0164159
0.0160871
0.0157737
0.0154402
0.01517
0.0147788
0.0147698
0.014272
0.0139196
0.0126434
0.0143324
0.0150814
0.0154259
0.0154063
0.0152454
0.0150502
0.0150018
0.0148759
0.014733
0.0143626
0.0140627
0.013726
0.013488
0.0130339
0.0131933
0.0128663
0.0131069
0.0127932
0.0130309
0.0127798
0.0128667
0.0125896
0.0128399
0.00363278
0.00527758
0.00669262
0.00792828
0.0090156
0.0100884
0.0111817
0.0123121
0.0128857
0.0127763
0.0145561
0.0153547
0.0157923
0.0158023
0.0156532
0.01542
0.0152079
0.0151727
0.0150096
0.0148948
0.0145396
0.0142164
0.0139111
0.0136136
0.0133484
0.0131523
0.0129759
0.0128789
0.0127665
0.012725
0.0125078
0.0125729
0.0124346
0.0126777
0.0128316
0.0128853
0.00355849
0.00522041
0.00664613
0.00784874
0.00892989
0.01002
0.0111431
0.0123306
0.013024
0.0128798
0.0145538
0.0153343
0.0157787
0.0157965
0.0156548
0.0154127
0.015172
0.015097
0.0148927
0.0148349
0.0143871
0.0142024
0.0137769
0.0135673
0.013149
0.0132574
0.0129442
0.0131789
0.012758
0.0130763
0.012605
0.0127218
0.0123278
0.0124667
0.0119264
0.0117301
0.00353932
0.00522041
0.00663299
0.00781216
0.00889997
0.0100058
0.0111432
0.0123617
0.0130951
0.0129683
0.0143863
0.015136
0.0155461
0.0155475
0.0153899
0.0151547
0.0149652
0.0149173
0.0146614
0.0145352
0.014167
0.0138562
0.0135587
0.0132889
0.0130096
0.0128076
0.0126133
0.0125322
0.0124449
0.0124407
0.0122362
0.0123976
0.0121314
0.0127014
0.0120058
0.0117058
0.00350147
0.00518372
0.0066116
0.00781468
0.00890975
0.0100156
0.0111574
0.0123775
0.0130963
0.0129772
0.0142259
0.0149302
0.0152991
0.0152711
0.0150948
0.014867
0.0147612
0.0147123
0.0144273
0.0142038
0.0138443
0.0135309
0.013114
0.0130421
0.0126583
0.0129125
0.0125578
0.0127867
0.012525
0.0127971
0.0124486
0.0127096
0.0124026
0.0125183
0.0119057
0.0116301
0.00349183
0.00518468
0.00662378
0.00782316
0.00892355
0.0100411
0.011177
0.0123817
0.0130826
0.0129826
0.0141223
0.0148005
0.0151395
0.0150956
0.0149108
0.014708
0.0146044
0.0145988
0.014254
0.0139837
0.0136018
0.0133508
0.0128447
0.0131299
0.0127283
0.0129627
0.0126069
0.0128238
0.0125711
0.0128364
0.0124758
0.0128646
0.0125149
0.0125705
0.0119764
0.0116686
0.00350171
0.00519126
0.00661656
0.00780837
0.00893237
0.0100582
0.0111791
0.0123763
0.0130743
0.0129879
0.0140974
0.0147745
0.0151103
0.0150631
0.0148773
0.0146822
0.0145728
0.0145668
0.0142298
0.0139525
0.0135768
0.0133392
0.0128439
0.0131334
0.0127374
0.0129721
0.0126138
0.0128311
0.0125713
0.0128378
0.0124753
0.0128461
0.0124883
0.0125434
0.0119249
0.0116237
0.00348132
0.00516604
0.00658688
0.00777642
0.00890679
0.0100383
0.011163
0.0123665
0.0130781
0.0129876
0.0141806
0.0148768
0.0152338
0.0151911
0.015004
0.0147735
0.0146841
0.0146526
0.0143339
0.014093
0.0137675
0.0134589
0.0130546
0.01307
0.0127089
0.0129509
0.0125947
0.0128103
0.0125291
0.0127975
0.0124382
0.0126317
0.0122921
0.0123735
0.0117285
0.0114784
0.00345128
0.00512592
0.00654165
0.00773036
0.00884876
0.00998917
0.011141
0.0123653
0.013108
0.0129884
0.0143737
0.0150981
0.0154823
0.0154491
0.0152649
0.0150214
0.0148648
0.0148246
0.01451
0.0143623
0.0140016
0.0137009
0.0134596
0.0132423
0.0130208
0.0128292
0.0126404
0.0125191
0.0123933
0.0123516
0.0120862
0.0122412
0.011949
0.0120761
0.0115084
0.0113425
0.00343708
0.0050722
0.00647354
0.00767216
0.00878601
0.00992537
0.0111054
0.0123691
0.0131544
0.0130099
0.0145924
0.015338
0.0157371
0.0157187
0.015543
0.0152914
0.0150614
0.0150177
0.0147094
0.014633
0.0142951
0.01399
0.0137445
0.013521
0.0132997
0.013085
0.0129054
0.0127438
0.0124962
0.0124717
0.0121156
0.0122575
0.0118997
0.0120143
0.0114645
0.0113194
0.00344308
0.00504996
0.00642341
0.00760818
0.00872998
0.00987671
0.0110571
0.0123258
0.0131094
0.0129753
0.0146099
0.0153758
0.0157627
0.0157675
0.0156113
0.0153767
0.0151571
0.015088
0.0148553
0.0147805
0.014408
0.0141606
0.013893
0.0136773
0.0134581
0.0132669
0.0130647
0.0129221
0.0126129
0.0126177
0.0122177
0.0123407
0.0119288
0.0120397
0.0115479
0.011398
0.00338225
0.00497338
0.0063708
0.00759515
0.00870915
0.00984089
0.0109951
0.012206
0.0129032
0.012784
0.0144419
0.0152334
0.015598
0.015612
0.015473
0.0152678
0.0151263
0.0151068
0.0148246
0.0147
0.0143179
0.0140522
0.0137931
0.0136041
0.0134044
0.0132343
0.0130669
0.012932
0.0127057
0.0126594
0.0122869
0.0123521
0.0120557
0.0122208
0.0123951
0.0125086
0.00335892
0.00495608
0.00635591
0.00763192
0.00875509
0.00986295
0.0109756
0.0121106
0.0126925
0.0125387
0.0142433
0.0150426
0.0153784
0.0153871
0.01525
0.015055
0.0149849
0.0149598
0.0146646
0.0143747
0.0140198
0.0137766
0.013511
0.013354
0.013183
0.0130439
0.0128782
0.0127633
0.0126439
0.0125458
0.012284
0.0122939
0.0120449
0.0122564
0.0124574
0.0125669
0.00450997
0.00450505
0.00446135
0.00435142
0.00435882
0.00432608
0.00428191
0.00424345
0.00414503
0.00409538
0.00402739
0.00398827
0.00394456
0.00390608
0.00388179
0.00391764
0.00403379
0.00416218
0.00437775
0.00455318
0.00476304
0.00496938
0.00514138
0.00526651
0.00222075
0.00273393
0.00334388
0.00389718
0.00452345
0.00525789
0.00600462
0.00685034
0.00704531
0.00466354
0.0046246
0.00462785
0.00445085
0.00443075
0.00440869
0.00433447
0.00431997
0.00419964
0.0041359
0.00409168
0.00406468
0.00403361
0.00399574
0.003999
0.00401897
0.00409772
0.00420291
0.00434597
0.00454454
0.00470633
0.00490274
0.00510676
0.00523924
0.00537851
0.00663113
0.00741636
0.00225462
0.00285634
0.00338974
0.00394007
0.0045704
0.00533445
0.00605497
0.00691933
0.007059
0.00467133
0.00463984
0.00463766
0.00445449
0.00443743
0.00441213
0.00434626
0.00432131
0.0041903
0.00412974
0.00407849
0.00405757
0.00402648
0.00398973
0.00397056
0.00400676
0.00409194
0.00423762
0.00440881
0.00460658
0.00480416
0.0050003
0.0052394
0.00542582
0.00562596
0.00571365
0.00587088
0.00223924
0.0026985
0.00336385
0.0039575
0.00460937
0.00535308
0.00604364
0.00691219
0.00710203
0.00472751
0.00463647
0.0045882
0.00439201
0.00437615
0.004325
0.00428343
0.00421146
0.00410984
0.00406068
0.00401737
0.00398387
0.00395281
0.00391783
0.00391321
0.00391972
0.00398146
0.00406555
0.004235
0.00441904
0.00463859
0.00489452
0.0051904
0.00552384
0.00574324
0.00583498
0.00594609
0.00213001
0.00283708
0.00342646
0.00395319
0.00457314
0.00528229
0.00602379
0.00690451
0.0071087
0.00470541
0.00461546
0.00452236
0.00431349
0.00428831
0.00422047
0.00419409
0.00409196
0.00401714
0.00398025
0.00393736
0.00389629
0.00385539
0.00382838
0.00378815
0.00382699
0.00389283
0.00403262
0.00421746
0.00442004
0.00465365
0.00491906
0.00522856
0.00558766
0.00580209
0.00588424
0.00596928
0.0022582
0.0028624
0.00340834
0.00393481
0.00456508
0.0053136
0.00601795
0.00689102
0.00709451
0.00472107
0.00461669
0.00449519
0.00427173
0.00423571
0.00415988
0.00413436
0.00403336
0.0039655
0.00393079
0.00388609
0.00384164
0.00379103
0.0037667
0.00374571
0.0038191
0.00389984
0.00405546
0.00424055
0.00444211
0.0046834
0.00494247
0.00527743
0.00562268
0.00587985
0.0058634
0.00603806
0.00229914
0.00278045
0.00339357
0.00391196
0.00453318
0.00528264
0.00599322
0.00690907
0.00712781
0.00473741
0.0046202
0.00449322
0.0042649
0.00422512
0.00414841
0.00412269
0.00402436
0.00395679
0.00392284
0.00387849
0.00383661
0.00378839
0.00376613
0.00375152
0.00382807
0.00391333
0.00406937
0.00425434
0.00445401
0.00470025
0.00495585
0.0052957
0.00564237
0.00585828
0.00591988
0.00598696
0.00229225
0.00277598
0.00338589
0.00389637
0.00451306
0.0052716
0.0059782
0.00689849
0.00713892
0.00476054
0.00464113
0.00453102
0.00430658
0.00426769
0.00419576
0.00416286
0.00406249
0.00399114
0.00395568
0.00391031
0.00387602
0.00383643
0.00381717
0.0037951
0.00385156
0.00393419
0.00407745
0.00426279
0.00445901
0.00470529
0.00494283
0.00528622
0.00561333
0.00585753
0.00582015
0.00600846
0.00226764
0.00277618
0.00337806
0.0039006
0.00451652
0.00526381
0.00595688
0.00685738
0.0071045
0.00474188
0.00465288
0.00458888
0.0043753
0.00434386
0.00427988
0.004234
0.00414908
0.00405582
0.00400872
0.00396614
0.00393151
0.00389709
0.00388179
0.00388765
0.00392249
0.00401258
0.00411619
0.00427755
0.00445118
0.0046532
0.00487156
0.00515568
0.00544882
0.00557118
0.00565085
0.00578248
0.00213915
0.0028401
0.00340517
0.0039133
0.00452602
0.00526626
0.00598363
0.00685701
0.00708775
0.00472436
0.00466794
0.00464444
0.00444047
0.00441419
0.00435885
0.00429882
0.00423562
0.00411722
0.0040696
0.00400447
0.00398698
0.00395925
0.00394177
0.00395718
0.0039989
0.00408567
0.00421263
0.00435994
0.00453038
0.0047098
0.0048897
0.00514834
0.00532662
0.00551351
0.0055708
0.00571315
0.0021484
0.0026712
0.00334658
0.00389426
0.00451534
0.00525578
0.00597219
0.00685923
0.00697194
0.00455436
0.00455334
0.00453155
0.00436428
0.00435779
0.00430438
0.00426827
0.0041905
0.00409257
0.00405311
0.00400538
0.00398775
0.00396992
0.00394993
0.00397063
0.00401845
0.00410767
0.00424852
0.00439434
0.00456681
0.0047358
0.00489854
0.00511976
0.00523528
0.00543633
0.00551867
0.00569881
0.00218346
0.00278494
0.00329568
0.00382231
0.00443181
0.00517168
0.00591056
0.00677101
0.00684911
0.00442135
0.00440518
0.00433672
0.00422646
0.00423353
0.0041918
0.00418013
0.00408255
0.00403379
0.00400552
0.00398085
0.00394352
0.00392928
0.00390522
0.00392972
0.00397353
0.00407385
0.00421479
0.0043684
0.00454682
0.00471921
0.00488168
0.00508731
0.00521037
0.00530178
0.00645223
0.00724136
0.00203398
0.00256995
0.00319382
0.00372617
0.00435257
0.00505212
0.0057788
0.00659459
0.00671192
0.00425486
0.00429596
0.00418483
0.00411537
0.00411592
0.0040964
0.0040691
0.00401594
0.00398359
0.00396066
0.00392563
0.00387543
0.00385904
0.00383425
0.00385152
0.00388267
0.00399139
0.00412077
0.00428394
0.00446787
0.00465095
0.00481847
0.00503164
0.00514932
0.00522676
0.00646212
0.00723013
0.000123256
0.000168947
0.000210596
0.000246018
0.00027835
0.00030701
0.000332549
0.000354113
0.000374995
0.000393899
0.000411118
0.000428174
0.000444702
0.000458537
0.000477436
0.000497968
0.000522266
0.000551746
0.000589229
0.000632666
0.000682046
0.000738432
0.000796378
0.00076354
8.98041e-06
9.13144e-06
9.184e-06
9.24537e-06
9.16299e-06
9.13623e-06
6.18748e-06
3.72849e-06
4.27294e-06
6.9021e-06
1.75112e-05
4.71181e-05
9.52104e-05
0.000110768
0.000113257
0.000162304
0.000207934
0.000245536
0.000279338
0.000309546
0.000335764
0.000359799
0.000380113
0.000398708
0.000417161
0.000435039
0.000448902
0.000467891
0.000487597
0.000509063
0.000534094
0.000563086
0.000597644
0.000638886
0.000686234
0.000740014
0.000797642
0.000849412
0.000821522
0.00125428
0.00154023
8.98697e-06
9.14826e-06
9.22961e-06
9.21556e-06
9.17919e-06
9.12925e-06
7.88544e-06
4.9289e-06
4.20572e-06
6.08133e-06
1.59066e-05
4.34007e-05
8.7288e-05
0.000106407
0.000113613
0.000162834
0.000208689
0.000246557
0.000280717
0.000311264
0.000337934
0.00036124
0.000382562
0.000401387
0.000419348
0.000437501
0.000453795
0.000471999
0.00049106
0.000512469
0.00053799
0.000568784
0.000606477
0.000651328
0.000702793
0.000760885
0.000826494
0.000898184
0.000960948
0.00103496
0.00111558
8.97888e-06
9.1503e-06
9.19377e-06
9.19844e-06
9.16056e-06
9.1351e-06
8.67056e-06
4.96579e-06
3.9251e-06
6.21818e-06
1.58167e-05
4.13702e-05
8.30679e-05
0.000106391
0.000115697
0.000165045
0.000210079
0.000246955
0.000280261
0.000309474
0.000335334
0.000358018
0.000377598
0.000396127
0.000413867
0.000431593
0.000449133
0.000466846
0.000485753
0.000506183
0.000529694
0.000557146
0.00059099
0.000632765
0.000683088
0.000743264
0.000813913
0.000893695
0.000976147
0.00104708
0.00114237
9.03672e-06
9.18462e-06
9.22896e-06
9.25786e-06
9.16594e-06
9.11204e-06
8.0302e-06
5.63048e-06
4.77709e-06
5.66611e-06
1.3403e-05
3.77347e-05
8.25336e-05
0.000108833
0.000117654
0.000166937
0.000210775
0.000246362
0.000278312
0.000306017
0.000330329
0.00035237
0.000371131
0.000389267
0.000406535
0.000423686
0.000440544
0.000457072
0.00047567
0.000495607
0.000519055
0.000547468
0.000582431
0.000625504
0.000676982
0.000737916
0.000809288
0.000890219
0.000974056
0.0010455
0.0011372
9.03682e-06
9.15545e-06
9.19134e-06
9.18347e-06
9.16123e-06
9.11282e-06
8.65964e-06
6.47192e-06
4.8076e-06
5.44631e-06
1.32257e-05
3.81578e-05
8.40189e-05
0.000111502
0.00012062
0.000170124
0.000213556
0.000248352
0.000279409
0.000306179
0.00033077
0.000352182
0.000370484
0.000388254
0.000405136
0.000421741
0.000438107
0.000454894
0.000473054
0.000493968
0.000518696
0.000548687
0.000584952
0.000629486
0.000682304
0.000744166
0.000816233
0.000896798
0.000980494
0.00105247
0.00114054
9.03328e-06
9.16961e-06
9.18794e-06
9.2038e-06
9.18945e-06
9.12259e-06
8.89479e-06
6.46801e-06
4.8138e-06
5.26458e-06
1.27784e-05
3.78509e-05
8.63175e-05
0.000113975
0.000122184
0.000171591
0.000215131
0.000249685
0.000280492
0.000307035
0.000331938
0.000352879
0.000371244
0.0003888
0.000406047
0.000422619
0.000439345
0.000456318
0.000474943
0.000496374
0.000521715
0.000552285
0.000588815
0.000634413
0.000687882
0.000750242
0.000822719
0.000903502
0.000986905
0.00105664
0.00114826
9.03313e-06
9.17862e-06
9.227e-06
9.23108e-06
9.149e-06
9.13574e-06
8.91817e-06
6.61022e-06
4.9855e-06
5.1947e-06
1.24134e-05
3.72006e-05
8.55303e-05
0.000112486
0.000120816
0.000170733
0.000214777
0.000250123
0.000281533
0.000308695
0.000333242
0.000355146
0.000373633
0.000391632
0.000408752
0.000425953
0.000443331
0.000461144
0.000480171
0.00050156
0.000526859
0.000557158
0.000593473
0.000638282
0.000691819
0.000753616
0.000825996
0.000906498
0.000988194
0.00106231
0.00115333
8.98405e-06
9.1579e-06
9.20131e-06
9.16883e-06
9.14901e-06
9.1234e-06
8.94946e-06
7.00306e-06
4.99741e-06
5.22373e-06
1.24829e-05
3.62255e-05
8.16838e-05
0.000108852
0.00011734
0.000167493
0.000212611
0.000249086
0.000281597
0.000309839
0.000334407
0.000356609
0.000375509
0.000393268
0.000410835
0.000428048
0.000445423
0.000463866
0.000483745
0.000506034
0.000532052
0.000562216
0.000597766
0.000641162
0.000691621
0.000750033
0.000817802
0.000893288
0.000969645
0.00104102
0.00113368
9.03645e-06
9.17082e-06
9.21378e-06
9.19358e-06
9.17583e-06
9.12422e-06
8.44355e-06
6.31419e-06
5.04887e-06
5.51036e-06
1.25179e-05
3.45465e-05
7.66407e-05
0.000103591
0.000113815
0.000163888
0.000209867
0.000247231
0.000280615
0.000309747
0.000335042
0.000357676
0.000376685
0.00039442
0.000411688
0.000428895
0.000446481
0.000465066
0.000485411
0.000508272
0.0005349
0.000566292
0.00060297
0.000646518
0.000696666
0.000753342
0.000818898
0.000889666
0.000962181
0.00102982
0.00112409
9.03241e-06
9.185e-06
9.22918e-06
9.19934e-06
9.16709e-06
9.14073e-06
8.71316e-06
5.61759e-06
4.48249e-06
5.50966e-06
1.27399e-05
3.41407e-05
7.27598e-05
9.67216e-05
0.000107051
0.000154655
0.00019809
0.000234025
0.000266546
0.000294971
0.000320378
0.000341561
0.000361432
0.000379616
0.000396931
0.000413324
0.000432307
0.000451356
0.000472212
0.000495693
0.000522878
0.000555195
0.000593015
0.000636879
0.000686635
0.000742214
0.000805316
0.000871961
0.000938588
0.00100788
0.00109084
8.98353e-06
9.14564e-06
9.18107e-06
9.21554e-06
9.16921e-06
9.12999e-06
8.2017e-06
5.57217e-06
4.55784e-06
5.24951e-06
1.24347e-05
3.4595e-05
7.03683e-05
8.89299e-05
9.8827e-05
0.000143593
0.00018326
0.000217151
0.000248169
0.000275592
0.000300603
0.000321979
0.00034157
0.000360215
0.000378932
0.000397081
0.000415819
0.000434918
0.000456048
0.000479486
0.000506998
0.000539243
0.000577301
0.000621264
0.000671719
0.000727648
0.000791031
0.000857099
0.000821739
0.00120376
0.00147842
9.04829e-06
9.1804e-06
9.22593e-06
9.19886e-06
9.19973e-06
9.13405e-06
6.81372e-06
4.27844e-06
3.99573e-06
5.80416e-06
1.40662e-05
3.64613e-05
7.13577e-05
8.63497e-05
9.475e-05
0.000137169
0.000174196
0.000206641
0.000236188
0.000262778
0.000286696
0.000308011
0.000327948
0.000347036
0.000365893
0.000383668
0.000402005
0.000420658
0.000441158
0.000463624
0.000490385
0.00052141
0.000558641
0.000601734
0.000651688
0.000707245
0.000770779
0.000837433
0.000777201
0.00121618
0.00149467
8.48027e-06
8.14944e-06
7.88636e-06
7.70799e-06
7.63948e-06
7.67423e-06
7.79783e-06
7.99373e-06
8.25083e-06
8.55879e-06
8.91024e-06
9.30352e-06
9.73735e-06
1.02067e-05
1.07252e-05
1.13028e-05
1.19555e-05
1.27086e-05
1.3598e-05
1.46613e-05
1.59274e-05
1.74336e-05
1.91098e-05
1.97151e-05
8.9915e-06
8.97272e-06
8.95469e-06
8.93735e-06
8.92084e-06
8.90583e-06
8.89174e-06
8.87784e-06
8.86507e-06
8.85379e-06
8.84255e-06
8.83144e-06
8.82284e-06
8.93704e-06
8.56994e-06
8.22859e-06
7.9471e-06
7.7496e-06
7.66514e-06
7.69053e-06
7.81001e-06
8.00893e-06
8.27064e-06
8.5843e-06
8.94592e-06
9.35197e-06
9.79086e-06
1.02795e-05
1.08232e-05
1.14291e-05
1.21157e-05
1.29e-05
1.38135e-05
1.48888e-05
1.61657e-05
1.768e-05
1.94775e-05
2.12723e-05
2.06858e-05
3.15209e-05
3.79773e-05
8.99347e-06
8.97328e-06
8.95429e-06
8.93648e-06
8.9196e-06
8.90397e-06
8.88948e-06
8.87598e-06
8.86392e-06
8.85269e-06
8.84132e-06
8.83079e-06
8.82254e-06
8.94921e-06
8.57017e-06
8.23701e-06
7.95875e-06
7.76318e-06
7.68067e-06
7.70871e-06
7.83193e-06
8.03433e-06
8.30113e-06
8.62088e-06
8.98712e-06
9.39976e-06
9.85089e-06
1.03505e-05
1.09017e-05
1.15186e-05
1.2218e-05
1.30284e-05
1.39821e-05
1.51236e-05
1.64889e-05
1.8127e-05
2.0089e-05
2.24071e-05
2.49145e-05
2.81309e-05
3.16306e-05
9.00448e-06
8.98876e-06
8.97031e-06
8.94978e-06
8.92829e-06
8.908e-06
8.89064e-06
8.87634e-06
8.86369e-06
8.85185e-06
8.84083e-06
8.83093e-06
8.82365e-06
8.91744e-06
8.55518e-06
8.22617e-06
7.94783e-06
7.75515e-06
7.67708e-06
7.70847e-06
7.83318e-06
8.03543e-06
8.29859e-06
8.61399e-06
8.97577e-06
9.38285e-06
9.83446e-06
1.0332e-05
1.08824e-05
1.1494e-05
1.2181e-05
1.29651e-05
1.38791e-05
1.49709e-05
1.62916e-05
1.79102e-05
1.99027e-05
2.23398e-05
2.52203e-05
2.85615e-05
3.20785e-05
9.00156e-06
8.98769e-06
8.97331e-06
8.95807e-06
8.94194e-06
8.92441e-06
8.90475e-06
8.8848e-06
8.86774e-06
8.85393e-06
8.84112e-06
8.8303e-06
8.82373e-06
8.92762e-06
8.55264e-06
8.20692e-06
7.931e-06
7.74223e-06
7.66828e-06
7.70177e-06
7.82578e-06
8.02577e-06
8.2847e-06
8.59523e-06
8.9512e-06
9.35163e-06
9.79522e-06
1.02847e-05
1.08257e-05
1.14273e-05
1.21044e-05
1.28824e-05
1.37921e-05
1.48792e-05
1.6193e-05
1.77934e-05
1.97487e-05
2.21252e-05
2.49597e-05
2.82608e-05
3.17662e-05
8.99916e-06
8.98383e-06
8.96974e-06
8.95629e-06
8.94293e-06
8.92992e-06
8.91571e-06
8.89933e-06
8.88132e-06
8.86333e-06
8.84784e-06
8.83477e-06
8.82351e-06
8.92746e-06
8.53821e-06
8.19202e-06
7.91423e-06
7.72934e-06
7.66157e-06
7.70117e-06
7.83299e-06
8.0394e-06
8.30369e-06
8.61876e-06
8.97866e-06
9.38207e-06
9.82824e-06
1.03212e-05
1.08666e-05