/*--------------------------------*- C++ -*----------------------------------*\
  =========                 |
  \\      /  F ield         | OpenFOAM: The Open Source CFD Toolbox
   \\    /   O peration     | Website:  https://openfoam.org
    \\  /    A nd           | Version:  7
     \\/     M anipulation  |
\*---------------------------------------------------------------------------*/
FoamFile
{
    version     2.0;
    format      ascii;
    class       volScalarField;
    location    "400";
    object      p;
}
// * * * * * * * * * * * * * * * * * * * * * * * * * * * * * * * * * * * * * //

dimensions      [0 2 -2 0 0 0 0];

internalField   nonuniform List<scalar> 
120313
(
-20.1952
-19.1968
-17.8718
-16.3432
-14.7158
-13.0681
-11.4508
-9.95283
-8.47765
-7.1205
-5.93672
-4.90246
-4.02502
-3.26806
-2.63204
-2.10143
-1.66394
-1.30288
-1.00344
-0.755101
-0.549976
-0.383595
-0.221148
-0.113012
-20.1884
-19.2132
-17.8991
-16.3664
-14.7316
-13.1404
-11.5471
-9.97581
-8.49743
-7.15265
-5.96672
-4.9354
-4.04984
-3.29025
-2.65482
-2.12396
-1.6848
-1.32313
-1.02382
-0.777857
-0.571192
-0.401215
-0.231935
-0.130701
-20.1512
-19.1893
-17.8809
-16.3498
-14.7126
-13.119
-11.5478
-9.97073
-8.48233
-7.14663
-5.96097
-4.93402
-4.04798
-3.28869
-2.65383
-2.12344
-1.68407
-1.32195
-1.02263
-0.775639
-0.568942
-0.397728
-0.230973
-0.131208
-20.1423
-19.1838
-17.8763
-16.346
-14.7094
-13.1147
-11.5425
-9.96129
-8.47305
-7.13973
-5.9552
-4.93004
-4.04488
-3.28692
-2.65299
-2.12326
-1.68393
-1.32172
-1.0225
-0.775682
-0.569516
-0.398526
-0.233207
-0.136067
-20.1412
-19.1817
-17.8731
-16.3416
-14.7044
-13.11
-11.5355
-9.95417
-8.46681
-7.13448
-5.95122
-4.92666
-4.04203
-3.28469
-2.6512
-2.12139
-1.68215
-1.32003
-1.02104
-0.774458
-0.568834
-0.398501
-0.233807
-0.137938
-20.1475
-19.1832
-17.8719
-16.3369
-14.6977
-13.1056
-11.5281
-9.94987
-8.46368
-7.1312
-5.94919
-4.92437
-4.03974
-3.28228
-2.64843
-2.11827
-1.67908
-1.31717
-1.01849
-0.772208
-0.567144
-0.397877
-0.233339
-0.135691
-20.1836
-19.2048
-17.8858
-16.3469
-14.7083
-13.1177
-11.517
-9.94228
-8.46743
-7.12835
-5.94767
-4.92029
-4.03679
-3.27964
-2.64556
-2.11565
-1.677
-1.31569
-1.01742
-0.772375
-0.568394
-0.401208
-0.236556
-0.140421
-20.1972
-19.1869
-17.8552
-16.317
-14.6828
-13.0303
-11.4095
-9.90759
-8.435
-7.0862
-5.91026
-4.88355
-4.00873
-3.25326
-2.61856
-2.08767
-1.65019
-1.29046
-0.993417
-0.747472
-0.546422
-0.385145
-0.228881
-0.123535
-19.871
-20.2617
-20.6574
-21.0112
-21.3099
-21.5256
-21.6237
-21.6271
-21.1911
-20.6208
-19.7036
-18.4325
-16.9668
-15.3865
-13.7626
-12.1488
-10.5804
-9.08878
-7.70068
-6.44021
-5.34359
-4.40791
-3.59594
-2.93113
-2.37488
-1.90858
-1.52558
-1.2087
-0.940043
-0.715332
-0.525118
-0.361441
-0.226653
-0.120662
-0.0189748
0.0126761
-19.8831
-20.2692
-20.664
-21.0179
-21.3158
-21.5298
-21.6266
-21.6493
-21.1985
-20.4592
-19.5386
-18.1845
-16.6917
-15.1027
-13.4889
-11.8869
-10.3297
-8.84411
-7.46663
-6.26273
-5.19801
-4.28835
-3.51721
-2.87321
-2.3375
-1.88787
-1.51296
-1.20052
-0.943517
-0.725559
-0.546631
-0.375186
-0.270658
-0.199878
0.0358299
-0.0540337
-19.9015
-20.2798
-20.6732
-21.0271
-21.3243
-21.5373
-21.6332
-21.6557
-21.1987
-20.4625
-19.608
-18.2299
-16.7335
-15.1453
-13.5392
-11.9336
-10.3467
-8.85689
-7.49423
-6.28758
-5.23223
-4.32696
-3.55029
-2.89933
-2.36309
-1.91125
-1.53432
-1.21977
-0.961329
-0.74349
-0.566018
-0.385808
-0.302018
-0.223717
0.033404
-0.0818779
-19.9201
-20.2928
-20.6838
-21.0361
-21.3316
-21.5426
-21.6355
-21.6406
-21.1647
-20.4451
-19.625
-18.2395
-16.7413
-15.1512
-13.5472
-11.9402
-10.343
-8.84487
-7.49208
-6.28504
-5.23357
-4.32823
-3.54968
-2.89925
-2.36502
-1.91369
-1.53648
-1.22163
-0.963496
-0.746277
-0.569102
-0.391477
-0.331807
-0.227416
0.0372152
-0.0906914
-19.9405
-20.308
-20.6943
-21.0436
-21.3362
-21.545
-21.6365
-21.6411
-21.1605
-20.4439
-19.6325
-18.2436
-16.7443
-15.1533
-13.5488
-11.9391
-10.3358
-8.83772
-7.48744
-6.28186
-5.23218
-4.32742
-3.54892
-2.89961
-2.36612
-1.91505
-1.53787
-1.22316
-0.965313
-0.748378
-0.57223
-0.395539
-0.343512
-0.23316
0.0375144
-0.0942517
-19.9594
-20.3205
-20.7019
-21.0479
-21.338
-21.5453
-21.6365
-21.6415
-21.1588
-20.4427
-19.63
-18.2405
-16.7408
-15.1492
-13.5439
-11.9327
-10.3285
-8.83209
-7.48237
-6.27798
-5.22931
-4.32473
-3.547
-2.89818
-2.36485
-1.91384
-1.53672
-1.22218
-0.964632
-0.748223
-0.572312
-0.396284
-0.344754
-0.234716
0.0372048
-0.0946056
-19.9746
-20.3278
-20.7052
-21.0487
-21.337
-21.5437
-21.6359
-21.643
-21.164
-20.443
-19.6195
-18.2327
-16.7328
-15.1405
-13.5337
-11.9228
-10.3234
-8.82908
-7.47796
-6.27476
-5.22554
-4.32119
-3.5446
-2.89587
-2.3619
-1.91069
-1.53357
-1.21912
-0.961856
-0.746054
-0.569731
-0.394579
-0.337698
-0.234341
0.0327365
-0.0948975
-19.9831
-20.3307
-20.705
-21.0463
-21.3337
-21.5402
-21.6329
-21.6436
-21.1754
-20.4573
-19.601
-18.2214
-16.7219
-15.1296
-13.5189
-11.9076
-10.317
-8.83086
-7.47216
-6.27109
-5.21933
-4.31613
-3.54227
-2.89398
-2.35808
-1.90628
-1.52928
-1.21515
-0.958099
-0.742385
-0.566336
-0.391359
-0.311749
-0.236611
0.0237363
-0.0934902
-19.9888
-20.3339
-20.7037
-21.0416
-21.3274
-21.5339
-21.627
-21.6524
-21.2066
-20.4474
-19.5291
-18.1737
-16.6759
-15.0809
-13.461
-11.8532
-10.2922
-8.80839
-7.43865
-6.24069
-5.18249
-4.27851
-3.50943
-2.86548
-2.3294
-1.87936
-1.50421
-1.19332
-0.938567
-0.724131
-0.549491
-0.384533
-0.284057
-0.223566
0.0230968
-0.0895315
-19.9971
-20.3374
-20.7011
-21.035
-21.3184
-21.5236
-21.6168
-21.6492
-21.2277
-20.437
-19.4588
-18.1349
-16.6422
-15.0482
-13.4248
-11.8191
-10.2671
-8.79155
-7.43475
-6.22532
-5.17064
-4.26989
-3.48994
-2.84721
-2.30925
-1.85874
-1.48374
-1.17193
-0.913443
-0.698757
-0.525235
-0.382106
-0.265264
-0.199145
0.030449
-0.0778777
-20.0073
-20.338
-20.6968
-21.0289
-21.3122
-21.5176
-21.6101
-21.627
-21.1715
-20.5965
-19.6785
-18.4084
-16.9387
-15.3508
-13.7193
-12.0984
-10.5283
-9.0327
-7.65462
-6.40915
-5.31179
-4.37887
-3.57436
-2.91007
-2.3527
-1.88811
-1.50674
-1.18759
-0.921322
-0.69706
-0.513327
-0.360393
-0.242028
-0.14685
-0.0558753
-0.0550523
-20.0159
-20.332
-20.6914
-21.0253
-21.3113
-21.5206
-21.6166
-21.6465
-21.1915
-20.5933
-19.6755
-18.4188
-16.9532
-15.3689
-13.7401
-12.1234
-10.5544
-9.05891
-7.68305
-6.43488
-5.33647
-4.4046
-3.5966
-2.93132
-2.37132
-1.91015
-1.52532
-1.20351
-0.931349
-0.704137
-0.520649
-0.369773
-0.249069
-0.143381
-0.0505678
-0.0487073
-20.526
-19.4917
-18.2802
-16.8106
-15.2408
-13.6275
-12.024
-10.4744
-9.01598
-7.67145
-6.46953
-5.42162
-4.51529
-3.74024
-3.08616
-2.53957
-2.07674
-1.69042
-1.36399
-1.08856
-0.85369
-0.652338
-0.490394
-0.370899
-20.0876
-20.3961
-20.7275
-21.056
-21.3603
-21.5933
-21.6985
-21.6821
-21.3354
-20.5381
-19.5434
-18.2779
-16.8114
-15.2412
-13.6315
-12.0281
-10.4758
-9.01394
-7.66875
-6.46919
-5.41878
-4.51196
-3.73368
-3.07567
-2.52462
-2.06089
-1.67274
-1.3474
-1.07183
-0.840232
-0.642808
-0.482502
-0.337224
-0.260326
0.0187688
-0.010404
-20.0939
-20.3953
-20.7302
-21.062
-21.3657
-21.5953
-21.6956
-21.6804
-21.3113
-20.512
-19.5688
-18.2886
-16.8257
-15.2583
-13.6534
-12.05
-10.4948
-9.02562
-7.67966
-6.48561
-5.43481
-4.52958
-3.75203
-3.09434
-2.54168
-2.07579
-1.68406
-1.35554
-1.07963
-0.847586
-0.652874
-0.489353
-0.355563
-0.235895
-0.151801
0.0547316
-20.1064
-20.4021
-20.7388
-21.0716
-21.3732
-21.6001
-21.6986
-21.6912
-21.3081
-20.509
-19.587
-18.3028
-16.8419
-15.2785
-13.6788
-12.0686
-10.498
-9.03065
-7.69252
-6.49921
-5.45286
-4.54915
-3.76885
-3.10783
-2.55353
-2.08615
-1.69357
-1.36485
-1.08912
-0.857279
-0.66374
-0.500484
-0.372152
-0.241952
-0.163503
0.0910032
-20.1218
-20.4143
-20.7486
-21.0793
-21.3787
-21.6043
-21.7019
-21.6913
-21.2936
-20.4941
-19.5872
-18.3028
-16.8399
-15.277
-13.6798
-12.069
-10.4927
-9.0235
-7.68888
-6.49667
-5.45348
-4.54984
-3.76921
-3.11018
-2.55768
-2.09011
-1.69637
-1.3669
-1.09105
-0.858645
-0.666799
-0.502418
-0.386608
-0.250999
-0.174756
0.0971519
-20.1402
-20.4256
-20.7562
-21.0847
-21.3814
-21.6061
-21.7045
-21.693
-21.2901
-20.4896
-19.5865
-18.3008
-16.8369
-15.2738
-13.6775
-12.0662
-10.4876
-9.0185
-7.68522
-6.49442
-5.45312
-4.55046
-3.77167
-3.11401
-2.56061
-2.09239
-1.69827
-1.36867
-1.09307
-0.860587
-0.670005
-0.505716
-0.395483
-0.257067
-0.181229
0.0974552
-20.1554
-20.4337
-20.7617
-21.0878
-21.3807
-21.6052
-21.7062
-21.6959
-21.2896
-20.4873
-19.5827
-18.2967
-16.8329
-15.2695
-13.6724
-12.06
-10.4816
-9.01364
-7.68098
-6.49123
-5.45072
-4.54826
-3.76988
-3.11246
-2.5592
-2.09102
-1.69701
-1.36753
-1.09218
-0.860047
-0.669768
-0.505805
-0.396525
-0.258156
-0.183678
0.0960243
-20.1661
-20.4396
-20.7645
-21.0878
-21.3784
-21.6018
-21.7036
-21.695
-21.2894
-20.4896
-19.5797
-18.2934
-16.83
-15.2654
-13.6652
-12.0513
-10.4756
-9.00917
-7.67628
-6.48741
-5.44659
-4.544
-3.76486
-3.10658
-2.55417
-2.0867
-1.69318
-1.36398
-1.08887
-0.857372
-0.666143
-0.503295
-0.39136
-0.255895
-0.184098
0.0928944
-20.172
-20.444
-20.765
-21.0853
-21.3744
-21.5959
-21.6956
-21.6875
-21.2894
-20.503
-19.5811
-18.2935
-16.8301
-15.2627
-13.6569
-12.0414
-10.4712
-9.00746
-7.67218
-6.48383
-5.44161
-4.53981
-3.76153
-3.1018
-2.54741
-2.07948
-1.68649
-1.3579
-1.08308
-0.852384
-0.660626
-0.500737
-0.38026
-0.250226
-0.183276
0.0872237
-20.1765
-20.4472
-20.7641
-21.0809
-21.3685
-21.5879
-21.6846
-21.675
-21.2893
-20.5059
-19.5706
-18.2833
-16.8166
-15.243
-13.6291
-12.0192
-10.4637
-8.99826
-7.65841
-6.47039
-5.42581
-4.52422
-3.74784
-3.089
-2.53408
-2.06672
-1.67441
-1.34666
-1.07262
-0.843211
-0.65231
-0.492415
-0.365941
-0.246491
-0.183752
0.0751821
-20.1811
-20.4478
-20.7611
-21.075
-21.3612
-21.5793
-21.6751
-21.6677
-21.2924
-20.5046
-19.5527
-18.2692
-16.7982
-15.2213
-13.6038
-11.9952
-10.4433
-8.98467
-7.64963
-6.45579
-5.41054
-4.50846
-3.7295
-3.07225
-2.51821
-2.0521
-1.66076
-1.33357
-1.05922
-0.830814
-0.640263
-0.48545
-0.354068
-0.244094
-0.176704
0.0383551
-20.1859
-20.4491
-20.757
-21.0683
-21.3551
-21.5752
-21.6734
-21.6635
-21.3171
-20.5124
-19.5414
-18.2634
-16.7871
-15.2074
-13.5876
-11.9781
-10.4276
-8.97397
-7.64178
-6.44556
-5.39962
-4.49811
-3.72235
-3.06732
-2.51438
-2.05108
-1.66191
-1.3358
-1.06016
-0.830848
-0.636643
-0.483532
-0.343779
-0.263624
0.0134717
-0.0392291
-20.1877
-20.451
-20.7565
-21.0654
-21.3527
-21.5759
-21.6798
-21.6705
-21.3255
-20.5137
-19.5564
-18.2699
-16.7861
-15.2042
-13.5804
-11.9697
-10.4204
-8.96827
-7.63613
-6.44098
-5.39784
-4.49922
-3.72732
-3.07626
-2.52621
-2.06519
-1.67678
-1.35055
-1.07276
-0.842495
-0.644831
-0.492992
-0.341342
-0.27802
0.0480518
-0.0167096
-20.2075
-19.1712
-18.0697
-16.7002
-15.1895
-13.6091
-12.0305
-10.5083
-9.08058
-7.77485
-6.60369
-5.57512
-4.67872
-3.90852
-3.24787
-2.69231
-2.21808
-1.8234
-1.48262
-1.20016
-0.948779
-0.751218
-0.556362
-0.458664
-20.1722
-20.4224
-20.738
-21.0608
-21.384
-21.6247
-21.7105
-21.6634
-21.1614
-20.2592
-19.2334
-18.1094
-16.7322
-15.2166
-13.6354
-12.0471
-10.5138
-9.0812
-7.7749
-6.60575
-5.57525
-4.67883
-3.90433
-3.24484
-2.68574
-2.21291
-1.81371
-1.47657
-1.19088
-0.947888
-0.742109
-0.569393
-0.410273
-0.339097
-0.0288204
-0.00535595
-20.1918
-20.4131
-20.7327
-21.0673
-21.3855
-21.6176
-21.6977
-21.6457
-21.1522
-20.2574
-19.2397
-18.1074
-16.7302
-15.2165
-13.6391
-12.0487
-10.5091
-9.07465
-7.77251
-6.6068
-5.57751
-4.68244
-3.90783
-3.2482
-2.68862
-2.21592
-1.81539
-1.47881
-1.19305
-0.95193
-0.747545
-0.572208
-0.427165
-0.290994
-0.189192
-0.0318536
-20.1948
-20.4148
-20.7495
-21.0829
-21.3888
-21.6123
-21.6913
-21.6408
-21.1474
-20.2535
-19.2458
-18.1084
-16.7297
-15.217
-13.6414
-12.0466
-10.5033
-9.07402
-7.7764
-6.61265
-5.58382
-4.68914
-3.91512
-3.25495
-2.69439
-2.2206
-1.81883
-1.48179
-1.19621
-0.955978
-0.753133
-0.57793
-0.436623
-0.290843
-0.193877
-0.0242317
-20.2133
-20.4377
-20.7589
-21.0849
-21.3876
-21.6108
-21.6921
-21.6413
-21.1401
-20.2461
-19.2451
-18.1028
-16.7207
-15.207
-13.6323
-12.038
-10.4978
-9.07205
-7.77608
-6.61308
-5.58517
-4.69091
-3.91709
-3.25608
-2.69526
-2.22206
-1.82044
-1.48308
-1.19744
-0.957661
-0.756732
-0.582143
-0.446841
-0.294891
-0.197067
-0.0202957
-20.2374
-20.4402
-20.7616
-21.089
-21.3851
-21.6082
-21.6959
-21.6461
-21.135
-20.2417
-19.2411
-18.0955
-16.7113
-15.1974
-13.6236
-12.0309
-10.4935
-9.06987
-7.77454
-6.61245
-5.58581
-4.6921
-3.9175
-3.25642
-2.69679
-2.22479
-1.82353
-1.48594
-1.20013
-0.960516
-0.760721
-0.586444
-0.453663
-0.298725
-0.200518
-0.0198467
-20.249
-20.4395
-20.7694
-21.0911
-21.3771
-21.6047
-21.7027
-21.6526
-21.1322
-20.2372
-19.2355
-18.0897
-16.706
-15.1921
-13.6178
-12.0248
-10.4883
-9.06569
-7.77025
-6.60851
-5.58263
-4.68922
-3.915
-3.25424
-2.69501
-2.22334
-1.82245
-1.48505
-1.19968
-0.960378
-0.761216
-0.587116
-0.454574
-0.298956
-0.201629
-0.0204567
-20.2589
-20.4445
-20.7735
-21.0906
-21.372
-21.5991
-21.6989
-21.6499
-21.1328
-20.2383
-19.2338
-18.0897
-16.7079
-15.1935
-13.6157
-12.0205
-10.4826
-9.05928
-7.76408
-6.60241
-5.5762
-4.68282
-3.9105
-3.25103
-2.69162
-2.21952
-1.81901
-1.48221
-1.19775
-0.959065
-0.760054
-0.586391
-0.452281
-0.298145
-0.202485
-0.0224737
-20.269
-20.4559
-20.772
-21.0882
-21.3718
-21.5917
-21.6838
-21.6365
-21.1362
-20.2456
-19.2393
-18.0973
-16.7167
-15.1999
-13.616
-12.0192
-10.4794
-9.05382
-7.75656
-6.59473
-5.56774
-4.67385
-3.90191
-3.24387
-2.68586
-2.2138
-1.81378
-1.47745
-1.19339
-0.954813
-0.754787
-0.581474
-0.443713
-0.293331
-0.200166
-0.024989
-20.2713
-20.466
-20.7726
-21.0834
-21.3697
-21.5859
-21.6693
-21.622
-21.1403
-20.2438
-19.2405
-18.1032
-16.721
-15.1995
-13.6104
-12.0163
-10.4787
-9.04873
-7.7496
-6.58605
-5.55796
-4.66413
-3.8919
-3.2346
-2.67744
-2.20601
-1.80719
-1.47187
-1.18849
-0.95019
-0.749242
-0.576952
-0.435837
-0.292392
-0.202595
-0.0311827
-20.2645
-20.4573
-20.7716
-21.0804
-21.3651
-21.5823
-21.6651
-21.6183
-21.1391
-20.2336
-19.2307
-18.0999
-16.7143
-15.1885
-13.5977
-12.0047
-10.4684
-9.04146
-7.74574
-6.58003
-5.55098
-4.65589
-3.88227
-3.2258
-2.66927
-2.19897
-1.80121
-1.46646
-1.18275
-0.944828
-0.742287
-0.573434
-0.429771
-0.295688
-0.207588
-0.0421446
-20.2702
-20.4615
-20.758
-21.0687
-21.3637
-21.5868
-21.6735
-21.6234
-21.135
-20.2212
-19.2189
-18.0933
-16.7064
-15.1769
-13.586
-11.9951
-10.4649
-9.04552
-7.75043
-6.58422
-5.55255
-4.65678
-3.88348
-3.22865
-2.67148
-2.20273
-1.80463
-1.47074
-1.18522
-0.94787
-0.73963
-0.577034
-0.418365
-0.34413
-0.0275699
-0.0114095
-20.2557
-20.4688
-20.7684
-21.0672
-21.364
-21.5924
-21.6856
-21.6383
-21.127
-20.189
-19.1931
-18.0761
-16.6891
-15.1582
-13.5669
-11.9842
-10.4644
-9.0489
-7.75346
-6.5887
-5.55749
-4.66378
-3.89189
-3.2378
-2.68087
-2.21282
-1.81384
-1.47922
-1.19163
-0.9538
-0.742706
-0.579147
-0.414098
-0.366509
0.00367149
0.0186102
-19.4899
-18.2545
-17.3877
-16.2026
-14.8062
-13.3406
-11.8793
-10.4528
-9.09584
-7.87456
-6.7803
-5.79543
-4.91509
-4.15482
-3.49295
-2.92674
-2.43617
-2.02225
-1.65912
-1.35379
-1.08268
-0.857011
-0.655658
-0.461986
-19.8782
-20.2556
-20.4269
-20.696
-21.0322
-21.2506
-21.2913
-21.1315
-20.4776
-19.5324
-18.2774
-17.414
-16.2241
-14.8297
-13.3641
-11.8917
-10.4596
-9.10157
-7.86998
-6.77897
-5.79617
-4.91875
-4.15342
-3.49687
-2.92798
-2.43983
-2.01893
-1.65926
-1.34959
-1.08382
-0.853244
-0.648381
-0.46548
-0.298754
-0.0206017
0.00185608
-19.98
-20.1939
-20.3879
-20.7019
-21.0267
-21.2272
-21.2627
-21.0878
-20.4546
-19.495
-18.2663
-17.403
-16.2173
-14.8265
-13.3673
-11.8963
-10.4605
-9.10037
-7.87291
-6.7805
-5.8
-4.92233
-4.15752
-3.49867
-2.92928
-2.43939
-2.01907
-1.66015
-1.35175
-1.08642
-0.856593
-0.655864
-0.481808
-0.322863
-0.191696
-0.0608017
-19.9124
-20.2214
-20.4381
-20.7344
-21.0173
-21.2098
-21.2472
-21.0754
-20.4374
-19.4773
-18.2716
-17.4016
-16.2139
-14.8251
-13.3688
-11.8956
-10.4568
-9.10044
-7.87907
-6.7879
-5.80518
-4.92769
-4.16399
-3.50623
-2.93652
-2.44597
-2.02356
-1.66302
-1.35342
-1.08699
-0.856666
-0.656015
-0.487034
-0.32871
-0.199799
-0.0641247
-19.9559
-20.2515
-20.4283
-20.7219
-21.0122
-21.2051
-21.2479
-21.0817
-20.432
-19.4611
-18.2753
-17.3982
-16.2051
-14.816
-13.3608
-11.8866
-10.4495
-9.09892
-7.88301
-6.79218
-5.80793
-4.93051
-4.16758
-3.50611
-2.93412
-2.44473
-2.0234
-1.66341
-1.35394
-1.08808
-0.859221
-0.658824
-0.494172
-0.334239
-0.206063
-0.066437
-20.0344
-20.2229
-20.4373
-20.7381
-21.0022
-21.196
-21.2563
-21.0952
-20.4266
-19.4546
-18.2761
-17.3922
-16.1955
-14.8067
-13.3523
-11.879
-10.4439
-9.09764
-7.8842
-6.79428
-5.80954
-4.93172
-4.16605
-3.50303
-2.9346
-2.44812
-2.02775
-1.66739
-1.3574
-1.09134
-0.862772
-0.66209
-0.500074
-0.339605
-0.210415
-0.0676312
-20.0311
-20.2343
-20.4604
-20.7346
-20.9826
-21.1986
-21.2732
-21.0999
-20.4256
-19.4463
-18.2717
-17.3867
-16.1899
-14.8015
-13.3467
-11.8731
-10.4382
-9.09441
-7.87874
-6.79083
-5.80537
-4.9282
-4.16307
-3.50031
-2.9323
-2.44647
-2.02669
-1.6666
-1.357
-1.09098
-0.862986
-0.662111
-0.500017
-0.339171
-0.210027
-0.0674835
-20.0538
-20.239
-20.4674
-20.7324
-20.9767
-21.1933
-21.2703
-21.0977
-20.4292
-19.4498
-18.2661
-17.3858
-16.191
-14.8021
-13.3449
-11.8708
-10.435
-9.08787
-7.87263
-6.7826
-5.79898
-4.92209
-4.16115
-3.50154
-2.93137
-2.44396
-2.02429
-1.66505
-1.35659
-1.09141
-0.864423
-0.663577
-0.499623
-0.338756
-0.210665
-0.0681444
-20.0593
-20.2523
-20.4599
-20.7387
-20.9831
-21.1793
-21.2496
-21.0875
-20.4343
-19.4543
-18.2644
-17.3915
-16.1985
-14.8037
-13.3418
-11.8707
-10.4336
-9.0827
-7.85999
-6.77152
-5.78784
-4.91133
-4.15075
-3.49513
-2.9285
-2.44153
-2.02218
-1.66294
-1.35505
-1.08989
-0.862079
-0.660109
-0.492148
-0.329357
-0.20227
-0.0657029
-20.0661
-20.2741
-20.4504
-20.7291
-20.9931
-21.1724
-21.2217
-21.0613
-20.4403
-19.4453
-18.2586
-17.393
-16.2031
-14.8024
-13.3366
-11.8702
-10.4361
-9.08026
-7.85251
-6.76246
-5.77869
-4.90371
-4.14229
-3.48887
-2.92404
-2.43716
-2.01889
-1.66102
-1.35407
-1.08911
-0.861256
-0.659853
-0.489126
-0.325768
-0.19715
-0.0652967
-20.0293
-20.2695
-20.4727
-20.735
-20.9849
-21.172
-21.2185
-21.0455
-20.4303
-19.4443
-18.2465
-17.3765
-16.1895
-14.7897
-13.3243
-11.8567
-10.4248
-9.07031
-7.84444
-6.75309
-5.77359
-4.89788
-4.13424
-3.48099
-2.91804
-2.43282
-2.01604
-1.65844
-1.35156
-1.08698
-0.858889
-0.658665
-0.485042
-0.31916
-0.195013
-0.0670039
-20.0739
-20.2724
-20.4307
-20.7118
-20.9992
-21.191
-21.2398
-21.0532
-20.4233
-19.4273
-18.2303
-17.3634
-16.1776
-14.7802
-13.3153
-11.8449
-10.4156
-9.07104
-7.84454
-6.75831
-5.77782
-4.90158
-4.13463
-3.48306
-2.9188
-2.43648
-2.01773
-1.66239
-1.3531
-1.09072
-0.858001
-0.659631
-0.477344
-0.292111
-0.0144182
-0.0135348
-20.0341
-20.3002
-20.4788
-20.7168
-21.0124
-21.2114
-21.269
-21.101
-20.4344
-19.4331
-18.2083
-17.3427
-16.1584
-14.7569
-13.2924
-11.8292
-10.4067
-9.06772
-7.84452
-6.7601
-5.77843
-4.90311
-4.13706
-3.48613
-2.92224
-2.44129
-2.0219
-1.6664
-1.3553
-1.09409
-0.8574
-0.661445
-0.47566
-0.299887
-0.000631709
0.0182377
-18.231
-17.5089
-16.6549
-15.5501
-14.2972
-13.0058
-11.7072
-10.4305
-9.16722
-8.0459
-7.06226
-6.13614
-5.27487
-4.51562
-3.85612
-3.28153
-2.76936
-2.32685
-1.93256
-1.59637
-1.29147
-1.03152
-0.807921
-0.58789
-18.16
-18.0968
-18.0494
-17.9089
-17.7363
-18.4704
-19.2736
-19.7375
-20.1123
-20.3994
-20.5107
-20.4348
-20.1141
-19.3973
-18.2143
-17.5179
-16.6595
-15.554
-14.3059
-13.0116
-11.7146
-10.4348
-9.19072
-8.04232
-7.05043
-6.14357
-5.28377
-4.51893
-3.85832
-3.28004
-2.7724
-2.32547
-1.93738
-1.5947
-1.29719
-1.02905
-0.796444
-0.582745
-0.402323
-0.268838
-0.0911829
-18.1236
-18.1188
-18.0756
-17.9555
-17.8214
-18.4812
-19.2886
-19.766
-20.1202
-20.3837
-20.4893
-20.4105
-20.077
-19.3695
-18.2022
-17.5198
-16.6526
-15.5517
-14.3033
-13.0132
-11.7133
-10.4388
-9.18197
-8.04418
-7.05059
-6.14129
-5.28363
-4.51877
-3.85626
-3.27885
-2.77031
-2.32504
-1.93599
-1.59558
-1.29591
-1.03071
-0.794655
-0.586545
-0.395617
-0.23518
-0.0984834
-18.1246
-18.1296
-18.0944
-17.9875
-17.8472
-18.527
-19.2947
-19.7387
-20.1205
-20.396
-20.471
-20.401
-20.0574
-19.3498
-18.1764
-17.5094
-16.6577
-15.5564
-14.3097
-13.0185
-11.7195
-10.4411
-9.17903
-8.04903
-7.0617
-6.14398
-5.28503
-4.52106
-3.86095
-3.28297
-2.77475
-2.3294
-1.93866
-1.59848
-1.29642
-1.03286
-0.792326
-0.587509
-0.390821
-0.226221
-0.0931189
-18.1313
-18.1384
-18.1075
-18.0074
-17.9006
-18.4881
-19.293
-19.7699
-20.142
-20.388
-20.4638
-20.4003
-20.0684
-19.3549
-18.1553
-17.5045
-16.6578
-15.5573
-14.3091
-13.0172
-11.7174
-10.4369
-9.17364
-8.05138
-7.06406
-6.14128
-5.27959
-4.5189
-3.86018
-3.28277
-2.77322
-2.32819
-1.93739
-1.59804
-1.29558
-1.03337
-0.790511
-0.585091
-0.388159
-0.221817
-0.0912027
-18.1382
-18.1457
-18.1144
-18.0088
-17.8643
-18.5337
-19.3191
-19.7937
-20.1462
-20.3897
-20.4692
-20.4048
-20.0698
-19.3565
-18.1419
-17.4984
-16.6562
-15.5552
-14.3076
-13.0151
-11.7168
-10.4339
-9.17313
-8.05423
-7.06672
-6.1411
-5.27893
-4.51883
-3.86172
-3.28569
-2.77565
-2.33109
-1.9399
-1.60116
-1.29822
-1.03613
-0.790818
-0.586622
-0.391133
-0.224478
-0.0939189
-18.1447
-18.1523
-18.1206
-18.0127
-17.8662
-18.5622
-19.3189
-19.7668
-20.1243
-20.3658
-20.4878
-20.418
-20.0694
-19.3479
-18.1387
-17.495
-16.6521
-15.5511
-14.3038
-13.0117
-11.7136
-10.4254
-9.17378
-8.04959
-7.05954
-6.13939
-5.27401
-4.51598
-3.85887
-3.28352
-2.77334
-2.32905
-1.9381
-1.59952
-1.29674
-1.03498
-0.789524
-0.584194
-0.389965
-0.222339
-0.0909882
-18.1506
-18.1585
-18.1273
-18.0224
-17.882
-18.5763
-19.3191
-19.7667
-20.129
-20.3645
-20.4783
-20.4161
-20.0754
-19.3426
-18.1382
-17.487
-16.6468
-15.5464
-14.3
-13.0085
-11.709
-10.4261
-9.1676
-8.04601
-7.05788
-6.13578
-5.27333
-4.51471
-3.85878
-3.28326
-2.77321
-2.32933
-1.93848
-1.60039
-1.29791
-1.03657
-0.791175
-0.587213
-0.394487
-0.228309
-0.0948489
-18.156
-18.1643
-18.1349
-18.0331
-17.8918
-18.5745
-19.3426
-19.7946
-20.1485
-20.3737
-20.4682
-20.4044
-20.0629
-19.3571
-18.1493
-17.4906
-16.6435
-15.5443
-14.2951
-13.0059
-11.7034
-10.4189
-9.17047
-8.03634
-7.04542
-6.13308
-5.2682
-4.51094
-3.8535
-3.27873
-2.77001
-2.327
-1.93606
-1.59842
-1.29592
-1.03526
-0.791721
-0.58756
-0.391119
-0.226436
-0.0947772
-18.1608
-18.1694
-18.142
-18.048
-17.9392
-18.5706
-19.3349
-19.7832
-20.1448
-20.387
-20.4525
-20.39
-20.0633
-19.3466
-18.1641
-17.4961
-16.638
-15.5389
-14.2895
-13.0006
-11.6979
-10.4169
-9.17279
-8.03078
-7.03846
-6.13066
-5.26872
-4.50989
-3.85109
-3.27634
-2.7693
-2.32685
-1.93661
-1.59965
-1.29711
-1.038
-0.795298
-0.594057
-0.394039
-0.229654
-0.0957689
-18.1654
-18.1717
-18.1433
-18.0513
-17.9457
-18.6038
-19.3338
-19.7462
-20.1205
-20.3788
-20.4741
-20.3965
-20.0542
-19.3454
-18.1752
-17.4913
-16.6268
-15.5246
-14.2743
-12.985
-11.6837
-10.4135
-9.16539
-8.02297
-7.02749
-6.12516
-5.27223
-4.50894
-3.84707
-3.27309
-2.7665
-2.32425
-1.93557
-1.59837
-1.29725
-1.03783
-0.799076
-0.597739
-0.395278
-0.237497
-0.101189
-18.1765
-18.1698
-18.1373
-18.0367
-17.9327
-18.5802
-19.3387
-19.7536
-20.1163
-20.3671
-20.4629
-20.3949
-20.0533
-19.3421
-18.1871
-17.4982
-16.6322
-15.5225
-14.2731
-12.9784
-11.6825
-10.4109
-9.17621
-8.01732
-7.02449
-6.13224
-5.27772
-4.5124
-3.85038
-3.27506
-2.77053
-2.32584
-1.93963
-1.59904
-1.30174
-1.03678
-0.803402
-0.609147
-0.392746
-0.264415
-0.102745
-18.2438
-18.1563
-18.1232
-18.0044
-17.8708
-18.6416
-19.3517
-19.7142
-20.1127
-20.38
-20.4698
-20.4098
-20.0706
-19.3496
-18.1826
-17.4884
-16.6219
-15.5112
-14.2605
-12.9671
-11.673
-10.4009
-9.17039
-8.01508
-7.02729
-6.13188
-5.27616
-4.51208
-3.85208
-3.2765
-2.77296
-2.32708
-1.94183
-1.59919
-1.30359
-1.03591
-0.805321
-0.61554
-0.398023
-0.264553
-0.0849632
-17.7842
-16.9833
-16.0807
-15.0443
-13.9178
-12.7556
-11.5767
-10.42
-9.29461
-8.24823
-7.28448
-6.39568
-5.57174
-4.82793
-4.16305
-3.57404
-3.0465
-2.58245
-2.16839
-1.80371
-1.47571
-1.18437
-0.927957
-0.686651
-18.1929
-18.1799
-18.165
-18.1598
-18.258
-18.6289
-19.0623
-19.3782
-19.6017
-19.7323
-19.7425
-19.6042
-19.2904
-18.659
-17.7561
-17.0025
-16.0886
-15.048
-13.9242
-12.7588
-11.5825
-10.4205
-9.30007
-8.24738
-7.28229
-6.39397
-5.57294
-4.82837
-4.16437
-3.57373
-3.0479
-2.58222
-2.16941
-1.80306
-1.47625
-1.18336
-0.916327
-0.672008
-0.471605
-0.30283
-0.119789
-18.1919
-18.1864
-18.1754
-18.1763
-18.2792
-18.6428
-19.0712
-19.3836
-19.6009
-19.7273
-19.7349
-19.5955
-19.2796
-18.6359
-17.7536
-17.0014
-16.081
-15.0436
-13.9203
-12.7577
-11.5799
-10.4202
-9.29671
-8.24515
-7.28063
-6.39312
-5.57066
-4.82791
-4.16151
-3.57287
-3.04471
-2.58165
-2.16617
-1.80269
-1.47261
-1.18158
-0.909664
-0.6707
-0.457226
-0.270571
-0.115204
-18.1965
-18.1944
-18.1878
-18.1937
-18.2987
-18.6569
-19.0798
-19.3873
-19.6001
-19.7245
-19.7287
-19.5882
-19.2707
-18.6267
-17.739
-17.0012
-16.0897
-15.0494
-13.9265
-12.7613
-11.5841
-10.4215
-9.29826
-8.24654
-7.28427
-6.39436
-5.57201
-4.82851
-4.16334
-3.57369
-3.046
-2.58188
-2.16657
-1.80201
-1.47238
-1.17861
-0.903931
-0.66632
-0.454281
-0.268806
-0.115867
-18.2031
-18.2023
-18.1981
-18.2068
-18.3133
-18.6663
-19.0879
-19.3952
-19.6023
-19.7239
-19.7248
-19.5846
-19.2672
-18.6196
-17.7298
-17.0033
-16.0909
-15.0502
-13.9246
-12.76
-11.5803
-10.4184
-9.29355
-8.2451
-7.2818
-6.39178
-5.56783
-4.82561
-4.16002
-3.57094
-3.04218
-2.57917
-2.16348
-1.80007
-1.46921
-1.17666
-0.901148
-0.663362
-0.449351
-0.262095
-0.11173
-18.2096
-18.2091
-18.2051
-18.2138
-18.3184
-18.6748
-19.0962
-19.4009
-19.6018
-19.7229
-19.725
-19.584
-19.2658
-18.6143
-17.725
-17.0023
-16.0935
-15.0516
-13.9266
-12.7609
-11.5819
-10.4187
-9.29529
-8.2473
-7.28436
-6.3931
-5.5693
-4.82652
-4.16137
-3.57204
-3.0435
-2.58083
-2.16528
-1.80186
-1.47112
-1.17706
-0.896736
-0.657791
-0.452946
-0.266696
-0.111612
-18.2155
-18.215
-18.2114
-18.22
-18.3256
-18.6841
-19.1024
-19.4027
-19.6005
-19.7206
-19.726
-19.5838
-19.2639
-18.612
-17.7232
-17.001
-16.091
-15.0495
-13.9232
-12.7582
-11.5777
-10.4145
-9.29055
-8.2447
-7.27843
-6.38956
-5.5645
-4.82274
-4.15757
-3.56876
-3.04029
-2.57802
-2.16279
-1.79971
-1.46892
-1.1758
-0.897001
-0.6571
-0.448133
-0.264464
-0.112709
-18.2211
-18.2207
-18.2175
-18.2275
-18.3334
-18.6918
-19.107
-19.4048
-19.6
-19.72
-19.7248
-19.5824
-19.2619
-18.6104
-17.719
-16.9953
-16.0873
-15.0449
-13.9196
-12.7541
-11.5745
-10.4117
-9.28868
-8.24082
-7.27721
-6.38803
-5.56468
-4.82268
-4.1586
-3.57021
-3.0421
-2.57988
-2.16475
-1.80192
-1.47161
-1.1781
-0.897636
-0.659336
-0.454884
-0.268413
-0.11219
-18.2259
-18.2261
-18.2236
-18.2343
-18.3417
-18.6977
-19.1114
-19.4083
-19.6016
-19.7201
-19.7216
-19.5792
-19.259
-18.6067
-17.7181
-16.9903
-16.0806
-15.0404
-13.9144
-12.7497
-11.5693
-10.4078
-9.28483
-8.23745
-7.26991
-6.38475
-5.56038
-4.81975
-4.1552
-3.568
-3.04024
-2.5785
-2.16328
-1.80105
-1.47053
-1.17825
-0.902826
-0.664825
-0.454897
-0.26593
-0.110547
-18.23
-18.2301
-18.2287
-18.242
-18.352
-18.7038
-19.1137
-19.4084
-19.6053
-19.7206
-19.7186
-19.5764
-19.2584
-18.6117
-17.72
-16.9831
-16.072
-15.0335
-13.9103
-12.7454
-11.5674
-10.4066
-9.28582
-8.23619
-7.26891
-6.38471
-5.56162
-4.82064
-4.15635
-3.56938
-3.04284
-2.58115
-2.16633
-1.80442
-1.4742
-1.18346
-0.910764
-0.677264
-0.458672
-0.268005
-0.113926
-18.233
-18.2325
-18.2304
-18.2443
-18.3563
-18.7085
-19.1133
-19.4034
-19.6038
-19.7193
-19.7197
-19.5773
-19.2607
-18.6124
-17.7188
-16.9763
-16.0614
-15.0219
-13.8984
-12.7347
-11.5583
-10.4005
-9.28095
-8.2297
-7.26431
-6.38088
-5.56042
-4.81989
-4.15461
-3.56858
-3.04227
-2.58137
-2.16661
-1.80542
-1.47515
-1.18751
-0.917511
-0.685353
-0.462425
-0.269857
-0.113017
-18.2367
-18.2326
-18.2283
-18.24
-18.3518
-18.7084
-19.1123
-19.4005
-19.6009
-19.7196
-19.7225
-19.5798
-19.2636
-18.611
-17.7278
-16.9832
-16.0656
-15.021
-13.8982
-12.732
-11.559
-10.3992
-9.28429
-8.23026
-7.26524
-6.38277
-5.56449
-4.82228
-4.15805
-3.57082
-3.04625
-2.58433
-2.17067
-1.80896
-1.47978
-1.19347
-0.9246
-0.695542
-0.46654
-0.299526
-0.129213
-18.2438
-18.2313
-18.2257
-18.2341
-18.3445
-18.71
-19.1113
-19.3953
-19.6028
-19.7234
-19.7262
-19.5842
-19.2665
-18.6145
-17.7043
-16.9599
-16.0492
-15.0093
-13.889
-12.7251
-11.5539
-10.396
-9.28275
-8.23003
-7.26628
-6.38413
-5.56515
-4.82284
-4.15876
-3.57156
-3.04736
-2.58507
-2.1721
-1.80915
-1.48189
-1.19387
-0.929061
-0.69818
-0.473245
-0.307858
-0.118465
-17.1557
-16.3742
-15.5495
-14.6202
-13.609
-12.5532
-11.4787
-10.4134
-9.37213
-8.38082
-7.45575
-6.59773
-5.79907
-5.06848
-4.40618
-3.81194
-3.27545
-2.79617
-2.36493
-1.9787
-1.62882
-1.31493
-1.0349
-0.77536
-18.2513
-18.2534
-18.2661
-18.3089
-18.4216
-18.63
-18.8742
-19.0769
-19.2058
-19.244
-19.1741
-18.9794
-18.65
-18.0676
-17.1399
-16.3917
-15.5552
-14.6208
-13.6106
-12.5545
-11.4815
-10.415
-9.37627
-8.38333
-7.45802
-6.5993
-5.80329
-5.07094
-4.41018
-3.81346
-3.27917
-2.79692
-2.36759
-1.97789
-1.63135
-1.3118
-1.0262
-0.750906
-0.536816
-0.354538
-0.133864
-18.2541
-18.2578
-18.2726
-18.3179
-18.4309
-18.6376
-18.8798
-19.0805
-19.207
-19.243
-19.1713
-18.9757
-18.6464
-18.0477
-17.1436
-16.394
-15.5497
-14.6183
-13.6076
-12.5533
-11.4784
-10.413
-9.37216
-8.38002
-7.45327
-6.5965
-5.79862
-5.06851
-4.40521
-3.81152
-3.274
-2.7961
-2.36223
-1.9784
-1.6257
-1.313
-1.02049
-0.762263
-0.518391
-0.306754
-0.118665
-18.2591
-18.2636
-18.2806
-18.3278
-18.4414
-18.6463
-18.8865
-19.0847
-19.2087
-19.2422
-19.1683
-18.9707
-18.6395
-18.0427
-17.1377
-16.393
-15.5542
-14.6229
-13.614
-12.5576
-11.4839
-10.4159
-9.37583
-8.38181
-7.45752
-6.59819
-5.80145
-5.06927
-4.40813
-3.81249
-3.27691
-2.79702
-2.36501
-1.979
-1.62792
-1.31299
-1.02175
-0.75926
-0.518923
-0.299053
-0.113524
-18.2649
-18.2699
-18.288
-18.3361
-18.4505
-18.6539
-18.8929
-19.0893
-19.2109
-19.2424
-19.1668
-18.968
-18.6354
-18.0373
-17.1337
-16.3943
-15.5548
-14.6236
-13.6122
-12.5557
-11.4795
-10.4119
-9.36935
-8.37714
-7.45181
-6.59337
-5.79447
-5.06416
-4.40196
-3.80836
-3.27147
-2.79369
-2.36043
-1.97637
-1.62405
-1.31022
-1.01777
-0.756659
-0.51507
-0.293623
-0.11066
-18.2703
-18.2757
-18.294
-18.3429
-18.4571
-18.6605
-18.8986
-19.0933
-19.2124
-19.2423
-19.1661
-18.9664
-18.6337
-18.0361
-17.1321
-16.3931
-15.5559
-14.624
-13.6142
-12.5566
-11.4814
-10.4127
-9.37092