/*--------------------------------*- C++ -*----------------------------------*\
  =========                 |
  \\      /  F ield         | OpenFOAM: The Open Source CFD Toolbox
   \\    /   O peration     | Website:  https://openfoam.org
    \\  /    A nd           | Version:  7
     \\/     M anipulation  |
\*---------------------------------------------------------------------------*/
FoamFile
{
    version     2.0;
    format      ascii;
    class       volVectorField;
    location    "400";
    object      U;
}
// * * * * * * * * * * * * * * * * * * * * * * * * * * * * * * * * * * * * * //

dimensions      [0 1 -1 0 0 0 0];

internalField   nonuniform List<vector> 
120313
(
(-3.03556 -0.0532792 -0.0429825)
(-2.94942 -0.0376162 -0.0718826)
(-2.84836 -0.0409419 -0.0958579)
(-2.68233 -0.0426916 -0.120877)
(-2.47543 -0.0418414 -0.141366)
(-2.23608 -0.0358772 -0.161944)
(-1.97454 -0.0376414 -0.18533)
(-1.70059 -0.0439903 -0.214519)
(-1.25985 -0.0469375 -0.200748)
(-1.01265 -0.039385 -0.181984)
(-0.655096 -0.0339656 -0.198917)
(-0.367919 -0.0281678 -0.1938)
(-0.0749533 -0.0238114 -0.203941)
(0.200864 -0.0202847 -0.182014)
(0.468803 -0.0227828 -0.159617)
(0.719574 -0.0230583 -0.145352)
(0.952739 -0.0234133 -0.130122)
(1.1675 -0.0225644 -0.116561)
(1.36409 -0.0225785 -0.104803)
(1.54465 -0.0191985 -0.0990741)
(1.71306 -0.0205795 -0.0939808)
(1.86882 -0.0148625 -0.0926563)
(2.03429 -0.0167361 -0.0784342)
(2.10517 -0.0099637 -0.0532584)
(-2.91525 -0.0277783 -0.0379758)
(-2.79613 -0.0201415 -0.079354)
(-2.69514 -0.0203472 -0.107869)
(-2.52174 -0.0203967 -0.138165)
(-2.31293 -0.0188486 -0.165179)
(-2.08775 -0.0131218 -0.195908)
(-1.74739 -0.0168948 -0.216166)
(-1.4465 -0.044492 -0.208005)
(-1.13402 -0.0307046 -0.211025)
(-0.830133 -0.0260776 -0.208901)
(-0.515083 -0.024122 -0.213283)
(-0.222437 -0.0182441 -0.218765)
(0.0630177 -0.0176279 -0.221608)
(0.337115 -0.0162507 -0.190427)
(0.593987 -0.016079 -0.163751)
(0.835122 -0.0153085 -0.155298)
(1.06076 -0.0149629 -0.141596)
(1.26647 -0.0141827 -0.128589)
(1.46208 -0.0136222 -0.115942)
(1.6327 -0.0114953 -0.105151)
(1.80472 -0.0103766 -0.101151)
(1.94309 -0.00856973 -0.0978578)
(2.10152 -0.00830405 -0.0843383)
(2.12555 -0.00487569 -0.0533341)
(-2.9215 -0.034242 -0.0389773)
(-2.80257 -0.0300057 -0.0832428)
(-2.69964 -0.0301879 -0.115761)
(-2.52187 -0.0304348 -0.147467)
(-2.30889 -0.0311297 -0.174275)
(-2.07692 -0.031371 -0.207472)
(-1.77223 -0.0307342 -0.234719)
(-1.43012 -0.0395003 -0.2219)
(-1.14781 -0.0350589 -0.21523)
(-0.820016 -0.0304788 -0.2209)
(-0.518468 -0.0296339 -0.222957)
(-0.22259 -0.0252 -0.230732)
(0.0604274 -0.0242437 -0.232435)
(0.335166 -0.0219196 -0.197179)
(0.589546 -0.0203129 -0.167991)
(0.831173 -0.0186579 -0.15997)
(1.05689 -0.0177443 -0.146227)
(1.26452 -0.0175899 -0.133528)
(1.4601 -0.0170206 -0.121076)
(1.63516 -0.0168928 -0.110753)
(1.80219 -0.0154205 -0.107535)
(1.95015 -0.0144893 -0.104522)
(2.09669 -0.0117669 -0.0873143)
(2.12074 -0.0115356 -0.066475)
(-2.92134 -0.0212749 -0.0414526)
(-2.80058 -0.0210289 -0.0861769)
(-2.6968 -0.0218736 -0.119986)
(-2.51825 -0.0228017 -0.152332)
(-2.30514 -0.0237939 -0.179512)
(-2.07366 -0.0248757 -0.212811)
(-1.76669 -0.0266705 -0.240388)
(-1.42601 -0.0277629 -0.225737)
(-1.14359 -0.0258708 -0.220389)
(-0.814665 -0.0239671 -0.22618)
(-0.51555 -0.0225131 -0.227802)
(-0.219638 -0.0207854 -0.236318)
(0.0626049 -0.0196418 -0.237563)
(0.336915 -0.0179303 -0.200543)
(0.588892 -0.016464 -0.16976)
(0.830594 -0.0155443 -0.161209)
(1.05626 -0.0150693 -0.147792)
(1.26479 -0.0149473 -0.13535)
(1.46038 -0.0145853 -0.123309)
(1.63726 -0.0140577 -0.112852)
(1.80297 -0.012737 -0.109536)
(1.95286 -0.0109703 -0.106928)
(2.09719 -0.0086908 -0.0889125)
(2.12042 -0.00645574 -0.069928)
(-2.91446 -0.0142068 -0.0419165)
(-2.79338 -0.0155896 -0.0870258)
(-2.68968 -0.0165658 -0.120583)
(-2.51146 -0.017727 -0.152998)
(-2.29851 -0.0183894 -0.18031)
(-2.06742 -0.0184271 -0.213838)
(-1.75823 -0.0188173 -0.241286)
(-1.42094 -0.0159046 -0.225145)
(-1.13641 -0.0161113 -0.221271)
(-0.808984 -0.0150065 -0.226737)
(-0.509689 -0.0136669 -0.22808)
(-0.214121 -0.0138055 -0.237509)
(0.0678405 -0.0130529 -0.237705)
(0.341091 -0.0130214 -0.200577)
(0.593641 -0.0129086 -0.17034)
(0.834549 -0.0133262 -0.161937)
(1.05987 -0.0136179 -0.148445)
(1.26809 -0.0137445 -0.135776)
(1.46338 -0.0134791 -0.123777)
(1.64016 -0.0127311 -0.113163)
(1.80553 -0.0116125 -0.110175)
(1.95571 -0.00943065 -0.107238)
(2.09974 -0.00781205 -0.0891626)
(2.12249 -0.00638459 -0.0690276)
(-2.90035 0.00305475 -0.0416962)
(-2.78095 -0.00237954 -0.0866503)
(-2.67805 -0.00434656 -0.118912)
(-2.50101 -0.00634047 -0.150706)
(-2.28831 -0.00753757 -0.177774)
(-2.05753 -0.00872156 -0.211108)
(-1.74629 -0.0113641 -0.237244)
(-1.41348 -0.00159613 -0.222976)
(-1.12466 -0.00417992 -0.21973)
(-0.802151 -0.00563559 -0.224195)
(-0.49951 -0.00414753 -0.226431)
(-0.205429 -0.00672735 -0.234904)
(0.0767275 -0.00609698 -0.23417)
(0.348948 -0.00690939 -0.198253)
(0.603605 -0.0072396 -0.170261)
(0.843678 -0.00835541 -0.161747)
(1.0685 -0.00913562 -0.14805)
(1.27541 -0.00953344 -0.135121)
(1.47002 -0.00953446 -0.122775)
(1.64462 -0.00878009 -0.112156)
(1.81014 -0.00786658 -0.109655)
(1.95896 -0.00524399 -0.10592)
(2.1041 -0.00368601 -0.0885292)
(2.12901 -7.56699e-05 -0.0699473)
(-2.8814 0.00537254 -0.0411372)
(-2.76224 -0.00485172 -0.0839573)
(-2.66174 -0.00715007 -0.113036)
(-2.48931 -0.00968787 -0.143321)
(-2.28113 -0.0135813 -0.17084)
(-2.05771 -0.0212486 -0.202248)
(-1.707 -0.0176355 -0.219868)
(-1.41961 0.0100316 -0.211407)
(-1.09945 -0.00154132 -0.217153)
(-0.801835 -0.00331285 -0.213761)
(-0.48574 -0.00251316 -0.219333)
(-0.195886 -0.00573805 -0.225493)
(0.0879854 -0.00568568 -0.224719)
(0.360126 -0.00621159 -0.192103)
(0.615161 -0.00641242 -0.16706)
(0.854919 -0.0076881 -0.157728)
(1.07922 -0.0083634 -0.144216)
(1.28415 -0.00928633 -0.131533)
(1.47793 -0.00907237 -0.119046)
(1.64815 -0.0101051 -0.108645)
(1.81685 -0.0091125 -0.105456)
(1.95756 -0.00792867 -0.101371)
(2.11277 -0.00399851 -0.0866951)
(2.13833 -0.00385252 -0.0553132)
(-2.9861 0.0334509 -0.0435366)
(-2.90405 0.0170678 -0.0771362)
(-2.80274 0.0209989 -0.10007)
(-2.63814 0.0223389 -0.124093)
(-2.43236 0.0206348 -0.144228)
(-2.19386 0.014092 -0.165036)
(-1.9339 0.016862 -0.188354)
(-1.65935 0.0241636 -0.218058)
(-1.22338 0.0278938 -0.201679)
(-0.97653 0.0230055 -0.183827)
(-0.624238 0.0215496 -0.201084)
(-0.33938 0.0191949 -0.197009)
(-0.0483054 0.0157461 -0.207182)
(0.225792 0.0130746 -0.184124)
(0.490647 0.0140871 -0.159751)
(0.738436 0.013501 -0.146589)
(0.969653 0.0131321 -0.132225)
(1.18282 0.0109576 -0.118625)
(1.37811 0.0110132 -0.107933)
(1.55881 0.00737535 -0.102326)
(1.72508 0.00977207 -0.0974228)
(1.88407 0.00347043 -0.0960143)
(2.04807 0.0128233 -0.0800842)
(2.11917 0.0106875 -0.0528727)
(-0.464869 0.0107057 0.469977)
(-0.865161 0.000901707 0.358627)
(-1.16314 -0.00364791 0.28718)
(-1.41071 -0.00708286 0.24949)
(-1.62438 -0.0101907 0.222855)
(-1.80503 -0.0128878 0.195722)
(-1.94814 -0.0145702 0.163525)
(-2.06307 -0.0157218 0.130953)
(-2.13889 -0.0145147 0.0927404)
(-2.20495 -0.00161937 0.0309107)
(-2.16031 0.0022675 -0.0397296)
(-2.03925 -0.00514879 -0.0912808)
(-1.86819 -0.00688342 -0.129426)
(-1.65802 -0.00755547 -0.159444)
(-1.41646 -0.00768167 -0.183207)
(-1.15087 -0.00898911 -0.201762)
(-0.867249 -0.00999678 -0.217954)
(-0.570539 -0.0119697 -0.230835)
(-0.265339 -0.015425 -0.242127)
(0.0369964 -0.0130993 -0.23842)
(0.330294 -0.0110544 -0.231414)
(0.614045 -0.00966583 -0.224735)
(0.879671 -0.00785475 -0.213273)
(1.13038 -0.0074749 -0.196284)
(1.36542 -0.00819078 -0.18094)
(1.58148 -0.00811611 -0.165133)
(1.78357 -0.00828266 -0.150901)
(1.97071 -0.00734266 -0.139677)
(2.14471 -0.00575338 -0.12989)
(2.30607 -0.00362135 -0.121807)
(2.4532 -0.000473915 -0.112668)
(2.59098 0.00128637 -0.103656)
(2.71822 0.000313121 -0.0922166)
(2.83586 0.00449304 -0.0852696)
(2.93 0.0143843 -0.0813667)
(3.04904 0.0345958 -0.0743911)
(-0.465044 0.0224862 0.466656)
(-0.858591 0.00161552 0.355328)
(-1.15651 -0.00708085 0.284115)
(-1.40512 -0.0138085 0.245856)
(-1.62055 -0.0200908 0.218484)
(-1.80432 -0.0257834 0.191002)
(-1.95536 -0.0304933 0.159061)
(-2.1013 -0.0335198 0.131062)
(-2.18863 -0.022119 0.0854757)
(-1.8367 -0.0136763 0.0487599)
(-1.59884 0.00598635 -0.0715585)
(-1.4577 -0.0083195 -0.152269)
(-1.25808 -0.0102767 -0.209664)
(-1.03787 -0.0115851 -0.253335)
(-0.7909 -0.0113313 -0.291732)
(-0.524896 -0.0154121 -0.324781)
(-0.243917 -0.0220748 -0.358496)
(0.0495121 -0.0284726 -0.364371)
(0.329499 -0.0303005 -0.360268)
(0.617211 -0.028081 -0.356764)
(0.888937 -0.0268067 -0.34471)
(1.15214 -0.0248151 -0.333835)
(1.40212 -0.0215717 -0.316434)
(1.63678 -0.0203269 -0.295247)
(1.85508 -0.0187502 -0.272951)
(2.05603 -0.0173942 -0.250953)
(2.24225 -0.0165044 -0.230663)
(2.41408 -0.0160526 -0.211499)
(2.57179 -0.013906 -0.194333)
(2.71857 -0.0126498 -0.179497)
(2.84353 -0.00690119 -0.165481)
(2.96559 -0.00675347 -0.156226)
(3.0361 -0.000933037 -0.130116)
(3.06138 0.0129994 -0.110197)
(2.95713 0.0147032 -0.109823)
(3.01628 0.0258789 -0.0911064)
(-0.439442 0.0216575 0.463225)
(-0.833846 0.000370403 0.354475)
(-1.13361 -0.00925797 0.282216)
(-1.38324 -0.0171947 0.242315)
(-1.59938 -0.0244234 0.213015)
(-1.78422 -0.0305726 0.183156)
(-1.93826 -0.0350334 0.147798)
(-2.09021 -0.0371958 0.113206)
(-2.17711 -0.0280463 0.0650136)
(-1.79319 -0.00381796 0.0454979)
(-1.43131 0.00922451 -0.0688462)
(-1.26642 -0.00101806 -0.168335)
(-1.0506 -0.00365902 -0.234714)
(-0.824276 -0.00486797 -0.283712)
(-0.574325 -0.0040164 -0.337266)
(-0.305372 -0.00819925 -0.374762)
(-0.0321339 -0.0186721 -0.390656)
(0.248599 -0.0228724 -0.396775)
(0.527884 -0.0213539 -0.395204)
(0.804716 -0.0205529 -0.388045)
(1.07046 -0.0178821 -0.3757)
(1.32608 -0.0153687 -0.362821)
(1.56721 -0.0140711 -0.344155)
(1.79299 -0.0138595 -0.320693)
(2.00416 -0.0129166 -0.297743)
(2.19819 -0.0121539 -0.274709)
(2.37688 -0.0114676 -0.253223)
(2.54317 -0.01117 -0.232454)
(2.6929 -0.0099385 -0.21356)
(2.83677 -0.00934917 -0.197432)
(2.94606 -0.00564719 -0.179306)
(3.06503 -0.00667948 -0.171932)
(3.07227 0.000841837 -0.134787)
(3.06026 0.00583464 -0.111991)
(2.95741 0.00655346 -0.121048)
(3.01178 0.0122544 -0.0950189)
(-0.418405 0.0265515 0.462951)
(-0.814652 0.00249782 0.354112)
(-1.11565 -0.00902926 0.280876)
(-1.36658 -0.0173591 0.23983)
(-1.58457 -0.0241814 0.209288)
(-1.77213 -0.0292021 0.178193)
(-1.93037 -0.031484 0.141495)
(-2.08967 -0.0312175 0.10704)
(-2.18389 -0.0242011 0.0614916)
(-1.78225 -0.0116787 0.0511043)
(-1.36986 -0.00192564 -0.0652194)
(-1.19009 -0.00660627 -0.174281)
(-0.964077 -0.00866512 -0.243236)
(-0.733356 -0.0102315 -0.294338)
(-0.480874 -0.0108047 -0.349894)
(-0.212792 -0.0135998 -0.39394)
(0.0592172 -0.0197276 -0.408825)
(0.332818 -0.0224978 -0.4115)
(0.612276 -0.0212779 -0.410609)
(0.883302 -0.0206228 -0.401967)
(1.14545 -0.0187304 -0.390178)
(1.39673 -0.0173318 -0.376508)
(1.63386 -0.0162764 -0.356614)
(1.85553 -0.0151951 -0.331432)
(2.06397 -0.01393 -0.307061)
(2.2552 -0.0130158 -0.283093)
(2.43188 -0.012439 -0.261258)
(2.59621 -0.0121382 -0.240357)
(2.74375 -0.0114006 -0.22103)
(2.88545 -0.0107911 -0.204143)
(2.98967 -0.00876066 -0.186829)
(3.10256 -0.00752987 -0.172222)
(3.08556 -0.00244224 -0.141558)
(3.06447 0.000149314 -0.119766)
(2.95877 0.00137207 -0.127261)
(3.01302 0.00438997 -0.0962852)
(-0.421262 0.0291009 0.460898)
(-0.810398 0.00419009 0.352388)
(-1.10919 -0.00709654 0.279641)
(-1.36046 -0.0142211 0.238497)
(-1.57993 -0.0192026 0.207694)
(-1.76953 -0.0221156 0.176472)
(-1.92945 -0.0224448 0.13944)
(-2.08866 -0.0209965 0.105148)
(-2.18243 -0.0166097 0.0583921)
(-1.77095 -0.0102868 0.0500117)
(-1.34185 -0.00692482 -0.0684482)
(-1.15606 -0.00866289 -0.179631)
(-0.925927 -0.00997097 -0.249638)
(-0.693426 -0.0112983 -0.301426)
(-0.440646 -0.0125021 -0.357379)
(-0.172953 -0.0144697 -0.402376)
(0.0969571 -0.0169105 -0.416712)
(0.368493 -0.0176004 -0.418994)
(0.646731 -0.0171093 -0.417595)
(0.915247 -0.016414 -0.40828)
(1.17538 -0.0154242 -0.3964)
(1.42442 -0.0146576 -0.382378)
(1.65933 -0.0138632 -0.361328)
(1.87921 -0.0130226 -0.334839)
(2.0865 -0.012343 -0.309962)
(2.27672 -0.0119245 -0.285895)
(2.45263 -0.0116646 -0.264194)
(2.61622 -0.0114603 -0.24351)
(2.76286 -0.010958 -0.224282)
(2.90345 -0.0102726 -0.207062)
(3.0057 -0.00886491 -0.190119)
(3.1156 -0.00735176 -0.173558)
(3.09238 -0.00469241 -0.146876)
(3.06736 -0.00250543 -0.123024)
(2.96042 -0.00105702 -0.131238)
(3.01445 0.000887575 -0.0983183)
(-0.421357 0.0263158 0.456422)
(-0.804546 0.00381101 0.350451)
(-1.10127 -0.00474744 0.27865)
(-1.35221 -0.00928045 0.237643)
(-1.57207 -0.0116818 0.206871)
(-1.76256 -0.012388 0.175803)
(-1.9234 -0.0115278 0.138859)
(-2.08284 -0.0106593 0.104159)
(-2.17448 -0.00970093 0.0572929)
(-1.75989 -0.0102994 0.0480886)
(-1.33093 -0.0109055 -0.0709397)
(-1.14545 -0.0100061 -0.181857)
(-0.915679 -0.0104953 -0.251797)
(-0.683435 -0.0114377 -0.303652)
(-0.430871 -0.0128241 -0.359746)
(-0.163365 -0.0135511 -0.404286)
(0.105751 -0.0125287 -0.418387)
(0.377225 -0.011693 -0.420687)
(0.654733 -0.0115795 -0.419044)
(0.922708 -0.0110274 -0.409606)
(1.18232 -0.0109376 -0.397662)
(1.43074 -0.0108571 -0.383446)
(1.66497 -0.0106479 -0.362147)
(1.88427 -0.0106171 -0.335565)
(2.09089 -0.0108173 -0.310577)
(2.2805 -0.0110737 -0.286502)
(2.45575 -0.0112805 -0.264728)
(2.61878 -0.0112682 -0.244035)
(2.76481 -0.0110518 -0.224666)
(2.90493 -0.0102716 -0.207433)
(3.0067 -0.00947647 -0.190434)
(3.11638 -0.00776901 -0.173849)
(3.09304 -0.00679393 -0.147099)
(3.06791 -0.00526393 -0.123023)
(2.96123 -0.00272786 -0.132002)
(3.01501 -0.000878684 -0.0990027)
(-0.409916 0.0193868 0.452766)
(-0.791078 0.00282648 0.349503)
(-1.08758 -0.00215622 0.27804)
(-1.33808 -0.00365066 0.237007)
(-1.55747 -0.00312909 0.206277)
(-1.74762 -0.00145105 0.175224)
(-1.90827 0.000534354 0.138149)
(-2.06761 0.000505323 0.103623)
(-2.15907 -0.000807626 0.0558878)
(-1.75086 -0.00588378 0.0462695)
(-1.33959 -0.0127664 -0.0720621)
(-1.16044 -0.00881046 -0.180025)
(-0.934998 -0.00875359 -0.249233)
(-0.704711 -0.00953954 -0.300655)
(-0.45239 -0.0116283 -0.357093)
(-0.184339 -0.0113052 -0.399804)
(0.0858151 -0.0067627 -0.413964)
(0.359162 -0.00424882 -0.416917)
(0.6366 -0.00481517 -0.415325)
(0.906231 -0.0044628 -0.40637)
(1.16671 -0.00541719 -0.39445)
(1.41624 -0.00601742 -0.38022)
(1.65137 -0.00621489 -0.359323)
(1.87134 -0.00658229 -0.333702)
(2.07786 -0.00755588 -0.309028)
(2.26737 -0.00848573 -0.285063)
(2.44215 -0.00924739 -0.263135)
(2.60472 -0.00951383 -0.242255)
(2.75023 -0.00974994 -0.222516)
(2.89016 -0.00909368 -0.205543)
(2.99262 -0.009137 -0.187954)
(3.10443 -0.00696012 -0.173173)
(3.08739 -0.00799855 -0.143252)
(3.06598 -0.00663928 -0.119991)
(2.96105 -0.00354757 -0.12934)
(3.01463 -0.00189821 -0.0974615)
(-0.392124 0.0135596 0.451712)
(-0.777442 0.00373057 0.349156)
(-1.07435 0.000509601 0.277623)
(-1.32348 0.0012564 0.23683)
(-1.54083 0.00441115 0.206376)
(-1.72848 0.00862701 0.175398)
(-1.88667 0.0126068 0.138526)
(-2.045 0.0139151 0.104356)
(-2.13626 0.0104911 0.0579194)
(-1.7481 -0.00897962 0.0416819)
(-1.38888 -0.0191921 -0.0751163)
(-1.22433 -0.00997009 -0.175342)
(-1.00866 -0.00922608 -0.242619)
(-0.782685 -0.0103559 -0.292702)
(-0.532098 -0.0136859 -0.347966)
(-0.262508 -0.0114023 -0.383167)
(0.00893137 -0.00230421 -0.398085)
(0.288638 0.00132799 -0.405008)
(0.565719 0.00060813 -0.402216)
(0.840528 0.000487536 -0.394865)
(1.10388 -0.00140582 -0.383074)
(1.35707 -0.003015 -0.369353)
(1.59552 -0.00379451 -0.349167)
(1.81879 -0.00406688 -0.325173)
(2.02715 -0.00526318 -0.301731)
(2.2186 -0.00626754 -0.278812)
(2.39437 -0.00727318 -0.257304)
(2.55769 -0.0074887 -0.236641)
(2.70385 -0.00838098 -0.21704)
(2.84442 -0.0078952 -0.200778)
(2.95034 -0.0098997 -0.181962)
(3.06569 -0.00584152 -0.173001)
(3.07161 -0.0100324 -0.13607)
(3.059 -0.0104888 -0.109507)
(2.95739 -0.00602904 -0.120594)
(3.01135 -0.00417169 -0.0926359)
(-0.40153 0.0190584 0.450527)
(-0.783122 0.0052038 0.347689)
(-1.07622 0.00156926 0.27763)
(-1.32256 0.00350832 0.238176)
(-1.53734 0.00831261 0.208922)
(-1.72219 0.0143401 0.179094)
(-1.8771 0.0204712 0.144222)
(-2.03354 0.0252062 0.113682)
(-2.13242 0.0232502 0.0677614)
(-1.79136 0.00393009 0.0484116)
(-1.54648 -0.008988 -0.0737401)
(-1.40507 0.00266664 -0.157396)
(-1.20584 0.00327063 -0.218037)
(-0.98588 0.00248791 -0.263141)
(-0.738634 0.000551346 -0.302374)
(-0.472987 0.00343487 -0.333555)
(-0.193395 0.0091965 -0.365263)
(0.0974791 0.0141708 -0.370159)
(0.375978 0.0161912 -0.365175)
(0.660901 0.014354 -0.361961)
(0.930213 0.0127362 -0.350295)
(1.19119 0.010785 -0.339254)
(1.43824 0.00786304 -0.321664)
(1.67 0.00683089 -0.29972)
(1.88495 0.00534502 -0.277369)
(2.08268 0.00422101 -0.255498)
(2.26462 0.00291624 -0.234882)
(2.43269 0.00230427 -0.215475)
(2.58535 -1.48713e-05 -0.197423)
(2.72771 -0.000437195 -0.181903)
(2.84765 -0.00531572 -0.166623)
(2.96451 -0.00208079 -0.155725)
(3.02687 -0.00486989 -0.129384)
(3.04775 -0.0136273 -0.103419)
(2.95211 -0.00990457 -0.116713)
(3.00709 -0.0098466 -0.0906963)
(-0.425522 0.0142493 0.444669)
(-0.79545 0.000998358 0.345674)
(-1.08327 -0.000524986 0.278591)
(-1.32732 0.0025867 0.241334)
(-1.54016 0.00766552 0.214462)
(-1.72176 0.013566 0.187565)
(-1.87011 0.0198339 0.156717)
(-2.01207 0.0247111 0.131859)
(-2.09693 0.0197738 0.0891891)
(-1.82641 -0.0019735 0.0395969)
(-1.71199 -0.0110354 -0.0739705)
(-1.5827 0.000857774 -0.136991)
(-1.39551 0.00135199 -0.189829)
(-1.17761 0.00133283 -0.230789)
(-0.930702 0.000612916 -0.264501)
(-0.663467 0.00229953 -0.290668)
(-0.381083 0.00592991 -0.310447)
(-0.0900871 0.0105457 -0.319268)
(0.20026 0.01573 -0.324102)
(0.487158 0.0144795 -0.321048)
(0.763927 0.013595 -0.311691)
(1.03081 0.0129047 -0.301897)
(1.27958 0.010887 -0.284019)
(1.51522 0.00949358 -0.264114)
(1.73359 0.00738399 -0.244148)
(1.9349 0.00611287 -0.223853)
(2.1203 0.0051181 -0.204923)
(2.29098 0.00439555 -0.18756)
(2.44737 0.00175903 -0.171974)
(2.59187 -9.63393e-06 -0.157659)
(2.72434 -0.00508738 -0.143686)
(2.84345 -0.00509227 -0.134699)
(2.95707 -0.00639798 -0.119833)
(3.03236 -0.0173669 -0.106912)
(2.95311 -0.0136143 -0.116208)
(3.01112 -0.0165092 -0.0917897)
(-0.42821 0.00399985 0.439184)
(-0.788964 -0.00656053 0.345739)
(-1.07667 -0.00340793 0.279764)
(-1.32253 0.000655174 0.243127)
(-1.53758 0.00475937 0.217094)
(-1.72145 0.00843281 0.191597)
(-1.87082 0.0110623 0.163414)
(-2.01157 0.0101666 0.141419)
(-2.13139 -0.00799136 0.0925853)
(-2.22337 -0.00116126 0.0316065)
(-2.18397 0.00468013 -0.0389129)
(-2.07025 0.0128632 -0.0906055)
(-1.89986 0.0132767 -0.129685)
(-1.68979 0.0130375 -0.160442)
(-1.44791 0.0120725 -0.184563)
(-1.18216 0.0117572 -0.203206)
(-0.898025 0.011536 -0.218581)
(-0.601083 0.012508 -0.22903)
(-0.297093 0.0152889 -0.239833)
(0.00654401 0.0133322 -0.24102)
(0.300128 0.00973495 -0.233031)
(0.582259 0.00736775 -0.226393)
(0.847931 0.00584082 -0.214449)
(1.09946 0.00503067 -0.197558)
(1.33215 0.00296915 -0.181109)
(1.54844 0.00157572 -0.164639)
(1.74858 0.000742557 -0.15048)
(1.93305 -0.000180851 -0.138553)
(2.10333 -0.00203566 -0.128101)
(2.26157 -0.00509359 -0.116809)
(2.40748 -0.00850317 -0.105599)
(2.54102 -0.0114062 -0.0956355)
(2.66369 -0.0133171 -0.0867499)
(2.77794 -0.0179493 -0.0803254)
(2.88759 -0.0119592 -0.0753477)
(3.00606 -0.0193879 -0.0837882)
(-0.372346 -0.0256168 0.441019)
(-0.745993 -0.00889806 0.352425)
(-1.04328 -0.00255006 0.282369)
(-1.29306 0.000522285 0.243096)
(-1.50966 0.0027873 0.214598)
(-1.69432 0.00466789 0.185417)
(-1.8429 0.00553535 0.151349)
(-1.95735 0.00399815 0.119197)
(-2.03609 -0.0116428 0.101746)
(-2.10279 -0.00285413 0.018039)
(-2.05991 0.00291973 -0.0519344)
(-1.94062 0.00574192 -0.106042)
(-1.76889 0.00667085 -0.146459)
(-1.55723 0.00744003 -0.177297)
(-1.31419 0.00821461 -0.20028)
(-1.047 0.00919143 -0.217909)
(-0.762983 0.00994713 -0.232384)
(-0.467693 0.0113093 -0.242118)
(-0.166055 0.0137016 -0.249966)
(0.131292 0.0149903 -0.248532)
(0.423004 0.0157858 -0.236975)
(0.702997 0.0156519 -0.227462)
(0.967558 0.0141279 -0.214024)
(1.21823 0.01192 -0.199315)
(1.451 0.00931601 -0.184706)
(1.66766 0.00733655 -0.171517)
(1.8671 0.00555868 -0.159959)
(2.05074 0.00396142 -0.150026)
(2.21916 0.00183157 -0.139207)
(2.37385 -0.00025837 -0.127404)
(2.51521 -0.0013748 -0.1157)
(2.64524 -0.00227218 -0.107076)
(2.76352 -0.00273347 -0.0978387)
(2.87619 -0.00532344 -0.0956099)
(2.96843 -0.00673589 -0.089144)
(3.07005 -0.0109308 -0.0955888)
(0.2089 -0.010493 -0.0902828)
(0.277774 -0.0102102 -0.256081)
(0.463679 -0.00686359 -0.355366)
(0.666042 -0.00442652 -0.433253)
(0.889653 -0.00356772 -0.496223)
(1.12863 -0.00241598 -0.545406)
(1.37377 -0.00172811 -0.579334)
(1.61696 -0.00180593 -0.602378)
(1.85424 -0.00233087 -0.613216)
(2.08552 -0.00263354 -0.610398)
(2.30718 -0.00221767 -0.59549)
(2.51758 -0.00225366 -0.571305)
(2.71556 -0.00202094 -0.544246)
(2.89864 -0.00204235 -0.511917)
(3.07131 -0.00226352 -0.478966)
(3.22971 -0.00272822 -0.444439)
(3.37794 -0.00289287 -0.412354)
(3.51235 -0.00327188 -0.381132)
(3.63688 -0.00329717 -0.353407)
(3.74922 -0.00350906 -0.326594)
(3.85338 -0.00305595 -0.3035)
(3.94729 -0.00289969 -0.280789)
(4.03163 0.000271373 -0.262974)
(4.11631 0.00166912 -0.243918)
(-0.243401 0.0149162 0.76511)
(-0.395975 0.0065869 0.57906)
(-0.505164 0.00344617 0.471738)
(-0.596535 0.000583402 0.410234)
(-0.666165 -0.00267718 0.358766)
(-0.706789 -0.00687215 0.300297)
(-0.714365 -0.0122946 0.231926)
(-0.685285 -0.0159835 0.158717)
(-0.434464 -0.0189847 0.0726479)
(0.0437804 -0.00519825 -0.0612272)
(0.177394 0.01108 -0.242322)
(0.357835 0.00235779 -0.339465)
(0.56144 0.00159676 -0.415882)
(0.783547 0.00188388 -0.478198)
(1.02176 0.00391887 -0.527702)
(1.26787 0.00456035 -0.563142)
(1.51518 0.00300512 -0.586129)
(1.75673 -0.000456097 -0.596881)
(1.99333 -0.00298421 -0.595492)
(2.22001 -0.00277762 -0.581627)
(2.43588 -0.00292821 -0.558131)
(2.63909 -0.00233155 -0.53205)
(2.82709 -0.00204806 -0.501652)
(3.00284 -0.00203899 -0.469806)
(3.16486 -0.00279941 -0.43691)
(3.31387 -0.00320225 -0.404748)
(3.45117 -0.00423299 -0.374299)
(3.57632 -0.00471323 -0.346091)
(3.69194 -0.00525193 -0.320294)
(3.79561 -0.00461222 -0.296622)
(3.89296 -0.00395948 -0.27561)
(3.97326 -0.00101249 -0.254874)
(4.07037 -0.00387569 -0.239489)
(4.12465 -0.000945691 -0.216982)
(4.03125 0.00369253 -0.212097)
(4.08159 0.00520498 -0.195869)
(-0.236633 0.0309398 0.764469)
(-0.385895 0.0131934 0.577676)
(-0.495125 0.00734342 0.468691)
(-0.585366 0.00214562 0.404982)
(-0.65349 -0.00360565 0.351194)
(-0.695625 -0.0101943 0.291357)
(-0.714898 -0.0178683 0.223872)
(-0.719288 -0.0254561 0.158657)
(-0.521027 -0.0289453 0.0870441)
(0.0448463 -0.0102518 -0.0624845)
(0.26616 0.00551694 -0.249951)
(0.466839 0.00214896 -0.347973)
(0.683334 0.00180636 -0.423974)
(0.90874 0.00223261 -0.485836)
(1.14612 0.00425012 -0.53564)
(1.38946 0.00364874 -0.571604)
(1.63314 -0.000636421 -0.594237)
(1.87064 -0.00523947 -0.602024)
(2.10151 -0.00791559 -0.595896)
(2.32478 -0.00830989 -0.581608)
(2.53614 -0.00803418 -0.557426)
(2.73484 -0.00709854 -0.530994)
(2.92035 -0.00631223 -0.502364)
(3.09144 -0.00598381 -0.471154)
(3.2512 -0.00577097 -0.439915)
(3.39623 -0.00557489 -0.408426)
(3.5312 -0.0055752 -0.378769)
(3.65223 -0.00581153 -0.350071)
(3.764 -0.00519762 -0.324717)
(3.86251 -0.00507366 -0.300297)
(3.95019 -0.00203489 -0.280075)
(4.02252 -0.00216745 -0.257284)
(4.07856 0.00434242 -0.241962)
(4.12975 -0.0010527 -0.218315)
(4.17209 0.00920039 -0.223379)
(4.35486 0.00169883 -0.234792)
(-0.220751 0.0369879 0.75992)
(-0.367513 0.0161131 0.577781)
(-0.476644 0.00817093 0.466893)
(-0.564996 0.00208853 0.399744)
(-0.630516 -0.00378056 0.342729)
(-0.671789 -0.0101402 0.280217)
(-0.695498 -0.0172033 0.210639)
(-0.713065 -0.0232083 0.145671)
(-0.529707 -0.0189781 0.0851413)
(0.105084 -0.00346031 -0.0705967)
(0.394723 0.00715466 -0.262916)
(0.622909 0.00537352 -0.362958)
(0.855204 0.00373253 -0.441357)
(1.08821 0.00298238 -0.505018)
(1.32811 0.00388376 -0.557617)
(1.56907 0.00254362 -0.595585)
(1.80568 -0.00300911 -0.615799)
(2.03777 -0.00705524 -0.62211)
(2.26419 -0.00823909 -0.615134)
(2.4807 -0.00911473 -0.598628)
(2.6857 -0.00834861 -0.574833)
(2.87787 -0.00744542 -0.548139)
(3.05629 -0.00702513 -0.518073)
(3.22106 -0.00687789 -0.485351)
(3.37421 -0.00640711 -0.453808)
(3.51326 -0.00608708 -0.421844)
(3.6408 -0.00574119 -0.391457)
(3.75665 -0.00576254 -0.361327)
(3.86083 -0.00497126 -0.334834)
(3.95435 -0.00518005 -0.308849)
(4.02827 -0.00251778 -0.287779)
(4.09164 -0.00320683 -0.26221)
(4.11081 0.00189772 -0.246239)
(4.14709 0.00216042 -0.221678)
(4.17558 0.00734057 -0.233053)
(4.39518 0.00639974 -0.242209)
(-0.205207 0.0407562 0.757126)
(-0.351382 0.017051 0.577274)
(-0.459393 0.00735254 0.464495)
(-0.546023 0.00105621 0.395553)
(-0.609946 -0.004347 0.336946)
(-0.6508 -0.00982533 0.272878)
(-0.676229 -0.0156319 0.201834)
(-0.697765 -0.0195503 0.137574)
(-0.515464 -0.013906 0.0840599)
(0.143447 -0.00443378 -0.0724384)
(0.470276 0.00230986 -0.269002)
(0.719734 0.00163439 -0.371801)
(0.963399 -0.000181628 -0.452462)
(1.20203 -0.00172044 -0.51718)
(1.44372 -0.0021574 -0.570321)
(1.68372 -0.00319972 -0.610242)
(1.91592 -0.00640542 -0.631411)
(2.14335 -0.00922989 -0.636103)
(2.36592 -0.010202 -0.628001)
(2.57712 -0.0108916 -0.60973)
(2.77736 -0.0103564 -0.585834)
(2.96441 -0.00989049 -0.558531)
(3.13817 -0.00937423 -0.52748)
(3.29773 -0.0086798 -0.4932)
(3.44863 -0.00796293 -0.460651)
(3.58403 -0.00754974 -0.427836)
(3.70986 -0.00723183 -0.397248)
(3.8224 -0.00727561 -0.366888)
(3.92347 -0.0066923 -0.34026)
(4.01315 -0.00692016 -0.313651)
(4.07916 -0.00504645 -0.293005)
(4.13438 -0.00527793 -0.264868)
(4.13418 -0.000858328 -0.251256)
(4.16078 0.00062296 -0.224438)
(4.18632 0.00434859 -0.239429)
(4.41563 0.00409646 -0.245563)
(-0.203782 0.040044 0.752491)
(-0.343639 0.0161255 0.573653)
(-0.448854 0.00604013 0.462088)
(-0.533908 -0.000247535 0.392905)
(-0.596698 -0.00472138 0.333937)
(-0.637648 -0.00848286 0.269694)
(-0.664214 -0.0120896 0.198173)
(-0.686782 -0.0136283 0.133838)
(-0.501123 -0.0079172 0.081413)
(0.170527 -0.00309112 -0.0767478)
(0.512227 -0.000869438 -0.275234)
(0.770906 -0.00129655 -0.378861)
(1.01982 -0.00230021 -0.460285)
(1.26061 -0.00347831 -0.52545)
(1.50202 -0.00447983 -0.578463)
(1.74024 -0.00577753 -0.618528)
(1.96947 -0.00752395 -0.639535)
(2.19379 -0.00880399 -0.64355)
(2.41368 -0.00943669 -0.634467)
(2.62166 -0.00975701 -0.615361)
(2.8191 -0.00957987 -0.591275)
(3.00295 -0.00946124 -0.563501)
(3.17447 -0.00915881 -0.531457)
(3.33228 -0.00879494 -0.495968)
(3.48184 -0.00856775 -0.462873)
(3.61559 -0.00846873 -0.42988)
(3.73992 -0.0083237 -0.39936)
(3.8509 -0.00831073 -0.369132)
(3.95005 -0.00795384 -0.342633)
(4.0378 -0.00781579 -0.315774)
(4.10022 -0.00673497 -0.295435)
(4.15161 -0.00624368 -0.266201)
(4.14491 -0.00377416 -0.253518)
(4.16735 -0.0025009 -0.22636)
(4.1919 -0.000164093 -0.24215)
(4.42304 -0.000136804 -0.248054)
(-0.203602 0.0351489 0.745987)
(-0.338226 0.0128642 0.570237)
(-0.441488 0.00350549 0.460376)
(-0.525143 -0.00199414 0.391062)
(-0.586667 -0.00506883 0.332344)
(-0.627399 -0.00673056 0.268495)
(-0.654324 -0.00754431 0.196572)
(-0.676865 -0.0068153 0.131795)
(-0.489297 -0.00266363 0.0786097)
(0.183488 -0.00195172 -0.0800152)
(0.52477 -0.00320905 -0.278542)
(0.783324 -0.0032985 -0.381916)
(1.03197 -0.00332335 -0.46315)
(1.27233 -0.0038681 -0.52825)
(1.51319 -0.00532404 -0.581243)
(1.75072 -0.00695443 -0.62125)
(1.97908 -0.00744687 -0.641928)
(2.2025 -0.00751527 -0.645622)
(2.42168 -0.00781049 -0.636232)
(2.62871 -0.0078947 -0.61695)
(2.82544 -0.00816116 -0.592756)
(3.00842 -0.008516 -0.564766)
(3.17915 -0.00885977 -0.532433)
(3.33619 -0.00926804 -0.496735)
(3.4849 -0.00952264 -0.463456)
(3.61787 -0.00973168 -0.430361)
(3.74136 -0.00988571 -0.39968)
(3.85166 -0.00993027 -0.369372)
(3.94999 -0.0099151 -0.342711)
(4.03717 -0.0094374 -0.315814)
(4.09896 -0.00911864 -0.295415)
(4.15013 -0.00801198 -0.266249)
(4.14304 -0.00708843 -0.25361)
(4.16599 -0.00621445 -0.226614)
(4.19054 -0.00476822 -0.242381)
(4.42197 -0.00445356 -0.248847)
(-0.198113 0.0273502 0.740614)
(-0.331997 0.00830198 0.568642)
(-0.435033 0.000201396 0.459355)
(-0.517989 -0.00410768 0.389951)
(-0.578612 -0.0059323 0.331381)
(-0.61866 -0.00553292 0.267723)
(-0.644996 -0.00309481 0.195686)
(-0.666808 -8.75222e-05 0.130393)
(-0.482498 0.00211836 0.0764998)
(0.174672 0.000554976 -0.0797544)
(0.501803 -0.00410595 -0.276713)
(0.751757 -0.00376594 -0.379356)
(0.995993 -0.00310628 -0.460194)
(1.23432 -0.00346624 -0.525176)
(1.47569 -0.00577141 -0.578743)
(1.71462 -0.00772175 -0.618512)
(1.94489 -0.00670992 -0.638381)
(2.17059 -0.00543314 -0.642659)
(2.39097 -0.00546444 -0.633689)
(2.59989 -0.00532166 -0.614785)
(2.79807 -0.00604935 -0.590614)
(2.98263 -0.00675001 -0.562731)
(3.154 -0.00740638 -0.530634)
(3.31123 -0.0082509 -0.495588)
(3.45973 -0.00917486 -0.462406)
(3.59278 -0.00991667 -0.429318)
(3.71594 -0.0105502 -0.398317)
(3.8262 -0.0107277 -0.367775)
(3.92441 -0.011111 -0.340626)
(4.01202 -0.0104463 -0.313845)
(4.07535 -0.0109119 -0.293011)
(4.12907 -0.00904124 -0.2648)
(4.1268 -0.00966505 -0.251261)
(4.15493 -0.00923945 -0.224571)
(4.18091 -0.00862036 -0.239504)
(4.41174 -0.00810463 -0.246568)
(-0.191739 0.0196033 0.737968)
(-0.32958 0.00503236 0.567878)
(-0.432878 -0.00309451 0.458591)
(-0.515623 -0.00669115 0.389842)
(-0.575972 -0.00728857 0.331576)
(-0.615063 -0.00513735 0.268123)
(-0.640022 -0.000218237 0.196531)
(-0.660824 0.00536516 0.131125)
(-0.485526 0.00706253 0.0767396)
(0.139011 -0.000315334 -0.0772549)
(0.432332 -0.00731017 -0.270171)
(0.663459 -0.00573722 -0.371018)
(0.8986 -0.00503516 -0.451163)
(1.13305 -0.00609424 -0.515771)
(1.37443 -0.00966923 -0.569719)
(1.6154 -0.0109139 -0.606947)
(1.84994 -0.00726938 -0.626089)
(2.08026 -0.00486783 -0.632367)
(2.30462 -0.00442369 -0.623966)
(2.51833 -0.00397123 -0.606417)
(2.72041 -0.00492664 -0.582532)
(2.90937 -0.00585205 -0.555404)
(3.0843 -0.00655479 -0.523849)
(3.24559 -0.00729497 -0.490024)