/*--------------------------------*- C++ -*----------------------------------*\
  =========                 |
  \\      /  F ield         | OpenFOAM: The Open Source CFD Toolbox
   \\    /   O peration     | Website:  https://openfoam.org
    \\  /    A nd           | Version:  7
     \\/     M anipulation  |
\*---------------------------------------------------------------------------*/
FoamFile
{
    version     2.0;
    format      ascii;
    class       volVectorField;
    location    "63";
    object      ddt0(hU);
}
// * * * * * * * * * * * * * * * * * * * * * * * * * * * * * * * * * * * * * //

dimensions      [0 2 -2 0 0 0 0];

internalField   nonuniform List<vector> 
400
(
(-6.67371e-11 4.35463e-11 0)
(1.90359e-10 1.12648e-10 0)
(2.00617e-10 2.92541e-10 0)
(2.16783e-10 2.71432e-10 0)
(1.5193e-10 -3.29493e-11 0)
(-1.90249e-09 6.52082e-11 0)
(2.24348e-10 2.28875e-11 0)
(2.24072e-09 -1.98375e-09 0)
(-1.41511e-09 3.72878e-10 0)
(4.08786e-10 2.04644e-10 0)
(4.80087e-10 2.81807e-11 0)
(6.13509e-10 -3.69061e-11 0)
(5.57047e-10 -5.28214e-11 0)
(3.57555e-10 3.32911e-11 0)
(2.41856e-10 1.52092e-10 0)
(1.80132e-10 2.62293e-10 0)
(4.15221e-11 2.12724e-10 0)
(-1.80981e-11 1.38238e-10 0)
(-2.03045e-10 -3.78235e-11 0)
(-4.91578e-11 -2.00412e-10 0)
(-4.83332e-12 2.85141e-11 0)
(2.12234e-10 -1.74099e-11 0)
(1.70026e-10 5.47234e-11 0)
(9.37328e-11 1.03386e-10 0)
(-2.3506e-10 -3.13488e-10 0)
(2.08706e-09 2.93123e-10 0)
(3.72801e-10 -6.11589e-10 0)
(-4.22971e-09 -1.19665e-09 0)
(1.46098e-09 6.96466e-10 0)
(1.27313e-11 3.42328e-10 0)
(8.96433e-11 2.70219e-10 0)
(3.02224e-10 1.45385e-10 0)
(3.45365e-10 -3.94608e-11 0)
(3.33633e-10 -7.97728e-11 0)
(3.24163e-10 2.91618e-12 0)
(2.63019e-10 1.15879e-10 0)
(8.07559e-11 1.43173e-10 0)
(-1.76764e-11 1.2591e-10 0)
(-1.96371e-10 1.0068e-10 0)
(-7.06062e-11 -3.43604e-11 0)
(3.6765e-11 6.53772e-11 0)
(6.45095e-11 1.9203e-10 0)
(1.1487e-10 2.34914e-10 0)
(1.87187e-11 4.27983e-10 0)
(-7.03394e-11 2.70667e-10 0)
(6.2238e-11 5.8507e-10 0)
(-1.17119e-09 -4.05665e-10 0)
(1.73447e-09 1.17274e-09 0)
(4.92864e-10 -1.03726e-10 0)
(-5.74069e-11 -3.18354e-10 0)
(2.83316e-10 -1.65835e-10 0)
(1.99057e-10 -1.35941e-10 0)
(1.87718e-10 -7.93567e-11 0)
(2.86222e-10 1.17948e-10 0)
(3.38593e-10 3.19564e-10 0)
(2.37366e-10 5.01838e-10 0)
(-5.77363e-12 4.43857e-10 0)
(-1.24954e-10 3.74166e-10 0)
(-3.51808e-10 1.27414e-10 0)
(-1.12217e-10 -2.89148e-10 0)
(1.96887e-12 5.15432e-11 0)
(8.40806e-11 2.60653e-10 0)
(1.90845e-10 4.16697e-10 0)
(-1.47067e-11 5.12177e-10 0)
(2.11614e-11 6.30973e-10 0)
(-2.44148e-10 3.192e-10 0)
(8.32225e-11 6.61642e-10 0)
(4.7264e-10 5.72474e-10 0)
(-3.87033e-10 -3.60216e-10 0)
(7.92793e-12 -2.67393e-10 0)
(2.31819e-10 -2.99267e-10 0)
(1.36662e-10 -3.30713e-10 0)
(2.19721e-10 -1.31009e-10 0)
(3.7334e-10 1.98377e-10 0)
(4.03224e-10 4.28215e-10 0)
(2.72988e-10 6.47631e-10 0)
(4.58989e-11 6.07612e-10 0)
(-6.7031e-11 5.46214e-10 0)
(-2.60663e-10 2.38281e-10 0)
(-1.54087e-10 -3.40806e-10 0)
(-5.51309e-11 -3.7852e-12 0)
(-3.77749e-12 1.50546e-10 0)
(1.29298e-10 3.703e-10 0)
(-3.4859e-11 3.51853e-10 0)
(1.65286e-10 6.42586e-10 0)
(-9.93294e-11 2.12419e-10 0)
(4.10949e-10 6.40538e-10 0)
(-5.45603e-11 -8.3799e-11 0)
(-2.54409e-10 -2.73788e-10 0)
(2.1054e-10 -1.54915e-10 0)
(7.42438e-11 -3.30699e-10 0)
(4.50938e-11 -3.19937e-10 0)
(2.50119e-10 -5.09254e-11 0)
(3.49811e-10 2.60061e-10 0)
(3.19804e-10 4.28519e-10 0)
(1.89325e-10 6.48214e-10 0)
(2.0618e-11 6.47288e-10 0)
(-2.84295e-11 5.98123e-10 0)
(-1.83386e-10 2.78002e-10 0)
(-1.02366e-10 -3.57985e-10 0)
(-3.94237e-11 4.21737e-11 0)
(7.64153e-11 3.65176e-10 0)
(1.44326e-10 7.25479e-10 0)
(2.78824e-11 7.86757e-10 0)
(1.75454e-11 9.36966e-10 0)
(-1.10821e-10 6.50985e-10 0)
(9.77109e-11 5.02087e-10 0)
(-4.09637e-10 -1.58469e-10 0)
(3.09322e-11 -1.34685e-10 0)
(1.57031e-10 -3.47244e-10 0)
(-3.21458e-11 -5.22691e-10 0)
(2.82346e-10 -2.97822e-10 0)
(5.34355e-10 2.33489e-11 0)
(4.69245e-10 3.63141e-10 0)
(3.2471e-10 5.88121e-10 0)
(1.5525e-10 8.86388e-10 0)
(-4.9742e-11 8.37257e-10 0)
(-1.29563e-10 7.29385e-10 0)
(-2.7783e-10 2.12687e-10 0)
(-1.27734e-10 -6.00651e-10 0)
(-2.06106e-11 6.58416e-11 0)
(9.81038e-11 3.64326e-10 0)
(6.967e-11 5.91858e-10 0)
(1.08201e-10 8.58341e-10 0)
(-1.81543e-11 8.09525e-10 0)
(1.0941e-10 8.72661e-10 0)
(-4.61197e-11 4.93948e-10 0)
(-9.30108e-11 2.00008e-10 0)
(1.54169e-10 1.3466e-10 0)
(-1.404e-10 -2.74806e-10 0)
(5.67699e-12 -2.46398e-10 0)
(3.09943e-10 -3.75295e-11 0)
(2.9831e-10 3.38155e-11 0)
(1.82442e-10 2.56306e-10 0)
(1.03856e-10 5.19217e-10 0)
(9.62056e-11 8.55125e-10 0)
(8.42158e-11 8.15396e-10 0)
(6.92047e-11 7.19351e-10 0)
(1.34794e-12 2.96447e-10 0)
(3.70626e-11 -5.30098e-10 0)
(6.22735e-12 1.30658e-10 0)
(1.00623e-10 4.56602e-10 0)
(3.72527e-11 6.23754e-10 0)
(1.10871e-10 9.55818e-10 0)
(-3.3041e-11 8.93072e-10 0)
(6.33966e-11 8.68701e-10 0)
(-1.82598e-10 4.37707e-10 0)
(2.66635e-11 2.55962e-10 0)
(-3.64673e-11 -9.24718e-11 0)
(-7.53162e-11 -3.17599e-10 0)
(3.06988e-10 -1.85532e-10 0)
(2.64584e-10 -1.15179e-10 0)
(1.32245e-10 -4.05752e-11 0)
(1.74964e-10 3.03658e-10 0)
(1.0911e-10 6.88651e-10 0)
(-4.05152e-13 1.10445e-09 0)
(-3.01143e-11 9.76866e-10 0)
(-1.97544e-11 7.97603e-10 0)
(-1.17575e-10 2.9177e-10 0)
(-1.00291e-11 -6.3679e-10 0)
(2.727e-11 1.98997e-10 0)
(4.03477e-11 4.40138e-10 0)
(6.82078e-12 7.11369e-10 0)
(4.9704e-12 8.8217e-10 0)
(-2.93705e-11 9.65024e-10 0)
(-1.96135e-11 7.86245e-10 0)
(-6.73466e-11 5.32754e-10 0)
(7.09115e-11 3.21994e-10 0)
(-1.23384e-11 -5.65761e-11 0)
(1.08007e-10 -1.15627e-10 0)
(2.00012e-10 -1.97842e-10 0)
(-1.08453e-11 -2.72253e-10 0)
(-4.49607e-11 -7.56035e-11 0)
(8.10585e-11 2.90338e-10 0)
(5.19563e-11 6.26782e-10 0)
(-4.42468e-11 1.11143e-09 0)
(-4.02825e-11 1.07429e-09 0)
(2.48625e-11 9.10887e-10 0)
(2.47451e-11 4.10088e-10 0)
(2.97066e-11 -5.84486e-10 0)
(-1.67776e-11 1.87174e-10 0)
(-5.37235e-11 3.92843e-10 0)
(7.45945e-12 7.56122e-10 0)
(-5.48935e-11 9.31277e-10 0)
(-2.14376e-11 1.06004e-09 0)
(-7.14935e-11 8.58022e-10 0)
(5.47826e-11 6.20345e-10 0)
(1.12992e-11 3.0219e-10 0)
(4.79458e-11 -6.15902e-11 0)
(9.87381e-11 -1.83345e-10 0)
(-6.13524e-11 -3.33819e-10 0)
(-3.93968e-11 -3.23428e-10 0)
(1.90439e-11 -1.55384e-11 0)
(-1.05658e-11 3.75373e-10 0)
(5.98397e-11 6.74851e-10 0)
(1.03988e-10 1.15265e-09 0)
(6.31961e-12 1.14267e-09 0)
(-6.14774e-11 9.90853e-10 0)
(-1.06296e-10 4.1526e-10 0)
(-8.03636e-11 -6.3175e-10 0)
(-1.94667e-11 7.51279e-11 0)
(-7.46465e-11 4.29616e-10 0)
(1.52108e-11 7.26401e-10 0)
(-5.75483e-11 1.04397e-09 0)
(-2.84616e-12 1.10065e-09 0)
(-8.20386e-11 1.00463e-09 0)
(8.0905e-11 6.7886e-10 0)
(-1.76706e-11 3.28862e-10 0)
(5.64514e-11 8.28853e-12 0)
(1.03546e-10 -2.79768e-10 0)
(-1.21349e-10 -3.25776e-10 0)
(-4.08816e-11 -2.36571e-10 0)
(-3.87932e-12 -4.18895e-11 0)
(-1.23979e-10 3.68241e-10 0)
(-2.77836e-11 7.20311e-10 0)
(1.008e-10 1.12673e-09 0)
(3.74729e-11 1.08195e-09 0)
(-5.38089e-11 9.73735e-10 0)
(-2.56403e-11 4.11591e-10 0)
(-4.8357e-11 -6.37508e-10 0)
(4.86119e-11 4.42067e-11 0)
(1.10342e-12 4.24784e-10 0)
(-5.18178e-12 7.06775e-10 0)
(-2.83922e-11 1.04596e-09 0)
(2.42936e-11 1.0412e-09 0)
(-1.64164e-11 9.93704e-10 0)
(2.71274e-11 6.63869e-10 0)
(3.83615e-11 2.85896e-10 0)
(-6.38592e-11 8.45925e-11 0)
(4.56861e-11 -3.15229e-10 0)
(-4.18676e-11 -3.46359e-10 0)
(-1.76989e-10 -1.75533e-10 0)
(-1.2331e-10 -3.59479e-11 0)
(-3.4935e-11 3.34444e-10 0)
(1.97625e-11 6.61532e-10 0)
(3.78581e-11 1.00532e-09 0)
(2.14503e-11 9.74078e-10 0)
(-1.23563e-11 9.19465e-10 0)
(-3.80361e-11 4.03811e-10 0)
(-9.21965e-11 -6.09288e-10 0)
(4.17968e-11 1.21592e-10 0)
(6.16598e-11 3.67895e-10 0)
(-4.18994e-11 7.21327e-10 0)
(3.12102e-11 8.58302e-10 0)
(-1.23536e-11 9.81312e-10 0)
(7.54188e-11 8.04775e-10 0)
(-9.05411e-11 6.17567e-10 0)
(1.28681e-10 1.08944e-10 0)
(-1.05206e-10 -2.59186e-11 0)
(-1.17404e-10 -3.13955e-10 0)
(9.54396e-11 -4.96042e-10 0)
(-1.39182e-10 -2.93903e-10 0)
(-2.90327e-10 3.92298e-11 0)
(-1.8764e-10 4.34996e-10 0)
(-1.49054e-10 6.82185e-10 0)
(-8.54101e-11 9.91776e-10 0)
(8.14717e-11 9.37285e-10 0)
(1.3072e-10 8.41045e-10 0)
(1.62275e-10 2.81554e-10 0)
(3.04458e-11 -6.67066e-10 0)
(-8.90045e-12 1.88417e-10 0)
(3.46317e-11 3.54965e-10 0)
(-8.01599e-11 6.13591e-10 0)
(6.68528e-11 6.24723e-10 0)
(-5.77878e-11 8.8667e-10 0)
(1.03578e-10 6.02432e-10 0)
(-1.90843e-10 6.3894e-10 0)
(-1.12935e-11 2.15097e-10 0)
(1.57819e-11 -4.77336e-11 0)
(-3.34466e-10 -1.73233e-11 0)
(-6.81615e-11 -2.66467e-10 0)
(7.35259e-11 -3.18963e-10 0)
(-7.40013e-11 -3.57693e-11 0)
(-1.90321e-10 3.29209e-10 0)
(-2.49959e-10 5.54289e-10 0)
(-1.82732e-10 8.66574e-10 0)
(-1.5411e-11 8.24559e-10 0)
(2.43292e-11 7.14312e-10 0)
(7.55669e-11 2.88673e-10 0)
(5.6221e-11 -5.28553e-10 0)
(-6.18866e-11 1.93833e-10 0)
(-1.05734e-10 4.12182e-10 0)
(-1.41031e-10 5.86874e-10 0)
(-6.26161e-12 7.72532e-10 0)
(4.13957e-11 8.15715e-10 0)
(1.32756e-10 6.23989e-10 0)
(1.48042e-10 4.1581e-10 0)
(-1.93654e-10 2.9265e-10 0)
(2.47718e-10 -3.02313e-10 0)
(-1.26781e-10 -2.52059e-10 0)
(-4.2823e-10 -2.15631e-10 0)
(-2.22056e-10 -2.91556e-10 0)
(-1.98541e-10 -1.10707e-10 0)
(-3.38759e-10 2.8741e-10 0)
(-3.91547e-10 6.31481e-10 0)
(-2.42641e-10 9.85553e-10 0)
(3.22201e-11 8.53778e-10 0)
(1.7448e-10 6.68023e-10 0)
(3.69279e-10 1.94371e-10 0)
(2.01084e-10 -5.84874e-10 0)
(-6.28547e-11 3.0002e-11 0)
(-1.74403e-10 1.81681e-10 0)
(-1.10383e-10 2.85789e-10 0)
(-1.05969e-10 5.82084e-10 0)
(9.02659e-11 3.61442e-10 0)
(-1.59883e-10 6.58039e-10 0)
(3.16419e-10 1.92757e-11 0)
(-3.39236e-10 3.14236e-10 0)
(-1.94271e-10 -5.52078e-12 0)
(1.00159e-10 -2.50508e-10 0)
(-2.96493e-10 -9.75754e-11 0)
(-2.9617e-10 -7.43798e-11 0)
(-1.59846e-10 -7.18088e-11 0)
(-1.83981e-10 1.36604e-10 0)
(-2.64971e-10 4.13932e-10 0)
(-2.65736e-10 7.21504e-10 0)
(-1.12924e-10 6.65399e-10 0)
(1.91086e-11 5.37404e-10 0)
(2.23256e-10 2.30425e-10 0)
(1.17852e-10 -3.68248e-10 0)
(2.40356e-11 -1.40999e-11 0)
(-2.62399e-10 2.36218e-10 0)
(-1.64864e-10 5.16049e-10 0)
(-1.6641e-10 7.49544e-10 0)
(1.98873e-10 4.07573e-10 0)
(-1.75339e-10 7.37763e-10 0)
(4.40413e-10 -4.37278e-10 0)
(4.03515e-10 7.03006e-11 0)
(-2.11586e-10 7.94975e-11 0)
(5.77941e-12 -2.69272e-10 0)
(-1.64786e-10 -2.30362e-10 0)
(-4.0979e-10 -1.07171e-10 0)
(-3.96181e-10 -4.27902e-11 0)
(-3.1836e-10 1.34742e-10 0)
(-3.08254e-10 3.63463e-10 0)
(-2.97664e-10 6.57285e-10 0)
(-1.37004e-10 6.40451e-10 0)
(5.89598e-12 5.36196e-10 0)
(2.32869e-10 1.9632e-10 0)
(1.56085e-10 -3.64897e-10 0)
(8.3789e-11 -4.24132e-11 0)
(-1.80391e-10 1.66935e-10 0)
(-1.00017e-10 3.71445e-10 0)
(-2.17678e-10 3.41468e-10 0)
(1.70731e-11 3.76181e-10 0)
(-3.3444e-10 1.67008e-10 0)
(-2.29596e-10 -9.43622e-10 0)
(1.00427e-09 -2.58887e-10 0)
(-3.22743e-10 8.33784e-11 0)
(-1.46913e-10 -2.11946e-10 0)
(-1.41061e-10 -2.94838e-10 0)
(-3.85456e-10 -1.46856e-10 0)
(-4.48478e-10 1.17964e-11 0)
(-3.50041e-10 1.48171e-10 0)
(-2.723e-10 2.60896e-10 0)
(-2.00959e-10 4.6354e-10 0)
(-3.73708e-11 4.77986e-10 0)
(5.24654e-11 4.28074e-10 0)
(3.06581e-10 1.53591e-10 0)
(1.2763e-10 -2.84087e-10 0)
(5.50436e-11 -1.05277e-10 0)
(-1.17964e-10 8.67472e-11 0)
(-2.16637e-10 3.15879e-12 0)
(-4.84359e-11 -2.60795e-10 0)
(-3.74894e-11 3.55168e-10 0)
(-7.64969e-10 -4.87727e-10 0)
(-7.76291e-10 2.61187e-09 0)
(6.75533e-09 -3.32457e-10 0)
(1.25203e-10 -3.67556e-10 0)
(-4.17042e-10 2.94452e-13 0)
(-1.86943e-10 -1.10817e-10 0)
(-2.73049e-10 -5.53457e-11 0)
(-4.11328e-10 2.294e-11 0)
(-4.22957e-10 2.03136e-11 0)
(-3.23635e-10 -4.98924e-12 0)
(-1.97457e-10 7.1055e-11 0)
(-5.62534e-11 1.61968e-10 0)
(-8.33201e-12 2.09968e-10 0)
(1.75262e-10 1.83869e-10 0)
(7.70824e-11 -3.36591e-12 0)
(3.11013e-11 -1.91335e-11 0)
(8.14753e-12 2.06075e-10 0)
(-2.274e-10 2.00355e-10 0)
(5.47567e-11 7.16244e-11 0)
(-2.11508e-10 4.42199e-10 0)
(1.3449e-09 -2.06056e-10 0)
(4.95298e-10 3.18292e-09 0)
(-7.54066e-09 -2.35593e-10 0)
(3.68575e-10 -6.96479e-10 0)
(1.5432e-10 -2.05376e-10 0)
(-2.27105e-10 -2.14942e-10 0)
(-2.35016e-10 -1.49938e-10 0)
(-3.94492e-10 -2.37726e-11 0)
(-4.47172e-10 9.35156e-11 0)
(-3.09715e-10 1.64251e-10 0)
(-1.18253e-10 2.46509e-10 0)
(3.41109e-11 2.1929e-10 0)
(4.3144e-11 1.80835e-10 0)
(1.9218e-10 7.91675e-12 0)
(1.64268e-11 -1.8384e-10 0)
)
;

boundaryField
{
    sides
    {
        type            calculated;
        value           nonuniform List<vector> 
40
(
(3.11013e-11 0 0)
(8.14753e-12 0 0)
(-2.274e-10 0 0)
(5.47567e-11 0 0)
(-2.11508e-10 0 0)
(1.3449e-09 0 0)
(4.95298e-10 0 0)
(-7.54066e-09 0 0)
(3.68575e-10 0 0)
(1.5432e-10 0 0)
(-2.27105e-10 0 0)
(-2.35016e-10 0 0)
(-3.94492e-10 0 0)
(-4.47172e-10 0 0)
(-3.09715e-10 0 0)
(-1.18253e-10 0 0)
(3.41109e-11 0 0)
(4.3144e-11 0 0)
(1.9218e-10 0 0)
(1.64268e-11 0 0)
(-6.67371e-11 0 0)
(1.90359e-10 0 0)
(2.00617e-10 0 0)
(2.16783e-10 0 0)
(1.5193e-10 0 0)
(-1.90249e-09 0 0)
(2.24348e-10 0 0)
(2.24072e-09 0 0)
(-1.41511e-09 0 0)
(4.08786e-10 0 0)
(4.80087e-10 0 0)
(6.13509e-10 0 0)
(5.57047e-10 0 0)
(3.57555e-10 0 0)
(2.41856e-10 0 0)
(1.80132e-10 0 0)
(4.15221e-11 0 0)
(-1.80981e-11 0 0)
(-2.03045e-10 0 0)
(-4.91578e-11 0 0)
)
;
    }
    inlet
    {
        type            calculated;
        value           uniform (0 0 0);
    }
    outlet
    {
        type            calculated;
        value           nonuniform List<vector> 
20
(
(-4.91578e-11 -2.00412e-10 0)
(-7.06062e-11 -3.43604e-11 0)
(-1.12217e-10 -2.89148e-10 0)
(-1.54087e-10 -3.40806e-10 0)
(-1.02366e-10 -3.57985e-10 0)
(-1.27734e-10 -6.00651e-10 0)
(3.70626e-11 -5.30098e-10 0)
(-1.00291e-11 -6.3679e-10 0)
(2.97066e-11 -5.84486e-10 0)
(-8.03636e-11 -6.3175e-10 0)
(-4.8357e-11 -6.37508e-10 0)
(-9.21965e-11 -6.09288e-10 0)
(3.04458e-11 -6.67066e-10 0)
(5.6221e-11 -5.28553e-10 0)
(2.01084e-10 -5.84874e-10 0)
(1.17852e-10 -3.68248e-10 0)
(1.56085e-10 -3.64897e-10 0)
(1.2763e-10 -2.84087e-10 0)
(7.70824e-11 -3.36591e-12 0)
(1.64268e-11 -1.8384e-10 0)
)
;
    }
    frontAndBack
    {
        type            empty;
    }
}


// ************************************************************************* //
