/*--------------------------------*- C++ -*----------------------------------*\
  =========                 |
  \\      /  F ield         | OpenFOAM: The Open Source CFD Toolbox
   \\    /   O peration     | Website:  https://openfoam.org
    \\  /    A nd           | Version:  7
     \\/     M anipulation  |
\*---------------------------------------------------------------------------*/
FoamFile
{
    version     2.0;
    format      ascii;
    class       volVectorField;
    location    "63";
    object      hU;
}
// * * * * * * * * * * * * * * * * * * * * * * * * * * * * * * * * * * * * * //

dimensions      [0 2 -1 0 0 0 0];

internalField   nonuniform List<vector> 
400
(
(0.001 -8.70584e-09 0)
(0.000999999 -2.37378e-08 0)
(0.001 -3.60103e-08 0)
(0.001 -4.68049e-08 0)
(0.00100001 -5.70919e-08 0)
(0.00100001 -6.77149e-08 0)
(0.00100002 -7.83636e-08 0)
(0.00100003 -8.94542e-08 0)
(0.00100004 -1.0003e-07 0)
(0.00100006 -1.1195e-07 0)
(0.00100007 -1.22611e-07 0)
(0.0010001 -1.36051e-07 0)
(0.00100011 -1.46363e-07 0)
(0.00100015 -1.63192e-07 0)
(0.00100017 -1.72066e-07 0)
(0.00100024 -1.963e-07 0)
(0.00100026 -2.00932e-07 0)
(0.00100038 -2.43225e-07 0)
(0.00100038 -2.39469e-07 0)
(0.00100061 -3.31984e-07 0)
(0.001 4.0139e-09 0)
(0.001 1.21375e-08 0)
(0.00100001 2.02863e-08 0)
(0.00100001 2.80181e-08 0)
(0.00100002 3.51964e-08 0)
(0.00100002 4.16706e-08 0)
(0.00100003 4.76766e-08 0)
(0.00100004 5.30386e-08 0)
(0.00100005 5.84719e-08 0)
(0.00100007 6.23233e-08 0)
(0.00100008 6.69662e-08 0)
(0.0010001 6.85749e-08 0)
(0.00100012 7.26964e-08 0)
(0.00100016 6.9908e-08 0)
(0.00100018 7.40854e-08 0)
(0.00100023 6.17437e-08 0)
(0.00100026 6.71742e-08 0)
(0.00100035 3.1738e-08 0)
(0.00100037 3.97256e-08 0)
(0.00100051 -5.47143e-08 0)
(0.001 -3.9171e-09 0)
(0.000999999 -1.29307e-08 0)
(0.001 -2.30047e-08 0)
(0.001 -3.36883e-08 0)
(0.001 -4.43435e-08 0)
(0.00100001 -5.51985e-08 0)
(0.00100002 -6.59524e-08 0)
(0.00100003 -7.76047e-08 0)
(0.00100004 -8.90994e-08 0)
(0.00100005 -1.02635e-07 0)
(0.00100006 -1.15206e-07 0)
(0.00100009 -1.32232e-07 0)
(0.0010001 -1.46225e-07 0)
(0.00100014 -1.69728e-07 0)
(0.00100016 -1.84885e-07 0)
(0.00100021 -2.21038e-07 0)
(0.00100023 -2.35839e-07 0)
(0.00100031 -2.9786e-07 0)
(0.00100033 -3.06764e-07 0)
(0.00100046 -4.22506e-07 0)
(0.001 -8.6008e-11 0)
(0.001 1.11502e-10 0)
(0.00100001 7.34486e-10 0)
(0.00100001 1.33795e-09 0)
(0.00100001 1.8861e-09 0)
(0.00100002 1.64808e-09 0)
(0.00100003 1.19678e-09 0)
(0.00100004 -7.01159e-10 0)
(0.00100004 -2.71375e-09 0)
(0.00100006 -7.24054e-09 0)
(0.00100007 -1.11965e-08 0)
(0.00100009 -2.02764e-08 0)
(0.00100011 -2.68069e-08 0)
(0.00100013 -4.38612e-08 0)
(0.00100016 -5.31957e-08 0)
(0.00100019 -8.48164e-08 0)
(0.00100022 -9.56644e-08 0)
(0.00100028 -1.55009e-07 0)
(0.0010003 -1.61683e-07 0)
(0.00100039 -2.76321e-07 0)
(0.001 -2.8347e-09 0)
(0.001 -9.08149e-09 0)
(0.001 -1.61458e-08 0)
(0.001 -2.42732e-08 0)
(0.00100001 -3.30684e-08 0)
(0.00100001 -4.29357e-08 0)
(0.00100002 -5.31205e-08 0)
(0.00100002 -6.48605e-08 0)
(0.00100003 -7.67236e-08 0)
(0.00100004 -9.13502e-08 0)
(0.00100005 -1.05545e-07 0)
(0.00100007 -1.25155e-07 0)
(0.00100009 -1.42319e-07 0)
(0.00100011 -1.7047e-07 0)
(0.00100013 -1.90835e-07 0)
(0.00100016 -2.34127e-07 0)
(0.00100018 -2.55947e-07 0)
(0.00100024 -3.26883e-07 0)
(0.00100025 -3.42295e-07 0)
(0.00100033 -4.6492e-07 0)
(0.001 -2.47093e-09 0)
(0.001 -7.36297e-09 0)
(0.001 -1.20894e-08 0)
(0.00100001 -1.69898e-08 0)
(0.00100001 -2.19805e-08 0)
(0.00100001 -2.77345e-08 0)
(0.00100002 -3.37952e-08 0)
(0.00100002 -4.14378e-08 0)
(0.00100003 -4.93578e-08 0)
(0.00100004 -6.03432e-08 0)
(0.00100005 -7.11804e-08 0)
(0.00100006 -8.78609e-08 0)
(0.00100008 -1.02578e-07 0)
(0.0010001 -1.28818e-07 0)
(0.00100011 -1.47824e-07 0)
(0.00100014 -1.90071e-07 0)
(0.00100016 -2.11298e-07 0)
(0.0010002 -2.8104e-07 0)
(0.00100021 -2.95644e-07 0)
(0.00100027 -4.15677e-07 0)
(0.001 -2.79813e-09 0)
(0.001 -8.68284e-09 0)
(0.001 -1.49878e-08 0)
(0.001 -2.21211e-08 0)
(0.00100001 -3.0029e-08 0)
(0.00100001 -3.92112e-08 0)
(0.00100001 -4.91422e-08 0)
(0.00100002 -6.09234e-08 0)
(0.00100002 -7.32482e-08 0)
(0.00100003 -8.88497e-08 0)
(0.00100004 -1.04421e-07 0)
(0.00100005 -1.26053e-07 0)
(0.00100006 -1.4578e-07 0)
(0.00100007 -1.77249e-07 0)
(0.00100009 -2.01316e-07 0)
(0.00100011 -2.48936e-07 0)
(0.00100012 -2.74936e-07 0)
(0.00100015 -3.50013e-07 0)
(0.00100016 -3.68304e-07 0)
(0.00100021 -4.9292e-07 0)
(0.001 -3.08975e-09 0)
(0.001 -9.55691e-09 0)
(0.001 -1.63857e-08 0)
(0.001 -2.39086e-08 0)
(0.001 -3.19959e-08 0)
(0.00100001 -4.11215e-08 0)
(0.00100001 -5.0757e-08 0)
(0.00100001 -6.2084e-08 0)
(0.00100002 -7.3913e-08 0)
(0.00100002 -8.8997e-08 0)
(0.00100003 -1.04163e-07 0)
(0.00100004 -1.25523e-07 0)
(0.00100004 -1.45192e-07 0)
(0.00100005 -1.76717e-07 0)
(0.00100006 -2.01128e-07 0)
(0.00100008 -2.48983e-07 0)
(0.00100009 -2.75552e-07 0)
(0.00100011 -3.50408e-07 0)
(0.00100012 -3.68895e-07 0)
(0.00100015 -4.91639e-07 0)
(0.001 -3.26381e-09 0)
(0.001 -1.0061e-08 0)
(0.001 -1.71731e-08 0)
(0.001 -2.49879e-08 0)
(0.001 -3.3364e-08 0)
(0.001 -4.28953e-08 0)
(0.00100001 -5.30686e-08 0)
(0.00100001 -6.51578e-08 0)
(0.00100001 -7.79352e-08 0)
(0.00100001 -9.41654e-08 0)
(0.00100002 -1.10642e-07 0)
(0.00100002 -1.3349e-07 0)
(0.00100003 -1.54692e-07 0)
(0.00100003 -1.87965e-07 0)
(0.00100004 -2.1406e-07 0)
(0.00100005 -2.63863e-07 0)
(0.00100005 -2.92015e-07 0)
(0.00100007 -3.68888e-07 0)
(0.00100007 -3.88447e-07 0)
(0.00100009 -5.13326e-07 0)
(0.001 -3.34667e-09 0)
(0.001 -1.03014e-08 0)
(0.001 -1.75595e-08 0)
(0.001 -2.55452e-08 0)
(0.001 -3.4146e-08 0)
(0.001 -4.3972e-08 0)
(0.001 -5.44969e-08 0)
(0.001 -6.6964e-08 0)
(0.001 -8.01141e-08 0)
(0.001 -9.67078e-08 0)
(0.00100001 -1.1356e-07 0)
(0.00100001 -1.36765e-07 0)
(0.00100001 -1.58367e-07 0)
(0.00100001 -1.92015e-07 0)
(0.00100001 -2.18559e-07 0)
(0.00100002 -2.6868e-07 0)
(0.00100002 -2.97257e-07 0)
(0.00100002 -3.74191e-07 0)
(0.00100002 -3.94054e-07 0)
(0.00100003 -5.1832e-07 0)
(0.001 -3.35431e-09 0)
(0.001 -1.02984e-08 0)
(0.001 -1.75629e-08 0)
(0.000999999 -2.55348e-08 0)
(0.000999999 -3.41385e-08 0)
(0.000999999 -4.39554e-08 0)
(0.000999998 -5.44899e-08 0)
(0.000999997 -6.69591e-08 0)
(0.000999996 -8.01095e-08 0)
(0.000999995 -9.67124e-08 0)
(0.000999994 -1.13554e-07 0)
(0.000999993 -1.36757e-07 0)
(0.000999991 -1.58365e-07 0)
(0.000999989 -1.92007e-07 0)
(0.000999987 -2.18551e-07 0)
(0.000999984 -2.68683e-07 0)
(0.000999982 -2.97261e-07 0)
(0.000999978 -3.74183e-07 0)
(0.000999977 -3.94042e-07 0)
(0.00099997 -5.18311e-07 0)
(0.001 -3.27678e-09 0)
(0.001 -1.00619e-08 0)
(0.000999999 -1.71747e-08 0)
(0.000999999 -2.49675e-08 0)
(0.000999997 -3.3349e-08 0)
(0.000999996 -4.28682e-08 0)
(0.000999994 -5.30569e-08 0)
(0.000999992 -6.51582e-08 0)
(0.000999989 -7.79293e-08 0)
(0.000999986 -9.41792e-08 0)
(0.000999983 -1.10644e-07 0)
(0.000999978 -1.33475e-07 0)
(0.000999973 -1.54679e-07 0)
(0.000999967 -1.87938e-07 0)
(0.000999961 -2.14041e-07 0)
(0.000999952 -2.63858e-07 0)
(0.000999946 -2.92011e-07 0)
(0.000999933 -3.68842e-07 0)
(0.00099993 -3.88396e-07 0)
(0.000999911 -5.13259e-07 0)
(0.001 -3.09721e-09 0)
(0.001 -9.56527e-09 0)
(0.000999999 -1.6376e-08 0)
(0.000999998 -2.39052e-08 0)
(0.000999996 -3.19841e-08 0)
(0.000999993 -4.11194e-08 0)
(0.000999991 -5.07477e-08 0)
(0.000999987 -6.21021e-08 0)
(0.000999983 -7.39182e-08 0)
(0.000999977 -8.90091e-08 0)
(0.000999971 -1.04191e-07 0)
(0.000999963 -1.25535e-07 0)
(0.000999956 -1.45185e-07 0)
(0.000999945 -1.76698e-07 0)
(0.000999936 -2.01126e-07 0)
(0.000999921 -2.48995e-07 0)
(0.000999911 -2.75567e-07 0)
(0.00099989 -3.50394e-07 0)
(0.000999882 -3.68881e-07 0)
(0.000999851 -4.91619e-07 0)
(0.001 -2.79604e-09 0)
(0.000999999 -8.68715e-09 0)
(0.000999998 -1.49831e-08 0)
(0.000999996 -2.21382e-08 0)
(0.000999994 -3.00225e-08 0)
(0.000999991 -3.92302e-08 0)
(0.000999987 -4.91273e-08 0)
(0.000999982 -6.09255e-08 0)
(0.000999977 -7.32574e-08 0)
(0.000999969 -8.8829e-08 0)
(0.000999962 -1.04423e-07 0)
(0.000999951 -1.2606e-07 0)
(0.000999941 -1.45768e-07 0)
(0.000999925 -1.7721e-07 0)
(0.000999913 -2.01282e-07 0)
(0.000999891 -2.48886e-07 0)
(0.000999878 -2.74897e-07 0)
(0.000999847 -3.49932e-07 0)
(0.000999839 -3.68227e-07 0)
(0.000999792 -4.92777e-07 0)
(0.001 -2.4597e-09 0)
(0.000999999 -7.36298e-09 0)
(0.000999998 -1.21049e-08 0)
(0.000999995 -1.70066e-08 0)
(0.000999992 -2.1995e-08 0)
(0.000999987 -2.77498e-08 0)
(0.000999982 -3.37957e-08 0)
(0.000999975 -4.14096e-08 0)
(0.000999968 -4.93738e-08 0)
(0.000999959 -6.03383e-08 0)
(0.000999949 -7.11745e-08 0)
(0.000999935 -8.78785e-08 0)
(0.000999922 -1.02607e-07 0)
(0.000999903 -1.28838e-07 0)
(0.000999887 -1.47835e-07 0)
(0.000999859 -1.90068e-07 0)
(0.000999841 -2.11311e-07 0)
(0.000999802 -2.8105e-07 0)
(0.000999787 -2.95661e-07 0)
(0.000999731 -4.15664e-07 0)
(0.001 -2.81603e-09 0)
(0.001 -9.07574e-09 0)
(0.000999999 -1.61588e-08 0)
(0.000999997 -2.42654e-08 0)
(0.000999994 -3.30901e-08 0)
(0.00099999 -4.29036e-08 0)
(0.000999984 -5.31469e-08 0)
(0.000999977 -6.48007e-08 0)
(0.000999969 -7.66866e-08 0)
(0.000999958 -9.13315e-08 0)
(0.000999946 -1.05512e-07 0)
(0.00099993 -1.25124e-07 0)
(0.000999915 -1.42318e-07 0)
(0.000999891 -1.70463e-07 0)
(0.000999872 -1.90826e-07 0)
(0.000999837 -2.34072e-07 0)
(0.000999817 -2.55911e-07 0)
(0.000999764 -3.26806e-07 0)
(0.000999752 -3.42246e-07 0)
(0.00099967 -4.64768e-07 0)
(0.001 -6.99722e-11 0)
(0.000999998 1.09145e-10 0)
(0.000999995 7.26955e-10 0)
(0.000999991 1.34731e-09 0)
(0.000999986 1.85418e-09 0)
(0.00099998 1.6749e-09 0)
(0.000999973 1.1007e-09 0)
(0.000999965 -7.13858e-10 0)
(0.000999955 -2.66506e-09 0)
(0.000999943 -7.22481e-09 0)
(0.00099993 -1.11822e-08 0)
(0.000999911 -2.02576e-08 0)
(0.000999894 -2.68092e-08 0)
(0.000999867 -4.38701e-08 0)
(0.000999845 -5.32094e-08 0)
(0.000999806 -8.48014e-08 0)
(0.000999779 -9.56521e-08 0)
(0.00099972 -1.54977e-07 0)
(0.000999698 -1.61667e-07 0)
(0.000999611 -2.76265e-07 0)
(0.001 -3.92868e-09 0)
(0.001 -1.29277e-08 0)
(0.001 -2.29879e-08 0)
(0.000999999 -3.36751e-08 0)
(0.000999995 -4.43291e-08 0)
(0.000999989 -5.5254e-08 0)
(0.000999983 -6.60172e-08 0)
(0.000999974 -7.7701e-08 0)
(0.000999963 -8.90705e-08 0)
(0.000999949 -1.02624e-07 0)
(0.000999935 -1.15219e-07 0)
(0.000999914 -1.32227e-07 0)
(0.000999896 -1.46222e-07 0)
(0.000999864 -1.69718e-07 0)
(0.000999841 -1.84904e-07 0)
(0.000999792 -2.21026e-07 0)
(0.000999767 -2.3585e-07 0)
(0.000999687 -2.97817e-07 0)
(0.000999671 -3.06761e-07 0)
(0.000999539 -4.22427e-07 0)
(0.001 3.97091e-09 0)
(0.000999996 1.2152e-08 0)
(0.000999991 2.03109e-08 0)
(0.000999987 2.80005e-08 0)
(0.000999982 3.52493e-08 0)
(0.000999976 4.16447e-08 0)
(0.000999969 4.79036e-08 0)
(0.000999959 5.30153e-08 0)
(0.000999948 5.83256e-08 0)
(0.000999934 6.22608e-08 0)
(0.000999919 6.69303e-08 0)
(0.000999897 6.85809e-08 0)
(0.000999877 7.27223e-08 0)
(0.000999845 6.99486e-08 0)
(0.000999819 7.41043e-08 0)
(0.000999768 6.17843e-08 0)
(0.000999738 6.72023e-08 0)
(0.000999654 3.18231e-08 0)
(0.000999629 3.97918e-08 0)
(0.000999495 -5.45833e-08 0)
(0.001 -8.7313e-09 0)
(0.001 -2.37307e-08 0)
(0.001 -3.60054e-08 0)
(0.000999997 -4.68368e-08 0)
(0.000999993 -5.70787e-08 0)
(0.000999986 -6.76943e-08 0)
(0.000999979 -7.81543e-08 0)
(0.000999968 -8.94381e-08 0)
(0.000999958 -1.00213e-07 0)
(0.000999942 -1.12048e-07 0)
(0.000999928 -1.22675e-07 0)
(0.000999903 -1.36093e-07 0)
(0.000999886 -1.464e-07 0)
(0.000999846 -1.63228e-07 0)
(0.000999826 -1.72116e-07 0)
(0.00099976 -1.96355e-07 0)
(0.000999742 -2.00996e-07 0)
(0.000999623 -2.43294e-07 0)
(0.000999618 -2.39541e-07 0)
(0.000999393 -3.32109e-07 0)
)
;

boundaryField
{
    sides
    {
        type            slip;
    }
    inlet
    {
        type            fixedValue;
        value           uniform (0.001 0 0);
    }
    outlet
    {
        type            zeroGradient;
    }
    frontAndBack
    {
        type            empty;
    }
}


// ************************************************************************* //
