/*--------------------------------*- C++ -*----------------------------------*\
  =========                 |
  \\      /  F ield         | OpenFOAM: The Open Source CFD Toolbox
   \\    /   O peration     | Website:  https://openfoam.org
    \\  /    A nd           | Version:  7
     \\/     M anipulation  |
\*---------------------------------------------------------------------------*/
FoamFile
{
    version     2.0;
    format      ascii;
    class       volScalarField;
    location    "500";
    object      epsilon;
}
// * * * * * * * * * * * * * * * * * * * * * * * * * * * * * * * * * * * * * //

dimensions      [0 2 -3 0 0 0 0];

internalField   nonuniform List<scalar> 
120313
(
71.7321
77.91
84.9216
90.0185
92.4246
93.4088
93.4716
92.1984
90.1395
85.9002
82.0291
77.8606
72.8246
68.122
64.2952
61.0914
57.9527
54.8804
51.7349
48.8975
46.103
43.4044
40.6116
38.184
72.0286
76.6771
83.6166
89.3181
92.1247
93.5474
93.8185
91.6283
89.5494
86.4803
82.7623
78.3656
73.836
69.6055
65.836
62.3154
58.9263
55.6515
52.4007
49.388
46.465
43.3812
40.1088
39.0919
69.5756
73.3771
79.7946
85.3783
88.2944
89.8608
90.5796
88.9417
86.8348
83.8482
79.9026
75.566
71.2005
67.0144
63.3786
59.9624
56.7004
53.5348
50.4279
47.5064
44.709
41.7137
38.621
38.046
68.5905
72.1637
78.4793
84.1178
87.1267
88.8184
89.6649
88.3319
86.3178
83.303
79.2145
74.841
70.5264
66.3414
62.6942
59.2916
56.047
52.8919
49.8051
46.9094
44.1404
41.1866
38.173
37.7962
68.4457
72.0577
78.4153
84.1015
87.1356
88.8696
89.7288
88.4377
86.4611
83.4218
79.3057
74.8995
70.5764
66.3712
62.7091
59.2983
56.0376
52.883
49.8077
46.92
44.1563
41.2013
38.1807
37.8248
69.1951
73.1033
79.6253
85.3871
88.3996
90.073
90.8359
89.3212
87.3593
84.3796
80.2729
75.8335
71.4502
67.215
63.5345
60.0928
56.788
53.5954
50.4813
47.5433
44.7434
41.7394
38.6367
38.0941
71.7838
76.6181
83.678
89.7176
92.7464
94.2791
94.643
92.5436
90.6964
87.7318
83.6453
79.0501
74.469
70.1909
66.3722
62.7917
59.3235
55.9671
52.684
49.6173
46.6958
43.6097
40.3043
39.3395
73.2514
79.7541
87.1524
92.8902
95.5762
96.7653
96.8034
95.487
93.307
89.142
84.941
80.3162
75.1331
70.3924
66.4899
63.044
59.7067
56.473
53.2188
50.277
47.4542
44.7145
41.6731
39.214
2.78936
5.46147
8.61152
12.4096
16.9977
22.6947
30.1335
40.0895
49.3863
57.8986
66.6107
72.9392
77.0759
79.4139
80.3254
80.2668
79.436
78.0725
76.0327
73.2892
69.9606
66.3384
62.5278
58.7858
55.3198
51.9412
48.6803
45.5851
42.6692
39.9554
37.3882
34.9853
32.7202
30.6195
28.7018
27.2986
2.63207
5.30345
8.44695
12.2246
16.81
22.5773
30.2036
40.2207
50.6439
65.9182
77.7237
86.1909
91.3449
93.7276
94.4295
94.1394
92.8439
91.1347
87.4981
84.1318
79.4827
75.0186
70.3704
65.8879
61.5525
57.3568
53.4275
49.6754
46.2868
43.0413
40.0795
37.2622
34.343
31.5887
29.5239
27.5243
2.40396
5.07552
8.18803
11.9051
16.4004
22.0443
29.5038
39.2851
50.01
65.9297
80.3848
89.9616
95.1356
98.019
98.9373
98.9772
97.0719
95.1323
91.3646
87.3573
82.8164
77.8806
73.0188
68.3196
63.7927
59.4
55.3233
51.4079
47.9057
44.5167
41.4092
38.4503
35.2574
32.0218
30.4061
28.0231
2.2721
4.94628
8.03813
11.7036
16.1004
21.5917
28.8201
38.2119
48.8867
65.1797
80.4187
90.5651
96.6586
99.5996
100.705
101.161
99.2329
96.917
92.9958
88.7209
83.8341
78.8611
73.9085
69.1511
64.553
60.0869
55.9476
51.9705
48.3989
44.9809
41.7994
38.8347
35.3989
32.2609
30.3747
28.0738
2.2841
4.93547
8.02792
11.6785
16.0276
21.4318
28.5065
37.6316
48.2014
64.6742
80.1765
90.4685
96.962
100.051
101.366
102.09
99.7834
97.4967
93.4443
89.1157
84.1177
79.0987
74.0978
69.3329
64.7278
60.2265
56.0869
52.0816
48.5088
45.0864
41.9032
38.9484
35.4409
32.3835
30.4205
28.1569
2.28067
4.90582
7.99566
11.6385
15.9682
21.3387
28.3617
37.417
47.9839
64.5392
80.0421
90.3785
96.8985
100.029
101.396
102.186
99.7937
97.548
93.4593
89.1251
84.1061
79.0814
74.0764
69.3125
64.7069
60.1986
56.0569
52.0611
48.4887
45.0757
41.8958
38.9454
35.4581
32.3757
30.5015
28.2217
2.2074
4.81897
7.90027
11.544
15.8897
21.2905
28.3722
37.5383
48.2349
64.8173
80.0139
90.3042
96.4542
99.5101
100.789
101.427
99.291
97.0538
93.0274
88.7715
83.8195
78.8333
73.855
69.116
64.5018
60.0414
55.8965
51.9309
48.3576
44.9576
41.7841
38.8316
35.439
32.2917
30.5742
28.2655
2.10748
4.71396
7.78389
11.437
15.834
21.3312
28.5944
38.1015
49.1812
65.6006
79.8758
90.0051
95.0548
98.0577
99.1912
99.4528
97.7939
95.5543
91.629
87.6953
82.9695
78.0141
73.12
68.411
63.8594
59.4553
55.3723
51.462
47.9529
44.583
41.4801
38.5261
35.3735
32.1942
30.783
28.3924
2.14043
4.71386
7.78903
11.4915
16.0121
21.7274
29.3573
39.5405
50.7921
66.4802
78.6037
87.747
92.1906
94.9186
95.8905
95.8464
94.6618
92.9278
88.7981
85.1947
80.5849
75.8827
71.1239
66.5762
62.2005
57.9647
53.9939
50.2151
46.7918
43.5441
40.5574
37.7131
34.8442
31.9174
30.7121
28.5469
2.19446
4.72393
7.78308
11.4929
16.0628
21.8795
29.7019
40.2997
51.3994
65.0375
75.123
82.9031
87.4684
89.7312
90.4835
90.3068
89.3026
87.794
85.3552
81.8467
77.5693
73.2631
68.8559
64.4923
60.4241
56.4558
52.6943
49.1376
45.8416
42.8043
39.9452
37.3843
34.8384
31.8762
30.8211
28.6714
2.20198
4.72267
7.77983
11.4926
16.0649
21.8624
29.6195
40.1008
49.6022
58.9187
67.9084
73.9845
78.3091
80.8013
81.8567
81.9265
81.2208
79.9711
78.0111
75.3457
71.7797
67.8661
63.8606
59.9823
56.3291
52.8409
49.51
46.3368
43.3573
40.5824
37.9764
35.5588
33.3182
31.1947
29.3551
27.6984
2.06805
4.62518
7.67639
11.4068
15.9937
21.7168
29.1566
38.9813
48.7691
57.0975
65.8568
72.3904
76.7444
79.4069
80.6077
80.8278
80.2934
79.004
77.0562
74.4159
71.0325
67.2311
63.2531
59.4386
55.7547
52.2386
48.8758
45.6808
42.6601
39.8397
37.2142
34.7848
32.5364
30.5181
28.6424
27.193
95.6517
110.732
124.827
133.051
136.588
136.476
134.223
129.668
123.894
118.053
111.526
104.89
98.043
91.2985
84.7798
78.5152
72.5903
67.0259
61.8751
57.0971
52.7615
48.767
45.1745
42.1301
2.6856
5.00499
8.30389
12.711
18.4907
26.0184
35.5631
47.1255
64.1134
92.9252
108.756
122.578
130.354
133.795
133.786
131.807
127.622
121.95
115.779
109.145
103.499
96.5826
89.9455
83.5182
77.3804
71.586
66.1718
61.1462
56.5017
52.2402
48.3614
44.7605
41.6079
38.7175
35.5406
32.9627
2.51788
4.79914
8.0912
12.4948
18.3078
25.9456
35.6976
47.5231
64.8682
94.4227
110.443
124.412
131.986
135.17
134.812
132.526
127.999
122.096
115.575
109.244
102.753
95.9947
89.3404
82.9219
76.8399
71.0943
65.7646
60.7966
56.2554
52.0277
48.2201
44.6357
41.421
38.2969
35.9576
33.1481
2.32819
4.56468
7.80262
12.1473
17.9107
25.5324
35.3336
47.3074
64.583
94.905
111.641
126.044
133.783
136.887
136.31
133.525
128.331
122.274
116.387
109.777
103.049
96.2264
89.5342
83.1067
77.0313
71.2805
65.9746
61.0035
56.4956
52.2559
48.4751
44.8575
41.5633
38.2755
35.8802
33.114
2.18143
4.3912
7.57604
11.8503
17.5297
25.0592
34.7789
46.7075
63.7967
94.2968
111.4
126.099
134.041
137.151
136.378
133.132
127.811
122.1
116.53
109.817
102.96
96.0876
89.3764
82.9585
76.9115
71.1666
65.8997
60.9408
56.4735
52.2491
48.4996
44.9067
41.5812
38.2319
35.8333
33.0075
2.13124
4.3116
7.4626
11.6918
17.3122
24.7625
34.3862
46.207
63.1219
93.6169
110.835
125.639
133.623
136.775
135.884
132.167
127.401
121.712
116.182
109.505
102.605
95.7164
89.0414
82.631
76.6945
70.8691
65.7073
60.6264
56.2539
51.9723
48.2946
44.7284
41.4497
38.1367
35.7655
32.9086
2.10024
4.25141
7.37558
11.5731
17.1533
24.5539
34.1242
45.8952
62.7756
93.3267
110.564
125.419
133.426
136.59
135.668
131.855
127.206
121.561
115.997
109.318
102.419
95.5383
88.904
82.4725
76.5724
70.6888
65.5321
60.4965
56.1373
51.8911
48.2308
44.6707
41.4096
38.1086
35.7506
32.8836
2.04425
4.17705
7.27482
11.4461
17.0036
24.3935
33.9811
45.8018
62.8095
93.3511
110.5
125.357
133.369
136.526
135.71
132.242
127.252
121.538
115.958
109.315
102.446
95.5917
88.9045
82.543
76.5254
70.8396
65.5951
60.6907
56.2489
52.0719
48.3553
44.7938
41.4971
38.1691
35.7885
32.9328
1.99626
4.1246
7.20638
11.3685
16.9338
24.362
34.0342
45.9813
63.2148
93.4959
110.436
125.173
133.088
136.203
135.603
132.759
127.318
121.608
115.708
109.209
102.463
95.6651
88.9998
82.6247
76.5954
70.9022
65.651
60.7386
56.2799
52.0897
48.3485
44.7649
41.491
38.2054
35.8239
33.0091
2.03594
4.15215
7.23783
11.4226
17.0425
24.5666
34.3816
46.4857
63.9318
93.518
110.004
124.375
132.054
135.218
134.779
132.295
127.583
121.468
115.246
108.905
102.237
95.491
88.8477
82.4641
76.4317
70.7408
65.4767
60.5673
56.0863
51.9137
48.1436
44.5968
41.3966
38.1872
35.8455
33.0895
2.10097
4.20851
7.30404
11.5136
17.1781
24.7612
34.6226
46.6965
63.9407
92.5824
108.769
122.685
130.256
133.483
133.193
131.004
126.607
120.897
114.543
108.295
101.943
95.21
88.6059
82.2688
76.2628
70.5972
65.3358
60.4445
55.9533
51.8143
48.0395
44.5564
41.3994
38.2554
35.9623
33.1716
2.11156
4.22922
7.31275
11.5098
17.1546
24.6857
34.4338
46.3028
63.4202
92.4027
108.91
122.979
130.926
134.462
134.399
132.284
127.958
122.175
116.039
109.485
103.831
96.7444
89.9374
83.3951
77.1912
71.3547
65.9215
60.8908
56.274
52.0291
48.196
44.6232
41.4594
38.5227
35.399
32.8719
2.06025
4.18635
7.22094
11.3638
16.9266
24.3253
33.9247
45.7628
63.2416
93.0553
110.794
125.488
133.838
137.568
137.497
135.265
130.484
124.275
118.677
111.605
105.806
98.4946
91.4228
84.6256
78.1827
72.1414
66.5347
61.3638
56.6322
52.3096
48.4245
44.8045
41.6508
38.6678
35.4101
32.7681
152.905
159.89
167.243
168.723
166.265
160.165
151.584
141.892
131.931
122.233
112.986
104.204
96.1133
88.7941
82.0585
75.8719
70.1391
64.9394
60.1192
55.8002
51.7496
48.1831
44.9525
42.1698
2.29236
4.63573
8.83198
15.8437
26.3569
40.2021
57.0558
76.124
108.791
154.24
159.559
167.35
168.908
166.645
160.91
152.604
143.081
133.187
123.431
114.083
105.388
97.2097
89.8435
82.9584
76.7177
70.8559
65.5864
60.6902
56.2954
52.2338
48.5561
45.1582
42.139
39.2915
38.7179
36.2637
2.15583
4.4455
8.73456
15.9618
26.9825
41.5761
59.0717
78.7685
112.113
156.038
160.264
167.138
168.347
165.691
159.408
150.891
141.315
131.389
121.526
112.255
103.682
95.6106
88.3375
81.5589
75.4748
69.7618
64.6166
59.83
55.5455
51.578
48.0241
44.6962
41.6303
38.6961
36.1634
33.6156
1.99882
4.17458
8.28968
15.3664
26.4188
41.0828
58.6677
78.5848
111.509
154.514
158.838
164.971
165.927
162.745
155.881
147.102
137.415
127.387
117.826
108.704
100.27
92.4207
85.4266
78.9753
73.1466
67.775
62.8932
58.3504
54.2668
50.4778
47.1219
43.9602
41.0764
38.1672
35.5198
33.0845
1.86281
3.95209
7.8793
14.6982
25.5096
39.9616
57.3634
77.1978
109.808
152.653
157.014
162.553
163.07
159.351
152.155
143.163
133.268
123.407
114.012
104.981
96.7411
89.2396
82.4754
76.3019
70.743
65.6
61.0097
56.689
52.854
49.2575
46.1234
43.1437
40.4267
37.5841
34.9379
32.519
1.79834
3.81472
7.63134
14.2755
24.8627
39.1805
56.4175
76.0865
108.51
151.192
155.465
160.767
160.937
156.927
149.56
140.446
130.515
120.692
111.332
102.448
94.2836
86.977
80.6221
74.3178
69.6972
63.5089
60.0457
54.3209
51.663
47.161
44.8209
41.9421
39.5742
36.9379
34.4114
32.0567
1.75916
3.73312
7.47828
14.0143
24.4671
38.705
55.842
75.4273
107.834
150.74
155.01
160.332
160.448
156.35
148.935
139.781
129.814
119.982
110.62
101.765
93.6338
86.4076
80.3986
73.6646
69.4285
62.48
59.2941
53.8912
51.3023
46.9347
44.6483
41.7123
39.4001
36.7932
34.276
31.9323
1.71205
3.66062
7.37604
13.8457
24.1978
38.3708
55.4973
75.161
107.704
151.058
155.498
161.178
161.608
157.697
150.372
141.279
131.306
121.447
112.045
103.102
94.9112
87.5695
80.9546
74.9478
69.5456
64.5644
60.0955
55.9497
52.2117
48.7495
45.6869
42.7829
40.0983
37.2616
34.6077
32.178
1.68856
3.63759
7.32118
13.8025
24.1733
38.3522
55.5854
75.3674
108.101
152.016
156.814
163.089
164.031
160.463
153.344
144.384
134.483
124.499
115.022
105.91
97.6096
90.0872
83.3078
77.1194
71.5094
66.3933
61.7368
57.4138
53.4899
49.8437
46.6006
43.5228
40.6739
37.7331
35.036
32.5474
1.73155
3.69771
7.42197
13.9854
24.4991
38.8152
56.2678
76.2408
109.331
153.927
158.969
165.903
167.005
163.819
156.944
148.134
138.393
128.244
118.526
109.4
100.983
93.0691
86.0779
79.5714
73.768
68.3536
63.4763
58.8973
54.7972
50.9596
47.5409
44.2935
41.2976
38.2893
35.6277
33.0219
1.79832
3.78365
7.58317
14.3072
25.0063
39.478
57.0911
77.2122
110.64
155.215
160.57
167.961
169.014
166.056
159.334
150.608
140.897
130.823
120.95
111.733
103.264
95.3271
88.1935
81.5069
75.5283
69.8809
64.8043
60.0436
55.7843
51.8065
48.2358
44.8638
41.7613
38.7562
36.0789
33.5665
1.80482
3.81364
7.59058
14.2245
24.7963
39.0802
56.4982
76.4619
110.071
154.439
160.318
168.313
169.608
166.836
160.278
151.614
141.935
131.937
122.077
112.866
104.397
96.354
89.1036
82.3321
76.2372
70.497
65.3076
60.4709
56.1113
52.0726
48.4013
44.9991
41.8573
39.5016
38.3569
35.9152
1.74801
3.7334
7.30795
13.5989
23.6831
37.1077
53.7063
73.2975
107.096
151.721
157.981
166.942
168.722
166.284
159.905
151.353
141.728
131.774
122.054
112.873
104.39
96.2415
88.9593
82.1826
76.0468
70.3122
65.0964
60.2549
55.8739
51.8305
48.1495
44.7736
41.6597
39.3855
38.3034
35.8429
119.124
99.3855
84.6951
72.2498
61.5337
52.7554
46.0115
40.5961
36.1989
32.5046
29.5972
27.2801
25.2566
23.5667
22.0077
20.8168
19.6864
18.8264
17.9523
17.2833
16.5948
15.9847
15.5232
14.3593
53.8339
148.47
207.089
224.26
222.832
219.638
217.343
213.415
212.272
120.225
100.11
84.78
72.3002
61.5935
52.6799
45.7655
40.3132
35.9291
32.2514
29.3577
27.0498
25.0974
23.3926
21.8756
20.5741
19.4919
18.5317
17.7285
16.984
16.3589
15.762
15.2335
14.795
13.6464
17.0904
18.4798
50.0387
157.048
217.325
233.327
231.313
227.769
222.802
217.841
211.846
115.515
96.147
81.1515
68.7936
58.209
49.9083
43.4937
38.403
34.1984
30.9928
28.4153
26.2258
24.3658
22.7038
21.2368
19.9251
18.8178
17.8631
17.0721
16.3776
15.7692
15.2842
14.7787
14.4609
13.7682
13.3372
12.1149
47.4405
154.796
212.738
231.573
231.094
226.48
221.17
215.875
209.046
112.036
92.8495
77.5944
65.0738
54.5307
46.6353
40.6937
35.6945
32.1679
29.3295
26.9706
24.9238
23.1302
21.5588
20.1706
18.9641
17.8977
16.9761
16.2185
15.5886
15.0558
14.6515
14.2646
13.9997
13.3723
12.8059
11.6537
49.5824
149.873
207.499
228.718
229.278
224.866
219.3
213.905
207.815
110.399
91.0235
75.3853
62.4438
52.0189
44.26
38.3477
33.7789
30.5164
27.9033
25.6657
23.7269
22.0334
20.5341
19.2026
18.0527
17.0358
16.1474
15.3867
14.7917
14.3125
13.9668
13.6698
13.4857
12.8672
12.2754
11.1135
48.6242
145.275
205.298
227.088
227.939
223.788
218.091
212.608
206.435
109.486
89.926
74.0575
60.9293
50.502
42.8744
36.8787
32.6033
29.5125
26.9843
24.8314
22.9204
21.2728
19.8125
18.5648
17.417
16.4747
15.5578
14.8101
14.2431
13.8092
13.5397
13.3039
13.1724
12.5863
11.9983
10.8534
46.5617
143.888
202.544
226.608
227.559
223.196
217.542
211.984
205.845
108.883
89.3343
73.4409
60.315
49.9347
42.4044
36.4017
32.244
29.2055
26.7354
24.5786
22.6933
21.0673
19.6159
18.4005
17.2455
16.304
15.3944
14.6728
14.1232
13.6976
13.4366
13.2029
13.065
12.4674
11.8739
10.7272
43.6307
144.213
204.547
226.29
227.39
223.334
217.595
212.011
205.888
109.128
89.5883
74.0075
61.063
50.7525
43.1503
37.2107
32.8744
29.7398
27.19
25.0172
23.0977
21.443
19.9878
18.7108
17.6012
16.6314
15.7972
15.0524
14.4681
14.0072
13.6859
13.4018
13.1926
12.5343
11.9178
10.7547
46.6648
146.558
203.185
226.679
227.848
223.324
217.804
212.217
206.311
109.554
90.6314
75.4383
62.8775
52.5397
44.8309
38.9067
34.2382
30.8597
28.1995
25.9017
23.9392
22.2381
20.7441
19.424
18.2793
17.2875
16.4018
15.6745
15.0822
14.5734
14.2054
13.8106
13.5125
12.7757
12.1359
10.9664
48.7542
148.006
206.262
228.095
229.081
224.554
219.184
213.829
207.665
109.972
91.6828
77.0159
64.9072
54.5772
46.8096
40.8477
35.8671
32.2656
29.406
26.9877
24.9704
23.174
21.6216
20.2375
19.0524
17.9841
17.0978
16.3403
15.7272
15.1523
14.7122
14.2044
13.8166
13.0591
12.4363
11.3022
51.257
149
209.055
231.048
231.254
226.052
220.741
215.843
209.592
110.547
92.4307
78.1232
66.3218
56.0221
48.2054
42.164
37.1955
33.3144
30.2906
27.8088
25.7023
23.9124
22.3416
20.9358
19.7018
18.6135
17.7182
16.9264
16.2727
15.6265
15.1381
14.5245
14.1145
13.2932
12.7754
11.7044
48.0088
145.3
205.083
228.328
229.963
226.452
222.169
217.797
211.524
111.924
93.4593
79.0404
67.1406
56.7831
48.8888
42.7703
37.8055
33.8224
30.7552
28.246
26.1277
24.3402
22.7088
21.3137
20.0079
18.9694
18.0232
17.2534
16.5374
15.8865
15.3483
14.6788
14.3244
13.0596
15.9054
17.2577
47.1535
125.104
186.635
216.768
221.772
217.416
214.445
211.903
209.236
113.785
94.6715
79.779
67.5711
57.0261
49.0015
42.9066
37.9145
33.9511
30.9122
28.4117
26.2959
24.4722
22.8073
21.4033
20.0785
19.0369
18.0697
17.3021
16.5708
15.9167
15.3617
14.6923
14.3378
13.0673
15.9962
17.346
1.77321
2.08947
2.28742
2.37785
2.39441
2.36544
2.30939
2.23805
2.15892
2.08401
2.01045
1.94649
1.88896
1.84263
1.80498
1.77778
1.75805
1.74768
1.74262
1.7452
1.75218
1.76358
1.77833
1.64512
0.00996942
0.00936615
0.00889567
0.00852031
0.00816068
0.00785231
0.00965866
0.0273126
0.0698041
0.107548
0.233827
0.637876
1.54568
2.00613
1.49784
1.86112
2.08837
2.20689
2.24465
2.23305
2.1903
2.13039
2.06175
1.9907
1.92775
1.86698
1.81557
1.77176
1.73748
1.7107
1.69228
1.68053
1.67573
1.67651
1.68349
1.69519
1.70763
1.71928
1.6137
2.21197
2.52238
0.00996971
0.00934901
0.00889872
0.00850698
0.00816055
0.00782501
0.00798069
0.0124512
0.0227488
0.043503
0.136057
0.405633
0.990632
1.5214
1.30334
1.65429
1.87353
1.98337
2.02219
2.01651
1.98361
1.93462
1.87726
1.81935
1.76221
1.71242
1.6663
1.62793
1.59633
1.57207
1.55479
1.54442
1.54066
1.54319
1.55228
1.56895
1.5929
1.62116
1.6339
1.63853
1.61791
0.00996994
0.00934655
0.00889338
0.00849365
0.00815433
0.00784215
0.00767885
0.00948954
0.0152332
0.0319318
0.101901
0.306645
0.767288
1.30751
1.19964
1.53559
1.73341
1.82621
1.85416
1.84252
1.80669
1.75751
1.70191
1.64606
1.5929
1.54648
1.50274
1.46603
1.43582
1.41329
1.3977
1.38993
1.38839
1.3939
1.40718
1.42686
1.45369
1.48061
1.49328
1.4931
1.49943
0.00990858
0.00930743
0.0088631
0.00849564
0.00815494
0.00782754
0.0076008
0.00900653
0.0124198
0.02583
0.0840858
0.26081
0.672803
1.21677
1.15294
1.47466
1.6547
1.72999
1.74891
1.72638
1.68393
1.62835
1.56987
1.51501
1.46384
1.42024
1.37917
1.34425
1.31448
1.29195
1.27527
1.2659
1.26298
1.26757
1.27889
1.29596
1.31976
1.34205
1.35136
1.3491
1.35644
0.0099084
0.00932628
0.00890322
0.00848075
0.00816389
0.00787705
0.00761232
0.00893563
0.0119908
0.0245654
0.0801565
0.246112
0.63378
1.18838
1.13587
1.44961
1.61892
1.68431
1.69761
1.66847
1.61936
1.56087
1.50167
1.44674
1.39622
1.35219
1.3111
1.27616
1.24658
1.22263
1.20517
1.19301
1.1887
1.19185
1.20307
1.22086
1.24401
1.2666
1.28001
1.28213
1.28894
0.00990839
0.00932425
0.00891638
0.00849394
0.00816189
0.00787925
0.00759811
0.00844368
0.0111877
0.0246998
0.0801251
0.240251
0.613042
1.17461
1.11153
1.42239
1.58784
1.65175
1.66336
1.6346
1.58541
1.52822
1.47073
1.41622
1.36899
1.32407
1.28484
1.25023
1.22163
1.19816
1.18145
1.17029
1.16718
1.17117
1.18259
1.20016
1.22255
1.24426
1.25869
1.25639
1.26456
0.00990856
0.00931105
0.00888853
0.00847473
0.00816201
0.00786208
0.0076349
0.00859393
0.0110162
0.0241673
0.0765875
0.226352
0.575444
1.13348
1.10553
1.41794
1.58993
1.66023
1.67751
1.65406
1.61031
1.55569
1.49916
1.44617
1.39694
1.35435
1.31458
1.28101
1.25274
1.23121
1.21606
1.20809
1.20599
1.21039
1.22138
1.23715
1.25809
1.27636
1.28308
1.28109
1.28177
0.00997077
0.00933806
0.00884932
0.00849247
0.00815973
0.00783653
0.00759252
0.00855072
0.010938
0.0222764
0.0716273
0.222377
0.578293
1.12898
1.10308
1.42683
1.61421
1.70155
1.72719
1.71405
1.67808
1.6286
1.57333
1.51921
1.47143
1.42617
1.38699
1.35295
1.3249
1.30438
1.2906
1.28528
1.28452
1.29027
1.30251
1.31912
1.33796
1.35464
1.36236
1.36314
1.35826
0.00990827
0.00932199
0.0089048
0.00846006
0.0081715
0.00787792
0.00759455
0.00845574
0.0109086
0.0220994
0.0711226
0.219581
0.559632
1.09837
1.09901
1.43353
1.63855
1.74296
1.78267
1.78192
1.75473
1.7127
1.66274
1.60968
1.56176
1.51601
1.47619
1.44158
1.41409
1.39393
1.38094
1.37603
1.37595
1.38173
1.39241
1.4066
1.4217
1.43538
1.44146
1.44257
1.44043
0.00990855
0.00931095
0.00888258
0.00846243
0.00817009
0.00787653
0.00762961
0.00890873
0.0115958
0.0239697
0.0789345
0.238882
0.597748
1.11575
1.10398
1.44343
1.65696
1.77078
1.81923
1.82672
1.80572
1.76826
1.72157
1.67284
1.62417
1.58223
1.54332
1.51212
1.48773
1.47053
1.45989
1.45555
1.45693
1.46334
1.47328
1.48671
1.50003
1.51336
1.51798
1.525
1.51887
0.00996999
0.00935322
0.00890576
0.00849779
0.00816367
0.00788695
0.00779304
0.0109741
0.0157266
0.0289781
0.0895575
0.261806
0.639221
1.16577
1.16551
1.50052
1.71122
1.82177
1.86661
1.87271
1.85053
1.81181
1.76522
1.71513
1.67056
1.62667
1.59121
1.56007
1.53727
1.52035
1.51122
1.50686
1.50923
1.5151
1.52567
1.53872
1.55282
1.56886
1.45316
1.95945
2.18849
0.0099108
0.00931649
0.00891176
0.00849014
0.00816374
0.00784754
0.00848744
0.0182498
0.0507454
0.0804111
0.173459
0.426485
0.952436
1.41043
1.26762
1.59175
1.79313
1.89331
1.92975
1.92552
1.89727
1.85382
1.80335
1.75046
1.70475
1.65922
1.62168
1.58849
1.56419
1.54541
1.53513
1.52947
1.53124
1.53628
1.54665
1.55937
1.57412
1.59184
1.45162
1.97988
2.24455
0.00601868
0.00645954
0.00706954
0.00778764
0.00855723
0.00934496
0.0101235
0.0108803
0.0116048
0.0123094
0.012994
0.0136764
0.0143656
0.0150878
0.0158572
0.0166997
0.0176287
0.0186704
0.0198302
0.0211379
0.022593
0.0242016
0.0258782
0.0244423
0.00995189
0.00952296
0.00910564
0.0087116
0.00834303
0.00799916
0.00767772
0.00737679
0.00709444
0.00682936
0.00658099
0.00634611
0.00612301
0.00581761
0.00586152
0.00619902
0.00670084
0.00731999
0.00800583
0.00872134
0.00944111
0.0101466
0.0108314
0.0114934
0.0121482
0.012794
0.0134526
0.0141347
0.0148653
0.0156539
0.0165259
0.0174889
0.0185698
0.0197717
0.0211267
0.0226444
0.0244079
0.0259854
0.0240371
0.0385779
0.0455623
0.00995022
0.00951592
0.00910282
0.00871075
0.00834274
0.00799844
0.00767582
0.0073742
0.00709233
0.00682763
0.00657802
0.00634243
0.00611991
0.00584245
0.00580439
0.00605006
0.00644289
0.00693123
0.00748016
0.00806147
0.00865263
0.00924067
0.00981592
0.0103808
0.0109334
0.0114861
0.0120417
0.0126205
0.0132299
0.0138919
0.014615
0.0154249
0.0163309
0.0173591
0.0185304
0.0199025
0.0215439
0.0234682
0.0251609
0.0268801
0.0279995
0.00995043
0.00951502
0.009102
0.00871058
0.00834305
0.007999
0.00767599
0.00737382
0.0070913
0.0068253
0.00657334
0.00633423
0.00610789
0.00588085
0.00577525
0.00597327
0.00630081
0.00670271
0.00715326
0.00762795
0.0081075
0.0085821
0.00904248
0.00948799
0.00992167
0.0103526
0.0107833
0.0112287
0.0116983
0.0122104
0.0127767
0.0134198
0.0141528
0.0149989
0.0159841
0.017139
0.0184979
0.0200368
0.021542
0.0230683
0.0245069
0.00995056
0.00951497
0.00910189
0.0087104
0.00834253
0.00799769
0.00767368
0.00737047
0.00708606
0.00681783
0.00656469
0.0063268
0.00610409
0.0058921
0.00575734
0.00593744
0.00622827
0.00657988
0.00696897
0.00737106
0.00777133
0.00815743
0.00852358
0.00887595
0.0092175
0.00955879
0.00990081
0.0102563
0.01063
0.0110382
0.0114883
0.0120001
0.0125839
0.0132622
0.0140487
0.0149576
0.0160015
0.017139
0.0183029
0.0195305
0.02072
0.00995064
0.00951499
0.00910188
0.00871042
0.0083425
0.00799746
0.00767331
0.00736984
0.00708507
0.00681686
0.00656408
0.00632665
0.00610434
0.00589107
0.00575443
0.00592371
0.00620081
0.00653151
0.00689316
0.00726176
0.00762239
0.0079657
0.00828881
0.00859751
0.00889612
0.00919249
0.0094886
0.00979594
0.0101195
0.0104705
0.0108568
0.0112916
0.011789
0.0123694
0.0130453
0.0138256
0.0147113
0.0156813
0.016727
0.0178434
0.018975
0.00995068
0.00951507
0.00910194
0.00871056
0.00834284
0.00799806
0.00767379
0.0073694
0.00708393
0.0068157
0.00656337
0.00632634
0.00610403
0.00589215
0.00574426
0.00590697
0.00616879
0.00648279
0.00682606
0.00717621
0.00751781
0.00784312
0.00814971
0.00844211
0.00872675
0.0090076
0.00928976
0.00958253
0.00989171
0.0102275
0.0105985
0.0110183
0.0115005
0.0120631
0.0127146
0.0134621
0.0143066
0.0152386
0.0162542
0.0173486
0.0184222
0.00995049
0.00951497
0.00910184
0.00871017
0.00834186
0.00799643
0.00767169
0.00736687
0.00708158
0.00681468
0.00656347
0.00632686
0.00610466
0.00588556
0.00574567
0.00589785
0.00616106
0.00648014
0.00683258
0.00719609
0.00755596
0.00790157
0.00822898
0.00854322
0.00884794
0.00915145
0.00945599
0.00977324
0.0101086
0.0104763
0.0108844
0.0113504
0.0118809
0.012493
0.0131933
0.0139868
0.0148776
0.0158474
0.0168886
0.0179766
0.0190837
0.00995061
0.0095149
0.00910141
0.00870928
0.00834066
0.0079952
0.00767046
0.00736616
0.00708111
0.0068142
0.00656327
0.00632656
0.00610393
0.00588519
0.00574484
0.00589947
0.00617453
0.00651485
0.00689721
0.00729931
0.00770388
0.0080996
0.00847775
0.00884165
0.00919702
0.00954893
0.00990365
0.0102723
0.0106622
0.0110907
0.0115669
0.0121116
0.0127329
0.0134461
0.0142617
0.0151841
0.0162094
0.017323
0.0184955
0.0197136
0.0209466
0.0099506
0.00951477
0.00910115
0.00870876
0.00833975
0.00799391
0.00766921
0.00736534
0.00708053
0.00681383
0.00656319
0.00632643
0.00610242
0.00589061
0.00573981
0.00590149
0.00618753
0.00655038
0.00696569
0.0074121
0.00786883
0.00832521
0.00877127
0.00920345
0.00962703
0.010047
0.0104704
0.0109092
0.0113753
0.0118849
0.0124511
0.0130922
0.0138198
0.0146462
0.015582
0.0166273
0.0177784
0.0190271
0.0203356
0.0217913
0.0231305
0.00995068
0.00951512
0.00910124
0.00870829
0.00833897
0.00799311
0.00766863
0.00736506
0.00708056
0.00681409
0.0065634
0.00632616
0.00610268
0.00588839
0.00574297
0.00590351
0.0061957
0.00657061
0.00700481
0.00747672
0.00796504
0.00845812
0.00894516
0.00942611
0.00989953
0.0103762
0.0108594
0.0113683
0.0119121
0.0125108
0.0131737
0.0139213
0.0147592
0.0157039
0.0167597
0.0179366
0.0192237
0.0206201
0.0220191
0.0236728
0.0250927
0.00995074
0.00951649
0.00910174
0.00870763
0.00833783
0.00799192
0.00766801
0.00736524
0.00708171
0.00681545
0.00656439
0.00632697
0.00610367
0.00588594
0.00575848
0.00593762
0.00624779
0.00663944
0.00709175
0.00758048
0.00808793
0.00859914
0.00910912
0.00961261
0.0101186
0.0106258
0.0111509
0.0117007
0.0122952
0.0129444
0.0136687
0.014477
0.0153881
0.0164041
0.0175462
0.0188139
0.0202192
0.0217507
0.0199679
0.0311228
0.0364554
0.00995157
0.00952373
0.00910376
0.00870814
0.00833809
0.00799339
0.0076713
0.0073702
0.00708736
0.00681958
0.00656777
0.00633078
0.00610759
0.0058715
0.00577659
0.00598528
0.00632464
0.00674537
0.00722361
0.00773363
0.0082596
0.00878687
0.00931175
0.00982883
0.0103504
0.0108716
0.011411
0.0119727
0.0125802
0.0132393
0.013976
0.0147954
0.0157231
0.0167559
0.0179237
0.0192226
0.0206719
0.0222664
0.0201104
0.0314225
0.0372422
0.005558
0.0054374
0.00515393
0.00499977
0.00485319
0.00471203
0.00457688
0.00444551
0.00431859
0.00419408
0.00407286
0.00395389
0.00383838
0.00372485
0.00361486
0.00350706
0.00340308
0.00330153
0.00320403
0.00310919
0.0030187
0.00293199
0.00285399
0.00278306
0.00994922
0.00951949
0.00910249
0.00870845
0.00833887
0.00799289
0.00766896
0.00736522
0.00707992
0.00681175
0.00655952
0.0063219
0.00609649
0.00584074
0.00557808
0.00545201
0.00519503
0.00500433
0.00485601
0.0047148
0.00457845
0.00444743
0.00431973
0.00419577
0.00407404
0.00395565
0.00383972
0.00372693
0.00361648
0.00350932
0.00340482
0.00330386
0.0032058
0.00311145
0.00302022
0.0029327
0.00284803
0.00276603
0.00270068
0.00266585
0.00259422
0.0099484
0.00951242
0.00909965
0.00870818
0.0083392
0.00799301
0.00766851
0.0073642
0.00707848
0.00680994
0.00655712
0.00631846
0.00609272
0.00584971
0.00560094
0.00541425
0.00523509
0.00500049
0.00485243
0.00471097
0.00457465
0.00444322
0.00431535
0.00419102
0.00406902
0.00395018
0.00383394
0.00372088
0.00361015
0.00350277
0.00339799
0.00329684
0.00319847
0.0031039
0.00301208
0.00292411
0.00283844
0.00275589
0.00267669
0.00260151
0.00253646
0.00994851
0.00951123
0.00909831
0.00870812
0.00833947
0.00799299
0.00766797
0.0073632
0.00707709
0.00680804
0.00655459
0.0063152
0.00608879
0.00585727
0.00561812
0.00538729
0.0052638
0.00499897
0.00485029
0.00470952
0.00457355
0.00444285
0.00431537
0.00419173
0.00407007
0.00395174
0.00383578
0.00372308
0.00361251
0.00350532
0.00340056
0.00329944
0.00320082
0.00310602
0.00301368
0.00292506
0.00283853
0.00275559
0.00267554
0.00260035
0.00253573
0.00994852
0.00951106
0.00909807
0.00870796
0.00833919
0.00799239
0.007667
0.00736189
0.00707548
0.00680607
0.00655217
0.0063126
0.00608687
0.00585885
0.00562054
0.0053849
0.00526571
0.00501063
0.00484772
0.00470716
0.0045715
0.00444082
0.00431342
0.00418964
0.00406788
0.00394933
0.00383318
0.00372023
0.00360941
0.00350198
0.00339694
0.00329558
0.00319675
0.00310168
0.0030091
0.00292026
0.00283365
0.0027509
0.00267072
0.00259502
0.00252965
0.00994852
0.00951099
0.00909792
0.00870776
0.00833894
0.00799212
0.00766683
0.00736176
0.00707524
0.00680566
0.00655159
0.00631205
0.00608651
0.00585886
0.00562067
0.00538459
0.00526621
0.00501519
0.00484694
0.00470672
0.00457133
0.0044409
0.00431368
0.00419012
0.00406846
0.00395014
0.00383406
0.00372127
0.00361052
0.00350316
0.00339817
0.00329678
0.00319793
0.00310276
0.00301005
0.00292104
0.00283431
0.00275154
0.00267124
0.00259522
0.00252975
0.00994842
0.00951084
0.00909772
0.00870748
0.00833863
0.00799187
0.0076667
0.00736167
0.00707504
0.00680514
0.00655096
0.00631167
0.0060864
0.00585892
0.0056207
0.00538431
0.00526734
0.00501983
0.00484536
0.00470553
0.00457038
0.00444013
0.00431303
0.0041895
0.00406792
0.00394952
0.00383343
0.00372049
0.00360968
0.00350223
0.00339712
0.00329571
0.00319676
0.00310158
0.00300886
0.00291985
0.00283319
0.00275044
0.00267015
0.00259409
0.00252826
0.00994845
0.00951084
0.00909768
0.0087074
0.00833848
0.00799171
0.00766652
0.0073614
0.00707458
0.00680454
0.00655042
0.00631134
0.00608622
0.0058589
0.00562042
0.00538442
0.00526353
0.00502538
0.00484558
0.00470513
0.0045697
0.00443929
0.00431214
0.00418861
0.00406704
0.00394869
0.00383263
0.00371978
0.00360902
0.00350163
0.0033966
0.00329523
0.00319642
0.00310134
0.0030088
0.00291999
0.00283348
0.00275088
0.00267058
0.00259453
0.00252887
0.0099485
0.0095109
0.00909773
0.00870743
0.00833851
0.00799163
0.00766626
0.00736109
0.0070744
0.00680457
0.00655055
0.00631144
0.00608601
0.00585866
0.00562027
0.0053835
0.00526658
0.00501488
0.00484495
0.00470489
0.00456964
0.00443929
0.0043122
0.00418866
0.0040671
0.0039487
0.00383267
0.0037198
0.00360906