/*--------------------------------*- C++ -*----------------------------------*\
  =========                 |
  \\      /  F ield         | OpenFOAM: The Open Source CFD Toolbox
   \\    /   O peration     | Website:  https://openfoam.org
    \\  /    A nd           | Version:  7
     \\/     M anipulation  |
\*---------------------------------------------------------------------------*/
FoamFile
{
    version     2.0;
    format      ascii;
    class       volScalarField;
    location    "500";
    object      k;
}
// * * * * * * * * * * * * * * * * * * * * * * * * * * * * * * * * * * * * * //

dimensions      [0 2 -2 0 0 0 0];

internalField   nonuniform List<scalar> 
120313
(
1.15065
1.30929
1.40193
1.46311
1.49094
1.50202
1.50269
1.48911
1.46686
1.42047
1.37755
1.33009
1.2729
1.2163
1.17104
1.13119
1.09251
1.05312
1.01252
0.974549
0.936011
0.89526
0.846897
0.752281
1.24016
1.48211
1.59788
1.68049
1.71924
1.73807
1.74183
1.71492
1.68886
1.64984
1.6028
1.54435
1.48535
1.42706
1.37548
1.32558
1.27725
1.2291
1.18063
1.13386
1.08645
1.03078
0.960962
0.822083
1.22363
1.46222
1.58069
1.66688
1.70931
1.73113
1.74109
1.72049
1.69321
1.65369
1.60215
1.54302
1.48305
1.42421
1.37219
1.32232
1.27387
1.22584
1.17755
1.13048
1.08271
1.02524
0.952258
0.815453
1.21559
1.4534
1.57336
1.66215
1.70669
1.73059
1.74241
1.72555
1.69957
1.65918
1.60479
1.54496
1.48492
1.42558
1.37272
1.32253
1.27376
1.2254
1.17685
1.12953
1.08135
1.02331
0.949783
0.814386
1.21354
1.45149
1.57198
1.66138
1.70622
1.73066
1.74267
1.72631
1.70103
1.66035
1.60548
1.54536
1.48523
1.42564
1.37259
1.3223
1.27333
1.22493
1.17655
1.12937
1.0813
1.02327
0.949609
0.814475
1.21781
1.45672
1.57643
1.66488
1.70854
1.73171
1.74229
1.72331
1.69831
1.65885
1.6052
1.54514
1.48502
1.4257
1.37314
1.32303
1.274
1.22557
1.1772
1.12992
1.08214
1.02457
0.951371
0.815172
1.2336
1.47658
1.59365
1.68034
1.72178
1.74205
1.74714
1.72155
1.69892
1.66086
1.60993
1.5496
1.48957
1.43173
1.37939
1.32925
1.27981
1.23083
1.18189
1.13447
1.08711
1.03145
0.961021
0.822944
1.15737
1.32092
1.41754
1.48509
1.5156
1.52884
1.52954
1.51579
1.49275
1.44803
1.4024
1.35033
1.29267
1.23665
1.19128
1.14915
1.10857
1.06768
1.02623
0.987239
0.948676
0.907637
0.855601
0.759582
0.224345
0.419799
0.618297
0.827243
1.05051
1.29089
1.55035
1.82263
2.18766
2.42954
2.75022
2.99528
3.15305
3.2413
3.28184
3.28952
3.27394
3.24255
3.19505
3.13404
3.05049
2.95189
2.84325
2.72817
2.6162
2.50017
2.38611
2.27491
2.16987
2.07088
1.97271
1.88327
1.79387
1.71204
1.64435
1.59387
0.213323
0.408785
0.607396
0.815054
1.03574
1.2724
1.52479
1.7706
2.09523
2.98909
3.54463
3.88497
4.08696
4.17884
4.20751
4.20068
4.15974
4.10281
4.00766
3.92268
3.7957
3.65914
3.51121
3.36336
3.21428
3.0663
2.92271
2.78299
2.65208
2.52539
2.40176
2.29877
2.09444
1.98746
1.68845
1.57585
0.198825
0.395756
0.594554
0.801156
1.01903
1.25047
1.49327
1.71551
1.984
2.87009
3.59226
3.98594
4.20931
4.30359
4.32961
4.32054
4.25969
4.21113
4.11993
4.01457
3.87785
3.73301
3.58141
3.4292
3.27767
3.12727
2.98274
2.84097
2.70899
2.57997
2.45198
2.3443
2.06912
1.94009
1.67014
1.5633
0.189297
0.38777
0.586729
0.792203
1.0067
1.23163
1.46324
1.66559
1.90617
2.7964
3.57396
3.98976
4.21733
4.31594
4.34312
4.33901
4.28881
4.24161
4.14138
4.02488
3.88451
3.73556
3.58203
3.42976
3.27847
3.12834
2.98465
2.84396
2.71297
2.58564
2.45862
2.34519
2.04991
1.91423
1.6493
1.54896
0.189658
0.386378
0.585174
0.789899
1.00209
1.22258
1.44714
1.64003
1.87106
2.76575
3.55613
3.97872
4.20566
4.30852
4.33727
4.33533
4.29175
4.24394
4.13907
4.019
3.87501
3.72449
3.56977
3.41831
3.26746
3.11822
2.97562
2.8367
2.70775
2.58271
2.45827
2.344
2.0471
1.90623
1.64382
1.54666
0.189789
0.38445
0.582894
0.787329
0.998773
1.21783
1.44037
1.63112
1.86188
2.76031
3.54999
3.97317
4.20056
4.30384
4.33253
4.33106
4.28894
4.24122
4.13554
4.01476
3.86982
3.71902
3.56409
3.41305
3.26255
3.11408
2.97241
2.83421
2.70562
2.58085
2.45668
2.34245
2.04647
1.90627
1.64395
1.54741
0.185277
0.379411
0.577684
0.782729
0.995652
1.21711
1.44303
1.63801
1.87679
2.78192
3.55676
3.97433
4.20286
4.30289
4.33106
4.328
4.28098
4.2359
4.1333
4.01462
3.87117
3.72156
3.56772
3.41674
3.26634
3.11758
2.97524
2.83585
2.70573
2.57943
2.45344
2.34003
2.04694
1.91427
1.64894
1.55035
0.178843
0.373708
0.571698
0.777909
0.994212
1.2219
1.45758
1.66642
1.93168
2.85779
3.57603
3.97207
4.19907
4.29165
4.31921
4.31141
4.25527
4.21201
4.11736
4.00526
3.86527
3.71932
3.56742
3.41588
3.2651
3.11589
2.97263
2.83235
2.70142
2.57397
2.44722
2.339
2.06648
1.94259
1.66783
1.56285
0.181604
0.373614
0.570758
0.77851
0.999946
1.23783
1.49113
1.73214
2.05755
3.00815
3.571
3.91999
4.12263
4.20933
4.23538
4.22625
4.18536
4.1293
4.03676
3.94105
3.80735
3.66743
3.51773
3.36927
3.22045
3.07295
2.93018
2.79169
2.66159
2.5365
2.41383
2.30786
2.10368
2.00428
1.71317
1.59481
0.186552
0.374832
0.570389
0.778079
1.00184
1.24582
1.51227
1.78276
2.17835
3.10029
3.47688
3.78092
3.96201
4.04823
4.07814
4.07469
4.04026
3.9876
3.91998
3.83542
3.71683
3.5861
3.44459
3.30132
3.15912
3.01711
2.87836
2.745
2.61768
2.49806
2.38079
2.27801
2.1461
2.07135
1.76276
1.62711
0.187495
0.374941
0.570743
0.779475
1.00504
1.25112
1.51991
1.79617
2.16965
2.41206
2.70956
2.95128
3.10811
3.19768
3.24023
3.2509
3.2391
3.20937
3.16867
3.1133
3.02908
2.92514
2.81357
2.69909
2.5838
2.46882
2.35519
2.2462
2.14191
2.04362
1.94872
1.85976
1.77298
1.69821
1.64668
1.59871
0.178419
0.371058
0.569037
0.781382
1.01243
1.26581
1.54481
1.84919
2.23438
2.47344
2.78246
3.03161
3.19338
3.289
3.33487
3.347
3.33604
3.31053
3.2732
3.21751
3.136
3.0298
2.91417
2.79493
2.67379
2.55357
2.43561
2.32157
2.21201
2.10768
2.00792
1.91453
1.82637
1.74846
1.67944
1.61986
4.11656
4.61929
5.01631
5.26399
5.37183
5.38861
5.3439
5.26705
5.17562
5.06328
4.91585
4.7578
4.57473
4.38537
4.19315
3.99937
3.80907
3.62281
3.44567
3.27369
3.11497
2.96164
2.8171
2.70742
0.294163
0.516396
0.769692
1.05371
1.37306
1.7341
2.14307
2.59697
3.19057
4.06101
4.55999
4.95376
5.18159
5.28601
5.29782
5.25275
5.17826
5.08609
4.98136
4.8627
4.71044
4.5271
4.33499
4.1453
3.95067
3.76469
3.58056
3.40786
3.23914
3.08367
2.93368
2.79448
2.66441
2.56037
2.40712
2.28555
0.278515
0.499542
0.754322
1.03844
1.35806
1.72079
2.13325
2.58976
3.18787
4.04624
4.54795
4.9427
5.16221
5.25687
5.25532
5.20517
5.1289
5.03746
4.93591
4.81596
4.64998
4.47423
4.2808
4.09092
3.89789
3.7141
3.53354
3.36427
3.20042
3.04844
2.90169
2.77055
2.63416
2.50988
2.40886
2.28229
0.261808
0.481086
0.734949
1.0176
1.3355
1.69645
2.10678
2.559
3.13808
3.9902
4.51503
4.91475
5.14186
5.23459
5.23609
5.18906
5.11925
5.04336
4.93068
4.78844
4.61604
4.43493
4.24373
4.05505
3.86738
3.68522
3.50919
3.34153
3.1816
3.03152
2.88723
2.76019
2.6199
2.48592
2.38426
2.26218
0.24831
0.467102
0.719505
1.00012
1.31501
1.67175
2.07605
2.5188
3.08061
3.93318
4.4682
4.87292
5.10093
5.19963
5.2064
5.16546
5.10801
5.03724
4.90237
4.75227
4.57878
4.39329
4.20369
4.01594
3.83209
3.652
3.48034
3.31522
3.16064
3.01388
2.87378
2.75033
2.61016
2.47297
2.37198
2.251
0.243384
0.460097
0.710835
0.989831
1.30232
1.65557
2.05475
2.48991
3.04196
3.89586
4.43297
4.83901
5.06406
5.1713
5.17993
5.14423
5.09304
5.01671
4.87763
4.72342
4.54589
4.35936
4.16973
3.98383
3.80165
3.62409
3.4548
3.29346
3.14351
3.00123
2.86575
2.74597
2.60795
2.47102
2.3706
2.25004
0.240777
0.45513
0.704296
0.982202
1.29334
1.64502
2.04227
2.47517
3.0264
3.88481
4.42203
4.82899
5.05398
5.16273
5.17004
5.13606
5.08637
5.0083
4.8689
4.71324
4.53501
4.34831
4.15872
3.97363
3.79231
3.61656
3.44914
3.28905
3.13974
2.99778
2.86277
2.7432
2.60562
2.4693
2.36922
2.24886
0.236054
0.449315
0.697479
0.974879
1.28608
1.63876
2.0384
2.47552
3.03503
3.90097
4.43602
4.84379
5.07011
5.17272
5.18006
5.14233
5.08848
5.01641
4.8788
4.72616
4.54928
4.36345
4.17485
3.98957
3.80843
3.63141
3.46282
3.30002
3.14759
3.0023
2.86408
2.74174
2.60268
2.46669
2.36684
2.24617
0.232041
0.44536
0.693047
0.970655
1.28356
1.64003
2.04656
2.49464
3.0724
3.9449
4.47242
4.87836
5.10796
5.19609
5.20126
5.15797
5.09609
5.02769
4.901
4.75408
4.58036
4.39803
4.20942
4.02206
3.83799
3.65857
3.48674
3.32159
3.16486
3.01692
2.87464
2.74898
2.60953
2.47545
2.37469
2.25298
0.236307
0.447541
0.694706
0.973217
1.28937
1.65204
2.06901
2.53335
3.13828
4.01105
4.51842
4.91897
5.13755
5.22679
5.22526
5.17729
5.105
5.02299
4.9218
4.78349
4.61402
4.43551
4.24277
4.05451
3.86523
3.68413
3.5072
3.34087
3.18037
3.03137
2.88663
2.75823
2.62279
2.49321
2.39286
2.26962
0.243228
0.452291
0.698987
0.978382
1.29726
1.66454
2.08865
2.56428
3.18529
4.04743
4.53855
4.93164
5.14373
5.23601
5.23683
5.1876
5.11283
5.02226
4.92547
4.81262
4.64521
4.47052
4.27844
4.09049
3.89776
3.7151
3.53479
3.36693
3.20352
3.05336
2.90671
2.77543
2.64108
2.51716
2.41754
2.28939
0.244878
0.454441
0.70052
0.980178
1.3
1.66797
2.09173
2.56577
3.1805
4.05529
4.55932
4.95596
5.18349
5.28691
5.29891
5.25754
5.18718
5.09809
5.0008
4.88611
4.71507
4.53537
4.33818
4.14472
3.94675
3.75874
3.57271
3.39945
3.2309
3.07596
2.92648
2.79038
2.65302
2.54863
2.39661
2.27688
0.241196
0.452558
0.696857
0.975985
1.29545
1.66215
2.08342
2.55473
3.17118
4.04756
4.57783
4.98331
5.21758
5.32197
5.33781
5.3031
5.23988
5.15563
5.06049
4.93096
4.75649
4.57008
4.36766
4.16831
3.96593
3.77302
3.58325
3.4064
3.23511
3.07806
2.92752
2.79031
2.65379
2.55189
2.3999
2.27611
4.47866
4.97341
5.25868
5.39855
5.39788
5.29669
5.13352
4.93943
4.73306
4.54169
4.34125
4.16886
3.95529
3.7926
3.61826
3.45679
3.30118
3.1495
3.01676
2.86851
2.76124
2.62067
2.52684
2.45216
0.280659
0.475958
0.737943
1.08479
1.50414
1.9801
2.50081
3.06246
3.78286
4.52121
4.96976
5.29463
5.43496
5.44149
5.34809
5.19141
4.9996
4.79321
4.58753
4.39645
4.20798
4.0375
3.82042
3.6718
3.46311
3.33402
3.15099
3.0393
2.87474
2.78088
2.63297
2.54776
2.41817
2.36099
2.35499
2.28921
0.266638
0.459238
0.724888
1.07558
1.50295
1.99106
2.52322
3.09912
3.84098
4.52134
4.964
5.24627
5.38022
5.37592
5.27812
5.1209
4.93018
4.72619
4.52421
4.33973
4.14378
3.98404
3.75255
3.60906
3.40545
3.27896
3.10015
2.99089
2.83189
2.74032
2.60175
2.52347
2.3928
2.31629
2.18614
2.09321
0.252115
0.439323
0.699152
1.04604
1.47304
1.96199
2.49619
3.07828
3.81516
4.45148
4.89769
5.14347
5.25384
5.23555
5.12817
4.96587
4.77711
4.58398
4.39732
4.2264
4.00337
3.84363
3.65047
3.50114
3.33358
3.19646
3.04329
2.92556
2.78213
2.68694
2.55846
2.48573
2.36783
2.28955
2.15117
2.05328
0.239175
0.423003
0.676047
1.01653
1.43798
1.92214
2.45249
3.03194
3.76195
4.38293
4.82612
5.04276
5.13233
5.09806
4.97966
4.81283
4.6274
4.45479
4.25208
4.07752
3.88313
3.70308
3.53806
3.38311
3.2377
3.09911
2.96949
2.84822
2.73351
2.63372
2.52128
2.45109
2.34485
2.26878
2.12944
2.02943
0.232827
0.412636
0.660889
0.99682
1.41321
1.89397
2.42067
2.99551
3.72106
4.33501
4.77373
4.97517
5.05322
5.00904
4.88369
4.71287
4.53432
4.36295
4.1623
3.97744
3.78136
3.60811
3.44648
3.29935
3.16001
3.02843
2.90626
2.79522
2.6969
2.605
2.50619
2.44211
2.34225
2.2673
2.12641
2.02498
0.22918
0.406028
0.65094
0.983697
1.39716
1.87606
2.40076
2.97348
3.69921
4.31829
4.75811
4.95875
5.03365
4.98718
4.86027
4.68821
4.51036
4.33928
4.13745
3.94924
3.7546
3.58292
3.42181
3.27708
3.14096
3.01566
2.89872
2.78974
2.6917
2.60001
2.50225
2.4381
2.33833
2.26309
2.12157
2.0201
0.224911
0.4003
0.643826
0.974869
1.3865
1.86456
2.38987
2.96506
3.69654
4.33455
4.78069
4.99808
5.08063
5.03981
4.91623
4.74561
4.56169
4.39003
4.18528
4.00552
3.8082
3.63391
3.474
3.32775
3.19009
3.05911
2.93688
2.81946
2.71147
2.61231
2.50626
2.43571
2.33036
2.25395
2.11338
2.01249
0.222649
0.398421
0.640862
0.972179
1.38506
1.86458
2.39371
2.97437
3.7157
4.38124
4.8378
5.08522
5.1818
5.15089
5.0344
4.86665
4.67757
4.49477
4.29445
4.12173
3.91408
3.74779
3.58008
3.4236
3.27589
3.13825
3.00542
2.88393
2.75472
2.65856
2.53562
2.4636
2.34679
2.26639
2.12356
2.02236
0.227019
0.40229
0.645795
0.979231
1.39616
1.88027
2.41597
3.00464
3.75892
4.45253
4.92002
5.19514
5.30531
5.28367
5.1755
5.01154
4.8196
4.62115
4.42819
4.25632
4.03776
3.8804
3.66725
3.52704
3.3431
3.219
3.0532
2.94677
2.797
2.70741
2.57471
2.49946
2.37235
2.28856
2.14612
2.04673
0.233553
0.408303
0.653974
0.99123
1.41305
1.90195
2.44234
3.03562
3.79513
4.49342
4.97243
5.2697
5.3878
5.37074
5.26773
5.10814
4.91639
4.71407
4.51429
4.33196
4.13978
3.98282
3.75859
3.6175
3.41024
3.28773
3.10662
3.00149
2.8413
2.7509
2.60967
2.52907
2.39317
2.31006
2.17683
2.08111
0.234799
0.411327
0.656532
0.991997
1.41285
1.89987
2.43677
3.02376
3.77516
4.47374
4.95929
5.28233
5.40863
5.39717
5.2985
5.14068
4.95023
4.74894
4.55068
4.37405
4.17716
4.0199
3.78496
3.64265
3.43824
3.31256
3.1303
3.02131
2.85744
2.76516
2.61787
2.53537
2.39723
2.33845
2.32223
2.25361
0.231748
0.409564
0.648288
0.9762
1.38951
1.86351
2.38695
2.96309
3.7075
4.41646
4.8883
5.24513
5.38165
5.37657
5.27996
5.12367
4.93499
4.73623
4.54687
4.37564
4.15934
3.9956
3.77235
3.62497
3.43085
3.29892
3.12101
3.0079
2.8457
2.75007
2.60192
2.51937
2.38945
2.33725
2.32579
2.25813
2.42192
2.2288
2.07631
1.90975
1.76507
1.64596
1.54165
1.45184
1.36886
1.29961
1.23893
1.19157
1.14871
1.1166
1.08717
1.06931
1.04884
1.03855
1.023
1.01715
1.00442
0.999627
0.992697
0.964376
1.06979
1.96679
2.6169
2.95623
3.17786
3.40504
3.64207
3.83207
3.92802
2.42886
2.23384
2.07039
1.90829
1.75771
1.63626
1.52974
1.4388
1.35804
1.28801
1.22788
1.1786
1.13911
1.10569
1.07717
1.05361
1.03511
1.01928
1.00744
0.996735
0.988776
0.98249
0.981465
0.976038
0.945207
1.16443
1.26923
1.03037
2.03626
2.69755
3.02014
3.24183
3.46134
3.66094
3.86318
3.90557
2.33877
2.14315
1.98241
1.80988
1.67264
1.55884
1.46343
1.37608
1.30364
1.23736
1.18087
1.13252
1.09442
1.06103
1.03278
1.00921
0.991962
0.976739
0.967247
0.957862
0.952836
0.952959
0.955495
0.956058
0.946005
0.933783
0.897318
0.975757
1.99119
2.6307
2.98167
3.21237
3.41692
3.60854
3.8122
3.84187
2.26845
2.06856
1.88863
1.71258
1.57724
1.46767
1.37422
1.29193
1.2223
1.1603
1.10873
1.06623
1.02609
0.994046
0.967612
0.948005
0.933094
0.9231
0.915781
0.91278
0.912304
0.918463
0.924517
0.929086
0.920514
0.900941
0.860516
0.982225
1.93431
2.56524
2.93483
3.16818
3.37032
3.56038
3.76263
3.80376
2.22631
2.02263
1.82322
1.6397
1.50494
1.38964
1.30129
1.21429
1.15137
1.10147
1.05387
1.01429
0.977691
0.944935
0.916339
0.897024
0.880789
0.871383
0.865782
0.865635
0.867148
0.87702
0.887134
0.895711
0.887255
0.865811
0.823155
0.975876
1.87741
2.53656
2.90908
3.14159
3.34636
3.53821
3.73078
3.77368
2.20647
1.99707
1.78599
1.5987
1.46064
1.34596
1.25199
1.17299
1.11459
1.06556
1.02162
0.979821
0.943937
0.91189
0.883616
0.861076
0.846304
0.833839
0.830418
0.833065
0.839976
0.850863
0.868032
0.881278
0.875243
0.85301
0.810592
0.937576
1.85816
2.50545
2.89672
3.13192
3.33516
3.525
3.71172
3.7519
2.19151
1.98281
1.76786
1.58207
1.4438
1.33123
1.23572
1.16024
1.10342
1.05563
1.01148
0.969992
0.934377
0.902295
0.874953
0.851952
0.838047
0.8273
0.825689
0.828344
0.835369
0.846178
0.863532
0.875959
0.868514
0.845879
0.80163
0.896479
1.85159
2.52099
2.88986
3.12358
3.32613
3.51599
3.70206
3.74378
2.19641
1.98988
1.78436
1.60242
1.46815
1.35487
1.26322
1.18256
1.12273
1.07338
1.02864
0.987321
0.951309
0.920096
0.89232
0.872724
0.858418
0.851146
0.845798
0.846229
0.849508
0.859846
0.871902
0.878305
0.86614
0.841906
0.797458
0.929175
1.87658
2.50958
2.88914
3.11945
3.32056
3.51358
3.70398
3.75157
2.20524
2.01305
1.82557
1.65268
1.52035
1.40975
1.31864
1.2343
1.16625
1.11369
1.06434
1.02328
0.987651
0.955184
0.928584
0.91013
0.896524
0.889107
0.883645
0.882855
0.884068
0.889444
0.895705
0.896341
0.879456
0.853882
0.808895
0.973088
1.90193
2.53617
2.90206
3.1313
3.33343
3.52506
3.72491
3.76459
2.21174
2.03757
1.87179
1.70911
1.57958
1.47396
1.37999
1.29817
1.22769
1.16369
1.1101
1.06904
1.02911
0.997682
0.971782
0.952691
0.938545
0.929024
0.922165
0.917844
0.914696
0.91389
0.911398
0.909397
0.892541
0.869152
0.828804
1.0059
1.91756
2.57517
2.93827
3.15795
3.35888
3.55115
3.75627
3.78707
2.22147
2.05206
1.90094
1.74493
1.62024
1.51472
1.4233
1.34025
1.26939
1.20549
1.15037
1.10452
1.0686
1.03937
1.01423
0.994392
0.978918
0.966964
0.957432
0.950237
0.942959
0.939169
0.93069
0.927804
0.907196
0.890598
0.857475
0.970699
1.87821
2.53801
2.9213
3.15877
3.37823
3.58016
3.77602
3.80848
2.23443
2.06356
1.91519
1.76016
1.63639
1.53104
1.44097
1.35759
1.28868
1.22445
1.17179
1.1254
1.09167
1.05964
1.0359
1.01369
0.999919
0.984838
0.976616
0.96556
0.959099
0.95099
0.941996
0.93855
0.897451
1.08287
1.18336
0.913045
1.67422
2.35402
2.82568
3.09465
3.29625
3.51939
3.7091
3.79594
2.26668
2.08221
1.9258
1.76529
1.6394
1.53273
1.44329
1.3608
1.29157
1.2285
1.17605
1.13018
1.09456
1.06064
1.03712
1.01424
1.00135
0.986005
0.978437
0.967004
0.960578
0.951612
0.942623
0.939296
0.898123
1.09144
1.19225
0.0492106
0.062545
0.0737868
0.0821354
0.0883277
0.0930696
0.0966301
0.0993107
0.101263
0.103018
0.104452
0.10597
0.107507
0.109416
0.111651
0.114401
0.117494
0.121128
0.125067
0.129539
0.134204
0.139109
0.144387
0.136547
0.000997087
0.000974983
0.000953229
0.000931904
0.000911647
0.000893182
0.000900888
0.00110596
0.00171335
0.00253936
0.00551148
0.0151115
0.0369219
0.0480477
0.0412955
0.0555132
0.0672062
0.0761355
0.0827118
0.0877807
0.0916076
0.0945222
0.096726
0.0985056
0.100225
0.101728
0.103412
0.10529
0.107547
0.110127
0.113128
0.116479
0.120284
0.124437
0.128969
0.133904
0.138772
0.144174
0.13795
0.193678
0.231642
0.000997166
0.000974959
0.000953085
0.000931904
0.000911466
0.000893018
0.000879042
0.000926296
0.00107065
0.00147012
0.00353927
0.0100792
0.0247932
0.0372389
0.0363869
0.0497183
0.0606082
0.0686391
0.0748039
0.0796101
0.0833729
0.0862618
0.0885823
0.0904642
0.0920111
0.0935435
0.0950522
0.0967738
0.0987439
0.101063
0.103773
0.106882
0.110448
0.114423
0.11892
0.12406
0.129949
0.13569
0.141166
0.144752
0.1486
0.000997419
0.000975152
0.000952839
0.000931809
0.00091157
0.000891727
0.000875976
0.000887912
0.000961342
0.00127293
0.0028269
0.00778468
0.0196141
0.032363
0.0335958
0.0462256
0.056101
0.0632294
0.0686893
0.0729096
0.0761123
0.0786217
0.0804901
0.0819121
0.0831301
0.0843724
0.0855295
0.0868771
0.0884768
0.090469
0.0928814
0.0958027
0.0992146
0.103145
0.107713
0.11288
0.118755
0.124662
0.129668
0.13247
0.138933
0.000997289
0.000975066
0.000952986
0.000931696
0.000912127
0.000891646
0.000874746
0.000880458
0.00091993
0.00116887
0.00245225
0.00672774
0.0173953
0.0302689
0.0323017
0.0443988
0.0534446
0.0598188
0.0646253
0.068124
0.0708151
0.0726477
0.0740035
0.0751766
0.0762187
0.077347
0.0784044
0.0795864
0.0809132
0.0825947
0.0846015
0.0871039
0.0900938
0.0936831
0.0978236
0.10252
0.107881
0.113115
0.117759
0.120517
0.125234
0.000997327
0.000974966
0.000953187
0.000932133
0.000912066
0.000894004
0.000874467
0.000878766
0.000914054
0.00114728
0.00236566
0.00637554
0.0165005
0.0296596
0.0318548
0.0436744
0.0522698
0.0582201
0.0625994
0.0657123
0.0679743
0.069527
0.0707
0.0717132
0.0726488
0.0736009
0.0745027
0.0755304
0.0766989
0.0780914
0.079844
0.0819371
0.0846377
0.0879578
0.0919713
0.0965659
0.101752
0.106933
0.111723
0.115234
0.119002
0.000997407
0.000975175
0.000953083
0.000932336
0.000912218
0.000893654
0.00087448
0.000872691
0.000902002
0.00114151
0.0023501
0.00621546
0.0159991
0.0291917
0.0312033
0.0428432
0.0512394
0.0570617
0.0613238
0.0643678
0.0665375
0.0680659
0.0692395
0.0702223
0.0712256
0.0720956
0.0730237
0.0740131
0.075182
0.0765452
0.078299
0.0804304
0.0831912
0.0865355
0.090524
0.0950635
0.100154
0.105221
0.109893
0.112784
0.117364
0.000997547
0.000975452
0.000953448
0.000932355
0.000911459
0.000893542
0.000874474
0.000874757
0.000902227
0.00114029
0.00228913
0.00592564
0.0151602
0.0282237
0.031083
0.0427874
0.0513823
0.057432
0.0619691
0.0652504
0.0676978
0.0693924
0.0706664
0.0717622
0.0727538
0.0737808
0.0747578
0.0758774
0.0771502
0.0787403
0.0806992
0.0831492
0.0860468
0.0894742
0.0934582
0.0979076
0.102905
0.10767
0.111799
0.115204
0.118422
0.000997581
0.000975607
0.000953702
0.000932553
0.000911928
0.000892593
0.000874364
0.000874449
0.000899829
0.00110561
0.00217841
0.00579854
0.01513
0.0283004
0.0309809
0.0430537
0.0522444
0.0588962
0.0639765
0.0678081
0.0707175
0.07283
0.0743283
0.0755495
0.076726
0.0777927
0.0789476
0.0801946
0.0816518
0.0834956
0.0857435
0.0885154
0.0917562
0.095473
0.0997389
0.104403
0.10936
0.114105
0.117691
0.12147
0.124637
0.000997476
0.000975483
0.000953547
0.000932311
0.000912259
0.000892149
0.00087455
0.000872877
0.000898639
0.00110308
0.00216915
0.00573785
0.0146884
0.0275797
0.0308116
0.0432439
0.0531083
0.0604435
0.0661606
0.0706532
0.0740751
0.0767716
0.0787937
0.0802758
0.0816323
0.0828718
0.0841641
0.085584
0.0872981
0.0893913
0.0919356
0.0949417
0.0984179
0.102305
0.106592
0.111158
0.115869
0.120474
0.124373
0.12698
0.132944
0.000997421
0.000975384
0.000953594
0.000932479
0.000912335
0.000892365
0.000875055
0.000878981
0.000909698
0.0011386
0.00233948
0.0062057
0.0156622
0.0277988
0.0309452
0.0434707
0.05368
0.06139
0.0675231
0.0723795
0.0761915
0.0791938
0.0815576
0.0834549
0.0850239
0.0866041
0.0881728
0.0900065
0.0921363
0.0946462
0.0975595
0.100876
0.104575
0.10863
0.112981
0.117602
0.122285
0.126614
0.130822
0.134049
0.139469
0.000997647
0.000975427
0.000953453
0.000932099
0.000912147
0.000893865
0.000876662
0.000903969
0.000962758
0.0012121
0.00253858
0.00668343
0.0165673
0.028825
0.0322446
0.0447862
0.0550077
0.0627286
0.0688999
0.0738018
0.0777229
0.0808034
0.0833347
0.0853464
0.0872533
0.0889263
0.0908263
0.0928152
0.095188
0.0978624
0.101009
0.104442
0.108337
0.112456
0.116974
0.121643
0.126523
0.131442
0.124359
0.167366
0.194758
0.000997626
0.000975726
0.000953349
0.000931637
0.000911817
0.000893721
0.000887008
0.000985724
0.00140714
0.00201986
0.00422271
0.0103598
0.0233971
0.0338196
0.0345924
0.0469997
0.0571199
0.0646818
0.0706933
0.0754674
0.079293
0.0823215
0.0847998
0.0867888
0.0887245
0.0903945
0.0922552
0.0941783
0.0965163
0.0991261
0.102261
0.105672
0.109597
0.113727
0.1183
0.123011
0.127921
0.133143
0.123566
0.172934
0.206744
0.000751323
0.000761829
0.000782404
0.00081063
0.000845568
0.000886524
0.000932578
0.000983246
0.00103788
0.00109707
0.00116069
0.0012297
0.00130472
0.00138773
0.0014802
0.0015847
0.00170297
0.0018381
0.00199166
0.00216753
0.0023665
0.00258958
0.00282615
0.00277678
0.000997125
0.00097438
0.000951835
0.000930114
0.000909383
0.00088967
0.000870886
0.000852967
0.000835849
0.000819487
0.000803904
0.000788922
0.00077443
0.000760258
0.000746991
0.000753414
0.000769056
0.000792526
0.000822688
0.000858872
0.000900354
0.000946424
0.000996745
0.00105117
0.00111047
0.00117446
0.00124457
0.00132175
0.00140814
0.00150499
0.00161495
0.00173941
0.0018818
0.00204336
0.00222813
0.0024383
0.00268344
0.00292731
0.00280239
0.00444374
0.0053032
0.000996954
0.000973933
0.000951625
0.000930014
0.000909303
0.000889548
0.000870691
0.000852731
0.000835647
0.000819313
0.000803647
0.000788604
0.000774174
0.000760054
0.000744792
0.000748309
0.000759249
0.000776992
0.00080035
0.000829104
0.000862647
0.000900544
0.000942413
0.000988294
0.00103794
0.00109199
0.0011507
0.00121556
0.00128742
0.00136834
0.00145964
0.00156407
0.00168346
0.00182104
0.00198013
0.00216796
0.00239413
0.00266167
0.0029166
0.00318268
0.00338641
0.000996986
0.00097391
0.00095158
0.000929995
0.00090931
0.000889567
0.000870674
0.000852677
0.000835565
0.000819199
0.000803504
0.000788451
0.000774045
0.000759536
0.000743598
0.000745518
0.00075367
0.000767656
0.000786249
0.000809195
0.000836005
0.000866411
0.000899864
0.000936158
0.000975338
0.00101788
0.00106395
0.00111464
0.00117086
0.00123435
0.00130662
0.00139016
0.00148708
0.0016004
0.00173386
0.00189207
0.00208051
0.00229825
0.0025222
0.00275553
0.00298655
0.000997012
0.000973921
0.000951592
0.000930012
0.000909326
0.000889572
0.000870671
0.000852689
0.00083557
0.000819196
0.000803493
0.000788442
0.000774082
0.000759281
0.000743091
0.000744062
0.000750657
0.000762236
0.000777822
0.000796726
0.000818743
0.000843271
0.0008699
0.000898876
0.000930252
0.000964625
0.00100207
0.00104348
0.00108934
0.00114117
0.00119993
0.00126785
0.00134656
0.00143892
0.0015473
0.00167435
0.00182274
0.00198892
0.00216663
0.00235778
0.00254788
0.000997016
0.000973917
0.000951589
0.000930019
0.000909334
0.000889571
0.000870684
0.000852716
0.00083559
0.000819228
0.000803537
0.000788462
0.000774088
0.000759214
0.000742932
0.000743587
0.000749611
0.000760193
0.000774391
0.000791435
0.000811065
0.000832792
0.000856349
0.000881948
0.000909733
0.000940107
0.000973187
0.00100978
0.00105034
0.0010959
0.00114743
0.00120642
0.00127482
0.00135525
0.00144995
0.00156081
0.00168916
0.00183347
0.00199385
0.00216938
0.00234771
0.000997017
0.000973911
0.000951577
0.000930015
0.000909347
0.000889602
0.000870718
0.000852729
0.000835617
0.000819257
0.000803551
0.000788512
0.000774166
0.000759078
0.000742676
0.000742909
0.000748391
0.000758183
0.000771467
0.000787478
0.000805928
0.00082642
0.000848719
0.000872971
0.000899436
0.000928308
0.000959884
0.000994835
0.00103367
0.00107735
0.00112688
0.00118385
0.00125016
0.00132815
0.00141965
0.0015263
0.00164934
0.00178845
0.00194435
0.00211556
0.00228733
0.000996994
0.000973902
0.000951581
0.000930019
0.000909344
0.000889602
0.000870737
0.000852769
0.000835669
0.000819301
0.000803578
0.00078855
0.000774195
0.000759057
0.000742564
0.000742705
0.000748157
0.000758119
0.000771872
0.000788611
0.000808136
0.000829917
0.000853641
0.000879491
0.000907575
0.000938341
0.000971937
0.00100921
0.00105067
0.00109765
0.00115118
0.00121324
0.00128506
0.00136892
0.00146639
0.00157893
0.00170805
0.0018524
0.00201207
0.0021846
0.00236033
0.000997017
0.000973918
0.000951592
0.000930033
0.000909372
0.000889643
0.000870773
0.000852813
0.000835666
0.000819274
0.000803598
0.000788556
0.000774161
0.000759009
0.000742444
0.000742735
0.000748623
0.00075959
0.00077485
0.000793742
0.000815949
0.000840995
0.000868308
0.000897977
0.000930207
0.000965286
0.00100361
0.00104602
0.00109321
0.00114681
0.00120804
0.00127917
0.00136181
0.00145809
0.00157003
0.00169907
0.00184594
0.00200979
0.00218702
0.00237761
0.00257191
0.000997032
0.000973937
0.000951637
0.000930101
0.000909443
0.000889697
0.000870804
0.000852821
0.000835654
0.000819282
0.000803627
0.000788565
0.00077411
0.000758934
0.000742322
0.000742691
0.000749088
0.00076122
0.000778147
0.000799473
0.000824759
0.000853716
0.000885794
0.000920652
0.000958458
0.000999515
0.00104426
0.00109364
0.00114875
0.0012112
0.00128261
0.00136507
0.00146055
0.00157098
0.00169833
0.00184357
0.00200734
0.00218962
0.00238663
0.00260682
0.00282201
0.000997058
0.000974004
0.000951709
0.000930155
0.000909483
0.000889731
0.000870846
0.000852864
0.000835702
0.000819352
0.000803701
0.000788596
0.000774126
0.000758876
0.000742282
0.000742726
0.000749325
0.000762042
0.000779858
0.000802487
0.000829564
0.000860774
0.000895633
0.000934081
0.000975934
0.00102181
0.00107204
0.00112812
0.00119106
0.00126283
0.00134483
0.00143943
0.00154796
0.00167278
0.0018153
0.00197744
0.00215919
0.00236046
0.00257137
0.00281756
0.00304663
0.00099707
0.000974097
0.000951784
0.000930193
0.000909508
0.00088975
0.000870881
0.000852913
0.000835782
0.000819425
0.00080374
0.000788623
0.000774143
0.000759076
0.000742711
0.000743643
0.000750815
0.000764155
0.000782695
0.000806128
0.000834275
0.000866643
0.000903123
0.000943385
0.000987899
0.00103659
0.00109067
0.00115084
0.00121892
0.00129617
0.0013849
0.00148655
0.00160365
0.00173726
0.00189049
0.00206422
0.00226099
0.00248022
0.00235141
0.00361993
0.00428492
0.000997064
0.000974399
0.000951785
0.000930064
0.000909327
0.000889614
0.000870808
0.000852916
0.000835837
0.000819384
0.00080367
0.000788626
0.000774188
0.000759529
0.000743367
0.000745263
0.000753567
0.000768034
0.000787594
0.000812087
0.000841313
0.000874799
0.000912476
0.000953997
0.001
0.0010502
0.00110589
0.00116754
0.00123724
0.00131592
0.00140633
0.00150965
0.001629
0.00176502
0.00192167
0.00209952
0.00230183
0.00252908
0.00237641
0.0037162
0.00436648
0.000742511
0.000725142
0.000718004
0.000698972
0.000688104
0.000678
0.000668226
0.000658558
0.000649105
0.000639632
0.000630283
0.000620908
0.00061167
0.000602399
0.000593269
0.000584147
0.000575212
0.000566325
0.00055767
0.000549107
0.000540829
0.00053278
0.000525459
0.000518175
0.000996857
0.000974088
0.000951584
0.000929881
0.000909105
0.000889268
0.000870326
0.000852208
0.000834861
0.000818268
0.000802407
0.000787228
0.000772635
0.000757204
0.000740857
0.000725917
0.000716189
0.000701896
0.00068753
0.000677471
0.000667613
0.000658056
0.000648565
0.000639234
0.00062986
0.000620603
0.000611348
0.000602192
0.00059304
0.000584011
0.000575037
0.000566229
0.000557521
0.000549019
0.000540666
0.000532554
0.000524617
0.000516799
0.00051054
0.000507266
0.00050042
0.000996854
0.000973792
0.000951541
0.000930011
0.000909325
0.000889542
0.00087062
0.000852502
0.000835158
0.000818578
0.000802732
0.000787584
0.000773124
0.000756242
0.000738835
0.00072877
0.00071378
0.000705183
0.000687818
0.000677692
0.000667788
0.000658145
0.000648603
0.000639192
0.000629758
0.000620423
0.000611104
0.00060189
0.00059268
0.0005836
0.000574567
0.000565712
0.000556944
0.000548391
0.000539961
0.000531765
0.000523688
0.000515794
0.000508149
0.000500791
0.000494384
0.000996925
0.000973834
0.000951632
0.000930243
0.000909651
0.000889912
0.000870994
0.00085286
0.000835503
0.000818915
0.000803054
0.000787869
0.000773324
0.000755986
0.000738223
0.000729358
0.000713277
0.000705612
0.000689598
0.000677538
0.00066767
0.000658106
0.000648607
0.000639273
0.000629879
0.00062061
0.000611326
0.000602163
0.000592976
0.000583925
0.000574903
0.000566059
0.000557284
0.000548715
0.000540244
0.000531982
0.000523814
0.000515862
0.000508113
0.000500738
0.000494326
0.000996953
0.000973887
0.000951734
0.000930409
0.000909848
0.000890089
0.000871128
0.000852965
0.000835596
0.000818997
0.000803128
0.000787927
0.000773346
0.000755938
0.000738352
0.000729071
0.000713494
0.000705277
0.000691327
0.000677497
0.00066762
0.000658034
0.000648529
0.000639174
0.00062977
0.000620476
0.000611172
0.00060198
0.000592763
0.000583682
0.000574622
0.000565744