/*--------------------------------*- C++ -*----------------------------------*\
  =========                 |
  \\      /  F ield         | OpenFOAM: The Open Source CFD Toolbox
   \\    /   O peration     | Website:  https://openfoam.org
    \\  /    A nd           | Version:  7
     \\/     M anipulation  |
\*---------------------------------------------------------------------------*/
FoamFile
{
    version     2.0;
    format      ascii;
    class       volScalarField;
    location    "500";
    object      nut;
}
// * * * * * * * * * * * * * * * * * * * * * * * * * * * * * * * * * * * * * //

dimensions      [0 2 -1 0 0 0 0];

internalField   nonuniform List<scalar> 
120313
(
0.00166117
0.00198026
0.00208295
0.00214024
0.0021646
0.00217373
0.00217422
0.00216456
0.00214834
0.00211403
0.00208204
0.00204496
0.00200241
0.00195451
0.0019196
0.00188511
0.0018536
0.00181878
0.00178349
0.00174809
0.00171031
0.00166191
0.00158947
0.00133389
0.00192172
0.00257832
0.00274813
0.00284561
0.00288762
0.00290634
0.0029105
0.00288869
0.00286659
0.00283276
0.00279362
0.0027391
0.00268924
0.00263321
0.00258634
0.00253783
0.00249162
0.00244307
0.00239406
0.00234283
0.00228629
0.00220433
0.00207212
0.00155592
0.00193679
0.00262244
0.00281814
0.0029289
0.00297818
0.00300146
0.00301199
0.00299532
0.00297146
0.00293534
0.00289125
0.00283569
0.00278019
0.0027241
0.0026738
0.00262446
0.00257575
0.00252623
0.00247474
0.00242113
0.00235977
0.00226785
0.00211314
0.00157301
0.00193888
0.00263448
0.00283885
0.00295595
0.00300884
0.00303478
0.00304733
0.00303377
0.00301175
0.00297418
0.00292599
0.00287036
0.00281383
0.00275702
0.00270509
0.00265497
0.00260534
0.00255512
0.00250269
0.00244781
0.00238416
0.00228825
0.00212684
0.00157926
0.00193645
0.00263142
0.00283618
0.00295376
0.0030069
0.0030333
0.00304607
0.0030328
0.00301192
0.00297416
0.00292515
0.0028696
0.00281299
0.00275601
0.00270392
0.00265375
0.00260402
0.00255357
0.00250129
0.00244657
0.0023831
0.00228723
0.00212563
0.00157842
0.00192898
0.0026125
0.00280892
0.00292155
0.00297194
0.00299641
0.00300764
0.00299237
0.00297145
0.00293506
0.0028889
0.00283347
0.0027778
0.00272165
0.00267092
0.00262155
0.00257232
0.00252226
0.00247065
0.00241685
0.00235548
0.00226348
0.00210835
0.00156994
0.00190793
0.00256109
0.00273159
0.00283243
0.00287673
0.00289698
0.00290274
0.00288228
0.00286417
0.00282976
0.00278878
0.00273388
0.00268158
0.00262836
0.00258006
0.00253254
0.00248488
0.00243616
0.00238626
0.0023345
0.00227778
0.00219562
0.00206232
0.00154937
0.00164578
0.00196898
0.00207507
0.00213687
0.00216304
0.00217394
0.00217507
0.00216558
0.00214934
0.00211696
0.00208387
0.00204324
0.00200163
0.00195529
0.00192094
0.00188519
0.00185246
0.00181671
0.00178103
0.00174469
0.00170688
0.00165813
0.00158099
0.00132419
0.00162393
0.00290413
0.00399538
0.00496307
0.00584323
0.00660837
0.00717885
0.00745779
0.00872161
0.00917537
0.0102196
0.0110702
0.0116088
0.0119065
0.0120677
0.0121331
0.0121441
0.0121204
0.0120837
0.0120618
0.0119709
0.0118216
0.0116359
0.0113949
0.0111354
0.010831
0.0105262
0.0102176
0.00993106
0.00966003
0.00936778
0.00912393
0.00885134
0.00861532
0.00847854
0.00837548
0.00155603
0.00283579
0.00393085
0.0048908
0.00574353
0.00645387
0.00692797
0.00701508
0.00780149
0.0121988
0.0145489
0.01576
0.0164573
0.0167682
0.0168727
0.0168698
0.0167734
0.0166235
0.0165206
0.0164607
0.0163137
0.0160632
0.0157676
0.015452
0.0151065
0.0147532
0.0143896
0.0140322
0.013676
0.0133357
0.0129533
0.0127633
0.0114958
0.011254
0.0086905
0.00812003
0.00147998
0.00277726
0.00388549
0.00485225
0.00569851
0.00638404
0.0068021
0.00674217
0.00708384
0.0112448
0.0144479
0.0158945
0.0167618
0.0170057
0.0170522
0.016974
0.016823
0.0167769
0.0167203
0.0166043
0.0163421
0.0161039
0.0158095
0.0154912
0.0151567
0.0148179
0.0144732
0.0141301
0.013787
0.013457
0.0130671
0.0128637
0.0109286
0.0105789
0.00825633
0.00784896
0.00141939
0.00273597
0.00385445
0.00482612
0.00566507
0.00632291
0.00668617
0.00653399
0.00668921
0.0107976
0.014295
0.0158189
0.0165606
0.016832
0.0168576
0.0167499
0.0166825
0.0167072
0.0165985
0.0164332
0.0161992
0.0159254
0.0156245
0.0153098
0.0149854
0.0146586
0.0143301
0.0140066
0.0136866
0.0133767
0.0130154
0.0127462
0.0106837
0.0102224
0.00805986
0.00769164
0.00141732
0.00272232
0.00383892
0.00480838
0.00563887
0.00627675
0.00661183
0.00643274
0.00653671
0.0106448
0.0141955
0.0157482
0.0164176
0.0166984
0.0167026
0.0165692
0.0166132
0.0166261
0.0165004
0.0163126
0.0160657
0.0157836
0.0154781
0.0151679
0.0148447
0.0145301
0.0142081
0.0139054
0.0136031
0.0133152
0.0129794
0.0126961
0.0106418
0.0100988
0.00799434
0.00764621
0.00142142
0.00271151
0.00382444
0.00479356
0.00562237
0.00625531
0.00658351
0.00639945
0.00650206
0.0106251
0.0141703
0.01572
0.0163885
0.0166659
0.0166612
0.0165211
0.0165897
0.0165961
0.0164696
0.0162765
0.016025
0.0157408
0.0154334
0.0151258
0.0148049
0.0144983
0.014185
0.0138865
0.0135874
0.0132992
0.0129649
0.0126802
0.0106301
0.0101016
0.00797437
0.00763605
0.0013996
0.00268848
0.00380173
0.00477651
0.0056149
0.00626206
0.00660539
0.00643278
0.00657222
0.0107459
0.0142294
0.0157421
0.016482
0.0167455
0.0167501
0.0166212
0.0166119
0.0166388
0.0165282
0.0163402
0.016091
0.0158118
0.0155112
0.0152016
0.0148865
0.0145689
0.0142529
0.0139374
0.0136253
0.0133194
0.0129653
0.0126912
0.0106408
0.0102131
0.00800386
0.00765326
0.00136592
0.00266638
0.00377902
0.00476196
0.00561837
0.00629935
0.00668695
0.00655948
0.0068283
0.0112046
0.0144089
0.0157765
0.0166945
0.0169048
0.0169269
0.0168215
0.0166642
0.0167098
0.0166513
0.0164637
0.0162063
0.0159587
0.0156645
0.0153505
0.0150248
0.0146965
0.0143625
0.0140297
0.0136965
0.0133745
0.0129942
0.0127805
0.0108649
0.0105494
0.00813267
0.00774236
0.00138674
0.00266509
0.00376412
0.00474672
0.00562015
0.00634678
0.00681649
0.00682911
0.00750147
0.0122503
0.0146009
0.0157609
0.0165922
0.0168003
0.0168365
0.0167717
0.0166546
0.0165139
0.016516
0.0164079
0.0161895
0.0159523
0.0156586
0.015346
0.0150066
0.0146619
0.0143116
0.0139682
0.0136256
0.0132979
0.0129296
0.0127107
0.0114307
0.0113274
0.00860073
0.00801865
0.00142731
0.00267678
0.00376212
0.00474091
0.00562368
0.00638429
0.00692975
0.00709786
0.00830885
0.013301
0.0144827
0.0155191
0.0161519
0.0164373
0.0165424
0.0165467
0.0164512
0.0163005
0.0162024
0.0161759
0.0160287
0.015798
0.0155088
0.0152093
0.014865
0.0145117
0.0141504
0.0138011
0.0134529
0.0131208
0.0127708
0.0124929
0.0118983
0.0121138
0.00907357
0.00831056
0.00143685
0.00267905
0.00376837
0.00475803
0.00565891
0.00644382
0.00701938
0.00724079
0.00854127
0.00888723
0.00973005
0.0105955
0.0111025
0.0113892
0.0115435
0.0116099
0.0116259
0.0115918
0.0115835
0.0115778
0.0115044
0.011347
0.0111564
0.0109308
0.0106667
0.0103813
0.0100833
0.00979973
0.00952321
0.00926197
0.00899972
0.00875407
0.00849121
0.00832041
0.00831339
0.00830476
0.00138536
0.00267915
0.00379635
0.0048173
0.00576801
0.00664026
0.00736639
0.00789494
0.0092132
0.00964333
0.0105803
0.0114264
0.011959
0.0122606
0.0124172
0.0124736
0.0124746
0.012485
0.0125136
0.0125204
0.0124606
0.0122885
0.0120835
0.0118281
0.0115403
0.0112343
0.0109235
0.0106188
0.0103227
0.0100354
0.00975045
0.00948367
0.00922675
0.0090156
0.00886264
0.00868439
0.0159448
0.0173429
0.0181428
0.0187436
0.0190141
0.0191488
0.0191484
0.019255
0.0194589
0.0195447
0.0195013
0.0194231
0.0192113
0.0189579
0.0186652
0.0183346
0.0179888
0.0176234
0.0172693
0.0168929
0.0165514
0.0161875
0.0158108
0.0156589
0.00289986
0.00479518
0.00642088
0.00786154
0.00917634
0.0104019
0.0116229
0.0128801
0.0142899
0.0159727
0.0172075
0.0180177
0.0185372
0.0187957
0.0188811
0.0188399
0.0189098
0.0190909
0.0192888
0.0194983
0.0192943
0.0190978
0.0188036
0.0185171
0.0181532
0.0178186
0.017437
0.0170937
0.0167124
0.0163822
0.0160166
0.0157018
0.0153556
0.0152384
0.0146729
0.0142626
0.00277271
0.00467976
0.00632911
0.00776734
0.00906659
0.0102715
0.0114733
0.0127015
0.0140997
0.0156052
0.0168553
0.017673
0.0181713
0.0184
0.0184379
0.0183998
0.0184963
0.0187053
0.0189719
0.0191078
0.0189387
0.0187686
0.0184605
0.0181641
0.0177957
0.0174628
0.0170871
0.016755
0.0163867
0.0160755
0.0157151
0.0154772
0.0150767
0.0148041
0.0145236
0.0141425
0.00264965
0.00456327
0.0062304
0.00767213
0.00896223
0.0101445
0.0113056
0.0124582
0.0137231
0.0150988
0.0164338
0.0172475
0.0177862
0.0180155
0.018102
0.0181492
0.018379
0.0187219
0.0187998
0.0187984
0.0186097
0.0183959
0.0181029
0.0178074
0.0174747
0.0171474
0.0167989
0.0164732
0.0161257
0.0158281
0.015477
0.0152857
0.0148629
0.014531
0.0142592
0.0139086
0.00254384
0.00447181
0.0061499
0.00759657
0.00887827
0.0100373
0.0111533
0.0122248
0.013388
0.014765
0.0161295
0.0169477
0.0174705
0.0177414
0.0178885
0.0180376
0.0183728
0.018703
0.0185616
0.0185086
0.0183262
0.0180781
0.0177943
0.0174967
0.0171839
0.0168666
0.0165425
0.0162315
0.0159202
0.0156464
0.0153254
0.01516
0.0147462
0.0143964
0.0141312
0.013816
0.00250147
0.00441878
0.00609382
0.00754195
0.0088171
0.00996198
0.0110504
0.0120754
0.0131938
0.0145913
0.0159571
0.0167739
0.0172726
0.0175968
0.0177714
0.0180202
0.0183242
0.01861
0.0184298
0.0183367
0.0181264
0.017869
0.0175738
0.0172862
0.0169598
0.0166795
0.0163484
0.0161022
0.0158095
0.015598
0.0153046
0.0151723
0.0147679
0.0144096
0.0141414
0.0138457
0.00248429
0.0043851
0.0060528
0.0075023
0.00877643
0.00991897
0.0110003
0.0120139
0.0131312
0.0145538
0.0159174
0.0167338
0.0172293
0.0175623
0.0177318
0.0180055
0.0183042
0.0185707
0.0183932
0.018289
0.0180726
0.0178117
0.0175082
0.0172309
0.0169035
0.0166527
0.0163384
0.0160936
0.0158044
0.0155865
0.015293
0.0151612
0.0147558
0.0144001
0.014131
0.0138416
0.0024532
0.00434986
0.00601842
0.00747285
0.00875459
0.00990833
0.0110048
0.0120418
0.0131991
0.0146713
0.0160276
0.0168447
0.0173469
0.0176386
0.0177951
0.0179967
0.0183129
0.0186344
0.0184743
0.0183899
0.0181816
0.0179259
0.0176441
0.0173546
0.017058
0.016754
0.0164524
0.0161493
0.015852
0.0155792
0.0152676
0.0151035
0.0146915
0.0143469
0.0140876
0.0137879
0.00242748
0.00432796
0.0059986
0.00745879
0.00875635
0.00993656
0.0110758
0.0121809
0.0134394
0.0149803
0.0163011
0.0171112
0.017644
0.0178406
0.0179552
0.0180358
0.018358
0.0187075
0.0186831
0.0186259
0.0184278
0.0181972
0.0179183
0.0176209
0.017308
0.0169905
0.0166663
0.0163482
0.0160176
0.015726
0.0153825
0.0151932
0.0147711
0.0144353
0.0141672
0.0138396
0.00246849
0.00434147
0.00600118
0.00746273
0.00877943
0.0099986
0.0112057
0.0124255
0.0138646
0.0154833
0.0167035
0.0175089
0.0179888
0.0181835
0.0182321
0.018235
0.018384
0.0186942
0.0189175
0.0189098
0.018741
0.0185425
0.0182345
0.0179413
0.0175922
0.0172681
0.0169074
0.0165854
0.0162308
0.0159308
0.0155771
0.0153533
0.0149556
0.0146501
0.0143761
0.0140107
0.00253425
0.00437471
0.00602029
0.00748255
0.00881699
0.0100707
0.0113401
0.0126733
0.0142811
0.0159248
0.0170439
0.0178415
0.018281
0.0184849
0.018531
0.0184881
0.0185827
0.018777
0.0190621
0.0192486
0.01905
0.0188919
0.018593
0.0183045
0.0179292
0.0175952
0.0172115
0.0168793
0.0165071
0.0161938
0.0158288
0.0155594
0.015164
0.0149064
0.0146266
0.0142206
0.00255588
0.00439478
0.00603952
0.00751249
0.00886644
0.0101432
0.0114359
0.0127959
0.0143551
0.0160177
0.0171781
0.0179749
0.0184697
0.0187089
0.0188027
0.0188061
0.018925
0.0191459
0.0193963
0.0196252
0.0192705
0.0191356
0.0188329
0.0185392
0.0181616
0.0178199
0.0174265
0.0170808
0.0166948
0.0163666
0.0159927
0.0157039
0.0152791
0.0151753
0.0146032
0.0141938
0.00254135
0.00440307
0.00605252
0.00754404
0.00892306
0.0102218
0.0115154
0.0128357
0.0143114
0.0158449
0.0170234
0.0178105
0.0183064
0.0185298
0.0186499
0.0187118
0.0189378
0.0192495
0.0194205
0.0196075
0.0192444
0.0190844
0.0187796
0.0184783
0.018106
0.0177597
0.017368
0.0170185
0.0166325
0.0163011
0.0159286
0.0156396
0.0152178
0.0151571
0.0146386
0.0142292
0.0118064
0.0139229
0.0148815
0.0155461
0.015772
0.0157647
0.0156466
0.0154753
0.015282
0.0151876
0.0150124
0.0150104
0.0146492
0.0145792
0.0143588
0.0141745
0.0139837
0.0137473
0.0136242
0.0132715
0.01326
0.0128283
0.0127833
0.0128333
0.00309254
0.00439806
0.0055492
0.00668462
0.00772545
0.00877744
0.00986513
0.0110882
0.0118383
0.0119276
0.0139313
0.015076
0.0157393
0.0159913
0.0159977
0.0158945
0.0157229
0.0155251
0.0153453
0.0152485
0.0151216
0.0150924
0.0146211
0.0146265
0.0140695
0.0141189
0.0136246
0.0136984
0.0132119
0.0133246
0.0128496
0.0129367
0.0124891
0.0127682
0.0128917
0.0130059
0.00296805
0.0042697
0.00541432
0.00652295
0.00753438
0.00858157
0.00970007
0.0109741
0.0118433
0.0117909
0.0138379
0.0148207
0.0154753
0.0156982
0.0157287
0.0156413
0.0154804
0.0153005
0.0151586
0.0150995
0.0149049
0.0149412
0.0143466
0.0143734
0.013829
0.0138706
0.0133864
0.0134562
0.0129941
0.0131033
0.0126857
0.0128224
0.0123778
0.0124784
0.011894
0.0117308
0.00286199
0.00416101
0.00530699
0.00640868
0.00739196
0.00843291
0.00955872
0.0108522
0.0117478
0.0115421
0.0135916
0.0144327
0.014972
0.0151586
0.0151835
0.0150875
0.0149464
0.0148457
0.01477
0.014789
0.0143853
0.0143865
0.0140394
0.0139691
0.0136732
0.0135679
0.0132534
0.0132013
0.012837
0.0128724
0.0125019
0.01265
0.0122843
0.012361
0.0117252
0.0114687
0.00276381
0.00407476
0.00522046
0.00632728
0.00729529
0.00832087
0.00943671
0.0107172
0.0115994
0.0113257
0.0133506
0.0140794
0.0145377
0.0146791
0.0146675
0.0145617
0.0144607
0.014473
0.0142723
0.0142535
0.014028
0.0138296
0.01366
0.0135002
0.0133362
0.0131769
0.0130079
0.0128793
0.0127235
0.0126738
0.0124041
0.0125326
0.0122407
0.0123261
0.0116809
0.0113986
0.00271294
0.00401711
0.00515109
0.00626449
0.00722943
0.00823986
0.00934758
0.0106139
0.0114844
0.0111865
0.0131925
0.0138567
0.0142798
0.0143898
0.0143524
0.0142333
0.0141777
0.0141946
0.0140053
0.0138978
0.013649
0.0134709
0.0132599
0.0131827
0.0128945
0.012997
0.0126599
0.0129451
0.0126705
0.0129501
0.0126121
0.0127975
0.0124766
0.0125253
0.0118259
0.0115123
0.00268714
0.00397449
0.00509945
0.00621432
0.00718044
0.00818409
0.0092892
0.0105498
0.011421
0.0111336
0.0131447
0.0138027
0.0142126
0.0143171
0.0142747
0.0141517
0.014104
0.0141241
0.0139276
0.0137934
0.0135499
0.0133711
0.0131071
0.0131207
0.0127888
0.0130998
0.0127539
0.0129973
0.0127103
0.0129628
0.0126211
0.0128257
0.0124899
0.0125279
0.0118187
0.0115016
0.00265918
0.00393966
0.00505774
0.00617759
0.00715004
0.00815447
0.00926233
0.0105273
0.0114184
0.011194
0.0132281
0.013949
0.0143752
0.014496
0.0144657
0.0143466
0.0142629
0.0142821
0.0140701
0.0140054
0.013752
0.0135718
0.0134171
0.013298
0.0131698
0.0130448
0.0129173
0.0127873
0.0126732
0.0125986
0.0123738
0.0124802
0.0121888
0.0122707
0.0116152
0.0113279
0.00264221
0.00392747
0.00504884
0.0061628
0.00714239
0.0081586
0.00927736
0.0105645
0.0114946
0.0113645
0.0134324
0.0142705
0.0147325
0.014881
0.0148755
0.0147633
0.0146425
0.0146047
0.0144303
0.0144366
0.0141257
0.0140323
0.0138466
0.0136787
0.0135064
0.0133504
0.0131677
0.0130375
0.0127681
0.0127621
0.0124171
0.0125506
0.0121864
0.0122515
0.011584
0.0113095
0.00267874
0.00393902
0.00505723
0.00617074
0.00716082
0.00819745
0.0093361
0.0106571
0.0116313
0.0115915
0.0137046
0.0146414
0.0151683
0.0153373
0.0153604
0.0152592
0.015106
0.0149868
0.0148896
0.0149037
0.0145303
0.0145609
0.0140615
0.0140704
0.0136356
0.0136434
0.0132173
0.0132691
0.012849
0.0129457
0.0125496
0.0126939
0.0122652
0.0123109
0.0116349
0.0114172
0.00272991
0.00396549
0.00507589
0.00618067
0.00718633
0.00824683
0.0094034
0.0107411
0.0117161
0.0117074
0.0138585
0.0148801
0.0154577
0.0156335
0.015674
0.0155926
0.0154396
0.015288
0.0151641
0.0151158
0.0149365
0.0149764
0.0144164
0.0144499
0.0138581
0.0139212
0.0134034
0.0135036
0.0130246
0.0131464
0.012707
0.0128313
0.0123429
0.0123922
0.0118205
0.0116125
0.00274916
0.00399279
0.00511068
0.00622624
0.0072452
0.00831249
0.00945885
0.010762
0.0116531
0.0116635
0.013807
0.0149202
0.0155229
0.0157139
0.0157643
0.0156871
0.0155383
0.015384
0.0152672
0.0152562
0.0150423
0.0150939
0.01447
0.0145046
0.0139556
0.0140088
0.0135036
0.0135858
0.0130963
0.0132152
0.0127433
0.0128565
0.0123564
0.012459
0.0126535
0.0127269
0.00276522
0.00404373
0.00517586
0.00630692
0.00733713
0.00842252
0.00954779
0.0107806
0.0115513
0.0115703
0.013613
0.0148316
0.015449
0.015646
0.0156907
0.0156104
0.0154653
0.0153207
0.0152446
0.0152664
0.0149153
0.0149295
0.0143971
0.0143904
0.0139305
0.0139301
0.0134672
0.0135138
0.013044
0.0131324
0.0126543
0.0127586
0.0123345
0.0124829
0.01271
0.0128038
0.00443163
0.00449842
0.0045811
0.00454316
0.00455671
0.00462182
0.00464885
0.00467298
0.00465871
0.00467651
0.00466749
0.00468421
0.0047021
0.00476145
0.00483353
0.00494354
0.0050291
0.00515618
0.00524661
0.00538743
0.00547141
0.00562619
0.0057134
0.00582909
0.00191329
0.00234486
0.00297618
0.00350725
0.00407882
0.00475094
0.00549281
0.00619277
0.00654181
0.00441622
0.0044861
0.00455043
0.00453304
0.00451444
0.00457408
0.00460189
0.00462162
0.0046198
0.00462949
0.00462205
0.00462183
0.00465314
0.00470358
0.00477364
0.00485606
0.0049472
0.00504566
0.0051524
0.00526456
0.00537878
0.00551171
0.00569105
0.00579511
0.00589219
0.00714026
0.00784558
0.00190951
0.00237617
0.00301352
0.00351829
0.00408907
0.00473408
0.00541388
0.00616587
0.00648023
0.00426167
0.00429946
0.00435846
0.00428542
0.00432569
0.00438202
0.00443162
0.0044378
0.00447255
0.00444603
0.00441665
0.00440156
0.00442418
0.00446269
0.00452033
0.00460049
0.00470614
0.00480666
0.00493209
0.00504194
0.00518167
0.00534746
0.00555983
0.00568871
0.00584996
0.00588394
0.00598158
0.00180625
0.00230519
0.00292778
0.0034552
0.00401888
0.00463964
0.00529882
0.00605888
0.00635458
0.00413375
0.00414761
0.00413719
0.00405636
0.00410581
0.00415704
0.00417665
0.00420844
0.00418
0.00413121
0.00410205
0.00410515
0.00409667
0.00412507
0.0041776
0.00426512
0.0043782
0.00451753
0.00465389
0.00481027
0.00497528
0.00518183
0.00539277
0.00554927
0.00570292
0.00570461
0.00571868
0.0017512
0.00224682
0.00285418
0.00338928
0.00394002
0.00454632
0.00520233
0.00595669
0.00626603
0.00404066
0.00404505
0.00396857
0.00387508
0.0039185
0.00392678
0.00397421
0.00392865
0.00390969
0.00391321
0.00389461
0.00390234
0.00390448
0.00391356
0.00393544
0.00401151
0.00409848
0.00423212
0.00438443
0.00455925
0.00472839
0.00495637
0.00518152
0.00535432
0.00550627
0.00549609
0.00548723
0.0017627
0.00218359
0.00282064
0.00335398
0.00389692
0.0045035
0.0051662
0.00589202
0.00620852
0.00400202
0.00399155
0.00387643
0.0037753
0.00380209
0.00380287
0.00382531
0.00379812
0.00378852
0.00378695
0.00378284
0.00376976
0.00376967
0.00377736
0.00378512
0.00383135
0.00391272
0.00402215
0.00419062
0.00438527
0.0045984
0.0048123
0.00509725
0.00530642
0.00547774
0.005458
0.00544856
0.00169913
0.00215966
0.00278929
0.00333257
0.00387946
0.00448527
0.00514065
0.00584909
0.00615468
0.00396981
0.00396082
0.00383002
0.00373481
0.00375712
0.0037613
0.00377536
0.00375741
0.00375197
0.00375127
0.00374625
0.00373149
0.00372973
0.00373536
0.0037444
0.00378789
0.0038769
0.00400134
0.00418178
0.00437251
0.00458516
0.00479597
0.00508313
0.00528567
0.0054453
0.00542331
0.00539144
0.00165779
0.00213958
0.00279635
0.00332148
0.00386167
0.00445827
0.00511316
0.00581798
0.00612675
0.00397864
0.00397784
0.00387197
0.00378458
0.00382229
0.00382871
0.00385952
0.00382856
0.00381466
0.00381365
0.00380653
0.00379831
0.00379839
0.00381192
0.00382994
0.00389452
0.0039876
0.00412735
0.00427729
0.00445457
0.0046369
0.00486196
0.00510523
0.00526261
0.00538663
0.00535273
0.00532182
0.00166513
0.00216255
0.00278966
0.00331413
0.00384373
0.00444355
0.00510125
0.00581835
0.00613966
0.00399511
0.00402413
0.003976
0.00390952
0.00395952
0.00398979
0.00402224
0.00400474
0.00396674
0.00395852
0.00393621
0.00393661
0.00394777
0.00395842
0.00399526
0.0040784
0.00418442
0.00433768
0.00448336
0.0046511
0.00482671
0.00501218
0.00522829
0.00535123
0.00544862
0.00540712
0.00536988
0.00174797
0.00219964
0.0028066
0.00332308
0.00385215
0.00445352
0.00510229
0.00583992
0.00614206
0.00400341
0.0040755
0.00409426
0.0040503
0.00411446
0.00417712
0.00419594
0.00422876
0.00420417
0.00414459
0.00410962
0.00411913
0.00411304
0.00414322
0.00419976
0.00428742
0.00440822
0.00454312
0.00468382
0.00482092
0.00496956
0.0051092
0.00526302
0.00538703
0.00549016
0.00546691
0.00546995
0.00177665
0.00222103
0.00285492
0.00336297
0.00388118
0.00449183
0.00514159
0.00588328
0.00615849
0.00401769
0.00410022
0.00416294
0.00413181
0.00421736
0.0042836
0.00432405
0.00434636
0.00435314
0.00431779
0.0042829
0.0042719
0.00429787
0.00435183
0.00442204
0.00451702
0.00463347
0.00474945
0.00487408
0.00499397
0.00512115
0.00524394
0.00536725
0.00548896
0.00557204
0.00558769
0.00565376
0.00176641
0.00218506
0.00282682
0.00336384
0.00390499
0.00453571
0.00519235
0.00589195
0.00617141
0.00401469
0.00410067
0.00417656
0.00415299
0.00424422
0.00431524
0.00436928
0.00438756
0.00441907
0.00438739
0.00437504
0.00436271
0.0044066
0.00445005
0.00453124
0.00462226
0.00474372
0.00484329
0.00497526
0.0050738
0.00521126
0.00530314
0.00544063
0.00553453
0.00555052
0.0066351
0.00730284
0.00159116
0.00201648
0.00267221
0.00331508
0.00388651
0.0044977
0.0051983
0.00584308
0.00619791
0.00406383
0.00412166
0.00418385
0.00415061
0.00424171
0.00431483
0.00436943
0.00439565
0.00442205
0.00439406
0.0043812
0.0043717
0.00440602
0.00443916
0.00452293
0.00461099
0.00474042
0.00484229
0.00497977
0.00507873
0.0052174
0.00530548
0.00544288
0.00553814
0.00555555
0.00670232
0.00737521
0.000122914
0.000168497
0.000214217
0.00025534
0.00029325
0.000329569
0.000363891
0.000396612
0.000427475
0.000458319
0.000488408
0.000519226
0.000550677
0.000584743
0.00062158
0.000662558
0.000706708
0.000755568
0.000807843
0.000865355
0.000925118
0.000987544
0.00105508
0.00102002
8.97509e-06
9.1343e-06
9.19302e-06
9.17339e-06
9.1658e-06
9.14376e-06
7.56253e-06
4.03051e-06
3.78487e-06
5.39617e-06
1.16919e-05
3.22195e-05
7.93761e-05
0.000103569
0.000102466
0.000149026
0.000194649
0.000236393
0.000274303
0.000310558
0.000344828
0.000377443
0.000408407
0.000438691
0.000468967
0.000498865
0.000530113
0.000563136
0.000599122
0.000638052
0.000680624
0.000726597
0.000777058
0.00083126
0.000889207
0.000951945
0.00101496
0.00108811
0.00106136
0.00152624
0.00191455
8.97625e-06
9.15059e-06
9.18709e-06
9.18774e-06
9.16229e-06
9.17228e-06
8.71408e-06
6.20199e-06
4.53505e-06
4.47123e-06
8.28612e-06
2.25405e-05
5.58464e-05
8.20337e-05
9.1427e-05
0.000134482
0.000176459
0.000213788
0.00024904
0.000282865
0.000315381
0.000346165
0.000376195
0.000404836
0.000432379
0.000459895
0.000487994
0.000517751
0.000549719
0.000584728
0.000623367
0.000665709
0.000712607
0.000763578
0.000819938
0.000882865
0.000954105
0.00102214
0.00109768
0.00115091
0.00122835
8.9806e-06
9.15664e-06
9.18786e-06
9.2003e-06
9.17136e-06
9.12581e-06
8.99354e-06
7.47718e-06
5.46018e-06
4.56697e-06
7.05804e-06
1.77864e-05
4.51253e-05
7.20932e-05
8.46757e-05
0.000125236
0.000163412
0.000197029
0.00022902
0.000259657
0.000288582
0.000316541
0.000342603
0.000366854
0.000390456
0.000414285
0.000438118
0.000463353
0.000490685
0.000521207
0.000555502
0.000594301
0.000638092
0.000686925
0.000742047
0.000803705
0.000873115
0.000944649
0.00101337
0.00105776
0.00115858
9.03385e-06
9.19349e-06
9.2221e-06
9.19591e-06
9.1819e-06
9.14117e-06
9.0604e-06
7.74643e-06
6.13248e-06
4.7605e-06
6.4365e-06
1.56192e-05
4.04782e-05
6.77686e-05
8.14488e-05
0.000120308
0.000155358
0.000186155
0.000214921
0.000241939
0.000268022
0.0002917
0.000313967
0.000335731
0.000357166
0.000379111
0.000401149
0.000424071
0.000448257
0.000475227
0.000505121
0.000539407
0.000578411
0.000623151
0.000673436
0.000729914
0.000793673
0.000858052
0.000923556
0.000968939
0.00104061
9.03471e-06
9.17303e-06
9.18441e-06
9.22071e-06
9.1706e-06
9.13182e-06
9.04092e-06
7.77793e-06
6.27101e-06
4.82236e-06
6.28358e-06
1.48643e-05
3.86632e-05
6.6622e-05
8.04011e-05
0.000118425
0.000151886
0.00018112
0.000207752
0.000232926
0.000256796
0.000278729
0.000299576
0.000319926
0.00034021
0.000360555
0.000381022
0.000402328
0.000424719
0.000448905
0.000476078
0.000506478
0.000542371
0.000584209
0.000632783
0.000687422
0.000749036
0.0008125
0.000877633
0.000932126
0.000988814
9.03616e-06
9.17897e-06
9.16886e-06
9.21039e-06
9.17592e-06
9.12214e-06
9.05811e-06
8.11767e-06
6.54512e-06
4.74797e-06
6.20365e-06
1.44718e-05
3.75788e-05
6.52931e-05
7.88356e-05
0.000116142
0.000148814
0.000177414
0.000203476
0.000228123
0.000251324
0.000272846
0.000293372
0.000313374
0.000333514
0.000353303
0.000373526
0.00039434
0.000416419
0.000440112
0.000467024
0.000497499
0.000533655
0.000575457
0.000623644
0.000677692
0.000738442
0.000800816
0.000863504
0.000911201
0.000980332
9.03855e-06
9.19719e-06
9.20464e-06
9.23164e-06
9.16052e-06
9.13977e-06
9.01431e-06
8.01357e-06
6.65033e-06
4.84221e-06
6.15779e-06
1.39614e-05
3.5946e-05
6.32495e-05
7.86536e-05
0.000116203
0.000149448
0.000178807
0.000206028
0.000231664
0.000256143
0.000278575
0.000299793
0.000320491
0.000341017
0.000361742
0.000382621
0.000404495
0.000427618
0.000453214
0.000481977
0.000515062
0.000552544
0.000595266
0.000643613
0.000697352
0.000757544
0.000817453
0.000876731
0.000932398
0.000984683
8.98277e-06
9.17352e-06
9.25034e-06
9.21627e-06
9.1725e-06
9.15011e-06
9.06236e-06
8.04839e-06
6.66229e-06
4.93853e-06
5.96272e-06
1.36079e-05
3.56265e-05
6.38469e-05
7.83115e-05
0.000116921
0.000152182
0.000183473
0.000213277
0.000241425
0.000268215
0.000293123
0.000316032
0.000338134
0.00036007
0.000381901
0.000404434
0.00042781
0.000452887
0.000481024
0.000512689
0.000548632
0.00058989
0.000635806
0.000687372
0.000743674
0.000804482
0.000865021
0.000915039
0.000974176
0.00102934
9.03752e-06
9.18698e-06
9.18972e-06
9.24679e-06
9.16593e-06
9.09297e-06
9.06379e-06
8.10957e-06
6.66264e-06
4.95534e-06
5.95409e-06
1.34942e-05
3.46967e-05
6.23265e-05
7.77445e-05
0.000117405
0.00015492
0.000188648
0.000220989
0.000252127
0.000281435
0.000309715
0.000336047
0.000360306
0.000384018
0.000407713
0.000431871
0.000457288
0.000485038
0.000515931
0.000550851
0.00058956
0.000633561
0.000681731
0.000734383
0.0007906
0.000849907
0.000910049
0.00096581
0.00100596
0.0011043
9.03627e-06
9.19601e-06
9.21362e-06
9.24753e-06
9.16905e-06
9.09898e-06
9.03256e-06
7.80523e-06
6.42297e-06
4.86767e-06
6.24045e-06
1.45091e-05
3.69345e-05
6.23339e-05
7.80669e-05
0.000117826
0.000156515
0.000191546
0.000225559
0.000258108
0.000289338
0.000319211
0.000347735
0.000374707
0.000400583
0.000426628
0.000453374
0.000482175
0.000513546
0.000548245
0.000586762
0.000629203
0.000675556
0.000725767
0.000779776
0.000837232
0.000897205
0.000953373
0.0010147
0.00106047
0.00115259
8.98466e-06
9.15527e-06
9.18692e-06
9.20155e-06
9.17248e-06
9.11754e-06
8.87564e-06
6.70162e-06
5.30447e-06
4.56296e-06
6.47622e-06
1.53554e-05
3.86453e-05
6.41456e-05
8.02858e-05
0.000120306
0.000159141
0.000194392
0.000228889
0.000261762
0.000293796
0.000324331
0.000354074
0.000382222
0.000410152
0.000437526
0.000466595
0.000496979
0.000530465
0.000566932
0.00060762
0.000651501
0.000699914
0.000751219
0.000807164
0.000865482
0.000927817
0.000991125
0.000957826
0.00128659
0.00155986
9.03794e-06
9.197e-06
9.17874e-06
9.20071e-06
9.16577e-06
9.16035e-06
8.34297e-06
4.79175e-06
3.51174e-06
4.56633e-06
9.25185e-06
2.26486e-05
5.17285e-05
7.29845e-05
8.496e-05
0.000124899
0.000163759
0.000198877
0.000233076
0.000266203
0.000298252
0.000329005
0.000358882
0.000387274
0.000415592
0.000443224
0.000472346
0.000502527
0.000535986
0.000572235
0.000613078
0.000657086
0.00070599
0.000757705
0.000814375
0.000873331
0.000935593
0.00100226
0.000946651
0.00135946
0.00171387
8.44102e-06
8.08642e-06
7.79316e-06
7.5942e-06
7.51979e-06
7.56914e-06
7.73181e-06
7.99698e-06
8.35412e-06
8.7999e-06
9.3311e-06
9.95108e-06
1.06648e-05
1.14876e-05
1.24353e-05
1.35341e-05
1.4806e-05
1.62866e-05
1.80031e-05
2.00036e-05
2.2309e-05
2.49378e-05
2.77778e-05
2.83912e-05
8.99159e-06
8.97279e-06
8.95478e-06
8.93752e-06
8.92098e-06
8.90546e-06
8.89064e-06
8.87646e-06
8.863e-06
8.85006e-06
8.83811e-06
8.8268e-06
8.81541e-06
8.94168e-06
8.56768e-06
8.24113e-06
7.94382e-06
7.72252e-06
7.60863e-06
7.6123e-06
7.72762e-06
7.94497e-06
8.25517e-06
8.65255e-06
9.13569e-06
9.70311e-06
1.03628e-05
1.11238e-05
1.2005e-05
1.30223e-05
1.42036e-05
1.55698e-05
1.71625e-05
1.90058e-05
2.11491e-05
2.36296e-05
2.65519e-05
2.9679e-05
2.94047e-05
4.60683e-05
5.55538e-05
8.99001e-06
8.97118e-06
8.95361e-06
8.93647e-06
8.9197e-06
8.9038e-06
8.88885e-06
8.87466e-06
8.86134e-06
8.84856e-06
8.83645e-06
8.8248e-06
8.81403e-06
8.89889e-06
8.60114e-06
8.32999e-06
8.05249e-06
7.83909e-06
7.70712e-06
7.67444e-06
7.74035e-06
7.89858e-06
8.14318e-06
8.46808e-06
8.86813e-06
9.34344e-06
9.89635e-06
1.0537e-05
1.12752e-05
1.21302e-05
1.31201e-05
1.42736e-05
1.56184e-05
1.71931e-05
1.90434e-05
2.12539e-05
2.39449e-05
2.71689e-05
3.04277e-05
3.39154e-05
3.68614e-05
8.9904e-06
8.97161e-06
8.95356e-06
8.93628e-06
8.91952e-06
8.90356e-06
8.88832e-06
8.87399e-06
8.86089e-06
8.84912e-06
8.83958e-06
8.83279e-06
8.82845e-06
8.82876e-06
8.61684e-06
8.37428e-06
8.1135e-06
7.91271e-06
7.77783e-06
7.72574e-06
7.75842e-06
7.87222e-06
8.0595e-06
8.31317e-06
8.62915e-06
9.00719e-06
9.44789e-06
9.95821e-06
1.0547e-05
1.12304e-05
1.2026e-05
1.29606e-05
1.40627e-05
1.53687e-05
1.6927e-05
1.87988e-05
2.106e-05
2.37251e-05
2.65776e-05
2.96235e-05
3.27562e-05
8.99075e-06
8.97186e-06
8.9539e-06
8.93679e-06
8.92039e-06
8.90513e-06
8.89093e-06
8.87828e-06
8.86755e-06
8.85874e-06
8.85101e-06
8.84297e-06
8.83478e-06
8.80598e-06
8.63185e-06
8.39191e-06
8.14251e-06
7.94699e-06
7.8133e-06
7.75052e-06
7.76323e-06
7.84555e-06
7.99024e-06
8.19271e-06
8.44948e-06
8.76106e-06
9.12781e-06
9.55477e-06
1.00471e-05
1.06179e-05
1.12798e-05
1.20557e-05
1.29681e-05
1.40508e-05
1.53376e-05
1.68684e-05
1.86865e-05
2.07727e-05
2.30831e-05
2.56174e-05
2.81976e-05
8.99075e-06
8.97177e-06
8.95387e-06
8.93691e-06
8.92058e-06
8.90537e-06
8.89162e-06
8.87958e-06
8.86921e-06
8.86068e-06
8.8528e-06
8.84363e-06
8.83455e-06
8.80596e-06
8.63255e-06
8.40064e-06
8.15578e-06
7.96299e-06
7.82969e-06
7.76303e-06
7.76717e-06
7.83595e-06
7.96255e-06
8.14246e-06