/*--------------------------------*- C++ -*----------------------------------*\
  =========                 |
  \\      /  F ield         | OpenFOAM: The Open Source CFD Toolbox
   \\    /   O peration     | Website:  https://openfoam.org
    \\  /    A nd           | Version:  7
     \\/     M anipulation  |
\*---------------------------------------------------------------------------*/
FoamFile
{
    version     2.0;
    format      ascii;
    class       volScalarField;
    location    "500";
    object      p;
}
// * * * * * * * * * * * * * * * * * * * * * * * * * * * * * * * * * * * * * //

dimensions      [0 2 -2 0 0 0 0];

internalField   nonuniform List<scalar> 
120313
(
-20.4079
-19.5744
-18.401
-17.0025
-15.4792
-13.9131
-12.3523
-10.8251
-9.42592
-8.06633
-6.81894
-5.72108
-4.75446
-3.9259
-3.20668
-2.59773
-2.08307
-1.6547
-1.29608
-0.998815
-0.746152
-0.54188
-0.34922
-0.194045
-20.3865
-19.5941
-18.4294
-17.0325
-15.4962
-13.934
-12.4378
-10.9078
-9.43657
-8.08148
-6.83824
-5.74142
-4.77829
-3.94279
-3.22279
-2.61476
-2.1007
-1.67214
-1.31266
-1.01661
-0.763154
-0.557428
-0.358118
-0.212314
-20.3589
-19.5786
-18.4163
-17.0197
-15.4814
-13.9134
-12.4313
-10.9098
-9.42529
-8.06251
-6.82445
-5.73119
-4.77208
-3.93528
-3.21583
-2.61011
-2.09657
-1.66836
-1.30952
-1.0136
-0.760938
-0.552851
-0.354135
-0.221968
-20.3525
-19.5777
-18.4169
-17.0196
-15.48
-13.916
-12.4368
-10.906
-9.41358
-8.05128
-6.81331
-5.72282
-4.76517
-3.92854
-3.21039
-2.60715
-2.09429
-1.66689
-1.30899
-1.01372
-0.761857
-0.554013
-0.356571
-0.223508
-20.3504
-19.5776
-18.4173
-17.0198
-15.4792
-13.9163
-12.4376
-10.9037
-9.40853
-8.04661
-6.80841
-5.7188
-4.76152
-3.92513
-3.20778
-2.60564
-2.09341
-1.66653
-1.30906
-1.01408
-0.762705
-0.555252
-0.358442
-0.224403
-20.3532
-19.578
-18.4185
-17.0213
-15.4801
-13.9147
-12.4328
-10.9022
-9.41149
-8.04823
-6.80952
-5.71922
-4.76152
-3.92531
-3.20796
-2.60513
-2.09327
-1.66669
-1.30938
-1.01471
-0.763718
-0.556641
-0.359009
-0.229405
-20.3796
-19.5925
-18.4334
-17.0366
-15.4969
-13.9343
-12.4318
-10.8954
-9.41798
-8.05829
-6.81521
-5.72194
-4.76217
-3.9271
-3.21017
-2.6058
-2.09485
-1.66919
-1.31235
-1.01833
-0.767653
-0.563049
-0.366313
-0.224168
-20.4019
-19.5722
-18.4049
-17.0063
-15.4776
-13.9063
-12.3389
-10.8079
-9.39795
-8.03435
-6.78755
-5.69457
-4.73428
-3.90695
-3.18985
-2.58511
-2.07378
-1.64899
-1.29433
-1.00093
-0.75179
-0.549422
-0.359152
-0.207838
-19.5352
-19.8531
-20.1872
-20.5091
-20.8067
-21.0541
-21.2173
-21.3287
-21.095
-20.7148
-19.9995
-18.8957
-17.5646
-16.0918
-14.5534
-13.0024
-11.4751
-10.0115
-8.6313
-7.35664
-6.19565
-5.16902
-4.28963
-3.52168
-2.88554
-2.34556
-1.89103
-1.51123
-1.19436
-0.925554
-0.697062
-0.498708
-0.324421
-0.184789
-0.0603432
-0.00114843
-19.5521
-19.8592
-20.1901
-20.511
-20.8083
-21.055
-21.217
-21.3473
-21.1146
-20.6008
-19.877
-18.6785
-17.3094
-15.818
-14.2813
-12.7407
-11.2252
-9.77599
-8.40541
-7.13667
-6.02004
-5.02697
-4.17202
-3.43943
-2.82296
-2.30463
-1.86617
-1.49489
-1.1865
-0.922464
-0.708789
-0.501607
-0.357211
-0.259835
-0.000777817
-0.0669914
-19.576
-19.8677
-20.194
-20.5136
-20.8107
-21.0569
-21.2177
-21.3429
-21.1116
-20.6123
-19.9514
-18.7255
-17.3509
-15.8587
-14.3276
-12.7936
-11.2641
-9.78549
-8.41766
-7.15561
-6.04
-5.05571
-4.20332
-3.46702
-2.8478
-2.32941
-1.88948
-1.51658
-1.20644
-0.939332
-0.725741
-0.512191
-0.388792
-0.285054
-0.00430969
-0.0950068
-19.5934
-19.8783
-20.2
-20.5171
-20.8127
-21.0569
-21.2139
-21.3228
-21.0778
-20.6015
-19.9762
-18.7415
-17.3633
-15.8683
-14.3383
-12.8061
-11.2696
-9.77543
-8.40561
-7.14694
-6.03401
-5.05362
-4.20081
-3.46437
-2.84677
-2.3299
-1.89062
-1.51808
-1.20818
-0.941332
-0.728584
-0.513621
-0.409066
-0.302134
-0.00595588
-0.103714
-19.6101
-19.892
-20.2079
-20.5209
-20.8138
-21.0552
-21.2088
-21.3154
-21.067
-20.601
-19.9881
-18.7505
-17.3715
-15.8761
-14.3464
-12.8113
-11.2674
-9.76678
-8.39864
-7.13893
-6.028
-5.05034
-4.19763
-3.46181
-2.84599
-2.33034
-1.89199
-1.52014
-1.21084
-0.944165
-0.732224
-0.518435
-0.424692
-0.299173
-0.0043375
-0.106795
-19.6249
-19.9032
-20.2138
-20.5231
-20.8133
-21.0525
-21.2039
-21.3095
-21.0595
-20.5981
-19.9878
-18.7516
-17.373
-15.8776
-14.3475
-12.8106
-11.264
-9.7619
-8.39381
-7.13376
-6.02351
-5.0466
-4.19396
-3.45897
-2.84446
-2.3295
-1.89161
-1.52008
-1.21111
-0.945059
-0.73371
-0.520827
-0.428319
-0.299964
-0.00749649
-0.108935
-19.6363
-19.9084
-20.2157
-20.5225
-20.8109
-21.0491
-21.2
-21.3059
-21.0589
-20.5919
-19.9749
-18.7452
-17.3688
-15.8738
-14.3424
-12.8052
-11.2623
-9.76394
-8.39434
-7.13411
-6.02267
-5.04486
-4.19242
-3.45803
-2.84338
-2.32795
-1.88995
-1.5187
-1.20976
-0.944499
-0.73302
-0.519431
-0.416216
-0.311063
-0.013648
-0.108655
-19.6403
-19.9082
-20.2142
-20.5196
-20.8067
-21.0446
-21.1969
-21.3051
-21.0672
-20.5965
-19.949
-18.7313
-17.3602
-15.8674
-14.3336
-12.7944
-11.2572
-9.77152
-8.39965
-7.13686
-6.02336
-5.04281
-4.19211
-3.45822
-2.84273
-2.32661
-1.88876
-1.51813
-1.20948
-0.945001
-0.733014
-0.522704
-0.402366
-0.300118
-0.016973
-0.107989
-19.643
-19.9092
-20.2124
-20.5157
-20.8009
-21.0379
-21.1923
-21.3156
-21.0943
-20.5777
-19.8714
-18.6842
-17.3192
-15.8274
-14.2871
-12.7403
-11.2172
-9.75913
-8.38252
-7.11381
-5.99948
-5.01197
-4.16132
-3.43107
-2.81634
-2.30091
-1.86477
-1.4959
-1.1901
-0.9295
-0.718917
-0.516546
-0.376595
-0.289553
-0.0175389
-0.102748
-19.6446
-19.9099
-20.2099
-20.5108
-20.7933
-21.0277
-21.1809
-21.3107
-21.1083
-20.5591
-19.7959
-18.6444
-17.2892
-15.8018
-14.2595
-12.7096
-11.1918
-9.74088
-8.37525
-7.1189
-5.99212
-5.00525
-4.15593
-3.41547
-2.8015
-2.28408
-1.84667
-1.4789
-1.17082
-0.909962
-0.692961
-0.511574
-0.358473
-0.266891
-0.0100656
-0.090536
-19.6491
-19.9094
-20.2069
-20.5072
-20.7887
-21.0216
-21.1728
-21.2885
-21.0508
-20.6716
-19.9712
-18.8862
-17.5677
-16.0976
-14.5552
-12.9946
-11.4606
-9.98853
-8.60507
-7.33124
-6.17294
-5.14496
-4.26583
-3.50197
-2.86752
-2.33135
-1.87994
-1.50587
-1.19033
-0.922723
-0.696283
-0.501812
-0.342459
-0.215675
-0.0973185
-0.0697568
-19.655
-19.9044
-20.2029
-20.5055
-20.7891
-21.0248
-21.1813
-21.3114
-21.0642
-20.6677
-19.9615
-18.8894
-17.5757
-16.1121
-14.5724
-13.0129
-11.4814
-10.0131
-8.63241
-7.36009
-6.19961
-5.16842
-4.29017
-3.52298
-2.88817
-2.34901
-1.90185
-1.52466
-1.20652
-0.934008
-0.702659
-0.508958
-0.351166
-0.213844
-0.0961111
-0.0700927
-20.6779
-19.8401
-18.7632
-17.4136
-15.9443
-14.42
-12.8806
-11.3669
-9.92249
-8.56841
-7.32779
-6.21538
-5.2356
-4.38463
-3.64701
-3.02174
-2.48972
-2.04098
-1.66002
-1.33753
-1.06036
-0.823426
-0.627794
-0.475434
-19.7159
-19.9637
-20.2483
-20.551
-20.8491
-21.1075
-21.2732
-21.3489
-21.1943
-20.6788
-19.8775
-18.7563
-17.4096
-15.9409
-14.4174
-12.8799
-11.3677
-9.92268
-8.56449
-7.32264
-6.21054
-5.23078
-4.37852
-3.6394
-3.01176
-2.47886
-2.02746
-1.64626
-1.32318
-1.04897
-0.81384
-0.617213
-0.435641
-0.334076
-0.0274354
-0.0307813
-19.7233
-19.9646
-20.2482
-20.5508
-20.8502
-21.1071
-21.2677
-21.3452
-21.1764
-20.6569
-19.9001
-18.7633
-17.4201
-15.9539
-14.4337
-12.899
-11.3836
-9.93517
-8.57339
-7.32856
-6.22261
-5.24302
-4.39167
-3.65427
-3.02547
-2.49228
-2.03923
-1.65514
-1.33125
-1.05536
-0.822596
-0.623533
-0.453368
-0.304197
-0.191719
0.045832
-19.7377
-19.9691
-20.2492
-20.5525
-20.8526
-21.108
-21.2651
-21.3432
-21.1661
-20.6595
-19.9232
-18.7775
-17.4327
-15.9685
-14.4534
-12.9226
-11.3939
-9.93204
-8.5774
-7.33725
-6.23324
-5.25807
-4.40759
-3.66882
-3.03895
-2.50541
-2.05116
-1.66584
-1.34102
-1.0632
-0.83022
-0.631081
-0.46668
-0.306553
-0.201279
0.0823566
-19.7508
-19.9754
-20.2519
-20.5548
-20.8546
-21.1081
-21.2622
-21.335
-21.1463
-20.6495
-19.9307
-18.7829
-17.4346
-15.968
-14.4546
-12.9248
-11.3902
-9.92277
-8.56964
-7.33053
-6.22877
-5.25641
-4.4055
-3.66709
-3.03843
-2.50597
-2.05219
-1.66723
-1.34271
-1.06444
-0.833054
-0.630791
-0.476341
-0.313174
-0.21081
0.0904498
-19.7649
-19.9837
-20.2562
-20.5568
-20.8552
-21.1067
-21.2579
-21.3272
-21.1346
-20.6459
-19.9357
-18.7869
-17.4374
-15.9697
-14.4569
-12.9255
-11.3864
-9.91641
-8.56439
-7.32467
-6.22411
-5.25407
-4.40327
-3.66559
-3.03831
-2.50737
-2.05503
-1.67107
-1.34694
-1.06857
-0.837939
-0.63412
-0.483348
-0.315702
-0.216392
0.0924563
-19.7769
-19.9915
-20.2601
-20.5575
-20.8538
-21.1036
-21.2529
-21.3205
-21.1268
-20.6428
-19.9349
-18.7874
-17.4381
-15.9705
-14.4571
-12.9238
-11.3827
-9.91199
-8.55982
-7.3202
-6.22016
-5.2505
-4.40003
-3.66321
-3.03736
-2.50729
-2.05486
-1.67055
-1.3466
-1.06878
-0.838886
-0.635564
-0.485282
-0.316663
-0.219378
0.0918991
-19.7849
-19.9959
-20.2618
-20.5564
-20.8504
-21.0987
-21.2474
-21.3146
-21.122
-20.6405
-19.93
-18.7857
-17.4387
-15.9722
-14.4566
-12.9216
-11.3816
-9.91179
-8.55885
-7.31937
-6.21869
-5.24834
-4.39836
-3.66165
-3.03516
-2.50405
-2.05134
-1.66731
-1.34386
-1.06692
-0.837023
-0.635805
-0.483305
-0.317787
-0.220475
0.0888142
-19.7881
-19.997
-20.261
-20.5538
-20.8451
-21.0921
-21.2409
-21.3094
-21.1201
-20.6467
-19.9257
-18.7836
-17.4401
-15.9756
-14.4565
-12.9189
-11.3825
-9.91624
-8.56071
-7.32089
-6.21916
-5.24675
-4.3971
-3.66018
-3.03311
-2.5016
-2.04916
-1.66565
-1.34228
-1.06633
-0.83535
-0.637572
-0.478839
-0.314121
-0.219972
0.0838772
-19.7916
-19.9983
-20.2598
-20.5504
-20.8386
-21.0835
-21.2318
-21.3007
-21.1197
-20.6435
-19.9076
-18.7724
-17.4318
-15.966
-14.4404
-12.8977
-11.3738
-9.91781
-8.55482
-7.31284
-6.20914
-5.23321
-4.38504
-3.64983
-3.02263
-2.49101
-2.03909
-1.65654
-1.33443
-1.06073
-0.830436
-0.633002
-0.467313
-0.31554
-0.225182
0.0701684
-19.793
-19.9984
-20.2585
-20.5474
-20.8322
-21.0742
-21.2219
-21.2949
-21.1228
-20.634
-19.884
-18.7598
-17.4219
-15.9544
-14.4257
-12.8808
-11.3605
-9.90647
-8.54743
-7.30901
-6.20015
-5.22304
-4.37318
-3.6352
-3.00873
-2.47798
-2.02696
-1.6458
-1.32368
-1.05117
-0.819331
-0.626787
-0.458647
-0.319881
-0.223853
0.0301868
-19.7943
-19.9977
-20.2566
-20.5459
-20.829
-21.0687
-21.2177
-21.2929
-21.1469
-20.635
-19.8707
-18.7567
-17.4177
-15.9481
-14.4169
-12.8694
-11.3497
-9.89692
-8.54171
-7.30662
-6.19453
-5.21569
-4.36513
-3.63104
-3.00588
-2.47642
-2.02713
-1.64821
-1.32603
-1.05368
-0.818197
-0.627878
-0.450253
-0.352125
-0.0413339
-0.0621831
-19.796
-19.997
-20.2547
-20.5466
-20.8292
-21.0682
-21.2213
-21.2979
-21.1529
-20.6373
-19.8879
-18.767
-17.4211
-15.9492
-14.4163
-12.8663
-11.345
-9.89226
-8.53862
-7.30475
-6.193
-5.21581
-4.36813
-3.63801
-3.01546
-2.48843
-2.04069
-1.66278
-1.3394
-1.06562
-0.826719
-0.637314
-0.450797
-0.371002
-0.0109937
-0.0389932
-20.3676
-19.5042
-18.5191
-17.2606
-15.8634
-14.3931
-12.8834
-11.392
-9.96216
-8.62902
-7.40869
-6.31978
-5.35932
-4.52069
-3.79048
-3.16946
-2.63426
-2.18169
-1.78931
-1.46075
-1.16684
-0.932338
-0.701793
-0.572165
-19.8068
-19.976
-20.2698
-20.5728
-20.8694
-21.1373
-21.2867
-21.311
-21.0104
-20.3969
-19.5502
-18.5543
-17.2924
-15.8875
-14.4121
-12.8983
-11.4001
-9.96476
-8.6266
-7.40767
-6.31902
-5.36024
-4.52022
-3.78894
-3.16201
-2.62818
-2.17156
-1.78258
-1.45014
-1.16475
-0.920587
-0.711636
-0.51656
-0.415768
-0.0780103
-0.0245048
-19.811
-19.9838
-20.264
-20.5644
-20.8681
-21.1297
-21.269
-21.2883
-20.9944
-20.3912
-19.5455
-18.5498
-17.2946
-15.8874
-14.4084
-12.8951
-11.3901
-9.95235
-8.61717
-7.40278
-6.31825
-5.35943
-4.52073
-3.79064
-3.16377
-2.62993
-2.1725
-1.7832
-1.45023
-1.16532
-0.921898
-0.709551
-0.529751
-0.360068
-0.228407
-0.038018
-19.8221
-19.9844
-20.2582
-20.5665
-20.8711
-21.1258
-21.2593
-21.2764
-20.987
-20.3904
-19.5502
-18.5559
-17.2971
-15.8849
-14.4032
-12.8887
-11.3759
-9.93836
-8.61409
-7.40497
-6.3223
-5.36242
-4.52181
-3.79333
-3.16737
-2.63424
-2.1769
-1.78754
-1.45465
-1.16937
-0.926574
-0.712231
-0.533775
-0.353746
-0.230036
-0.0311429
-19.8349
-19.9831
-20.2553
-20.5698
-20.8737
-21.1246
-21.2555
-21.27
-20.9767
-20.3905
-19.5578
-18.5628
-17.2968
-15.878
-14.3935
-12.877
-11.363
-9.9313
-8.61365
-7.40406
-6.32053
-5.3604
-4.51899
-3.79149
-3.16639
-2.63365
-2.17629
-1.78718
-1.45432
-1.16904
-0.927731
-0.712901
-0.537555
-0.353009
-0.231614
-0.0265128
-19.8415
-19.9844
-20.2583
-20.571
-20.8746
-21.1232
-21.2508
-21.2638
-20.9685
-20.3899
-19.5618
-18.5665
-17.2967
-15.8745
-14.3885
-12.8706
-11.3576
-9.92831
-8.61177
-7.40236
-6.31783
-5.35821
-4.51764
-3.79
-3.16496
-2.63243
-2.17526
-1.787
-1.45474
-1.17024
-0.930302
-0.716296
-0.54265
-0.355908
-0.23513
-0.0256905
-19.8486
-19.9922
-20.2616
-20.5701
-20.8732
-21.1193
-21.2449
-21.2575
-20.9621
-20.3871
-19.5597
-18.5661
-17.2968
-15.8741
-14.387
-12.8672
-11.3539
-9.9246
-8.60732
-7.3985
-6.31378
-5.35407
-4.51401
-3.78653
-3.16183
-2.6298
-2.17357
-1.78615
-1.45441
-1.17037
-0.930838
-0.717047
-0.543435
-0.355878
-0.23664
-0.0258491
-19.8557
-19.9989
-20.2651
-20.5684
-20.8681
-21.1134
-21.239
-21.2505
-20.9551
-20.3855
-19.5579
-18.5685
-17.3036
-15.8822
-14.3936
-12.8712
-11.3546
-9.92296
-8.60489
-7.39565
-6.31106
-5.3509
-4.51095
-3.78456
-3.16115
-2.62992
-2.17427
-1.78681
-1.45543
-1.17149
-0.931552
-0.717495
-0.542212
-0.355277
-0.237236
-0.0274563
-19.8677
-19.997
-20.2644
-20.568
-20.8615
-21.1062
-21.2321
-21.242
-20.947
-20.3862
-19.5594
-18.5721
-17.3137
-15.8953
-14.4047
-12.8796
-11.3599
-9.92282
-8.60063
-7.39213
-6.30822
-5.34734
-4.50779
-3.78184
-3.15883
-2.62755
-2.17253
-1.78543
-1.45456
-1.17155
-0.930342
-0.717063
-0.540447
-0.353826
-0.236934
-0.0297801
-19.8754
-20.0005
-20.2641
-20.5656
-20.8535
-21.0973
-21.2228
-21.2322
-20.9397
-20.3788
-19.5555
-18.5727
-17.3203
-15.9041
-14.4111
-12.8852
-11.3689
-9.92636
-8.59442
-7.38536
-6.30279
-5.34325
-4.50506
-3.77834
-3.15497
-2.62329
-2.1683
-1.78137
-1.45079
-1.16864
-0.926838
-0.715522
-0.538266
-0.359028
-0.242941
-0.0364233
-19.8757
-19.9989
-20.2667
-20.5653
-20.847
-21.0882
-21.2137
-21.2259
-20.9379
-20.3597
-19.544
-18.57
-17.3228
-15.9078
-14.414
-12.8873
-11.3745
-9.92887
-8.59193
-7.38269
-6.29859
-5.33971
-4.50311
-3.77564
-3.15188
-2.61998
-2.16465
-1.77805
-1.44693
-1.1655
-0.921995
-0.715216
-0.537216
-0.368285
-0.251257
-0.0476536
-19.8713
-19.9956
-20.2654
-20.5707
-20.8482
-21.0842
-21.2133
-21.2291
-20.941
-20.3383
-19.5299
-18.5617
-17.3183
-15.9052
-14.4111
-12.8832
-11.3753
-9.93351
-8.59615
-7.38878
-6.30232
-5.34277
-4.5051
-3.77986
-3.15598
-2.62483
-2.16896
-1.78332
-1.45052
-1.16954
-0.921261
-0.722252
-0.531658
-0.427138
-0.0904669
-0.0325549
-19.8699
-19.9894
-20.2615
-20.5867
-20.8555
-21.084
-21.222
-21.2476
-20.945
-20.324
-19.5096
-18.5432
-17.3015
-15.8938
-14.4011
-12.8732
-11.3705
-9.93447
-8.60094
-7.39507
-6.30877
-5.34984
-4.51199
-3.78907
-3.16581
-2.6357
-2.1795
-1.79368
-1.45895
-1.17661
-0.925593
-0.725406
-0.531847
-0.456445
-0.059805
0.00190644
-19.6413
-18.5191
-17.8231
-16.774
-15.4809
-14.0863
-12.6697
-11.2763
-9.91893
-8.653
-7.50398
-6.46922
-5.5345
-4.71494
-3.99723
-3.38088
-2.83892
-2.37526
-1.96681
-1.618
-1.30663
-1.03865
-0.798713
-0.571462
-19.6452
-19.8365
-20.0651
-20.2846
-20.5412
-20.8094
-20.9191
-20.7995
-20.3165
-19.685
-18.5208
-17.8264
-16.7819
-15.488
-14.0961
-12.678
-11.2829
-9.9284
-8.65271
-7.50435
-6.47158
-5.54087
-4.71833
-4.00207
-3.37773
-2.83879
-2.36937
-1.96547
-1.61213
-1.30545
-1.0355
-0.793108
-0.574682
-0.371153
-0.0373852
-0.0140427
-19.6056
-19.864
-20.0313
-20.2512
-20.5449
-20.7824
-20.8711
-20.7467
-20.3088
-19.6323
-18.4891
-17.7976
-16.751
-15.46
-14.081
-12.6717
-11.2715
-9.91902
-8.65155
-7.50415
-6.47782
-5.54709
-4.72415
-4.00672
-3.38371
-2.8416
-2.37165
-1.96585
-1.61321
-1.30506
-1.03619
-0.796513
-0.58748
-0.394366
-0.233615
-0.0712975
-19.6464
-19.8536
-20.0214
-20.2626
-20.5486
-20.7702
-20.8569
-20.7219
-20.2872
-19.6113
-18.4707
-17.7847
-16.7347
-15.4442
-14.0695
-12.6635
-11.2604
-9.90886
-8.64952
-7.50897
-6.48583
-5.55377
-4.72724
-4.01056
-3.38774
-2.84646
-2.37578
-1.97
-1.61676
-1.30913
-1.04086
-0.802515
-0.596606
-0.40012
-0.237937
-0.0732321
-19.6953
-19.8523
-20.0284
-20.2724
-20.5553
-20.77
-20.8553
-20.7159
-20.279
-19.5968
-18.4655
-17.7755
-16.7229
-15.4309
-14.0569
-12.6516
-11.2482
-9.89998
-8.64861
-7.51078
-6.48761
-5.55633
-4.72994
-4.01335
-3.3909
-2.84863
-2.3772
-1.97038
-1.61674
-1.3097
-1.0429
-0.804494
-0.599625
-0.402293
-0.241743
-0.0748057
-19.7035
-19.8584
-20.045
-20.2766
-20.5596
-20.7694
-20.8493
-20.7116
-20.2723
-19.591
-18.464
-17.7729
-16.7174
-15.4241
-14.0503
-12.644
-11.2409
-9.89616
-8.64634
-7.51205
-6.48954
-5.55748
-4.73202
-4.01515
-3.39205
-2.84927
-2.37687
-1.9691
-1.6162
-1.30981
-1.04505
-0.808776
-0.605579
-0.408978
-0.247945
-0.0758154
-19.7126
-19.872
-20.0521
-20.2767
-20.5603
-20.7674
-20.8439
-20.7062
-20.2714
-19.5938
-18.4585
-17.7693
-16.7151
-15.4213
-14.0473
-12.6396
-11.2362
-9.89355
-8.64187
-7.51003
-6.48516
-5.55481
-4.72921
-4.01196
-3.38834
-2.84521
-2.37449
-1.96842
-1.61648
-1.31019
-1.04596
-0.809372
-0.606947
-0.409883
-0.248553
-0.0756085
-19.7061
-19.8911
-20.0584
-20.2749
-20.5547
-20.7609
-20.8387
-20.6982
-20.2581
-19.6014
-18.4462
-17.7671
-16.7198
-15.4273
-14.052
-12.6435
-11.2392
-9.89343
-8.64048
-7.50431
-6.48137
-5.55074
-4.72564
-4.00952
-3.38826
-2.84708
-2.37786
-1.97223
-1.62004
-1.31347
-1.04876
-0.810828
-0.606883
-0.407795
-0.246881
-0.075646
-19.7816
-19.8632
-20.0618
-20.2807
-20.5461
-20.755
-20.8334
-20.6865
-20.2371
-19.6003
-18.4411
-17.7677
-16.728
-15.4371
-14.0591
-12.6491
-11.2438
-9.89382
-8.63376
-7.49848
-6.47293
-5.54325
-4.71904
-4.00406
-3.3836
-2.84282
-2.37422
-1.96957
-1.61873
-1.31253
-1.04733
-0.809559
-0.605472
-0.404759
-0.243293
-0.0749022
-19.7647
-19.8789
-20.0561
-20.2745
-20.5348
-20.7467
-20.8235
-20.6649
-20.2092
-19.601
-18.438
-17.7656
-16.7345
-15.4461
-14.0657
-12.6541
-11.2493
-9.89776
-8.63083
-7.49151
-6.46822
-5.5418
-4.71606
-4.00017
-3.38011
-2.83953
-2.37093
-1.9666
-1.61633
-1.31073
-1.04532
-0.808618
-0.604361
-0.405108
-0.241572
-0.0753823
-19.7642
-19.8747
-20.0636
-20.2758
-20.5252
-20.734
-20.8124
-20.6513
-20.1926
-19.6065
-18.4408
-17.7639
-16.7379
-15.4516
-14.0684
-12.6542
-11.251
-9.89837
-8.62858
-7.48386
-6.4619
-5.53557
-4.71283
-3.99755
-3.37785
-2.83708
-2.36821
-1.96428
-1.61386
-1.30861
-1.0423
-0.80787
-0.601684
-0.401125
-0.242806
-0.0771941
-19.7452
-19.8769
-20.0624
-20.2875
-20.5312
-20.7361
-20.8165
-20.6725
-20.2178
-19.6074
-18.46
-17.7787
-16.7473
-15.4568
-14.0678
-12.6505
-11.2524
-9.90068
-8.62526
-7.48502
-6.46169
-5.53837
-4.7138
-4.00046
-3.3783
-2.84013
-2.36968
-1.96875
-1.61485
-1.31242
-1.0396
-0.809706
-0.599112
-0.37434
-0.0640534
-0.0308154
-19.7522
-19.8533
-20.078
-20.3518
-20.5434
-20.7424
-20.8499
-20.7373
-20.2588
-19.62
-18.4605
-17.7757
-16.7449
-15.45
-14.0556
-12.6374
-11.246
-9.89575
-8.62008
-7.48576
-6.46455
-5.53948
-4.7145
-4.00239
-3.38038
-2.84498
-2.37488
-1.97462
-1.61913
-1.31651
-1.04021
-0.811101
-0.598195
-0.386914
-0.0395454
0.00332139
-18.365
-17.7588
-17.041
-16.0449
-14.8754
-13.6392
-12.3956
-11.1462
-9.8976
-8.74508
-7.71921
-6.75983
-5.8553
-5.05107
-4.34628
-3.72229
-3.16109
-2.67244
-2.23338
-1.85386
-1.50879
-1.2085
-0.946671
-0.691323
-18.0274
-17.9637
-17.9133
-17.7652
-17.5742
-18.3401
-18.9996
-19.333
-19.6978
-19.9767
-20.1697
-20.1517
-19.9321
-19.3484
-18.3311
-17.754
-17.0398
-16.0442
-14.8794
-13.6441
-12.3986
-11.1538
-9.92655
-8.73826
-7.70178
-6.76783
-5.87035
-5.05375
-4.34454
-3.72086
-3.16564
-2.67132
-2.23857
-1.85207
-1.51415
-1.20646
-0.935437
-0.685507
-0.471822
-0.307551
-0.104339
-17.9952
-17.9911
-17.951
-17.8387
-17.709
-18.295
-18.9938
-19.3872
-19.7289
-19.9815
-20.1099
-20.1131
-19.8674
-19.3264
-18.3136
-17.7446
-17.0249
-16.0351
-14.87
-13.6425
-12.3919
-11.1564
-9.92495
-8.74585
-7.6941
-6.76381
-5.87716
-5.05759
-4.34051
-3.71862
-3.16322
-2.67209
-2.23727
-1.85374
-1.5127
-1.20822
-0.934571
-0.68965
-0.46696
-0.276095
-0.108904
-18.0023
-18.0097
-17.9818
-17.8941
-17.7981
-18.3461
-19.017
-19.4349
-19.7481
-19.9955
-20.1388
-20.1104
-19.8378
-19.2914
-18.2947
-17.7305
-17.0256
-16.0359
-14.8723
-13.6445
-12.3949
-11.1585
-9.9272
-8.74695
-7.69817
-6.76784
-5.8829
-5.06091
-4.343
-3.7202
-3.16567
-2.67418
-2.23952
-1.85681
-1.5151
-1.21372
-0.936283
-0.692187
-0.458501
-0.262666
-0.105117
-18.0149
-18.0257
-18.005
-17.9248
-17.8271
-18.3823
-19.0296
-19.4388
-19.7375
-19.9912
-20.134
-20.1013
-19.8377
-19.2591
-18.2729
-17.7248
-17.0242
-16.037
-14.8727
-13.6453
-12.3938
-11.1576
-9.92596
-8.74821
-7.69743
-6.76732
-5.8832
-5.0627
-4.34316
-3.71967
-3.16476
-2.67399
-2.23888
-1.85706
-1.51591
-1.21504
-0.935744
-0.688949
-0.453337
-0.256444
-0.103257
-18.0259
-18.0383
-18.021
-17.9467
-17.8452
-18.4063
-19.0317
-19.4319
-19.7366
-19.9942
-20.1417
-20.092
-19.8274
-19.2563
-18.259
-17.7191
-17.0246
-16.0377
-14.8735
-13.6454
-12.3944
-11.1575
-9.92599
-8.74701
-7.70161
-6.77146
-5.88396
-5.06379
-4.3466
-3.72322
-3.16715
-2.67627
-2.24002
-1.85944
-1.51802
-1.2184
-0.937799
-0.690832
-0.452717
-0.257652
-0.105459
-18.0332
-18.0463
-18.031
-17.9626
-17.8836
-18.4249
-19.0306
-19.4381
-19.7534
-20.0006
-20.1394
-20.0861
-19.8137
-19.2592
-18.2599
-17.7153
-17.0224
-16.0364
-14.8716
-13.6435
-12.3912
-11.1529
-9.92976
-8.74188
-7.69737
-6.77008
-5.87866
-5.0625
-4.34356
-3.7203
-3.16421
-2.67422
-2.23845
-1.85865
-1.51723
-1.21812
-0.936977
-0.690408
-0.452145
-0.255569
-0.102757
-18.0363
-18.0494
-18.0338
-17.9639
-17.8865
-18.4176
-19.0412
-19.4454
-19.7523
-20.0003
-20.1395
-20.0826
-19.8165
-19.2364
-18.2614
-17.7071
-17.0173
-16.0333
-14.8702
-13.6422
-12.3907
-11.1532
-9.92607
-8.74514
-7.69328
-6.76345
-5.88022
-5.06221
-4.34258
-3.7198
-3.16485
-2.67616
-2.24084
-1.86093
-1.51919
-1.22011
-0.938991
-0.693065
-0.453276
-0.258332
-0.106638
-18.0357
-18.048
-18.0291
-17.9512
-17.8468
-18.4428
-19.0557
-19.438
-19.7354
-19.9872
-20.126
-20.0773
-19.8051
-19.2281
-18.2692
-17.7066
-17.0098
-16.0282
-14.8664
-13.6387
-12.3876
-11.1494
-9.9264
-8.7331
-7.68659
-6.76234
-5.8737
-5.05831
-4.33766
-3.71581
-3.16154
-2.67311
-2.23832
-1.8588
-1.51672
-1.2183
-0.938159
-0.694066
-0.454321
-0.259478
-0.106734
-18.0326
-18.0433
-18.0213
-17.9386
-17.8301
-18.4336
-19.0544
-19.4335
-19.7303
-19.9835
-20.1232
-20.0701
-19.8009
-19.223
-18.2899
-17.7075
-16.9974
-16.0207
-14.8628
-13.6354
-12.3852
-11.1467
-9.92636
-8.73175
-7.68188
-6.75847
-5.87518
-5.05809
-4.33543
-3.71412
-3.16103
-2.67325
-2.23887
-1.85967
-1.51758
-1.22
-0.940036
-0.698772
-0.458764
-0.264589
-0.10788
-18.0294
-18.0367
-18.0106
-17.9221
-17.8143
-18.4358
-19.0439
-19.4144
-19.7183
-19.9714
-20.1149
-20.0672
-19.7988
-19.2199
-18.3306
-17.7042
-16.9808
-16.0096
-14.8541
-13.6276
-12.3775
-11.141
-9.91816
-8.73483
-7.67469
-6.74969
-5.87556
-5.05542
-4.33291
-3.71213
-3.16025
-2.67258
-2.23889
-1.85868
-1.51731
-1.2183
-0.941585
-0.700837
-0.466308
-0.276666
-0.11214
-18.0345
-18.0275
-17.9938
-17.8949
-17.7847
-18.4239
-19.0422
-19.383
-19.7088
-19.9709
-20.1152
-20.0714
-19.8089
-19.2364
-18.3507
-17.7221
-16.9951
-16.0151
-14.8576
-13.6258
-12.3782
-11.1383
-9.92242
-8.72476
-7.67801
-6.75564
-5.87441
-5.05724
-4.33682
-3.71375
-3.16435
-2.67388
-2.2427
-1.85888
-1.52084
-1.21552
-0.944481
-0.705915
-0.467869
-0.320805
-0.121795
-18.0984
-18.0102
-17.9736
-17.8489
-17.7015
-18.4428
-19.0515
-19.3906
-19.6925
-19.961
-20.129
-20.0908
-19.8289
-19.282
-18.3163
-17.7246
-17.0022
-16.0137
-14.8524
-13.618
-12.3731
-11.1313
-9.91625
-8.71352
-7.68204
-6.76161
-5.87161
-5.0539
-4.34047
-3.7171
-3.16734
-2.67441
-2.24506
-1.85875
-1.52275
-1.21383
-0.946447
-0.7116
-0.474832
-0.329651
-0.104719
-17.9205
-17.2389
-16.4409
-15.4948
-14.443
-13.3392
-12.2055
-11.0726
-9.95489
-8.8954
-7.90462
-6.98531
-6.12416
-5.34044
-4.63218
-3.99898
-3.42722
-2.91956
-2.46366
-2.05938
-1.69305
-1.36297
-1.0708
-0.793673
-18.0584
-18.0444
-18.0264
-18.0141
-18.0967
-18.4384
-18.8196
-19.0883
-19.2923
-19.4322
-19.4768
-19.3976
-19.1669
-18.6585
-17.887
-17.2522
-16.4451
-15.495
-14.4467
-13.3405
-12.2098
-11.0739
-9.96125
-8.89396
-7.90111
-6.98385
-6.12714
-5.34082
-4.63376
-3.9993
-3.42926
-2.91965
-2.46465
-2.05876
-1.69297
-1.36316
-1.05803
-0.778576
-0.546571
-0.347665
-0.138231
-18.0606
-18.0553
-18.0437
-18.0418
-18.132
-18.4542
-18.83
-19.1025
-19.2975
-19.4309
-19.4685
-19.3852
-19.1559
-18.635
-17.8738
-17.2445
-16.4374
-15.4903
-14.4421
-13.3389
-12.2066
-11.0739
-9.95815
-8.8922
-7.89771
-6.98197
-6.12576
-5.34185
-4.63086
-4
-3.42742
-2.92126
-2.46261
-2.05984
-1.69068
-1.3641
-1.05539
-0.782501
-0.526743
-0.312958
-0.13781
-18.07
-18.069
-18.0646
-18.0723
-18.1669
-18.4778
-18.845
-19.1171
-19.305
-19.4315
-19.4662
-19.3765
-19.1435
-18.6331
-17.8607
-17.2426
-16.4391
-15.4906
-14.4441
-13.3393
-12.2086
-11.0742
-9.95964
-8.89217
-7.89908
-6.98287
-6.12836
-5.34263
-4.6319
-3.99998
-3.42887
-2.92159
-2.46416
-2.06028
-1.69247
-1.36518
-1.05954
-0.784757
-0.522332
-0.30299
-0.131779
-18.0812
-18.0821
-18.0822
-18.0951
-18.1909
-18.4975
-18.8581
-19.1268
-19.3114
-19.4346
-19.4651
-19.3706
-19.1352
-18.6125
-17.8463
-17.2404
-16.442
-15.4931
-14.443
-13.3384
-12.205
-11.0713
-9.95497
-8.88955
-7.89496
-6.98022
-6.12472
-5.34092
-4.6286
-3.99803
-3.42605
-2.92048
-2.46215
-2.05991
-1.69124
-1.36521
-1.05839
-0.784447
-0.518166
-0.297163
-0.129232
-18.0909
-18.0928
-18.0955
-18.1112
-18.2085
-18.5131
-18.8681
-19.1322
-19.3122
-19.4375
-19.464
-19.3664
-19.1294
-18.6118
-17.8444
-17.2418
-16.4462
-15.4947
-14.4445
-13.3385
-12.2056
-11.0711
-9.95576
-8.88963
-7.89615
-6.98239
-6.12686
-5.34213
-4.63029
-3.99927
-3.42724
-2.92174
-2.46345
-2.06162
-1.69288
-1.36703
-1.06004
-0.786837
-0.523008
-0.296999
-0.124979
-18.0974
-18.1001
-18.104
-18.1221
-18.2216
-18.5234
-18.8747
-19.1362
-19.3124
-19.4382
-19.4639
-19.363
-19.1239
-18.6011
-17.8417
-17.2404
-16.444
-15.4938
-14.4424
-13.337
-12.2026
-11.0685
-9.95299
-8.88735
-7.8905
-6.97996
-6.12218
-5.33945
-4.62693
-3.99626
-3.42419
-2.91936
-2.46123
-2.06029
-1.69126
-1.3663
-1.05878
-0.7868
-0.520932
-0.296422
-0.126609
-18.1003
-18.1032
-18.1071
-18.1249
-18.2247
-18.5276
-18.8793
-19.1385
-19.3119
-19.4376
-19.462
-19.3595
-19.1202
-18.5984
-17.84
-17.2347
-16.4363
-15.4877
-14.439
-13.3341
-12.2015
-11.0676
-9.95273
-8.88631
-7.89117
-6.97805
-6.12313
-5.3403
-4.628
-3.99798
-3.42653
-2.92235
-2.4642
-2.0634
-1.6942
-1.36939
-1.06176
-0.789032
-0.524011
-0.296911
-0.125012
-18.1003
-18.1025
-18.1048
-18.1206
-18.2184
-18.5276
-18.8814
-19.1377
-19.3111
-19.4351
-19.4571
-19.3555
-19.1154
-18.6002
-17.8375
-17.2278
-16.427
-15.4815
-14.4338
-13.3302
-12.1977
-11.0648
-9.94974
-8.88282
-7.88525
-6.97649
-6.11971
-5.33785
-4.62532
-3.99631
-3.42512
-2.92121
-2.46287
-2.06241
-1.69332
-1.36922
-1.06156
-0.789467
-0.524027
-0.297543
-0.125099
-18.0981
-18.0992
-18.0997
-18.1128
-18.2107
-18.5234
-18.8787
-19.1343
-19.3099
-19.4306
-19.453
-19.3526
-19.114
-18.5944
-17.8399
-17.2194
-16.4221
-15.4795
-14.4347
-13.3302
-12.199
-11.0653
-9.95153
-8.88305
-7.88548
-6.97618
-6.12137
-5.33949
-4.62726
-3.9981
-3.42797
-2.92346
-2.46561
-2.06471
-1.69613
-1.3721
-1.06443
-0.792632
-0.524575
-0.304345
-0.132091
-18.0948
-18.0944
-18.0919
-18.1021
-18.2006
-18.5171
-18.8726
-19.1267
-19.3042
-19.4264
-19.4499
-19.3509
-19.113
-18.5971
-17.8438
-17.2095
-16.4078
-15.4697
-14.4266
-13.3236
-12.1933
-11.0612
-9.94819
-8.88084
-7.88481
-6.97291
-6.12112
-5.33908
-4.6269
-3.99836
-3.42841
-2.92405
-2.4659
-2.06498
-1.69602
-1.37268
-1.06436
-0.794904
-0.527589
-0.312518
-0.138051
-18.0933
-18.0888
-18.0819
-18.0879
-18.1859
-18.5083
-18.8656
-19.1187
-19.2988
-19.4236
-19.4506
-19.3541
-19.1177
-18.6059
-17.8511
-17.2161
-16.413
-15.4709
-14.4286
-13.3229
-12.1949
-11.0605
-9.95155
-8.88071
-7.88757
-6.97564
-6.12409
-5.34112
-4.63096
-4.00058
-3.43222
-2.9262
-2.46952
-2.06731
-1.69909
-1.37526
-1.06725
-0.800513
-0.536054
-0.345585
-0.152588
-18.0975
-18.0838
-18.0747
-18.0755
-18.1688
-18.5014
-18.8604
-19.1141
-19.2981
-19.4229
-19.4547
-19.3603
-19.1234
-18.611
-17.8329
-17.206
-16.4101
-15.4663
-14.4241
-13.3188
-12.1917
-11.0574
-9.95001
-8.87854
-7.88793
-6.97734
-6.12468
-5.34047
-4.63216
-4.00087
-3.43308
-2.92597
-2.47128
-2.06668
-1.70153
-1.37377
-1.0715
-0.801906
-0.547628
-0.355679
-0.133676
-17.3022
-16.618
-15.8815
-15.0312
-14.0888
-13.0847
-12.05
-11.0082
-9.97729
-8.98002
-8.03507
-7.15244
-6.32409
-5.55884
-4.8585
-4.22498
-3.64794
-3.12856
-2.65659
-2.23262
-1.84431
-1.4945
-1.17827
-0.882586
-18.1138
-18.1144
-18.1235
-18.1593
-18.2589
-18.4462
-18.6645
-18.8453
-18.9673
-19.0188
-18.9822
-18.8388
-18.5768
-18.0912
-17.2849
-16.6297
-15.8835
-15.0293
-14.0881
-13.0845
-12.0516
-11.009
-9.98153
-8.98245
-8.03672
-7.15327
-6.32894
-5.56175
-4.86281
-4.22606
-3.65239
-3.12913
-2.66117
-2.23191
-1.84857
-1.49038
-1.16879
-0.853872
-0.608661
-0.401399
-0.153952
-18.119
-18.1217
-18.1338
-18.1733
-18.2739
-18.457
-18.6727
-18.8525
-18.9719
-19.02
-18.9801
-18.8347
-18.5732
-18.0745
-17.2866
-16.6308
-15.8773
-15.026
-14.0837
-13.0824
-12.0474
-11.0064
-9.97736
-8.97961
-8.03129
-7.15016
-6.32477
-5.56069
-4.85787
-4.22486
-3.64698
-3.12933
-2.65548
-2.23365
-1.84274
-1.4941
-1.16454
-0.872581
-0.592188
-0.352972
-0.138495
-18.127
-18.1315
-18.147
-18.1897
-18.2912
-18.4712
-18.6829
-18.8607
-18.9768
-19.0214
-18.9781
-18.8294
-18.5656
-18.0684
-17.2797
-16.6287
-15.8794
-15.0281
-14.088
-13.0851
-12.0519
-11.0086
-9.9815
-8.98123
-8.03482
-7.15175
-6.32892
-5.5622
-4.86136
-4.22565
-3.65045
-3.13015
-2.6591
-2.23452
-1.84682
-1.49594
-1.17036
-0.873631
-0.594089
-0.34285
-0.130598
-18.1362
-18.1415
-18.1593
-18.2045
-18.3063
-18.4843
-18.6928
-18.8675
-18.9811
-19.0229
-18.977
-18.8257
-18.5599
-18.0595
-17.2733
-16.6282
-15.879
-15.0284
-14.0857
-13.0834
-12.0477
-11.0051
-9.97589
-8.97715
-8.02892
-7.14765
-6.3229
-5.55857
-4.85577
-4.22246
-3.64536
-3.12771
-2.65488
-2.23299
-1.84367
-1.49541
-1.1678
-0.872376
-0.59077
-0.337531
-0.128664
-18.144
-18.1499
-18.1692
-18.2158
-18.318
-18.4946
-18.7004
-18.8726
-18.984
-19.024
-18.9759
-18.8222
-18.5545
-18.0558
-17.2715
-16.6267
-15.8797
-15.0283
-14.0873
-13.0842
-12.05
-11.0064
-9.9783
-8.97841
-8.03132
-7.14955
-6.32569
-5.56026
-4.8584
-4.22448