/*--------------------------------*- C++ -*----------------------------------*\
  =========                 |
  \\      /  F ield         | OpenFOAM: The Open Source CFD Toolbox
   \\    /   O peration     | Website:  https://openfoam.org
    \\  /    A nd           | Version:  7
     \\/     M anipulation  |
\*---------------------------------------------------------------------------*/
FoamFile
{
    version     2.0;
    format      ascii;
    class       volVectorField;
    location    "500";
    object      U;
}
// * * * * * * * * * * * * * * * * * * * * * * * * * * * * * * * * * * * * * //

dimensions      [0 1 -1 0 0 0 0];

internalField   nonuniform List<vector> 
120313
(
(-2.9697 -0.0435047 -0.0173949)
(-2.93487 -0.032669 -0.0535183)
(-2.86702 -0.0385193 -0.0815564)
(-2.72928 -0.0420174 -0.106916)
(-2.55004 -0.0456334 -0.126007)
(-2.337 -0.0452609 -0.143152)
(-2.10007 -0.0430567 -0.159863)
(-1.84427 -0.0532665 -0.178051)
(-1.57138 -0.0618194 -0.203011)
(-1.16779 -0.0652221 -0.188648)
(-0.926876 -0.061932 -0.171646)
(-0.595474 -0.0526179 -0.186199)
(-0.322344 -0.0478429 -0.184396)
(-0.0448975 -0.0436806 -0.192898)
(0.216504 -0.0387538 -0.170509)
(0.469452 -0.0382977 -0.148063)
(0.707357 -0.0370338 -0.136029)
(0.926702 -0.0339954 -0.123261)
(1.13528 -0.0337358 -0.109659)
(1.31552 -0.028934 -0.10105)
(1.50075 -0.0299797 -0.0926636)
(1.64344 -0.0238305 -0.0948898)
(1.82934 -0.0265863 -0.0837184)
(1.90235 -0.0181321 -0.0561571)
(-2.84469 -0.0170194 -0.0227809)
(-2.76837 -0.00965674 -0.0608833)
(-2.70175 -0.0123034 -0.0930324)
(-2.55502 -0.0147101 -0.124086)
(-2.3731 -0.0171149 -0.149302)
(-2.16181 -0.0160386 -0.175105)
(-1.9303 -0.0117472 -0.204762)
(-1.5607 -0.0356136 -0.202315)
(-1.32987 -0.0562682 -0.196733)
(-0.999052 -0.0473477 -0.207837)
(-0.729777 -0.045719 -0.200618)
(-0.427287 -0.0406883 -0.207597)
(-0.153402 -0.0362962 -0.215684)
(0.117072 -0.0343061 -0.210805)
(0.376027 -0.0331979 -0.178189)
(0.61878 -0.0305606 -0.157862)
(0.848419 -0.0284794 -0.148331)
(1.05781 -0.0257261 -0.136225)
(1.26234 -0.0238352 -0.123926)
(1.43323 -0.0204049 -0.113453)
(1.61979 -0.0181857 -0.10378)
(1.74655 -0.0152844 -0.101463)
(1.92349 -0.0150886 -0.0921665)
(1.94852 -0.00810038 -0.0595699)
(-2.84625 -0.0169445 -0.0213685)
(-2.76952 -0.0141016 -0.0645033)
(-2.69849 -0.0161414 -0.102243)
(-2.54677 -0.0182273 -0.134855)
(-2.35927 -0.0207158 -0.158573)
(-2.13976 -0.0229709 -0.185642)
(-1.91503 -0.0251653 -0.219063)
(-1.55213 -0.0375719 -0.223187)
(-1.30782 -0.0461256 -0.208547)
(-0.982458 -0.0455978 -0.220875)
(-0.70688 -0.0430997 -0.214776)
(-0.407858 -0.039614 -0.22199)
(-0.135347 -0.0373089 -0.233291)
(0.136056 -0.0359579 -0.224525)
(0.391297 -0.0342208 -0.187282)
(0.634885 -0.0306662 -0.166244)
(0.864212 -0.027987 -0.156919)
(1.07396 -0.0253212 -0.144453)
(1.27776 -0.0222235 -0.131648)
(1.4517 -0.0195321 -0.120141)
(1.6328 -0.0160226 -0.110967)
(1.7695 -0.0139843 -0.10972)
(1.93552 -0.0114402 -0.0961792)
(1.9512 -0.0070415 -0.0620497)
(-2.84636 -0.00452006 -0.0221436)
(-2.76856 -0.00379255 -0.0659552)
(-2.69606 -0.00487954 -0.105354)
(-2.54237 -0.0065215 -0.13914)
(-2.35266 -0.00846408 -0.164078)
(-2.13279 -0.0104115 -0.193001)
(-1.90206 -0.0139966 -0.228442)
(-1.52937 -0.0237424 -0.228628)
(-1.29858 -0.025126 -0.214176)
(-0.963297 -0.0255309 -0.230858)
(-0.6918 -0.0256079 -0.222384)
(-0.392602 -0.0237888 -0.229724)
(-0.120891 -0.0232457 -0.241911)
(0.152109 -0.0220915 -0.230933)
(0.403204 -0.0206681 -0.191211)
(0.647645 -0.0178482 -0.170465)
(0.876264 -0.0155116 -0.161132)
(1.08574 -0.0132031 -0.148286)
(1.28866 -0.0106922 -0.134904)
(1.46333 -0.00846396 -0.12298)
(1.64284 -0.00588525 -0.113128)
(1.78164 -0.00364064 -0.111741)
(1.94545 -0.00128406 -0.0977058)
(1.96431 -0.000623677 -0.0687194)
(-2.8421 0.000100238 -0.0222905)
(-2.76476 0.000454973 -0.0661779)
(-2.69238 0.000749434 -0.105943)
(-2.53858 0.000215788 -0.139871)
(-2.34849 -0.000843465 -0.165105)
(-2.12854 -0.00192949 -0.194621)
(-1.89563 -0.0029179 -0.230704)
(-1.5204 -0.00298602 -0.228566)
(-1.29425 -0.00259803 -0.214415)
(-0.955554 -0.00400687 -0.231287)
(-0.685439 -0.00460148 -0.222605)
(-0.3857 -0.00481492 -0.23024)
(-0.114202 -0.00501116 -0.242533)
(0.158966 -0.00482689 -0.230558)
(0.40862 -0.00428209 -0.190414)
(0.653315 -0.00333483 -0.170206)
(0.881476 -0.0020164 -0.160559)
(1.09059 -0.000780208 -0.147748)
(1.29333 0.000459006 -0.134665)
(1.46796 0.00153372 -0.12293)
(1.64717 0.00280813 -0.113456)
(1.7863 0.00440451 -0.112186)
(1.94982 0.00549204 -0.0981216)
(1.96962 0.00692232 -0.0691186)
(-2.83358 0.0136495 -0.0208527)
(-2.75864 0.0115695 -0.0641925)
(-2.6883 0.0131037 -0.102856)
(-2.53638 0.0130863 -0.136325)
(-2.34788 0.0122895 -0.161183)
(-2.12824 0.0108823 -0.190063)
(-1.89708 0.00876719 -0.22514)
(-1.5251 0.0158978 -0.224596)
(-1.29327 0.0213852 -0.211448)
(-0.958715 0.0188217 -0.226963)
(-0.686296 0.0164049 -0.219151)
(-0.386696 0.0141441 -0.226673)
(-0.114918 0.0128567 -0.238184)
(0.157335 0.0120998 -0.226346)
(0.408856 0.012242 -0.187727)
(0.65283 0.0115272 -0.167955)
(0.881005 0.0119779 -0.158036)
(1.08953 0.0125884 -0.145176)
(1.29227 0.0133599 -0.132523)
(1.4657 0.0139094 -0.120627)
(1.64534 0.0143966 -0.111859)
(1.78285 0.0153864 -0.110367)
(1.94816 0.0160338 -0.0965051)
(1.96444 0.0147287 -0.0619202)
(-2.81978 0.0140141 -0.0213805)
(-2.74688 0.00683697 -0.0605386)
(-2.68165 0.0091145 -0.0939328)
(-2.53452 0.00990082 -0.12654)
(-2.35181 0.0094036 -0.152656)
(-2.13956 0.00478188 -0.179334)
(-1.90124 -0.00293196 -0.210064)
(-1.5324 0.0197781 -0.207239)
(-1.29866 0.0371797 -0.203493)
(-0.966628 0.0272881 -0.215417)
(-0.696738 0.025778 -0.208031)
(-0.394749 0.0224427 -0.214786)
(-0.122218 0.0200664 -0.224305)
(0.148849 0.0178125 -0.214737)
(0.405416 0.018334 -0.180943)
(0.647523 0.0170944 -0.162063)
(0.875573 0.0171986 -0.151445)
(1.08304 0.0168769 -0.138555)
(1.28568 0.0182061 -0.126333)
(1.45593 0.0175076 -0.114952)
(1.63976 0.0186791 -0.106045)
(1.76921 0.0177618 -0.103691)
(1.94452 0.0200604 -0.0932549)
(1.97264 0.015596 -0.060531)
(-2.92616 0.0372691 -0.0200083)
(-2.89348 0.027569 -0.0560741)
(-2.82823 0.0358511 -0.0836544)
(-2.69086 0.0405354 -0.108907)
(-2.5128 0.0437772 -0.128117)
(-2.29918 0.0417449 -0.146243)
(-2.06111 0.0383549 -0.164316)
(-1.80527 0.0479958 -0.183955)
(-1.52363 0.0567317 -0.209139)
(-1.12778 0.0600421 -0.19269)
(-0.882606 0.0553185 -0.17724)
(-0.557864 0.0486529 -0.190101)
(-0.285043 0.0459782 -0.191006)
(-0.00857198 0.0420243 -0.199127)
(0.251718 0.0392234 -0.173848)
(0.501535 0.0381817 -0.149073)
(0.735853 0.0382529 -0.137059)
(0.952227 0.0359796 -0.123935)
(1.15831 0.0372621 -0.109984)
(1.33814 0.0325714 -0.101253)
(1.52168 0.0364021 -0.0940106)
(1.66856 0.0294388 -0.097101)
(1.85721 0.0364443 -0.0841652)
(1.93385 0.0335024 -0.0551009)
(-0.440649 0.0106492 0.419379)
(-0.800838 -0.00374797 0.326753)
(-1.07193 -0.00844658 0.27003)
(-1.30482 -0.0109645 0.241982)
(-1.51331 -0.0129656 0.222219)
(-1.69695 -0.0146441 0.201444)
(-1.84985 -0.0149927 0.177772)
(-1.98224 -0.0135182 0.151245)
(-2.09124 -0.00945003 0.119087)
(-2.19653 0.00369008 0.0608902)
(-2.19132 0.00518643 -0.0106739)
(-2.10778 -0.00290989 -0.0657947)
(-1.96756 -0.00551109 -0.106554)
(-1.78643 -0.00717616 -0.136269)
(-1.57384 -0.00768252 -0.159387)
(-1.33731 -0.00914991 -0.17751)
(-1.08095 -0.0117336 -0.190995)
(-0.810142 -0.0140078 -0.202364)
(-0.528945 -0.0168858 -0.209733)
(-0.238907 -0.019758 -0.218905)
(0.0444195 -0.0199207 -0.21759)
(0.325121 -0.0168328 -0.211348)
(0.593251 -0.014335 -0.204799)
(0.843847 -0.0135639 -0.193613)
(1.0864 -0.0128895 -0.179776)
(1.30779 -0.0117343 -0.166087)
(1.5148 -0.0113918 -0.152187)
(1.70757 -0.0107492 -0.139667)
(1.88759 -0.0091908 -0.129664)
(2.05443 -0.00791388 -0.121613)
(2.20697 -0.00532188 -0.114258)
(2.34971 -0.00234294 -0.107501)
(2.48177 -0.00147344 -0.0977589)
(2.60783 0.00344131 -0.0885646)
(2.7096 0.0131573 -0.0855163)
(2.83498 0.0332051 -0.0825348)
(-0.421415 0.0243766 0.414221)
(-0.775205 -0.00729739 0.323573)
(-1.04775 -0.0164197 0.266615)
(-1.28323 -0.0211159 0.238002)
(-1.49529 -0.0245832 0.217589)
(-1.68384 -0.0271636 0.196369)
(-1.84553 -0.0281066 0.172849)
(-2.00531 -0.0250544 0.148257)
(-2.11441 -0.0133937 0.114371)
(-1.83356 0.00204127 0.0822448)
(-1.63136 0.0175228 -0.0353141)
(-1.51978 0.00043833 -0.121865)
(-1.34791 -0.00285426 -0.180931)
(-1.15468 -0.00620381 -0.224062)
(-0.934197 -0.00746927 -0.258788)
(-0.695039 -0.0101381 -0.289794)
(-0.439119 -0.019155 -0.312821)
(-0.170697 -0.0279759 -0.339517)
(0.108532 -0.0345618 -0.342533)
(0.374389 -0.0386218 -0.336382)
(0.64608 -0.0366511 -0.333796)
(0.902475 -0.0352677 -0.323092)
(1.15056 -0.033573 -0.312373)
(1.38607 -0.0301915 -0.295681)
(1.60847 -0.0280172 -0.276188)
(1.81504 -0.0253566 -0.255714)
(2.00588 -0.0225545 -0.236598)
(2.18321 -0.0210092 -0.217519)
(2.34538 -0.0183727 -0.201183)
(2.49855 -0.0176074 -0.185671)
(2.62883 -0.011813 -0.171184)
(2.7555 -0.0109738 -0.164403)
(2.83099 -0.00463671 -0.136943)
(2.86068 0.0103437 -0.116984)
(2.75291 0.0129163 -0.11599)
(2.81836 0.0254823 -0.0976541)
(-0.380081 0.0185694 0.408079)
(-0.732659 -0.0107283 0.321832)
(-1.00868 -0.0205046 0.263957)
(-1.24712 -0.025915 0.234249)
(-1.46162 -0.0294121 0.212305)
(-1.65215 -0.0312748 0.188868)
(-1.81651 -0.0310041 0.162357)
(-1.98132 -0.0290364 0.131761)
(-2.09158 -0.0146072 0.0986725)
(-1.7798 0.0132492 0.0812419)
(-1.45126 0.0247594 -0.0339913)
(-1.31291 0.012593 -0.140293)
(-1.12071 0.00860372 -0.207939)
(-0.918541 0.00554533 -0.255836)
(-0.691287 0.00462979 -0.297621)
(-0.447567 0.00278492 -0.346688)
(-0.187517 -0.00813533 -0.366701)
(0.0709418 -0.0213847 -0.37543)
(0.342656 -0.0261559 -0.381475)
(0.603254 -0.0277255 -0.376961)
(0.864598 -0.0269976 -0.370956)
(1.11372 -0.0246965 -0.359376)
(1.35386 -0.0226827 -0.346481)
(1.58005 -0.0214191 -0.326911)
(1.79353 -0.020231 -0.305235)
(1.99255 -0.018582 -0.283052)
(2.1756 -0.0166279 -0.262766)
(2.34647 -0.0150553 -0.242576)
(2.50019 -0.0126585 -0.22514)
(2.64876 -0.0116386 -0.208916)
(2.76346 -0.0075736 -0.190555)
(2.88491 -0.00837547 -0.185766)
(2.89956 -0.00209558 -0.146871)
(2.88839 0.00620855 -0.121845)
(2.77852 0.00645683 -0.128961)
(2.83877 0.0128595 -0.103711)
(-0.352621 0.0192421 0.407143)
(-0.708287 -0.00753775 0.319551)
(-0.985772 -0.0196985 0.26148)
(-1.22643 -0.0259781 0.231435)
(-1.44376 -0.0291951 0.20871)
(-1.63741 -0.0300047 0.184175)
(-1.80585 -0.0278765 0.156563)
(-1.97787 -0.0221058 0.125864)
(-2.09536 -0.0102814 0.0967102)
(-1.768 0.00517112 0.0891283)
(-1.38621 0.0146354 -0.0284326)
(-1.22939 0.009329 -0.145738)
(-1.02404 0.00687759 -0.21787)
(-0.813677 0.00448308 -0.267386)
(-0.579588 0.00280154 -0.311669)
(-0.331307 -0.000233322 -0.366417)
(-0.069315 -0.00854834 -0.39124)
(0.185978 -0.0178395 -0.397763)
(0.454737 -0.0218415 -0.402262)
(0.712659 -0.0234707 -0.397021)
(0.969857 -0.0233393 -0.389618)
(1.21533 -0.0220862 -0.378361)
(1.45169 -0.0212071 -0.364497)
(1.67365 -0.0203802 -0.343308)
(1.88343 -0.0189647 -0.320498)
(2.07889 -0.0172501 -0.297172)
(2.25833 -0.0152421 -0.275842)
(2.42601 -0.0132588 -0.254701)
(2.57605 -0.010851 -0.236155)
(2.72184 -0.00909395 -0.218971)
(2.83025 -0.00594221 -0.200925)
(2.94695 -0.00526337 -0.189137)
(2.93267 0.000515474 -0.149192)
(2.91484 0.00384495 -0.12768)
(2.80157 0.00442686 -0.133935)
(2.86251 0.00745921 -0.105423)
(-0.364315 0.0217822 0.404719)
(-0.710275 -0.00438979 0.315567)
(-0.984032 -0.0163924 0.258906)
(-1.22488 -0.0219909 0.229525)
(-1.44409 -0.0241482 0.207009)
(-1.6399 -0.023725 0.182509)
(-1.8096 -0.0205478 0.154853)
(-1.98104 -0.014786 0.124513)
(-2.09626 -0.00593174 0.0967211)
(-1.76215 0.00190546 0.0912865)
(-1.36204 0.00602233 -0.0283638)
(-1.19732 0.00531667 -0.148581)
(-0.985235 0.00476918 -0.222856)
(-0.769419 0.00368461 -0.273699)
(-0.531264 0.00219299 -0.320837)
(-0.27936 -0.000720172 -0.377851)
(-0.0160567 -0.00576051 -0.402243)
(0.237095 -0.0102636 -0.408469)
(0.506379 -0.0124999 -0.413316)
(0.76283 -0.0140719 -0.407275)
(1.01851 -0.0143981 -0.399535)
(1.26264 -0.0140732 -0.388221)
(1.49712 -0.0137724 -0.373673)
(1.71678 -0.0132282 -0.351396)
(1.92485 -0.0120744 -0.328129)
(2.11844 -0.0106607 -0.304003)
(2.29618 -0.00905398 -0.281783)
(2.46226 -0.00740095 -0.259691)
(2.61091 -0.005582 -0.240464)
(2.7555 -0.00389966 -0.222525)
(2.86194 -0.00169111 -0.204506)
(2.97652 -0.000137128 -0.191279)
(2.95439 0.0030191 -0.151247)
(2.9316 0.00382638 -0.129804)
(2.81988 0.00463001 -0.138971)
(2.88176 0.00592663 -0.108465)
(-0.371973 0.0177037 0.400249)
(-0.710411 -0.00390917 0.312264)
(-0.981085 -0.0122908 0.256928)
(-1.22141 -0.0157617 0.228198)
(-1.44113 -0.0165745 0.205961)
(-1.6376 -0.0155358 0.18165)
(-1.80748 -0.0127377 0.154149)
(-1.97846 -0.00896542 0.124686)
(-2.0925 -0.00427339 0.0970023)
(-1.75745 -0.00523534 0.0916775)
(-1.35742 -0.00437033 -0.0282546)
(-1.1919 -0.000923001 -0.149197)
(-0.979345 0.000465597 -0.223601)
(-0.762574 0.000804542 -0.274928)
(-0.523465 -1.84937e-07 -0.322919)
(-0.270383 -0.00126795 -0.380486)
(-0.00639979 -0.0015702 -0.404532)
(0.246633 -0.00142419 -0.41074)
(0.516509 -0.00220498 -0.415807)
(0.772822 -0.00301516 -0.409613)
(1.02847 -0.00368794 -0.401857)
(1.27239 -0.00420127 -0.390441)
(1.50637 -0.00441277 -0.375458)
(1.72539 -0.00419789 -0.352721)
(1.93299 -0.00365228 -0.329119)
(2.12595 -0.00292808 -0.304548)
(2.30322 -0.00214881 -0.282165)
(2.46893 -0.00121319 -0.260195)
(2.61713 -0.000342093 -0.24102)
(2.76141 0.000944275 -0.223098)
(2.86747 0.00201519 -0.204886)
(2.98213 0.00359368 -0.191645)
(2.96001 0.003907 -0.151365)
(2.93711 0.00565445 -0.129767)
(2.82827 0.00586891 -0.139467)
(2.89126 0.0054483 -0.109015)
(-0.36208 0.00936959 0.396654)
(-0.698787 -0.00398757 0.311146)
(-0.96939 -0.00765323 0.256139)
(-1.2094 -0.00857454 0.22747)
(-1.42881 -0.00788035 0.205245)
(-1.62521 -0.00621481 0.180889)
(-1.7955 -0.00406808 0.15354)
(-1.96738 -0.00251807 0.124622)
(-2.08319 -0.00128721 0.096144)
(-1.75437 -0.00844897 0.0916068)
(-1.37383 -0.0132498 -0.0268923)
(-1.2148 -0.00534545 -0.145543)
(-1.00777 -0.00198194 -0.218929)
(-0.794619 -0.000403532 -0.270215)
(-0.557623 -0.000887479 -0.317216)
(-0.305855 -0.00115786 -0.373474)
(-0.0415632 0.00301406 -0.397113)
(0.213968 0.0082258 -0.403877)
(0.484331 0.00897437 -0.409246)
(0.742056 0.00866509 -0.403617)
(0.998862 0.00767539 -0.396018)
(1.24386 0.00636334 -0.384431)
(1.47885 0.00577054 -0.369393)
(1.69916 0.00562079 -0.34701)
(1.90733 0.00549049 -0.323554)
(2.10089 0.00552112 -0.299394)
(2.27847 0.00562504 -0.27746)
(2.44462 0.0061582 -0.25609)
(2.59315 0.0062913 -0.237247)
(2.73795 0.00731868 -0.219912)
(2.84527 0.00690781 -0.201433)
(2.9621 0.00888487 -0.189755)
(2.94848 0.00634697 -0.149816)
(2.93094 0.00591922 -0.126946)
(2.82434 0.00643224 -0.136059)
(2.88809 0.0049766 -0.107372)
(-0.338656 0.0025677 0.397065)
(-0.683929 -0.00124484 0.311892)
(-0.956443 -0.00260687 0.256338)
(-1.19561 -0.00190268 0.22759)
(-1.41326 0.000176322 0.205466)
(-1.60768 0.00299098 0.181164)
(-1.77663 0.00588966 0.154035)
(-1.94866 0.00739561 0.125186)
(-2.06564 0.00501213 0.0969344)
(-1.75587 -0.0175001 0.0870691)
(-1.42962 -0.0248175 -0.0306857)
(-1.2883 -0.0104553 -0.138872)
(-1.09334 -0.00522215 -0.209241)
(-0.888127 -0.00267928 -0.26035)
(-0.656896 -0.00357486 -0.305191)
(-0.408693 -0.00402533 -0.355842)
(-0.145039 0.00429586 -0.375485)
(0.115876 0.0145709 -0.384637)
(0.388242 0.0167274 -0.391824)
(0.648592 0.0171208 -0.386975)
(0.909073 0.0158566 -0.379799)
(1.15723 0.0136227 -0.368008)
(1.39564 0.0120395 -0.354001)
(1.61943 0.0114447 -0.33313)
(1.83035 0.0110394 -0.310421)
(2.02649 0.0107934 -0.287076)
(2.20656 0.0104737 -0.265768)
(2.37497 0.0108918 -0.244986)
(2.52635 0.0104365 -0.226848)
(2.6734 0.0116002 -0.210409)
(2.78695 0.00947134 -0.191866)
(2.90794 0.0122339 -0.186337)
(2.92397 0.0087622 -0.149828)
(2.91425 0.00385441 -0.121321)
(2.8132 0.00511889 -0.130373)
(2.87752 0.00271086 -0.103613)
(-0.354575 0.0124769 0.395589)
(-0.693999 0.00288778 0.311333)
(-0.962976 0.000773104 0.257212)
(-1.19961 0.00206387 0.229396)
(-1.41495 0.00502638 0.208237)
(-1.60726 0.00888437 0.185139)
(-1.77446 0.0131679 0.159506)
(-1.94508 0.0181209 0.134743)
(-2.07013 0.0141354 0.105402)
(-1.80355 -0.00882713 0.0889169)
(-1.59333 -0.0164439 -0.0298178)
(-1.47983 0.000982751 -0.119732)
(-1.30546 0.00720669 -0.182854)
(-1.11007 0.0103519 -0.230343)
(-0.885898 0.0102446 -0.267776)
(-0.642665 0.011195 -0.300869)
(-0.383245 0.0187955 -0.324717)
(-0.111464 0.0263581 -0.349701)
(0.167547 0.0315968 -0.351914)
(0.432449 0.0345531 -0.346197)
(0.702188 0.0317552 -0.342587)
(0.956466 0.0295118 -0.331667)
(1.20274 0.0272796 -0.320379)
(1.43476 0.0246352 -0.302614)
(1.65351 0.0232591 -0.281416)
(1.8566 0.0222447 -0.259328)
(2.04392 0.0208298 -0.23902)
(2.21833 0.0206321 -0.219071)
(2.37777 0.0187163 -0.20211)
(2.52931 0.0192 -0.186415)
(2.6579 0.0141168 -0.171751)
(2.78401 0.015515 -0.165137)
(2.85641 0.0118461 -0.136928)
(2.88531 0.00181414 -0.113912)
(2.79426 0.00261837 -0.127708)
(2.86093 -0.00199883 -0.10255)
(-0.377926 0.00439728 0.392447)
(-0.710674 0.00012506 0.311019)
(-0.975383 0.000189038 0.259316)
(-1.20964 0.00237842 0.233177)
(-1.42268 0.00556138 0.2141)
(-1.61184 0.00935206 0.194063)
(-1.77323 0.0133371 0.172446)
(-1.93035 0.0150316 0.152915)
(-2.04165 0.00975301 0.122603)
(-1.84878 -0.0143505 0.0811557)
(-1.76829 -0.0170602 -0.029447)
(-1.67306 0.00115031 -0.0972884)
(-1.51411 0.00605773 -0.152588)
(-1.32426 0.00947293 -0.19488)
(-1.10284 0.0102701 -0.228131)
(-0.859981 0.0118524 -0.255695)
(-0.598829 0.0166819 -0.277058)
(-0.325459 0.0222606 -0.293167)
(-0.0460569 0.028104 -0.298765)
(0.232086 0.0335813 -0.300457)
(0.504412 0.0317224 -0.297824)
(0.766474 0.0302736 -0.289248)
(1.01923 0.0290176 -0.279974)
(1.2544 0.0269636 -0.262693)
(1.47806 0.0252117 -0.244)
(1.68561 0.0230633 -0.224756)
(1.87785 0.020996 -0.206147)
(2.05623 0.0202192 -0.188306)
(2.22113 0.0181058 -0.173057)
(2.37464 0.0171821 -0.159475)
(2.51617 0.0119845 -0.146473)
(2.64562 0.0108553 -0.139078)
(2.77052 0.00786833 -0.123937)
(2.85588 -0.00472266 -0.113814)
(2.78392 -0.00242632 -0.126398)
(2.85409 -0.00851092 -0.101996)
(-0.391216 0.000687894 0.388918)
(-0.714947 -0.00540521 0.311571)
(-0.978648 -0.00207314 0.261035)
(-1.21384 0.00109556 0.235193)
(-1.42799 0.00381855 0.216792)
(-1.61847 0.00605109 0.198464)
(-1.78054 0.00686217 0.180139)
(-1.93823 0.00300887 0.163294)
(-2.09116 -0.0138637 0.119372)
(-2.22484 -0.00785281 0.0606899)
(-2.22513 -0.000987165 -0.00447504)
(-2.15204 0.0135118 -0.0597208)
(-2.01384 0.0178793 -0.101081)
(-1.83378 0.0208012 -0.132843)
(-1.61947 0.0210902 -0.157704)
(-1.37954 0.0215616 -0.177628)
(-1.11906 0.0234955 -0.193163)
(-0.843684 0.0256859 -0.204548)
(-0.558442 0.028241 -0.210722)
(-0.268223 0.0308444 -0.21915)
(0.0211317 0.0284288 -0.222293)
(0.300739 0.0239658 -0.214804)
(0.569391 0.0210075 -0.208485)
(0.822305 0.0190791 -0.197024)
(1.0624 0.0179373 -0.18121)
(1.28494 0.0154043 -0.166058)
(1.49224 0.0133433 -0.150956)
(1.68512 0.0119305 -0.138039)
(1.86382 0.0104682 -0.127189)
(2.03009 0.00832774 -0.118703)
(2.1861 0.00471027 -0.109264)
(2.33131 0.000514093 -0.100752)
(2.46757 -0.00329599 -0.091348)
(2.5953 -0.0101532 -0.083852)
(2.71814 -0.00572893 -0.0807931)
(2.84898 -0.0142921 -0.0933515)
(-0.346551 -0.0267135 0.389995)
(-0.679944 -0.00879539 0.31665)
(-0.951665 -0.00218898 0.262691)
(-1.18995 0.000700228 0.2343)
(-1.40456 0.00263966 0.213142)
(-1.5946 0.00428435 0.190819)
(-1.75628 0.0050375 0.165748)
(-1.89398 0.0016865 0.143156)
(-2.01058 -0.0144326 0.130911)
(-2.1169 -0.00557717 0.0543806)
(-2.11691 0.000465564 -0.014581)
(-2.03931 0.00465639 -0.0714419)
(-1.90319 0.00701184 -0.113858)
(-1.72333 0.00872792 -0.145888)
(-1.5101 0.00989373 -0.170582)
(-1.27112 0.0110317 -0.189503)
(-1.01166 0.0128289 -0.202703)
(-0.736651 0.0148939 -0.212096)
(-0.45182 0.0169726 -0.21813)
(-0.162485 0.0190341 -0.22587)
(0.123137 0.0200578 -0.228581)
(0.403181 0.0201308 -0.218179)
(0.671952 0.0196873 -0.20948)
(0.92581 0.0181088 -0.197005)
(1.16729 0.0160684 -0.183753)
(1.39212 0.0134453 -0.171063)
(1.60217 0.0115113 -0.159275)
(1.79654 0.00960983 -0.14907)
(1.97627 0.00799823 -0.140305)
(2.1428 0.00555437 -0.132038)
(2.29657 0.00332085 -0.121594)
(2.43914 0.00117622 -0.113246)
(2.56959 0.000528152 -0.102762)
(2.69579 -0.00281586 -0.100429)
(2.79987 -0.00404182 -0.0942159)
(2.92111 -0.0066987 -0.107729)
(0.0916702 -0.0105337 -0.00373751)
(0.13566 -0.00969574 -0.182383)
(0.295906 -0.0065329 -0.294821)
(0.473181 -0.00410926 -0.376848)
(0.671172 -0.00319762 -0.438252)
(0.885584 -0.00261059 -0.484987)
(1.11105 -0.00204887 -0.521811)
(1.34132 -0.00192582 -0.545756)
(1.57104 -0.00220293 -0.56002)
(1.79788 -0.00291499 -0.566694)
(2.02037 -0.00361136 -0.563853)
(2.23216 -0.0037382 -0.549779)
(2.43308 -0.00355492 -0.527869)
(2.62262 -0.00342579 -0.501635)
(2.80035 -0.00321928 -0.473144)
(2.96534 -0.00318528 -0.442895)
(3.11824 -0.00300655 -0.413557)
(3.25914 -0.00316418 -0.384079)
(3.38895 -0.00310678 -0.357235)
(3.50813 -0.00325866 -0.331131)
(3.61818 -0.00275641 -0.309402)
(3.71788 -0.00274654 -0.287727)
(3.80998 0.00061164 -0.271077)
(3.89725 0.00154978 -0.253165)
(-0.246819 0.0185225 0.691713)
(-0.388832 0.003406 0.529219)
(-0.489078 -0.0016851 0.446635)
(-0.578104 -0.00417798 0.402388)
(-0.650088 -0.00648477 0.363061)
(-0.69775 -0.0095077 0.314679)
(-0.714015 -0.0136283 0.255497)
(-0.693899 -0.0162829 0.195841)
(-0.476613 -0.0170881 0.126164)
(-0.0419193 -0.000668825 0.0138061)
(0.0624604 0.0138079 -0.176157)
(0.218125 0.0051068 -0.283789)
(0.395261 0.00444653 -0.363492)
(0.592561 0.00431288 -0.424659)
(0.806248 0.00446579 -0.472338)
(1.0307 0.00496924 -0.509998)
(1.26218 0.00365042 -0.535061)
(1.49466 0.00101459 -0.5502)
(1.72577 -0.00249453 -0.556287)
(1.95035 -0.00579266 -0.551622)
(2.16653 -0.00641454 -0.539511)
(2.37005 -0.00624265 -0.518386)
(2.56266 -0.00609943 -0.492673)
(2.74131 -0.00546467 -0.464602)
(2.90985 -0.00534005 -0.435713)
(3.06415 -0.00492293 -0.406301)
(3.20791 -0.00509862 -0.377607)
(3.33855 -0.00509569 -0.350202)
(3.46059 -0.00527668 -0.32523)
(3.57058 -0.00449756 -0.302388)
(3.67388 -0.00397426 -0.282423)
(3.76074 -0.000989648 -0.263228)
(3.8622 -0.00416841 -0.248639)
(3.91994 -0.00137471 -0.227277)
(3.82357 0.00441908 -0.223361)
(3.87809 0.00608669 -0.207766)
(-0.227528 0.0369417 0.688266)
(-0.365793 0.00604373 0.527415)
(-0.465481 -0.0031483 0.442048)
(-0.55399 -0.00755812 0.396585)
(-0.626056 -0.0114715 0.355527)
(-0.675893 -0.0159901 0.305487)
(-0.703114 -0.0213081 0.246637)
(-0.713611 -0.025369 0.19308)
(-0.541666 -0.0231489 0.137304)
(-0.0159955 0.00144145 0.0056642)
(0.181615 0.0163782 -0.192566)
(0.360084 0.0114096 -0.299076)
(0.552597 0.0102072 -0.377665)
(0.756896 0.00926336 -0.439176)
(0.973521 0.00906429 -0.488091)
(1.19765 0.00921877 -0.5264)
(1.42564 0.00476374 -0.551192)
(1.65438 -0.00175198 -0.56631)
(1.87896 -0.00628586 -0.56885)
(2.0958 -0.0098905 -0.560129)
(2.30673 -0.0108123 -0.546569)
(2.50345 -0.010604 -0.524032)
(2.69026 -0.0101466 -0.499093)
(2.86302 -0.00953176 -0.471336)
(3.02615 -0.00911316 -0.442484)
(3.17546 -0.00830105 -0.413116)
(3.31441 -0.0073917 -0.385165)
(3.44054 -0.00686571 -0.357455)
(3.55725 -0.00564363 -0.332909)
(3.66216 -0.00530268 -0.309164)
(3.75583 -0.00227003 -0.289825)
(3.83413 -0.00183547 -0.269166)
(3.89464 0.00499215 -0.253728)
(3.95124 -0.000387056 -0.231522)
(3.99869 0.00956168 -0.238565)
(4.19682 0.00391171 -0.252058)
(-0.201696 0.0387352 0.678498)
(-0.334227 0.00574267 0.523832)
(-0.433495 -0.00477809 0.437902)
(-0.522644 -0.0101564 0.391428)
(-0.595308 -0.0143161 0.348037)
(-0.646505 -0.0182074 0.295562)
(-0.679392 -0.0218258 0.234987)
(-0.704101 -0.0227631 0.183278)
(-0.542591 -0.0129475 0.135636)
(0.0571329 0.00885585 -0.00318085)
(0.330419 0.0214715 -0.208584)
(0.542096 0.019197 -0.318283)
(0.754625 0.0168804 -0.399659)
(0.970865 0.0147334 -0.463881)
(1.19484 0.0138277 -0.515248)
(1.42155 0.013368 -0.557323)
(1.64697 0.00797441 -0.582939)
(1.86866 -0.000416166 -0.593858)
(2.0875 -0.00473768 -0.596195)
(2.29673 -0.00738064 -0.586359)
(2.50007 -0.00882527 -0.570012)
(2.68936 -0.0086623 -0.547353)
(2.86889 -0.00850523 -0.521962)
(3.03444 -0.00864708 -0.49219)
(3.19001 -0.00850793 -0.461561)
(3.33275 -0.00793507 -0.430936)
(3.46466 -0.0069496 -0.402182)
(3.58465 -0.00613956 -0.373554)
(3.69367 -0.00444101 -0.348404)
(3.79206 -0.00392684 -0.323502)
(3.87168 -0.000917064 -0.303307)
(3.9392 -0.00117904 -0.280733)
(3.96042 0.00336195 -0.264579)
(4.00181 0.00387857 -0.240756)
(4.03531 0.00942604 -0.253439)
(4.27348 0.00961897 -0.264324)
(-0.179222 0.0367506 0.671126)
(-0.309919 0.00713508 0.518844)
(-0.408558 -0.00545997 0.43382)
(-0.498843 -0.0120198 0.387596)
(-0.573189 -0.0160704 0.343242)
(-0.626248 -0.0190958 0.289587)
(-0.661985 -0.0210938 0.228183)
(-0.690572 -0.0199305 0.177896)
(-0.529383 -0.0100442 0.137241)
(0.0944736 0.00433735 -0.00107482)
(0.410445 0.0146368 -0.212215)
(0.646477 0.0152977 -0.326595)
(0.876369 0.0141485 -0.411626)
(1.103 0.0123075 -0.477664)
(1.33401 0.0111385 -0.530506)
(1.56483 0.00973875 -0.574425)
(1.79057 0.00553804 -0.603257)
(2.00913 -0.000309317 -0.614502)
(2.22524 -0.00396039 -0.616053)
(2.43019 -0.00669281 -0.604496)
(2.62874 -0.00825087 -0.586498)
(2.81471 -0.00862343 -0.56373)
(2.98936 -0.00902245 -0.537751)
(3.15034 -0.00931592 -0.506649)
(3.3012 -0.00907653 -0.474885)
(3.43958 -0.00840239 -0.44336)
(3.56685 -0.00722609 -0.413882)
(3.68288 -0.00606136 -0.384322)
(3.78667 -0.00425049 -0.358419)
(3.88101 -0.0033202 -0.332448)
(3.95132 -0.000546118 -0.312092)
(4.01107 -0.000555825 -0.287483)
(4.01295 0.00322141 -0.271368)
(4.04561 0.00449006 -0.247852)
(4.07631 0.00854432 -0.263922)
(4.32563 0.00882852 -0.272212)
(-0.178091 0.0344183 0.664287)
(-0.300848 0.00734583 0.512216)
(-0.396619 -0.00587204 0.429388)
(-0.486979 -0.0125874 0.384523)
(-0.562938 -0.0161209 0.340594)
(-0.618 -0.0181185 0.286985)
(-0.655702 -0.0187359 0.225843)
(-0.685368 -0.0166521 0.176533)
(-0.522113 -0.00869013 0.138611)
(0.11141 -0.000809201 -0.000219054)
(0.44557 0.00510991 -0.214088)
(0.693018 0.00712281 -0.330865)
(0.932712 0.0077913 -0.417772)
(1.1659 0.00764781 -0.485065)
(1.40177 0.00717493 -0.539513)
(1.63574 0.00581873 -0.584725)
(1.86168 0.00299891 -0.614669)
(2.07947 -0.000231906 -0.625995)
(2.29485 -0.00251843 -0.626896)
(2.49888 -0.00453738 -0.614709)
(2.69504 -0.00583906 -0.596488)
(2.87946 -0.00648283 -0.573529)
(3.05154 -0.0069756 -0.546965)
(3.20974 -0.00721993 -0.514943)
(3.3585 -0.00693603 -0.48269)
(3.49411 -0.0062691 -0.450513)
(3.61976 -0.00528501 -0.420342)
(3.73356 -0.00424518 -0.389715)
(3.83588 -0.00287165 -0.363137)
(3.92816 -0.00174309 -0.336322)
(3.99522 0.000205201 -0.315711)
(4.05153 0.00106859 -0.290299)
(4.04623 0.00358065 -0.275284)
(4.07501 0.00425404 -0.250414)
(4.10517 0.00657603 -0.268418)
(4.3578 0.00675701 -0.276294)
(-0.179618 0.0272606 0.657797)
(-0.296651 0.00423177 0.506923)
(-0.390072 -0.0066555 0.425843)
(-0.480003 -0.0121343 0.382234)
(-0.556755 -0.0145959 0.338933)
(-0.612916 -0.0154554 0.285559)
(-0.651665 -0.015208 0.224722)
(-0.681837 -0.0135331 0.175894)
(-0.518389 -0.00900984 0.138802)
(0.114806 -0.00800167 0.000245883)
(0.449698 -0.00619776 -0.214223)
(0.698626 -0.00312166 -0.331624)
(0.939598 -0.000636367 -0.418941)
(1.17423 0.00109244 -0.486788)
(1.41137 0.00144221 -0.541828)
(1.64656 0.000704716 -0.58747)
(1.8731 -9.12369e-05 -0.617655)
(2.09128 -0.000626719 -0.628981)
(2.30706 -0.00148131 -0.629701)
(2.51083 -0.00229923 -0.617347)
(2.70695 -0.0030448 -0.599183)
(2.89101 -0.00375655 -0.576166)
(3.0625 -0.00418965 -0.549241)
(3.21987 -0.00433595 -0.516775)
(3.36825 -0.00416604 -0.484109)
(3.50332 -0.00380965 -0.451436)
(3.62856 -0.00335637 -0.42099)
(3.74175 -0.00268866 -0.3904)
(3.84329 -0.00193222 -0.363877)
(3.93503 -0.000773063 -0.337036)
(4.0015 0.000206211 -0.316355)
(4.05786 0.00170493 -0.290795)
(4.05236 0.00279746 -0.276066)
(4.08218 0.00356024 -0.250993)
(4.11288 0.00424659 -0.269302)
(4.36701 0.00403016 -0.277479)
(-0.174472 0.0163288 0.653189)
(-0.291276 -0.000175602 0.505238)
(-0.384859 -0.00739063 0.424464)
(-0.474619 -0.0112599 0.381101)
(-0.551271 -0.0125857 0.33801)
(-0.607484 -0.0123184 0.284673)
(-0.646435 -0.011229 0.223763)
(-0.67711 -0.00996306 0.174821)
(-0.51767 -0.00917356 0.137159)
(0.101664 -0.0130746 0.00157372)
(0.418949 -0.0156637 -0.210816)
(0.659322 -0.0118487 -0.326909)
(0.893347 -0.00775341 -0.413411)
(1.12444 -0.00448712 -0.481133)
(1.35945 -0.00364253 -0.536041)
(1.59403 -0.00406062 -0.581449)
(1.82194 -0.00292977 -0.61083)
(2.04202 -0.000601028 -0.622326)
(2.25912 -1.38696e-05 -0.623786)
(2.46464 0.000276563 -0.61195)
(2.66236 0.000107006 -0.593846)
(2.84785 -0.000565825 -0.570747)
(3.02076 -0.000839873 -0.543682)
(3.17994 -0.000821267 -0.511458)
(3.32867 -0.000744544 -0.478759)
(3.4648 -0.000611319 -0.446269)
(3.58978 -0.000456772 -0.416006)
(3.70389 0.000144523 -0.38603)
(3.80567 0.000361494 -0.359808)
(3.89888 0.00150912 -0.333575)
(3.96747 0.00128367 -0.313017)
(4.02758 0.00306752 -0.288249)
(4.0287 0.00261175 -0.272508)
(4.06514 0.00240245 -0.249206)
(4.09733 0.00161164 -0.266643)
(4.35256 0.00126585 -0.275642)
(-0.166898 0.00669539 0.651939)
(-0.290116 -0.00234787 0.505563)
(-0.385234 -0.00784049 0.424892)
(-0.474921 -0.0107753 0.38149)
(-0.550729 -0.0113362 0.338536)
(-0.606064 -0.0100345 0.285385)
(-0.644261 -0.00765278 0.224401)
(-0.674917 -0.00551124 0.174895)
(-0.524172 -0.00682351 0.135237)
(0.0638945 -0.0180832 0.00241928)
(0.342088 -0.0242519 -0.204076)
(0.56227 -0.0186844 -0.316837)
(0.78161 -0.0134374 -0.401317)
(1.00478 -0.00973655 -0.468534)
(1.23459 -0.00920507 -0.522267)
(1.46693 -0.0102002 -0.566287)
(1.69652 -0.00679415 -0.593267)
(1.9204 -0.00126905 -0.605126)
(2.14071 0.000294125 -0.608199)
(2.34951 0.00140938 -0.597881)
(2.55178 0.0017496 -0.580149)
(2.74053 0.00106066 -0.557026)
(2.91724 0.000956026 -0.530699)
(3.07991 0.00133282 -0.499569)
(3.23167 0.00157228 -0.467503)
(3.37093 0.00180553 -0.435572)
(3.49892 0.00181476 -0.405638)
(3.61605 0.00240242 -0.376226)
(3.72184 0.0021551 -0.350488)