/*--------------------------------*- C++ -*----------------------------------*\
  =========                 |
  \\      /  F ield         | OpenFOAM: The Open Source CFD Toolbox
   \\    /   O peration     | Website:  https://openfoam.org
    \\  /    A nd           | Version:  7
     \\/     M anipulation  |
\*---------------------------------------------------------------------------*/
FoamFile
{
    version     2.0;
    format      ascii;
    class       volScalarField;
    location    "74";
    object      ddt0(h);
}
// * * * * * * * * * * * * * * * * * * * * * * * * * * * * * * * * * * * * * //

dimensions      [0 1 -1 0 0 0 0];

internalField   nonuniform List<scalar> 
400
(
1.61219e-09
8.51912e-10
-1.4761e-09
-9.85383e-10
5.9449e-09
-1.05366e-08
-3.00927e-09
-3.49077e-08
1.58542e-09
-1.14857e-09
-1.53992e-09
4.08642e-10
1.52889e-09
1.20123e-09
3.48964e-10
-1.86949e-10
-2.05783e-10
2.92447e-11
8.45977e-11
5.29646e-12
4.65137e-10
6.6148e-10
9.72509e-10
9.32865e-10
-2.48088e-09
1.08694e-08
7.15622e-09
3.30308e-08
1.84137e-09
1.35741e-10
4.29548e-10
6.25035e-10
4.12365e-10
7.69887e-11
-1.16206e-10
-6.212e-11
4.80179e-11
1.18526e-10
1.37919e-10
7.27129e-11
-4.78304e-10
1.04085e-09
1.96257e-09
1.75892e-09
-3.09148e-09
3.77931e-09
-6.00176e-09
3.13948e-09
-1.19949e-09
5.22235e-10
2.03328e-09
1.00877e-09
-2.25418e-10
-6.43348e-10
-4.22509e-10
-1.90184e-12
1.80035e-10
1.6754e-10
2.23889e-10
1.56495e-10
1.81809e-10
5.40998e-10
1.02396e-09
1.2774e-09
7.69814e-11
-3.23643e-10
1.45347e-09
2.51693e-09
-1.29775e-09
7.59798e-10
1.5368e-09
1.20728e-10
-6.87662e-10
-5.65571e-10
-1.02108e-10
2.187e-10
2.48747e-10
1.91296e-10
2.21156e-10
1.33344e-10
9.19265e-10
1.59003e-10
9.17961e-10
1.823e-10
2.1805e-09
-1.90255e-09
2.26367e-09
-8.02116e-10
-9.28838e-10
1.88098e-09
1.76482e-10
-8.88307e-10
-6.25366e-10
-9.49777e-11
3.17976e-10
3.75043e-10
2.25682e-10
1.17227e-10
7.12236e-11
2.71101e-11
1.02373e-09
9.47968e-11
7.22477e-10
-3.30324e-10
1.37433e-09
-2.0057e-10
1.47531e-09
-1.50305e-09
1.43139e-09
8.53054e-10
-1.20741e-09
-7.08893e-10
1.51434e-10
4.45421e-10
5.26373e-10
4.25171e-10
1.62168e-10
-1.41965e-10
-2.63818e-10
-1.2371e-10
6.37538e-10
2.333e-10
1.66863e-10
5.77438e-10
-2.47629e-10
1.11558e-09
1.02764e-10
1.86082e-10
1.14979e-09
-8.44289e-10
-7.12679e-10
2.92148e-10
6.06896e-10
6.28052e-10
4.60778e-10
3.11895e-10
1.12561e-10
-3.20504e-10
-5.67723e-10
-2.76894e-10
1.02754e-11
6.76861e-10
-2.95613e-10
9.45411e-10
-2.01571e-10
1.06329e-09
-3.42725e-10
9.45274e-10
9.63604e-11
-5.13022e-10
6.98466e-10
3.60308e-10
1.34062e-10
5.37547e-10
3.06387e-10
-3.655e-11
-2.02314e-11
-1.80564e-10
-4.90408e-10
-3.0172e-10
-1.5462e-10
5.32222e-10
1.46752e-10
2.83357e-10
1.31498e-10
2.59194e-10
-8.90627e-11
5.9528e-10
-1.5925e-10
1.71562e-10
5.46086e-10
-9.26527e-11
-1.27458e-10
1.96031e-10
-3.72235e-11
-3.63431e-10
-2.1728e-10
4.29933e-11
-1.41663e-12
-5.47417e-11
2.71535e-10
-9.24787e-11
3.5402e-10
-2.17417e-10
1.05812e-10
-5.10026e-10
1.39514e-10
-1.53049e-10
3.73905e-11
1.93835e-10
-1.6409e-10
2.4499e-10
-1.20805e-11
-7.35898e-10
-5.84792e-10
-1.93955e-10
-6.66635e-11
1.97059e-10
3.97056e-10
2.01595e-10
3.63692e-10
-3.97798e-10
2.57767e-10
-4.15354e-10
1.09545e-10
-6.98324e-10
1.96504e-10
-3.96657e-10
7.28851e-11
2.11619e-10
-3.10786e-10
4.15797e-10
8.86118e-11
-8.98971e-10
-5.83471e-10
-2.70528e-12
3.09093e-11
2.4464e-10
5.57984e-10
3.19207e-10
-2.18908e-10
-1.65756e-10
-3.92065e-11
-2.83768e-10
1.82957e-10
-2.58363e-10
-6.34269e-11
2.50083e-11
-3.1896e-10
2.85321e-10
2.32639e-10
-1.17766e-11
1.78147e-11
6.029e-11
5.38601e-11
-9.35319e-11
-1.38901e-10
1.60415e-10
4.36764e-10
2.43596e-10
-7.17417e-10
7.84683e-11
-8.09256e-10
3.36605e-10
-2.69198e-10
4.56631e-10
-7.92471e-10
4.51279e-10
-6.84766e-10
-4.50038e-10
7.05313e-10
4.18437e-11
-7.96027e-11
5.58736e-10
4.72424e-10
3.79318e-11
-8.83402e-11
-9.26366e-11
-1.15686e-10
-6.24007e-11
-5.88257e-10
-4.0136e-10
-9.17137e-10
3.61842e-10
-1.17722e-09
7.20546e-10
-1.13632e-09
1.71377e-11
1.45172e-11
-1.5755e-09
-4.85532e-10
1.2124e-10
1.98868e-10
4.78261e-10
3.97804e-10
1.75735e-10
-3.72057e-11
-3.66324e-10
-4.92351e-10
-2.22663e-10
-2.68769e-10
-7.68214e-10
-4.08088e-10
-9.85368e-10
-5.10442e-10
-1.77683e-10
-1.14675e-10
-1.46944e-09
1.26495e-09
-4.78276e-10
-1.68469e-09
-7.85765e-10
-5.5176e-11
1.79237e-10
2.02899e-10
1.22461e-10
-4.4824e-11
-2.81631e-10
-3.60659e-10
-1.65173e-10
-1.60123e-10
-9.63032e-10
-3.06343e-10
-1.61553e-09
7.88793e-10
-2.62066e-09
1.85912e-09
-2.95047e-09
3.48845e-11
1.45066e-09
-7.81515e-10
-1.2079e-09
-6.83753e-10
-2.64584e-10
-1.76349e-11
6.90357e-12
1.42345e-11
5.19958e-11
-1.37194e-11
-4.67417e-11
-4.17075e-10
-7.19494e-10
-1.32431e-10
-7.89584e-10
2.28559e-10
-2.72108e-09
2.444e-09
2.18027e-09
-2.56936e-09
1.23317e-09
1.00107e-09
-4.09715e-10
-8.36727e-10
-6.38609e-10
-3.12818e-10
-9.63547e-11
8.31636e-11
2.20496e-10
2.01803e-10
7.14005e-11
-9.00704e-10
-7.35632e-10
2.95153e-10
6.47622e-11
-2.33297e-09
1.38734e-10
-1.41888e-09
2.18473e-09
-1.13804e-09
4.08536e-10
1.67442e-09
5.21436e-10
-4.77646e-10
-7.18845e-10
-5.19859e-10
-1.80351e-10
5.02459e-11
1.13108e-10
1.43728e-10
8.81278e-11
-8.12362e-10
-5.70865e-10
-5.88708e-10
5.64471e-10
-3.61807e-09
-5.70553e-09
-5.41407e-09
-3.60999e-08
-1.09832e-09
-3.2358e-10
1.59601e-10
1.86948e-10
-6.01162e-11
-2.93286e-10
-3.52981e-10
-1.98875e-10
-8.26566e-11
-7.45247e-11
-2.85907e-11
1.08192e-11
-7.71102e-10
-5.78818e-11
-1.84957e-09
-1.6646e-09
2.80443e-09
7.25174e-09
1.29221e-09
3.30104e-08
1.86666e-09
-2.77202e-09
-2.30547e-09
-2.40813e-10
7.34479e-10
4.95085e-10
-3.4734e-11
-2.53653e-10
-2.5028e-10
-1.93111e-10
-1.39279e-10
-7.47053e-11
)
;

boundaryField
{
    sides
    {
        type            calculated;
        value           nonuniform List<scalar> 
40
(
-7.71102e-10
-5.78818e-11
-1.84957e-09
-1.6646e-09
2.80443e-09
7.25174e-09
1.29221e-09
3.30104e-08
1.86666e-09
-2.77202e-09
-2.30547e-09
-2.40813e-10
7.34479e-10
4.95085e-10
-3.4734e-11
-2.53653e-10
-2.5028e-10
-1.93111e-10
-1.39279e-10
-7.47053e-11
1.61219e-09
8.51912e-10
-1.4761e-09
-9.85383e-10
5.9449e-09
-1.05366e-08
-3.00927e-09
-3.49077e-08
1.58542e-09
-1.14857e-09
-1.53992e-09
4.08642e-10
1.52889e-09
1.20123e-09
3.48964e-10
-1.86949e-10
-2.05783e-10
2.92447e-11
8.45977e-11
5.29646e-12
)
;
    }
    inlet
    {
        type            calculated;
        value           nonuniform List<scalar> 
20
(
1.61219e-09
4.65137e-10
-4.78304e-10
1.81809e-10
9.19265e-10
1.02373e-09
6.37538e-10
1.02754e-11
-1.5462e-10
2.71535e-10
3.63692e-10
-2.18908e-10
-7.17417e-10
-5.88257e-10
-2.68769e-10
-1.60123e-10
-4.17075e-10
-9.00704e-10
-8.12362e-10
-7.71102e-10
)
;
    }
    outlet
    {
        type            calculated;
        value           uniform 0;
    }
    frontAndBack
    {
        type            empty;
    }
}


// ************************************************************************* //
