/*--------------------------------*- C++ -*----------------------------------*\
  =========                 |
  \\      /  F ield         | OpenFOAM: The Open Source CFD Toolbox
   \\    /   O peration     | Website:  https://openfoam.org
    \\  /    A nd           | Version:  7
     \\/     M anipulation  |
\*---------------------------------------------------------------------------*/
FoamFile
{
    version     2.0;
    format      ascii;
    class       volVectorField;
    location    "74";
    object      ddt0(hU);
}
// * * * * * * * * * * * * * * * * * * * * * * * * * * * * * * * * * * * * * //

dimensions      [0 2 -2 0 0 0 0];

internalField   nonuniform List<vector> 
400
(
(-8.30483e-11 -4.52467e-11 0)
(-9.96008e-11 1.73912e-10 0)
(1.08534e-10 7.47063e-11 0)
(-9.50867e-12 -3.32744e-10 0)
(-4.81363e-10 -1.59803e-10 0)
(-1.08242e-09 1.05435e-09 0)
(1.36218e-09 -7.86444e-11 0)
(-3.87429e-09 -2.17708e-09 0)
(-7.17999e-10 1.03758e-10 0)
(-1.53845e-10 -1.25456e-10 0)
(-4.19981e-10 1.67689e-10 0)
(2.10389e-10 2.75466e-10 0)
(5.04677e-10 1.73216e-10 0)
(3.50994e-10 5.49947e-11 0)
(7.6301e-11 -4.00283e-12 0)
(-1.24334e-10 -2.6418e-11 0)
(-1.6494e-10 -5.05936e-11 0)
(-9.85163e-11 -4.14916e-11 0)
(-1.3721e-11 -8.53123e-11 0)
(1.31494e-10 -6.95179e-11 0)
(-1.20849e-11 -8.03624e-11 0)
(3.20058e-11 2.46018e-10 0)
(-1.33711e-10 -1.12407e-11 0)
(-2.92324e-11 -2.95749e-10 0)
(1.00063e-10 -2.42928e-10 0)
(1.24283e-09 1.11809e-09 0)
(-8.26411e-10 -6.07892e-10 0)
(3.02811e-09 -9.11893e-10 0)
(1.40964e-09 9.78552e-11 0)
(-5.19468e-11 -2.6763e-10 0)
(1.28427e-10 1.83702e-10 0)
(1.81468e-10 3.81012e-10 0)
(1.3131e-10 2.28036e-10 0)
(5.73864e-11 3.36999e-11 0)
(-1.87483e-11 -7.74713e-11 0)
(-7.55917e-11 -9.98407e-11 0)
(-6.82692e-11 -6.68655e-11 0)
(-2.63992e-11 1.03715e-11 0)
(3.24317e-12 1.92272e-11 0)
(9.64428e-11 -2.4418e-11 0)
(5.20618e-14 -2.60476e-11 0)
(4.24094e-11 1.15812e-10 0)
(-1.21358e-10 5.94465e-11 0)
(1.46365e-11 2.20201e-10 0)
(2.1097e-11 -1.7538e-10 0)
(6.93955e-11 -1.69294e-10 0)
(-9.92605e-10 -6.42122e-10 0)
(6.59423e-10 1.10356e-09 0)
(-3.11553e-10 -1.74997e-10 0)
(6.67654e-11 -2.16359e-10 0)
(5.92801e-10 3.07445e-11 0)
(3.0114e-10 1.18382e-10 0)
(-4.65443e-11 1.15855e-10 0)
(-1.67201e-10 9.27703e-11 0)
(-1.58164e-10 5.76213e-11 0)
(-1.0136e-10 3.17417e-11 0)
(-5.63877e-12 -1.38597e-11 0)
(3.14407e-11 -3.39616e-12 0)
(1.86338e-11 -1.13781e-10 0)
(9.98287e-11 -1.41669e-10 0)
(5.28887e-11 -7.36447e-12 0)
(6.73606e-11 1.41831e-11 0)
(-2.12057e-11 2.14582e-10 0)
(-1.55924e-10 2.67864e-10 0)
(4.53254e-11 7.89681e-11 0)
(-2.47192e-10 -3.50763e-10 0)
(-9.81354e-11 1.68015e-10 0)
(5.4071e-10 1.06732e-11 0)
(-2.98581e-10 -2.71748e-10 0)
(1.56102e-10 7.85287e-11 0)
(4.82521e-10 8.48218e-11 0)
(1.09222e-10 -8.6352e-11 0)
(-9.62729e-11 -5.40822e-11 0)
(-1.05512e-10 3.88175e-11 0)
(-6.2291e-11 1.15939e-10 0)
(-6.81209e-12 1.80752e-10 0)
(5.81226e-11 1.08867e-10 0)
(6.3356e-11 2.67089e-11 0)
(2.27489e-12 -1.75783e-10 0)
(2.69993e-11 -2.09448e-10 0)
(9.62658e-11 2.90636e-11 0)
(4.61176e-11 -4.08532e-12 0)
(4.6893e-11 1.43005e-10 0)
(-1.76958e-10 7.87791e-11 0)
(6.58615e-11 2.9657e-10 0)
(-2.84657e-10 -2.87456e-10 0)
(3.28544e-10 2.84618e-10 0)
(-1.40168e-10 -1.57222e-10 0)
(-2.62659e-10 -2.08491e-10 0)
(4.67616e-10 1.76012e-10 0)
(8.73925e-11 -2.98055e-11 0)
(-2.03455e-10 -1.40924e-10 0)
(-1.09069e-10 -3.80326e-12 0)
(-1.18707e-11 1.11144e-10 0)
(7.62334e-11 1.98079e-10 0)
(1.01783e-10 2.8776e-10 0)
(7.34996e-11 1.82732e-10 0)
(3.23571e-11 2.87116e-11 0)
(-1.89002e-11 -2.20575e-10 0)
(1.17375e-11 -2.49479e-10 0)
(5.78282e-11 9.52395e-11 0)
(1.17771e-11 6.94591e-11 0)
(1.70183e-11 1.44376e-10 0)
(-1.07196e-10 4.34952e-11 0)
(-6.6726e-11 1.80894e-10 0)
(-1.43919e-10 -6.59906e-11 0)
(1.75327e-10 4.94549e-11 0)
(-3.13875e-10 -3.76411e-10 0)
(3.00315e-10 1.90738e-11 0)
(2.87769e-10 -6.42038e-11 0)
(-2.37988e-10 -2.39593e-10 0)
(-9.63382e-11 -3.77601e-11 0)
(1.00502e-10 1.76728e-10 0)
(1.07031e-10 2.81292e-10 0)
(1.53453e-10 3.47939e-10 0)
(1.11332e-10 3.60989e-10 0)
(-3.41997e-11 1.57323e-10 0)
(-1.21978e-10 -3.57481e-11 0)
(-1.03648e-10 -3.61625e-10 0)
(2.07569e-11 -3.56601e-10 0)
(-1.09549e-11 9.36104e-11 0)
(-1.83986e-12 1.50889e-10 0)
(-3.2759e-11 1.22542e-10 0)
(1.9283e-11 1.72234e-10 0)
(-8.6331e-11 2.16106e-11 0)
(7.76932e-11 1.44689e-10 0)
(-3.62242e-11 -7.93742e-11 0)
(-3.52377e-11 -1.232e-10 0)
(2.24409e-10 2.52007e-11 0)
(-2.18827e-10 -2.75918e-10 0)
(-1.95701e-10 -1.21272e-10 0)
(1.02249e-10 1.62862e-10 0)
(1.34015e-10 2.22776e-10 0)
(1.394e-10 2.92182e-10 0)
(2.02499e-10 3.61117e-10 0)
(1.48047e-10 3.02907e-10 0)
(-2.43957e-11 7.19122e-11 0)
(-1.35056e-10 -5.66676e-11 0)
(-1.22995e-10 -3.31318e-10 0)
(-1.36748e-12 -3.51654e-10 0)
(-4.29164e-11 6.94949e-11 0)
(8.97289e-12 2.24035e-10 0)
(-6.93752e-11 1.39755e-10 0)
(2.82812e-11 2.1495e-10 0)
(-7.26424e-11 -1.80302e-12 0)
(9.55054e-11 4.03585e-11 0)
(-1.17561e-10 -2.06431e-10 0)
(1.09486e-10 -1.15794e-10 0)
(-8.59906e-12 -2.22133e-10 0)
(-1.41875e-10 -2.16917e-10 0)
(1.9232e-10 1.04255e-10 0)
(1.26417e-10 2.31116e-10 0)
(9.00738e-12 2.63501e-10 0)
(1.36709e-10 3.65394e-10 0)
(1.43116e-10 3.77543e-10 0)
(-1.25821e-11 2.29292e-10 0)
(-1.13192e-10 -3.94639e-11 0)
(-1.29729e-10 -1.25456e-10 0)
(-9.55211e-11 -3.84095e-10 0)
(3.53773e-11 -3.82867e-10 0)
(-3.44268e-12 6.35843e-11 0)
(8.50016e-12 1.55205e-10 0)
(-5.28033e-11 2.13189e-10 0)
(-3.4162e-11 1.73264e-10 0)
(-2.80865e-11 1.35084e-10 0)
(1.84879e-11 -5.82815e-12 0)
(-4.21384e-11 -1.14078e-10 0)
(7.61923e-11 -1.0032e-10 0)
(-4.66137e-11 -2.38346e-10 0)
(6.10094e-11 -2.37226e-11 0)
(1.64897e-10 8.92635e-11 0)
(-3.23303e-11 8.91655e-11 0)
(-4.12214e-11 2.80445e-10 0)
(8.54263e-11 3.90027e-10 0)
(1.76179e-11 2.88787e-10 0)
(-1.07438e-10 1.58016e-10 0)
(-8.93402e-11 -2.15538e-11 0)
(-5.50996e-12 -6.73866e-11 0)
(3.52232e-11 -3.40494e-10 0)
(6.26117e-11 -3.77055e-10 0)
(1.16157e-11 5.11884e-11 0)
(-3.03209e-11 8.2484e-11 0)
(1.3739e-11 2.28207e-10 0)
(-4.90149e-11 1.83896e-10 0)
(-5.61835e-12 1.9364e-10 0)
(-7.66314e-11 1.33283e-11 0)
(1.97641e-11 -6.5458e-11 0)
(-4.15433e-11 -1.28737e-10 0)
(1.55508e-11 -2.03703e-10 0)
(1.07431e-10 -3.67081e-11 0)
(-1.49759e-11 -6.53001e-12 0)
(3.46481e-11 5.55824e-11 0)
(5.62443e-11 3.0231e-10 0)
(-1.09008e-10 3.84583e-10 0)
(-1.75892e-10 2.7605e-10 0)
(-9.29965e-11 1.94166e-10 0)
(5.447e-13 4.7805e-11 0)
(4.69916e-11 -6.26101e-12 0)
(6.4885e-11 -3.17073e-10 0)
(7.23229e-11 -3.76216e-10 0)
(2.02085e-11 3.94778e-12 0)
(-2.68605e-11 1.40723e-10 0)
(6.07956e-11 1.66131e-10 0)
(-2.10288e-11 2.17813e-10 0)
(2.15129e-11 1.22686e-10 0)
(-9.80994e-11 5.56544e-11 0)
(3.39726e-11 -7.99666e-11 0)
(-8.01078e-11 -1.35853e-10 0)
(2.44687e-11 -1.46147e-10 0)
(1.08326e-10 -1.699e-10 0)
(-7.05393e-11 -4.22258e-11 0)
(5.21532e-11 8.83807e-11 0)
(6.67168e-11 1.76895e-10 0)
(-1.81253e-10 2.86124e-10 0)
(-2.25537e-10 3.6894e-10 0)
(-4.69667e-11 3.49902e-10 0)
(8.65182e-11 1.32221e-10 0)
(1.19653e-10 2.26042e-11 0)
(1.07011e-10 -2.9304e-10 0)
(3.21471e-11 -3.63824e-10 0)
(3.01203e-11 3.80768e-11 0)
(3.17204e-11 1.52366e-10 0)
(4.26273e-11 1.3245e-10 0)
(2.35084e-11 1.98084e-10 0)
(5.71284e-11 4.80851e-11 0)
(-1.07702e-11 4.31184e-11 0)
(-5.56387e-12 -7.77766e-11 0)
(-8.36957e-12 -1.53551e-10 0)
(-9.41519e-11 -5.18926e-11 0)
(5.89185e-11 -2.25945e-10 0)
(4.55335e-11 -1.06646e-10 0)
(-4.41787e-11 9.69294e-11 0)
(8.00294e-12 1.16471e-10 0)
(3.17878e-11 2.10125e-10 0)
(-4.17664e-11 3.86956e-10 0)
(-6.66667e-11 4.36937e-10 0)
(1.52875e-11 2.05354e-10 0)
(8.7926e-11 3.90078e-11 0)
(6.15377e-11 -3.0235e-10 0)
(-4.25929e-11 -3.71337e-10 0)
(-3.4066e-11 1.17422e-10 0)
(3.48023e-11 9.90579e-11 0)
(-1.02524e-11 1.9401e-10 0)
(9.17321e-11 1.00395e-10 0)
(3.82811e-11 1.0167e-10 0)
(1.3129e-10 -5.37831e-11 0)
(-7.93018e-11 -2.20921e-11 0)
(1.08876e-10 -2.08326e-10 0)
(-1.5707e-10 -1.00276e-11 0)
(-1.76207e-10 -4.86466e-11 0)
(1.22488e-10 -1.24812e-10 0)
(-2.50589e-11 4.74835e-11 0)
(-8.36643e-11 2.04064e-10 0)
(1.05828e-10 2.5763e-10 0)
(1.14896e-10 3.19689e-10 0)
(2.35801e-11 3.77417e-10 0)
(1.82995e-11 1.89767e-10 0)
(3.54469e-11 -1.08121e-11 0)
(-7.93467e-12 -3.91014e-10 0)
(-1.04411e-10 -4.08027e-10 0)
(-6.63794e-11 1.12925e-10 0)
(-1.77544e-11 1.20657e-10 0)
(-4.47058e-11 2.22273e-10 0)
(1.0383e-10 7.4794e-11 0)
(-2.80048e-11 2.1462e-10 0)
(1.8333e-10 -1.06564e-10 0)
(-8.48652e-11 6.67256e-11 0)
(7.41222e-11 -1.34186e-10 0)
(7.33936e-11 -1.1934e-10 0)
(-3.89703e-10 1.88623e-10 0)
(-1.55807e-10 6.91274e-11 0)
(4.73665e-11 3.29712e-12 0)
(4.40429e-12 1.67503e-10 0)
(6.04607e-11 2.28955e-10 0)
(1.12186e-10 2.1421e-10 0)
(6.35695e-11 2.52151e-10 0)
(-3.84076e-11 1.17707e-10 0)
(-1.09509e-10 -4.35703e-11 0)
(-8.70325e-11 -3.60503e-10 0)
(-5.62161e-11 -3.67733e-10 0)
(-2.8255e-11 4.54413e-11 0)
(-6.02804e-11 1.78146e-10 0)
(-1.24253e-11 1.76862e-10 0)
(5.06366e-11 1.68531e-10 0)
(2.76269e-11 6.26874e-11 0)
(1.13056e-10 -8.87479e-11 0)
(1.36584e-10 -1.47988e-10 0)
(-2.03969e-10 -1.41444e-11 0)
(3.282e-10 -4.08473e-10 0)
(-1.13191e-10 -1.59257e-11 0)
(-5.12005e-10 2.3675e-10 0)
(-2.46343e-10 1.70684e-10 0)
(-6.63052e-11 2.13976e-10 0)
(-3.22573e-12 2.55231e-10 0)
(1.08174e-10 2.17491e-10 0)
(1.49301e-10 1.64762e-10 0)
(2.75615e-11 1.93881e-12 0)
(-6.39539e-11 -9.18022e-11 0)
(-3.26124e-11 -3.49538e-10 0)
(-4.11787e-11 -3.39564e-10 0)
(3.96977e-11 -7.38291e-11 0)
(-5.0402e-11 1.30224e-10 0)
(2.45577e-11 8.54889e-11 0)
(-8.0877e-11 2.32547e-10 0)
(1.02586e-10 -8.3686e-11 0)
(-1.63279e-10 3.00985e-10 0)
(4.40208e-10 -3.86088e-10 0)
(-4.19226e-10 1.95379e-10 0)
(3.1865e-12 -1.5718e-10 0)
(4.20428e-10 -3.35117e-10 0)
(-2.08165e-10 8.54907e-11 0)
(-3.47892e-10 2.46274e-10 0)
(-1.98907e-10 2.35692e-10 0)
(-1.00017e-10 2.31018e-10 0)
(1.13658e-11 1.86549e-10 0)
(7.26543e-11 9.76925e-11 0)
(2.01771e-11 -2.30463e-11 0)
(-2.26381e-11 -2.49314e-11 0)
(5.97995e-12 -1.78576e-10 0)
(-1.90597e-11 -2.22584e-10 0)
(8.12737e-11 -1.04212e-10 0)
(1.59974e-11 1.53083e-10 0)
(9.02721e-11 1.17113e-10 0)
(-2.96146e-11 1.58234e-10 0)
(2.65058e-10 -6.09873e-11 0)
(-2.92912e-10 5.00574e-10 0)
(3.68748e-10 -7.12255e-10 0)
(4.80184e-10 -4.05147e-10 0)
(-6.0685e-10 -5.14747e-11 0)
(2.21399e-10 -4.22168e-10 0)
(2.31028e-10 -1.73358e-10 0)
(-2.04155e-10 1.48251e-10 0)
(-3.05168e-10 2.4064e-10 0)
(-2.24337e-10 2.54786e-10 0)
(-1.00339e-10 2.1933e-10 0)
(2.66799e-11 1.27446e-10 0)
(9.20334e-11 -4.91827e-13 0)
(8.4931e-11 -1.33538e-11 0)
(6.12024e-11 -1.58599e-10 0)
(-3.14419e-11 -1.9502e-10 0)
(1.19019e-10 7.45396e-11 0)
(1.24335e-10 2.67374e-11 0)
(9.53254e-11 1.03886e-10 0)
(1.02256e-11 -8.57391e-11 0)
(2.59225e-10 3.52297e-11 0)
(-3.59639e-10 4.44361e-10 0)
(-7.29872e-10 -9.82053e-10 0)
(8.15049e-10 1.1746e-10 0)
(-1.53342e-10 -1.427e-10 0)
(6.76475e-11 -2.24714e-11 0)
(4.59997e-10 -1.60666e-10 0)
(7.40502e-11 -6.73032e-11 0)
(-2.21773e-10 5.78342e-11 0)
(-2.36557e-10 1.48776e-10 0)
(-1.46703e-10 1.82905e-10 0)
(4.82377e-12 1.46799e-10 0)
(1.10622e-10 3.16258e-11 0)
(1.18057e-10 -2.24494e-11 0)
(6.07373e-11 -1.40764e-10 0)
(-9.90087e-11 -1.48654e-10 0)
(-2.70997e-11 2.26232e-10 0)
(9.78537e-12 -1.53625e-10 0)
(-5.16187e-11 -6.30185e-11 0)
(9.08129e-11 2.1173e-11 0)
(4.99691e-10 3.6703e-10 0)
(-1.48767e-09 -1.51873e-09 0)
(-7.37003e-10 2.42358e-09 0)
(-2.44233e-09 -3.74877e-10 0)
(-6.40104e-10 2.91684e-10 0)
(-9.39113e-12 3.39371e-10 0)
(-3.30237e-12 -2.26075e-10 0)
(-2.91764e-11 -3.91542e-10 0)
(-1.00986e-10 -2.18529e-10 0)
(-1.0545e-10 -1.63694e-11 0)
(-9.10332e-11 9.02574e-11 0)
(-2.41529e-11 1.10043e-10 0)
(4.60261e-11 5.66468e-11 0)
(6.46503e-11 9.28564e-12 0)
(3.87174e-11 -3.05849e-11 0)
(-8.72429e-11 -4.70634e-11 0)
(-2.00729e-10 1.23887e-10 0)
(-1.46766e-10 -5.7048e-11 0)
(5.04504e-11 -5.57785e-11 0)
(2.60593e-10 1.43779e-10 0)
(-7.34732e-10 2.88219e-10 0)
(2.31539e-09 -1.80544e-09 0)
(8.84085e-10 2.8733e-09 0)
(1.66662e-09 -1.09572e-09 0)
(9.17824e-10 2.34444e-10 0)
(-7.69156e-10 1.19064e-10 0)
(-6.89679e-10 -2.07217e-10 0)
(-1.09719e-11 -2.54801e-10 0)
(2.54311e-10 -8.87077e-11 0)
(1.68616e-10 5.56857e-11 0)
(3.83149e-12 1.06653e-10 0)
(-4.33805e-11 8.48052e-11 0)
(-1.1124e-11 9.80879e-12 0)
(2.82417e-11 -4.15539e-11 0)
(2.21024e-11 -1.12115e-10 0)
(-1.07566e-10 -8.27477e-11 0)
)
;

boundaryField
{
    sides
    {
        type            calculated;
        value           nonuniform List<vector> 
40
(
(-2.00729e-10 0 0)
(-1.46766e-10 0 0)
(5.04504e-11 0 0)
(2.60593e-10 0 0)
(-7.34732e-10 0 0)
(2.31539e-09 0 0)
(8.84085e-10 0 0)
(1.66662e-09 0 0)
(9.17824e-10 0 0)
(-7.69156e-10 0 0)
(-6.89679e-10 0 0)
(-1.09719e-11 0 0)
(2.54311e-10 0 0)
(1.68616e-10 0 0)
(3.83149e-12 0 0)
(-4.33805e-11 0 0)
(-1.1124e-11 0 0)
(2.82417e-11 0 0)
(2.21024e-11 0 0)
(-1.07566e-10 0 0)
(-8.30483e-11 0 0)
(-9.96008e-11 0 0)
(1.08534e-10 0 0)
(-9.50867e-12 0 0)
(-4.81363e-10 0 0)
(-1.08242e-09 0 0)
(1.36218e-09 0 0)
(-3.87429e-09 0 0)
(-7.17999e-10 0 0)
(-1.53845e-10 0 0)
(-4.19981e-10 0 0)
(2.10389e-10 0 0)
(5.04677e-10 0 0)
(3.50994e-10 0 0)
(7.6301e-11 0 0)
(-1.24334e-10 0 0)
(-1.6494e-10 0 0)
(-9.85163e-11 0 0)
(-1.3721e-11 0 0)
(1.31494e-10 0 0)
)
;
    }
    inlet
    {
        type            calculated;
        value           uniform (0 0 0);
    }
    outlet
    {
        type            calculated;
        value           nonuniform List<vector> 
20
(
(1.31494e-10 -6.95179e-11 0)
(9.64428e-11 -2.4418e-11 0)
(9.98287e-11 -1.41669e-10 0)
(2.69993e-11 -2.09448e-10 0)
(1.17375e-11 -2.49479e-10 0)
(2.07569e-11 -3.56601e-10 0)
(-1.36748e-12 -3.51654e-10 0)
(3.53773e-11 -3.82867e-10 0)
(6.26117e-11 -3.77055e-10 0)
(7.23229e-11 -3.76216e-10 0)
(3.21471e-11 -3.63824e-10 0)
(-4.25929e-11 -3.71337e-10 0)
(-1.04411e-10 -4.08027e-10 0)
(-5.62161e-11 -3.67733e-10 0)
(-4.11787e-11 -3.39564e-10 0)
(-1.90597e-11 -2.22584e-10 0)
(-3.14419e-11 -1.9502e-10 0)
(-9.90087e-11 -1.48654e-10 0)
(-8.72429e-11 -4.70634e-11 0)
(-1.07566e-10 -8.27477e-11 0)
)
;
    }
    frontAndBack
    {
        type            empty;
    }
}


// ************************************************************************* //
