/*--------------------------------*- C++ -*----------------------------------*\
  =========                 |
  \\      /  F ield         | OpenFOAM: The Open Source CFD Toolbox
   \\    /   O peration     | Website:  https://openfoam.org
    \\  /    A nd           | Version:  7
     \\/     M anipulation  |
\*---------------------------------------------------------------------------*/
FoamFile
{
    version     2.0;
    format      ascii;
    class       surfaceScalarField;
    location    "74";
    object      phi;
}
// * * * * * * * * * * * * * * * * * * * * * * * * * * * * * * * * * * * * * //

dimensions      [0 4 -1 0 0 0 0];

internalField   nonuniform List<scalar> 
760
(
4.99999e-06
9.89707e-12
4.99999e-06
-4.28062e-12
5.00001e-06
-1.28706e-11
5.00003e-06
-1.99085e-11
5.00005e-06
-2.70894e-11
5.00009e-06
-3.54729e-11
5.00013e-06
-4.77132e-11
5.00018e-06
-6.11492e-11
5.00025e-06
-6.29614e-11
5.00032e-06
-7.80811e-11
5.00041e-06
-8.98892e-11
5.00053e-06
-1.13762e-10
5.00065e-06
-1.26794e-10
5.00082e-06
-1.67899e-10
5.001e-06
-1.78247e-10
5.00126e-06
-2.57162e-10
5.00151e-06
-2.56505e-10
5.00195e-06
-4.32023e-10
5.00236e-06
-4.14358e-10
-8.91552e-10
5.00002e-06
-1.18757e-11
5.00004e-06
-1.89916e-11
5.00005e-06
-2.93606e-11
5.00007e-06
-4.2122e-11
5.0001e-06
-5.50537e-11
5.00014e-06
-6.97136e-11
5.00018e-06
-8.56087e-11
5.00023e-06
-1.04013e-10
5.00029e-06
-1.23806e-10
5.00037e-06
-1.53147e-10
5.00045e-06
-1.76787e-10
5.00056e-06
-2.21794e-10
5.00068e-06
-2.50151e-10
5.00084e-06
-3.24185e-10
5.00102e-06
-3.54157e-10
5.00125e-06
-4.86601e-10
5.0015e-06
-5.09834e-10
5.00184e-06
-7.68468e-10
5.00218e-06
-7.60413e-10
-1.26198e-09
4.99999e-06
-4.69652e-12
4.99999e-06
-2.05056e-11
5e-06
-3.79061e-11
5.00002e-06
-5.70989e-11
5.00004e-06
-7.72217e-11
5.00007e-06
-9.98687e-11
5.00011e-06
-1.23428e-10
5.00016e-06
-1.52939e-10
5.00021e-06
-1.82744e-10
5.00029e-06
-2.23736e-10
5.00037e-06
-2.62074e-10
5.00047e-06
-3.23041e-10
5.00059e-06
-3.71736e-10
5.00074e-06
-4.67526e-10
5.00091e-06
-5.25986e-10
5.00111e-06
-6.87412e-10
5.00135e-06
-7.48788e-10
5.00162e-06
-1.04204e-09
5.00195e-06
-1.08402e-09
-1.68948e-09
5.00001e-06
-1.25922e-11
5.00002e-06
-3.35261e-11
5.00004e-06
-5.48126e-11
5.00006e-06
-7.82733e-11
5.00008e-06
-1.02739e-10
5.00012e-06
-1.31554e-10
5.00015e-06
-1.60966e-10
5.0002e-06
-1.98474e-10
5.00025e-06
-2.36569e-10
5.00032e-06
-2.88666e-10
5.00039e-06
-3.38054e-10
5.00048e-06
-4.1492e-10
5.00059e-06
-4.77964e-10
5.00072e-06
-5.96297e-10
5.00087e-06
-6.7299e-10
5.00105e-06
-8.65817e-10
5.00124e-06
-9.47981e-10
5.00148e-06
-1.28114e-09
5.00173e-06
-1.33257e-09
-1.89803e-09
5e-06
-1.16398e-11
5e-06
-3.67313e-11
5.00001e-06
-6.26411e-11
5.00002e-06
-9.10056e-11
5.00004e-06
-1.20945e-10
5.00006e-06
-1.55666e-10
5.0001e-06
-1.92269e-10
5.00013e-06
-2.37225e-10
5.00018e-06
-2.83843e-10
5.00024e-06
-3.45374e-10
5.00031e-06
-4.06424e-10
5.00039e-06
-4.95111e-10
5.00048e-06
-5.73579e-10
5.00059e-06
-7.06982e-10
5.00072e-06
-8.03643e-10
5.00087e-06
-1.01338e-09
5.00104e-06
-1.11773e-09
5.00122e-06
-1.46294e-09
5.00142e-06
-1.53421e-09
-2.16284e-09
5e-06
-1.39093e-11
5.00001e-06
-4.3436e-11
5.00002e-06
-7.35584e-11
5.00003e-06
-1.06e-10
5.00005e-06
-1.40214e-10
5.00008e-06
-1.79272e-10
5.00011e-06
-2.21036e-10
5.00014e-06
-2.71721e-10
5.00018e-06
-3.24806e-10
5.00023e-06
-3.94436e-10
5.00029e-06
-4.63711e-10
5.00036e-06
-5.63017e-10
5.00043e-06
-6.52255e-10
5.00053e-06
-7.9966e-10
5.00063e-06
-9.08878e-10
5.00075e-06
-1.13547e-09
5.00089e-06
-1.25267e-09
5.00104e-06
-1.61754e-09
5.00121e-06
-1.69887e-09
-2.29353e-09
5e-06
-1.5743e-11
5.00001e-06
-4.79105e-11
5.00001e-06
-8.09088e-11
5.00002e-06
-1.16069e-10
5.00004e-06
-1.53637e-10
5.00005e-06
-1.96481e-10
5.00008e-06
-2.42614e-10
5.0001e-06
-2.98044e-10
5.00013e-06
-3.56896e-10
5.00017e-06
-4.32613e-10
5.00022e-06
-5.09056e-10
5.00027e-06
-6.1628e-10
5.00033e-06
-7.14876e-10
5.00041e-06
-8.71758e-10
5.00049e-06
-9.92024e-10
5.00058e-06
-1.22883e-09
5.00069e-06
-1.35719e-09
5.0008e-06
-1.72827e-09
5.00091e-06
-1.81386e-09
-2.4421e-09
5e-06
-1.68023e-11
5e-06
-5.09713e-11
5.00001e-06
-8.59578e-11
5.00002e-06
-1.23694e-10
5.00003e-06
-1.6387e-10
5.00004e-06
-2.09734e-10
5.00006e-06
-2.58997e-10
5.00008e-06
-3.18029e-10
5.0001e-06
-3.80826e-10
5.00013e-06
-4.6093e-10
5.00016e-06
-5.42425e-10
5.0002e-06
-6.55511e-10
5.00025e-06
-7.60221e-10
5.0003e-06
-9.24128e-10
5.00036e-06
-1.05131e-09
5.00042e-06
-1.29569e-09
5.0005e-06
-1.4304e-09
5.00058e-06
-1.80914e-09
5.00067e-06
-1.90223e-09
-2.51617e-09
5e-06
-1.73652e-11
5e-06
-5.28823e-11
5.00001e-06
-8.91564e-11
5.00001e-06
-1.28502e-10
5.00002e-06
-1.70276e-10
5.00002e-06
-2.17867e-10
5.00003e-06
-2.68923e-10
5.00005e-06
-3.30077e-10
5.00006e-06
-3.95188e-10
5.00008e-06
-4.77971e-10
5.0001e-06
-5.62571e-10
5.00012e-06
-6.79039e-10
5.00015e-06
-7.87408e-10
5.00018e-06
-9.55376e-10
5.00022e-06
-1.08678e-09
5.00026e-06
-1.33542e-09
5.0003e-06
-1.47416e-09
5.00035e-06
-1.85624e-09
5.00039e-06
-1.9496e-09
-2.57213e-09
5e-06
-1.75979e-11
5e-06
-5.35147e-11
5e-06
-9.02912e-11
5e-06
-1.30104e-10
5.00001e-06
-1.72427e-10
5.00001e-06
-2.20526e-10
5.00001e-06
-2.72216e-10
5.00002e-06
-3.34069e-10
5.00002e-06
-3.99976e-10
5.00003e-06
-4.83714e-10
5.00003e-06
-5.69312e-10
5.00004e-06
-6.86857e-10
5.00005e-06
-7.96488e-10
5.00006e-06
-9.65728e-10
5.00007e-06
-1.09855e-09
5.00009e-06
-1.34853e-09
5.0001e-06
-1.48867e-09
5.00012e-06
-1.87159e-09
5.00013e-06
-1.96682e-09
-2.5884e-09
5e-06
-1.74523e-11
5e-06
-5.28506e-11
5e-06
-8.92085e-11
5e-06
-1.28448e-10
4.99999e-06
-1.70282e-10
4.99999e-06
-2.17775e-10
4.99999e-06
-2.68902e-10
4.99998e-06
-3.30045e-10
4.99998e-06
-3.95149e-10
4.99997e-06
-4.78067e-10
4.99997e-06
-5.62601e-10
4.99996e-06
-6.79018e-10
4.99995e-06
-7.87425e-10
4.99994e-06
-9.55303e-10
4.99993e-06
-1.0866e-09
4.99991e-06
-1.33522e-09
4.9999e-06
-1.47405e-09
4.99988e-06
-1.85618e-09
4.99987e-06
-1.9496e-09
-2.57202e-09
5e-06
-1.6821e-11
5e-06
-5.10358e-11
4.99999e-06
-8.60081e-11
4.99999e-06
-1.23686e-10
4.99998e-06
-1.63868e-10
4.99998e-06
-2.09674e-10
4.99997e-06
-2.58951e-10
4.99995e-06
-3.18042e-10
4.99994e-06
-3.8075e-10
4.99992e-06
-4.61022e-10
4.9999e-06
-5.4258e-10
4.99988e-06
-6.55546e-10
4.99985e-06
-7.60196e-10
4.99982e-06
-9.24038e-10
4.99978e-06
-1.05116e-09
4.99974e-06
-1.29545e-09
4.9997e-06
-1.43021e-09
4.99965e-06
-1.80899e-09
4.99961e-06
-1.90218e-09
-2.51601e-09
5e-06
-1.57008e-11
5e-06
-4.79788e-11
4.99999e-06
-8.08852e-11
4.99998e-06
-1.16178e-10
4.99997e-06
-1.53585e-10
4.99996e-06
-1.96558e-10
4.99994e-06
-2.42537e-10
4.99992e-06
-2.98106e-10
4.9999e-06
-3.56833e-10
4.99987e-06
-4.32494e-10
4.99984e-06
-5.092e-10
4.9998e-06
-6.1645e-10
4.99975e-06
-7.14919e-10
4.9997e-06
-8.71725e-10
4.99964e-06
-9.91999e-10
4.99958e-06
-1.22867e-09
4.9995e-06
-1.35704e-09
4.99942e-06
-1.72808e-09
4.99933e-06
-1.81377e-09
-2.44179e-09
5e-06
-1.38745e-11
4.99999e-06
-4.34138e-11
4.99999e-06
-7.3528e-11
4.99998e-06
-1.06022e-10
4.99996e-06
-1.40164e-10
4.99995e-06
-1.79452e-10
4.99992e-06
-2.21027e-10
4.9999e-06
-2.71738e-10
4.99987e-06
-3.24921e-10
4.99983e-06
-3.94197e-10
4.99978e-06
-4.63545e-10
4.99973e-06
-5.63068e-10
4.99967e-06
-6.52362e-10
4.9996e-06
-7.99714e-10
4.99951e-06
-9.08943e-10
4.99942e-06
-1.13541e-09
4.99931e-06
-1.25259e-09
4.9992e-06
-1.61729e-09
4.99909e-06
-1.69865e-09
-2.29311e-09
5e-06
-1.16852e-11
4.99999e-06
-3.66643e-11
4.99998e-06
-6.25858e-11
4.99997e-06
-9.09009e-11
4.99995e-06
-1.21133e-10
4.99992e-06
-1.55645e-10
4.99989e-06
-1.92401e-10
4.99986e-06
-2.36977e-10
4.99982e-06
-2.83978e-10
4.99977e-06
-3.45367e-10
4.99971e-06
-4.06148e-10
4.99964e-06
-4.9491e-10
4.99957e-06
-5.73591e-10
4.99947e-06
-7.0703e-10
4.99937e-06
-8.03749e-10
4.99925e-06
-1.01339e-09
4.99911e-06
-1.11776e-09
4.99896e-06
-1.46268e-09
4.99879e-06
-1.53396e-09
-2.16235e-09
5e-06
-1.2684e-11
5e-06
-3.34582e-11
4.99999e-06
-5.47667e-11
4.99998e-06
-7.82391e-11
4.99996e-06
-1.02957e-10
4.99994e-06
-1.31203e-10
4.9999e-06
-1.61342e-10
4.99987e-06
-1.98401e-10
4.99982e-06
-2.36406e-10
4.99976e-06
-2.88778e-10
4.99969e-06
-3.37927e-10
4.99961e-06
-4.14609e-10
4.99952e-06
-4.77789e-10
4.99941e-06
-5.96188e-10
4.99928e-06
-6.73001e-10
4.99913e-06
-8.65771e-10
4.99896e-06
-9.47989e-10
4.99878e-06
-1.28085e-09
4.99858e-06
-1.3323e-09
-1.89747e-09
4.99999e-06
-4.71312e-12
4.99998e-06
-2.04947e-11
4.99996e-06
-3.79606e-11
4.99994e-06
-5.72312e-11
4.99992e-06
-7.71505e-11
4.99988e-06
-9.97833e-11
4.99985e-06
-1.23823e-10
4.9998e-06
-1.5326e-10
4.99975e-06
-1.82756e-10
4.99968e-06
-2.23878e-10
4.99961e-06
-2.62205e-10
4.99952e-06
-3.22934e-10
4.99941e-06
-3.71595e-10
4.99928e-06
-4.67379e-10
4.99913e-06
-5.25966e-10
4.99896e-06
-6.87333e-10
4.99876e-06
-7.48823e-10
4.99852e-06
-1.04185e-09
4.99827e-06
-1.08393e-09
-1.68909e-09
5.00001e-06
-1.17006e-11
5.00001e-06
-1.91231e-11
5e-06
-2.95595e-11
4.99998e-06
-4.22325e-11
4.99996e-06
-5.46137e-11
4.99993e-06
-6.98536e-11
4.99989e-06
-8.42181e-11
4.99984e-06
-1.0448e-10
4.99979e-06
-1.23861e-10
4.99971e-06
-1.53211e-10
4.99963e-06
-1.77053e-10
4.99953e-06
-2.21939e-10
4.99941e-06
-2.50161e-10
4.99926e-06
-3.24024e-10
4.99909e-06
-3.54066e-10
4.99889e-06
-4.86388e-10
4.99865e-06
-5.09807e-10
4.99838e-06
-7.68235e-10
4.99805e-06
-7.60347e-10
-1.26152e-09
4.99998e-06
1.00602e-11
4.99996e-06
-4.48804e-12
4.99995e-06
-1.30827e-11
4.99993e-06
-1.96085e-11
4.9999e-06
-2.67816e-11
4.99986e-06
-3.76613e-11
4.99982e-06
-3.48362e-11
4.99977e-06
-6.32889e-11
4.99971e-06
-6.30859e-11
4.99963e-06
-7.82001e-11
4.99955e-06
-9.028e-11
4.99944e-06
-1.14143e-10
4.99932e-06
-1.26994e-10
4.99916e-06
-1.67899e-10
4.99898e-06
-1.7823e-10
4.99875e-06
-2.57106e-10
4.9985e-06
-2.56561e-10
4.99817e-06
-4.32043e-10
4.99782e-06
-4.14464e-10
-8.91574e-10
5.00001e-06
5.00001e-06
4.99999e-06
4.99997e-06
4.99995e-06
4.99991e-06
4.99987e-06
4.99982e-06
4.99975e-06
4.99968e-06
4.99959e-06
4.99947e-06
4.99934e-06
4.99918e-06
4.999e-06
4.99874e-06
4.99849e-06
4.99805e-06
4.99764e-06
)
;

boundaryField
{
    sides
    {
        type            calculated;
        value           uniform 0;
    }
    inlet
    {
        type            calculated;
        value           nonuniform List<scalar> 
20
(
-5e-06
-5e-06
-5e-06
-5e-06
-5e-06
-5e-06
-5e-06
-5e-06
-5e-06
-5e-06
-5e-06
-5e-06
-5e-06
-5e-06
-5e-06
-5e-06
-5e-06
-5e-06
-5e-06
-5e-06
)
;
    }
    outlet
    {
        type            calculated;
        value           nonuniform List<scalar> 
20
(
5.00325e-06
5.00255e-06
5.00237e-06
5.00194e-06
5.00169e-06
5.00134e-06
5.00106e-06
5.00074e-06
5.00045e-06
5.00015e-06
4.99985e-06
4.99955e-06
4.99926e-06
4.99894e-06
4.99866e-06
4.99831e-06
4.99806e-06
4.99763e-06
4.99745e-06
4.99675e-06
)
;
    }
    frontAndBack
    {
        type            empty;
        value           nonuniform 0();
    }
}


// ************************************************************************* //
