/*--------------------------------*- C++ -*----------------------------------*\
  =========                 |
  \\      /  F ield         | OpenFOAM: The Open Source CFD Toolbox
   \\    /   O peration     | Website:  https://openfoam.org
    \\  /    A nd           | Version:  7
     \\/     M anipulation  |
\*---------------------------------------------------------------------------*/
FoamFile
{
    version     2.0;
    format      ascii;
    class       surfaceScalarField;
    location    "74";
    object      phi_0;
}
// * * * * * * * * * * * * * * * * * * * * * * * * * * * * * * * * * * * * * //

dimensions      [0 4 -1 0 0 0 0];

internalField   nonuniform List<scalar> 
760
(
4.99999e-06
9.86757e-12
4.99999e-06
-4.36199e-12
5.00001e-06
-1.27793e-11
5.00003e-06
-1.9754e-11
5.00005e-06
-2.73219e-11
5.00009e-06
-3.2941e-11
5.00013e-06
-3.86767e-11
5.00018e-06
-4.70727e-11
5.00025e-06
-6.25357e-11
5.00032e-06
-7.79937e-11
5.00041e-06
-8.98504e-11
5.00053e-06
-1.13835e-10
5.00065e-06
-1.26908e-10
5.00082e-06
-1.67982e-10
5.001e-06
-1.78269e-10
5.00126e-06
-2.5714e-10
5.00151e-06
-2.56471e-10
5.00195e-06
-4.32009e-10
5.00236e-06
-4.14339e-10
-8.91527e-10
5.00002e-06
-1.18616e-11
5.00004e-06
-1.90978e-11
5.00005e-06
-2.9378e-11
5.00007e-06
-4.20497e-11
5.0001e-06
-5.49487e-11
5.00014e-06
-6.99291e-11
5.00018e-06
-8.47881e-11
5.00023e-06
-1.04929e-10
5.00029e-06
-1.23873e-10
5.00037e-06
-1.53056e-10
5.00045e-06
-1.76767e-10
5.00056e-06
-2.21871e-10
5.00068e-06
-2.50254e-10
5.00084e-06
-3.2426e-10
5.00102e-06
-3.54184e-10
5.00125e-06
-4.86594e-10
5.0015e-06
-5.09812e-10
5.00184e-06
-7.68464e-10
5.00218e-06
-7.60381e-10
-1.26193e-09
4.99999e-06
-4.66087e-12
4.99999e-06
-2.05583e-11
5e-06
-3.79866e-11
5.00002e-06
-5.71829e-11
5.00004e-06
-7.70834e-11
5.00007e-06
-1.0004e-10
5.00011e-06
-1.22993e-10
5.00016e-06
-1.52869e-10
5.00021e-06
-1.82703e-10
5.00029e-06
-2.23692e-10
5.00037e-06
-2.62132e-10
5.00047e-06
-3.23108e-10
5.00059e-06
-3.71776e-10
5.00074e-06
-4.67546e-10
5.00091e-06
-5.26005e-10
5.00111e-06
-6.87449e-10
5.00135e-06
-7.48809e-10
5.00162e-06
-1.04205e-09
5.00195e-06
-1.08396e-09
-1.6894e-09
5.00001e-06
-1.25679e-11
5.00002e-06
-3.35513e-11
5.00004e-06
-5.4896e-11
5.00006e-06
-7.84148e-11
5.00008e-06
-1.02747e-10
5.00012e-06
-1.31472e-10
5.00015e-06
-1.61028e-10
5.0002e-06
-1.98632e-10
5.00025e-06
-2.36421e-10
5.00032e-06
-2.88646e-10
5.00039e-06
-3.38134e-10
5.00048e-06
-4.14932e-10
5.00059e-06
-4.77956e-10
5.00072e-06
-5.96312e-10
5.00087e-06
-6.73045e-10
5.00105e-06
-8.65925e-10
5.00124e-06
-9.48057e-10
5.00148e-06
-1.28116e-09
5.00173e-06
-1.33248e-09
-1.89792e-09
5e-06
-1.16601e-11
5e-06
-3.67503e-11
5.00001e-06
-6.27121e-11
5.00002e-06
-9.10709e-11
5.00004e-06
-1.21114e-10
5.00006e-06
-1.55529e-10
5.0001e-06
-1.92356e-10
5.00013e-06
-2.37103e-10
5.00018e-06
-2.83713e-10
5.00024e-06
-3.45446e-10
5.00031e-06
-4.06422e-10
5.00039e-06
-4.95053e-10
5.00048e-06
-5.73575e-10
5.00059e-06
-7.07043e-10
5.00072e-06
-8.03761e-10
5.00087e-06
-1.01354e-09
5.00104e-06
-1.11783e-09
5.00122e-06
-1.46297e-09
5.00142e-06
-1.53409e-09
-2.1627e-09
5e-06
-1.39646e-11
5.00001e-06
-4.34849e-11
5.00002e-06
-7.36513e-11
5.00003e-06
-1.0602e-10
5.00005e-06
-1.4032e-10
5.00008e-06
-1.79272e-10
5.00011e-06
-2.21071e-10
5.00014e-06
-2.71567e-10
5.00018e-06
-3.24824e-10
5.00023e-06
-3.94408e-10
5.00029e-06
-4.63594e-10
5.00036e-06
-5.62995e-10
5.00043e-06
-6.52333e-10
5.00053e-06
-7.99796e-10
5.00063e-06
-9.09058e-10
5.00075e-06
-1.13565e-09
5.00089e-06
-1.25274e-09
5.00104e-06
-1.61753e-09
5.00121e-06
-1.69872e-09
-2.29335e-09
5e-06
-1.58077e-11
5.00001e-06
-4.79922e-11
5.00001e-06
-8.09869e-11
5.00002e-06
-1.16157e-10
5.00004e-06
-1.53631e-10
5.00005e-06
-1.96516e-10
5.00008e-06
-2.42556e-10
5.0001e-06
-2.97955e-10
5.00013e-06
-3.56857e-10
5.00017e-06
-4.32471e-10
5.00022e-06
-5.08998e-10
5.00027e-06
-6.1637e-10
5.00033e-06
-7.1501e-10
5.0004e-06
-8.71922e-10
5.00049e-06
-9.92216e-10
5.00058e-06
-1.22898e-09
5.00069e-06
-1.35722e-09
5.0008e-06
-1.72823e-09
5.00091e-06
-1.81369e-09
-2.44192e-09
5e-06
-1.68352e-11
5e-06
-5.10783e-11
5.00001e-06
-8.60333e-11
5.00002e-06
-1.23809e-10
5.00003e-06
-1.63907e-10
5.00004e-06
-2.09771e-10
5.00006e-06
-2.58926e-10
5.00008e-06
-3.17984e-10
5.0001e-06
-3.80726e-10
5.00013e-06
-4.60857e-10
5.00016e-06
-5.42475e-10
5.0002e-06
-6.55598e-10
5.00025e-06
-7.60356e-10
5.0003e-06
-9.24329e-10
5.00036e-06
-1.0515e-09
5.00042e-06
-1.29582e-09
5.0005e-06
-1.4304e-09
5.00058e-06
-1.80908e-09
5.00067e-06
-1.90203e-09
-2.51596e-09
5e-06
-1.73775e-11
5e-06
-5.29497e-11
5.00001e-06
-8.9265e-11
5.00001e-06
-1.28612e-10
5.00002e-06
-1.70373e-10
5.00002e-06
-2.17905e-10
5.00003e-06
-2.68885e-10
5.00005e-06
-3.30043e-10
5.00006e-06
-3.95086e-10
5.00008e-06
-4.77954e-10
5.0001e-06
-5.62606e-10
5.00012e-06
-6.79064e-10
5.00015e-06
-7.87553e-10
5.00018e-06
-9.55606e-10
5.00022e-06
-1.08694e-09
5.00026e-06
-1.3355e-09
5.0003e-06
-1.47416e-09
5.00035e-06
-1.85622e-09
5.00039e-06
-1.94943e-09
-2.57193e-09
5e-06
-1.76053e-11
5e-06
-5.35731e-11
5e-06
-9.03945e-11
5e-06
-1.30217e-10
5.00001e-06
-1.72515e-10
5.00001e-06
-2.20559e-10
5.00001e-06
-2.7219e-10
5.00002e-06
-3.34016e-10
5.00002e-06
-3.99893e-10
5.00003e-06
-4.83658e-10
5.00003e-06
-5.69296e-10
5.00004e-06
-6.86879e-10
5.00005e-06
-7.96597e-10
5.00006e-06
-9.65896e-10
5.00007e-06
-1.09871e-09
5.00009e-06
-1.34867e-09
5.0001e-06
-1.48873e-09
5.00012e-06
-1.8716e-09
5.00013e-06
-1.96667e-09
-2.58821e-09
5e-06
-1.74742e-11
5e-06
-5.29266e-11
5e-06
-8.92932e-11
5e-06
-1.28552e-10
4.99999e-06
-1.70326e-10
4.99999e-06
-2.17787e-10
4.99999e-06
-2.6887e-10
4.99998e-06
-3.29963e-10
4.99998e-06
-3.951e-10
4.99997e-06
-4.77965e-10
4.99997e-06
-5.62548e-10
4.99996e-06
-6.79069e-10
4.99995e-06
-7.87488e-10
4.99994e-06
-9.55385e-10
4.99993e-06
-1.08676e-09
4.99991e-06
-1.33542e-09
4.9999e-06
-1.47414e-09
4.99988e-06
-1.85621e-09
4.99987e-06
-1.94947e-09
-2.57184e-09
5e-06
-1.68789e-11
5e-06
-5.10883e-11
4.99999e-06
-8.61104e-11
4.99999e-06
-1.23751e-10
4.99998e-06
-1.63918e-10
4.99998e-06
-2.09658e-10
4.99997e-06
-2.58945e-10
4.99995e-06
-3.1795e-10
4.99994e-06
-3.80735e-10
4.99992e-06
-4.60967e-10
4.9999e-06
-5.42505e-10
4.99988e-06
-6.55577e-10
4.99985e-06
-7.60275e-10
4.99982e-06
-9.2413e-10
4.99978e-06
-1.05132e-09
4.99974e-06
-1.29565e-09
4.9997e-06
-1.43031e-09
4.99965e-06
-1.80902e-09
4.99961e-06
-1.90205e-09
-2.51583e-09
5e-06
-1.57511e-11
5e-06
-4.80481e-11
4.99999e-06
-8.09977e-11
4.99998e-06
-1.16216e-10
4.99997e-06
-1.5369e-10
4.99996e-06
-1.96526e-10
4.99994e-06
-2.42557e-10
4.99992e-06
-2.9805e-10
4.9999e-06
-3.56794e-10
4.99987e-06
-4.32566e-10
4.99984e-06
-5.09223e-10
4.9998e-06
-6.16455e-10
4.99975e-06
-7.15e-10
4.9997e-06
-8.7185e-10
4.99964e-06
-9.92134e-10
4.99958e-06
-1.22882e-09
4.9995e-06
-1.35712e-09
4.99942e-06
-1.72809e-09
4.99933e-06
-1.81361e-09
-2.4416e-09
5e-06
-1.38972e-11
4.99999e-06
-4.35004e-11
4.99999e-06
-7.36048e-11
4.99998e-06
-1.06139e-10
4.99996e-06
-1.40231e-10
4.99995e-06
-1.79436e-10
4.99992e-06
-2.20975e-10
4.9999e-06
-2.7173e-10
4.99987e-06
-3.24757e-10
4.99983e-06
-3.94203e-10
4.99978e-06
-4.63673e-10
4.99973e-06
-5.63155e-10
4.99967e-06
-6.52469e-10
4.99959e-06
-7.99851e-10
4.99951e-06
-9.09066e-10
4.99942e-06
-1.13552e-09
4.99931e-06
-1.25262e-09
4.9992e-06
-1.61725e-09
4.99909e-06
-1.69847e-09
-2.29292e-09
5e-06
-1.16736e-11
4.99999e-06
-3.67421e-11
4.99998e-06
-6.26564e-11
4.99997e-06
-9.10293e-11
4.99995e-06
-1.21077e-10
4.99992e-06
-1.55786e-10
4.99989e-06
-1.9224e-10
4.99986e-06
-2.37067e-10
4.99982e-06
-2.83874e-10
4.99977e-06
-3.45194e-10
4.99971e-06
-4.06173e-10
4.99964e-06
-4.95028e-10
4.99957e-06
-5.73728e-10
4.99947e-06
-7.07169e-10
4.99937e-06
-8.03861e-10
4.99925e-06
-1.01347e-09
4.99911e-06
-1.11775e-09
4.99896e-06
-1.46264e-09
4.99879e-06
-1.53382e-09
-2.16221e-09
5e-06
-1.26549e-11
5e-06
-3.35093e-11
4.99999e-06
-5.48257e-11
4.99998e-06
-7.82898e-11
4.99996e-06
-1.02955e-10
4.99994e-06
-1.31378e-10
4.9999e-06
-1.61087e-10
4.99987e-06
-1.98151e-10
4.99982e-06
-2.36468e-10
4.99976e-06
-2.88611e-10
4.99969e-06
-3.37804e-10
4.99961e-06
-4.14647e-10
4.99952e-06
-4.77909e-10
4.99941e-06
-5.96333e-10
4.99928e-06
-6.73126e-10
4.99913e-06
-8.65843e-10
4.99896e-06
-9.47987e-10
4.99878e-06
-1.28084e-09
4.99858e-06
-1.33221e-09
-1.89736e-09
4.99999e-06
-4.73618e-12
4.99998e-06
-2.05139e-11
4.99996e-06
-3.79899e-11
4.99994e-06
-5.72189e-11
4.99992e-06
-7.72808e-11
4.99988e-06
-9.97094e-11
4.99985e-06
-1.23856e-10
4.9998e-06
-1.53015e-10
4.99975e-06
-1.82633e-10
4.99968e-06
-2.23834e-10
4.99961e-06
-2.62081e-10
4.99952e-06
-3.2288e-10
4.99941e-06
-3.71634e-10
4.99928e-06
-4.67476e-10
4.99913e-06
-5.26074e-10
4.99896e-06
-6.8741e-10
4.99876e-06
-7.48841e-10
4.99852e-06
-1.04186e-09
4.99827e-06
-1.08387e-09
-1.68901e-09
5.00001e-06
-1.17981e-11
5.00001e-06
-1.90969e-11
5e-06
-2.95799e-11
4.99998e-06
-4.223e-11
4.99996e-06
-5.47932e-11
4.99993e-06
-6.94022e-11
4.99989e-06
-8.53699e-11
4.99984e-06
-1.05097e-10
4.99979e-06
-1.23883e-10
4.99971e-06
-1.53264e-10
4.99963e-06
-1.77028e-10
4.99953e-06
-2.21863e-10
4.99941e-06
-2.50115e-10
4.99926e-06
-3.24037e-10
4.99909e-06
-3.54123e-10
4.99889e-06
-4.86455e-10
4.99865e-06
-5.09839e-10
4.99838e-06
-7.68244e-10
4.99805e-06
-7.60313e-10
-1.26148e-09
4.99998e-06
9.99872e-12
4.99996e-06
-4.44243e-12
4.99995e-06
-1.31232e-11
4.99992e-06
-1.97045e-11
4.9999e-06
-2.6606e-11
4.99986e-06
-3.18079e-11
4.99982e-06
-4.34645e-11
4.99977e-06
-4.44589e-11
4.99971e-06
-6.25551e-11
4.99963e-06
-7.83379e-11
4.99955e-06
-9.03285e-11
4.99944e-06
-1.14082e-10
4.99932e-06
-1.26912e-10
4.99916e-06
-1.67861e-10
4.99898e-06
-1.78244e-10
4.99875e-06
-2.57145e-10
4.9985e-06
-2.56586e-10
4.99817e-06
-4.32047e-10
4.99782e-06
-4.14441e-10
-8.91546e-10
5.00001e-06
5.00001e-06
4.99999e-06
4.99997e-06
4.99995e-06
4.99991e-06
4.99987e-06
4.99982e-06
4.99975e-06
4.99968e-06
4.99959e-06
4.99947e-06
4.99934e-06
4.99918e-06
4.999e-06
4.99874e-06
4.99849e-06
4.99805e-06
4.99764e-06
)
;

boundaryField
{
    sides
    {
        type            calculated;
        value           uniform 0;
    }
    inlet
    {
        type            calculated;
        value           nonuniform List<scalar> 
20
(
-5e-06
-5e-06
-5e-06
-5e-06
-5e-06
-5e-06
-5e-06
-5e-06
-5e-06
-5e-06
-5e-06
-5e-06
-5e-06
-5e-06
-5e-06
-5e-06
-5e-06
-5e-06
-5e-06
-5e-06
)
;
    }
    outlet
    {
        type            calculated;
        value           nonuniform List<scalar> 
20
(
5.00325e-06
5.00255e-06
5.00237e-06
5.00194e-06
5.00169e-06
5.00134e-06
5.00106e-06
5.00074e-06
5.00045e-06
5.00015e-06
4.99985e-06
4.99955e-06
4.99926e-06
4.99894e-06
4.99866e-06
4.99831e-06
4.99806e-06
4.99763e-06
4.99745e-06
4.99675e-06
)
;
    }
    frontAndBack
    {
        type            empty;
        value           nonuniform 0();
    }
}


// ************************************************************************* //
