/*--------------------------------*- C++ -*----------------------------------*\
  =========                 |
  \\      /  F ield         | OpenFOAM: The Open Source CFD Toolbox
   \\    /   O peration     | Website:  https://openfoam.org
    \\  /    A nd           | Version:  7
     \\/     M anipulation  |
\*---------------------------------------------------------------------------*/
FoamFile
{
    version     2.0;
    format      ascii;
    class       volVectorField;
    location    "91";
    object      ddtCorrDdt0(hU);
}
// * * * * * * * * * * * * * * * * * * * * * * * * * * * * * * * * * * * * * //

dimensions      [0 2 -2 0 0 0 0];

internalField   nonuniform List<vector> 
400
(
(1.38962e-11 -2.69983e-11 0)
(-6.36328e-11 2.84248e-11 0)
(-1.02995e-11 2.46249e-11 0)
(-1.2783e-10 -1.7257e-10 0)
(-2.59286e-10 5.9759e-11 0)
(-1.28853e-09 8.42227e-10 0)
(1.61564e-09 2.83998e-10 0)
(-3.88487e-09 -2.6079e-09 0)
(-1.07295e-09 -7.53061e-11 0)
(9.19853e-11 -2.76375e-10 0)
(-4.06139e-10 -1.53204e-10 0)
(-2.42564e-10 2.19907e-12 0)
(-6.09664e-11 6.44056e-11 0)
(4.78688e-11 6.22471e-11 0)
(7.43799e-11 2.02829e-11 0)
(2.68722e-11 -2.57479e-11 0)
(-2.06563e-11 -3.65933e-11 0)
(-3.18953e-11 -1.58348e-11 0)
(-2.32404e-12 -3.7783e-12 0)
(2.94372e-11 4.41603e-12 0)
(-6.80467e-12 -6.03482e-11 0)
(1.12811e-11 2.45302e-11 0)
(-1.04454e-10 -1.53066e-11 0)
(6.63655e-11 -8.96453e-11 0)
(2.23764e-11 -1.17696e-10 0)
(1.44756e-09 8.95402e-10 0)
(-7.81467e-10 -4.2628e-10 0)
(2.78524e-09 -1.42494e-09 0)
(1.71934e-09 5.20666e-11 0)
(-9.99866e-11 -4.94987e-10 0)
(-2.23739e-11 -2.68095e-10 0)
(6.09918e-11 -2.23041e-11 0)
(4.30013e-11 7.85317e-11 0)
(2.96745e-11 8.95054e-11 0)
(4.64946e-13 2.98816e-11 0)
(-2.6225e-11 -3.50823e-11 0)
(-2.01111e-11 -4.18175e-11 0)
(-6.36647e-12 -1.1803e-12 0)
(1.28218e-11 1.47561e-11 0)
(2.09492e-11 5.08726e-12 0)
(-3.38939e-11 -4.36748e-11 0)
(5.64366e-12 -2.03602e-11 0)
(-3.44823e-11 -3.98993e-11 0)
(1.04011e-10 1.463e-10 0)
(3.02876e-11 -2.52109e-10 0)
(2.26719e-10 -2.12696e-11 0)
(-1.22492e-09 -7.30607e-10 0)
(1.03335e-09 1.45087e-09 0)
(-2.66525e-10 -3.52688e-11 0)
(-3.77242e-10 -1.70797e-10 0)
(2.60004e-10 2.03781e-11 0)
(2.20643e-10 7.67798e-11 0)
(1.00418e-10 8.07955e-11 0)
(2.76658e-11 4.63944e-11 0)
(-5.73772e-11 -1.0681e-11 0)
(-7.77263e-11 -5.00732e-11 0)
(-1.527e-11 -5.3157e-11 0)
(2.53483e-11 -3.01262e-11 0)
(4.50371e-11 -2.7138e-11 0)
(3.15267e-11 -7.79318e-12 0)
(6.76472e-12 -1.53693e-11 0)
(2.12564e-11 -2.20283e-11 0)
(3.59015e-11 2.57153e-11 0)
(-3.40842e-11 1.05737e-10 0)
(1.39025e-10 6.56615e-11 0)
(-2.13515e-10 -2.44495e-10 0)
(2.68728e-11 2.21877e-10 0)
(3.65925e-10 2.19449e-10 0)
(-5.31468e-10 -2.69534e-10 0)
(4.68384e-11 1.74181e-10 0)
(3.12061e-10 2.55615e-10 0)
(1.15327e-10 1.34724e-10 0)
(2.15506e-11 7.52924e-11 0)
(-3.0693e-11 9.9601e-13 0)
(-9.00908e-11 -4.29562e-11 0)
(-8.37639e-11 -3.03849e-11 0)
(-6.61788e-12 -3.6156e-11 0)
(4.49767e-11 -5.96816e-11 0)
(5.3767e-11 -6.79907e-11 0)
(3.12342e-11 -2.2185e-11 0)
(4.49006e-11 3.37949e-11 0)
(3.16915e-11 -6.18544e-12 0)
(1.04721e-10 2.62063e-11 0)
(-7.4212e-11 -5.51783e-11 0)
(9.50467e-11 2.00746e-10 0)
(-2.66947e-10 -3.18566e-10 0)
(2.22964e-10 2.95145e-10 0)
(-1.80067e-10 -1.81829e-10 0)
(-2.0065e-10 -5.50011e-11 0)
(4.04344e-10 3.07876e-10 0)
(1.54679e-10 1.65477e-10 0)
(-5.51012e-11 3.7665e-11 0)
(-4.84426e-11 2.17817e-11 0)
(-8.7097e-11 -3.46996e-11 0)
(-7.94492e-11 -4.69653e-11 0)
(-3.74738e-11 6.37835e-12 0)
(1.214e-13 -1.19415e-12 0)
(3.42933e-11 -5.88747e-11 0)
(4.55117e-11 -7.96757e-11 0)
(2.48153e-11 -2.6535e-11 0)
(1.86505e-11 8.58616e-11 0)
(-5.42588e-12 1.72657e-11 0)
(3.77664e-11 8.46462e-12 0)
(-4.60919e-11 -1.63394e-10 0)
(-1.56444e-11 -1.4443e-11 0)
(-1.28152e-10 -1.59074e-10 0)
(1.76833e-10 4.55502e-11 0)
(-2.32046e-10 -1.91682e-10 0)
(2.93737e-10 2.00686e-10 0)
(3.14464e-10 1.64215e-10 0)
(-1.70383e-10 -4.44417e-11 0)
(-1.08026e-10 -9.90413e-12 0)
(-5.1928e-11 -3.59753e-12 0)
(-1.2107e-10 -4.01081e-11 0)
(-4.00115e-11 -2.0578e-11 0)
(4.0063e-11 1.26701e-11 0)
(1.0196e-11 -2.4097e-12 0)
(-1.25641e-11 -4.0401e-11 0)
(5.28894e-12 -7.60112e-11 0)
(1.21481e-11 -2.81462e-11 0)
(-2.12195e-11 4.91206e-11 0)
(-2.68582e-11 3.59861e-11 0)
(-6.2767e-11 -3.65942e-11 0)
(-6.55052e-12 -4.91696e-11 0)
(-1.00686e-10 -1.89117e-10 0)
(5.44717e-11 -6.55643e-12 0)
(-3.92682e-12 -9.91126e-11 0)
(2.93357e-11 -6.38334e-11 0)
(2.87913e-10 1.397e-10 0)
(-1.45565e-10 -1.44718e-10 0)
(-1.89272e-10 -9.9719e-11 0)
(-1.04752e-11 3.38257e-11 0)
(-7.41671e-11 -2.39361e-11 0)
(-8.62628e-11 -1.41031e-11 0)
(4.85111e-11 4.64288e-11 0)
(1.13127e-10 1.48701e-11 0)
(3.81497e-11 -2.80523e-11 0)
(-4.39873e-11 -1.99295e-11 0)
(-6.43292e-11 -5.15593e-11 0)
(-3.15135e-11 -2.79122e-11 0)
(-3.5459e-11 -5.39758e-11 0)
(-1.55751e-11 1.48292e-11 0)
(-1.00578e-10 -6.47286e-11 0)
(6.60357e-13 3.44245e-11 0)
(-8.29901e-11 -1.0966e-10 0)
(9.95946e-11 2.39364e-11 0)
(-7.94743e-11 -1.19692e-10 0)
(1.46439e-10 1.26105e-11 0)
(3.45502e-13 -9.14643e-11 0)
(-1.88896e-10 -1.65994e-10 0)
(7.00038e-11 6.83528e-12 0)
(-4.0355e-11 3.25437e-11 0)
(-1.55858e-10 1.39755e-11 0)
(2.41287e-11 8.79866e-11 0)
(1.14883e-10 9.94304e-11 0)
(5.84338e-11 -1.75435e-11 0)
(1.32588e-11 -8.66995e-11 0)
(-2.19301e-11 -5.50315e-11 0)
(-5.61588e-11 -7.1398e-11 0)
(-3.55945e-11 -3.05717e-11 0)
(1.39262e-11 -8.69703e-11 0)
(1.66174e-11 -6.28041e-11 0)
(-3.53081e-11 4.87782e-12 0)
(-4.71047e-12 1.61175e-11 0)
(4.24622e-12 6.51107e-11 0)
(4.85825e-11 2.3223e-11 0)
(-3.03585e-11 -1.68764e-11 0)
(4.96833e-11 1.5004e-11 0)
(-1.16861e-10 -1.52848e-10 0)
(-4.31898e-11 -1.48293e-11 0)
(7.74907e-11 2.91698e-12 0)
(-6.59073e-11 -3.53957e-11 0)
(-2.78005e-11 1.34056e-10 0)
(1.27622e-10 1.95456e-10 0)
(7.14746e-11 5.68531e-11 0)
(-4.75784e-11 -7.97115e-11 0)
(-3.93439e-11 -1.0108e-10 0)
(2.19927e-12 -6.6017e-11 0)
(2.08438e-12 -9.92049e-11 0)
(5.30483e-12 -4.68302e-11 0)
(2.60657e-11 -1.67664e-11 0)
(1.07144e-11 -6.6638e-11 0)
(6.85373e-11 2.76888e-11 0)
(2.00898e-11 -2.79811e-11 0)
(6.7454e-11 3.87569e-11 0)
(-2.01006e-11 -4.10153e-11 0)
(3.21051e-11 -2.92695e-11 0)
(-9.32822e-11 -4.05812e-11 0)
(-7.58866e-11 -1.08846e-10 0)
(2.43973e-11 2.94656e-11 0)
(-2.68265e-11 -6.2458e-12 0)
(1.18102e-10 -9.37979e-12 0)
(1.77644e-10 1.55132e-10 0)
(-1.11556e-11 1.45718e-10 0)
(-1.21643e-10 -1.22367e-11 0)
(-6.847e-11 -1.00915e-10 0)
(-4.83712e-12 -9.82797e-11 0)
(6.89195e-12 -7.27658e-11 0)
(3.47706e-11 -1.00813e-10 0)
(6.56e-11 -4.23137e-11 0)
(5.77635e-12 5.48245e-11 0)
(-5.82346e-12 6.05484e-11 0)
(8.50003e-11 -3.89627e-11 0)
(1.95332e-11 -6.31419e-11 0)
(7.77441e-11 -1.35233e-10 0)
(-4.13445e-11 -1.13804e-10 0)
(5.17331e-11 -1.34572e-10 0)
(-1.19517e-10 -9.86439e-11 0)
(-4.94505e-11 -4.02016e-11 0)
(4.29799e-11 -3.05316e-11 0)
(-6.76887e-11 5.10781e-11 0)
(1.48769e-10 6.12502e-11 0)
(2.09731e-10 -1.73288e-11 0)
(-6.79284e-11 -3.58482e-11 0)
(-1.77267e-10 9.23104e-12 0)
(-6.12747e-11 -5.28793e-12 0)
(2.27251e-11 -7.86939e-11 0)
(2.95438e-11 -9.61034e-11 0)
(5.49297e-11 -8.43869e-11 0)
(7.25596e-11 -2.05871e-11 0)
(-9.68174e-12 9.48956e-11 0)
(-1.74182e-11 8.08007e-11 0)
(-1.03116e-11 -6.39243e-11 0)
(-1.65114e-11 -6.00707e-11 0)
(4.12753e-11 -1.89137e-10 0)
(1.03569e-12 -1.22051e-10 0)
(1.20279e-11 -1.46966e-10 0)
(4.39822e-13 -1.26075e-10 0)
(-8.99668e-11 4.97768e-11 0)
(3.40071e-11 -4.857e-11 0)
(9.94891e-12 5.93222e-11 0)
(-5.01983e-11 1.24272e-10 0)
(4.84683e-11 -6.84069e-11 0)
(8.98036e-11 -1.29203e-10 0)
(-1.18805e-11 7.24714e-12 0)
(-8.56911e-11 6.42184e-11 0)
(-3.93936e-11 -2.11269e-11 0)
(3.61827e-11 -7.89272e-11 0)
(6.48545e-11 -7.90586e-11 0)
(3.86574e-11 -1.98457e-11 0)
(-4.59271e-11 4.1512e-11 0)
(-4.74276e-11 -2.21514e-11 0)
(-1.00824e-10 2.43245e-11 0)
(-8.23405e-12 -5.77072e-11 0)
(-3.65324e-11 -2.14014e-11 0)
(8.03143e-11 -1.0328e-10 0)
(-6.56987e-11 -1.4195e-11 0)
(1.59267e-10 -1.26329e-10 0)
(-6.23038e-11 9.3676e-11 0)
(-9.51731e-11 8.8964e-11 0)
(1.05066e-10 3.01467e-11 0)
(-1.04058e-10 1.06994e-10 0)
(-1.35867e-10 6.56392e-11 0)
(1.04897e-10 -4.46978e-11 0)
(1.33306e-10 -3.79727e-11 0)
(7.06065e-12 3.19113e-11 0)
(-3.17239e-11 2.02289e-11 0)
(-4.92395e-12 -4.51716e-11 0)
(-1.02953e-11 -9.39949e-11 0)
(-2.27521e-11 -3.60397e-11 0)
(-1.34792e-11 -8.73816e-11 0)
(-3.59266e-11 -6.38352e-11 0)
(-9.45791e-11 6.31021e-11 0)
(1.1564e-11 -1.51364e-11 0)
(-1.08367e-10 1.57753e-10 0)
(1.12932e-10 -1.06271e-10 0)
(-8.00884e-11 7.97699e-11 0)
(1.53658e-10 -8.45621e-11 0)
(1.94102e-10 -9.13986e-11 0)
(-2.07688e-10 1.7707e-10 0)
(-5.63379e-11 8.50904e-11 0)
(-1.65466e-11 4.80945e-11 0)
(-1.17994e-10 1.32746e-10 0)
(-7.51199e-12 6.62925e-11 0)
(1.21662e-10 -2.8918e-11 0)
(1.00223e-10 -1.28171e-11 0)
(-7.4332e-12 6.00708e-12 0)
(-7.37857e-11 -2.9645e-11 0)
(-6.97561e-11 -8.16633e-11 0)
(-2.69735e-11 -3.616e-11 0)
(5.4076e-11 -1.34556e-10 0)
(2.91925e-11 -3.41071e-11 0)
(1.55368e-11 -1.41558e-12 0)
(-4.85063e-13 6.74359e-11 0)
(-6.80266e-11 2.8464e-11 0)
(-4.49433e-12 -5.31102e-11 0)
(6.39169e-11 -4.74647e-11 0)
(-1.81721e-10 6.93446e-11 0)
(3.99823e-10 -3.05342e-10 0)
(1.06417e-10 -5.00306e-11 0)
(-2.02844e-10 1.17303e-10 0)
(-6.15742e-11 8.08442e-11 0)
(-5.91932e-11 1.31151e-10 0)
(-6.49983e-11 1.09786e-10 0)
(7.55343e-11 6.11255e-12 0)
(1.32224e-10 -6.34613e-11 0)
(1.23011e-11 -6.34843e-11 0)
(-7.93346e-11 -3.18451e-11 0)
(-7.83017e-11 -4.44072e-11 0)
(-3.89221e-11 -1.3853e-11 0)
(9.20782e-11 -2.98337e-11 0)
(9.12611e-11 1.95398e-11 0)
(1.08661e-10 -5.29889e-11 0)
(-5.61717e-11 7.43306e-11 0)
(4.69601e-11 -2.12106e-10 0)
(-2.17655e-10 2.53224e-10 0)
(2.59359e-10 -3.05429e-10 0)
(-3.76449e-10 2.31442e-10 0)
(-1.58685e-11 -1.19231e-10 0)
(4.41554e-10 -3.09614e-10 0)
(5.49498e-11 -6.81995e-11 0)
(-5.01525e-11 4.25205e-11 0)
(-5.5472e-11 8.23309e-11 0)
(-9.61735e-11 1.02517e-10 0)
(-8.05461e-12 4.09766e-11 0)
(7.22718e-11 -6.72168e-11 0)
(3.44189e-11 -8.85372e-11 0)
(-1.50867e-11 -1.70043e-11 0)
(-3.97861e-11 -6.20166e-12 0)
(-4.30126e-11 -3.38491e-12 0)
(-5.96089e-12 7.19361e-11 0)
(7.20506e-11 4.58533e-11 0)
(1.18848e-10 -8.65723e-11 0)
(-4.03587e-11 -5.04902e-11 0)
(2.2023e-10 -1.78936e-10 0)
(-3.24629e-10 4.2334e-10 0)
(2.87102e-10 -5.66753e-10 0)
(-5.11197e-11 2.66309e-10 0)
(-5.57472e-10 2.66832e-10 0)
(1.84667e-10 -2.42991e-10 0)
(2.9377e-10 -1.93504e-10 0)
(1.05325e-10 -4.44522e-11 0)
(2.89735e-12 1.77261e-11 0)
(-6.87194e-11 6.47552e-11 0)
(-5.91501e-11 4.84146e-11 0)
(1.34249e-11 -4.12059e-11 0)
(5.97538e-11 -8.44099e-11 0)
(4.45945e-11 -4.17406e-11 0)
(-1.43026e-11 -2.7067e-11 0)
(-5.46813e-11 -8.22306e-12 0)
(-1.04981e-10 6.93708e-11 0)
(4.29706e-11 1.07502e-11 0)
(7.75195e-11 1.07908e-11 0)
(8.13431e-11 -1.76063e-10 0)
(2.39095e-10 1.16647e-10 0)
(-1.63675e-10 3.70337e-10 0)
(-3.48072e-10 -8.70815e-10 0)
(1.28555e-09 -1.4649e-09 0)
(-1.01646e-09 2.75836e-10 0)
(-3.03285e-10 1.04332e-10 0)
(3.17222e-10 -4.03736e-11 0)
(2.28314e-10 -5.83382e-11 0)
(9.00029e-11 -6.00189e-11 0)
(-1.12448e-11 -1.36802e-11 0)
(-6.54169e-11 2.90102e-11 0)
(-2.40041e-11 4.94142e-12 0)
(4.29827e-11 -4.76678e-11 0)
(5.06144e-11 -6.82943e-11 0)
(-5.54942e-12 -6.26282e-11 0)
(-5.34607e-11 -1.82192e-11 0)
(-6.77513e-12 9.78653e-11 0)
(1.10609e-11 -6.01412e-11 0)
(-7.7042e-11 5.54646e-11 0)
(9.93217e-11 1.83397e-11 0)
(3.51387e-10 2.13343e-10 0)
(-1.97245e-09 -1.40939e-09 0)
(-2.9446e-09 2.18661e-09 0)
(4.99654e-10 4.7406e-10 0)
(1.20876e-09 -1.29914e-10 0)
(-3.75665e-10 5.77937e-10 0)
(2.59169e-11 2.41203e-10 0)
(8.30253e-11 -3.79793e-11 0)
(6.40684e-11 -1.29015e-10 0)
(5.15499e-11 -7.74491e-11 0)
(-2.7549e-12 1.1355e-11 0)
(-2.54402e-11 4.00933e-11 0)
(-1.4222e-12 -2.52569e-12 0)
(2.26637e-11 -5.36022e-11 0)
(9.22974e-12 -6.08766e-11 0)
(-2.37292e-11 -2.3342e-11 0)
(8.02716e-12 7.04012e-11 0)
(-1.25592e-10 -5.01478e-11 0)
(-2.17489e-11 -6.75138e-12 0)
(1.24518e-11 1.17744e-10 0)
(-6.63498e-10 5.48569e-11 0)
(2.57037e-09 -1.60728e-09 0)
(2.81018e-09 2.70742e-09 0)
(-1.38935e-09 2.06622e-09 0)
(-4.80419e-11 -1.91599e-10 0)
(1.45135e-10 4.14375e-10 0)
(-5.39154e-10 2.02536e-10 0)
(-2.75471e-10 -5.1265e-13 0)
(2.99814e-11 -6.06991e-11 0)
(1.49667e-10 -3.81319e-11 0)
(7.292e-11 1.27403e-12 0)
(-2.60509e-11 9.98223e-12 0)
(-4.71315e-11 -1.22015e-11 0)
(-7.42009e-12 -3.62704e-11 0)
(1.24148e-11 -4.10511e-11 0)
(-1.57608e-12 -1.09991e-11 0)
)
;

boundaryField
{
    sides
    {
        type            calculated;
        value           nonuniform List<vector> 
40
(
(8.02716e-12 0 0)
(-1.25592e-10 0 0)
(-2.17489e-11 0 0)
(1.24518e-11 0 0)
(-6.63498e-10 0 0)
(2.57037e-09 0 0)
(2.81018e-09 0 0)
(-1.38935e-09 0 0)
(-4.80419e-11 0 0)
(1.45135e-10 0 0)
(-5.39154e-10 0 0)
(-2.75471e-10 0 0)
(2.99814e-11 0 0)
(1.49667e-10 0 0)
(7.292e-11 0 0)
(-2.60509e-11 0 0)
(-4.71315e-11 0 0)
(-7.42009e-12 0 0)
(1.24148e-11 0 0)
(-1.57608e-12 0 0)
(1.38962e-11 0 0)
(-6.36328e-11 0 0)
(-1.02995e-11 0 0)
(-1.2783e-10 0 0)
(-2.59286e-10 0 0)
(-1.28853e-09 0 0)
(1.61564e-09 0 0)
(-3.88487e-09 0 0)
(-1.07295e-09 0 0)
(9.19853e-11 0 0)
(-4.06139e-10 0 0)
(-2.42564e-10 0 0)
(-6.09664e-11 0 0)
(4.78688e-11 0 0)
(7.43799e-11 0 0)
(2.68722e-11 0 0)
(-2.06563e-11 0 0)
(-3.18953e-11 0 0)
(-2.32404e-12 0 0)
(2.94372e-11 0 0)
)
;
    }
    inlet
    {
        type            calculated;
        value           uniform (0 0 0);
    }
    outlet
    {
        type            calculated;
        value           nonuniform List<vector> 
20
(
(2.94372e-11 4.41603e-12 0)
(2.09492e-11 5.08726e-12 0)
(3.15267e-11 -7.79318e-12 0)
(3.12342e-11 -2.2185e-11 0)
(2.48153e-11 -2.6535e-11 0)
(1.21481e-11 -2.81462e-11 0)
(-3.15135e-11 -2.79122e-11 0)
(-3.55945e-11 -3.05717e-11 0)
(5.30483e-12 -4.68302e-11 0)
(6.56e-11 -4.23137e-11 0)
(7.25596e-11 -2.05871e-11 0)
(3.86574e-11 -1.98457e-11 0)
(-2.27521e-11 -3.60397e-11 0)
(-2.69735e-11 -3.616e-11 0)
(-3.89221e-11 -1.3853e-11 0)
(-4.30126e-11 -3.38491e-12 0)
(-5.46813e-11 -8.22306e-12 0)
(-5.34607e-11 -1.82192e-11 0)
(-2.37292e-11 -2.3342e-11 0)
(-1.57608e-12 -1.09991e-11 0)
)
;
    }
    frontAndBack
    {
        type            empty;
    }
}


// ************************************************************************* //
