/*--------------------------------*- C++ -*----------------------------------*\
  =========                 |
  \\      /  F ield         | OpenFOAM: The Open Source CFD Toolbox
   \\    /   O peration     | Website:  https://openfoam.org
    \\  /    A nd           | Version:  7
     \\/     M anipulation  |
\*---------------------------------------------------------------------------*/
FoamFile
{
    version     2.0;
    format      ascii;
    class       volVectorField;
    location    "91";
    object      hU_0;
}
// * * * * * * * * * * * * * * * * * * * * * * * * * * * * * * * * * * * * * //

dimensions      [0 2 -1 0 0 0 0];

internalField   nonuniform List<vector> 
400
(
(0.001 -8.74437e-09 0)
(0.000999999 -2.37691e-08 0)
(0.001 -3.60011e-08 0)
(0.001 -4.67303e-08 0)
(0.00100001 -5.69501e-08 0)
(0.00100001 -6.73504e-08 0)
(0.00100002 -7.82267e-08 0)
(0.00100003 -8.92167e-08 0)
(0.00100004 -9.99527e-08 0)
(0.00100006 -1.11909e-07 0)
(0.00100007 -1.22629e-07 0)
(0.0010001 -1.36148e-07 0)
(0.00100011 -1.46529e-07 0)
(0.00100015 -1.63361e-07 0)
(0.00100017 -1.72191e-07 0)
(0.00100024 -1.96322e-07 0)
(0.00100026 -2.00812e-07 0)
(0.00100038 -2.43039e-07 0)
(0.00100038 -2.39157e-07 0)
(0.00100061 -3.31826e-07 0)
(0.001 3.95641e-09 0)
(0.001 1.20969e-08 0)
(0.00100001 2.02484e-08 0)
(0.00100001 2.79643e-08 0)
(0.00100002 3.51311e-08 0)
(0.00100002 4.17001e-08 0)
(0.00100003 4.75842e-08 0)
(0.00100004 5.3047e-08 0)
(0.00100005 5.83592e-08 0)
(0.00100007 6.2291e-08 0)
(0.00100008 6.69787e-08 0)
(0.0010001 6.85869e-08 0)
(0.00100012 7.26838e-08 0)
(0.00100016 6.98607e-08 0)
(0.00100018 7.40089e-08 0)
(0.00100023 6.16575e-08 0)
(0.00100026 6.71523e-08 0)
(0.00100035 3.1762e-08 0)
(0.00100037 3.98646e-08 0)
(0.0010005 -5.45712e-08 0)
(0.001 -3.97942e-09 0)
(0.000999999 -1.30423e-08 0)
(0.001 -2.30856e-08 0)
(0.001 -3.36826e-08 0)
(0.00100001 -4.42058e-08 0)
(0.00100001 -5.50527e-08 0)
(0.00100002 -6.55726e-08 0)
(0.00100003 -7.73179e-08 0)
(0.00100004 -8.8865e-08 0)
(0.00100005 -1.02504e-07 0)
(0.00100006 -1.15247e-07 0)
(0.00100009 -1.32417e-07 0)
(0.0010001 -1.46527e-07 0)
(0.00100014 -1.70056e-07 0)
(0.00100016 -1.85168e-07 0)
(0.00100021 -2.21174e-07 0)
(0.00100023 -2.35704e-07 0)
(0.00100031 -2.9759e-07 0)
(0.00100033 -3.06195e-07 0)
(0.00100046 -4.22132e-07 0)
(0.001 -1.43835e-10 0)
(0.001 -6.39546e-11 0)
(0.00100001 5.64708e-10 0)
(0.00100001 1.26334e-09 0)
(0.00100001 1.97708e-09 0)
(0.00100002 1.87194e-09 0)
(0.00100003 1.57277e-09 0)
(0.00100004 -3.45002e-10 0)
(0.00100004 -2.34339e-09 0)
(0.00100006 -7.02447e-09 0)
(0.00100007 -1.12099e-08 0)
(0.00100009 -2.04865e-08 0)
(0.00100011 -2.71985e-08 0)
(0.00100013 -4.4312e-08 0)
(0.00100016 -5.35905e-08 0)
(0.00100019 -8.50219e-08 0)
(0.00100022 -9.55131e-08 0)
(0.00100028 -1.54687e-07 0)
(0.0010003 -1.6096e-07 0)
(0.00100039 -2.75816e-07 0)
(0.001 -2.9008e-09 0)
(0.001 -9.25412e-09 0)
(0.001 -1.634e-08 0)
(0.001 -2.44101e-08 0)
(0.00100001 -3.30808e-08 0)
(0.00100001 -4.27699e-08 0)
(0.00100002 -5.28586e-08 0)
(0.00100002 -6.45323e-08 0)
(0.00100003 -7.64227e-08 0)
(0.00100004 -9.12134e-08 0)
(0.00100005 -1.05617e-07 0)
(0.00100007 -1.25414e-07 0)
(0.00100009 -1.42764e-07 0)
(0.00100011 -1.70977e-07 0)
(0.00100013 -1.91276e-07 0)
(0.00100016 -2.34373e-07 0)
(0.00100018 -2.55815e-07 0)
(0.00100024 -3.26576e-07 0)
(0.00100025 -3.41544e-07 0)
(0.00100033 -4.64362e-07 0)
(0.001 -2.57713e-09 0)
(0.001 -7.57173e-09 0)
(0.001 -1.2267e-08 0)
(0.00100001 -1.70031e-08 0)
(0.00100001 -2.17763e-08 0)
(0.00100001 -2.72752e-08 0)
(0.00100002 -3.32107e-08 0)
(0.00100002 -4.0815e-08 0)
(0.00100003 -4.88895e-08 0)
(0.00100004 -6.01364e-08 0)
(0.00100005 -7.12841e-08 0)
(0.00100006 -8.82559e-08 0)
(0.00100008 -1.03231e-07 0)
(0.0010001 -1.29521e-07 0)
(0.00100011 -1.48404e-07 0)
(0.00100014 -1.90346e-07 0)
(0.00100016 -2.11046e-07 0)
(0.0010002 -2.80544e-07 0)
(0.00100021 -2.94552e-07 0)
(0.00100027 -4.14934e-07 0)
(0.001 -2.91453e-09 0)
(0.001 -8.91287e-09 0)
(0.001 -1.52243e-08 0)
(0.001 -2.22604e-08 0)
(0.00100001 -2.99888e-08 0)
(0.00100001 -3.8962e-08 0)
(0.00100001 -4.8736e-08 0)
(0.00100002 -6.04607e-08 0)
(0.00100002 -7.28949e-08 0)
(0.00100003 -8.86663e-08 0)
(0.00100004 -1.04498e-07 0)
(0.00100005 -1.264e-07 0)
(0.00100006 -1.4637e-07 0)
(0.00100007 -1.77904e-07 0)
(0.00100009 -2.01895e-07 0)
(0.00100011 -2.49275e-07 0)
(0.00100012 -2.74767e-07 0)
(0.00100015 -3.49585e-07 0)
(0.00100016 -3.67242e-07 0)
(0.00100021 -4.92135e-07 0)
(0.001 -3.21053e-09 0)
(0.001 -9.79728e-09 0)
(0.001 -1.66117e-08 0)
(0.001 -2.39985e-08 0)
(0.001 -3.1827e-08 0)
(0.00100001 -4.0704e-08 0)
(0.00100001 -5.01613e-08 0)
(0.00100001 -6.14853e-08 0)
(0.00100002 -7.34637e-08 0)
(0.00100002 -8.87944e-08 0)
(0.00100003 -1.04318e-07 0)
(0.00100004 -1.26003e-07 0)
(0.00100004 -1.4594e-07 0)
(0.00100005 -1.77513e-07 0)
(0.00100006 -2.01806e-07 0)
(0.00100008 -2.49346e-07 0)
(0.00100009 -2.75306e-07 0)
(0.00100011 -3.49845e-07 0)
(0.00100012 -3.67618e-07 0)
(0.00100015 -4.90756e-07 0)
(0.001 -3.37955e-09 0)
(0.001 -1.02966e-08 0)
(0.001 -1.73954e-08 0)
(0.001 -2.50659e-08 0)
(0.001 -3.31921e-08 0)
(0.001 -4.2481e-08 0)
(0.00100001 -5.24891e-08 0)
(0.00100001 -6.45748e-08 0)
(0.00100001 -7.74665e-08 0)
(0.00100001 -9.39292e-08 0)
(0.00100002 -1.10739e-07 0)
(0.00100002 -1.33891e-07 0)
(0.00100003 -1.5539e-07 0)
(0.00100003 -1.88761e-07 0)
(0.00100004 -2.14775e-07 0)
(0.00100005 -2.64295e-07 0)
(0.00100005 -2.91834e-07 0)
(0.00100007 -3.68371e-07 0)
(0.00100007 -3.87171e-07 0)
(0.00100009 -5.12401e-07 0)
(0.001 -3.45957e-09 0)
(0.001 -1.05314e-08 0)
(0.001 -1.7787e-08 0)
(0.001 -2.56344e-08 0)
(0.001 -3.39884e-08 0)
(0.001 -4.35491e-08 0)
(0.001 -5.38886e-08 0)
(0.001 -6.63364e-08 0)
(0.001 -7.96179e-08 0)
(0.001 -9.64796e-08 0)
(0.00100001 -1.13693e-07 0)
(0.00100001 -1.37226e-07 0)
(0.00100001 -1.59138e-07 0)
(0.00100001 -1.92873e-07 0)
(0.00100001 -2.19304e-07 0)
(0.00100002 -2.69098e-07 0)
(0.00100002 -2.97031e-07 0)
(0.00100002 -3.73632e-07 0)
(0.00100002 -3.92731e-07 0)
(0.00100003 -5.17383e-07 0)
(0.001 -3.46425e-09 0)
(0.001 -1.05258e-08 0)
(0.001 -1.77882e-08 0)
(0.000999999 -2.5633e-08 0)
(0.000999999 -3.39949e-08 0)
(0.000999999 -4.35506e-08 0)
(0.000999998 -5.3897e-08 0)
(0.000999997 -6.63327e-08 0)
(0.000999996 -7.96229e-08 0)
(0.000999995 -9.64876e-08 0)
(0.000999994 -1.13697e-07 0)
(0.000999993 -1.3724e-07 0)
(0.000999991 -1.59148e-07 0)
(0.000999989 -1.92868e-07 0)
(0.000999987 -2.19298e-07 0)
(0.000999984 -2.69091e-07 0)
(0.000999982 -2.97024e-07 0)
(0.000999978 -3.73629e-07 0)
(0.000999977 -3.92736e-07 0)
(0.00099997 -5.17384e-07 0)
(0.001 -3.38277e-09 0)
(0.001 -1.02887e-08 0)
(0.000999999 -1.74029e-08 0)
(0.000999998 -2.50648e-08 0)
(0.000999997 -3.32108e-08 0)
(0.000999996 -4.24832e-08 0)
(0.000999994 -5.25041e-08 0)
(0.000999992 -6.45639e-08 0)
(0.000999989 -7.74665e-08 0)
(0.000999986 -9.39455e-08 0)
(0.000999983 -1.10747e-07 0)
(0.000999978 -1.33909e-07 0)
(0.000999973 -1.55406e-07 0)
(0.000999967 -1.88755e-07 0)
(0.000999961 -2.14762e-07 0)
(0.000999952 -2.64265e-07 0)
(0.000999946 -2.91801e-07 0)
(0.000999934 -3.68339e-07 0)
(0.00099993 -3.87163e-07 0)
(0.000999911 -5.12357e-07 0)
(0.001 -3.20046e-09 0)
(0.001 -9.79796e-09 0)
(0.000999999 -1.66199e-08 0)
(0.000999997 -2.40081e-08 0)
(0.000999996 -3.18473e-08 0)
(0.000999993 -4.07058e-08 0)
(0.000999991 -5.01628e-08 0)
(0.000999987 -6.14761e-08 0)
(0.000999983 -7.34398e-08 0)
(0.000999977 -8.88018e-08 0)
(0.000999971 -1.04336e-07 0)
(0.000999964 -1.26012e-07 0)
(0.000999956 -1.45954e-07 0)
(0.000999945 -1.7753e-07 0)
(0.000999936 -2.01821e-07 0)
(0.000999921 -2.49339e-07 0)
(0.000999911 -2.75297e-07 0)
(0.000999889 -3.49844e-07 0)
(0.000999882 -3.67641e-07 0)
(0.000999852 -4.90756e-07 0)
(0.001 -2.90075e-09 0)
(0.000999999 -8.91564e-09 0)
(0.000999998 -1.52236e-08 0)
(0.000999996 -2.22797e-08 0)
(0.000999994 -2.9984e-08 0)
(0.000999991 -3.89685e-08 0)
(0.000999987 -4.87138e-08 0)
(0.000999982 -6.04619e-08 0)
(0.000999977 -7.28544e-08 0)
(0.000999969 -8.86254e-08 0)
(0.000999962 -1.04491e-07 0)
(0.000999951 -1.26381e-07 0)
(0.000999941 -1.46349e-07 0)
(0.000999925 -1.77884e-07 0)
(0.000999913 -2.01882e-07 0)
(0.000999891 -2.49231e-07 0)
(0.000999878 -2.74722e-07 0)
(0.000999847 -3.49501e-07 0)
(0.000999839 -3.6717e-07 0)
(0.000999792 -4.91997e-07 0)
(0.001 -2.57447e-09 0)
(0.000999999 -7.57109e-09 0)
(0.000999997 -1.22624e-08 0)
(0.000999995 -1.70107e-08 0)
(0.000999991 -2.17567e-08 0)
(0.000999987 -2.73041e-08 0)
(0.000999982 -3.31991e-08 0)
(0.000999975 -4.08398e-08 0)
(0.000999968 -4.89063e-08 0)
(0.000999959 -6.0103e-08 0)
(0.000999949 -7.12686e-08 0)
(0.000999935 -8.82537e-08 0)
(0.000999922 -1.03234e-07 0)
(0.000999903 -1.29525e-07 0)
(0.000999886 -1.48422e-07 0)
(0.000999859 -1.90361e-07 0)
(0.000999841 -2.11068e-07 0)
(0.000999802 -2.80536e-07 0)
(0.000999787 -2.94543e-07 0)
(0.000999731 -4.14911e-07 0)
(0.001 -2.92461e-09 0)
(0.001 -9.25469e-09 0)
(0.000999999 -1.63267e-08 0)
(0.000999997 -2.43771e-08 0)
(0.000999994 -3.3066e-08 0)
(0.00099999 -4.27707e-08 0)
(0.000999984 -5.28597e-08 0)
(0.000999977 -6.45236e-08 0)
(0.000999969 -7.64727e-08 0)
(0.000999958 -9.121e-08 0)
(0.000999946 -1.0558e-07 0)
(0.00099993 -1.25377e-07 0)
(0.000999915 -1.42739e-07 0)
(0.000999891 -1.70937e-07 0)
(0.000999872 -1.91253e-07 0)
(0.000999837 -2.34331e-07 0)
(0.000999817 -2.55793e-07 0)
(0.000999764 -3.26487e-07 0)
(0.000999752 -3.41463e-07 0)
(0.00099967 -4.64193e-07 0)
(0.001 -1.90268e-10 0)
(0.000999998 -7.62482e-11 0)
(0.000999995 5.77544e-10 0)
(0.000999991 1.29579e-09 0)
(0.000999986 1.95271e-09 0)
(0.00099998 1.92767e-09 0)
(0.000999973 1.48168e-09 0)
(0.000999965 -3.20331e-10 0)
(0.000999955 -2.41012e-09 0)
(0.000999943 -7.08394e-09 0)
(0.00099993 -1.12154e-08 0)
(0.000999912 -2.04725e-08 0)
(0.000999894 -2.71912e-08 0)
(0.000999867 -4.42971e-08 0)
(0.000999845 -5.35835e-08 0)
(0.000999805 -8.5004e-08 0)
(0.000999779 -9.551e-08 0)
(0.00099972 -1.54654e-07 0)
(0.000999698 -1.6093e-07 0)
(0.000999611 -2.75751e-07 0)
(0.001 -3.96923e-09 0)
(0.001 -1.30403e-08 0)
(0.001 -2.30886e-08 0)
(0.000999998 -3.36983e-08 0)
(0.000999995 -4.42566e-08 0)
(0.000999989 -5.49718e-08 0)
(0.000999983 -6.57847e-08 0)
(0.000999973 -7.73498e-08 0)
(0.000999963 -8.88576e-08 0)
(0.00099995 -1.02532e-07 0)
(0.000999936 -1.15273e-07 0)
(0.000999915 -1.32422e-07 0)
(0.000999896 -1.46539e-07 0)
(0.000999864 -1.70051e-07 0)
(0.000999841 -1.85177e-07 0)
(0.000999791 -2.21153e-07 0)
(0.000999767 -2.35718e-07 0)
(0.000999687 -2.97558e-07 0)
(0.000999671 -3.06203e-07 0)
(0.000999539 -4.22057e-07 0)
(0.001 4.01672e-09 0)
(0.000999996 1.21014e-08 0)
(0.000999991 2.02046e-08 0)
(0.000999987 2.79185e-08 0)
(0.000999982 3.51884e-08 0)
(0.000999976 4.15837e-08 0)
(0.000999969 4.79023e-08 0)
(0.000999959 5.30493e-08 0)
(0.000999948 5.84861e-08 0)
(0.000999934 6.23241e-08 0)
(0.000999919 6.69348e-08 0)
(0.000999897 6.85549e-08 0)
(0.000999878 7.26692e-08 0)
(0.000999845 6.98763e-08 0)
(0.000999819 7.40237e-08 0)
(0.000999767 6.17041e-08 0)
(0.000999738 6.71817e-08 0)
(0.000999654 3.18364e-08 0)
(0.000999629 3.99139e-08 0)
(0.000999495 -5.4449e-08 0)
(0.001 -8.71785e-09 0)
(0.001 -2.37739e-08 0)
(0.001 -3.60367e-08 0)
(0.000999997 -4.67548e-08 0)
(0.000999993 -5.6873e-08 0)
(0.000999986 -6.7514e-08 0)
(0.000999979 -7.77943e-08 0)
(0.000999968 -8.919e-08 0)
(0.000999958 -9.98942e-08 0)
(0.000999942 -1.11921e-07 0)
(0.000999928 -1.22703e-07 0)
(0.000999903 -1.36221e-07 0)
(0.000999886 -1.46591e-07 0)
(0.000999846 -1.63411e-07 0)
(0.000999826 -1.72246e-07 0)
(0.00099976 -1.96376e-07 0)
(0.000999742 -2.00874e-07 0)
(0.000999623 -2.43109e-07 0)
(0.000999618 -2.39236e-07 0)
(0.000999394 -3.31955e-07 0)
)
;

boundaryField
{
    sides
    {
        type            slip;
    }
    inlet
    {
        type            fixedValue;
        value           uniform (0.001 0 0);
    }
    outlet
    {
        type            zeroGradient;
    }
    frontAndBack
    {
        type            empty;
    }
}


// ************************************************************************* //
