/*--------------------------------*- C++ -*----------------------------------*\
  =========                 |
  \\      /  F ield         | OpenFOAM: The Open Source CFD Toolbox
   \\    /   O peration     | Website:  https://openfoam.org
    \\  /    A nd           | Version:  7
     \\/     M anipulation  |
\*---------------------------------------------------------------------------*/
FoamFile
{
    version     2.0;
    format      ascii;
    class       surfaceScalarField;
    location    "91";
    object      phi;
}
// * * * * * * * * * * * * * * * * * * * * * * * * * * * * * * * * * * * * * //

dimensions      [0 4 -1 0 0 0 0];

internalField   nonuniform List<scalar> 
760
(
4.99999e-06
9.91792e-12
4.99999e-06
-4.35772e-12
5.00001e-06
-1.28356e-11
5.00003e-06
-1.95713e-11
5.00005e-06
-2.65542e-11
5.00009e-06
-3.39488e-11
5.00013e-06
-4.75489e-11
5.00018e-06
-6.3763e-11
5.00025e-06
-6.31687e-11
5.00032e-06
-7.82754e-11
5.00041e-06
-9.01443e-11
5.00053e-06
-1.13966e-10
5.00066e-06
-1.26866e-10
5.00082e-06
-1.67833e-10
5.001e-06
-1.78122e-10
5.00126e-06
-2.56971e-10
5.00151e-06
-2.56271e-10
5.00195e-06
-4.31776e-10
5.00236e-06
-4.14097e-10
-8.91528e-10
5.00002e-06
-1.18914e-11
5.00004e-06
-1.90472e-11
5.00005e-06
-2.92684e-11
5.00008e-06
-4.17608e-11
5.0001e-06
-5.45474e-11
5.00014e-06
-6.89405e-11
5.00018e-06
-8.51554e-11
5.00023e-06
-1.04155e-10
5.00029e-06
-1.23629e-10
5.00037e-06
-1.53274e-10
5.00045e-06
-1.77045e-10
5.00056e-06
-2.22035e-10
5.00069e-06
-2.50298e-10
5.00084e-06
-3.24184e-10
5.00102e-06
-3.54048e-10
5.00125e-06
-4.86305e-10
5.0015e-06
-5.09388e-10
5.00184e-06
-7.67992e-10
5.00218e-06
-7.59892e-10
-1.26191e-09
4.99999e-06
-4.67286e-12
4.99999e-06
-2.04342e-11
5e-06
-3.77037e-11
5.00002e-06
-5.66913e-11
5.00004e-06
-7.66265e-11
5.00007e-06
-9.92035e-11
5.00011e-06
-1.2287e-10
5.00016e-06
-1.52088e-10
5.00021e-06
-1.82541e-10
5.00029e-06
-2.2373e-10
5.00037e-06
-2.62225e-10
5.00047e-06
-3.2324e-10
5.00059e-06
-3.71944e-10
5.00074e-06
-4.67617e-10
5.00091e-06
-5.25919e-10
5.00111e-06
-6.86997e-10
5.00135e-06
-7.48111e-10
5.00162e-06
-1.04129e-09
5.00194e-06
-1.08321e-09
-1.68941e-09
5.00001e-06
-1.26148e-11
5.00002e-06
-3.3405e-11
5.00004e-06
-5.45015e-11
5.00006e-06
-7.77382e-11
5.00008e-06
-1.01991e-10
5.00012e-06
-1.30697e-10
5.00015e-06
-1.60101e-10
5.0002e-06
-1.97919e-10
5.00025e-06
-2.36181e-10
5.00032e-06
-2.88617e-10
5.00039e-06
-3.38252e-10
5.00048e-06
-4.15253e-10
5.00059e-06
-4.78384e-10
5.00072e-06
-5.96561e-10
5.00087e-06
-6.72981e-10
5.00105e-06
-8.65302e-10
5.00124e-06
-9.47095e-10
5.00148e-06
-1.28017e-09
5.00173e-06
-1.3315e-09
-1.89789e-09
5e-06
-1.16304e-11
5e-06
-3.65404e-11
5.00001e-06
-6.22089e-11
5.00002e-06
-9.03494e-11
5.00004e-06
-1.201e-10
5.00006e-06
-1.54711e-10
5.0001e-06
-1.91387e-10
5.00013e-06
-2.365e-10
5.00018e-06
-2.83473e-10
5.00024e-06
-3.45346e-10
5.00031e-06
-4.06696e-10
5.00039e-06
-4.95611e-10
5.00048e-06
-5.74194e-10
5.00059e-06
-7.07361e-10
5.00072e-06
-8.03645e-10
5.00087e-06
-1.01276e-09
5.00104e-06
-1.11668e-09
5.00122e-06
-1.46179e-09
5.00142e-06
-1.53293e-09
-2.16269e-09
5e-06
-1.3911e-11
5.00001e-06
-4.32471e-11
5.00002e-06
-7.30593e-11
5.00003e-06
-1.05196e-10
5.00005e-06
-1.39164e-10
5.00008e-06
-1.78134e-10
5.00011e-06
-2.19989e-10
5.00014e-06
-2.70985e-10
5.00018e-06
-3.24483e-10
5.00023e-06
-3.94543e-10
5.00029e-06
-4.64231e-10
5.00036e-06
-5.63796e-10
5.00043e-06
-6.53076e-10
5.00053e-06
-8.00087e-10
5.00063e-06
-9.08798e-10
5.00075e-06
-1.13465e-09
5.00089e-06
-1.25136e-09
5.00104e-06
-1.61611e-09
5.00121e-06
-1.69734e-09
-2.29333e-09
5e-06
-1.57462e-11
5.00001e-06
-4.77194e-11
5.00001e-06
-8.03736e-11
5.00002e-06
-1.15157e-10
5.00004e-06
-1.52421e-10
5.00005e-06
-1.95172e-10
5.00008e-06
-2.41442e-10
5.0001e-06
-2.97242e-10
5.00013e-06
-3.5655e-10
5.00017e-06
-4.32758e-10
5.00022e-06
-5.09647e-10
5.00027e-06
-6.17097e-10
5.00033e-06
-7.1567e-10
5.00041e-06
-8.7211e-10
5.00049e-06
-9.91878e-10
5.00058e-06
-1.22796e-09
5.00069e-06
-1.35582e-09
5.0008e-06
-1.72677e-09
5.00091e-06
-1.81221e-09
-2.44188e-09
5e-06
-1.68281e-11
5e-06
-5.07794e-11
5.00001e-06
-8.54009e-11
5.00002e-06
-1.22692e-10
5.00003e-06
-1.62491e-10
5.00004e-06
-2.08213e-10
5.00006e-06
-2.57634e-10
5.00008e-06
-3.17088e-10
5.0001e-06
-3.80415e-10
5.00013e-06
-4.61079e-10
5.00016e-06
-5.43042e-10
5.0002e-06
-6.56333e-10
5.00025e-06
-7.6099e-10
5.0003e-06
-9.24434e-10
5.00036e-06
-1.05112e-09
5.00042e-06
-1.29475e-09
5.0005e-06
-1.42892e-09
5.00058e-06
-1.80752e-09
5.00067e-06
-1.90047e-09
-2.51595e-09
5e-06
-1.73859e-11
5e-06
-5.26492e-11
5.00001e-06
-8.85476e-11
5.00001e-06
-1.27449e-10
5.00002e-06
-1.68844e-10
5.00002e-06
-2.16288e-10
5.00003e-06
-2.67499e-10
5.00005e-06
-3.2908e-10
5.00006e-06
-3.94741e-10
5.00008e-06
-4.78091e-10
5.0001e-06
-5.63157e-10
5.00012e-06
-6.7983e-10
5.00015e-06
-7.88165e-10
5.00018e-06
-9.55701e-10
5.00022e-06
-1.08662e-09
5.00026e-06
-1.33449e-09
5.0003e-06
-1.47269e-09
5.00035e-06
-1.85465e-09
5.00039e-06
-1.94785e-09
-2.57192e-09
5e-06
-1.75529e-11
5e-06
-5.32162e-11
5e-06
-8.96484e-11
5e-06
-1.29081e-10
5.00001e-06
-1.71078e-10
5.00001e-06
-2.19048e-10
5.00001e-06
-2.70869e-10
5.00002e-06
-3.33106e-10
5.00002e-06
-3.99527e-10
5.00003e-06
-4.83815e-10
5.00003e-06
-5.69889e-10
5.00004e-06
-6.87687e-10
5.00005e-06
-7.97355e-10
5.00006e-06
-9.66195e-10
5.00007e-06
-1.0985e-09
5.00009e-06
-1.34765e-09
5.0001e-06
-1.48719e-09
5.00012e-06
-1.86996e-09
5.00013e-06
-1.96503e-09
-2.58819e-09
5e-06
-1.73388e-11
5e-06
-5.25239e-11
5e-06
-8.85842e-11
5e-06
-1.27488e-10
4.99999e-06
-1.69023e-10
4.99999e-06
-2.16394e-10
4.99999e-06
-2.6763e-10
4.99998e-06
-3.29129e-10
4.99998e-06
-3.94723e-10
4.99997e-06
-4.78173e-10
4.99997e-06
-5.63173e-10
4.99996e-06
-6.79858e-10
4.99995e-06
-7.88337e-10
4.99994e-06
-9.55831e-10
4.99993e-06
-1.08659e-09
4.99991e-06
-1.33436e-09
4.9999e-06
-1.47259e-09
4.99988e-06
-1.85461e-09
4.99987e-06
-1.94786e-09
-2.57181e-09
5e-06
-1.67255e-11
5e-06
-5.0745e-11
4.99999e-06
-8.54262e-11
4.99999e-06
-1.22758e-10
4.99998e-06
-1.62631e-10
4.99998e-06
-2.08306e-10
4.99997e-06
-2.57686e-10
4.99995e-06
-3.1711e-10
4.99994e-06
-3.80295e-10
4.99992e-06
-4.61076e-10
4.9999e-06
-5.43077e-10
4.99988e-06
-6.56317e-10
4.99985e-06
-7.61067e-10
4.99982e-06
-9.24559e-10
4.99978e-06
-1.05117e-09
4.99974e-06
-1.2946e-09
4.9997e-06
-1.42876e-09
4.99965e-06
-1.8074e-09
4.99961e-06
-1.90044e-09
-2.51579e-09
5e-06
-1.57086e-11
5e-06
-4.77676e-11
4.99999e-06
-8.03459e-11
4.99998e-06
-1.1525e-10
4.99997e-06
-1.52345e-10
4.99996e-06
-1.95203e-10
4.99994e-06
-2.41318e-10
4.99992e-06
-2.97219e-10
4.9999e-06
-3.56404e-10
4.99987e-06
-4.3254e-10
4.99984e-06
-5.09618e-10
4.9998e-06
-6.17071e-10
4.99975e-06
-7.1561e-10
4.9997e-06
-8.72108e-10
4.99964e-06
-9.91941e-10
4.99958e-06
-1.22786e-09
4.9995e-06
-1.35569e-09
4.99942e-06
-1.7266e-09
4.99933e-06
-1.81214e-09
-2.44157e-09
5e-06
-1.39771e-11
4.99999e-06
-4.32957e-11
4.99999e-06
-7.30644e-11
4.99998e-06
-1.05148e-10
4.99996e-06
-1.38983e-10
4.99995e-06
-1.78169e-10
4.99992e-06
-2.19907e-10
4.9999e-06
-2.70964e-10
4.99987e-06
-3.24598e-10
4.99983e-06
-3.94353e-10
4.99978e-06
-4.64048e-10
4.99973e-06
-5.63689e-10
4.99967e-06
-6.52957e-10
4.99959e-06
-7.99969e-10
4.99951e-06
-9.08792e-10
4.99942e-06
-1.13459e-09
4.99931e-06
-1.2513e-09
4.9992e-06
-1.61587e-09
4.99909e-06
-1.69712e-09
-2.29292e-09
5e-06
-1.17609e-11
4.99999e-06
-3.65648e-11
4.99998e-06
-6.21879e-11
4.99997e-06
-9.01789e-11
4.99995e-06
-1.20172e-10
4.99992e-06
-1.54623e-10
4.99989e-06
-1.91501e-10
4.99986e-06
-2.3641e-10
4.99982e-06
-2.83735e-10
4.99977e-06
-3.45538e-10
4.99971e-06
-4.0664e-10
4.99964e-06
-4.95488e-10
4.99957e-06
-5.74088e-10
4.99947e-06
-7.07202e-10
4.99937e-06
-8.03592e-10
4.99925e-06
-1.01272e-09
4.99911e-06
-1.1167e-09
4.99896e-06
-1.46152e-09
4.99879e-06
-1.53268e-09
-2.1622e-09
5e-06
-1.27409e-11
5e-06
-3.34113e-11
4.99999e-06
-5.44629e-11
4.99998e-06
-7.76727e-11
4.99996e-06
-1.02175e-10
4.99994e-06
-1.30317e-10
4.9999e-06
-1.60575e-10
4.99987e-06
-1.97856e-10
4.99982e-06
-2.3625e-10
4.99976e-06
-2.88927e-10
4.99969e-06
-3.38413e-10
4.99961e-06
-4.15225e-10
4.99952e-06
-4.78323e-10
4.99941e-06
-5.96389e-10
4.99928e-06
-6.72873e-10
4.99913e-06
-8.65179e-10
4.99896e-06
-9.47078e-10
4.99878e-06
-1.27987e-09
4.99858e-06
-1.33123e-09
-1.89733e-09
4.99999e-06
-4.67458e-12
4.99998e-06
-2.04275e-11
4.99996e-06
-3.77342e-11
4.99994e-06
-5.68334e-11
4.99992e-06
-7.65657e-11
4.99988e-06
-9.91532e-11
4.99985e-06
-1.23198e-10
4.9998e-06
-1.52507e-10
4.99975e-06
-1.82384e-10
4.99968e-06
-2.2388e-10
4.99961e-06
-2.62462e-10
4.99952e-06
-3.23365e-10
4.99941e-06
-3.7203e-10
4.99928e-06
-4.6757e-10
4.99913e-06
-5.25883e-10
4.99896e-06
-6.8687e-10
4.99876e-06
-7.4812e-10
4.99852e-06
-1.0411e-09
4.99827e-06
-1.08312e-09
-1.68902e-09
5.00001e-06
-1.16796e-11
5.00001e-06
-1.90305e-11
5e-06
-2.93955e-11
4.99998e-06
-4.19686e-11
4.99996e-06
-5.41912e-11
4.99993e-06
-6.94363e-11
4.99989e-06
-8.35332e-11
4.99984e-06
-1.05205e-10
4.99978e-06
-1.23505e-10
4.99971e-06
-1.53015e-10
4.99963e-06
-1.7705e-10
4.99953e-06
-2.22105e-10
4.99941e-06
-2.50422e-10
4.99926e-06
-3.24181e-10
4.99909e-06
-3.54046e-10
4.99889e-06
-4.86111e-10
4.99865e-06
-5.09358e-10
4.99838e-06
-7.67763e-10
4.99805e-06
-7.59831e-10
-1.26145e-09
4.99998e-06
1.01137e-11
4.99996e-06
-4.40821e-12
4.99995e-06
-1.29403e-11
4.99992e-06
-1.94863e-11
4.9999e-06
-2.67403e-11
4.99986e-06
-3.74865e-11
4.99982e-06
-3.37386e-11
4.99977e-06
-5.0057e-11
4.99971e-06
-6.25492e-11
4.99963e-06
-7.79519e-11
4.99955e-06
-9.0065e-11
4.99944e-06
-1.14068e-10
4.99932e-06
-1.27065e-10
4.99916e-06
-1.67981e-10
4.99898e-06
-1.78235e-10
4.99875e-06
-2.56969e-10
4.9985e-06
-2.56334e-10
4.99817e-06
-4.31794e-10
4.99782e-06
-4.14204e-10
-8.91551e-10
5.00001e-06
5.00001e-06
4.99999e-06
4.99997e-06
4.99995e-06
4.99991e-06
4.99987e-06
4.99982e-06
4.99975e-06
4.99968e-06
4.99959e-06
4.99947e-06
4.99934e-06
4.99918e-06
4.999e-06
4.99874e-06
4.99848e-06
4.99805e-06
4.99764e-06
)
;

boundaryField
{
    sides
    {
        type            calculated;
        value           uniform 0;
    }
    inlet
    {
        type            calculated;
        value           nonuniform List<scalar> 
20
(
-5e-06
-5e-06
-5e-06
-5e-06
-5e-06
-5e-06
-5e-06
-5e-06
-5e-06
-5e-06
-5e-06
-5e-06
-5e-06
-5e-06
-5e-06
-5e-06
-5e-06
-5e-06
-5e-06
-5e-06
)
;
    }
    outlet
    {
        type            calculated;
        value           nonuniform List<scalar> 
20
(
5.00325e-06
5.00255e-06
5.00237e-06
5.00194e-06
5.00169e-06
5.00134e-06
5.00106e-06
5.00074e-06
5.00045e-06
5.00015e-06
4.99985e-06
4.99955e-06
4.99926e-06
4.99894e-06
4.99866e-06
4.99831e-06
4.99806e-06
4.99763e-06
4.99745e-06
4.99675e-06
)
;
    }
    frontAndBack
    {
        type            empty;
        value           nonuniform 0();
    }
}


// ************************************************************************* //
