/*--------------------------------*- C++ -*----------------------------------*\
  =========                 |
  \\      /  F ield         | OpenFOAM: The Open Source CFD Toolbox
   \\    /   O peration     | Website:  https://openfoam.org
    \\  /    A nd           | Version:  7
     \\/     M anipulation  |
\*---------------------------------------------------------------------------*/
FoamFile
{
    version     2.0;
    format      ascii;
    class       surfaceScalarField;
    location    "91";
    object      phi_0;
}
// * * * * * * * * * * * * * * * * * * * * * * * * * * * * * * * * * * * * * //

dimensions      [0 4 -1 0 0 0 0];

internalField   nonuniform List<scalar> 
760
(
4.99999e-06
9.90365e-12
4.99999e-06
-4.36898e-12
5.00001e-06
-1.27861e-11
5.00003e-06
-1.94944e-11
5.00005e-06
-2.67741e-11
5.00009e-06
-3.30875e-11
5.00013e-06
-3.8512e-11
5.00018e-06
-4.51999e-11
5.00025e-06
-6.2484e-11
5.00032e-06
-7.81708e-11
5.00041e-06
-9.00315e-11
5.00053e-06
-1.13917e-10
5.00066e-06
-1.26866e-10
5.00082e-06
-1.6785e-10
5.001e-06
-1.78133e-10
5.00126e-06
-2.56969e-10
5.00151e-06
-2.56265e-10
5.00195e-06
-4.31777e-10
5.00236e-06
-4.14093e-10
-8.91526e-10
5.00002e-06
-1.18618e-11
5.00004e-06
-1.90497e-11
5.00005e-06
-2.92666e-11
5.00007e-06
-4.16932e-11
5.0001e-06
-5.44423e-11
5.00014e-06
-6.93411e-11
5.00018e-06
-8.44335e-11
5.00023e-06
-1.04014e-10
5.00029e-06
-1.23813e-10
5.00037e-06
-1.53168e-10
5.00045e-06
-1.76958e-10
5.00056e-06
-2.22029e-10
5.00069e-06
-2.50326e-10
5.00084e-06
-3.24205e-10
5.00102e-06
-3.54054e-10
5.00125e-06
-4.86298e-10
5.0015e-06
-5.09377e-10
5.00184e-06
-7.67986e-10
5.00218e-06
-7.59877e-10
-1.2619e-09
4.99999e-06
-4.63842e-12
4.99999e-06
-2.04269e-11
5e-06
-3.77128e-11
5.00002e-06
-5.67515e-11
5.00004e-06
-7.65021e-11
5.00007e-06
-9.94325e-11
5.00011e-06
-1.22359e-10
5.00016e-06
-1.52545e-10
5.00021e-06
-1.82487e-10
5.00029e-06
-2.23643e-10
5.00037e-06
-2.62261e-10
5.00047e-06
-3.23307e-10
5.00059e-06
-3.71996e-10
5.00074e-06
-4.67637e-10
5.00091e-06
-5.25918e-10
5.00111e-06
-6.86989e-10
5.00135e-06
-7.48092e-10
5.00162e-06
-1.04126e-09
5.00194e-06
-1.08318e-09
-1.6894e-09
5.00001e-06
-1.26002e-11
5.00002e-06
-3.33981e-11
5.00004e-06
-5.45013e-11
5.00006e-06
-7.7822e-11
5.00008e-06
-1.01982e-10
5.00012e-06
-1.30624e-10
5.00015e-06
-1.60217e-10
5.0002e-06
-1.97984e-10
5.00025e-06
-2.36059e-10
5.00032e-06
-2.88644e-10
5.00039e-06
-3.38372e-10
5.00048e-06
-4.15326e-10
5.00059e-06
-4.78419e-10
5.00072e-06
-5.96568e-10
5.00087e-06
-6.72973e-10
5.00105e-06
-8.65297e-10
5.00124e-06
-9.47074e-10
5.00148e-06
-1.28013e-09
5.00173e-06
-1.33147e-09
-1.89788e-09
5e-06
-1.16583e-11
5e-06
-3.65514e-11
5.00001e-06
-6.22099e-11
5.00002e-06
-9.0322e-11
5.00004e-06
-1.20189e-10
5.00006e-06
-1.5455e-10
5.0001e-06
-1.91453e-10
5.00013e-06
-2.36432e-10
5.00018e-06
-2.83423e-10
5.00024e-06
-3.45492e-10
5.00031e-06
-4.06792e-10
5.00039e-06
-4.95627e-10
5.00048e-06
-5.74196e-10
5.00059e-06
-7.07354e-10
5.00072e-06
-8.03632e-10
5.00087e-06
-1.01275e-09
5.00104e-06
-1.11667e-09
5.00122e-06
-1.46176e-09
5.00142e-06
-1.53291e-09
-2.16268e-09
5e-06
-1.39582e-11
5.00001e-06
-4.32654e-11
5.00002e-06
-7.30728e-11
5.00003e-06
-1.05097e-10
5.00005e-06
-1.39157e-10
5.00008e-06
-1.78073e-10
5.00011e-06
-2.20019e-10
5.00014e-06
-2.70899e-10
5.00018e-06
-3.24588e-10
5.00023e-06
-3.94623e-10
5.00029e-06
-4.64196e-10
5.00036e-06
-5.63785e-10
5.00043e-06
-6.53079e-10
5.00053e-06
-8.00077e-10
5.00063e-06
-9.08793e-10
5.00075e-06
-1.13464e-09
5.00089e-06
-1.25134e-09
5.00104e-06
-1.6161e-09
5.00121e-06
-1.69732e-09
-2.29333e-09
5e-06
-1.57613e-11
5.00001e-06
-4.77175e-11
5.00001e-06
-8.03584e-11
5.00002e-06
-1.15138e-10
5.00004e-06
-1.52327e-10
5.00005e-06
-1.95157e-10
5.00008e-06
-2.41402e-10
5.0001e-06
-2.97216e-10
5.00013e-06
-3.56594e-10
5.00017e-06
-4.32682e-10
5.00022e-06
-5.09588e-10
5.00027e-06
-6.1712e-10
5.00033e-06
-7.15682e-10
5.00041e-06
-8.72109e-10
5.00049e-06
-9.91894e-10
5.00058e-06
-1.22796e-09
5.00069e-06
-1.3558e-09
5.0008e-06
-1.72676e-09
5.00091e-06
-1.81218e-09
-2.44187e-09
5e-06
-1.67841e-11
5e-06
-5.07745e-11
5.00001e-06
-8.53744e-11
5.00002e-06
-1.22721e-10
5.00003e-06
-1.62471e-10
5.00004e-06
-2.08231e-10
5.00006e-06
-2.57592e-10
5.00008e-06
-3.17099e-10
5.0001e-06
-3.80369e-10
5.00013e-06
-4.61015e-10
5.00016e-06
-5.43038e-10
5.0002e-06
-6.56329e-10
5.00025e-06
-7.61007e-10
5.0003e-06
-9.24487e-10
5.00036e-06
-1.05116e-09
5.00042e-06
-1.29475e-09
5.0005e-06
-1.4289e-09
5.00058e-06
-1.80749e-09
5.00067e-06
-1.9004e-09
-2.51591e-09
5e-06
-1.73436e-11
5e-06
-5.26256e-11
5.00001e-06
-8.85528e-11
5.00001e-06
-1.27462e-10
5.00002e-06
-1.68872e-10
5.00002e-06
-2.16301e-10
5.00003e-06
-2.67476e-10
5.00005e-06
-3.29087e-10
5.00006e-06
-3.94674e-10
5.00008e-06
-4.78079e-10
5.0001e-06
-5.63157e-10
5.00012e-06
-6.79796e-10
5.00015e-06
-7.88223e-10
5.00018e-06
-9.55807e-10
5.00022e-06
-1.08665e-09
5.00026e-06
-1.33445e-09
5.0003e-06
-1.47265e-09
5.00035e-06
-1.85461e-09
5.00039e-06
-1.94778e-09
-2.57188e-09
5e-06
-1.75658e-11
5e-06
-5.32193e-11
5e-06
-8.96417e-11
5e-06
-1.29056e-10
5.00001e-06
-1.71051e-10
5.00001e-06
-2.19013e-10
5.00001e-06
-2.70825e-10
5.00002e-06
-3.33074e-10
5.00002e-06
-3.99488e-10
5.00003e-06
-4.83811e-10
5.00003e-06
-5.69903e-10
5.00004e-06
-6.87698e-10
5.00005e-06
-7.9739e-10
5.00006e-06
-9.66234e-10
5.00007e-06
-1.09851e-09
5.00009e-06
-1.34762e-09
5.0001e-06
-1.48715e-09
5.00012e-06
-1.86992e-09
5.00013e-06
-1.96498e-09
-2.58816e-09
5e-06
-1.73935e-11
5e-06
-5.25582e-11
5e-06
-8.85564e-11
5e-06
-1.27445e-10
4.99999e-06
-1.68938e-10
4.99999e-06
-2.16322e-10
4.99999e-06
-2.67567e-10
4.99998e-06
-3.29058e-10
4.99998e-06
-3.94727e-10
4.99997e-06
-4.78162e-10
4.99997e-06
-5.63201e-10
4.99996e-06
-6.79928e-10
4.99995e-06
-7.88326e-10
4.99994e-06
-9.5577e-10
4.99993e-06
-1.08659e-09
4.99991e-06
-1.33438e-09
4.9999e-06
-1.47256e-09
4.99988e-06
-1.85456e-09
4.99987e-06
-1.94783e-09
-2.5718e-09
5e-06
-1.67678e-11
5e-06
-5.07434e-11
4.99999e-06
-8.54352e-11
4.99999e-06
-1.22723e-10
4.99998e-06
-1.62593e-10
4.99998e-06
-2.08241e-10
4.99997e-06
-2.57658e-10
4.99995e-06
-3.17031e-10
4.99994e-06
-3.80318e-10
4.99992e-06
-4.61099e-10
4.9999e-06
-5.43092e-10
4.99988e-06
-6.56385e-10
4.99985e-06
-7.61091e-10
4.99982e-06
-9.2452e-10
4.99978e-06
-1.05115e-09
4.99974e-06
-1.29461e-09
4.9997e-06
-1.42874e-09
4.99965e-06
-1.80737e-09
4.99961e-06
-1.90042e-09
-2.51579e-09
5e-06
-1.56737e-11
5e-06
-4.77532e-11
4.99999e-06
-8.03808e-11
4.99998e-06
-1.15235e-10
4.99997e-06
-1.52409e-10
4.99996e-06
-1.95159e-10
4.99994e-06
-2.41338e-10
4.99992e-06
-2.97175e-10
4.9999e-06
-3.56379e-10
4.99987e-06
-4.32622e-10
4.99984e-06
-5.09665e-10
4.9998e-06
-6.17093e-10
4.99975e-06
-7.15656e-10
4.9997e-06
-8.72136e-10
4.99964e-06
-9.91937e-10
4.99958e-06
-1.22786e-09
4.9995e-06
-1.35569e-09
4.99942e-06
-1.72659e-09
4.99933e-06
-1.81211e-09
-2.44156e-09
5e-06
-1.39048e-11
4.99999e-06
-4.32771e-11
4.99999e-06
-7.30556e-11
4.99998e-06
-1.0521e-10
4.99996e-06
-1.39014e-10
4.99995e-06
-1.78148e-10
4.99992e-06
-2.1988e-10
4.9999e-06
-2.70994e-10
4.99987e-06
-3.24458e-10
4.99983e-06
-3.94339e-10
4.99978e-06
-4.64124e-10
4.99973e-06
-5.63732e-10
4.99967e-06
-6.53013e-10
4.99959e-06
-8.00021e-10
4.99951e-06
-9.08798e-10
4.99942e-06
-1.13457e-09
4.99931e-06
-1.25128e-09
4.9992e-06
-1.61585e-09
4.99909e-06
-1.69709e-09
-2.2929e-09
5e-06
-1.17261e-11
4.99999e-06
-3.65565e-11
4.99998e-06
-6.21664e-11
4.99997e-06
-9.02183e-11
4.99995e-06
-1.20061e-10
4.99992e-06
-1.54736e-10
4.99989e-06
-1.9141e-10
4.99986e-06
-2.36521e-10
4.99982e-06
-2.83697e-10
4.99977e-06
-3.45379e-10
4.99971e-06
-4.06605e-10
4.99964e-06
-4.95519e-10
4.99957e-06
-5.7414e-10
4.99947e-06
-7.07252e-10
4.99937e-06
-8.03608e-10
4.99925e-06
-1.0127e-09
4.99911e-06
-1.11667e-09
4.99896e-06
-1.4615e-09
4.99879e-06
-1.53265e-09
-2.16218e-09
5e-06
-1.27884e-11
5e-06
-3.34204e-11
4.99999e-06
-5.44357e-11
4.99998e-06
-7.7615e-11
4.99996e-06
-1.02105e-10
4.99994e-06
-1.30489e-10
4.9999e-06
-1.60342e-10
4.99987e-06
-1.97893e-10
4.99982e-06
-2.36377e-10
4.99976e-06
-2.88855e-10
4.99969e-06
-3.38307e-10
4.99961e-06
-4.15196e-10
4.99952e-06
-4.78341e-10
4.99941e-06
-5.96423e-10
4.99928e-06
-6.72894e-10
4.99913e-06
-8.6516e-10
4.99896e-06
-9.47043e-10
4.99878e-06
-1.27985e-09
4.99858e-06
-1.33121e-09
-1.89732e-09
4.99999e-06
-4.7423e-12
4.99998e-06
-2.0432e-11
4.99996e-06
-3.77168e-11
4.99994e-06
-5.67611e-11
4.99992e-06
-7.66752e-11
4.99988e-06
-9.89688e-11
4.99985e-06
-1.23362e-10
4.9998e-06
-1.52168e-10
4.99975e-06
-1.8258e-10
4.99968e-06
-2.23958e-10
4.99961e-06
-2.62421e-10
4.99952e-06
-3.23316e-10
4.99941e-06
-3.72006e-10
4.99928e-06
-4.67576e-10
4.99913e-06
-5.25899e-10
4.99896e-06
-6.86863e-10
4.99876e-06
-7.48092e-10
4.99852e-06
-1.04107e-09
4.99827e-06
-1.0831e-09
-1.68901e-09
5.00001e-06
-1.16552e-11
5.00001e-06
-1.90192e-11
5e-06
-2.94156e-11
4.99998e-06
-4.19804e-11
4.99996e-06
-5.4347e-11
4.99993e-06
-6.90369e-11
4.99989e-06
-8.48474e-11
4.99984e-06
-1.04969e-10
4.99979e-06
-1.23401e-10
4.99971e-06
-1.53176e-10
4.99963e-06
-1.77135e-10
4.99953e-06
-2.22103e-10
4.99941e-06
-2.5039e-10
4.99926e-06
-3.24162e-10
4.99909e-06
-3.54049e-10
4.99889e-06
-4.86115e-10
4.99865e-06
-5.09344e-10
4.99838e-06
-7.67736e-10
4.99805e-06
-7.59805e-10
-1.26144e-09
4.99998e-06
1.01371e-11
4.99996e-06
-4.40139e-12
4.99995e-06
-1.30082e-11
4.99992e-06
-1.95434e-11
4.9999e-06
-2.65123e-11
4.99986e-06
-2.97342e-11
4.99982e-06
-4.33199e-11
4.99977e-06
-5.09425e-11
4.99971e-06
-6.21886e-11
4.99963e-06
-7.80237e-11
4.99955e-06
-9.01783e-11
4.99944e-06
-1.14116e-10
4.99932e-06
-1.2705e-10
4.99916e-06
-1.67955e-10
4.99898e-06
-1.78229e-10
4.99875e-06
-2.56976e-10
4.9985e-06
-2.56332e-10
4.99817e-06
-4.31776e-10
4.99782e-06
-4.14184e-10
-8.91544e-10
5.00001e-06
5.00001e-06
4.99999e-06
4.99997e-06
4.99995e-06
4.99991e-06
4.99987e-06
4.99982e-06
4.99975e-06
4.99968e-06
4.99959e-06
4.99947e-06
4.99934e-06
4.99918e-06
4.999e-06
4.99874e-06
4.99848e-06
4.99805e-06
4.99764e-06
)
;

boundaryField
{
    sides
    {
        type            calculated;
        value           uniform 0;
    }
    inlet
    {
        type            calculated;
        value           nonuniform List<scalar> 
20
(
-5e-06
-5e-06
-5e-06
-5e-06
-5e-06
-5e-06
-5e-06
-5e-06
-5e-06
-5e-06
-5e-06
-5e-06
-5e-06
-5e-06
-5e-06
-5e-06
-5e-06
-5e-06
-5e-06
-5e-06
)
;
    }
    outlet
    {
        type            calculated;
        value           nonuniform List<scalar> 
20
(
5.00325e-06
5.00255e-06
5.00237e-06
5.00194e-06
5.00169e-06
5.00134e-06
5.00106e-06
5.00074e-06
5.00045e-06
5.00015e-06
4.99985e-06
4.99955e-06
4.99926e-06
4.99894e-06
4.99866e-06
4.99831e-06
4.99806e-06
4.99763e-06
4.99745e-06
4.99675e-06
)
;
    }
    frontAndBack
    {
        type            empty;
        value           nonuniform 0();
    }
}


// ************************************************************************* //
