/*--------------------------------*- C++ -*----------------------------------*\
  =========                 |
  \\      /  F ield         | OpenFOAM: The Open Source CFD Toolbox
   \\    /   O peration     | Website:  https://openfoam.org
    \\  /    A nd           | Version:  7
     \\/     M anipulation  |
\*---------------------------------------------------------------------------*/
FoamFile
{
    version     2.0;
    format      ascii;
    class       surfaceScalarField;
    location    "100";
    object      ddtCorrDdt0(phi);
}
// * * * * * * * * * * * * * * * * * * * * * * * * * * * * * * * * * * * * * //

dimensions      [0 4 -2 0 0 0 0];

internalField   nonuniform List<scalar> 
760
(
-5.23064e-13
-1.02096e-12
-1.38952e-12
-8.58765e-14
-1.51021e-13
1.23934e-12
3.97896e-12
9.79738e-14
-9.34353e-12
-6.76648e-13
5.94835e-12
1.84787e-10
-1.94418e-14
2.62035e-10
-7.54435e-12
-3.70226e-10
-5.9835e-13
-1.28432e-11
-7.0205e-13
-8.70678e-14
-1.01826e-13
8.69514e-14
3.03184e-13
2.41999e-13
2.11665e-13
1.71393e-13
1.48637e-13
1.30813e-13
1.13304e-13
7.98091e-14
-3.0611e-14
-1.90854e-14
-2.58956e-14
-1.8738e-14
1.1732e-13
1.18786e-13
7.84014e-14
2.32993e-13
1.13502e-13
2.83183e-15
-5.66387e-13
6.65567e-13
-2.14324e-13
-9.61903e-13
6.27151e-13
1.15819e-13
1.92168e-12
3.89697e-12
-1.55011e-12
5.05953e-12
1.52978e-12
-6.54272e-12
-1.72757e-11
4.56264e-12
6.31906e-12
1.49666e-12
1.23536e-12
-2.67066e-13
-1.41318e-13
1.79143e-13
1.44732e-13
1.20996e-13
3.36933e-13
4.07734e-15
1.64993e-13
5.46636e-14
9.44405e-14
4.84554e-14
3.21387e-14
-5.74116e-14
-8.69003e-14
-3.13674e-14
-1.68001e-14
8.67073e-14
2.33543e-13
-5.9507e-14
3.50383e-13
1.52179e-13
7.66622e-13
3.86321e-13
1.41716e-12
5.367e-14
6.02679e-13
-3.64943e-13
-2.47927e-12
7.28942e-13
3.32146e-12
-9.60822e-13
-7.86249e-12
2.47207e-12
5.1702e-13
1.46925e-13
4.69568e-12
3.14909e-12
-4.32352e-13
1.51117e-12
4.81348e-13
-3.63249e-13
6.72131e-13
4.31641e-13
-7.8696e-14
1.66983e-13
-1.61568e-13
-5.05441e-14
-2.72806e-14
-6.7792e-14
-2.28252e-14
-1.07466e-13
2.32079e-14
-8.89507e-14
1.30844e-13
7.46089e-14
6.48168e-14
1.95797e-13
-3.22387e-13
1.62644e-13
3.37721e-14
3.85726e-13
7.34345e-13
2.13604e-13
2.60925e-13
1.07788e-12
-5.52647e-13
-2.30718e-12
-7.21821e-13
2.94588e-12
6.73921e-13
-4.91714e-12
-1.68903e-12
5.27325e-12
3.34812e-12
1.02206e-12
2.32881e-12
-1.91234e-12
-1.88227e-12
1.0248e-12
7.29683e-13
2.47671e-13
4.52105e-13
-4.24799e-13
-4.01462e-13
-2.0095e-13
-2.6899e-13
-2.79678e-14
-1.65273e-13
-5.88216e-15
-2.20679e-13
1.3554e-13
-6.80828e-15
2.33631e-13
1.9673e-13
2.09861e-14
-2.48228e-14
-3.709e-13
-2.71912e-13
-1.76192e-13
-1.42182e-13
2.65434e-13
-5.07647e-13
2.67205e-14
3.38095e-13
2.3442e-14
-7.83783e-13
-1.18375e-12
4.30573e-13
1.05443e-12
-4.88486e-13
-1.31987e-12
2.77579e-12
1.70278e-12
-3.05428e-12
-1.87165e-12
8.13333e-13
2.24115e-13
7.43367e-13
9.24708e-13
-8.5001e-13
-5.74161e-13
-3.77011e-13
-7.23291e-13
-4.34943e-14
-1.76239e-13
-5.5356e-14
-7.93779e-14
1.22149e-13
-1.46144e-13
2.17178e-13
1.03197e-13
2.49196e-14
2.3732e-13
-1.43326e-13
-1.76789e-13
-8.82614e-14
-5.30483e-13
-3.09185e-13
-3.09171e-13
-2.04151e-13
-2.86444e-13
-1.40909e-13
-6.54405e-13
4.18617e-13
9.84854e-13
-1.42445e-13
-1.17263e-12
-1.5129e-13
1.83175e-12
4.82045e-13
-6.34646e-13
1.27373e-14
-8.19609e-13
-6.30783e-13
1.49712e-12
9.71781e-13
-1.00431e-12
-6.11994e-13
-1.10791e-12
-1.11466e-12
3.26926e-13
-1.56552e-13
1.83445e-13
6.87771e-15
-1.36993e-13
-3.51497e-14
2.53117e-13
1.09961e-13
2.40572e-13
1.67177e-13
-3.77798e-13
1.06577e-13
-4.46272e-13
-5.86596e-14
3.0293e-13
-1.63506e-13
-1.1903e-13
-3.09769e-13
-3.18013e-13
1.10433e-13
2.26911e-14
-8.35193e-13
-9.81639e-14
1.02258e-12
1.07028e-12
-4.93479e-13
-2.40177e-13
1.33149e-12
6.82248e-13
-1.11159e-12
-5.96669e-13
8.52783e-13
-5.6978e-14
-3.3344e-13
-1.2118e-13
-1.57838e-12
-1.1228e-12
1.22055e-13
7.08766e-14
7.38635e-13
6.17687e-13
1.47875e-13
-1.72215e-13
-1.08951e-13
-1.85325e-13
1.55144e-13
3.01924e-13
7.15893e-14
1.42994e-13
-5.58001e-13
-1.61072e-13
-6.0195e-13
1.22175e-13
4.48678e-13
6.12885e-13
3.58319e-13
7.80108e-14
-1.85664e-13
-1.09904e-13
1.63254e-13
2.6822e-13
-1.09338e-13
-8.04426e-14
3.39829e-13
5.54525e-13
3.3571e-13
5.09209e-14
3.80594e-13
-4.39545e-13
-1.08274e-13
7.57895e-13
3.11565e-13
-1.26871e-12
-4.55648e-13
5.19552e-14
1.61628e-13
9.79168e-13
7.44993e-13
-1.23806e-13
1.29232e-13
1.33558e-14
-2.59496e-13
3.74177e-13
-4.22065e-14
-3.1436e-14
1.82694e-13
-2.7336e-13
-8.13173e-15
-2.60568e-13
-1.93345e-13
-1.99229e-13
3.0049e-13
2.21002e-13
1.03091e-12
6.10454e-13
4.22236e-13
2.34655e-13
-2.80507e-13
-3.87784e-13
5.55211e-13
1.60875e-13
-3.16617e-13
-2.66449e-13
4.06742e-13
4.08954e-13
-5.16261e-13
3.29942e-15
4.82573e-15
2.74884e-13
6.26534e-14
3.18269e-13
-3.40091e-13
-2.43124e-13
8.81524e-13
7.27747e-13
3.05704e-13
2.40847e-13
-6.49058e-13
-3.12371e-13
1.46147e-13
2.83612e-13
5.65545e-13
1.89235e-13
-2.40284e-13
-3.81857e-13
-4.78225e-13
-3.27941e-13
2.21672e-13
9.81648e-14
4.6277e-13
5.15026e-13
-6.24632e-14
8.20423e-13
4.16026e-13
-2.15573e-13
-9.08473e-15
2.53429e-13
-1.38333e-13
1.44151e-14
1.08327e-13
1.01439e-13
-2.71163e-14
-3.34091e-13
8.00487e-14
-4.01329e-13
-2.14008e-14
-5.08231e-14
9.76622e-14
-4.38958e-13
1.81807e-13
8.05617e-13
-4.31019e-14
3.42689e-13
1.31874e-13
-2.67596e-13
-1.04352e-13
5.59298e-14
-2.80473e-13
-1.40503e-13
-2.97524e-14
-3.18458e-13
-3.99689e-14
-1.85891e-13
-2.23035e-13
1.35398e-13
-4.23165e-14
7.07722e-13
2.56617e-13
6.38428e-13
2.44892e-13
-4.01384e-13
1.74684e-13
4.55267e-14
-3.68879e-13
-3.66131e-13
4.40409e-13
4.06132e-13
-1.55146e-13
-1.32607e-13
1.83011e-13
2.93481e-13
-4.72578e-13
-3.49276e-13
-2.76085e-13
1.49071e-13
4.53035e-14
-8.21772e-14
-6.28573e-13
9.35338e-14
1.04478e-12
3.1092e-13
1.14031e-13
-6.26775e-13
-4.21935e-13
-2.37624e-13
3.68292e-13
4.80162e-15
-2.14766e-13
-5.63243e-13
-6.24924e-13
-3.20379e-13
-7.30789e-14
2.83368e-13
4.11912e-13
3.89532e-13
6.87088e-13
1.87774e-13
4.67575e-13
-2.20654e-13
-4.48026e-13
-4.44235e-13
-2.62306e-13
3.82682e-13
1.57009e-13
-1.21302e-13
-3.45452e-14
3.18333e-13
-1.97502e-13
-3.02105e-13
-6.29787e-14
2.61161e-13
-3.29969e-13
-3.80942e-13
1.35705e-13
3.54538e-13
3.05821e-13
-4.03581e-13
1.73526e-14
6.45171e-14
8.21046e-13
6.44007e-13
-4.07536e-13
-1.66668e-13
-6.52182e-13
-3.18993e-13
6.6132e-14
1.53501e-13
-4.50288e-14
1.89223e-13
-1.60091e-13
-1.31041e-13
-3.4076e-14
-1.39403e-13
1.30595e-13
1.92063e-13
2.37837e-13
2.76005e-13
-1.38146e-13
-1.06127e-13
-5.72773e-13
-3.85593e-13
2.27717e-13
4.4753e-13
-3.69923e-13
-1.97693e-13
5.15553e-13
1.25201e-13
-4.59207e-13
-8.46275e-13
8.17864e-13
4.39179e-13
-2.36843e-13
-1.89188e-13
9.54925e-14
8.82437e-13
4.04969e-13
-3.65471e-14
-1.34799e-12
6.72053e-13
4.24931e-13
9.14222e-13
7.31547e-13
-4.93034e-13
-3.92994e-13
-6.10597e-13
1.57801e-15
1.20233e-13
2.71831e-13
1.51018e-13
-1.70143e-13
-1.9374e-13
-2.69779e-13
-5.61905e-14
-2.09314e-13
2.3909e-13
-1.37862e-13
6.24494e-14
2.37691e-13
-2.19778e-13
-1.84087e-13
-4.5751e-13
2.61911e-13
-6.88956e-14
8.14935e-14
-4.29857e-13
-9.09864e-14
5.70251e-13
-8.56898e-14
-6.2644e-15
9.46959e-13
7.75584e-13
-6.74558e-13
-8.78293e-13
5.62488e-13
1.25177e-12
8.77079e-14
-1.16564e-12
-8.04835e-13
-1.30092e-12
1.08288e-12
5.32787e-13
7.61705e-13
5.40951e-13
-3.59598e-13
9.53049e-14
-2.45432e-13
-1.77544e-13
-3.8167e-14
-1.41812e-13
-5.80506e-14
-5.21786e-14
5.55724e-14
-4.08009e-13
1.51185e-13
-4.41855e-13
2.22266e-13
4.35183e-13
4.05583e-13
2.20042e-13
-6.343e-13
-3.21353e-13
-1.44801e-13
1.46162e-13
-8.26611e-13
1.84672e-13
1.33569e-12
1.22073e-12
-1.54448e-12
-6.18328e-13
2.03363e-12
4.76406e-13
-1.4409e-12
-4.24428e-13
6.14968e-13
1.53263e-12
1.17629e-12
-1.20989e-12
-1.52735e-12
-5.27129e-13
-8.2003e-13
7.87274e-13
5.3417e-13
3.61551e-13
2.90962e-13
-2.00889e-13
-1.84758e-13
-1.721e-13
-1.73323e-14
8.27127e-14
7.38469e-15
1.0179e-13
-3.92647e-13
3.31885e-14
-3.24823e-13
2.95746e-13
3.96319e-13
6.71631e-13
3.64909e-13
-3.25836e-13
-8.59507e-13
-2.86928e-13
2.10153e-14
-1.17349e-13
5.35992e-13
1.23168e-13
1.0198e-12
-1.08328e-12
-1.24188e-12
1.44465e-12
2.29916e-12
1.8032e-13
-3.7101e-12
-2.21795e-12
1.45438e-12
2.10679e-12
8.59124e-13
1.15327e-13
-1.34618e-12
-1.19834e-12
-1.33676e-13
-1.95988e-13
4.59338e-13
2.20017e-13
9.46292e-15
1.3013e-13
-1.54576e-13
1.10377e-13
3.4387e-14
-1.79085e-14
4.25202e-14
-1.71766e-13
-5.76209e-15
-1.08386e-13
2.08523e-13
5.6678e-14
4.49419e-13
2.21643e-13
7.10142e-13
-4.52853e-13
7.60869e-14
-7.26628e-15
7.80287e-13
2.75476e-13
-2.13918e-12
-4.76119e-13
2.11079e-12
-2.60524e-15
-3.43794e-12
5.48462e-13
6.09529e-12
-2.29786e-12
-2.78609e-12
-1.00562e-11
-1.71543e-13
3.65093e-13
1.65369e-12
-1.75234e-13
-2.93584e-13
-6.57189e-13
-6.76816e-13
1.7423e-14
-9.96689e-14
8.19817e-14
2.53194e-13
-6.5407e-14
1.48236e-13
-6.53994e-14
-2.47198e-14
-2.07177e-16
2.20849e-14
2.77642e-14
-1.08993e-14
2.95729e-14
-2.16614e-13
8.09652e-14
3.75575e-14
1.64923e-12
1.56576e-12
9.14347e-13
-1.80129e-13
6.29929e-13
-7.59798e-13
-3.55504e-12
-1.94399e-12
5.33327e-12
2.1096e-12
-1.0696e-11
1.45799e-12
5.03175e-12
1.04748e-12
3.56021e-12
2.41696e-11
-6.21215e-13
-9.78456e-13
1.54391e-12
2.98379e-13
4.96614e-13
-4.55135e-13
-5.71321e-13
-3.44731e-13
-3.0363e-13
6.50805e-15
1.69492e-13
4.29363e-14
1.68433e-13
-5.59029e-14
1.48555e-14
-6.23249e-16
5.51609e-14
5.28605e-14
2.71589e-14
-7.39524e-14
-1.98115e-13
-1.27938e-13
-5.33766e-14
-1.083e-13
1.1602e-12
5.90391e-13
-2.55147e-13
-5.64852e-13
-1.3015e-12
-1.11772e-12
-2.47131e-13
4.86016e-12
1.93595e-12
-2.02875e-11
-2.97746e-10
7.97005e-12
4.47124e-10
-1.45924e-11
-2.11668e-10
1.1496e-12
-1.13302e-11
2.70158e-13
9.50472e-13
4.15783e-13
-2.61109e-13
2.6687e-14
-3.71694e-13
-1.78139e-13
-1.10009e-14
-7.34328e-14
8.88476e-14
2.64455e-14
-2.62101e-14
4.61532e-15
-4.16565e-14
2.87541e-14
1.9355e-15
8.61636e-14
-6.11756e-14
-1.25501e-14
-1.05147e-13
-4.00873e-14
-1.23047e-12
-1.11594e-12
-4.0451e-13
5.12435e-12
-1.04891e-11
3.10241e-11
-1.72254e-11
1.46994e-11
-1.96326e-12
-1.91206e-12
5.44909e-13
7.93457e-13
-1.25384e-13
-4.21427e-13
-1.26135e-13
8.12282e-14
1.314e-13
1.6668e-13
1.09456e-13
)
;

boundaryField
{
    sides
    {
        type            calculated;
        value           uniform 0;
    }
    inlet
    {
        type            calculated;
        value           uniform 0;
    }
    outlet
    {
        type            calculated;
        value           nonuniform List<scalar> 
20
(
1.39366e-14
-2.46768e-13
-5.92976e-13
-5.68598e-13
-9.98219e-15
8.06597e-13
1.20145e-12
5.75225e-13
-4.24826e-13
-1.08605e-12
-1.04416e-12
-3.98071e-13
5.17197e-13
1.07607e-12
8.35997e-13
1.11404e-13
-3.39142e-13
-3.38165e-13
-1.2788e-13
3.87219e-14
)
;
    }
    frontAndBack
    {
        type            empty;
        value           nonuniform 0();
    }
}


// ************************************************************************* //
