/*--------------------------------*- C++ -*----------------------------------*\
  =========                 |
  \\      /  F ield         | OpenFOAM: The Open Source CFD Toolbox
   \\    /   O peration     | Website:  https://openfoam.org
    \\  /    A nd           | Version:  7
     \\/     M anipulation  |
\*---------------------------------------------------------------------------*/
FoamFile
{
    version     2.0;
    format      ascii;
    class       volVectorField;
    location    "100";
    object      ddtCorrDdt0(hU);
}
// * * * * * * * * * * * * * * * * * * * * * * * * * * * * * * * * * * * * * //

dimensions      [0 2 -2 0 0 0 0];

internalField   nonuniform List<vector> 
400
(
(-1.2996e-10 -1.15803e-10 0)
(-1.72911e-10 -3.42661e-11 0)
(-3.78803e-11 1.81252e-10 0)
(1.6717e-10 7.26678e-11 0)
(3.67774e-11 -3.06643e-10 0)
(-1.15156e-09 4.37283e-10 0)
(8.62408e-10 -8.16766e-10 0)
(-5.50455e-10 -1.68142e-09 0)
(-1.00091e-09 -2.7069e-11 0)
(-5.21687e-11 2.5485e-11 0)
(-1.08077e-10 4.03639e-11 0)
(2.90796e-11 5.50169e-11 0)
(6.77949e-11 3.07611e-11 0)
(3.70864e-11 1.65405e-11 0)
(1.62036e-11 1.31411e-11 0)
(4.0274e-12 8.55934e-12 0)
(-3.26316e-12 5.16553e-12 0)
(1.56691e-11 7.66884e-12 0)
(2.25661e-11 1.60856e-11 0)
(3.16225e-12 8.55135e-12 0)
(1.16845e-11 -2.31367e-10 0)
(3.81096e-11 -6.56523e-11 0)
(-5.16953e-11 2.33113e-10 0)
(1.73933e-11 2.85625e-10 0)
(-4.92165e-11 -3.60096e-10 0)
(1.49267e-09 6.04739e-10 0)
(-1.46642e-11 -1.25295e-09 0)
(-8.11509e-10 -1.28371e-09 0)
(9.47698e-10 1.03536e-10 0)
(5.57875e-11 -3.83227e-11 0)
(-2.76302e-11 5.18823e-11 0)
(4.3935e-11 9.83745e-11 0)
(1.80086e-11 5.16166e-11 0)
(1.1247e-12 2.73161e-11 0)
(1.61521e-12 1.6838e-11 0)
(2.47685e-12 -1.06634e-12 0)
(-4.54144e-14 -9.40683e-13 0)
(5.83389e-12 2.12001e-11 0)
(-4.17517e-12 3.78866e-11 0)
(-2.86842e-11 2.03516e-11 0)
(1.04514e-10 -3.18611e-11 0)
(2.09868e-10 8.56765e-12 0)
(1.16417e-10 -3.07709e-11 0)
(-6.43666e-12 1.99101e-10 0)
(-1.6616e-10 -3.72381e-11 0)
(-2.16051e-11 1.69019e-10 0)
(-1.29697e-09 -2.55461e-10 0)
(8.18641e-10 8.80194e-10 0)
(4.65665e-10 2.00554e-10 0)
(-8.92123e-11 -8.1936e-11 0)
(1.55896e-10 5.10219e-11 0)
(6.41042e-11 3.90983e-11 0)
(-3.84642e-11 -2.22281e-12 0)
(-2.49407e-11 -3.08797e-12 0)
(-7.39481e-12 -6.36626e-12 0)
(9.8796e-12 -1.26184e-11 0)
(2.69511e-11 8.97481e-12 0)
(1.41618e-11 4.10712e-11 0)
(-4.02785e-11 4.81179e-11 0)
(-8.27648e-11 1.64754e-11 0)
(6.52374e-11 1.69266e-10 0)
(7.34765e-11 6.85351e-11 0)
(7.70974e-11 -1.36391e-10 0)
(-7.45837e-11 -1.25643e-10 0)
(4.64628e-11 6.50596e-11 0)
(-2.21085e-10 -1.80474e-10 0)
(-6.03995e-11 4.55122e-10 0)
(9.29597e-10 6.2073e-10 0)
(-3.08641e-10 -1.03357e-10 0)
(-8.02009e-11 7.57519e-11 0)
(1.86e-10 8.91107e-11 0)
(-3.80667e-11 -4.2658e-11 0)
(-8.12246e-11 -4.44175e-11 0)
(-2.17426e-11 -2.57335e-11 0)
(3.76893e-12 -3.13357e-11 0)
(2.04287e-11 -1.04049e-11 0)
(4.08129e-11 2.42086e-11 0)
(2.14498e-11 1.71986e-11 0)
(-4.58579e-11 -6.65805e-12 0)
(-8.6925e-11 -1.17505e-11 0)
(2.03423e-11 9.6289e-11 0)
(-6.13949e-11 2.10124e-11 0)
(3.78446e-12 -3.95453e-11 0)
(-1.38059e-10 -2.02683e-10 0)
(1.12226e-10 1.39442e-10 0)
(-2.21446e-10 -2.69501e-10 0)
(4.52105e-10 4.26466e-10 0)
(-1.0973e-10 -2.69784e-11 0)
(-3.04291e-10 -1.43807e-10 0)
(2.607e-10 1.72159e-10 0)
(-2.86327e-11 -2.50472e-11 0)
(-1.54471e-10 -1.19794e-10 0)
(-4.18427e-11 -4.24443e-11 0)
(-1.45732e-12 -1.97482e-11 0)
(1.9075e-11 -3.45477e-11 0)
(3.16751e-11 5.92921e-12 0)
(1.40157e-11 3.81406e-11 0)
(-7.28417e-12 -1.9908e-11 0)
(-2.08396e-11 -7.54214e-11 0)
(-1.21673e-11 -4.56811e-11 0)
(-2.21168e-11 -8.85125e-12 0)
(-7.69653e-11 -2.58847e-11 0)
(-3.66061e-11 4.77937e-11 0)
(-5.42524e-11 -9.55027e-11 0)
(5.41622e-11 7.76602e-11 0)
(-9.56201e-12 -4.29769e-11 0)
(2.38341e-10 1.51108e-10 0)
(-2.77122e-10 -2.27902e-10 0)
(1.33481e-10 1.25315e-10 0)
(8.72438e-11 1.33905e-11 0)
(-2.75552e-10 -1.8308e-10 0)
(-8.0591e-11 -8.81019e-11 0)
(7.01273e-11 -1.21357e-11 0)
(1.2288e-11 -7.56223e-12 0)
(1.98689e-11 -2.92625e-12 0)
(3.93938e-11 2.54055e-11 0)
(-3.05376e-11 3.40801e-11 0)
(-7.25072e-11 -2.0118e-11 0)
(-1.44349e-12 -6.35911e-11 0)
(1.00431e-10 -4.16581e-11 0)
(-4.95124e-11 -5.20882e-11 0)
(-3.58687e-11 -1.5286e-11 0)
(-6.22211e-11 2.30499e-11 0)
(4.96949e-11 9.79003e-11 0)
(-2.37192e-12 -3.30858e-11 0)
(1.38704e-10 1.16711e-10 0)
(3.35164e-12 -5.7077e-11 0)
(-5.56433e-11 -6.39788e-11 0)
(1.19582e-10 8.41202e-11 0)
(-2.44293e-10 -1.79525e-10 0)
(-1.66508e-10 -9.89551e-11 0)
(1.12262e-10 5.67753e-11 0)
(9.62617e-11 -1.15721e-11 0)
(1.02624e-11 -2.09611e-11 0)
(6.49826e-12 4.09266e-11 0)
(7.56394e-12 2.8944e-11 0)
(-6.01126e-11 -7.17829e-12 0)
(-1.04878e-10 5.84492e-12 0)
(-3.2366e-12 4.3563e-11 0)
(1.54517e-10 2.29544e-11 0)
(-3.83321e-11 -5.11023e-11 0)
(2.57115e-11 2.04918e-11 0)
(-3.6717e-11 -1.75843e-11 0)
(8.78674e-11 1.37806e-10 0)
(-5.4848e-12 1.12505e-11 0)
(1.26329e-10 1.08639e-10 0)
(-1.06366e-10 -6.94829e-11 0)
(7.72343e-11 2.9106e-11 0)
(-5.74948e-11 -5.93997e-11 0)
(-1.74362e-10 -9.60896e-11 0)
(1.52114e-10 8.86039e-11 0)
(8.67937e-11 7.73323e-11 0)
(-3.30653e-11 -4.69839e-11 0)
(5.82104e-11 -2.53644e-11 0)
(3.86852e-11 4.94684e-11 0)
(-4.79645e-11 1.63134e-11 0)
(-5.78608e-11 -3.24563e-11 0)
(-3.51932e-11 4.39305e-11 0)
(6.21483e-12 1.64034e-10 0)
(7.35112e-11 9.59444e-11 0)
(1.27444e-11 5.45937e-12 0)
(3.96525e-11 -1.73946e-11 0)
(6.79676e-12 1.02296e-11 0)
(3.5008e-11 1.07193e-11 0)
(5.4851e-12 7.11027e-11 0)
(5.94749e-12 3.34742e-11 0)
(-8.22745e-11 1.15621e-11 0)
(3.85643e-11 6.07104e-11 0)
(-5.53443e-11 -7.31438e-11 0)
(5.27692e-11 9.42313e-11 0)
(1.54543e-10 1.01787e-10 0)
(-5.29011e-11 -2.00593e-11 0)
(-6.58336e-11 3.91232e-12 0)
(8.46028e-11 1.39838e-11 0)
(3.46048e-11 -2.49542e-11 0)
(-7.48509e-11 -3.51566e-11 0)
(-2.54695e-11 -6.54245e-12 0)
(6.44934e-11 8.25815e-11 0)
(4.25232e-11 1.83679e-10 0)
(-4.7905e-11 1.02901e-10 0)
(1.7345e-11 2.35094e-11 0)
(-1.67321e-11 -4.84558e-11 0)
(5.04964e-11 2.73761e-11 0)
(-1.60562e-11 -2.74036e-11 0)
(7.09993e-13 4.79047e-11 0)
(-1.05036e-10 -4.64116e-12 0)
(-2.19847e-11 3.53058e-11 0)
(-6.64678e-11 4.8702e-11 0)
(3.93568e-11 -3.0452e-11 0)
(1.39473e-10 8.87337e-11 0)
(-1.57824e-11 1.10581e-11 0)
(-6.51289e-12 -6.27471e-11 0)
(5.18896e-12 2.9128e-11 0)
(-8.32691e-11 1.54711e-11 0)
(-6.17166e-11 -6.61619e-11 0)
(3.28509e-11 -3.87041e-11 0)
(9.63034e-11 3.95529e-11 0)
(1.07858e-10 7.88668e-11 0)
(2.04343e-11 9.89852e-11 0)
(-1.39902e-10 4.52596e-11 0)
(1.50419e-11 -3.74669e-11 0)
(-2.85909e-11 2.22948e-11 0)
(6.41468e-11 -4.1462e-12 0)
(-3.4436e-11 2.50047e-11 0)
(5.77088e-12 -2.59122e-11 0)
(-1.19853e-10 1.61452e-11 0)
(1.66278e-11 4.69539e-12 0)
(-8.95958e-11 3.03741e-11 0)
(5.00313e-11 2.77806e-11 0)
(1.47505e-10 -5.12346e-11 0)
(-7.25e-11 -3.35821e-11 0)
(1.99275e-11 -2.77848e-11 0)
(3.91213e-11 -6.25869e-11 0)
(-1.3482e-10 -3.61676e-11 0)
(-8.41941e-11 9.95014e-12 0)
(7.97691e-11 3.64542e-11 0)
(1.24681e-10 4.25598e-11 0)
(8.57928e-11 1.3024e-12 0)
(-4.87948e-12 -2.6202e-11 0)
(-1.38025e-10 -2.16759e-11 0)
(2.19296e-11 -2.23925e-11 0)
(2.88289e-11 3.0832e-11 0)
(2.79868e-11 -3.56434e-11 0)
(-1.46827e-11 2.06182e-11 0)
(1.75788e-11 -6.47086e-11 0)
(-2.46191e-11 3.27616e-11 0)
(-2.87198e-12 2.52477e-11 0)
(7.94673e-12 1.28771e-11 0)
(-6.09229e-11 1.16123e-10 0)
(9.06375e-11 -1.08323e-10 0)
(5.405e-11 -8.81366e-11 0)
(-6.01442e-11 1.1304e-11 0)
(-1.52016e-11 -6.38356e-11 0)
(3.39045e-11 -4.85715e-11 0)
(4.03703e-12 3.00679e-11 0)
(-2.35231e-11 5.18488e-11 0)
(7.40028e-12 3.63216e-11 0)
(4.35251e-11 -3.90211e-11 0)
(1.58167e-11 -9.98499e-11 0)
(-4.85035e-11 -6.3539e-11 0)
(-3.68249e-11 5.99137e-11 0)
(2.65005e-11 -2.38873e-11 0)
(-2.96265e-11 -9.94727e-12 0)
(5.48058e-11 -8.82044e-11 0)
(9.27792e-13 1.14829e-11 0)
(1.0653e-10 -6.7034e-12 0)
(-7.71649e-11 1.18371e-10 0)
(1.10922e-10 -4.38177e-12 0)
(-1.25926e-10 1.51075e-10 0)
(-1.26821e-10 4.51169e-11 0)
(1.69623e-10 -1.23961e-10 0)
(2.25506e-11 -5.69688e-11 0)
(-6.10407e-11 8.61756e-12 0)
(5.22881e-11 1.29197e-13 0)
(1.51654e-11 -2.23328e-11 0)
(-7.02226e-11 6.90974e-12 0)
(-5.22826e-11 4.67402e-11 0)
(-1.63448e-11 -6.91823e-12 0)
(1.27873e-11 -7.65766e-11 0)
(6.88284e-11 -5.60931e-11 0)
(-6.98597e-11 7.15837e-11 0)
(-4.15672e-11 -6.26965e-12 0)
(-7.42518e-11 8.68685e-12 0)
(7.89888e-11 -9.83459e-11 0)
(-3.0798e-11 1.22926e-10 0)
(1.63526e-10 -8.75755e-11 0)
(-7.52299e-11 1.39779e-10 0)
(6.00959e-11 4.4109e-13 0)
(5.39908e-11 -7.20641e-12 0)
(-3.21832e-10 2.07182e-10 0)
(-6.62995e-11 2.29934e-11 0)
(1.3013e-10 -1.01263e-10 0)
(6.12986e-11 -1.02059e-11 0)
(5.63626e-12 1.36541e-11 0)
(-3.19713e-11 -2.52424e-11 0)
(-4.4583e-11 -3.49267e-13 0)
(-5.45965e-11 3.83454e-11 0)
(-6.62699e-11 2.5957e-11 0)
(9.18406e-12 1.67477e-11 0)
(1.40124e-10 4.97698e-12 0)
(-3.47437e-11 1.17101e-11 0)
(-9.26222e-11 3.36463e-11 0)
(-6.34709e-11 9.64859e-12 0)
(5.47331e-12 8.4424e-11 0)
(-1.66764e-11 5.73447e-11 0)
(6.25117e-11 -2.70167e-11 0)
(9.10652e-11 2.65759e-11 0)
(-1.76322e-10 1.48074e-10 0)
(2.80355e-10 -1.90699e-10 0)
(-4.33466e-11 7.82291e-11 0)
(-2.94031e-10 1.61826e-10 0)
(-1.82907e-11 -5.31845e-12 0)
(1.01871e-10 -5.04206e-11 0)
(1.92898e-11 -2.31496e-11 0)
(-1.73598e-11 4.6751e-12 0)
(-1.67776e-11 2.19784e-11 0)
(-5.20267e-11 2.40121e-11 0)
(-6.33355e-11 5.26091e-11 0)
(2.11663e-11 1.05831e-10 0)
(1.15138e-10 5.72732e-11 0)
(3.14369e-11 -1.17378e-10 0)
(-7.79827e-11 2.33028e-11 0)
(-1.24256e-11 5.69473e-11 0)
(-1.04658e-10 2.185e-10 0)
(5.86976e-11 -1.47273e-10 0)
(-1.57235e-10 2.3877e-10 0)
(3.93506e-10 -3.45004e-10 0)
(-3.91004e-10 2.95989e-10 0)
(2.36912e-11 -6.01966e-11 0)
(3.11748e-10 -1.82484e-10 0)
(-1.6017e-10 8.27186e-11 0)
(-1.65246e-10 8.81611e-11 0)
(1.21777e-11 -2.23218e-11 0)
(4.57135e-11 -3.67354e-11 0)
(3.53301e-11 1.12745e-11 0)
(4.55671e-12 1.79238e-11 0)
(-3.04673e-11 5.81906e-12 0)
(-2.81137e-11 4.79943e-11 0)
(-6.46808e-13 1.04518e-10 0)
(1.70253e-11 5.53906e-11 0)
(1.15887e-10 -2.04893e-10 0)
(7.18554e-11 -7.61956e-13 0)
(6.30372e-11 1.31509e-10 0)
(-1.52518e-10 1.73947e-10 0)
(1.08411e-10 -2.14798e-10 0)
(-3.62789e-10 4.34655e-10 0)
(4.36298e-10 -7.46679e-10 0)
(4.32132e-10 -3.72273e-10 0)
(-5.17513e-10 1.02994e-10 0)
(2.58592e-10 -1.97785e-10 0)
(1.61634e-10 -6.16314e-11 0)
(-1.37615e-10 6.2195e-11 0)
(-9.2044e-11 7.92941e-12 0)
(2.20473e-11 -2.66383e-11 0)
(5.25733e-11 -5.03047e-12 0)
(1.78153e-11 7.72485e-12 0)
(-1.36847e-12 8.29841e-12 0)
(-6.42661e-12 2.65307e-11 0)
(-3.07682e-11 5.25462e-11 0)
(-4.63696e-11 2.50717e-11 0)
(1.96268e-10 5.36202e-11 0)
(2.28996e-10 -3.30541e-11 0)
(1.00515e-10 1.36278e-11 0)
(-1.73785e-10 -1.48918e-10 0)
(1.07832e-10 -3.14715e-11 0)
(-4.93116e-10 3.64041e-10 0)
(-7.61581e-10 -1.08025e-09 0)
(1.13841e-09 1.46369e-10 0)
(1.69447e-10 -8.33058e-11 0)
(7.56521e-11 3.7883e-11 0)
(2.6136e-10 -1.05589e-10 0)
(-2.9025e-11 -3.1368e-11 0)
(-1.09133e-10 1.73715e-11 0)
(-1.40629e-11 5.47127e-12 0)
(3.91848e-11 -1.05739e-11 0)
(2.67483e-11 -2.25445e-12 0)
(1.51945e-11 8.76631e-12 0)
(-1.53538e-12 1.02572e-12 0)
(-2.9104e-11 1.78051e-12 0)
(-4.27688e-11 3.00398e-13 0)
(-2.17135e-11 2.94171e-10 0)
(4.37749e-11 -3.28597e-11 0)
(-3.96374e-11 -2.54943e-10 0)
(-3.79985e-11 -3.26154e-10 0)
(3.17341e-10 5.76425e-10 0)
(-1.46334e-09 -1.18968e-09 0)
(-6.18504e-10 2.80323e-09 0)
(-2.30321e-09 -1.28803e-10 0)
(-4.06269e-10 2.15626e-10 0)
(1.35518e-10 1.48503e-10 0)
(5.61738e-11 -1.40263e-10 0)
(5.43512e-11 -9.8101e-11 0)
(-1.49018e-11 2.27267e-11 0)
(-3.27418e-11 2.48446e-11 0)
(-1.2942e-11 -2.29879e-11 0)
(6.67894e-12 -2.94132e-11 0)
(1.32763e-11 -8.55308e-12 0)
(9.23966e-12 -7.88158e-12 0)
(1.21098e-12 -1.21804e-11 0)
(-1.02435e-11 -4.90398e-12 0)
(-2.09339e-10 1.38544e-10 0)
(-1.8216e-10 -2.77968e-12 0)
(-6.58111e-11 -1.81592e-10 0)
(3.10999e-10 -1.20017e-10 0)
(-6.01724e-10 5.16859e-10 0)
(2.25494e-09 -1.31894e-09 0)
(6.24222e-10 3.45605e-09 0)
(1.21748e-09 -8.01327e-10 0)
(5.53921e-10 3.46391e-10 0)
(-4.83447e-10 5.55528e-11 0)
(-1.36298e-10 -9.79894e-11 0)
(1.79665e-10 -6.3972e-11 0)
(8.08507e-11 6.4795e-12 0)
(-6.94485e-11 7.78077e-12 0)
(-7.1082e-11 -1.89621e-11 0)
(-5.97087e-12 -1.9438e-11 0)
(2.93947e-11 -2.11395e-12 0)
(3.38505e-11 5.84315e-12 0)
(2.93616e-11 5.57357e-12 0)
(1.15025e-11 -3.88342e-13 0)
)
;

boundaryField
{
    sides
    {
        type            calculated;
        value           nonuniform List<vector> 
40
(
(-2.09339e-10 0 0)
(-1.8216e-10 0 0)
(-6.58111e-11 0 0)
(3.10999e-10 0 0)
(-6.01724e-10 0 0)
(2.25494e-09 0 0)
(6.24222e-10 0 0)
(1.21748e-09 0 0)
(5.53921e-10 0 0)
(-4.83447e-10 0 0)
(-1.36298e-10 0 0)
(1.79665e-10 0 0)
(8.08507e-11 0 0)
(-6.94485e-11 0 0)
(-7.1082e-11 0 0)
(-5.97087e-12 0 0)
(2.93947e-11 0 0)
(3.38505e-11 0 0)
(2.93616e-11 0 0)
(1.15025e-11 0 0)
(-1.2996e-10 0 0)
(-1.72911e-10 0 0)
(-3.78803e-11 0 0)
(1.6717e-10 0 0)
(3.67774e-11 0 0)
(-1.15156e-09 0 0)
(8.62408e-10 0 0)
(-5.50455e-10 0 0)
(-1.00091e-09 0 0)
(-5.21687e-11 0 0)
(-1.08077e-10 0 0)
(2.90796e-11 0 0)
(6.77949e-11 0 0)
(3.70864e-11 0 0)
(1.62036e-11 0 0)
(4.0274e-12 0 0)
(-3.26316e-12 0 0)
(1.56691e-11 0 0)
(2.25661e-11 0 0)
(3.16225e-12 0 0)
)
;
    }
    inlet
    {
        type            calculated;
        value           uniform (0 0 0);
    }
    outlet
    {
        type            calculated;
        value           nonuniform List<vector> 
20
(
(3.16225e-12 8.55135e-12 0)
(-2.86842e-11 2.03516e-11 0)
(-8.27648e-11 1.64754e-11 0)
(-8.6925e-11 -1.17505e-11 0)
(-1.21673e-11 -4.56811e-11 0)
(1.00431e-10 -4.16581e-11 0)
(1.54517e-10 2.29544e-11 0)
(7.35112e-11 9.59444e-11 0)
(-4.7905e-11 1.02901e-10 0)
(-1.39902e-10 4.52596e-11 0)
(-1.38025e-10 -2.16759e-11 0)
(-4.85035e-11 -6.3539e-11 0)
(6.88284e-11 -5.60931e-11 0)
(1.40124e-10 4.97698e-12 0)
(1.15138e-10 5.72732e-11 0)
(1.70253e-11 5.53906e-11 0)
(-4.63696e-11 2.50717e-11 0)
(-4.27688e-11 3.00398e-13 0)
(-1.02435e-11 -4.90398e-12 0)
(1.15025e-11 -3.88342e-13 0)
)
;
    }
    frontAndBack
    {
        type            empty;
    }
}


// ************************************************************************* //
