/*--------------------------------*- C++ -*----------------------------------*\
  =========                 |
  \\      /  F ield         | OpenFOAM: The Open Source CFD Toolbox
   \\    /   O peration     | Website:  https://openfoam.org
    \\  /    A nd           | Version:  7
     \\/     M anipulation  |
\*---------------------------------------------------------------------------*/
FoamFile
{
    version     2.0;
    format      ascii;
    class       volVectorField;
    location    "100";
    object      hU_0;
}
// * * * * * * * * * * * * * * * * * * * * * * * * * * * * * * * * * * * * * //

dimensions      [0 2 -1 0 0 0 0];

internalField   nonuniform List<vector> 
400
(
(0.001 -8.72072e-09 0)
(0.000999999 -2.37647e-08 0)
(0.001 -3.60114e-08 0)
(0.001 -4.67077e-08 0)
(0.00100001 -5.69299e-08 0)
(0.00100001 -6.74681e-08 0)
(0.00100002 -7.82348e-08 0)
(0.00100003 -8.91844e-08 0)
(0.00100004 -9.99267e-08 0)
(0.00100006 -1.11908e-07 0)
(0.00100007 -1.22646e-07 0)
(0.0010001 -1.3616e-07 0)
(0.00100011 -1.46527e-07 0)
(0.00100015 -1.63346e-07 0)
(0.00100017 -1.72169e-07 0)
(0.00100024 -1.96299e-07 0)
(0.00100026 -2.00802e-07 0)
(0.00100038 -2.43041e-07 0)
(0.00100038 -2.39179e-07 0)
(0.00100061 -3.3185e-07 0)
(0.001 3.99554e-09 0)
(0.001 1.20995e-08 0)
(0.00100001 2.02187e-08 0)
(0.00100001 2.79625e-08 0)
(0.00100002 3.51349e-08 0)
(0.00100002 4.16354e-08 0)
(0.00100003 4.75948e-08 0)
(0.00100004 5.3101e-08 0)
(0.00100005 5.84359e-08 0)
(0.00100007 6.2324e-08 0)
(0.00100008 6.69761e-08 0)
(0.0010001 6.85726e-08 0)
(0.00100012 7.26713e-08 0)
(0.00100016 6.98601e-08 0)
(0.00100018 7.4022e-08 0)
(0.00100023 6.16796e-08 0)
(0.00100026 6.71676e-08 0)
(0.00100035 3.17638e-08 0)
(0.00100037 3.98542e-08 0)
(0.0010005 -5.45859e-08 0)
(0.001 -3.96413e-09 0)
(0.000999999 -1.302e-08 0)
(0.001 -2.30659e-08 0)
(0.001 -3.36755e-08 0)
(0.00100001 -4.41966e-08 0)
(0.00100001 -5.49843e-08 0)
(0.00100002 -6.55649e-08 0)
(0.00100003 -7.73214e-08 0)
(0.00100004 -8.88812e-08 0)
(0.00100005 -1.02531e-07 0)
(0.00100006 -1.15265e-07 0)
(0.00100009 -1.32422e-07 0)
(0.0010001 -1.46514e-07 0)
(0.00100014 -1.7002e-07 0)
(0.00100016 -1.85118e-07 0)
(0.00100021 -2.21123e-07 0)
(0.00100023 -2.3568e-07 0)
(0.00100031 -2.97587e-07 0)
(0.00100033 -3.06223e-07 0)
(0.00100046 -4.22175e-07 0)
(0.001 -1.50019e-10 0)
(0.001 -3.78167e-11 0)
(0.00100001 6.12918e-10 0)
(0.00100001 1.30521e-09 0)
(0.00100001 2.01837e-09 0)
(0.00100002 1.90839e-09 0)
(0.00100003 1.58874e-09 0)
(0.00100004 -3.61732e-10 0)
(0.00100004 -2.4038e-09 0)
(0.00100006 -7.07842e-09 0)
(0.00100007 -1.12398e-08 0)
(0.00100009 -2.04888e-08 0)
(0.00100011 -2.71705e-08 0)
(0.00100013 -4.42556e-08 0)
(0.00100016 -5.35256e-08 0)
(0.00100019 -8.49621e-08 0)
(0.00100022 -9.54852e-08 0)
(0.00100028 -1.54672e-07 0)
(0.0010003 -1.60977e-07 0)
(0.00100039 -2.75862e-07 0)
(0.001 -2.90684e-09 0)
(0.001 -9.23552e-09 0)
(0.001 -1.62978e-08 0)
(0.001 -2.43607e-08 0)
(0.00100001 -3.30362e-08 0)
(0.00100001 -4.27384e-08 0)
(0.00100002 -5.28488e-08 0)
(0.00100002 -6.45621e-08 0)
(0.00100003 -7.64631e-08 0)
(0.00100004 -9.12493e-08 0)
(0.00100005 -1.05634e-07 0)
(0.00100007 -1.25405e-07 0)
(0.00100009 -1.42725e-07 0)
(0.00100011 -1.70912e-07 0)
(0.00100013 -1.91211e-07 0)
(0.00100016 -2.34316e-07 0)
(0.00100018 -2.55786e-07 0)
(0.00100024 -3.26552e-07 0)
(0.00100025 -3.41548e-07 0)
(0.00100033 -4.64406e-07 0)
(0.001 -2.57548e-09 0)
(0.001 -7.54196e-09 0)
(0.001 -1.22088e-08 0)
(0.00100001 -1.6929e-08 0)
(0.00100001 -2.17102e-08 0)
(0.00100001 -2.72328e-08 0)
(0.00100002 -3.32062e-08 0)
(0.00100002 -4.08406e-08 0)
(0.00100003 -4.89292e-08 0)
(0.00100004 -6.01714e-08 0)
(0.00100005 -7.12969e-08 0)
(0.00100006 -8.82383e-08 0)
(0.00100008 -1.03176e-07 0)
(0.0010001 -1.29439e-07 0)
(0.00100011 -1.48323e-07 0)
(0.00100014 -1.9027e-07 0)
(0.00100016 -2.11007e-07 0)
(0.0010002 -2.80517e-07 0)
(0.00100021 -2.94576e-07 0)
(0.00100027 -4.15004e-07 0)
(0.001 -2.90515e-09 0)
(0.001 -8.88169e-09 0)
(0.001 -1.51733e-08 0)
(0.001 -2.21924e-08 0)
(0.00100001 -2.99183e-08 0)
(0.00100001 -3.89061e-08 0)
(0.00100001 -4.87048e-08 0)
(0.00100002 -6.0453e-08 0)
(0.00100002 -7.29004e-08 0)
(0.00100003 -8.86767e-08 0)
(0.00100004 -1.04501e-07 0)
(0.00100005 -1.26383e-07 0)
(0.00100006 -1.46325e-07 0)
(0.00100007 -1.77836e-07 0)
(0.00100009 -2.01822e-07 0)
(0.00100011 -2.49191e-07 0)
(0.00100012 -2.74713e-07 0)
(0.00100015 -3.49557e-07 0)
(0.00100016 -3.67271e-07 0)
(0.00100021 -4.92209e-07 0)
(0.001 -3.19102e-09 0)
(0.001 -9.75659e-09 0)
(0.001 -1.6558e-08 0)
(0.001 -2.39388e-08 0)
(0.001 -3.17716e-08 0)
(0.00100001 -4.06658e-08 0)
(0.00100001 -5.01464e-08 0)
(0.00100001 -6.14918e-08 0)
(0.00100002 -7.34837e-08 0)
(0.00100002 -8.88232e-08 0)
(0.00100003 -1.04337e-07 0)
(0.00100004 -1.25994e-07 0)
(0.00100004 -1.45897e-07 0)
(0.00100005 -1.77438e-07 0)
(0.00100006 -2.01713e-07 0)
(0.00100008 -2.49234e-07 0)
(0.00100009 -2.75237e-07 0)
(0.00100011 -3.49822e-07 0)
(0.00100012 -3.67673e-07 0)
(0.00100015 -4.90851e-07 0)
(0.001 -3.35565e-09 0)
(0.001 -1.02501e-08 0)
(0.001 -1.7339e-08 0)
(0.001 -2.50115e-08 0)
(0.001 -3.31477e-08 0)
(0.001 -4.24529e-08 0)
(0.00100001 -5.24805e-08 0)
(0.00100001 -6.45843e-08 0)
(0.00100001 -7.74912e-08 0)
(0.00100001 -9.39661e-08 0)
(0.00100002 -1.10768e-07 0)
(0.00100002 -1.33896e-07 0)
(0.00100003 -1.55358e-07 0)
(0.00100003 -1.88691e-07 0)
(0.00100004 -2.14677e-07 0)
(0.00100005 -2.64173e-07 0)
(0.00100005 -2.91756e-07 0)
(0.00100007 -3.68345e-07 0)
(0.00100007 -3.87226e-07 0)
(0.00100009 -5.12499e-07 0)
(0.001 -3.43943e-09 0)
(0.001 -1.04876e-08 0)
(0.001 -1.77297e-08 0)
(0.001 -2.55738e-08 0)
(0.001 -3.39339e-08 0)
(0.001 -4.35125e-08 0)
(0.001 -5.3878e-08 0)
(0.001 -6.6353e-08 0)
(0.001 -7.96545e-08 0)
(0.001 -9.65249e-08 0)
(0.00100001 -1.13724e-07 0)
(0.00100001 -1.37226e-07 0)
(0.00100001 -1.59095e-07 0)
(0.00100001 -1.92788e-07 0)
(0.00100001 -2.19198e-07 0)
(0.00100002 -2.68979e-07 0)
(0.00100002 -2.96963e-07 0)
(0.00100002 -3.73607e-07 0)
(0.00100002 -3.92784e-07 0)
(0.00100003 -5.17482e-07 0)
(0.001 -3.45403e-09 0)
(0.001 -1.04895e-08 0)
(0.001 -1.77307e-08 0)
(0.000999999 -2.55609e-08 0)
(0.000999999 -3.39224e-08 0)
(0.000999999 -4.34959e-08 0)
(0.000999998 -5.3875e-08 0)
(0.000999997 -6.63464e-08 0)
(0.000999996 -7.96608e-08 0)
(0.000999995 -9.65308e-08 0)
(0.000999994 -1.1372e-07 0)
(0.000999993 -1.37229e-07 0)
(0.000999991 -1.59093e-07 0)
(0.000999989 -1.92774e-07 0)
(0.000999987 -2.19194e-07 0)
(0.000999984 -2.68989e-07 0)
(0.000999982 -2.96969e-07 0)
(0.000999978 -3.73599e-07 0)
(0.000999976 -3.92774e-07 0)
(0.00099997 -5.17475e-07 0)
(0.001 -3.38079e-09 0)
(0.001 -1.02556e-08 0)
(0.000999999 -1.7342e-08 0)
(0.000999998 -2.49858e-08 0)
(0.000999997 -3.31328e-08 0)
(0.000999996 -4.24241e-08 0)
(0.000999994 -5.24795e-08 0)
(0.000999992 -6.45766e-08 0)
(0.000999989 -7.75037e-08 0)
(0.000999986 -9.39867e-08 0)
(0.000999983 -1.10767e-07 0)
(0.000999978 -1.33896e-07 0)
(0.000999973 -1.55351e-07 0)
(0.000999967 -1.88662e-07 0)
(0.000999961 -2.14667e-07 0)
(0.000999952 -2.64179e-07 0)
(0.000999946 -2.91755e-07 0)
(0.000999934 -3.68303e-07 0)
(0.00099993 -3.87183e-07 0)
(0.000999911 -5.12437e-07 0)
(0.001 -3.19728e-09 0)
(0.001 -9.76196e-09 0)
(0.000999999 -1.65571e-08 0)
(0.000999997 -2.39332e-08 0)
(0.000999996 -3.17779e-08 0)
(0.000999993 -4.06578e-08 0)
(0.000999991 -5.01485e-08 0)
(0.000999987 -6.14996e-08 0)
(0.000999983 -7.34872e-08 0)
(0.000999977 -8.88515e-08 0)
(0.000999971 -1.04363e-07 0)
(0.000999964 -1.26001e-07 0)
(0.000999956 -1.45897e-07 0)
(0.000999945 -1.77433e-07 0)
(0.000999936 -2.01722e-07 0)
(0.000999921 -2.4925e-07 0)
(0.000999911 -2.75253e-07 0)
(0.000999889 -3.49813e-07 0)
(0.000999882 -3.67665e-07 0)
(0.000999852 -4.90835e-07 0)
(0.001 -2.88621e-09 0)
(0.000999999 -8.87809e-09 0)
(0.000999998 -1.51706e-08 0)
(0.000999996 -2.22212e-08 0)
(0.000999994 -2.99271e-08 0)
(0.000999991 -3.89225e-08 0)
(0.000999987 -4.86883e-08 0)
(0.000999982 -6.04625e-08 0)
(0.000999977 -7.28789e-08 0)
(0.000999969 -8.86597e-08 0)
(0.000999962 -1.04515e-07 0)
(0.000999951 -1.2638e-07 0)
(0.000999941 -1.46309e-07 0)
(0.000999925 -1.77807e-07 0)
(0.000999913 -2.01792e-07 0)
(0.000999891 -2.49141e-07 0)
(0.000999878 -2.74673e-07 0)
(0.000999847 -3.49474e-07 0)
(0.000999839 -3.67193e-07 0)
(0.000999792 -4.92067e-07 0)
(0.001 -2.5493e-09 0)
(0.000999999 -7.53426e-09 0)
(0.000999997 -1.22189e-08 0)
(0.000999995 -1.69633e-08 0)
(0.000999991 -2.17098e-08 0)
(0.000999987 -2.72703e-08 0)
(0.000999982 -3.31811e-08 0)
(0.000999975 -4.0846e-08 0)
(0.000999968 -4.89314e-08 0)
(0.000999959 -6.0141e-08 0)
(0.000999949 -7.12975e-08 0)
(0.000999935 -8.82574e-08 0)
(0.000999922 -1.03198e-07 0)
(0.000999903 -1.29449e-07 0)
(0.000999886 -1.48327e-07 0)
(0.000999859 -1.90262e-07 0)
(0.000999841 -2.11015e-07 0)
(0.000999802 -2.80522e-07 0)
(0.000999787 -2.94592e-07 0)
(0.000999731 -4.14994e-07 0)
(0.001 -2.89798e-09 0)
(0.001 -9.23289e-09 0)
(0.000999999 -1.63055e-08 0)
(0.000999997 -2.43458e-08 0)
(0.000999994 -3.30289e-08 0)
(0.00099999 -4.27402e-08 0)
(0.000999984 -5.2832e-08 0)
(0.000999977 -6.44998e-08 0)
(0.000999969 -7.64649e-08 0)
(0.000999958 -9.12133e-08 0)
(0.000999946 -1.05588e-07 0)
(0.00099993 -1.25378e-07 0)
(0.000999915 -1.42719e-07 0)
(0.000999891 -1.7089e-07 0)
(0.000999872 -1.91187e-07 0)
(0.000999837 -2.34252e-07 0)
(0.000999817 -2.55745e-07 0)
(0.000999764 -3.26474e-07 0)
(0.000999752 -3.415e-07 0)
(0.00099967 -4.64255e-07 0)
(0.001 -1.58797e-10 0)
(0.000999998 -5.01298e-11 0)
(0.000999995 6.08192e-10 0)
(0.000999991 1.34359e-09 0)
(0.000999986 1.99354e-09 0)
(0.00099998 1.93938e-09 0)
(0.000999973 1.4937e-09 0)
(0.000999965 -3.2401e-10 0)
(0.000999955 -2.39758e-09 0)
(0.000999943 -7.08017e-09 0)
(0.00099993 -1.12165e-08 0)
(0.000999912 -2.04682e-08 0)
(0.000999894 -2.717e-08 0)
(0.000999867 -4.42557e-08 0)
(0.000999845 -5.35297e-08 0)
(0.000999805 -8.49394e-08 0)
(0.000999779 -9.54693e-08 0)
(0.00099972 -1.54639e-07 0)
(0.000999699 -1.60961e-07 0)
(0.000999611 -2.75807e-07 0)
(0.001 -3.98198e-09 0)
(0.001 -1.30288e-08 0)
(0.001 -2.30593e-08 0)
(0.000999998 -3.36544e-08 0)
(0.000999995 -4.42174e-08 0)
(0.000999989 -5.49991e-08 0)
(0.000999983 -6.57556e-08 0)
(0.000999974 -7.7409e-08 0)
(0.000999963 -8.88658e-08 0)
(0.00099995 -1.02544e-07 0)
(0.000999936 -1.15279e-07 0)
(0.000999914 -1.32412e-07 0)
(0.000999896 -1.46513e-07 0)
(0.000999864 -1.70018e-07 0)
(0.000999841 -1.85142e-07 0)
(0.000999791 -2.21114e-07 0)
(0.000999767 -2.35693e-07 0)
(0.000999687 -2.97543e-07 0)
(0.000999671 -3.0622e-07 0)
(0.000999539 -4.22095e-07 0)
(0.001 3.96214e-09 0)
(0.000999996 1.21079e-08 0)
(0.000999991 2.02395e-08 0)
(0.000999987 2.79167e-08 0)
(0.000999982 3.51725e-08 0)
(0.000999976 4.16518e-08 0)
(0.000999969 4.78342e-08 0)
(0.000999959 5.30452e-08 0)
(0.000999948 5.8392e-08 0)
(0.000999934 6.22693e-08 0)
(0.000999919 6.69304e-08 0)
(0.000999897 6.85717e-08 0)
(0.000999878 7.26823e-08 0)
(0.000999845 6.98809e-08 0)
(0.000999819 7.40251e-08 0)
(0.000999767 6.17112e-08 0)
(0.000999738 6.7193e-08 0)
(0.000999654 3.18513e-08 0)
(0.000999629 3.99241e-08 0)
(0.000999495 -5.44537e-08 0)
(0.001 -8.74082e-09 0)
(0.001 -2.37563e-08 0)
(0.001 -3.60002e-08 0)
(0.000999997 -4.67602e-08 0)
(0.000999993 -5.69028e-08 0)
(0.000999986 -6.74288e-08 0)
(0.000999979 -7.79105e-08 0)
(0.000999968 -8.9184e-08 0)
(0.000999958 -1.00005e-07 0)
(0.000999942 -1.11991e-07 0)
(0.000999928 -1.22718e-07 0)
(0.000999903 -1.36211e-07 0)
(0.000999886 -1.46575e-07 0)
(0.000999846 -1.63393e-07 0)
(0.000999826 -1.72227e-07 0)
(0.00099976 -1.96358e-07 0)
(0.000999742 -2.00866e-07 0)
(0.000999623 -2.43106e-07 0)
(0.000999618 -2.39249e-07 0)
(0.000999394 -3.31975e-07 0)
)
;

boundaryField
{
    sides
    {
        type            slip;
    }
    inlet
    {
        type            fixedValue;
        value           uniform (0.001 0 0);
    }
    outlet
    {
        type            zeroGradient;
    }
    frontAndBack
    {
        type            empty;
    }
}


// ************************************************************************* //
