/*--------------------------------*- C++ -*----------------------------------*\
  =========                 |
  \\      /  F ield         | OpenFOAM: The Open Source CFD Toolbox
   \\    /   O peration     | Website:  https://openfoam.org
    \\  /    A nd           | Version:  7
     \\/     M anipulation  |
\*---------------------------------------------------------------------------*/
FoamFile
{
    version     2.0;
    format      ascii;
    class       surfaceScalarField;
    location    "100";
    object      phi;
}
// * * * * * * * * * * * * * * * * * * * * * * * * * * * * * * * * * * * * * //

dimensions      [0 4 -1 0 0 0 0];

internalField   nonuniform List<scalar> 
760
(
4.99999e-06
9.9584e-12
4.99999e-06
-4.36767e-12
5.00001e-06
-1.2746e-11
5.00003e-06
-1.94283e-11
5.00005e-06
-2.68156e-11
5.00009e-06
-3.69431e-11
5.00013e-06
-4.77755e-11
5.00018e-06
-5.65052e-11
5.00025e-06
-6.27097e-11
5.00032e-06
-7.80859e-11
5.00041e-06
-9.00342e-11
5.00053e-06
-1.13936e-10
5.00066e-06
-1.2687e-10
5.00082e-06
-1.67814e-10
5.001e-06
-1.78053e-10
5.00126e-06
-2.56864e-10
5.00151e-06
-2.56204e-10
5.00195e-06
-4.31764e-10
5.00236e-06
-4.14148e-10
-8.91613e-10
5.00002e-06
-1.17964e-11
5.00004e-06
-1.8979e-11
5.00005e-06
-2.92293e-11
5.00008e-06
-4.15937e-11
5.0001e-06
-5.43405e-11
5.00014e-06
-6.90868e-11
5.00018e-06
-8.50174e-11
5.00023e-06
-1.04583e-10
5.00029e-06
-1.23587e-10
5.00037e-06
-1.53186e-10
5.00045e-06
-1.77024e-10
5.00056e-06
-2.22045e-10
5.00069e-06
-2.50289e-10
5.00084e-06
-3.24094e-10
5.00102e-06
-3.53882e-10
5.00125e-06
-4.86105e-10
5.0015e-06
-5.0927e-10
5.00184e-06
-7.67954e-10
5.00218e-06
-7.59955e-10
-1.26204e-09
4.99999e-06
-4.56713e-12
4.99999e-06
-2.03177e-11
5e-06
-3.76189e-11
5.00002e-06
-5.66028e-11
5.00004e-06
-7.64745e-11
5.00007e-06
-9.89777e-11
5.00011e-06
-1.22647e-10
5.00016e-06
-1.52124e-10
5.00021e-06
-1.82467e-10
5.00029e-06
-2.23879e-10
5.00037e-06
-2.6237e-10
5.00047e-06
-3.23321e-10
5.00059e-06
-3.71907e-10
5.00074e-06
-4.67428e-10
5.00091e-06
-5.25656e-10
5.00111e-06
-6.86726e-10
5.00135e-06
-7.47957e-10
5.00162e-06
-1.0412e-09
5.00194e-06
-1.08327e-09
-1.68961e-09
5.00001e-06
-1.25729e-11
5.00002e-06
-3.32565e-11
5.00004e-06
-5.43251e-11
5.00006e-06
-7.76033e-11
5.00008e-06
-1.01824e-10
5.00012e-06
-1.30495e-10
5.00015e-06
-1.6001e-10
5.0002e-06
-1.97867e-10
5.00025e-06
-2.36425e-10
5.00032e-06
-2.88877e-10
5.00039e-06
-3.38461e-10
5.00048e-06
-4.15336e-10
5.00059e-06
-4.78273e-10
5.00072e-06
-5.96268e-10
5.00087e-06
-6.72649e-10
5.00105e-06
-8.64993e-10
5.00124e-06
-9.46911e-10
5.00148e-06
-1.28003e-09
5.00173e-06
-1.33155e-09
-1.89813e-09
5e-06
-1.16501e-11
5e-06
-3.6417e-11
5.00001e-06
-6.19579e-11
5.00002e-06
-9.00653e-11
5.00004e-06
-1.19828e-10
5.00006e-06
-1.54496e-10
5.0001e-06
-1.91275e-10
5.00013e-06
-2.36621e-10
5.00018e-06
-2.83671e-10
5.00024e-06
-3.45588e-10
5.00031e-06
-4.06858e-10
5.00039e-06
-4.95613e-10
5.00048e-06
-5.73995e-10
5.00059e-06
-7.07006e-10
5.00072e-06
-8.03289e-10
5.00087e-06
-1.01243e-09
5.00104e-06
-1.11648e-09
5.00122e-06
-1.46164e-09
5.00142e-06
-1.533e-09
-2.16298e-09
5e-06
-1.39445e-11
5.00001e-06
-4.31339e-11
5.00002e-06
-7.27706e-11
5.00003e-06
-1.04789e-10
5.00005e-06
-1.3876e-10
5.00008e-06
-1.77829e-10
5.00011e-06
-2.19871e-10
5.00014e-06
-2.71029e-10
5.00018e-06
-3.24646e-10
5.00023e-06
-3.9472e-10
5.00029e-06
-4.64318e-10
5.00036e-06
-5.63728e-10
5.00043e-06
-6.52822e-10
5.00053e-06
-7.99696e-10
5.00063e-06
-9.08392e-10
5.00075e-06
-1.13423e-09
5.00089e-06
-1.2511e-09
5.00104e-06
-1.61597e-09
5.00121e-06
-1.69747e-09
-2.2937e-09
5e-06
-1.57027e-11
5.00001e-06
-4.75548e-11
5.00001e-06
-8.00851e-11
5.00002e-06
-1.14771e-10
5.00004e-06
-1.52026e-10
5.00005e-06
-1.94875e-10
5.00008e-06
-2.41294e-10
5.0001e-06
-2.97235e-10
5.00013e-06
-3.56624e-10
5.00017e-06
-4.32854e-10
5.00022e-06
-5.09684e-10
5.00027e-06
-6.17018e-10
5.00033e-06
-7.1546e-10
5.00041e-06
-8.71779e-10
5.00049e-06
-9.9147e-10
5.00058e-06
-1.22746e-09
5.00069e-06
-1.3555e-09
5.0008e-06
-1.72662e-09
5.00091e-06
-1.81234e-09
-2.44226e-09
5e-06
-1.669e-11
5e-06
-5.05452e-11
5.00001e-06
-8.51172e-11
5.00002e-06
-1.22393e-10
5.00003e-06
-1.62211e-10
5.00004e-06
-2.08014e-10
5.00006e-06
-2.57542e-10
5.00008e-06
-3.17105e-10
5.0001e-06
-3.80502e-10
5.00013e-06
-4.612e-10
5.00016e-06
-5.43114e-10
5.0002e-06
-6.56305e-10
5.00025e-06
-7.60846e-10
5.0003e-06
-9.24137e-10
5.00036e-06
-1.05067e-09
5.00042e-06
-1.29416e-09
5.0005e-06
-1.42854e-09
5.00058e-06
-1.80735e-09
5.00067e-06
-1.9006e-09
-2.51635e-09
5e-06
-1.7232e-11
5e-06
-5.24e-11
5.00001e-06
-8.82657e-11
5.00001e-06
-1.27175e-10
5.00002e-06
-1.6861e-10
5.00002e-06
-2.16129e-10
5.00003e-06
-2.67441e-10
5.00005e-06
-3.29128e-10
5.00006e-06
-3.9487e-10
5.00008e-06
-4.78261e-10
5.0001e-06
-5.63277e-10
5.00012e-06
-6.79843e-10
5.00015e-06
-7.88034e-10
5.00018e-06
-9.55381e-10
5.00022e-06
-1.08614e-09
5.00026e-06
-1.33388e-09
5.0003e-06
-1.47229e-09
5.00035e-06
-1.85445e-09
5.00039e-06
-1.94799e-09
-2.57234e-09
5e-06
-1.74897e-11
5e-06
-5.30236e-11
5e-06
-8.93552e-11
5e-06
-1.28728e-10
5.00001e-06
-1.70734e-10
5.00001e-06
-2.18783e-10
5.00001e-06
-2.70738e-10
5.00002e-06
-3.33123e-10
5.00002e-06
-3.99669e-10
5.00003e-06
-4.8402e-10
5.00003e-06
-5.70042e-10
5.00004e-06
-6.877e-10
5.00005e-06
-7.97161e-10
5.00006e-06
-9.65786e-10
5.00007e-06
-1.09799e-09
5.00009e-06
-1.34707e-09
5.0001e-06
-1.48681e-09
5.00012e-06
-1.86976e-09
5.00013e-06
-1.96518e-09
-2.58863e-09
5e-06
-1.73714e-11
5e-06
-5.2384e-11
5e-06
-8.82703e-11
5e-06
-1.27053e-10
4.99999e-06
-1.6857e-10
4.99999e-06
-2.16026e-10
4.99999e-06
-2.67429e-10
4.99998e-06
-3.29122e-10
4.99998e-06
-3.94869e-10
4.99997e-06
-4.78397e-10
4.99997e-06
-5.63334e-10
4.99996e-06
-6.79842e-10
4.99995e-06
-7.88065e-10
4.99994e-06
-9.55341e-10
4.99993e-06
-1.08609e-09
4.99991e-06
-1.33387e-09
4.9999e-06
-1.47229e-09
4.99988e-06
-1.85442e-09
4.99987e-06
-1.94801e-09
-2.57225e-09
5e-06
-1.67411e-11
5e-06
-5.05875e-11
4.99999e-06
-8.51193e-11
4.99999e-06
-1.22362e-10
4.99998e-06
-1.62221e-10
4.99998e-06
-2.07972e-10
4.99997e-06
-2.57504e-10
4.99995e-06
-3.17122e-10
4.99994e-06
-3.80457e-10
4.99992e-06
-4.61317e-10
4.9999e-06
-5.43266e-10
4.99988e-06
-6.56329e-10
4.99985e-06
-7.60805e-10
4.99982e-06
-9.24068e-10
4.99978e-06
-1.05068e-09
4.99974e-06
-1.29416e-09
4.9997e-06
-1.4285e-09
4.99965e-06
-1.80721e-09
4.99961e-06
-1.90056e-09
-2.51621e-09
5e-06
-1.56129e-11
5e-06
-4.75573e-11
4.99999e-06
-8.00779e-11
4.99998e-06
-1.14963e-10
4.99997e-06
-1.52058e-10
4.99996e-06
-1.94967e-10
4.99994e-06
-2.41196e-10
4.99992e-06
-2.97243e-10
4.9999e-06
-3.56555e-10
4.99987e-06
-4.32753e-10
4.99984e-06
-5.09799e-10
4.9998e-06
-6.17126e-10
4.99975e-06
-7.15432e-10
4.9997e-06
-8.71694e-10
4.99964e-06
-9.91478e-10
4.99958e-06
-1.22742e-09
4.9995e-06
-1.35544e-09
4.99942e-06
-1.72643e-09
4.99933e-06
-1.81223e-09
-2.44194e-09
5e-06
-1.37964e-11
4.99999e-06
-4.30713e-11
4.99999e-06
-7.28359e-11
4.99998e-06
-1.04909e-10
4.99996e-06
-1.38737e-10
4.99995e-06
-1.7797e-10
4.99992e-06
-2.19788e-10
4.9999e-06
-2.70958e-10
4.99987e-06
-3.24683e-10
4.99983e-06
-3.94503e-10
4.99978e-06
-4.64181e-10
4.99973e-06
-5.63745e-10
4.99967e-06
-6.52844e-10
4.99959e-06
-7.99632e-10
4.99951e-06
-9.0833e-10
4.99942e-06
-1.13409e-09
4.99931e-06
-1.25101e-09
4.9992e-06
-1.61573e-09
4.99909e-06
-1.69725e-09
-2.29327e-09
5e-06
-1.16082e-11
4.99999e-06
-3.63919e-11
4.99998e-06
-6.19885e-11
4.99997e-06
-8.99281e-11
4.99995e-06
-1.19924e-10
4.99992e-06
-1.54437e-10
4.99989e-06
-1.91354e-10
4.99986e-06
-2.36334e-10
4.99982e-06
-2.83721e-10
4.99977e-06
-3.45549e-10
4.99971e-06
-4.06664e-10
4.99964e-06
-4.95493e-10
4.99957e-06
-5.74015e-10
4.99947e-06
-7.06972e-10
4.99937e-06
-8.03218e-10
4.99925e-06
-1.01225e-09
4.99911e-06
-1.11642e-09
4.99896e-06
-1.46141e-09
4.99879e-06
-1.53281e-09
-2.16251e-09
5e-06
-1.27069e-11
5e-06
-3.33021e-11
4.99999e-06
-5.42437e-11
4.99998e-06
-7.73679e-11
4.99996e-06
-1.01925e-10
4.99994e-06
-1.3021e-10
4.9999e-06
-1.60519e-10
4.99987e-06
-1.97846e-10
4.99982e-06
-2.36257e-10
4.99976e-06
-2.88942e-10
4.99969e-06
-3.3838e-10
4.99961e-06
-4.15165e-10
4.99952e-06
-4.78225e-10
4.99941e-06
-5.96204e-10
4.99928e-06
-6.72584e-10
4.99913e-06
-8.64789e-10
4.99896e-06
-9.46818e-10
4.99878e-06
-1.27977e-09
4.99858e-06
-1.33135e-09
-1.8976e-09
4.99999e-06
-4.73013e-12
4.99998e-06
-2.03582e-11
4.99996e-06
-3.75318e-11
4.99994e-06
-5.6606e-11
4.99992e-06
-7.64621e-11
4.99988e-06
-9.90824e-11
4.99985e-06
-1.23244e-10
4.9998e-06
-1.53046e-10
4.99975e-06
-1.82613e-10
4.99968e-06
-2.23953e-10
4.99961e-06
-2.62459e-10
4.99952e-06
-3.23282e-10
4.99941e-06
-3.71899e-10
4.99928e-06
-4.6741e-10
4.99913e-06
-5.25696e-10
4.99895e-06
-6.86615e-10
4.99876e-06
-7.47928e-10
4.99852e-06
-1.04099e-09
4.99827e-06
-1.0832e-09
-1.68923e-09
5.00001e-06
-1.17645e-11
5.00001e-06
-1.89672e-11
5e-06
-2.92591e-11
4.99998e-06
-4.19237e-11
4.99996e-06
-5.41959e-11
4.99993e-06
-6.93042e-11
4.99989e-06
-8.38456e-11
4.99984e-06
-1.04049e-10
4.99979e-06
-1.23824e-10
4.99971e-06
-1.53271e-10
4.99963e-06
-1.77174e-10
4.99953e-06
-2.22078e-10
4.99941e-06
-2.50292e-10
4.99926e-06
-3.24037e-10
4.99909e-06
-3.53937e-10
4.99889e-06
-4.85989e-10
4.99865e-06
-5.09246e-10
4.99838e-06
-7.67665e-10
4.99805e-06
-7.59834e-10
-1.26155e-09
4.99998e-06
1.00573e-11
4.99996e-06
-4.3468e-12
4.99995e-06
-1.29719e-11
4.99992e-06
-1.95923e-11
4.9999e-06
-2.64439e-11
4.99986e-06
-3.6581e-11
4.99982e-06
-3.42847e-11
4.99977e-06
-6.27884e-11
4.99971e-06
-6.29029e-11
4.99963e-06
-7.81971e-11
4.99955e-06
-9.02645e-11
4.99944e-06
-1.14108e-10
4.99932e-06
-1.26985e-10
4.99916e-06
-1.67888e-10
4.99898e-06
-1.78188e-10
4.99875e-06
-2.56933e-10
4.9985e-06
-2.56293e-10
4.99817e-06
-4.31736e-10
4.99782e-06
-4.1419e-10
-8.91602e-10
5.00001e-06
5.00001e-06
4.99999e-06
4.99997e-06
4.99995e-06
4.99991e-06
4.99987e-06
4.99982e-06
4.99975e-06
4.99968e-06
4.99959e-06
4.99947e-06
4.99934e-06
4.99918e-06
4.999e-06
4.99874e-06
4.99848e-06
4.99805e-06
4.99764e-06
)
;

boundaryField
{
    sides
    {
        type            calculated;
        value           uniform 0;
    }
    inlet
    {
        type            calculated;
        value           nonuniform List<scalar> 
20
(
-5e-06
-5e-06
-5e-06
-5e-06
-5e-06
-5e-06
-5e-06
-5e-06
-5e-06
-5e-06
-5e-06
-5e-06
-5e-06
-5e-06
-5e-06
-5e-06
-5e-06
-5e-06
-5e-06
-5e-06
)
;
    }
    outlet
    {
        type            calculated;
        value           nonuniform List<scalar> 
20
(
5.00325e-06
5.00255e-06
5.00237e-06
5.00194e-06
5.00169e-06
5.00134e-06
5.00106e-06
5.00074e-06
5.00045e-06
5.00015e-06
4.99985e-06
4.99955e-06
4.99926e-06
4.99894e-06
4.99866e-06
4.99831e-06
4.99806e-06
4.99763e-06
4.99745e-06
4.99675e-06
)
;
    }
    frontAndBack
    {
        type            empty;
        value           nonuniform 0();
    }
}


// ************************************************************************* //
