/*--------------------------------*- C++ -*----------------------------------*\
  =========                 |
  \\      /  F ield         | OpenFOAM: The Open Source CFD Toolbox
   \\    /   O peration     | Website:  https://openfoam.org
    \\  /    A nd           | Version:  7
     \\/     M anipulation  |
\*---------------------------------------------------------------------------*/
FoamFile
{
    version     2.0;
    format      ascii;
    class       surfaceScalarField;
    location    "100";
    object      phi_0;
}
// * * * * * * * * * * * * * * * * * * * * * * * * * * * * * * * * * * * * * //

dimensions      [0 4 -1 0 0 0 0];

internalField   nonuniform List<scalar> 
760
(
4.99999e-06
1.00554e-11
4.99999e-06
-4.36976e-12
5.00001e-06
-1.28512e-11
5.00003e-06
-1.93863e-11
5.00005e-06
-2.68662e-11
5.00009e-06
-3.09538e-11
5.00013e-06
-3.86342e-11
5.00018e-06
-5.58297e-11
5.00025e-06
-6.26891e-11
5.00032e-06
-7.80513e-11
5.00041e-06
-9.00233e-11
5.00053e-06
-1.13948e-10
5.00066e-06
-1.26889e-10
5.00082e-06
-1.6783e-10
5.001e-06
-1.7806e-10
5.00126e-06
-2.56859e-10
5.00151e-06
-2.56201e-10
5.00195e-06
-4.31781e-10
5.00236e-06
-4.14178e-10
-8.91628e-10
5.00002e-06
-1.17314e-11
5.00004e-06
-1.89529e-11
5.00005e-06
-2.93222e-11
5.00007e-06
-4.17031e-11
5.0001e-06
-5.42611e-11
5.00014e-06
-6.92004e-11
5.00018e-06
-8.41122e-11
5.00023e-06
-1.04357e-10
5.00029e-06
-1.23618e-10
5.00037e-06
-1.53185e-10
5.00045e-06
-1.77017e-10
5.00056e-06
-2.22069e-10
5.00069e-06
-2.50314e-10
5.00084e-06
-3.24108e-10
5.00102e-06
-3.53882e-10
5.00125e-06
-4.86093e-10
5.0015e-06
-5.09269e-10
5.00184e-06
-7.67981e-10
5.00218e-06
-7.59994e-10
-1.26205e-09
4.99999e-06
-4.58996e-12
4.99999e-06
-2.03129e-11
5e-06
-3.76045e-11
5.00002e-06
-5.6682e-11
5.00004e-06
-7.6384e-11
5.00007e-06
-9.92001e-11
5.00011e-06
-1.22328e-10
5.00016e-06
-1.52151e-10
5.00021e-06
-1.82666e-10
5.00029e-06
-2.23871e-10
5.00037e-06
-2.62398e-10
5.00047e-06
-3.23348e-10
5.00059e-06
-3.71914e-10
5.00074e-06
-4.67421e-10
5.00091e-06
-5.2564e-10
5.00111e-06
-6.86718e-10
5.00135e-06
-7.47968e-10
5.00162e-06
-1.04122e-09
5.00194e-06
-1.08328e-09
-1.68961e-09
5.00001e-06
-1.26351e-11
5.00002e-06
-3.32781e-11
5.00004e-06
-5.42623e-11
5.00006e-06
-7.7602e-11
5.00008e-06
-1.01813e-10
5.00012e-06
-1.30483e-10
5.00015e-06
-1.60162e-10
5.0002e-06
-1.98244e-10
5.00025e-06
-2.36345e-10
5.00032e-06
-2.8889e-10
5.00039e-06
-3.38521e-10
5.00048e-06
-4.15328e-10
5.00059e-06
-4.78248e-10
5.00072e-06
-5.96244e-10
5.00087e-06
-6.72625e-10
5.00105e-06
-8.64997e-10
5.00124e-06
-9.46935e-10
5.00148e-06
-1.28003e-09
5.00173e-06
-1.33152e-09
-1.89811e-09
5e-06
-1.16869e-11
5e-06
-3.64347e-11
5.00001e-06
-6.19344e-11
5.00002e-06
-8.99822e-11
5.00004e-06
-1.19903e-10
5.00006e-06
-1.5436e-10
5.0001e-06
-1.91442e-10
5.00013e-06
-2.36561e-10
5.00018e-06
-2.83618e-10
5.00024e-06
-3.4567e-10
5.00031e-06
-4.06855e-10
5.00039e-06
-4.95554e-10
5.00048e-06
-5.73958e-10
5.00059e-06
-7.06987e-10
5.00072e-06
-8.03279e-10
5.00087e-06
-1.01244e-09
5.00104e-06
-1.11651e-09
5.00122e-06
-1.46162e-09
5.00142e-06
-1.53295e-09
-2.16295e-09
5e-06
-1.39438e-11
5.00001e-06
-4.31356e-11
5.00002e-06
-7.28082e-11
5.00003e-06
-1.04723e-10
5.00005e-06
-1.38785e-10
5.00008e-06
-1.77807e-10
5.00011e-06
-2.19923e-10
5.00014e-06
-2.70945e-10
5.00018e-06
-3.24705e-10
5.00023e-06
-3.94727e-10
5.00029e-06
-4.64224e-10
5.00036e-06
-5.63681e-10
5.00043e-06
-6.52806e-10
5.00053e-06
-7.99686e-10
5.00063e-06
-9.08405e-10
5.00075e-06
-1.13425e-09
5.00089e-06
-1.25111e-09
5.00104e-06
-1.61596e-09
5.00121e-06
-1.69746e-09
-2.29369e-09
5e-06
-1.56837e-11
5.00001e-06
-4.75408e-11
5.00001e-06
-8.01059e-11
5.00002e-06
-1.14827e-10
5.00004e-06
-1.52006e-10
5.00005e-06
-1.94912e-10
5.00008e-06
-2.41271e-10
5.0001e-06
-2.97196e-10
5.00013e-06
-3.56635e-10
5.00017e-06
-4.32763e-10
5.00022e-06
-5.09634e-10
5.00027e-06
-6.17051e-10
5.00033e-06
-7.15462e-10
5.00041e-06
-8.71765e-10
5.00049e-06
-9.9149e-10
5.00058e-06
-1.22747e-09
5.00069e-06
-1.35549e-09
5.0008e-06
-1.72663e-09
5.00091e-06
-1.81239e-09
-2.44229e-09
5e-06
-1.66649e-11
5e-06
-5.05444e-11
5.00001e-06
-8.50998e-11
5.00002e-06
-1.22451e-10
5.00003e-06
-1.62239e-10
5.00004e-06
-2.08074e-10
5.00006e-06
-2.57532e-10
5.00008e-06
-3.17129e-10
5.0001e-06
-3.8047e-10
5.00013e-06
-4.61177e-10
5.00016e-06
-5.43163e-10
5.0002e-06
-6.5633e-10
5.00025e-06
-7.60835e-10
5.0003e-06
-9.24141e-10
5.00036e-06
-1.05068e-09
5.00042e-06
-1.29415e-09
5.0005e-06
-1.42852e-09
5.00058e-06
-1.80738e-09
5.00067e-06
-1.90069e-09
-2.5164e-09
5e-06
-1.72215e-11
5e-06
-5.23807e-11
5.00001e-06
-8.82602e-11
5.00001e-06
-1.27185e-10
5.00002e-06
-1.68651e-10
5.00002e-06
-2.16172e-10
5.00003e-06
-2.67458e-10
5.00005e-06
-3.29175e-10
5.00006e-06
-3.94845e-10
5.00008e-06
-4.783e-10
5.0001e-06
-5.63323e-10
5.00012e-06
-6.79816e-10
5.00015e-06
-7.88043e-10
5.00018e-06
-9.55422e-10
5.00022e-06
-1.08613e-09
5.00026e-06
-1.33383e-09
5.0003e-06
-1.47227e-09
5.00035e-06
-1.8545e-09
5.00039e-06
-1.94807e-09
-2.57238e-09
5e-06
-1.74845e-11
5e-06
-5.30195e-11
5e-06
-8.93584e-11
5e-06
-1.28729e-10
5.00001e-06
-1.70736e-10
5.00001e-06
-2.18787e-10
5.00001e-06
-2.70741e-10
5.00002e-06
-3.33144e-10
5.00002e-06
-3.99668e-10
5.00003e-06
-4.84029e-10
5.00003e-06
-5.70043e-10
5.00004e-06
-6.87676e-10
5.00005e-06
-7.9715e-10
5.00006e-06
-9.65786e-10
5.00007e-06
-1.09798e-09
5.00009e-06
-1.34706e-09
5.0001e-06
-1.48683e-09
5.00012e-06
-1.86978e-09
5.00013e-06
-1.9652e-09
-2.58864e-09
5e-06
-1.73722e-11
5e-06
-5.24043e-11
5e-06
-8.82693e-11
5e-06
-1.27052e-10
4.99999e-06
-1.68531e-10
4.99999e-06
-2.16005e-10
4.99999e-06
-2.67429e-10
4.99998e-06
-3.29113e-10
4.99998e-06
-3.94909e-10
4.99997e-06
-4.78363e-10
4.99997e-06
-5.63293e-10
4.99996e-06
-6.79848e-10
4.99995e-06
-7.88028e-10
4.99994e-06
-9.55285e-10
4.99993e-06
-1.08609e-09
4.99991e-06
-1.33392e-09
4.9999e-06
-1.47233e-09
4.99988e-06
-1.85439e-09
4.99987e-06
-1.94796e-09
-2.57223e-09
5e-06
-1.67707e-11
5e-06
-5.05802e-11
4.99999e-06
-8.51207e-11
4.99999e-06
-1.22322e-10
4.99998e-06
-1.62205e-10
4.99998e-06
-2.07953e-10
4.99997e-06
-2.57549e-10
4.99995e-06
-3.17117e-10
4.99994e-06
-3.80529e-10
4.99992e-06
-4.61326e-10
4.9999e-06
-5.43203e-10
4.99988e-06
-6.56319e-10
4.99985e-06
-7.60801e-10
4.99982e-06
-9.24042e-10
4.99978e-06
-1.05067e-09
4.99974e-06
-1.29419e-09
4.9997e-06
-1.42853e-09
4.99965e-06
-1.80719e-09
4.99961e-06
-1.90051e-09
-2.51618e-09
5e-06
-1.56376e-11
5e-06
-4.75552e-11
4.99999e-06
-8.00744e-11
4.99998e-06
-1.14905e-10
4.99997e-06
-1.52116e-10
4.99996e-06
-1.94955e-10
4.99994e-06
-2.41266e-10
4.99992e-06
-2.97266e-10
4.9999e-06
-3.56581e-10
4.99987e-06
-4.32848e-10
4.99984e-06
-5.09805e-10
4.9998e-06
-6.17074e-10
4.99975e-06
-7.15419e-10
4.9997e-06
-8.71701e-10
4.99964e-06
-9.91468e-10
4.99958e-06
-1.22742e-09
4.9995e-06
-1.35546e-09
4.99942e-06
-1.72643e-09
4.99933e-06
-1.81221e-09
-2.44192e-09
5e-06
-1.37946e-11
4.99999e-06
-4.30765e-11
4.99999e-06
-7.2818e-11
4.99998e-06
-1.04965e-10
4.99996e-06
-1.38778e-10
4.99995e-06
-1.77961e-10
4.99992e-06
-2.19792e-10
4.9999e-06
-2.71014e-10
4.99987e-06
-3.24601e-10
4.99983e-06
-3.94533e-10
4.99978e-06
-4.64264e-10
4.99973e-06
-5.63744e-10
4.99967e-06
-6.52824e-10
4.99959e-06
-7.99625e-10
4.99951e-06
-9.08316e-10
4.99942e-06
-1.13408e-09
4.99931e-06
-1.25102e-09
4.9992e-06
-1.61576e-09
4.99909e-06
-1.69728e-09
-2.29329e-09
5e-06
-1.15653e-11
4.99999e-06
-3.63974e-11
4.99998e-06
-6.20197e-11
4.99997e-06
-9.00358e-11
4.99995e-06
-1.19841e-10
4.99992e-06
-1.54557e-10
4.99989e-06
-1.91242e-10
4.99986e-06
-2.36464e-10
4.99982e-06
-2.83684e-10
4.99977e-06
-3.45459e-10
4.99971e-06
-4.0669e-10
4.99964e-06
-4.95532e-10
4.99957e-06
-5.74017e-10
4.99947e-06
-7.06961e-10
4.99937e-06
-8.03212e-10
4.99925e-06
-1.01224e-09
4.99911e-06
-1.11642e-09
4.99896e-06
-1.46144e-09
4.99879e-06
-1.53288e-09
-2.16255e-09
5e-06
-1.26369e-11
5e-06
-3.33011e-11
4.99999e-06
-5.43026e-11
4.99998e-06
-7.73994e-11
4.99996e-06
-1.01865e-10
4.99994e-06
-1.30352e-10
4.9999e-06
-1.60241e-10
4.99987e-06
-1.97703e-10
4.99982e-06
-2.36362e-10
4.99976e-06
-2.88856e-10
4.99969e-06
-3.38324e-10
4.99961e-06
-4.15184e-10
4.99952e-06
-4.78238e-10
4.99941e-06
-5.96201e-10
4.99928e-06
-6.72585e-10
4.99913e-06
-8.64782e-10
4.99896e-06
-9.4681e-10
4.99878e-06
-1.27979e-09
4.99858e-06
-1.3314e-09
-1.89763e-09
4.99999e-06
-4.71506e-12
4.99998e-06
-2.0359e-11
4.99996e-06
-3.75429e-11
4.99994e-06
-5.65305e-11
4.99992e-06
-7.65274e-11
4.99989e-06
-9.90373e-11
4.99985e-06
-1.23295e-10
4.9998e-06
-1.5261e-10
4.99975e-06
-1.82526e-10
4.99968e-06
-2.23958e-10
4.99961e-06
-2.62401e-10
4.99952e-06
-3.23261e-10
4.99941e-06
-3.71899e-10
4.99928e-06
-4.67411e-10
4.99913e-06
-5.25699e-10
4.99895e-06
-6.86615e-10
4.99876e-06
-7.47923e-10
4.99852e-06
-1.04099e-09
4.99827e-06
-1.08321e-09
-1.68923e-09
5.00001e-06
-1.18989e-11
5.00001e-06
-1.89504e-11
5e-06
-2.91645e-11
4.99998e-06
-4.17938e-11
4.99996e-06
-5.43948e-11
4.99993e-06
-6.89691e-11
4.99989e-06
-8.50523e-11
4.99984e-06
-1.05148e-10
4.99979e-06
-1.23823e-10
4.99971e-06
-1.53308e-10
4.99963e-06
-1.77159e-10
4.99953e-06
-2.22043e-10
4.99941e-06
-2.50277e-10
4.99926e-06
-3.24039e-10
4.99909e-06
-3.53943e-10
4.99889e-06
-4.85997e-10
4.99865e-06
-5.0925e-10
4.99838e-06
-7.67651e-10
4.99805e-06
-7.59815e-10
-1.26155e-09
4.99998e-06
9.94679e-12
4.99996e-06
-4.31295e-12
4.99995e-06
-1.28637e-11
4.99992e-06
-1.96299e-11
4.9999e-06
-2.6474e-11
4.99986e-06
-3.26429e-11
4.99982e-06
-4.31402e-11
4.99977e-06
-4.50875e-11
4.99971e-06
-6.25263e-11
4.99963e-06
-7.83032e-11
4.99955e-06
-9.02788e-11
4.99944e-06
-1.1408e-10
4.99932e-06
-1.26971e-10
4.99916e-06
-1.67892e-10
4.99898e-06
-1.78193e-10
4.99875e-06
-2.56938e-10
4.9985e-06
-2.56296e-10
4.99817e-06
-4.31724e-10
4.99782e-06
-4.14173e-10
-8.91595e-10
5.00001e-06
5.00001e-06
4.99999e-06
4.99997e-06
4.99995e-06
4.99991e-06
4.99987e-06
4.99982e-06
4.99975e-06
4.99968e-06
4.99959e-06
4.99947e-06
4.99934e-06
4.99918e-06
4.999e-06
4.99874e-06
4.99848e-06
4.99805e-06
4.99764e-06
)
;

boundaryField
{
    sides
    {
        type            calculated;
        value           uniform 0;
    }
    inlet
    {
        type            calculated;
        value           nonuniform List<scalar> 
20
(
-5e-06
-5e-06
-5e-06
-5e-06
-5e-06
-5e-06
-5e-06
-5e-06
-5e-06
-5e-06
-5e-06
-5e-06
-5e-06
-5e-06
-5e-06
-5e-06
-5e-06
-5e-06
-5e-06
-5e-06
)
;
    }
    outlet
    {
        type            calculated;
        value           nonuniform List<scalar> 
20
(
5.00325e-06
5.00255e-06
5.00237e-06
5.00194e-06
5.00169e-06
5.00134e-06
5.00106e-06
5.00074e-06
5.00045e-06
5.00015e-06
4.99985e-06
4.99955e-06
4.99926e-06
4.99894e-06
4.99866e-06
4.99831e-06
4.99806e-06
4.99763e-06
4.99745e-06
4.99675e-06
)
;
    }
    frontAndBack
    {
        type            empty;
        value           nonuniform 0();
    }
}


// ************************************************************************* //
