/*--------------------------------*- C++ -*----------------------------------*\
  =========                 |
  \\      /  F ield         | OpenFOAM: The Open Source CFD Toolbox
   \\    /   O peration     | Website:  https://openfoam.org
    \\  /    A nd           | Version:  7
     \\/     M anipulation  |
\*---------------------------------------------------------------------------*/
FoamFile
{
    version     2.0;
    format      ascii;
    class       volVectorField;
    location    "100";
    object      U;
}
// * * * * * * * * * * * * * * * * * * * * * * * * * * * * * * * * * * * * * //

dimensions      [0 1 -1 0 0 0 0];

internalField   nonuniform List<vector> 
400
(
(0.0999931 -8.73253e-07 0)
(0.099993 -2.37644e-06 0)
(0.0999931 -3.59905e-06 0)
(0.0999934 -4.67097e-06 0)
(0.0999939 -5.69353e-06 0)
(0.0999947 -6.74531e-06 0)
(0.0999955 -7.82014e-06 0)
(0.0999966 -8.92581e-06 0)
(0.0999978 -9.99358e-06 0)
(0.0999996 -1.11903e-05 0)
(0.100001 -1.22637e-05 0)
(0.100004 -1.36148e-05 0)
(0.100006 -1.46516e-05 0)
(0.10001 -1.63335e-05 0)
(0.100013 -1.72159e-05 0)
(0.10002 -1.9629e-05 0)
(0.100022 -2.00794e-05 0)
(0.100035 -2.43032e-05 0)
(0.100036 -2.39172e-05 0)
(0.10006 -3.31846e-05 0)
(0.0999943 3.97186e-07 0)
(0.0999947 1.20935e-06 0)
(0.0999952 2.0243e-06 0)
(0.0999958 2.79697e-06 0)
(0.0999963 3.51255e-06 0)
(0.099997 4.16497e-06 0)
(0.0999978 4.75813e-06 0)
(0.0999988 5.30013e-06 0)
(0.1 5.84245e-06 0)
(0.100002 6.23154e-06 0)
(0.100003 6.69719e-06 0)
(0.100006 6.85761e-06 0)
(0.100008 7.26744e-06 0)
(0.100012 6.98612e-06 0)
(0.100014 7.40208e-06 0)
(0.10002 6.16766e-06 0)
(0.100024 6.71654e-06 0)
(0.100033 3.17664e-06 0)
(0.100036 3.98593e-06 0)
(0.10005 -5.45829e-06 0)
(0.0999948 -3.96814e-07 0)
(0.0999947 -1.30209e-06 0)
(0.0999947 -2.30645e-06 0)
(0.0999949 -3.36559e-06 0)
(0.0999953 -4.41976e-06 0)
(0.0999959 -5.49637e-06 0)
(0.0999967 -6.56146e-06 0)
(0.0999977 -7.73054e-06 0)
(0.0999988 -8.88534e-06 0)
(0.1 -1.0253e-05 0)
(0.100002 -1.15259e-05 0)
(0.100004 -1.32412e-05 0)
(0.100006 -1.46506e-05 0)
(0.10001 -1.70014e-05 0)
(0.100013 -1.85114e-05 0)
(0.100018 -2.21118e-05 0)
(0.100021 -2.35673e-05 0)
(0.100029 -2.97577e-05 0)
(0.100032 -3.06214e-05 0)
(0.100046 -4.22171e-05 0)
(0.0999956 -1.36307e-08 0)
(0.0999958 -3.29059e-09 0)
(0.0999962 5.99886e-08 0)
(0.0999966 1.30578e-07 0)
(0.0999972 2.01078e-07 0)
(0.0999978 1.91548e-07 0)
(0.0999986 1.58614e-07 0)
(0.0999995 -3.0271e-08 0)
(0.100001 -2.39618e-07 0)
(0.100002 -7.07499e-07 0)
(0.100003 -1.12294e-06 0)
(0.100005 -2.04873e-06 0)
(0.100007 -2.71724e-06 0)
(0.10001 -4.42576e-06 0)
(0.100013 -5.35282e-06 0)
(0.100017 -8.49608e-06 0)
(0.10002 -9.54802e-06 0)
(0.100027 -1.54669e-05 0)
(0.100029 -1.60977e-05 0)
(0.100039 -2.75863e-05 0)
(0.0999962 -2.89753e-07 0)
(0.0999963 -9.23185e-07 0)
(0.0999964 -1.63044e-06 0)
(0.0999966 -2.43702e-06 0)
(0.0999969 -3.30301e-06 0)
(0.0999974 -4.27514e-06 0)
(0.099998 -5.28204e-06 0)
(0.0999988 -6.45361e-06 0)
(0.0999997 -7.6474e-06 0)
(0.100001 -9.12359e-06 0)
(0.100002 -1.05626e-05 0)
(0.100004 -1.25409e-05 0)
(0.100006 -1.42727e-05 0)
(0.100008 -1.70912e-05 0)
(0.100011 -1.9121e-05 0)
(0.100014 -2.3431e-05 0)
(0.100017 -2.55778e-05 0)
(0.100022 -3.2655e-05 0)
(0.100024 -3.41554e-05 0)
(0.100033 -4.64409e-05 0)
(0.0999969 -2.57311e-07 0)
(0.099997 -7.54133e-07 0)
(0.0999972 -1.22061e-06 0)
(0.0999975 -1.69412e-06 0)
(0.0999979 -2.17001e-06 0)
(0.0999984 -2.72442e-06 0)
(0.099999 -3.31851e-06 0)
(0.0999997 -4.08537e-06 0)
(0.1 -4.89263e-06 0)
(0.100002 -6.01619e-06 0)
(0.100003 -7.13064e-06 0)
(0.100004 -8.82474e-06 0)
(0.100006 -1.03179e-05 0)
(0.100008 -1.29439e-05 0)
(0.10001 -1.4832e-05 0)
(0.100013 -1.90264e-05 0)
(0.100015 -2.11001e-05 0)
(0.100019 -2.80517e-05 0)
(0.100021 -2.9458e-05 0)
(0.100027 -4.15007e-05 0)
(0.0999976 -2.90707e-07 0)
(0.0999977 -8.8832e-07 0)
(0.0999978 -1.51678e-06 0)
(0.099998 -2.21921e-06 0)
(0.0999983 -2.99169e-06 0)
(0.0999986 -3.89033e-06 0)
(0.0999991 -4.87009e-06 0)
(0.0999996 -6.04637e-06 0)
(0.1 -7.28917e-06 0)
(0.100001 -8.86839e-06 0)
(0.100002 -1.04514e-05 0)
(0.100003 -1.26382e-05 0)
(0.100004 -1.46323e-05 0)
(0.100006 -1.77836e-05 0)
(0.100007 -2.01816e-05 0)
(0.10001 -2.49185e-05 0)
(0.100011 -2.74711e-05 0)
(0.100015 -3.49554e-05 0)
(0.100016 -3.67265e-05 0)
(0.100021 -4.92206e-05 0)
(0.0999983 -3.19549e-07 0)
(0.0999984 -9.75772e-07 0)
(0.0999985 -1.65573e-06 0)
(0.0999986 -2.39272e-06 0)
(0.0999988 -3.177e-06 0)
(0.099999 -4.06552e-06 0)
(0.0999994 -5.01488e-06 0)
(0.0999998 -6.14922e-06 0)
(0.1 -7.34847e-06 0)
(0.100001 -8.88336e-06 0)
(0.100002 -1.04335e-05 0)
(0.100002 -1.25987e-05 0)
(0.100003 -1.45896e-05 0)
(0.100004 -1.77437e-05 0)
(0.100005 -2.01708e-05 0)
(0.100007 -2.49232e-05 0)
(0.100008 -2.75238e-05 0)
(0.100011 -3.49816e-05 0)
(0.100012 -3.67657e-05 0)
(0.100015 -4.90842e-05 0)
(0.099999 -3.35909e-07 0)
(0.099999 -1.02514e-06 0)
(0.0999991 -1.73406e-06 0)
(0.0999992 -2.50043e-06 0)
(0.0999993 -3.31408e-06 0)
(0.0999994 -4.24426e-06 0)
(0.0999996 -5.24798e-06 0)
(0.0999999 -6.45767e-06 0)
(0.1 -7.74964e-06 0)
(0.100001 -9.39633e-06 0)
(0.100001 -1.10757e-05 0)
(0.100001 -1.33895e-05 0)
(0.100002 -1.55357e-05 0)
(0.100003 -1.88685e-05 0)
(0.100003 -2.14677e-05 0)
(0.100004 -2.64178e-05 0)
(0.100005 -2.91758e-05 0)
(0.100006 -3.68336e-05 0)
(0.100007 -3.87208e-05 0)
(0.100009 -5.12489e-05 0)
(0.0999997 -3.44081e-07 0)
(0.0999997 -1.04895e-06 0)
(0.0999997 -1.77298e-06 0)
(0.0999997 -2.55724e-06 0)
(0.0999998 -3.39297e-06 0)
(0.0999998 -4.35079e-06 0)
(0.0999999 -5.3876e-06 0)
(0.1 -6.63459e-06 0)
(0.1 -7.9657e-06 0)
(0.1 -9.65196e-06 0)
(0.1 -1.13719e-05 0)
(0.1 -1.37231e-05 0)
(0.100001 -1.59095e-05 0)
(0.100001 -1.92783e-05 0)
(0.100001 -2.192e-05 0)
(0.100001 -2.68984e-05 0)
(0.100002 -2.96961e-05 0)
(0.100002 -3.73599e-05 0)
(0.100002 -3.92773e-05 0)
(0.100003 -5.17477e-05 0)
(0.1 -3.45458e-07 0)
(0.1 -1.04884e-06 0)
(0.1 -1.77307e-06 0)
(0.1 -2.5561e-06 0)
(0.1 -3.3926e-06 0)
(0.1 -4.34974e-06 0)
(0.1 -5.38747e-06 0)
(0.1 -6.63452e-06 0)
(0.0999999 -7.9657e-06 0)
(0.0999998 -9.65337e-06 0)
(0.0999997 -1.13725e-05 0)
(0.0999995 -1.37231e-05 0)
(0.0999993 -1.59099e-05 0)
(0.0999991 -1.9278e-05 0)
(0.0999989 -2.19195e-05 0)
(0.0999986 -2.68985e-05 0)
(0.0999983 -2.96964e-05 0)
(0.0999979 -3.736e-05 0)
(0.0999977 -3.92777e-05 0)
(0.0999971 -5.17477e-05 0)
(0.100001 -3.37801e-07 0)
(0.100001 -1.0255e-06 0)
(0.100001 -1.73424e-06 0)
(0.100001 -2.49903e-06 0)
(0.100001 -3.31382e-06 0)
(0.100001 -4.24282e-06 0)
(0.1 -5.24752e-06 0)
(0.1 -6.45785e-06 0)
(0.0999998 -7.74928e-06 0)
(0.0999995 -9.39903e-06 0)
(0.0999991 -1.10779e-05 0)
(0.0999985 -1.33897e-05 0)
(0.099998 -1.55356e-05 0)
(0.0999973 -1.88672e-05 0)
(0.0999967 -2.14668e-05 0)
(0.0999957 -2.64171e-05 0)
(0.099995 -2.91749e-05 0)
(0.0999936 -3.68308e-05 0)
(0.0999932 -3.87193e-05 0)
(0.0999912 -5.12442e-05 0)
(0.100002 -3.19185e-07 0)
(0.100002 -9.7631e-07 0)
(0.100002 -1.65578e-06 0)
(0.100001 -2.39432e-06 0)
(0.100001 -3.17745e-06 0)
(0.100001 -4.06617e-06 0)
(0.100001 -5.01378e-06 0)
(0.1 -6.14989e-06 0)
(0.0999997 -7.34783e-06 0)
(0.0999991 -8.88425e-06 0)
(0.0999985 -1.04371e-05 0)
(0.0999976 -1.2601e-05 0)
(0.0999968 -1.459e-05 0)
(0.0999956 -1.77436e-05 0)
(0.0999945 -2.01725e-05 0)
(0.0999929 -2.49249e-05 0)
(0.0999917 -2.75249e-05 0)
(0.0999894 -3.49816e-05 0)
(0.0999885 -3.67673e-05 0)
(0.0999853 -4.9084e-05 0)
(0.100002 -2.88386e-07 0)
(0.100002 -8.87742e-07 0)
(0.100002 -1.51726e-06 0)
(0.100002 -2.22229e-06 0)
(0.100002 -2.99189e-06 0)
(0.100001 -3.89258e-06 0)
(0.100001 -4.86824e-06 0)
(0.1 -6.04564e-06 0)
(0.0999998 -7.28858e-06 0)
(0.099999 -8.8648e-06 0)
(0.0999981 -1.04508e-05 0)
(0.0999969 -1.26388e-05 0)
(0.0999957 -1.46315e-05 0)
(0.0999941 -1.77809e-05 0)
(0.0999926 -2.01797e-05 0)
(0.0999903 -2.49145e-05 0)
(0.0999887 -2.74672e-05 0)
(0.0999853 -3.49474e-05 0)
(0.0999843 -3.67194e-05 0)
(0.0999793 -4.92068e-05 0)
(0.100003 -2.55234e-07 0)
(0.100003 -7.5322e-07 0)
(0.100003 -1.22181e-06 0)
(0.100002 -1.69493e-06 0)
(0.100002 -2.1712e-06 0)
(0.100002 -2.72619e-06 0)
(0.100001 -3.31907e-06 0)
(0.1 -4.08295e-06 0)
(0.0999995 -4.89446e-06 0)
(0.0999985 -6.01469e-06 0)
(0.0999973 -7.12871e-06 0)
(0.0999959 -8.82557e-06 0)
(0.0999944 -1.03203e-05 0)
(0.0999923 -1.29454e-05 0)
(0.0999904 -1.48331e-05 0)
(0.0999874 -1.90265e-05 0)
(0.0999853 -2.11016e-05 0)
(0.0999811 -2.80519e-05 0)
(0.0999793 -2.94583e-05 0)
(0.0999733 -4.14989e-05 0)
(0.100004 -2.90872e-07 0)
(0.100004 -9.23231e-07 0)
(0.100004 -1.62988e-06 0)
(0.100003 -2.4332e-06 0)
(0.100003 -3.30423e-06 0)
(0.100003 -4.27185e-06 0)
(0.100002 -5.28667e-06 0)
(0.100001 -6.44984e-06 0)
(0.1 -7.6462e-06 0)
(0.0999991 -9.12344e-06 0)
(0.0999978 -1.05593e-05 0)
(0.099996 -1.25375e-05 0)
(0.0999942 -1.42722e-05 0)
(0.0999916 -1.70896e-05 0)
(0.0999895 -1.91192e-05 0)
(0.0999856 -2.34258e-05 0)
(0.0999833 -2.5575e-05 0)
(0.0999776 -3.26472e-05 0)
(0.099976 -3.41491e-05 0)
(0.0999673 -4.6425e-05 0)
(0.100004 -1.7417e-08 0)
(0.100004 -5.0138e-09 0)
(0.100004 6.20178e-08 0)
(0.100003 1.34721e-07 0)
(0.100003 1.98653e-07 0)
(0.100002 1.96136e-07 0)
(0.100001 1.45854e-07 0)
(0.100001 -3.70064e-08 0)
(0.0999994 -2.39432e-07 0)
(0.0999981 -7.09337e-07 0)
(0.0999966 -1.12284e-06 0)
(0.0999946 -2.04678e-06 0)
(0.0999926 -2.71695e-06 0)
(0.0999897 -4.42577e-06 0)
(0.0999871 -5.3531e-06 0)
(0.0999828 -8.49418e-06 0)
(0.0999798 -9.54718e-06 0)
(0.0999734 -1.54639e-05 0)
(0.0999707 -1.60956e-05 0)
(0.0999614 -2.75804e-05 0)
(0.100005 -3.97516e-07 0)
(0.100005 -1.30311e-06 0)
(0.100005 -2.30608e-06 0)
(0.100005 -3.36731e-06 0)
(0.100005 -4.42139e-06 0)
(0.100004 -5.50021e-06 0)
(0.100003 -6.57497e-06 0)
(0.100002 -7.74011e-06 0)
(0.100001 -8.88858e-06 0)
(0.0999996 -1.02543e-05 0)
(0.099998 -1.15291e-05 0)
(0.0999957 -1.32423e-05 0)
(0.0999936 -1.4652e-05 0)
(0.0999901 -1.70023e-05 0)
(0.0999875 -1.85148e-05 0)
(0.0999821 -2.21119e-05 0)
(0.0999791 -2.35698e-05 0)
(0.0999706 -2.9755e-05 0)
(0.0999684 -3.06224e-05 0)
(0.0999544 -4.22097e-05 0)
(0.100006 3.99083e-07 0)
(0.100005 1.21045e-06 0)
(0.100005 2.0215e-06 0)
(0.100004 2.79042e-06 0)
(0.100004 3.52087e-06 0)
(0.100003 4.15846e-06 0)
(0.100002 4.79599e-06 0)
(0.100001 5.30788e-06 0)
(0.1 5.84168e-06 0)
(0.0999984 6.22948e-06 0)
(0.0999967 6.69305e-06 0)
(0.0999943 6.85654e-06 0)
(0.0999921 7.26838e-06 0)
(0.0999885 6.98856e-06 0)
(0.0999855 7.40281e-06 0)
(0.0999799 6.17126e-06 0)
(0.0999764 6.71943e-06 0)
(0.0999674 3.18497e-06 0)
(0.0999642 3.99215e-06 0)
(0.09995 -5.44552e-06 0)
(0.100007 -8.72752e-07 0)
(0.100007 -2.37601e-06 0)
(0.100007 -3.60209e-06 0)
(0.100007 -4.67615e-06 0)
(0.100006 -5.68782e-06 0)
(0.100005 -6.74936e-06 0)
(0.100005 -7.78129e-06 0)
(0.100003 -8.92079e-06 0)
(0.100002 -9.99798e-06 0)
(0.1 -1.11983e-05 0)
(0.0999988 -1.22729e-05 0)
(0.0999961 -1.36225e-05 0)
(0.0999941 -1.46584e-05 0)
(0.0999898 -1.63401e-05 0)
(0.0999874 -1.72236e-05 0)
(0.0999803 -1.96367e-05 0)
(0.0999779 -2.00874e-05 0)
(0.0999653 -2.43114e-05 0)
(0.0999638 -2.39254e-05 0)
(0.0999402 -3.31978e-05 0)
)
;

boundaryField
{
    sides
    {
        type            calculated;
        value           nonuniform List<vector> 
40
(
(0.100007 0 0)
(0.100007 0 0)
(0.100007 0 0)
(0.100007 0 0)
(0.100006 0 0)
(0.100005 0 0)
(0.100005 0 0)
(0.100003 0 0)
(0.100002 0 0)
(0.1 0 0)
(0.0999988 0 0)
(0.0999961 0 0)
(0.0999941 0 0)
(0.0999898 0 0)
(0.0999874 0 0)
(0.0999803 0 0)
(0.0999779 0 0)
(0.0999653 0 0)
(0.0999638 0 0)
(0.0999402 0 0)
(0.0999931 0 0)
(0.099993 0 0)
(0.0999931 0 0)
(0.0999934 0 0)
(0.0999939 0 0)
(0.0999947 0 0)
(0.0999955 0 0)
(0.0999966 0 0)
(0.0999978 0 0)
(0.0999996 0 0)
(0.100001 0 0)
(0.100004 0 0)
(0.100006 0 0)
(0.10001 0 0)
(0.100013 0 0)
(0.10002 0 0)
(0.100022 0 0)
(0.100035 0 0)
(0.100036 0 0)
(0.10006 0 0)
)
;
    }
    inlet
    {
        type            calculated;
        value           nonuniform List<vector> 
20
(
(0.0999931 0 0)
(0.0999943 0 0)
(0.0999948 0 0)
(0.0999956 0 0)
(0.0999963 0 0)
(0.0999969 0 0)
(0.0999976 0 0)
(0.0999983 0 0)
(0.099999 0 0)
(0.0999997 0 0)
(0.1 0 0)
(0.100001 0 0)
(0.100002 0 0)
(0.100002 0 0)
(0.100003 0 0)
(0.100004 0 0)
(0.100004 0 0)
(0.100005 0 0)
(0.100006 0 0)
(0.100007 0 0)
)
;
    }
    outlet
    {
        type            calculated;
        value           nonuniform List<vector> 
20
(
(0.100061 -3.31849e-05 0)
(0.10005 -5.45832e-06 0)
(0.100046 -4.22173e-05 0)
(0.100039 -2.75863e-05 0)
(0.100033 -4.6441e-05 0)
(0.100027 -4.15008e-05 0)
(0.100021 -4.92206e-05 0)
(0.100015 -4.90843e-05 0)
(0.100009 -5.1249e-05 0)
(0.100003 -5.17477e-05 0)
(0.099997 -5.17476e-05 0)
(0.0999911 -5.12442e-05 0)
(0.0999852 -4.9084e-05 0)
(0.0999792 -4.92067e-05 0)
(0.0999731 -4.14988e-05 0)
(0.099967 -4.64249e-05 0)
(0.0999611 -2.75804e-05 0)
(0.0999539 -4.22095e-05 0)
(0.0999495 -5.4455e-06 0)
(0.0999394 -3.31975e-05 0)
)
;
    }
    frontAndBack
    {
        type            empty;
    }
}


// ************************************************************************* //
