/*--------------------------------*- C++ -*----------------------------------*\
  =========                 |
  \\      /  F ield         | OpenFOAM: The Open Source CFD Toolbox
   \\    /   O peration     | Website:  https://openfoam.org
    \\  /    A nd           | Version:  7
     \\/     M anipulation  |
\*---------------------------------------------------------------------------*/
FoamFile
{
    version     2.0;
    format      ascii;
    class       volScalarField;
    location    "44";
    object      ddt0(h);
}
// * * * * * * * * * * * * * * * * * * * * * * * * * * * * * * * * * * * * * //

dimensions      [0 1 -1 0 0 0 0];

internalField   nonuniform List<scalar> 
400
(
1.09577e-08
1.16267e-08
1.21496e-08
1.10932e-08
6.34019e-09
3.86274e-08
-2.6564e-08
-2.09508e-08
4.51709e-09
3.84616e-09
6.85942e-09
6.2538e-09
4.80512e-09
3.73995e-09
2.95031e-09
2.47732e-09
1.91109e-09
1.29785e-09
7.8004e-10
3.45637e-10
1.02189e-08
9.85784e-09
8.52433e-09
1.05883e-08
7.38355e-09
-1.66105e-08
3.27095e-08
4.03141e-08
6.68185e-09
6.41898e-09
6.06031e-09
4.87724e-09
4.36629e-09
3.89067e-09
3.25703e-09
2.72996e-09
2.04072e-09
1.3064e-09
6.88851e-10
2.52211e-10
1.38034e-08
1.01575e-08
1.00155e-08
1.01399e-08
1.26254e-08
4.42797e-09
1.48731e-08
4.77073e-09
6.80818e-09
9.06204e-09
6.07574e-09
4.55437e-09
4.52697e-09
4.02098e-09
3.33173e-09
2.80549e-09
2.07286e-09
1.27438e-09
6.36345e-10
2.60537e-10
5.96665e-09
7.44749e-09
7.54009e-09
5.76481e-09
8.91696e-09
3.7377e-09
9.20566e-09
4.33871e-09
6.89259e-09
6.74103e-09
4.30392e-09
4.33514e-09
4.72578e-09
4.04862e-09
3.35136e-09
2.76736e-09
1.90418e-09
9.83109e-10
3.84889e-10
1.34864e-10
7.21947e-09
6.62325e-09
7.24334e-09
5.35615e-09
6.36998e-09
6.14676e-09
6.27259e-09
5.29172e-09
7.53075e-09
5.58222e-09
4.16232e-09
5.33433e-09
5.14722e-09
4.0117e-09
3.34387e-09
2.62318e-09
1.62654e-09
7.83323e-10
4.82679e-10
3.13609e-10
4.82028e-09
4.54444e-09
4.78652e-09
4.85145e-09
4.07754e-09
5.39429e-09
4.79744e-09
5.47031e-09
6.21533e-09
4.32164e-09
5.05326e-09
5.98371e-09
4.88006e-09
3.89701e-09
3.42237e-09
2.46541e-09
1.40895e-09
7.40673e-10
4.56318e-10
2.44893e-10
2.98493e-09
3.35047e-09
2.76536e-09
4.16941e-09
3.54405e-09
4.50887e-09
4.10965e-09
5.14417e-09
4.95001e-09
4.5734e-09
5.64563e-09
5.21325e-09
3.88823e-09
3.58328e-09
3.06203e-09
1.86485e-09
1.25033e-09
1.05665e-09
4.7959e-10
7.71317e-11
1.87518e-09
2.33222e-09
1.74035e-09
2.78379e-09
2.91872e-09
3.67324e-09
3.60268e-09
4.45417e-09
4.10642e-09
4.19027e-09
4.74335e-09
3.60298e-09
2.95107e-09
3.2364e-09
2.3823e-09
1.06545e-09
1.05849e-09
1.34483e-09
3.96472e-10
-1.7937e-10
1.20824e-09
1.19164e-09
1.1838e-09
1.64407e-09
1.81149e-09
2.17416e-09
2.26597e-09
2.86443e-09
2.48694e-09
2.80446e-09
2.84781e-09
2.12333e-09
2.20745e-09
2.31123e-09
1.36296e-09
4.77543e-10
6.75711e-10
9.89684e-10
1.98934e-10
-2.35924e-10
5.76513e-10
2.58839e-10
5.01514e-10
5.34328e-10
6.51423e-10
5.21747e-10
8.65076e-10
7.96802e-10
9.9434e-10
1.10633e-09
7.94357e-10
9.34266e-10
9.69926e-10
4.57446e-10
3.22234e-10
5.5674e-10
3.96757e-10
1.19715e-10
-1.14741e-10
-1.25613e-10
-1.982e-10
-5.46566e-10
-2.43039e-10
-6.03493e-10
-4.51268e-10
-9.62835e-10
-7.34479e-10
-1.24577e-09
-8.7983e-10
-7.73765e-10
-1.28915e-09
-7.41342e-10
-4.90247e-10
-1.03265e-09
-5.48265e-10
4.05768e-10
1.27294e-11
-6.75306e-10
-2.99793e-10
7.36916e-11
-1.17832e-09
-1.28466e-09
-1.02981e-09
-1.76961e-09
-1.58084e-09
-2.26472e-09
-2.41382e-09
-2.85474e-09
-2.99035e-09
-2.45906e-09
-2.98123e-09
-2.83967e-09
-2.0569e-09
-1.95564e-09
-1.53484e-09
-5.55526e-10
-4.52276e-10
-7.69777e-10
-1.30223e-10
2.26108e-10
-2.37401e-09
-1.84769e-09
-2.17578e-09
-2.72547e-09
-2.82269e-09
-3.16599e-09
-3.85815e-09
-3.96132e-09
-4.70052e-09
-4.10417e-09
-3.95927e-09
-4.30187e-09
-3.63205e-09
-2.80509e-09
-2.32232e-09
-1.60148e-09
-8.91162e-10
-5.90606e-10
-1.14064e-10
1.0073e-10
-3.53533e-09
-2.83944e-09
-3.64939e-09
-3.27698e-09
-4.09833e-09
-3.69952e-09
-4.68482e-09
-4.43689e-09
-5.24604e-09
-5.39658e-09
-4.45553e-09
-4.62991e-09
-4.53391e-09
-3.55703e-09
-2.88831e-09
-2.35982e-09
-1.35917e-09
-5.4796e-10
-2.85049e-10
-1.65931e-10
-4.89896e-09
-4.63789e-09
-4.7055e-09
-4.12803e-09
-5.76738e-09
-4.27197e-09
-5.81689e-09
-4.93653e-09
-5.07262e-09
-5.97974e-09
-5.12017e-09
-4.71794e-09
-4.76788e-09
-4.04472e-09
-3.28522e-09
-2.82842e-09
-1.9412e-09
-8.23321e-10
-2.58491e-10
-1.30554e-10
-6.90518e-09
-7.06337e-09
-6.04108e-09
-6.46571e-09
-6.71482e-09
-6.02857e-09
-6.44515e-09
-7.49049e-09
-4.89161e-09
-5.80133e-09
-5.63089e-09
-4.79613e-09
-4.53108e-09
-3.99576e-09
-3.24198e-09
-2.80187e-09
-2.24408e-09
-1.21494e-09
-3.36791e-10
-9.10139e-11
-5.47011e-09
-7.93968e-09
-6.63715e-09
-8.22296e-09
-5.92921e-09
-7.67351e-09
-4.32836e-09
-7.33797e-09
-6.46248e-09
-4.99495e-09
-5.42078e-09
-4.88527e-09
-4.35428e-09
-3.89214e-09
-3.21404e-09
-2.68697e-09
-2.22942e-09
-1.44232e-09
-4.7957e-10
-4.87221e-11
-1.29121e-08
-1.04478e-08
-1.03582e-08
-1.25545e-08
-7.06205e-09
-1.11635e-08
-1.72334e-10
-8.78472e-09
-8.17784e-09
-6.77339e-09
-6.12494e-09
-5.32128e-09
-4.51111e-09
-3.84439e-09
-3.14992e-09
-2.53255e-09
-2.02961e-09
-1.55222e-09
-8.99781e-10
-3.39051e-10
-1.04193e-08
-9.15613e-09
-9.77269e-09
-1.01363e-08
-6.26455e-10
-1.06651e-08
-9.6577e-09
-4.23647e-08
-9.48819e-09
-5.61123e-09
-5.15011e-09
-5.04081e-09
-4.52797e-09
-3.8821e-09
-3.23433e-09
-2.48245e-09
-1.7396e-09
-1.26679e-09
-8.36338e-10
-3.38096e-10
-1.18414e-08
-1.17237e-08
-1.1926e-08
-7.11681e-09
-1.9641e-08
-2.73984e-09
-1.40433e-08
3.09158e-08
-3.26431e-09
-6.7316e-09
-6.38449e-09
-5.9013e-09
-5.01798e-09
-4.13531e-09
-3.30943e-09
-2.32917e-09
-1.41192e-09
-9.60745e-10
-7.09303e-10
-3.59316e-10
)
;

boundaryField
{
    sides
    {
        type            calculated;
        value           nonuniform List<scalar> 
40
(
-1.18414e-08
-1.17237e-08
-1.1926e-08
-7.11681e-09
-1.9641e-08
-2.73984e-09
-1.40433e-08
3.09158e-08
-3.26431e-09
-6.7316e-09
-6.38449e-09
-5.9013e-09
-5.01798e-09
-4.13531e-09
-3.30943e-09
-2.32917e-09
-1.41192e-09
-9.60745e-10
-7.09303e-10
-3.59316e-10
1.09577e-08
1.16267e-08
1.21496e-08
1.10932e-08
6.34019e-09
3.86274e-08
-2.6564e-08
-2.09508e-08
4.51709e-09
3.84616e-09
6.85942e-09
6.2538e-09
4.80512e-09
3.73995e-09
2.95031e-09
2.47732e-09
1.91109e-09
1.29785e-09
7.8004e-10
3.45637e-10
)
;
    }
    inlet
    {
        type            calculated;
        value           nonuniform List<scalar> 
20
(
1.09577e-08
1.02189e-08
1.38034e-08
5.96665e-09
7.21947e-09
4.82028e-09
2.98493e-09
1.87518e-09
1.20824e-09
5.76513e-10
-1.982e-10
-1.17832e-09
-2.37401e-09
-3.53533e-09
-4.89896e-09
-6.90518e-09
-5.47011e-09
-1.29121e-08
-1.04193e-08
-1.18414e-08
)
;
    }
    outlet
    {
        type            calculated;
        value           uniform 0;
    }
    frontAndBack
    {
        type            empty;
    }
}


// ************************************************************************* //
