/*--------------------------------*- C++ -*----------------------------------*\
  =========                 |
  \\      /  F ield         | OpenFOAM: The Open Source CFD Toolbox
   \\    /   O peration     | Website:  https://openfoam.org
    \\  /    A nd           | Version:  7
     \\/     M anipulation  |
\*---------------------------------------------------------------------------*/
FoamFile
{
    version     2.0;
    format      ascii;
    class       surfaceScalarField;
    location    "44";
    object      ddtCorrDdt0(phi);
}
// * * * * * * * * * * * * * * * * * * * * * * * * * * * * * * * * * * * * * //

dimensions      [0 4 -2 0 0 0 0];

internalField   nonuniform List<scalar> 
760
(
-1.6711e-13
1.82129e-12
-1.92033e-12
1.87804e-12
-6.26426e-12
3.05688e-12
1.39675e-12
4.84566e-12
-3.57057e-12
-2.89679e-10
9.77714e-12
-3.23652e-10
-2.55856e-11
-9.00455e-11
-7.11207e-12
-2.62119e-10
3.72199e-13
-1.92094e-11
8.0882e-12
1.00108e-13
1.16664e-11
2.2986e-12
9.60675e-12
2.82441e-12
6.61531e-12
3.2362e-12
3.498e-12
3.38066e-12
1.05023e-12
3.07424e-12
-6.36325e-13
2.75431e-12
-5.02442e-13
4.03529e-13
-2.09293e-13
-4.74202e-13
3.8482e-12
-3.99989e-12
-5.08493e-12
-9.70758e-13
1.68272e-12
-1.85658e-12
4.61305e-12
-1.83584e-12
4.99982e-12
-8.43981e-12
8.45373e-12
-7.79471e-12
6.92979e-12
-1.78116e-11
2.44191e-12
1.78891e-11
5.66958e-12
1.74807e-11
2.15651e-11
6.15498e-12
-5.28398e-12
9.99039e-12
-4.12599e-13
1.00786e-11
2.68869e-12
8.99259e-12
4.26362e-12
7.21717e-12
6.5067e-12
4.49699e-12
7.38319e-12
1.86102e-12
6.986e-12
-3.8604e-13
6.25387e-12
-8.77052e-13
1.49979e-12
-1.0607e-12
-2.15012e-13
2.68436e-12
-7.39933e-12
-9.48601e-12
-5.22659e-13
3.22834e-11
-1.75405e-12
5.9744e-12
6.41366e-14
8.0458e-12
-6.78016e-12
9.11736e-12
1.77409e-13
9.25706e-12
-8.00828e-12
-5.94009e-13
7.04579e-12
5.80465e-12
-3.99668e-12
-1.12979e-11
8.41901e-12
-4.21407e-12
9.85181e-12
-1.15393e-12
7.16856e-12
1.84727e-12
6.47332e-12
5.83656e-12
5.06661e-12
1.03545e-11
2.46893e-12
1.19669e-11
1.66482e-13
1.1201e-11
-1.96544e-12
9.8754e-12
-1.81254e-12
2.24907e-12
-9.08656e-13
-4.02555e-13
4.07194e-12
-1.17111e-11
-1.51547e-11
-3.5143e-13
4.66948e-12
-1.36342e-12
8.57002e-12
-1.37809e-12
1.14168e-11
-4.46202e-12
1.10199e-11
-6.35061e-12
1.06932e-11
-2.76239e-12
3.57757e-12
-2.65601e-12
-3.364e-12
1.98285e-13
-7.98099e-12
8.21165e-12
-7.19766e-12
8.32003e-12
-4.33431e-12
7.48736e-12
7.75163e-13
8.16111e-12
7.80655e-12
6.55084e-12
1.42457e-11
3.97014e-12
1.62545e-11
1.81522e-12
1.51535e-11
-5.20679e-13
1.33625e-11
-8.94817e-13
3.67761e-12
-1.36809e-13
1.8462e-13
2.99149e-12
-1.42853e-11
-1.88136e-11
4.09702e-13
4.7006e-12
1.84708e-14
9.17177e-12
-2.01355e-12
1.26147e-11
-9.59417e-13
1.24456e-11
-4.08348e-12
9.03664e-12
2.05905e-13
3.57992e-12
-2.08534e-12
-5.014e-12
1.13458e-12
-9.8213e-12
4.05218e-12
-8.95519e-12
1.69437e-12
-7.01094e-12
3.29252e-12
5.28684e-13
5.25169e-12
9.30219e-12
4.15741e-12
1.61543e-11
2.81298e-12
1.85338e-11
1.78231e-12
1.75837e-11
1.35483e-14
1.56753e-11
5.19749e-14
4.65924e-12
8.74352e-13
1.06938e-12
3.49524e-12
-1.65798e-11
-2.27366e-11
2.32994e-13
3.73361e-12
6.01341e-13
9.83905e-12
-3.03176e-12
1.35448e-11
-2.93163e-12
1.50746e-11
-5.65549e-12
9.67931e-12
-3.30612e-12
1.91199e-12
-2.96329e-12
-8.35291e-12
3.07539e-12
-1.34451e-11
5.1268e-12
-1.40344e-11
6.22634e-12
-9.27365e-12
8.98178e-12
1.60843e-12
8.16569e-12
1.13453e-11
4.70517e-12
1.88996e-11
1.96436e-12
2.20592e-11
-5.7565e-13
2.11637e-11
-3.32956e-12
1.85249e-11
-3.22896e-12
5.23853e-12
-1.42185e-12
6.05971e-13
2.81328e-12
-2.05273e-11
-2.69375e-11
5.20683e-13
3.19405e-12
6.74416e-13
1.04599e-11
-1.03639e-12
1.3685e-11
-8.80195e-13
1.44962e-11
-7.99514e-13
9.68553e-12
-8.05995e-13
9.71781e-13
-1.0452e-12
-8.90253e-12
5.15915e-13
-1.47881e-11
1.13853e-13
-1.51549e-11
2.0955e-12
-9.45427e-12
4.16995e-12
1.31713e-12
3.42124e-12
1.07517e-11
2.97934e-12
1.8986e-11
3.17553e-12
2.28928e-11
2.64052e-12
2.20788e-11
1.67859e-12
1.96682e-11
1.60969e-12
5.90037e-12
1.43453e-12
1.35225e-12
1.99569e-12
-2.09065e-11
-2.86344e-11
1.08177e-12
2.75007e-12
4.02277e-13
1.03607e-11
-8.71172e-14
1.46545e-11
-1.56061e-12
1.4734e-11
-1.65205e-12
9.56567e-12
-1.91784e-12
5.40581e-14
-8.99058e-13
-1.05091e-11
1.00393e-12
-1.70294e-11
1.77062e-12
-1.73618e-11
4.47879e-12
-1.08294e-11
5.08112e-12
3.34426e-13
3.45196e-12
1.0763e-11
2.84971e-12
2.07457e-11
1.64186e-12
2.50053e-11
-7.27725e-13
2.38504e-11
-1.90553e-12
2.13522e-11
-1.47758e-12
6.42866e-12
-1.16238e-12
1.15111e-12
1.44254e-12
-2.34894e-11
-3.13431e-11
9.72376e-13
2.65397e-12
-1.77034e-13
1.01106e-11
-1.57014e-14
1.54674e-11
-9.67091e-13
1.48072e-11
-5.85678e-13
9.24252e-12
-7.33213e-13
-9.83124e-13
2.73724e-13
-1.15495e-11
7.27463e-13
-1.85281e-11
7.88017e-13
-1.85858e-11
2.02846e-12
-1.13344e-11
1.76833e-12
2.41875e-14
1.158e-12
1.12287e-11
1.4584e-12
2.1749e-11
8.76845e-13
2.54039e-11
5.43986e-14
2.36986e-11
5.60596e-13
2.15208e-11
1.2379e-12
6.46265e-12
9.70895e-13
1.20111e-12
1.36864e-12
-2.34793e-11
-3.18222e-11
8.86682e-14
2.4726e-12
8.61804e-14
1.0383e-11
8.10205e-14
1.56202e-11
-1.76186e-14
1.48465e-11
-3.15796e-13
8.93604e-12
-2.87691e-13
-1.05993e-12
-8.4045e-14
-1.17678e-11
-2.41268e-13
-1.87907e-11
1.50629e-13
-1.88513e-11
2.81302e-13
-1.18101e-11
8.2979e-13
-9.04219e-14
1.5624e-12
1.11247e-11
1.20684e-12
2.14949e-11
5.189e-13
2.56543e-11
2.72499e-13
2.46708e-11
1.76206e-14
2.24436e-11
-9.17975e-13
6.64016e-12
-1.8462e-12
1.11466e-12
-3.77973e-13
-2.41283e-11
-3.24036e-11
-4.37251e-13
2.43483e-12
1.97558e-13
1.08105e-11
-2.59258e-15
1.5347e-11
3.07059e-13
1.49869e-11
-1.14644e-13
8.82671e-12
4.2038e-14
-6.45462e-13
1.54458e-13
-1.15257e-11
-1.20717e-13
-1.82293e-11
3.40147e-13
-1.81797e-11
-8.03421e-13
-1.15164e-11
-1.18889e-12
6.70437e-13
-7.15825e-13
1.16653e-11
-1.37023e-12
2.11651e-11
-1.31343e-12
2.5419e-11
2.10774e-13
2.45362e-11
1.26316e-12
2.16986e-11
1.12696e-12
5.64926e-12
6.87881e-13
5.41703e-13
8.6268e-15
-2.31231e-11
-3.13616e-11
-3.66255e-13
3.04338e-12
-3.44504e-13
1.04184e-11
3.67412e-13
1.46926e-11
6.53693e-13
1.49476e-11
1.00319e-12
9.44166e-12
1.99574e-13
1.59e-13
1.234e-13
-1.02746e-11
-1.06276e-12
-1.70597e-11
-9.7589e-13
-1.68804e-11
-1.66039e-12
-1.10235e-11
-2.52354e-12
5.99969e-13
-1.59335e-12
1.1757e-11
-8.59669e-13
2.10024e-11
-6.35623e-13
2.49493e-11
-4.56448e-13
2.42312e-11
-5.62312e-13
2.15811e-11
-7.51668e-13
6.033e-12
-7.90349e-13
6.79699e-13
-1.44466e-12
-2.32698e-11
-3.09898e-11
-5.82021e-13
3.56452e-12
-9.60443e-13
9.92679e-12
5.14396e-13
1.42852e-11
9.09611e-13
1.43278e-11
2.44812e-12
9.65919e-12
1.6251e-12
7.61952e-13
1.15677e-12
-8.63579e-12
-8.06014e-13
-1.51593e-11
-2.65208e-12
-1.47113e-11
-3.45943e-12
-9.37652e-12
-4.94302e-12
6.12455e-13
-4.79056e-12
1.11018e-11
-2.74581e-12
1.99237e-11
-9.53963e-13
2.32577e-11
1.46801e-13
2.21782e-11
1.20028e-12
2.00185e-11
1.98108e-12
6.23716e-12
2.19582e-12
1.27244e-12
-1.3315e-12
-2.12003e-11
-2.87468e-11
-8.97985e-13
3.81062e-12
-2.20374e-13
9.52461e-12
7.73615e-13
1.38094e-11
4.51642e-13
1.38952e-11
1.35132e-12
1.06766e-11
9.35557e-13
1.36999e-12
7.1275e-13
-7.44959e-12
5.42688e-13
-1.41636e-11
-1.53259e-12
-1.37602e-11
-1.86511e-12
-8.0108e-12
-2.60658e-12
1.22613e-12
-3.87465e-12
1.06828e-11
-3.5108e-12
1.92741e-11
-2.86371e-12
2.24177e-11
-2.9403e-12
2.11605e-11
-2.4213e-12
1.88066e-11
-1.63591e-12
5.73945e-12
-7.12032e-13
7.10399e-13
-1.77244e-12
-2.09263e-11
-2.71898e-11
-1.08683e-12
4.45979e-12
5.39467e-13
9.32274e-12
1.49592e-12
1.17496e-11
4.24874e-12
1.23579e-11
4.54678e-12
1.03088e-11
4.75791e-12
2.26207e-12
1.00323e-12
-3.6875e-12
-7.29576e-13
-9.62987e-12
-5.58578e-12
-1.09558e-11
-8.01356e-12
-6.00732e-12
-7.7683e-12
1.42807e-12
-7.28329e-12
8.66304e-12
-5.08244e-12
1.56475e-11
-2.04821e-12
1.83591e-11
5.59352e-13
1.73601e-11
2.70921e-12
1.56629e-11
2.57507e-12
4.93806e-12
1.49963e-12
1.32201e-12
-2.48544e-12
-1.65555e-11
-2.27546e-11
-9.72043e-13
4.2505e-12
4.10837e-13
8.69307e-12
7.1883e-13
1.04267e-11
3.55713e-12
1.25984e-11
8.0195e-13
9.85773e-12
3.55783e-12
3.90434e-12
-1.57793e-12
-3.08115e-12
-6.82361e-13
-5.27236e-12
-1.20959e-12
-8.79752e-12
-3.68777e-12
-5.7221e-12
-3.96688e-12
1.61636e-12
-4.30796e-12
7.93562e-12
-4.07592e-12
1.36277e-11
-2.89995e-12
1.57122e-11
-1.56588e-12
1.47417e-11
-3.6143e-13
1.309e-11
-8.11807e-13
3.70888e-12
-1.09227e-12
4.67034e-13
-3.23566e-12
-1.40176e-11
-1.86984e-11
4.77467e-13
3.40165e-11
4.64473e-13
5.96802e-12
2.4009e-12
8.23383e-12
5.19126e-12
1.03864e-11
3.95162e-12
6.68445e-12
6.52346e-12
4.50839e-12
2.43785e-12
-5.94758e-12
-4.56754e-12
-9.03431e-12
-4.96711e-12
-4.34031e-12
-7.85613e-12
-2.81291e-12
-9.06232e-12
1.50026e-12
-8.24012e-12
6.05896e-12
-6.40827e-12
1.01548e-11
-3.84772e-12
1.16757e-11
-1.33667e-12
1.09281e-11
6.06348e-13
9.53673e-12
4.46592e-13
2.08441e-12
-1.7432e-13
-3.02311e-13
-3.03874e-12
-1.15905e-11
-1.51132e-11
8.07599e-13
2.06104e-12
2.44727e-13
4.95218e-12
3.71144e-12
6.61109e-12
3.74115e-12
7.56722e-12
2.19213e-12
4.10193e-12
2.19016e-12
-4.07186e-12
5.50818e-12
-1.57235e-11
-4.17359e-12
1.94841e-11
-6.24086e-12
-2.17038e-12
-7.552e-12
-1.03755e-12
-8.09471e-12
1.69537e-12
-7.02376e-12
4.29098e-12
-4.98326e-12
6.73201e-12
-2.26453e-12
7.63793e-12
3.45938e-13
7.09388e-12
2.34675e-12
6.02877e-12
1.72393e-12
1.22263e-12
6.14571e-13
-3.59465e-13
-4.29966e-12
-7.49452e-12
-9.52813e-12
8.99606e-13
2.00763e-12
1.39512e-12
2.56569e-12
3.88527e-12
4.03398e-12
6.45736e-12
1.88141e-12
-5.18537e-13
-2.13047e-10
-3.82897e-12
4.0168e-10
1.60191e-11
3.92595e-10
-2.28355e-11
-1.97478e-10
-6.81176e-12
-9.65102e-12
-8.37353e-12
1.3214e-12
-9.77487e-12
1.96874e-12
-9.29422e-12
2.70225e-12
-7.21582e-12
3.43743e-12
-4.6262e-12
3.74832e-12
-1.86116e-12
3.3041e-12
7.10716e-13
2.64465e-12
1.114e-12
1.59437e-13
9.48726e-13
-6.49909e-13
-2.81473e-12
-4.11246e-12
-5.11488e-12
8.65788e-13
3.56174e-12
1.64679e-12
6.92666e-14
1.49429e-11
9.61019e-12
-1.54782e-11
2.15876e-11
-5.59498e-12
-9.8589e-12
-1.06721e-11
-9.19544e-12
-6.62217e-12
-4.02934e-12
-1.48791e-12
9.48968e-13
1.02318e-12
2.78967e-13
-3.92121e-12
)
;

boundaryField
{
    sides
    {
        type            calculated;
        value           uniform 0;
    }
    inlet
    {
        type            calculated;
        value           uniform 0;
    }
    outlet
    {
        type            calculated;
        value           nonuniform List<scalar> 
20
(
9.16857e-12
7.42805e-12
1.00441e-11
6.53954e-12
6.96494e-12
6.71303e-12
3.69938e-12
4.30637e-12
2.42365e-12
1.23466e-12
-4.44575e-13
-2.4512e-12
-4.99334e-12
-4.13413e-12
-6.55129e-12
-6.66683e-12
-6.54887e-12
-1.02028e-11
-7.43431e-12
-9.09489e-12
)
;
    }
    frontAndBack
    {
        type            empty;
        value           nonuniform 0();
    }
}


// ************************************************************************* //
