/*--------------------------------*- C++ -*----------------------------------*\
  =========                 |
  \\      /  F ield         | OpenFOAM: The Open Source CFD Toolbox
   \\    /   O peration     | Website:  https://openfoam.org
    \\  /    A nd           | Version:  7
     \\/     M anipulation  |
\*---------------------------------------------------------------------------*/
FoamFile
{
    version     2.0;
    format      ascii;
    class       volVectorField;
    location    "44";
    object      ddtCorrDdt0(hU);
}
// * * * * * * * * * * * * * * * * * * * * * * * * * * * * * * * * * * * * * //

dimensions      [0 2 -2 0 0 0 0];

internalField   nonuniform List<vector> 
400
(
(1.26629e-10 2.28536e-10 0)
(2.83588e-10 2.37159e-10 0)
(-6.01407e-10 3.98337e-10 0)
(-7.75853e-10 6.8313e-10 0)
(-1.37468e-09 -6.5718e-10 0)
(3.26255e-09 -2.59514e-10 0)
(-3.29873e-09 -3.68216e-09 0)
(-4.04366e-09 -2.30373e-09 0)
(-1.85581e-11 -1.27869e-09 0)
(8.66745e-10 -4.17207e-10 0)
(2.23049e-09 3.6925e-10 0)
(2.19133e-09 7.51695e-10 0)
(1.64284e-09 1.09935e-09 0)
(9.79404e-10 1.14666e-09 0)
(5.25192e-10 9.96835e-10 0)
(-8.18226e-11 6.63598e-10 0)
(-2.17754e-10 -1.61464e-10 0)
(-6.98863e-11 -4.89679e-10 0)
(-3.42533e-11 -1.51974e-09 0)
(1.73889e-09 -1.31997e-09 0)
(6.6159e-11 2.54712e-10 0)
(2.14003e-10 3.20987e-10 0)
(-3.00938e-10 3.846e-10 0)
(-1.15226e-09 1.2265e-09 0)
(-1.29792e-09 6.02938e-10 0)
(-4.40764e-09 1.51463e-09 0)
(9.6115e-10 -9.08895e-10 0)
(4.54757e-09 5.75258e-10 0)
(1.49771e-09 -1.62186e-11 0)
(1.72664e-09 6.29685e-10 0)
(2.20003e-09 7.89521e-10 0)
(1.91722e-09 4.68056e-10 0)
(1.67459e-09 4.02841e-10 0)
(1.16031e-09 4.78146e-10 0)
(6.9773e-10 5.00705e-10 0)
(4.45741e-11 6.31799e-10 0)
(-2.42095e-10 3.45897e-10 0)
(-1.92178e-10 2.63187e-10 0)
(-2.56968e-10 -2.6902e-10 0)
(1.45048e-09 -8.088e-10 0)
(3.98174e-10 5.72073e-10 0)
(1.41685e-10 1.06321e-09 0)
(-9.69787e-11 1.31812e-09 0)
(-9.77478e-10 1.50552e-09 0)
(-5.5016e-10 1.37431e-09 0)
(-1.18195e-09 -8.07742e-11 0)
(4.28025e-10 5.63324e-10 0)
(-1.01632e-10 -5.74694e-10 0)
(3.14375e-10 -1.38966e-09 0)
(2.12545e-09 -5.16308e-10 0)
(1.80698e-09 3.36214e-10 0)
(1.34835e-09 1.09234e-09 0)
(1.23026e-09 1.90518e-09 0)
(7.26577e-10 2.1667e-09 0)
(3.45282e-10 2.01245e-09 0)
(-3.18617e-10 1.70334e-09 0)
(-4.8099e-10 2.71341e-10 0)
(-2.84846e-10 -2.40202e-10 0)
(-1.2519e-10 -2.38491e-09 0)
(1.90374e-09 -2.80863e-09 0)
(-1.28314e-10 9.87444e-10 0)
(2.9985e-10 1.70133e-09 0)
(-5.57566e-11 2.22303e-09 0)
(-9.95767e-10 2.10648e-09 0)
(-1.0733e-09 2.06915e-09 0)
(-1.13934e-09 3.94718e-10 0)
(-2.85392e-10 4.50838e-12 0)
(-5.82248e-10 -1.67057e-09 0)
(8.76937e-10 -1.18264e-09 0)
(1.89527e-09 -6.91729e-10 0)
(1.65356e-09 1.92691e-10 0)
(1.58164e-09 1.40895e-09 0)
(1.55463e-09 2.55098e-09 0)
(1.03408e-09 2.90297e-09 0)
(6.13277e-10 2.70319e-09 0)
(4.46796e-11 2.38458e-09 0)
(-2.53041e-10 5.9091e-10 0)
(-1.06664e-10 -5.81201e-11 0)
(-7.18051e-11 -2.6691e-09 0)
(1.34011e-09 -3.46803e-09 0)
(8.84615e-11 9.00051e-10 0)
(3.77146e-10 1.67008e-09 0)
(-3.47457e-11 2.27692e-09 0)
(-6.50284e-10 2.35847e-09 0)
(-5.72437e-10 2.19822e-09 0)
(-2.81793e-10 1.17642e-09 0)
(-1.37464e-10 -1.97545e-10 0)
(-2.93628e-10 -1.16016e-09 0)
(5.99241e-10 -1.04814e-09 0)
(6.43172e-10 -7.58005e-10 0)
(4.75749e-10 2.90305e-10 0)
(8.99776e-10 1.69648e-09 0)
(1.02083e-09 2.884e-09 0)
(6.74519e-10 3.2848e-09 0)
(5.29378e-10 3.08705e-09 0)
(1.04012e-10 2.79219e-09 0)
(-5.8055e-11 9.12019e-10 0)
(9.35114e-11 2.82559e-10 0)
(1.1605e-10 -2.70766e-09 0)
(1.36655e-09 -3.87871e-09 0)
(-2.80943e-11 8.38066e-10 0)
(4.33093e-10 1.90795e-09 0)
(-5.38579e-11 2.64143e-09 0)
(-8.26661e-10 2.68511e-09 0)
(-1.08572e-09 1.51921e-09 0)
(-8.2661e-10 -1.28396e-10 0)
(-6.98478e-10 -2.15774e-09 0)
(-1.03293e-10 -3.13312e-09 0)
(9.07043e-10 -2.97222e-09 0)
(1.20204e-09 -2.03796e-09 0)
(1.64121e-09 1.14193e-10 0)
(1.82119e-09 2.2105e-09 0)
(1.33407e-09 3.83517e-09 0)
(6.23429e-10 4.42491e-09 0)
(2.01552e-10 4.19715e-09 0)
(-5.16717e-10 3.59649e-09 0)
(-7.80033e-10 8.90118e-10 0)
(-5.10518e-10 -3.17629e-11 0)
(-1.83398e-10 -4.24906e-09 0)
(1.3701e-09 -5.36796e-09 0)
(-5.98799e-11 6.88454e-10 0)
(4.01915e-10 2.00499e-09 0)
(-9.04201e-12 2.70994e-09 0)
(-3.62459e-10 3.08187e-09 0)
(-2.80257e-10 2.30762e-09 0)
(-1.39103e-11 8.81905e-10 0)
(-1.95606e-10 -1.02847e-09 0)
(-1.04538e-10 -2.17333e-09 0)
(3.38689e-11 -2.4228e-09 0)
(2.20199e-10 -1.59801e-09 0)
(7.21248e-10 3.09206e-10 0)
(7.86169e-10 1.99714e-09 0)
(6.17624e-10 3.42361e-09 0)
(6.21045e-10 4.14814e-09 0)
(6.40454e-10 4.07284e-09 0)
(4.00476e-10 3.73421e-09 0)
(2.69539e-10 1.24234e-09 0)
(3.60842e-10 3.99691e-10 0)
(1.62459e-10 -3.69825e-09 0)
(7.00111e-10 -5.28489e-09 0)
(-2.36555e-11 5.82133e-10 0)
(3.58695e-10 2.10339e-09 0)
(8.45099e-11 2.93402e-09 0)
(-2.57555e-10 3.03341e-09 0)
(-4.04078e-10 1.89346e-09 0)
(-3.12595e-10 -1.0781e-10 0)
(-3.33241e-10 -2.28005e-09 0)
(-2.64418e-11 -3.54081e-09 0)
(2.53582e-10 -3.52538e-09 0)
(6.77025e-10 -2.13337e-09 0)
(1.08206e-09 2.6486e-10 0)
(8.66605e-10 2.41624e-09 0)
(6.31853e-10 4.33045e-09 0)
(4.72131e-10 5.10102e-09 0)
(1.47638e-10 4.78884e-09 0)
(-3.89609e-10 4.136e-09 0)
(-3.95707e-10 1.08661e-09 0)
(-2.485e-10 5.60278e-11 0)
(-2.06959e-10 -4.81326e-09 0)
(8.27769e-10 -6.2408e-09 0)
(2.68666e-11 5.35773e-10 0)
(2.06583e-10 2.06988e-09 0)
(2.65065e-11 3.02415e-09 0)
(-1.88049e-10 2.90717e-09 0)
(-2.22075e-10 1.81124e-09 0)
(-9.95378e-11 -9.95871e-11 0)
(-4.69589e-11 -2.11991e-09 0)
(1.04067e-10 -3.42462e-09 0)
(1.28792e-10 -3.49594e-09 0)
(3.21211e-10 -2.21234e-09 0)
(4.40471e-10 -7.8982e-11 0)
(2.70921e-10 2.00442e-09 0)
(2.54485e-10 4.04311e-09 0)
(2.53875e-10 4.89833e-09 0)
(8.25736e-11 4.70064e-09 0)
(9.08807e-12 4.34374e-09 0)
(1.5542e-10 1.42458e-09 0)
(2.85456e-10 3.82125e-10 0)
(1.95549e-10 -4.51965e-09 0)
(4.04708e-10 -6.24717e-09 0)
(7.27378e-12 5.03883e-10 0)
(4.1953e-11 2.05223e-09 0)
(3.64725e-11 3.12637e-09 0)
(-3.25614e-11 2.9982e-09 0)
(-4.26277e-11 1.85731e-09 0)
(-5.12547e-11 -1.917e-10 0)
(-1.35812e-11 -2.37421e-09 0)
(-5.10733e-11 -3.81964e-09 0)
(-2.60335e-11 -3.83189e-09 0)
(5.16259e-11 -2.35712e-09 0)
(9.90191e-11 8.87815e-12 0)
(2.45439e-10 2.29888e-09 0)
(3.17403e-10 4.413e-09 0)
(1.74205e-10 5.17421e-09 0)
(1.01255e-10 4.86789e-09 0)
(2.24439e-11 4.39298e-09 0)
(-9.66914e-11 1.26435e-09 0)
(-3.02547e-10 1.69289e-10 0)
(-3.40069e-10 -4.86886e-09 0)
(1.91417e-10 -6.49727e-09 0)
(2.46086e-13 4.82133e-10 0)
(-8.6664e-11 2.11956e-09 0)
(2.24579e-11 3.11443e-09 0)
(5.72019e-11 3.01586e-09 0)
(5.28643e-11 1.81521e-09 0)
(-4.92422e-11 -1.56976e-10 0)
(2.47235e-11 -2.3714e-09 0)
(-9.3501e-12 -3.78866e-09 0)
(4.70683e-11 -3.79087e-09 0)
(-1.91612e-11 -2.37719e-09 0)
(-2.33502e-10 7.58487e-11 0)
(-1.88339e-10 2.34141e-09 0)
(-2.04283e-10 4.34826e-09 0)
(-3.14198e-10 5.17581e-09 0)
(-1.61654e-10 4.95701e-09 0)
(2.10966e-10 4.41072e-09 0)
(2.61927e-10 1.17833e-09 0)
(1.70851e-10 1.02415e-10 0)
(1.78207e-10 -4.82981e-09 0)
(-1.38146e-10 -6.44909e-09 0)
(3.12054e-11 5.4147e-10 0)
(-2.03833e-10 2.14185e-09 0)
(-3.30469e-11 3.01694e-09 0)
(1.77956e-10 2.94375e-09 0)
(2.49913e-10 1.75549e-09 0)
(8.28046e-11 -5.38785e-11 0)
(2.45175e-11 -2.09265e-09 0)
(-7.93964e-11 -3.39545e-09 0)
(-2.20153e-10 -3.40628e-09 0)
(-2.64324e-10 -2.2529e-09 0)
(-4.71972e-10 1.69599e-11 0)
(-4.36837e-10 2.15116e-09 0)
(-2.19521e-10 4.00395e-09 0)
(-1.45173e-10 4.89157e-09 0)
(-1.18603e-10 4.82736e-09 0)
(-5.64927e-11 4.38342e-09 0)
(-9.57262e-11 1.29702e-09 0)
(-2.13352e-10 2.68185e-10 0)
(-1.89492e-10 -4.45778e-09 0)
(-4.17168e-10 -6.16312e-09 0)
(1.43436e-11 6.46494e-10 0)
(-3.06082e-10 2.05605e-09 0)
(-1.37241e-10 2.995e-09 0)
(2.46355e-10 3.03484e-09 0)
(4.0986e-10 1.88102e-09 0)
(3.95792e-10 -1.18213e-10 0)
(2.87748e-10 -2.22909e-09 0)
(1.21553e-10 -3.57902e-09 0)
(-3.70788e-10 -3.43074e-09 0)
(-6.691e-10 -2.14864e-09 0)
(-8.94796e-10 2.21488e-10 0)
(-1.03057e-09 2.55949e-09 0)
(-7.94763e-10 4.45434e-09 0)
(-3.44419e-10 5.12909e-09 0)
(-1.27497e-10 4.83504e-09 0)
(2.17412e-10 4.19382e-09 0)
(3.78004e-10 1.07996e-09 0)
(4.3822e-10 8.92194e-13 0)
(3.16795e-10 -4.82036e-09 0)
(-8.95432e-10 -6.21728e-09 0)
(-3.13227e-11 7.33896e-10 0)
(-3.29989e-10 1.92199e-09 0)
(-4.99643e-11 2.79314e-09 0)
(3.74465e-10 2.95599e-09 0)
(2.19529e-10 2.39563e-09 0)
(1.53225e-10 8.01924e-10 0)
(1.06442e-10 -9.17711e-10 0)
(2.3713e-10 -2.28156e-09 0)
(-7.63053e-11 -2.34669e-09 0)
(-4.23002e-10 -1.46849e-09 0)
(-4.62841e-10 1.9249e-10 0)
(-6.48034e-10 1.96996e-09 0)
(-7.7964e-10 3.56461e-09 0)
(-6.27792e-10 4.22327e-09 0)
(-6.10397e-10 4.08107e-09 0)
(-5.39938e-10 3.7984e-09 0)
(-3.5619e-10 1.32654e-09 0)
(-2.59272e-10 3.99225e-10 0)
(-6.76318e-11 -3.76925e-09 0)
(-7.30698e-10 -5.32164e-09 0)
(-5.24735e-11 8.29527e-10 0)
(-4.18397e-10 1.89517e-09 0)
(1.72472e-11 2.60404e-09 0)
(8.73934e-10 2.5518e-09 0)
(9.70336e-10 1.71541e-09 0)
(9.87756e-10 -2.97778e-10 0)
(5.58588e-10 -1.95408e-09 0)
(1.5512e-10 -3.20052e-09 0)
(-6.06916e-10 -3.1203e-09 0)
(-1.55855e-09 -1.80517e-09 0)
(-1.70298e-09 1.49181e-10 0)
(-1.52549e-09 2.07208e-09 0)
(-1.30936e-09 3.82814e-09 0)
(-6.90545e-10 4.44898e-09 0)
(-1.85839e-10 4.17516e-09 0)
(4.4287e-10 3.62253e-09 0)
(6.29592e-10 9.64627e-10 0)
(4.60233e-10 -2.53336e-12 0)
(2.3813e-10 -4.29281e-09 0)
(-1.32695e-09 -5.39581e-09 0)
(-1.01834e-10 8.28503e-10 0)
(-4.58426e-10 1.7034e-09 0)
(6.09823e-11 2.10735e-09 0)
(6.88377e-10 2.48032e-09 0)
(5.13996e-10 2.24358e-09 0)
(3.44967e-10 1.10337e-09 0)
(2.10184e-10 -8.91015e-11 0)
(-2.29668e-10 -8.77084e-10 0)
(-5.33225e-11 -1.40374e-09 0)
(-5.85982e-10 -7.69082e-10 0)
(-8.60438e-10 4.60247e-10 0)
(-8.12026e-10 1.62313e-09 0)
(-8.88395e-10 2.75914e-09 0)
(-6.99087e-10 3.21063e-09 0)
(-5.06109e-10 3.02171e-09 0)
(-1.11799e-10 2.76415e-09 0)
(-7.55658e-11 9.45861e-10 0)
(-2.03346e-10 3.36266e-10 0)
(-9.29731e-11 -2.67835e-09 0)
(-1.31119e-09 -3.86837e-09 0)
(1.9547e-10 8.83203e-10 0)
(-4.35186e-10 1.68281e-09 0)
(1.75441e-10 2.04994e-09 0)
(9.51924e-10 2.47086e-09 0)
(1.22642e-09 1.81921e-09 0)
(8.52895e-10 7.02128e-10 0)
(1.09982e-09 -8.92107e-10 0)
(-1.72891e-10 -1.15481e-09 0)
(-9.69852e-10 -1.4845e-09 0)
(-1.36918e-09 -1.01685e-09 0)
(-1.87523e-09 2.47879e-10 0)
(-1.76928e-09 1.41234e-09 0)
(-1.50374e-09 2.44069e-09 0)
(-1.01177e-09 2.81307e-09 0)
(-5.53748e-10 2.63735e-09 0)
(2.33205e-11 2.32859e-09 0)
(2.05841e-10 5.83008e-10 0)
(1.43029e-11 -1.79518e-11 0)
(4.26209e-11 -2.63633e-09 0)
(-1.34036e-09 -3.45629e-09 0)
(-2.81774e-10 6.18652e-10 0)
(-2.84503e-10 1.0791e-09 0)
(3.2825e-10 1.39591e-09 0)
(8.31599e-10 1.64492e-09 0)
(9.987e-10 1.11601e-09 0)
(-4.82303e-11 -4.48853e-10 0)
(1.28568e-09 -2.2468e-09 0)
(5.45924e-11 -4.22364e-10 0)
(-1.05255e-09 -1.26421e-09 0)
(-1.45712e-09 -7.25699e-10 0)
(-1.7066e-09 2.38034e-10 0)
(-1.56036e-09 1.13405e-09 0)
(-1.25331e-09 1.91328e-09 0)
(-6.88766e-10 2.17893e-09 0)
(-2.77712e-10 2.01162e-09 0)
(4.18823e-10 1.65072e-09 0)
(5.12002e-10 2.27296e-10 0)
(2.35264e-10 -2.4096e-10 0)
(6.67365e-11 -2.37901e-09 0)
(-1.93487e-09 -2.80742e-09 0)
(-1.00861e-10 3.33482e-10 0)
(-1.83353e-10 4.18081e-10 0)
(3.31428e-10 7.49771e-10 0)
(1.07398e-09 6.98793e-10 0)
(1.31181e-09 6.95173e-10 0)
(-7.47421e-10 1.97572e-09 0)
(2.09035e-09 2.49361e-09 0)
(-2.15178e-09 -6.49314e-10 0)
(-2.30522e-09 9.08479e-10 0)
(-1.52781e-09 7.64003e-10 0)
(-1.96093e-09 6.05422e-10 0)
(-1.95727e-09 4.87176e-10 0)
(-1.7122e-09 4.82677e-10 0)
(-1.16585e-09 5.58239e-10 0)
(-7.16608e-10 5.3382e-10 0)
(-6.0613e-12 5.84633e-10 0)
(3.09479e-10 2.87057e-10 0)
(2.02231e-10 2.41098e-10 0)
(2.2186e-10 -2.76174e-10 0)
(-1.45984e-09 -8.11009e-10 0)
(-1.48164e-10 2.11053e-10 0)
(-5.51914e-11 2.84913e-10 0)
(2.88616e-10 6.17732e-10 0)
(9.43038e-10 2.33855e-10 0)
(9.46166e-10 -4.9101e-10 0)
(3.07192e-09 8.41897e-10 0)
(-2.07719e-09 1.64729e-09 0)
(2.71904e-09 -3.44261e-09 0)
(1.02846e-09 -6.04625e-10 0)
(-1.87044e-09 -2.81282e-10 0)
(-2.19592e-09 2.44718e-10 0)
(-2.01551e-09 7.30477e-10 0)
(-1.62571e-09 1.1329e-09 0)
(-1.04439e-09 1.18266e-09 0)
(-6.36949e-10 1.00862e-09 0)
(7.80169e-11 6.41082e-10 0)
(3.20162e-10 -1.86864e-10 0)
(1.32723e-10 -4.96877e-10 0)
(2.28345e-11 -1.52194e-09 0)
(-1.73973e-09 -1.32022e-09 0)
)
;

boundaryField
{
    sides
    {
        type            calculated;
        value           nonuniform List<vector> 
40
(
(-1.48164e-10 0 0)
(-5.51914e-11 0 0)
(2.88616e-10 0 0)
(9.43038e-10 0 0)
(9.46166e-10 0 0)
(3.07192e-09 0 0)
(-2.07719e-09 0 0)
(2.71904e-09 0 0)
(1.02846e-09 0 0)
(-1.87044e-09 0 0)
(-2.19592e-09 0 0)
(-2.01551e-09 0 0)
(-1.62571e-09 0 0)
(-1.04439e-09 0 0)
(-6.36949e-10 0 0)
(7.80169e-11 0 0)
(3.20162e-10 0 0)
(1.32723e-10 0 0)
(2.28345e-11 0 0)
(-1.73973e-09 0 0)
(1.26629e-10 0 0)
(2.83588e-10 0 0)
(-6.01407e-10 0 0)
(-7.75853e-10 0 0)
(-1.37468e-09 0 0)
(3.26255e-09 0 0)
(-3.29873e-09 0 0)
(-4.04366e-09 0 0)
(-1.85581e-11 0 0)
(8.66745e-10 0 0)
(2.23049e-09 0 0)
(2.19133e-09 0 0)
(1.64284e-09 0 0)
(9.79404e-10 0 0)
(5.25192e-10 0 0)
(-8.18226e-11 0 0)
(-2.17754e-10 0 0)
(-6.98863e-11 0 0)
(-3.42533e-11 0 0)
(1.73889e-09 0 0)
)
;
    }
    inlet
    {
        type            calculated;
        value           uniform (0 0 0);
    }
    outlet
    {
        type            calculated;
        value           nonuniform List<vector> 
20
(
(1.73889e-09 -1.31997e-09 0)
(1.45048e-09 -8.088e-10 0)
(1.90374e-09 -2.80863e-09 0)
(1.34011e-09 -3.46803e-09 0)
(1.36655e-09 -3.87871e-09 0)
(1.3701e-09 -5.36796e-09 0)
(7.00111e-10 -5.28489e-09 0)
(8.27769e-10 -6.2408e-09 0)
(4.04708e-10 -6.24717e-09 0)
(1.91417e-10 -6.49727e-09 0)
(-1.38146e-10 -6.44909e-09 0)
(-4.17168e-10 -6.16312e-09 0)
(-8.95432e-10 -6.21728e-09 0)
(-7.30698e-10 -5.32164e-09 0)
(-1.32695e-09 -5.39581e-09 0)
(-1.31119e-09 -3.86837e-09 0)
(-1.34036e-09 -3.45629e-09 0)
(-1.93487e-09 -2.80742e-09 0)
(-1.45984e-09 -8.11009e-10 0)
(-1.73973e-09 -1.32022e-09 0)
)
;
    }
    frontAndBack
    {
        type            empty;
    }
}


// ************************************************************************* //
