/*--------------------------------*- C++ -*----------------------------------*\
  =========                 |
  \\      /  F ield         | OpenFOAM: The Open Source CFD Toolbox
   \\    /   O peration     | Website:  https://openfoam.org
    \\  /    A nd           | Version:  7
     \\/     M anipulation  |
\*---------------------------------------------------------------------------*/
FoamFile
{
    version     2.0;
    format      ascii;
    class       volVectorField;
    location    "44";
    object      hU;
}
// * * * * * * * * * * * * * * * * * * * * * * * * * * * * * * * * * * * * * //

dimensions      [0 2 -1 0 0 0 0];

internalField   nonuniform List<vector> 
400
(
(0.001 -8.88702e-09 0)
(0.000999999 -2.42911e-08 0)
(0.000999999 -3.69707e-08 0)
(0.001 -4.81106e-08 0)
(0.00100001 -5.86432e-08 0)
(0.00100001 -6.9149e-08 0)
(0.00100002 -7.94944e-08 0)
(0.00100003 -8.98445e-08 0)
(0.00100004 -9.98369e-08 0)
(0.00100006 -1.11209e-07 0)
(0.00100007 -1.21703e-07 0)
(0.0010001 -1.35334e-07 0)
(0.00100011 -1.46083e-07 0)
(0.00100015 -1.63519e-07 0)
(0.00100017 -1.72802e-07 0)
(0.00100024 -1.97491e-07 0)
(0.00100026 -2.02046e-07 0)
(0.00100038 -2.44148e-07 0)
(0.00100038 -2.39984e-07 0)
(0.00100061 -3.3141e-07 0)
(0.001 4.04242e-09 0)
(0.001 1.21377e-08 0)
(0.00100001 2.02925e-08 0)
(0.00100001 2.80401e-08 0)
(0.00100002 3.50059e-08 0)
(0.00100002 4.12112e-08 0)
(0.00100003 4.71074e-08 0)
(0.00100004 5.25668e-08 0)
(0.00100005 5.80275e-08 0)
(0.00100007 6.21434e-08 0)
(0.00100008 6.69531e-08 0)
(0.0010001 6.86311e-08 0)
(0.00100012 7.27874e-08 0)
(0.00100015 6.98594e-08 0)
(0.00100018 7.3907e-08 0)
(0.00100023 6.13092e-08 0)
(0.00100026 6.65358e-08 0)
(0.00100035 3.1088e-08 0)
(0.00100037 3.88464e-08 0)
(0.00100051 -5.49617e-08 0)
(0.001 -4.1071e-09 0)
(0.000999999 -1.36444e-08 0)
(0.000999999 -2.41957e-08 0)
(0.001 -3.54047e-08 0)
(0.001 -4.64214e-08 0)
(0.00100001 -5.73335e-08 0)
(0.00100002 -6.74524e-08 0)
(0.00100003 -7.83477e-08 0)
(0.00100004 -8.88856e-08 0)
(0.00100005 -1.01618e-07 0)
(0.00100006 -1.13869e-07 0)
(0.00100008 -1.31059e-07 0)
(0.0010001 -1.45601e-07 0)
(0.00100013 -1.70091e-07 0)
(0.00100016 -1.85957e-07 0)
(0.00100021 -2.2305e-07 0)
(0.00100023 -2.38e-07 0)
(0.00100031 -2.99861e-07 0)
(0.00100033 -3.08517e-07 0)
(0.00100046 -4.21979e-07 0)
(0.001 -3.96002e-10 0)
(0.001 -1.04373e-09 0)
(0.001 -1.16657e-09 0)
(0.00100001 -1.32114e-09 0)
(0.00100001 -1.30429e-09 0)
(0.00100002 -1.61347e-09 0)
(0.00100003 -1.53572e-09 0)
(0.00100004 -2.3921e-09 0)
(0.00100005 -3.06051e-09 0)
(0.00100006 -6.50175e-09 0)
(0.00100007 -9.90204e-09 0)
(0.00100009 -1.90791e-08 0)
(0.0010001 -2.62294e-08 0)
(0.00100013 -4.44838e-08 0)
(0.00100015 -5.46574e-08 0)
(0.00100019 -8.74203e-08 0)
(0.00100022 -9.85175e-08 0)
(0.00100028 -1.57631e-07 0)
(0.0010003 -1.64111e-07 0)
(0.00100039 -2.75916e-07 0)
(0.001 -2.92042e-09 0)
(0.001 -9.70792e-09 0)
(0.001 -1.73509e-08 0)
(0.001 -2.6153e-08 0)
(0.00100001 -3.56277e-08 0)
(0.00100001 -4.57342e-08 0)
(0.00100002 -5.55939e-08 0)
(0.00100002 -6.63218e-08 0)
(0.00100003 -7.69954e-08 0)
(0.00100004 -9.05763e-08 0)
(0.00100005 -1.04174e-07 0)
(0.00100007 -1.23855e-07 0)
(0.00100008 -1.4164e-07 0)
(0.00100011 -1.71062e-07 0)
(0.00100013 -1.92322e-07 0)
(0.00100016 -2.36862e-07 0)
(0.00100018 -2.59016e-07 0)
(0.00100024 -3.2975e-07 0)
(0.00100025 -3.45122e-07 0)
(0.00100033 -4.64589e-07 0)
(0.001 -2.76781e-09 0)
(0.001 -8.63058e-09 0)
(0.001 -1.44966e-08 0)
(0.001 -2.05765e-08 0)
(0.00100001 -2.64682e-08 0)
(0.00100001 -3.22796e-08 0)
(0.00100002 -3.74546e-08 0)
(0.00100003 -4.3381e-08 0)
(0.00100003 -4.94537e-08 0)
(0.00100004 -5.8853e-08 0)
(0.00100005 -6.89216e-08 0)
(0.00100006 -8.58666e-08 0)
(0.00100008 -1.01632e-07 0)
(0.0010001 -1.29748e-07 0)
(0.00100011 -1.50069e-07 0)
(0.00100014 -1.94084e-07 0)
(0.00100016 -2.156e-07 0)
(0.0010002 -2.84979e-07 0)
(0.00100021 -2.99178e-07 0)
(0.00100027 -4.14852e-07 0)
(0.001 -3.00806e-09 0)
(0.001 -9.70297e-09 0)
(0.001 -1.70055e-08 0)
(0.001 -2.52153e-08 0)
(0.00100001 -3.40766e-08 0)
(0.00100001 -4.36421e-08 0)
(0.00100001 -5.30594e-08 0)
(0.00100002 -6.34899e-08 0)
(0.00100002 -7.41552e-08 0)
(0.00100003 -8.8192e-08 0)
(0.00100004 -1.02906e-07 0)
(0.00100005 -1.24617e-07 0)
(0.00100006 -1.45097e-07 0)
(0.00100007 -1.7818e-07 0)
(0.00100009 -2.03416e-07 0)
(0.00100011 -2.52742e-07 0)
(0.00100012 -2.79202e-07 0)
(0.00100015 -3.5398e-07 0)
(0.00100016 -3.72178e-07 0)
(0.00100021 -4.92514e-07 0)
(0.001 -3.25462e-09 0)
(0.001 -1.05495e-08 0)
(0.001 -1.86136e-08 0)
(0.001 -2.75256e-08 0)
(0.001 -3.67057e-08 0)
(0.00100001 -4.60999e-08 0)
(0.00100001 -5.48966e-08 0)
(0.00100001 -6.44519e-08 0)
(0.00100002 -7.42043e-08 0)
(0.00100002 -8.74695e-08 0)
(0.00100003 -1.01782e-07 0)
(0.00100004 -1.2345e-07 0)
(0.00100004 -1.44284e-07 0)
(0.00100005 -1.77936e-07 0)
(0.00100006 -2.03829e-07 0)
(0.00100008 -2.5367e-07 0)
(0.00100009 -2.80563e-07 0)
(0.00100011 -3.54959e-07 0)
(0.00100012 -3.73052e-07 0)
(0.00100015 -4.90742e-07 0)
(0.001 -3.40939e-09 0)
(0.001 -1.10479e-08 0)
(0.001 -1.94844e-08 0)
(0.001 -2.87149e-08 0)
(0.001 -3.81699e-08 0)
(0.001 -4.79997e-08 0)
(0.00100001 -5.74794e-08 0)
(0.00100001 -6.79591e-08 0)
(0.00100001 -7.87718e-08 0)
(0.00100001 -9.32095e-08 0)
(0.00100002 -1.08725e-07 0)
(0.00100002 -1.31693e-07 0)
(0.00100003 -1.53851e-07 0)
(0.00100003 -1.89116e-07 0)
(0.00100004 -2.16643e-07 0)
(0.00100005 -2.6848e-07 0)
(0.00100005 -2.97124e-07 0)
(0.00100007 -3.73634e-07 0)
(0.00100007 -3.92991e-07 0)
(0.00100009 -5.12779e-07 0)
(0.001 -3.48041e-09 0)
(0.001 -1.12626e-08 0)
(0.001 -1.98787e-08 0)
(0.001 -2.93614e-08 0)
(0.001 -3.91547e-08 0)
(0.001 -4.9353e-08 0)
(0.001 -5.91433e-08 0)
(0.001 -6.98394e-08 0)
(0.001 -8.08421e-08 0)
(0.001 -9.55187e-08 0)
(0.00100001 -1.11404e-07 0)
(0.00100001 -1.34834e-07 0)
(0.00100001 -1.57561e-07 0)
(0.00100001 -1.93369e-07 0)
(0.00100001 -2.21413e-07 0)
(0.00100002 -2.73598e-07 0)
(0.00100002 -3.02573e-07 0)
(0.00100002 -3.79054e-07 0)
(0.00100002 -3.98574e-07 0)
(0.00100003 -5.17522e-07 0)
(0.001 -3.48549e-09 0)
(0.001 -1.12595e-08 0)
(0.001 -1.98801e-08 0)
(0.001 -2.93602e-08 0)
(0.000999999 -3.91567e-08 0)
(0.000999999 -4.93485e-08 0)
(0.000999998 -5.91412e-08 0)
(0.000999997 -6.98347e-08 0)
(0.000999996 -8.0839e-08 0)
(0.000999995 -9.5519e-08 0)
(0.000999994 -1.11397e-07 0)
(0.000999993 -1.34831e-07 0)
(0.000999991 -1.57564e-07 0)
(0.000999989 -1.93365e-07 0)
(0.000999987 -2.21406e-07 0)
(0.000999984 -2.73597e-07 0)
(0.000999982 -3.02578e-07 0)
(0.000999978 -3.79053e-07 0)
(0.000999976 -3.98565e-07 0)
(0.00099997 -5.17514e-07 0)
(0.001 -3.41679e-09 0)
(0.001 -1.10457e-08 0)
(0.000999999 -1.94872e-08 0)
(0.000999999 -2.87123e-08 0)
(0.000999997 -3.81733e-08 0)
(0.000999996 -4.7992e-08 0)
(0.000999994 -5.74734e-08 0)
(0.000999992 -6.79499e-08 0)
(0.000999989 -7.87627e-08 0)
(0.000999986 -9.32081e-08 0)
(0.000999983 -1.0871e-07 0)
(0.000999978 -1.31676e-07 0)
(0.000999974 -1.53849e-07 0)
(0.000999967 -1.89105e-07 0)
(0.000999962 -2.16627e-07 0)
(0.000999952 -2.68467e-07 0)
(0.000999947 -2.97119e-07 0)
(0.000999934 -3.73605e-07 0)
(0.00099993 -3.9295e-07 0)
(0.000999911 -5.12712e-07 0)
(0.001 -3.25504e-09 0)
(0.001 -1.05543e-08 0)
(0.000999999 -1.86113e-08 0)
(0.000999998 -2.75251e-08 0)
(0.000999996 -3.67099e-08 0)
(0.000999993 -4.60986e-08 0)
(0.00099999 -5.4891e-08 0)
(0.000999986 -6.44486e-08 0)
(0.000999982 -7.41941e-08 0)
(0.000999977 -8.7471e-08 0)
(0.000999971 -1.0178e-07 0)
(0.000999964 -1.23433e-07 0)
(0.000999957 -1.44277e-07 0)
(0.000999946 -1.77934e-07 0)
(0.000999937 -2.03833e-07 0)
(0.000999921 -2.53674e-07 0)
(0.000999911 -2.80576e-07 0)
(0.000999889 -3.54962e-07 0)
(0.000999881 -3.73052e-07 0)
(0.000999851 -4.90726e-07 0)
(0.001 -3.00212e-09 0)
(0.000999999 -9.70784e-09 0)
(0.000999999 -1.69981e-08 0)
(0.000999997 -2.52259e-08 0)
(0.000999994 -3.40766e-08 0)
(0.000999991 -4.36471e-08 0)
(0.000999987 -5.30465e-08 0)
(0.000999982 -6.34868e-08 0)
(0.000999977 -7.41348e-08 0)
(0.000999969 -8.81726e-08 0)
(0.000999962 -1.02903e-07 0)
(0.000999951 -1.24593e-07 0)
(0.000999941 -1.45063e-07 0)
(0.000999926 -1.78143e-07 0)
(0.000999914 -2.03389e-07 0)
(0.000999892 -2.52693e-07 0)
(0.000999879 -2.79161e-07 0)
(0.000999847 -3.53905e-07 0)
(0.000999839 -3.72108e-07 0)
(0.000999792 -4.92375e-07 0)
(0.001 -2.76041e-09 0)
(0.000999999 -8.62843e-09 0)
(0.000999998 -1.44967e-08 0)
(0.000999996 -2.05956e-08 0)
(0.000999992 -2.64632e-08 0)
(0.000999987 -3.23013e-08 0)
(0.000999981 -3.74423e-08 0)
(0.000999975 -4.33918e-08 0)
(0.000999967 -4.94629e-08 0)
(0.000999958 -5.88422e-08 0)
(0.000999949 -6.89359e-08 0)
(0.000999936 -8.58846e-08 0)
(0.000999924 -1.0164e-07 0)
(0.000999905 -1.29752e-07 0)
(0.000999888 -1.50084e-07 0)
(0.000999861 -1.9409e-07 0)
(0.000999841 -2.15613e-07 0)
(0.000999802 -2.84982e-07 0)
(0.000999786 -2.99184e-07 0)
(0.00099973 -4.14832e-07 0)
(0.001 -2.92026e-09 0)
(0.001 -9.70454e-09 0)
(0.001 -1.73617e-08 0)
(0.000999997 -2.6145e-08 0)
(0.000999994 -3.56086e-08 0)
(0.00099999 -4.57347e-08 0)
(0.000999984 -5.55679e-08 0)
(0.000999977 -6.62947e-08 0)
(0.000999969 -7.70096e-08 0)
(0.000999958 -9.05588e-08 0)
(0.000999947 -1.0416e-07 0)
(0.000999931 -1.23852e-07 0)
(0.000999916 -1.41639e-07 0)
(0.000999892 -1.71037e-07 0)
(0.000999873 -1.92305e-07 0)
(0.000999838 -2.36809e-07 0)
(0.000999817 -2.58978e-07 0)
(0.000999764 -3.2966e-07 0)
(0.000999751 -3.45052e-07 0)
(0.000999669 -4.64429e-07 0)
(0.001 -4.03313e-10 0)
(0.000999998 -1.0512e-09 0)
(0.000999996 -1.19152e-09 0)
(0.000999991 -1.29925e-09 0)
(0.000999986 -1.30873e-09 0)
(0.00099998 -1.60817e-09 0)
(0.000999973 -1.59193e-09 0)
(0.000999964 -2.37291e-09 0)
(0.000999954 -3.10646e-09 0)
(0.000999942 -6.52986e-09 0)
(0.00099993 -9.90725e-09 0)
(0.000999912 -1.90897e-08 0)
(0.000999895 -2.62491e-08 0)
(0.000999869 -4.44886e-08 0)
(0.000999847 -5.46628e-08 0)
(0.000999807 -8.74044e-08 0)
(0.00099978 -9.8503e-08 0)
(0.00099972 -1.5759e-07 0)
(0.000999698 -1.64078e-07 0)
(0.00099961 -2.7585e-07 0)
(0.001 -4.10677e-09 0)
(0.001 -1.36392e-08 0)
(0.001 -2.41865e-08 0)
(0.000999999 -3.53793e-08 0)
(0.000999995 -4.64174e-08 0)
(0.000999989 -5.73108e-08 0)
(0.000999983 -6.75885e-08 0)
(0.000999973 -7.8333e-08 0)
(0.000999963 -8.88676e-08 0)
(0.000999949 -1.01624e-07 0)
(0.000999936 -1.13871e-07 0)
(0.000999916 -1.31054e-07 0)
(0.000999898 -1.45613e-07 0)
(0.000999866 -1.70088e-07 0)
(0.000999843 -1.8597e-07 0)
(0.000999793 -2.23033e-07 0)
(0.000999767 -2.38008e-07 0)
(0.000999687 -2.99817e-07 0)
(0.00099967 -3.08513e-07 0)
(0.000999538 -4.21901e-07 0)
(0.001 4.02978e-09 0)
(0.000999996 1.21408e-08 0)
(0.000999992 2.03311e-08 0)
(0.000999988 2.80134e-08 0)
(0.000999982 3.4953e-08 0)
(0.000999976 4.12092e-08 0)
(0.000999968 4.72082e-08 0)
(0.000999958 5.24772e-08 0)
(0.000999947 5.80644e-08 0)
(0.000999933 6.21258e-08 0)
(0.000999919 6.6933e-08 0)
(0.000999898 6.8637e-08 0)
(0.000999879 7.27886e-08 0)
(0.000999846 6.98752e-08 0)
(0.000999821 7.39151e-08 0)
(0.000999769 6.13486e-08 0)
(0.000999738 6.65659e-08 0)
(0.000999654 3.11712e-08 0)
(0.000999628 3.89099e-08 0)
(0.000999494 -5.48326e-08 0)
(0.001 -8.90248e-09 0)
(0.001 -2.4297e-08 0)
(0.001 -3.69551e-08 0)
(0.000999998 -4.81538e-08 0)
(0.000999993 -5.87191e-08 0)
(0.000999986 -6.91856e-08 0)
(0.000999978 -7.93419e-08 0)
(0.000999968 -8.99759e-08 0)
(0.000999957 -9.98839e-08 0)
(0.000999941 -1.11283e-07 0)
(0.000999928 -1.21774e-07 0)
(0.000999904 -1.35387e-07 0)
(0.000999887 -1.46137e-07 0)
(0.000999848 -1.63573e-07 0)
(0.000999828 -1.72862e-07 0)
(0.000999761 -1.97549e-07 0)
(0.000999742 -2.02108e-07 0)
(0.000999623 -2.44216e-07 0)
(0.000999617 -2.40055e-07 0)
(0.000999393 -3.31533e-07 0)
)
;

boundaryField
{
    sides
    {
        type            slip;
    }
    inlet
    {
        type            fixedValue;
        value           uniform (0.001 0 0);
    }
    outlet
    {
        type            zeroGradient;
    }
    frontAndBack
    {
        type            empty;
    }
}


// ************************************************************************* //
