/*--------------------------------*- C++ -*----------------------------------*\
  =========                 |
  \\      /  F ield         | OpenFOAM: The Open Source CFD Toolbox
   \\    /   O peration     | Website:  https://openfoam.org
    \\  /    A nd           | Version:  7
     \\/     M anipulation  |
\*---------------------------------------------------------------------------*/
FoamFile
{
    version     2.0;
    format      ascii;
    class       surfaceScalarField;
    location    "44";
    object      phi_0;
}
// * * * * * * * * * * * * * * * * * * * * * * * * * * * * * * * * * * * * * //

dimensions      [0 4 -1 0 0 0 0];

internalField   nonuniform List<scalar> 
760
(
4.99999e-06
9.43215e-12
4.99999e-06
-6.02358e-12
5e-06
-1.56165e-11
5.00002e-06
-2.32583e-11
5.00005e-06
-3.10437e-11
5.00009e-06
-4.30389e-11
5.00013e-06
-3.84189e-11
5.00019e-06
-4.90887e-11
5.00025e-06
-6.26173e-11
5.00032e-06
-7.70065e-11
5.00041e-06
-8.83625e-11
5.00052e-06
-1.12403e-10
5.00065e-06
-1.26041e-10
5.00081e-06
-1.68514e-10
5.00099e-06
-1.79917e-10
5.00125e-06
-2.60493e-10
5.00151e-06
-2.60315e-10
5.00195e-06
-4.35737e-10
5.00237e-06
-4.17954e-10
-8.90986e-10
5.00002e-06
-1.22374e-11
5.00003e-06
-2.18757e-11
5.00005e-06
-3.39204e-11
5.00007e-06
-4.8557e-11
5.0001e-06
-6.28011e-11
5.00014e-06
-7.87245e-11
5.00019e-06
-9.10792e-11
5.00024e-06
-1.09362e-10
5.0003e-06
-1.24268e-10
5.00037e-06
-1.50652e-10
5.00045e-06
-1.73056e-10
5.00056e-06
-2.18293e-10
5.00068e-06
-2.48003e-10
5.00083e-06
-3.25103e-10
5.00101e-06
-3.57376e-10
5.00124e-06
-4.93199e-10
5.0015e-06
-5.17637e-10
5.00184e-06
-7.76019e-10
5.00219e-06
-7.68084e-10
-1.26154e-09
4.99999e-06
-6.45248e-12
4.99999e-06
-2.43027e-11
5e-06
-4.45246e-11
5.00001e-06
-6.69795e-11
5.00004e-06
-8.92008e-11
5.00007e-06
-1.1241e-10
5.00011e-06
-1.33898e-10
5.00016e-06
-1.59218e-10
5.00022e-06
-1.8388e-10
5.00028e-06
-2.20685e-10
5.00037e-06
-2.56744e-10
5.00046e-06
-3.17825e-10
5.00058e-06
-3.68757e-10
5.00073e-06
-4.69354e-10
5.0009e-06
-5.31335e-10
5.0011e-06
-6.98012e-10
5.00135e-06
-7.60891e-10
5.00162e-06
-1.05374e-09
5.00195e-06
-1.09539e-09
-1.68787e-09
5.00001e-06
-1.35039e-11
5.00002e-06
-3.78834e-11
5.00003e-06
-6.27998e-11
5.00006e-06
-9.0547e-11
5.00008e-06
-1.18846e-10
5.00012e-06
-1.48032e-10
5.00016e-06
-1.75367e-10
5.0002e-06
-2.06688e-10
5.00026e-06
-2.3784e-10
5.00032e-06
-2.84209e-10
5.00039e-06
-3.30349e-10
5.00048e-06
-4.0757e-10
5.00058e-06
-4.7388e-10
5.00071e-06
-5.98649e-10
5.00086e-06
-6.80002e-10
5.00104e-06
-8.79483e-10
5.00124e-06
-9.63715e-10
5.00148e-06
-1.29608e-09
5.00174e-06
-1.34727e-09
-1.89669e-09
5e-06
-1.30372e-11
5e-06
-4.17617e-11
5.00001e-06
-7.20027e-11
5.00002e-06
-1.05028e-10
5.00004e-06
-1.39276e-10
5.00006e-06
-1.7478e-10
5.0001e-06
-2.08633e-10
5.00014e-06
-2.46882e-10
5.00018e-06
-2.86285e-10
5.00024e-06
-3.41173e-10
5.0003e-06
-3.98352e-10
5.00038e-06
-4.87451e-10
5.00048e-06
-5.69469e-10
5.00059e-06
-7.10059e-10
5.00072e-06
-8.11913e-10
5.00087e-06
-1.02941e-09
5.00104e-06
-1.13605e-09
5.00122e-06
-1.48054e-09
5.00143e-06
-1.55176e-09
-2.16095e-09
5e-06
-1.47333e-11
5.00001e-06
-4.81892e-11
5.00002e-06
-8.36668e-11
5.00003e-06
-1.22153e-10
5.00005e-06
-1.61574e-10
5.00008e-06
-2.02195e-10
5.00011e-06
-2.40305e-10
5.00014e-06
-2.83014e-10
5.00018e-06
-3.27039e-10
5.00023e-06
-3.88362e-10
5.00028e-06
-4.53516e-10
5.00035e-06
-5.53814e-10
5.00043e-06
-6.47494e-10
5.00052e-06
-8.03602e-10
5.00062e-06
-9.19206e-10
5.00075e-06
-1.1551e-09
5.00089e-06
-1.27488e-09
5.00105e-06
-1.63862e-09
5.00121e-06
-1.7193e-09
-2.29127e-09
5e-06
-1.63497e-11
5e-06
-5.27792e-11
5.00001e-06
-9.16602e-11
5.00002e-06
-1.33537e-10
5.00004e-06
-1.76344e-10
5.00005e-06
-2.20817e-10
5.00008e-06
-2.63299e-10
5.0001e-06
-3.10768e-10
5.00013e-06
-3.6008e-10
5.00017e-06
-4.27232e-10
5.00022e-06
-4.99396e-10
5.00027e-06
-6.07351e-10
5.00033e-06
-7.10192e-10
5.0004e-06
-8.76028e-10
5.00048e-06
-1.00282e-09
5.00058e-06
-1.24929e-09
5.00068e-06
-1.38055e-09
5.0008e-06
-1.75062e-09
5.00091e-06
-1.83626e-09
-2.44003e-09
5e-06
-1.7257e-11
5e-06
-5.56126e-11
5.00001e-06
-9.70053e-11
5.00002e-06
-1.42049e-10
5.00003e-06
-1.88203e-10
5.00004e-06
-2.35968e-10
5.00006e-06
-2.81548e-10
5.00008e-06
-3.31989e-10
5.0001e-06
-3.84372e-10
5.00013e-06
-4.55285e-10
5.00016e-06
-5.32032e-10
5.0002e-06
-6.45735e-10
5.00024e-06
-7.55155e-10
5.00029e-06
-9.28935e-10
5.00035e-06
-1.06326e-09
5.00042e-06
-1.31823e-09
5.0005e-06
-1.45608e-09
5.00058e-06
-1.83386e-09
5.00067e-06
-1.92654e-09
-2.51381e-09
5e-06
-1.77087e-11
5e-06
-5.73288e-11
5e-06
-1.00562e-10
5.00001e-06
-1.47588e-10
5.00002e-06
-1.95548e-10
5.00003e-06
-2.45e-10
5.00004e-06
-2.92269e-10
5.00005e-06
-3.44523e-10
5.00006e-06
-3.98934e-10
5.00008e-06
-4.72362e-10
5.0001e-06
-5.52092e-10
5.00012e-06
-6.6933e-10
5.00015e-06
-7.82736e-10
5.00018e-06
-9.60867e-10
5.00021e-06
-1.09939e-09
5.00025e-06
-1.35858e-09
5.0003e-06
-1.50043e-09
5.00035e-06
-1.8813e-09
5.00039e-06
-1.97442e-09
-2.56984e-09
5e-06
-1.78867e-11
5e-06
-5.79587e-11
5e-06
-1.01804e-10
5e-06
-1.49409e-10
5.00001e-06
-1.97894e-10
5.00001e-06
-2.47909e-10
5.00001e-06
-2.95879e-10
5.00002e-06
-3.48877e-10
5.00002e-06
-4.04098e-10
5.00003e-06
-4.78281e-10
5.00003e-06
-5.58813e-10
5.00004e-06
-6.76954e-10
5.00005e-06
-7.91488e-10
5.00006e-06
-9.70974e-10
5.00007e-06
-1.11118e-09
5.00008e-06
-1.37224e-09
5.0001e-06
-1.51573e-09
5.00012e-06
-1.89768e-09
5.00013e-06
-1.99248e-09
-2.58588e-09
5e-06
-1.77649e-11
5e-06
-5.73362e-11
5e-06
-1.00576e-10
5e-06
-1.47588e-10
4.99999e-06
-1.95541e-10
4.99999e-06
-2.44964e-10
4.99999e-06
-2.92264e-10
4.99998e-06
-3.44484e-10
4.99998e-06
-3.98956e-10
4.99997e-06
-4.72359e-10
4.99997e-06
-5.5206e-10
4.99996e-06
-6.69363e-10
4.99995e-06
-7.82759e-10
4.99994e-06
-9.60806e-10
4.99993e-06
-1.09939e-09
4.99992e-06
-1.35863e-09
4.9999e-06
-1.50042e-09
4.99988e-06
-1.88118e-09
4.99987e-06
-1.97431e-09
-2.56969e-09
5e-06
-1.73223e-11
5e-06
-5.56088e-11
5e-06
-9.70466e-11
4.99999e-06
-1.42042e-10
4.99998e-06
-1.88209e-10
4.99997e-06
-2.35917e-10
4.99996e-06
-2.81527e-10
4.99995e-06
-3.31929e-10
4.99994e-06
-3.84352e-10
4.99992e-06
-4.55281e-10
4.9999e-06
-5.31951e-10
4.99988e-06
-6.4569e-10
4.99985e-06
-7.5518e-10
4.99982e-06
-9.28895e-10
4.99979e-06
-1.06324e-09
4.99975e-06
-1.31822e-09
4.9997e-06
-1.45604e-09
4.99965e-06
-1.83369e-09
4.99961e-06
-1.92638e-09
-2.51359e-09
5e-06
-1.63585e-11
5e-06
-5.2788e-11
4.99999e-06
-9.16779e-11
4.99998e-06
-1.33509e-10
4.99997e-06
-1.76401e-10
4.99996e-06
-2.2081e-10
4.99994e-06
-2.63305e-10
4.99992e-06
-3.1073e-10
4.9999e-06
-3.60026e-10
4.99987e-06
-4.27259e-10
4.99984e-06
-4.99352e-10
4.9998e-06
-6.07217e-10
4.99976e-06
-7.10143e-10
4.99971e-06
-8.75988e-10
4.99965e-06
-1.0028e-09
4.99958e-06
-1.24923e-09
4.9995e-06
-1.38054e-09
4.99942e-06
-1.75049e-09
4.99933e-06
-1.83611e-09
-2.43968e-09
5e-06
-1.46789e-11
5e-06
-4.81956e-11
4.99999e-06
-8.36026e-11
4.99998e-06
-1.22198e-10
4.99996e-06
-1.61662e-10
4.99995e-06
-2.02215e-10
4.99992e-06
-2.4031e-10
4.9999e-06
-2.83015e-10
4.99987e-06
-3.26922e-10
4.99983e-06
-3.88369e-10
4.99978e-06
-4.53586e-10
4.99973e-06
-5.53734e-10
4.99967e-06
-6.47401e-10
4.9996e-06
-8.03526e-10
4.99952e-06
-9.19166e-10
4.99942e-06
-1.155e-09
4.99932e-06
-1.27485e-09
4.9992e-06
-1.63846e-09
4.99909e-06
-1.71911e-09
-2.29084e-09
5e-06
-1.29768e-11
4.99999e-06
-4.17479e-11
4.99998e-06
-7.1956e-11
4.99997e-06
-1.05158e-10
4.99995e-06
-1.39201e-10
4.99992e-06
-1.74861e-10
4.99989e-06
-2.08539e-10
4.99986e-06
-2.47004e-10
4.99982e-06
-2.8621e-10
4.99977e-06
-3.41063e-10
4.99972e-06
-3.98449e-10
4.99965e-06
-4.87499e-10
4.99957e-06
-5.69442e-10
4.99948e-06
-7.09985e-10
4.99938e-06
-8.11889e-10
4.99925e-06
-1.02928e-09
4.99911e-06
-1.13601e-09
4.99895e-06
-1.48035e-09
4.99879e-06
-1.5516e-09
-2.16049e-09
5e-06
-1.34752e-11
5e-06
-3.78728e-11
4.99999e-06
-6.28451e-11
4.99998e-06
-9.05848e-11
4.99996e-06
-1.18652e-10
4.99994e-06
-1.48183e-10
4.9999e-06
-1.75004e-10
4.99987e-06
-2.06659e-10
4.99982e-06
-2.37959e-10
4.99976e-06
-2.84079e-10
4.9997e-06
-3.30327e-10
4.99962e-06
-4.07624e-10
4.99952e-06
-4.73907e-10
4.99941e-06
-5.98571e-10
4.99928e-06
-6.79957e-10
4.99913e-06
-8.79298e-10
4.99896e-06
-9.63595e-10
4.99878e-06
-1.2958e-09
4.99857e-06
-1.34706e-09
-1.89616e-09
4.99999e-06
-6.47519e-12
4.99998e-06
-2.43118e-11
4.99997e-06
-4.46066e-11
4.99994e-06
-6.68527e-11
4.99992e-06
-8.91693e-11
4.99988e-06
-1.12395e-10
4.99984e-06
-1.33787e-10
4.9998e-06
-1.59147e-10
4.99974e-06
-1.84052e-10
4.99968e-06
-2.20721e-10
4.99961e-06
-2.56719e-10
4.99952e-06
-3.1786e-10
4.99942e-06
-3.68844e-10
4.99929e-06
-4.69345e-10
4.99914e-06
-5.31353e-10
4.99896e-06
-6.97877e-10
4.99876e-06
-7.60814e-10
4.99852e-06
-1.05349e-09
4.99827e-06
-1.09528e-09
-1.68748e-09
5.00001e-06
-1.23595e-11
5.00001e-06
-2.18858e-11
5e-06
-3.3898e-11
4.99999e-06
-4.83057e-11
4.99996e-06
-6.30379e-11
4.99993e-06
-7.87837e-11
4.99989e-06
-9.28173e-11
4.99984e-06
-1.08934e-10
4.99978e-06
-1.24431e-10
4.99972e-06
-1.50779e-10
4.99963e-06
-1.73027e-10
4.99954e-06
-2.1823e-10
4.99942e-06
-2.48043e-10
4.99927e-06
-3.25061e-10
4.9991e-06
-3.57396e-10
4.99889e-06
-4.93037e-10
4.99865e-06
-5.17566e-10
4.99837e-06
-7.75691e-10
4.99805e-06
-7.67921e-10
-1.26105e-09
4.99998e-06
9.29638e-12
4.99997e-06
-6.06563e-12
4.99995e-06
-1.55287e-11
4.99993e-06
-2.33085e-11
4.9999e-06
-3.22749e-11
4.99986e-06
-3.82681e-11
4.99982e-06
-4.50084e-11
4.99976e-06
-4.73545e-11
4.9997e-06
-6.25901e-11
4.99963e-06
-7.72487e-11
4.99955e-06
-8.852e-11
4.99944e-06
-1.12492e-10
4.99932e-06
-1.26165e-10
4.99917e-06
-1.68616e-10
4.99899e-06
-1.80044e-10
4.99876e-06
-2.60533e-10
4.9985e-06
-2.60372e-10
4.99816e-06
-4.35687e-10
4.99781e-06
-4.17966e-10
-8.90957e-10
5.00001e-06
5.00001e-06
5e-06
4.99998e-06
4.99995e-06
4.99991e-06
4.99987e-06
4.99981e-06
4.99975e-06
4.99968e-06
4.99959e-06
4.99948e-06
4.99935e-06
4.99919e-06
4.99901e-06
4.99875e-06
4.99849e-06
4.99805e-06
4.99763e-06
)
;

boundaryField
{
    sides
    {
        type            calculated;
        value           uniform 0;
    }
    inlet
    {
        type            calculated;
        value           nonuniform List<scalar> 
20
(
-5e-06
-5e-06
-5e-06
-5e-06
-5e-06
-5e-06
-5e-06
-5e-06
-5e-06
-5e-06
-5e-06
-5e-06
-5e-06
-5e-06
-5e-06
-5e-06
-5e-06
-5e-06
-5e-06
-5e-06
)
;
    }
    outlet
    {
        type            calculated;
        value           nonuniform List<scalar> 
20
(
5.00326e-06
5.00256e-06
5.00238e-06
5.00194e-06
5.00169e-06
5.00134e-06
5.00106e-06
5.00074e-06
5.00045e-06
5.00015e-06
4.99985e-06
4.99955e-06
4.99926e-06
4.99894e-06
4.99866e-06
4.99831e-06
4.99806e-06
4.99762e-06
4.99744e-06
4.99674e-06
)
;
    }
    frontAndBack
    {
        type            empty;
        value           nonuniform 0();
    }
}


// ************************************************************************* //
