/*--------------------------------*- C++ -*----------------------------------*\
  =========                 |
  \\      /  F ield         | OpenFOAM: The Open Source CFD Toolbox
   \\    /   O peration     | Website:  https://openfoam.org
    \\  /    A nd           | Version:  7
     \\/     M anipulation  |
\*---------------------------------------------------------------------------*/
FoamFile
{
    version     2.0;
    format      ascii;
    class       volVectorField;
    location    "44";
    object      U;
}
// * * * * * * * * * * * * * * * * * * * * * * * * * * * * * * * * * * * * * //

dimensions      [0 1 -1 0 0 0 0];

internalField   nonuniform List<vector> 
400
(
(0.0999931 -8.8864e-07 0)
(0.099993 -2.42894e-06 0)
(0.099993 -3.69682e-06 0)
(0.0999933 -4.81073e-06 0)
(0.0999939 -5.86392e-06 0)
(0.0999946 -6.91443e-06 0)
(0.0999955 -7.94891e-06 0)
(0.0999966 -8.98386e-06 0)
(0.0999978 -9.98304e-06 0)
(0.0999996 -1.11202e-05 0)
(0.100001 -1.21695e-05 0)
(0.100004 -1.35326e-05 0)
(0.100006 -1.46075e-05 0)
(0.10001 -1.63511e-05 0)
(0.100012 -1.72793e-05 0)
(0.100019 -1.97482e-05 0)
(0.100022 -2.02038e-05 0)
(0.100035 -2.44141e-05 0)
(0.100036 -2.39979e-05 0)
(0.10006 -3.31407e-05 0)
(0.0999943 4.04219e-07 0)
(0.0999947 1.21371e-06 0)
(0.0999951 2.02914e-06 0)
(0.0999956 2.80385e-06 0)
(0.0999962 3.5004e-06 0)
(0.0999969 4.1209e-06 0)
(0.0999978 4.71048e-06 0)
(0.0999989 5.2564e-06 0)
(0.1 5.80245e-06 0)
(0.100002 6.21402e-06 0)
(0.100003 6.69498e-06 0)
(0.100006 6.86279e-06 0)
(0.100008 7.27843e-06 0)
(0.100011 6.98566e-06 0)
(0.100014 7.39043e-06 0)
(0.10002 6.13072e-06 0)
(0.100024 6.6534e-06 0)
(0.100033 3.10873e-06 0)
(0.100036 3.88459e-06 0)
(0.10005 -5.49615e-06 0)
(0.0999948 -4.10689e-07 0)
(0.0999946 -1.36437e-06 0)
(0.0999946 -2.41944e-06 0)
(0.0999948 -3.54029e-06 0)
(0.0999953 -4.6419e-06 0)
(0.0999959 -5.73305e-06 0)
(0.0999967 -6.7449e-06 0)
(0.0999977 -7.83438e-06 0)
(0.0999988 -8.88813e-06 0)
(0.1 -1.01613e-05 0)
(0.100002 -1.13863e-05 0)
(0.100004 -1.31054e-05 0)
(0.100006 -1.45595e-05 0)
(0.10001 -1.70085e-05 0)
(0.100012 -1.85951e-05 0)
(0.100018 -2.23043e-05 0)
(0.100021 -2.37994e-05 0)
(0.100029 -2.99855e-05 0)
(0.100032 -3.08514e-05 0)
(0.100046 -4.21977e-05 0)
(0.0999956 -3.95985e-08 0)
(0.0999958 -1.04369e-07 0)
(0.099996 -1.16652e-07 0)
(0.0999965 -1.32108e-07 0)
(0.0999971 -1.30423e-07 0)
(0.0999978 -1.6134e-07 0)
(0.0999986 -1.53566e-07 0)
(0.0999996 -2.392e-07 0)
(0.100001 -3.06038e-07 0)
(0.100002 -6.5015e-07 0)
(0.100003 -9.90167e-07 0)
(0.100005 -1.90784e-06 0)
(0.100007 -2.62285e-06 0)
(0.10001 -4.44825e-06 0)
(0.100013 -5.4656e-06 0)
(0.100017 -8.74183e-06 0)
(0.10002 -9.85157e-06 0)
(0.100027 -1.57629e-05 0)
(0.100029 -1.64109e-05 0)
(0.100039 -2.75916e-05 0)
(0.0999963 -2.92031e-07 0)
(0.0999963 -9.70755e-07 0)
(0.0999963 -1.73503e-06 0)
(0.0999965 -2.6152e-06 0)
(0.0999969 -3.56264e-06 0)
(0.0999974 -4.57325e-06 0)
(0.099998 -5.55919e-06 0)
(0.0999988 -6.63194e-06 0)
(0.0999997 -7.69928e-06 0)
(0.100001 -9.05733e-06 0)
(0.100002 -1.04171e-05 0)
(0.100004 -1.23852e-05 0)
(0.100006 -1.41636e-05 0)
(0.100008 -1.71058e-05 0)
(0.10001 -1.92318e-05 0)
(0.100014 -2.36857e-05 0)
(0.100017 -2.59012e-05 0)
(0.100022 -3.29746e-05 0)
(0.100024 -3.4512e-05 0)
(0.100033 -4.64587e-05 0)
(0.099997 -2.76772e-07 0)
(0.099997 -8.63032e-07 0)
(0.0999971 -1.44962e-06 0)
(0.0999974 -2.05759e-06 0)
(0.0999979 -2.64674e-06 0)
(0.0999984 -3.22786e-06 0)
(0.099999 -3.74535e-06 0)
(0.0999998 -4.33798e-06 0)
(0.100001 -4.94523e-06 0)
(0.100002 -5.88514e-06 0)
(0.100003 -6.89199e-06 0)
(0.100004 -8.58645e-06 0)
(0.100005 -1.0163e-05 0)
(0.100008 -1.29746e-05 0)
(0.100009 -1.50067e-05 0)
(0.100012 -1.94081e-05 0)
(0.100015 -2.15597e-05 0)
(0.100019 -2.84976e-05 0)
(0.100021 -2.99176e-05 0)
(0.100027 -4.14851e-05 0)
(0.0999977 -3.00799e-07 0)
(0.0999977 -9.70274e-07 0)
(0.0999978 -1.70051e-06 0)
(0.099998 -2.52147e-06 0)
(0.0999983 -3.40758e-06 0)
(0.0999986 -4.36411e-06 0)
(0.099999 -5.30582e-06 0)
(0.0999996 -6.34885e-06 0)
(0.1 -7.41536e-06 0)
(0.100001 -8.81902e-06 0)
(0.100002 -1.02904e-05 0)
(0.100003 -1.24615e-05 0)
(0.100004 -1.45094e-05 0)
(0.100006 -1.78177e-05 0)
(0.100007 -2.03413e-05 0)
(0.10001 -2.52739e-05 0)
(0.100011 -2.79199e-05 0)
(0.100015 -3.53977e-05 0)
(0.100016 -3.72176e-05 0)
(0.100021 -4.92513e-05 0)
(0.0999983 -3.25457e-07 0)
(0.0999984 -1.05493e-06 0)
(0.0999984 -1.86132e-06 0)
(0.0999986 -2.75252e-06 0)
(0.0999988 -3.67051e-06 0)
(0.099999 -4.60991e-06 0)
(0.0999994 -5.48958e-06 0)
(0.0999998 -6.44509e-06 0)
(0.1 -7.42032e-06 0)
(0.100001 -8.74683e-06 0)
(0.100001 -1.0178e-05 0)
(0.100002 -1.23448e-05 0)
(0.100003 -1.44282e-05 0)
(0.100004 -1.77934e-05 0)
(0.100005 -2.03827e-05 0)
(0.100007 -2.53668e-05 0)
(0.100008 -2.80561e-05 0)
(0.100011 -3.54958e-05 0)
(0.100012 -3.73051e-05 0)
(0.100015 -4.90741e-05 0)
(0.099999 -3.40935e-07 0)
(0.099999 -1.10478e-06 0)
(0.099999 -1.94842e-06 0)
(0.0999991 -2.87146e-06 0)
(0.0999993 -3.81695e-06 0)
(0.0999995 -4.79993e-06 0)
(0.0999996 -5.74788e-06 0)
(0.0999999 -6.79585e-06 0)
(0.1 -7.87711e-06 0)
(0.100001 -9.32087e-06 0)
(0.100001 -1.08724e-05 0)
(0.100001 -1.31692e-05 0)
(0.100002 -1.5385e-05 0)
(0.100003 -1.89115e-05 0)
(0.100003 -2.16642e-05 0)
(0.100004 -2.68479e-05 0)
(0.100005 -2.97123e-05 0)
(0.100006 -3.73633e-05 0)
(0.100007 -3.9299e-05 0)
(0.100009 -5.12779e-05 0)
(0.0999997 -3.48039e-07 0)
(0.0999997 -1.12625e-06 0)
(0.0999997 -1.98786e-06 0)
(0.0999997 -2.93613e-06 0)
(0.0999998 -3.91545e-06 0)
(0.0999998 -4.93528e-06 0)
(0.0999999 -5.91431e-06 0)
(0.1 -6.98392e-06 0)
(0.1 -8.08418e-06 0)
(0.1 -9.55184e-06 0)
(0.1 -1.11403e-05 0)
(0.1 -1.34834e-05 0)
(0.100001 -1.5756e-05 0)
(0.100001 -1.93368e-05 0)
(0.100001 -2.21413e-05 0)
(0.100001 -2.73597e-05 0)
(0.100002 -3.02573e-05 0)
(0.100002 -3.79054e-05 0)
(0.100002 -3.98573e-05 0)
(0.100003 -5.17522e-05 0)
(0.1 -3.4855e-07 0)
(0.1 -1.12595e-06 0)
(0.1 -1.98802e-06 0)
(0.1 -2.93603e-06 0)
(0.1 -3.91568e-06 0)
(0.1 -4.93487e-06 0)
(0.1 -5.91414e-06 0)
(0.1 -6.98349e-06 0)
(0.0999999 -8.08393e-06 0)
(0.0999998 -9.55193e-06 0)
(0.0999997 -1.11397e-05 0)
(0.0999995 -1.34831e-05 0)
(0.0999994 -1.57565e-05 0)
(0.0999991 -1.93365e-05 0)
(0.0999989 -2.21407e-05 0)
(0.0999986 -2.73598e-05 0)
(0.0999984 -3.02578e-05 0)
(0.0999979 -3.79054e-05 0)
(0.0999977 -3.98565e-05 0)
(0.099997 -5.17514e-05 0)
(0.100001 -3.41682e-07 0)
(0.100001 -1.10458e-06 0)
(0.100001 -1.94874e-06 0)
(0.100001 -2.87126e-06 0)
(0.100001 -3.81736e-06 0)
(0.100001 -4.79924e-06 0)
(0.1 -5.7474e-06 0)
(0.1 -6.79505e-06 0)
(0.0999998 -7.87634e-06 0)
(0.0999995 -9.32089e-06 0)
(0.0999991 -1.08711e-05 0)
(0.0999986 -1.31677e-05 0)
(0.0999981 -1.53851e-05 0)
(0.0999974 -1.89106e-05 0)
(0.0999967 -2.16628e-05 0)
(0.0999957 -2.68468e-05 0)
(0.099995 -2.9712e-05 0)
(0.0999936 -3.73606e-05 0)
(0.0999932 -3.9295e-05 0)
(0.0999912 -5.12713e-05 0)
(0.100002 -3.2551e-07 0)
(0.100002 -1.05545e-06 0)
(0.100002 -1.86116e-06 0)
(0.100001 -2.75255e-06 0)
(0.100001 -3.67105e-06 0)
(0.100001 -4.60993e-06 0)
(0.100001 -5.48919e-06 0)
(0.1 -6.44496e-06 0)
(0.0999997 -7.41952e-06 0)
(0.0999991 -8.74723e-06 0)
(0.0999985 -1.01782e-05 0)
(0.0999977 -1.23435e-05 0)
(0.0999969 -1.44279e-05 0)
(0.0999957 -1.77936e-05 0)
(0.0999946 -2.03835e-05 0)
(0.099993 -2.53676e-05 0)
(0.0999917 -2.80578e-05 0)
(0.0999894 -3.54964e-05 0)
(0.0999884 -3.73053e-05 0)
(0.0999852 -4.90726e-05 0)
(0.100002 -3.00219e-07 0)
(0.100002 -9.70807e-07 0)
(0.100002 -1.69985e-06 0)
(0.100002 -2.52265e-06 0)
(0.100002 -3.40774e-06 0)
(0.100001 -4.36481e-06 0)
(0.100001 -5.30477e-06 0)
(0.1 -6.34882e-06 0)
(0.0999998 -7.41363e-06 0)
(0.099999 -8.81744e-06 0)
(0.0999981 -1.02905e-05 0)
(0.099997 -1.24595e-05 0)
(0.0999958 -1.45066e-05 0)
(0.0999942 -1.78146e-05 0)
(0.0999927 -2.03391e-05 0)
(0.0999904 -2.52696e-05 0)
(0.0999888 -2.79164e-05 0)
(0.0999854 -3.53908e-05 0)
(0.0999843 -3.7211e-05 0)
(0.0999793 -4.92376e-05 0)
(0.100003 -2.76049e-07 0)
(0.100003 -8.62869e-07 0)
(0.100003 -1.44972e-06 0)
(0.100003 -2.05962e-06 0)
(0.100002 -2.6464e-06 0)
(0.100002 -3.23022e-06 0)
(0.100001 -3.74434e-06 0)
(0.1 -4.3393e-06 0)
(0.0999994 -4.94642e-06 0)
(0.0999984 -5.88437e-06 0)
(0.0999974 -6.89377e-06 0)
(0.099996 -8.58867e-06 0)
(0.0999946 -1.01642e-05 0)
(0.0999925 -1.29754e-05 0)
(0.0999906 -1.50086e-05 0)
(0.0999876 -1.94093e-05 0)
(0.0999854 -2.15615e-05 0)
(0.0999811 -2.84985e-05 0)
(0.0999792 -2.99186e-05 0)
(0.0999732 -4.14833e-05 0)
(0.100004 -2.92037e-07 0)
(0.100004 -9.7049e-07 0)
(0.100004 -1.73624e-06 0)
(0.100003 -2.61459e-06 0)
(0.100003 -3.56099e-06 0)
(0.100003 -4.57363e-06 0)
(0.100002 -5.55699e-06 0)
(0.100001 -6.6297e-06 0)
(0.1 -7.70123e-06 0)
(0.0999991 -9.05618e-06 0)
(0.0999978 -1.04163e-05 0)
(0.0999961 -1.23856e-05 0)
(0.0999944 -1.41643e-05 0)
(0.0999918 -1.71041e-05 0)
(0.0999896 -1.92309e-05 0)
(0.0999857 -2.36814e-05 0)
(0.0999833 -2.58982e-05 0)
(0.0999776 -3.29664e-05 0)
(0.0999759 -3.45055e-05 0)
(0.0999672 -4.6443e-05 0)
(0.100004 -4.03331e-08 0)
(0.100004 -1.05125e-07 0)
(0.100004 -1.19157e-07 0)
(0.100003 -1.29931e-07 0)
(0.100003 -1.30879e-07 0)
(0.100002 -1.60824e-07 0)
(0.100001 -1.592e-07 0)
(0.1 -2.373e-07 0)
(0.0999994 -3.10659e-07 0)
(0.099998 -6.53011e-07 0)
(0.0999966 -9.90762e-07 0)
(0.0999947 -1.90904e-06 0)
(0.0999928 -2.62499e-06 0)
(0.0999899 -4.44899e-06 0)
(0.0999873 -5.46643e-06 0)
(0.099983 -8.74064e-06 0)
(0.0999799 -9.85048e-06 0)
(0.0999734 -1.57592e-05 0)
(0.0999706 -1.64079e-05 0)
(0.0999613 -2.7585e-05 0)
(0.100005 -4.10698e-07 0)
(0.100005 -1.364e-06 0)
(0.100005 -2.41877e-06 0)
(0.100005 -3.53812e-06 0)
(0.100005 -4.64199e-06 0)
(0.100004 -5.73138e-06 0)
(0.100003 -6.75919e-06 0)
(0.100002 -7.83369e-06 0)
(0.100001 -8.88719e-06 0)
(0.0999996 -1.01629e-05 0)
(0.0999981 -1.13876e-05 0)
(0.0999959 -1.31059e-05 0)
(0.0999938 -1.45619e-05 0)
(0.0999904 -1.70094e-05 0)
(0.0999877 -1.85977e-05 0)
(0.0999823 -2.23039e-05 0)
(0.0999792 -2.38014e-05 0)
(0.0999706 -2.99822e-05 0)
(0.0999682 -3.08517e-05 0)
(0.0999542 -4.21903e-05 0)
(0.100006 4.03001e-07 0)
(0.100005 1.21415e-06 0)
(0.100005 2.03323e-06 0)
(0.100004 2.80149e-06 0)
(0.100004 3.49549e-06 0)
(0.100003 4.12115e-06 0)
(0.100002 4.72107e-06 0)
(0.100001 5.248e-06 0)
(0.0999999 5.80674e-06 0)
(0.0999983 6.21289e-06 0)
(0.0999968 6.69362e-06 0)
(0.0999944 6.86402e-06 0)
(0.0999923 7.27918e-06 0)
(0.0999887 6.9878e-06 0)
(0.0999858 7.39178e-06 0)
(0.0999801 6.13506e-06 0)
(0.0999765 6.65677e-06 0)
(0.0999674 3.11718e-06 0)
(0.0999641 3.89104e-06 0)
(0.0999499 -5.48328e-06 0)
(0.100007 -8.9031e-07 0)
(0.100007 -2.42987e-06 0)
(0.100007 -3.69577e-06 0)
(0.100007 -4.81571e-06 0)
(0.100006 -5.87231e-06 0)
(0.100005 -6.91903e-06 0)
(0.100005 -7.93472e-06 0)
(0.100003 -8.99818e-06 0)
(0.100002 -9.98903e-06 0)
(0.1 -1.1129e-05 0)
(0.0999989 -1.21781e-05 0)
(0.0999963 -1.35395e-05 0)
(0.0999943 -1.46145e-05 0)
(0.09999 -1.63582e-05 0)
(0.0999876 -1.72871e-05 0)
(0.0999805 -1.97557e-05 0)
(0.099978 -2.02116e-05 0)
(0.0999653 -2.44223e-05 0)
(0.0999637 -2.4006e-05 0)
(0.0999401 -3.31536e-05 0)
)
;

boundaryField
{
    sides
    {
        type            calculated;
        value           nonuniform List<vector> 
40
(
(0.100007 0 0)
(0.100007 0 0)
(0.100007 0 0)
(0.100007 0 0)
(0.100006 0 0)
(0.100005 0 0)
(0.100005 0 0)
(0.100003 0 0)
(0.100002 0 0)
(0.1 0 0)
(0.0999989 0 0)
(0.0999963 0 0)
(0.0999943 0 0)
(0.09999 0 0)
(0.0999876 0 0)
(0.0999805 0 0)
(0.099978 0 0)
(0.0999653 0 0)
(0.0999637 0 0)
(0.0999401 0 0)
(0.0999931 0 0)
(0.099993 0 0)
(0.099993 0 0)
(0.0999933 0 0)
(0.0999939 0 0)
(0.0999946 0 0)
(0.0999955 0 0)
(0.0999966 0 0)
(0.0999978 0 0)
(0.0999996 0 0)
(0.100001 0 0)
(0.100004 0 0)
(0.100006 0 0)
(0.10001 0 0)
(0.100012 0 0)
(0.100019 0 0)
(0.100022 0 0)
(0.100035 0 0)
(0.100036 0 0)
(0.10006 0 0)
)
;
    }
    inlet
    {
        type            calculated;
        value           nonuniform List<vector> 
20
(
(0.0999931 0 0)
(0.0999943 0 0)
(0.0999948 0 0)
(0.0999956 0 0)
(0.0999963 0 0)
(0.099997 0 0)
(0.0999976 0 0)
(0.0999983 0 0)
(0.099999 0 0)
(0.0999997 0 0)
(0.1 0 0)
(0.100001 0 0)
(0.100002 0 0)
(0.100002 0 0)
(0.100003 0 0)
(0.100004 0 0)
(0.100004 0 0)
(0.100005 0 0)
(0.100006 0 0)
(0.100007 0 0)
)
;
    }
    outlet
    {
        type            calculated;
        value           nonuniform List<vector> 
20
(
(0.100061 -3.3141e-05 0)
(0.100051 -5.49617e-06 0)
(0.100046 -4.21979e-05 0)
(0.100039 -2.75916e-05 0)
(0.100033 -4.64589e-05 0)
(0.100027 -4.14852e-05 0)
(0.100021 -4.92514e-05 0)
(0.100015 -4.90742e-05 0)
(0.100009 -5.12779e-05 0)
(0.100003 -5.17522e-05 0)
(0.099997 -5.17514e-05 0)
(0.0999911 -5.12712e-05 0)
(0.0999851 -4.90726e-05 0)
(0.0999792 -4.92375e-05 0)
(0.099973 -4.14832e-05 0)
(0.0999669 -4.64429e-05 0)
(0.099961 -2.7585e-05 0)
(0.0999538 -4.21901e-05 0)
(0.0999494 -5.48326e-06 0)
(0.0999393 -3.31533e-05 0)
)
;
    }
    frontAndBack
    {
        type            empty;
    }
}


// ************************************************************************* //
