/*--------------------------------*- C++ -*----------------------------------*\
  =========                 |
  \\      /  F ield         | OpenFOAM: The Open Source CFD Toolbox
   \\    /   O peration     | Website:  https://openfoam.org
    \\  /    A nd           | Version:  7
     \\/     M anipulation  |
\*---------------------------------------------------------------------------*/
FoamFile
{
    version     2.0;
    format      ascii;
    class       volScalarField;
    location    "5";
    object      ddt0(h);
}
// * * * * * * * * * * * * * * * * * * * * * * * * * * * * * * * * * * * * * //

dimensions      [0 1 -1 0 0 0 0];

internalField   nonuniform List<scalar> 
400
(
-3.61893e-07
-3.84986e-07
-4.20071e-07
-4.46467e-07
-4.42871e-07
-4.20402e-07
-3.6242e-07
-3.16411e-07
-2.02356e-07
-6.67173e-08
6.32739e-08
1.62988e-07
2.09693e-07
2.1622e-07
1.86515e-07
1.27564e-07
6.04177e-08
1.03684e-08
-1.23529e-08
-7.77158e-09
-3.65321e-07
-3.98747e-07
-4.24539e-07
-4.54505e-07
-4.35418e-07
-3.98458e-07
-3.74891e-07
-2.72812e-07
-1.92267e-07
-1.04104e-07
-9.8345e-09
6.04943e-08
1.19647e-07
1.43683e-07
1.35577e-07
1.10259e-07
7.57099e-08
3.99852e-08
1.5109e-08
3.30209e-09
-3.413e-07
-3.72577e-07
-4.1675e-07
-4.17779e-07
-4.34011e-07
-3.51108e-07
-3.70107e-07
-2.52246e-07
-1.96263e-07
-1.54485e-07
-9.56873e-08
-1.80826e-08
4.90257e-08
9.91411e-08
1.25766e-07
1.29871e-07
1.17522e-07
9.00272e-08
5.62431e-08
1.91982e-08
-3.33027e-07
-3.67858e-07
-4.03965e-07
-4.18707e-07
-3.70046e-07
-3.8844e-07
-3.07783e-07
-2.81141e-07
-2.50937e-07
-2.2057e-07
-1.75128e-07
-1.13166e-07
-3.80261e-08
1.59833e-08
5.57661e-08
8.22646e-08
9.68181e-08
9.31499e-08
6.85556e-08
2.57602e-08
-3.07686e-07
-3.43841e-07
-3.66853e-07
-3.69805e-07
-3.57069e-07
-3.15525e-07
-2.73283e-07
-3.11963e-07
-2.80854e-07
-2.61063e-07
-2.21801e-07
-1.68772e-07
-1.16062e-07
-7.01814e-08
-3.11053e-08
9.7465e-09
4.7774e-08
6.66276e-08
5.72295e-08
2.33538e-08
-2.65734e-07
-3.0638e-07
-3.12633e-07
-3.13662e-07
-2.79479e-07
-2.72244e-07
-2.83331e-07
-2.98562e-07
-3.02602e-07
-2.71292e-07
-2.36449e-07
-2.00553e-07
-1.69067e-07
-1.39198e-07
-1.05396e-07
-5.96889e-08
-1.29615e-08
1.71408e-08
2.2001e-08
9.77301e-09
-2.12902e-07
-2.3554e-07
-2.6108e-07
-2.21303e-07
-2.38756e-07
-2.34376e-07
-2.32846e-07
-2.27144e-07
-2.51532e-07
-2.53099e-07
-2.39233e-07
-2.20845e-07
-2.03232e-07
-1.84955e-07
-1.59939e-07
-1.19212e-07
-7.35106e-08
-3.81874e-08
-1.77682e-08
-4.80868e-09
-1.49186e-07
-1.72956e-07
-1.67461e-07
-1.58756e-07
-1.47841e-07
-1.64703e-07
-1.72567e-07
-1.95622e-07
-2.01034e-07
-1.9545e-07
-1.92621e-07
-1.88765e-07
-1.87169e-07
-1.83982e-07
-1.70898e-07
-1.40341e-07
-9.9908e-08
-6.55366e-08
-3.87582e-08
-1.31766e-08
-9.08387e-08
-1.06268e-07
-9.65628e-08
-9.09191e-08
-8.9742e-08
-9.59746e-08
-9.92779e-08
-1.15861e-07
-1.21427e-07
-1.22643e-07
-1.23824e-07
-1.24269e-07
-1.26706e-07
-1.29901e-07
-1.24586e-07
-1.06061e-07
-7.93533e-08
-5.55065e-08
-3.48158e-08
-1.22455e-08
-3.15719e-08
-3.63662e-08
-3.32327e-08
-3.0584e-08
-3.31968e-08
-3.54304e-08
-3.67049e-08
-4.06721e-08
-4.38997e-08
-4.37317e-08
-4.40667e-08
-4.47285e-08
-4.54185e-08
-4.66439e-08
-4.51737e-08
-3.94142e-08
-3.09229e-08
-2.28334e-08
-1.48743e-08
-5.31077e-09
3.14087e-08
3.62115e-08
3.31247e-08
3.05235e-08
3.31739e-08
3.54486e-08
3.67403e-08
4.06456e-08
4.39101e-08
4.37817e-08
4.41052e-08
4.47315e-08
4.53868e-08
4.65901e-08
4.51059e-08
3.93355e-08
3.08378e-08
2.27562e-08
1.48192e-08
5.28906e-09
9.06771e-08
1.06109e-07
9.6452e-08
9.08593e-08
8.97325e-08
9.59878e-08
9.91885e-08
1.15796e-07
1.21344e-07
1.22646e-07
1.23857e-07
1.24292e-07
1.26706e-07
1.29883e-07
1.24554e-07
1.06017e-07
7.92999e-08
5.54557e-08
3.47803e-08
1.22319e-08
1.49002e-07
1.72795e-07
1.67335e-07
1.58698e-07
1.47808e-07
1.64647e-07
1.72447e-07
1.96033e-07
2.01142e-07
1.95475e-07
1.92664e-07
1.88823e-07
1.87223e-07
1.84022e-07
1.70924e-07
1.40356e-07
9.99126e-08
6.55376e-08
3.87614e-08
1.3178e-08
2.12692e-07
2.35398e-07
2.60975e-07
2.21245e-07
2.38749e-07
2.34446e-07
2.33059e-07
2.27225e-07
2.51778e-07
2.53309e-07
2.39397e-07
2.20989e-07
2.03361e-07
1.85064e-07
1.60028e-07
1.19283e-07
7.35693e-08
3.82369e-08
1.78081e-08
4.82512e-09
2.65548e-07
3.06274e-07
3.12599e-07
3.13675e-07
2.7955e-07
2.7246e-07
2.83774e-07
2.982e-07
3.02866e-07
2.71669e-07
2.36741e-07
2.00761e-07
1.6924e-07
1.39349e-07
1.05527e-07
5.97964e-08
1.30512e-08
-1.70665e-08
-2.19461e-08
-9.75211e-09
3.07527e-07
3.43807e-07
3.66841e-07
3.69917e-07
3.57212e-07
3.15617e-07
2.73676e-07
3.12427e-07
2.81453e-07
2.61451e-07
2.22082e-07
1.68956e-07
1.16216e-07
7.03152e-08
3.12338e-08
-9.62979e-09
-4.76748e-08
-6.65463e-08
-5.71727e-08
-2.33324e-08
3.32912e-07
3.6781e-07
4.04075e-07
4.18791e-07
3.7037e-07
3.88651e-07
3.07924e-07
2.82034e-07
2.51335e-07
2.20827e-07
1.75375e-07
1.13372e-07
3.81558e-08
-1.58917e-08
-5.56796e-08
-8.21821e-08
-9.67467e-08
-9.30901e-08
-6.85122e-08
-2.5743e-08
3.41247e-07
3.72582e-07
4.16855e-07
4.17994e-07
4.34276e-07
3.51509e-07
3.70391e-07
2.52895e-07
1.96415e-07
1.54632e-07
9.58972e-08
1.82344e-08
-4.89043e-08
-9.9075e-08
-1.25717e-07
-1.29837e-07
-1.17502e-07
-9.00127e-08
-5.62292e-08
-1.9192e-08
3.65292e-07
3.98778e-07
4.24644e-07
4.54746e-07
4.35692e-07
3.98947e-07
3.75255e-07
2.72795e-07
1.92548e-07
1.04518e-07
9.98988e-09
-6.02828e-08
-1.19618e-07
-1.43652e-07
-1.35599e-07
-1.10289e-07
-7.57407e-08
-4.00097e-08
-1.51214e-08
-3.30497e-09
3.61838e-07
3.85044e-07
4.20199e-07
4.46706e-07
4.43224e-07
4.2081e-07
3.62969e-07
3.1677e-07
2.02725e-07
6.69393e-08
-6.3067e-08
-1.62978e-07
-2.09665e-07
-2.16286e-07
-1.86615e-07
-1.27684e-07
-6.05261e-08
-1.0451e-08
1.23002e-08
7.75516e-09
)
;

boundaryField
{
    sides
    {
        type            calculated;
        value           nonuniform List<scalar> 
40
(
3.61838e-07
3.85044e-07
4.20199e-07
4.46706e-07
4.43224e-07
4.2081e-07
3.62969e-07
3.1677e-07
2.02725e-07
6.69393e-08
-6.3067e-08
-1.62978e-07
-2.09665e-07
-2.16286e-07
-1.86615e-07
-1.27684e-07
-6.05261e-08
-1.0451e-08
1.23002e-08
7.75516e-09
-3.61893e-07
-3.84986e-07
-4.20071e-07
-4.46467e-07
-4.42871e-07
-4.20402e-07
-3.6242e-07
-3.16411e-07
-2.02356e-07
-6.67173e-08
6.32739e-08
1.62988e-07
2.09693e-07
2.1622e-07
1.86515e-07
1.27564e-07
6.04177e-08
1.03684e-08
-1.23529e-08
-7.77158e-09
)
;
    }
    inlet
    {
        type            calculated;
        value           nonuniform List<scalar> 
20
(
-3.61893e-07
-3.65321e-07
-3.413e-07
-3.33027e-07
-3.07686e-07
-2.65734e-07
-2.12902e-07
-1.49186e-07
-9.08387e-08
-3.15719e-08
3.14087e-08
9.06771e-08
1.49002e-07
2.12692e-07
2.65548e-07
3.07527e-07
3.32912e-07
3.41247e-07
3.65292e-07
3.61838e-07
)
;
    }
    outlet
    {
        type            calculated;
        value           uniform 0;
    }
    frontAndBack
    {
        type            empty;
    }
}


// ************************************************************************* //
