/*--------------------------------*- C++ -*----------------------------------*\
  =========                 |
  \\      /  F ield         | OpenFOAM: The Open Source CFD Toolbox
   \\    /   O peration     | Website:  https://openfoam.org
    \\  /    A nd           | Version:  7
     \\/     M anipulation  |
\*---------------------------------------------------------------------------*/
FoamFile
{
    version     2.0;
    format      ascii;
    class       volVectorField;
    location    "5";
    object      ddt0(hU);
}
// * * * * * * * * * * * * * * * * * * * * * * * * * * * * * * * * * * * * * //

dimensions      [0 2 -2 0 0 0 0];

internalField   nonuniform List<vector> 
400
(
(-1.09162e-08 2.88085e-09 0)
(2.12741e-08 7.53489e-10 0)
(6.35969e-08 -3.47048e-09 0)
(8.90259e-08 -6.04432e-09 0)
(9.63254e-08 -1.06598e-08 0)
(9.623e-08 -2.47668e-10 0)
(8.60305e-08 -6.45141e-10 0)
(5.03868e-08 -6.02629e-10 0)
(1.89317e-08 -6.64681e-09 0)
(-7.37591e-09 -2.26307e-08 0)
(-3.21857e-08 -3.18133e-08 0)
(-4.72084e-08 -3.31759e-08 0)
(-5.6291e-08 -2.52323e-08 0)
(-5.2095e-08 -1.8262e-08 0)
(-4.59314e-08 -1.0383e-08 0)
(-3.31736e-08 -7.84374e-09 0)
(-2.38866e-08 -6.45804e-09 0)
(-8.52585e-09 -1.01874e-08 0)
(-1.90119e-09 -1.42057e-08 0)
(1.22578e-08 -2.0425e-08 0)
(-1.01224e-08 -1.07861e-08 0)
(1.92549e-08 -2.13981e-08 0)
(6.23833e-08 -1.47725e-08 0)
(8.24618e-08 -6.62262e-09 0)
(8.99637e-08 -9.66129e-09 0)
(8.40325e-08 -3.01422e-09 0)
(6.7039e-08 4.00635e-09 0)
(5.60192e-08 9.61145e-09 0)
(2.78937e-08 1.2026e-08 0)
(-1.06697e-10 2.49912e-09 0)
(-1.97727e-08 -3.81832e-10 0)
(-3.36166e-08 6.54669e-09 0)
(-4.11419e-08 2.17526e-08 0)
(-4.17554e-08 3.42282e-08 0)
(-3.9838e-08 4.4853e-08 0)
(-3.08177e-08 4.59377e-08 0)
(-2.41904e-08 4.31618e-08 0)
(-1.37927e-08 3.45525e-08 0)
(-7.95249e-09 2.20955e-08 0)
(3.02266e-09 1.11774e-08 0)
(-8.26013e-09 -2.16661e-08 0)
(2.29551e-08 -4.08377e-08 0)
(6.02804e-08 -3.22327e-08 0)
(8.42545e-08 -2.77987e-08 0)
(8.9729e-08 -1.83407e-08 0)
(9.29599e-08 -1.54412e-08 0)
(6.66727e-08 6.08733e-09 0)
(4.55229e-08 6.7133e-09 0)
(1.46757e-08 -2.44356e-09 0)
(-1.31588e-08 -1.4676e-08 0)
(-2.53605e-08 -2.58189e-08 0)
(-3.11598e-08 -2.63944e-08 0)
(-3.71707e-08 -1.66634e-08 0)
(-3.81998e-08 -5.19251e-09 0)
(-3.99633e-08 6.68888e-09 0)
(-3.40435e-08 9.90706e-09 0)
(-2.99177e-08 9.01642e-09 0)
(-2.05666e-08 3.62802e-10 0)
(-1.58061e-08 -1.2817e-08 0)
(-5.14499e-09 -2.66199e-08 0)
(-7.68683e-09 -1.99266e-08 0)
(2.28743e-08 -4.10104e-08 0)
(5.08447e-08 -4.16504e-08 0)
(7.23489e-08 -3.76067e-08 0)
(7.82047e-08 -3.34301e-08 0)
(6.70677e-08 -1.39833e-08 0)
(6.13215e-08 -2.38387e-10 0)
(4.12624e-08 9.93216e-09 0)
(2.63487e-08 -3.95082e-09 0)
(3.25902e-09 -1.95107e-08 0)
(-1.44662e-08 -3.03433e-08 0)
(-2.15672e-08 -3.36081e-08 0)
(-2.53016e-08 -2.5481e-08 0)
(-2.79557e-08 -1.49597e-08 0)
(-3.14573e-08 5.12338e-10 0)
(-3.14168e-08 8.35481e-09 0)
(-3.20672e-08 1.49756e-08 0)
(-2.86455e-08 1.09384e-08 0)
(-2.60623e-08 2.08546e-09 0)
(-2.1059e-08 -7.96144e-09 0)
(-5.71607e-09 -2.38248e-08 0)
(2.15112e-08 -4.43528e-08 0)
(4.81289e-08 -4.42233e-08 0)
(6.46963e-08 -4.24755e-08 0)
(7.10573e-08 -3.45802e-08 0)
(6.32687e-08 -7.90641e-09 0)
(4.69684e-08 1.0499e-08 0)
(2.52471e-08 2.11548e-08 0)
(6.27422e-09 1.53088e-10 0)
(-4.81029e-09 -2.74726e-08 0)
(-1.27911e-08 -4.64741e-08 0)
(-1.82077e-08 -5.55306e-08 0)
(-2.31124e-08 -5.43648e-08 0)
(-2.60837e-08 -4.9209e-08 0)
(-3.04507e-08 -3.77594e-08 0)
(-3.1949e-08 -3.17245e-08 0)
(-3.49801e-08 -2.42472e-08 0)
(-3.32323e-08 -2.47294e-08 0)
(-3.34035e-08 -3.08738e-08 0)
(-2.87418e-08 -3.40885e-08 0)
(-5.0727e-09 -2.34919e-08 0)
(2.03143e-08 -4.37198e-08 0)
(3.72898e-08 -5.03051e-08 0)
(5.11841e-08 -5.56617e-08 0)
(5.67325e-08 -4.12588e-08 0)
(4.36906e-08 -1.35496e-08 0)
(3.52061e-08 2.09472e-08 0)
(2.39192e-08 2.31052e-08 0)
(1.12957e-08 2.53276e-09 0)
(4.9174e-09 -2.9741e-08 0)
(-4.5826e-09 -5.42625e-08 0)
(-1.27024e-08 -6.66539e-08 0)
(-1.95653e-08 -6.74475e-08 0)
(-2.3559e-08 -6.35014e-08 0)
(-2.84053e-08 -5.2464e-08 0)
(-3.19946e-08 -4.58799e-08 0)
(-3.75254e-08 -3.53764e-08 0)
(-3.9429e-08 -3.2001e-08 0)
(-4.10133e-08 -3.19431e-08 0)
(-3.9814e-08 -3.10495e-08 0)
(-3.49431e-09 -2.10192e-08 0)
(1.70646e-08 -3.79905e-08 0)
(2.73684e-08 -5.27981e-08 0)
(4.07657e-08 -5.49783e-08 0)
(4.17757e-08 -3.86583e-08 0)
(3.66496e-08 5.43773e-09 0)
(2.53806e-08 4.23863e-08 0)
(1.43936e-08 4.25575e-08 0)
(3.31619e-09 1.28931e-08 0)
(-1.04459e-09 -3.05319e-08 0)
(-3.91912e-09 -6.50614e-08 0)
(-9.66311e-09 -8.48364e-08 0)
(-1.56392e-08 -9.05081e-08 0)
(-1.93826e-08 -9.01047e-08 0)
(-2.375e-08 -8.15679e-08 0)
(-2.78978e-08 -7.63343e-08 0)
(-3.43036e-08 -6.4265e-08 0)
(-3.77918e-08 -5.65747e-08 0)
(-4.13789e-08 -5.02956e-08 0)
(-4.08467e-08 -4.10112e-08 0)
(-1.57671e-09 -1.68888e-08 0)
(1.21676e-08 -3.22065e-08 0)
(2.05072e-08 -4.88691e-08 0)
(2.75912e-08 -5.52751e-08 0)
(3.01106e-08 -2.86388e-08 0)
(2.48523e-08 2.03285e-08 0)
(1.79964e-08 5.80899e-08 0)
(9.17009e-09 5.90668e-08 0)
(2.42111e-09 2.74866e-08 0)
(-6.18703e-10 -1.59676e-08 0)
(-4.51953e-09 -5.44285e-08 0)
(-9.1327e-09 -7.88148e-08 0)
(-1.33429e-08 -8.89526e-08 0)
(-1.59543e-08 -9.28727e-08 0)
(-1.92181e-08 -8.84515e-08 0)
(-2.27045e-08 -8.70645e-08 0)
(-2.78831e-08 -7.65682e-08 0)
(-3.11551e-08 -6.83428e-08 0)
(-3.4706e-08 -5.87387e-08 0)
(-3.49932e-08 -4.46345e-08 0)
(-9.74479e-10 -1.47607e-08 0)
(7.57221e-09 -2.86474e-08 0)
(1.21741e-08 -4.74983e-08 0)
(1.65842e-08 -5.4561e-08 0)
(1.83515e-08 -2.22085e-08 0)
(1.52037e-08 3.37744e-08 0)
(1.02761e-08 7.47001e-08 0)
(4.27163e-09 7.30578e-08 0)
(1.0058e-09 3.78919e-08 0)
(-1.28254e-09 -9.12586e-09 0)
(-3.62493e-09 -4.87347e-08 0)
(-6.16498e-09 -7.37105e-08 0)
(-8.59813e-09 -8.49579e-08 0)
(-1.03049e-08 -9.10783e-08 0)
(-1.2401e-08 -8.93608e-08 0)
(-1.45665e-08 -9.07998e-08 0)
(-1.76393e-08 -8.20338e-08 0)
(-1.9732e-08 -7.43009e-08 0)
(-2.23415e-08 -6.3421e-08 0)
(-2.28309e-08 -4.70322e-08 0)
(-4.48028e-10 -1.47e-08 0)
(2.49016e-09 -2.72089e-08 0)
(3.94997e-09 -4.83278e-08 0)
(5.53048e-09 -5.47151e-08 0)
(5.95869e-09 -2.11557e-08 0)
(4.79433e-09 3.79456e-08 0)
(2.8438e-09 7.96509e-08 0)
(8.2391e-10 7.96109e-08 0)
(-3.5252e-10 4.38967e-08 0)
(-1.04047e-09 -3.31123e-09 0)
(-1.63341e-09 -4.26604e-08 0)
(-2.28303e-09 -6.7943e-08 0)
(-3.00896e-09 -7.9902e-08 0)
(-3.615e-09 -8.70914e-08 0)
(-4.35094e-09 -8.65984e-08 0)
(-5.06493e-09 -8.9319e-08 0)
(-6.03902e-09 -8.17766e-08 0)
(-6.73296e-09 -7.50525e-08 0)
(-7.68881e-09 -6.44176e-08 0)
(-7.89065e-09 -4.76959e-08 0)
(4.40349e-10 -1.46964e-08 0)
(-2.48874e-09 -2.72008e-08 0)
(-3.95629e-09 -4.83182e-08 0)
(-5.54944e-09 -5.4706e-08 0)
(-5.9864e-09 -2.11511e-08 0)
(-4.82444e-09 3.79462e-08 0)
(-2.86525e-09 7.96579e-08 0)
(-8.47196e-10 7.96363e-08 0)
(3.32779e-10 4.39173e-08 0)
(1.03381e-09 -3.3e-09 0)
(1.63451e-09 -4.26553e-08 0)
(2.28696e-09 -6.79412e-08 0)
(3.01652e-09 -7.99017e-08 0)
(3.6213e-09 -8.70915e-08 0)
(4.36151e-09 -8.6599e-08 0)
(5.07144e-09 -8.93193e-08 0)
(6.05034e-09 -8.17763e-08 0)
(6.7384e-09 -7.50521e-08 0)
(7.69486e-09 -6.44158e-08 0)
(7.89123e-09 -4.76929e-08 0)
(9.66453e-10 -1.4748e-08 0)
(-7.57439e-09 -2.86203e-08 0)
(-1.21821e-08 -4.74675e-08 0)
(-1.66052e-08 -5.45326e-08 0)
(-1.83826e-08 -2.21886e-08 0)
(-1.52311e-08 3.37886e-08 0)
(-1.02878e-08 7.47332e-08 0)
(-4.28836e-09 7.30995e-08 0)
(-1.05119e-09 3.794e-08 0)
(1.25537e-09 -9.0956e-09 0)
(3.61624e-09 -4.87199e-08 0)
(6.16569e-09 -7.37058e-08 0)
(8.6057e-09 -8.4959e-08 0)
(1.03125e-08 -9.10812e-08 0)
(1.24134e-08 -8.9365e-08 0)
(1.45751e-08 -9.08026e-08 0)
(1.7653e-08 -8.20341e-08 0)
(1.97402e-08 -7.43007e-08 0)
(2.23497e-08 -6.34165e-08 0)
(2.28331e-08 -4.70233e-08 0)
(1.56701e-09 -1.6864e-08 0)
(-1.21749e-08 -3.21606e-08 0)
(-2.05216e-08 -4.88152e-08 0)
(-2.76133e-08 -5.52267e-08 0)
(-3.0142e-08 -2.85982e-08 0)
(-2.48736e-08 2.03636e-08 0)
(-1.80135e-08 5.81094e-08 0)
(-9.14575e-09 5.90563e-08 0)
(-2.44803e-09 2.74934e-08 0)
(5.75011e-10 -1.59472e-08 0)
(4.49565e-09 -5.44162e-08 0)
(9.12537e-09 -7.88151e-08 0)
(1.33484e-08 -8.89631e-08 0)
(1.59632e-08 -9.28866e-08 0)
(1.92337e-08 -8.84673e-08 0)
(2.27176e-08 -8.70772e-08 0)
(2.79025e-08 -7.65765e-08 0)
(3.11698e-08 -6.83494e-08 0)
(3.47205e-08 -5.87374e-08 0)
(3.50004e-08 -4.46237e-08 0)
(3.48059e-09 -2.09901e-08 0)
(-1.70782e-08 -3.79349e-08 0)
(-2.73869e-08 -5.27335e-08 0)
(-4.07895e-08 -5.4918e-08 0)
(-4.18012e-08 -3.86158e-08 0)
(-3.66859e-08 5.46571e-09 0)
(-2.54195e-08 4.23637e-08 0)
(-1.4427e-08 4.25334e-08 0)
(-3.30775e-09 1.28503e-08 0)
(1.04154e-09 -3.05383e-08 0)
(3.90257e-09 -6.50663e-08 0)
(9.65158e-09 -8.48505e-08 0)
(1.56415e-08 -9.05303e-08 0)
(1.93928e-08 -9.01267e-08 0)
(2.37697e-08 -8.1589e-08 0)
(2.79168e-08 -7.63484e-08 0)
(3.43305e-08 -6.42738e-08 0)
(3.78165e-08 -5.65808e-08 0)
(4.14035e-08 -5.02913e-08 0)
(4.08661e-08 -4.09924e-08 0)
(5.05982e-09 -2.34707e-08 0)
(-2.03372e-08 -4.36707e-08 0)
(-3.73119e-08 -5.02437e-08 0)
(-5.12123e-08 -5.56074e-08 0)
(-5.67626e-08 -4.12306e-08 0)
(-4.37378e-08 -1.35513e-08 0)
(-3.52333e-08 2.09706e-08 0)
(-2.40157e-08 2.31081e-08 0)
(-1.13062e-08 2.53628e-09 0)
(-4.88967e-09 -2.97574e-08 0)
(4.57782e-09 -5.42927e-08 0)
(1.26943e-08 -6.66882e-08 0)
(1.9573e-08 -6.74851e-08 0)
(2.35785e-08 -6.35363e-08 0)
(2.84365e-08 -5.24978e-08 0)
(3.2024e-08 -4.59066e-08 0)
(3.75622e-08 -3.53987e-08 0)
(3.94639e-08 -3.20224e-08 0)
(4.10521e-08 -3.19551e-08 0)
(3.98471e-08 -3.10451e-08 0)
(5.7002e-09 -2.38143e-08 0)
(-2.15388e-08 -4.43157e-08 0)
(-4.8161e-08 -4.41717e-08 0)
(-6.47277e-08 -4.24271e-08 0)
(-7.10957e-08 -3.45617e-08 0)
(-6.32962e-08 -7.92821e-09 0)
(-4.70026e-08 1.04957e-08 0)
(-2.52932e-08 2.11112e-08 0)
(-6.26709e-09 1.78809e-10 0)
(4.78628e-09 -2.74962e-08 0)
(1.27662e-08 -4.65106e-08 0)
(1.81888e-08 -5.55568e-08 0)
(2.3108e-08 -5.43899e-08 0)
(2.6092e-08 -4.92307e-08 0)
(3.04736e-08 -3.77828e-08 0)
(3.19748e-08 -3.17389e-08 0)
(3.50133e-08 -2.42565e-08 0)
(3.32695e-08 -2.47325e-08 0)
(3.34466e-08 -3.08661e-08 0)
(2.87886e-08 -3.4058e-08 0)
(7.67376e-09 -1.99276e-08 0)
(-2.29168e-08 -4.09878e-08 0)
(-5.08788e-08 -4.16158e-08 0)
(-7.2402e-08 -3.75692e-08 0)
(-7.8248e-08 -3.34151e-08 0)
(-6.71122e-08 -1.40011e-08 0)
(-6.14081e-08 -2.97406e-10 0)
(-4.1237e-08 9.89444e-09 0)
(-2.63513e-08 -4.0043e-09 0)
(-3.32213e-09 -1.95763e-08 0)
(1.4452e-08 -3.04002e-08 0)
(2.15754e-08 -3.36505e-08 0)
(2.5315e-08 -2.55162e-08 0)
(2.79802e-08 -1.49841e-08 0)
(3.15013e-08 4.88607e-10 0)
(3.14677e-08 8.33814e-09 0)
(3.21293e-08 1.4963e-08 0)
(2.871e-08 1.09282e-08 0)
(2.61339e-08 2.08578e-09 0)
(2.11365e-08 -7.95536e-09 0)
(8.25024e-09 -2.1667e-08 0)
(-2.30018e-08 -4.08145e-08 0)
(-6.03261e-08 -3.22025e-08 0)
(-8.42988e-08 -2.77667e-08 0)
(-8.9789e-08 -1.8328e-08 0)
(-9.30206e-08 -1.5461e-08 0)
(-6.67608e-08 6.02069e-09 0)
(-4.55783e-08 6.71955e-09 0)
(-1.47602e-08 -2.51108e-09 0)
(1.31065e-08 -1.47074e-08 0)
(2.53537e-08 -2.58431e-08 0)
(3.1158e-08 -2.64179e-08 0)
(3.7173e-08 -1.66837e-08 0)
(3.8206e-08 -5.20088e-09 0)
(3.99775e-08 6.68398e-09 0)
(3.40621e-08 9.91162e-09 0)
(2.99458e-08 9.02038e-09 0)
(2.0596e-08 3.74314e-10 0)
(1.58418e-08 -1.28049e-08 0)
(5.18539e-09 -2.65977e-08 0)
(1.01162e-08 -1.07874e-08 0)
(-1.93098e-08 -2.13857e-08 0)
(-6.24429e-08 -1.47553e-08 0)
(-8.2519e-08 -6.59981e-09 0)
(-9.00393e-08 -9.63863e-09 0)
(-8.41078e-08 -3.00189e-09 0)
(-6.70859e-08 3.99445e-09 0)
(-5.61114e-08 9.61619e-09 0)
(-2.79825e-08 1.20132e-08 0)
(8.34048e-11 2.49184e-09 0)
(1.97514e-08 -3.95095e-10 0)
(3.36376e-08 6.51756e-09 0)
(4.11723e-08 2.17314e-08 0)
(4.18073e-08 3.42138e-08 0)
(3.98991e-08 4.48446e-08 0)
(3.08851e-08 4.5935e-08 0)
(2.42664e-08 4.31645e-08 0)
(1.38719e-08 3.45599e-08 0)
(8.03246e-09 2.21062e-08 0)
(-2.92847e-09 1.11909e-08 0)
(1.09097e-08 2.87327e-09 0)
(-2.13247e-08 7.43279e-10 0)
(-6.36664e-08 -3.47232e-09 0)
(-8.90901e-08 -6.04639e-09 0)
(-9.6391e-08 -1.06594e-08 0)
(-9.6314e-08 -2.51986e-10 0)
(-8.60962e-08 -6.40446e-10 0)
(-5.0478e-08 -6.26608e-10 0)
(-1.90215e-08 -6.66682e-09 0)
(7.31997e-09 -2.26699e-08 0)
(3.2147e-08 -3.18534e-08 0)
(4.71762e-08 -3.3222e-08 0)
(5.62897e-08 -2.52646e-08 0)
(5.20895e-08 -1.82813e-08 0)
(4.59321e-08 -1.03957e-08 0)
(3.31764e-08 -7.85215e-09 0)
(2.38958e-08 -6.46106e-09 0)
(8.53224e-09 -1.01893e-08 0)
(1.90619e-09 -1.42039e-08 0)
(-1.22477e-08 -2.04307e-08 0)
)
;

boundaryField
{
    sides
    {
        type            calculated;
        value           nonuniform List<vector> 
40
(
(1.09097e-08 0 0)
(-2.13247e-08 0 0)
(-6.36664e-08 0 0)
(-8.90901e-08 0 0)
(-9.6391e-08 0 0)
(-9.6314e-08 0 0)
(-8.60962e-08 0 0)
(-5.0478e-08 0 0)
(-1.90215e-08 0 0)
(7.31997e-09 0 0)
(3.2147e-08 0 0)
(4.71762e-08 0 0)
(5.62897e-08 0 0)
(5.20895e-08 0 0)
(4.59321e-08 0 0)
(3.31764e-08 0 0)
(2.38958e-08 0 0)
(8.53224e-09 0 0)
(1.90619e-09 0 0)
(-1.22477e-08 0 0)
(-1.09162e-08 0 0)
(2.12741e-08 0 0)
(6.35969e-08 0 0)
(8.90259e-08 0 0)
(9.63254e-08 0 0)
(9.623e-08 0 0)
(8.60305e-08 0 0)
(5.03868e-08 0 0)
(1.89317e-08 0 0)
(-7.37591e-09 0 0)
(-3.21857e-08 0 0)
(-4.72084e-08 0 0)
(-5.6291e-08 0 0)
(-5.2095e-08 0 0)
(-4.59314e-08 0 0)
(-3.31736e-08 0 0)
(-2.38866e-08 0 0)
(-8.52585e-09 0 0)
(-1.90119e-09 0 0)
(1.22578e-08 0 0)
)
;
    }
    inlet
    {
        type            calculated;
        value           uniform (0 0 0);
    }
    outlet
    {
        type            calculated;
        value           nonuniform List<vector> 
20
(
(1.22578e-08 -2.0425e-08 0)
(3.02266e-09 1.11774e-08 0)
(-5.14499e-09 -2.66199e-08 0)
(-2.1059e-08 -7.96144e-09 0)
(-2.87418e-08 -3.40885e-08 0)
(-3.9814e-08 -3.10495e-08 0)
(-4.08467e-08 -4.10112e-08 0)
(-3.49932e-08 -4.46345e-08 0)
(-2.28309e-08 -4.70322e-08 0)
(-7.89065e-09 -4.76959e-08 0)
(7.89123e-09 -4.76929e-08 0)
(2.28331e-08 -4.70233e-08 0)
(3.50004e-08 -4.46237e-08 0)
(4.08661e-08 -4.09924e-08 0)
(3.98471e-08 -3.10451e-08 0)
(2.87886e-08 -3.4058e-08 0)
(2.11365e-08 -7.95536e-09 0)
(5.18539e-09 -2.65977e-08 0)
(-2.92847e-09 1.11909e-08 0)
(-1.22477e-08 -2.04307e-08 0)
)
;
    }
    frontAndBack
    {
        type            empty;
    }
}


// ************************************************************************* //
