/*--------------------------------*- C++ -*----------------------------------*\
  =========                 |
  \\      /  F ield         | OpenFOAM: The Open Source CFD Toolbox
   \\    /   O peration     | Website:  https://openfoam.org
    \\  /    A nd           | Version:  7
     \\/     M anipulation  |
\*---------------------------------------------------------------------------*/
FoamFile
{
    version     2.0;
    format      ascii;
    class       volVectorField;
    location    "5";
    object      hU_0;
}
// * * * * * * * * * * * * * * * * * * * * * * * * * * * * * * * * * * * * * //

dimensions      [0 2 -1 0 0 0 0];

internalField   nonuniform List<vector> 
400
(
(0.000999999 -9.56929e-09 0)
(0.00100002 -2.64033e-08 0)
(0.00100004 -3.9351e-08 0)
(0.00100003 -4.85221e-08 0)
(0.00100002 -5.5351e-08 0)
(0.00100002 -6.33521e-08 0)
(0.00100002 -7.47371e-08 0)
(0.00100002 -8.74938e-08 0)
(0.00100004 -1.03267e-07 0)
(0.00100007 -1.17881e-07 0)
(0.00100009 -1.27737e-07 0)
(0.00100013 -1.33497e-07 0)
(0.00100015 -1.3619e-07 0)
(0.00100018 -1.40969e-07 0)
(0.00100021 -1.41154e-07 0)
(0.00100026 -1.5237e-07 0)
(0.00100028 -1.49753e-07 0)
(0.00100038 -1.77655e-07 0)
(0.00100038 -1.70515e-07 0)
(0.00100058 -2.43991e-07 0)
(0.000999999 7.58596e-09 0)
(0.00100003 3.23727e-08 0)
(0.00100004 5.47429e-08 0)
(0.00100004 7.09311e-08 0)
(0.00100004 8.34065e-08 0)
(0.00100004 9.1739e-08 0)
(0.00100005 9.10443e-08 0)
(0.00100005 8.06016e-08 0)
(0.00100006 6.51512e-08 0)
(0.00100007 5.21009e-08 0)
(0.00100009 4.31761e-08 0)
(0.00100011 3.74132e-08 0)
(0.00100014 3.53723e-08 0)
(0.00100016 3.08096e-08 0)
(0.00100019 3.34381e-08 0)
(0.00100023 2.06431e-08 0)
(0.00100025 2.69023e-08 0)
(0.00100032 -1.09946e-08 0)
(0.00100035 -2.9434e-09 0)
(0.00100045 -1.02212e-07 0)
(0.001 1.25224e-09 0)
(0.00100002 1.73982e-08 0)
(0.00100003 2.87884e-08 0)
(0.00100003 3.24199e-08 0)
(0.00100002 3.08057e-08 0)
(0.00100001 2.00129e-08 0)
(0.00100001 -4.79242e-09 0)
(0.00100001 -4.0711e-08 0)
(0.00100003 -7.73051e-08 0)
(0.00100006 -1.07191e-07 0)
(0.00100008 -1.27433e-07 0)
(0.00100011 -1.4048e-07 0)
(0.00100013 -1.47915e-07 0)
(0.00100016 -1.57345e-07 0)
(0.00100018 -1.61423e-07 0)
(0.00100022 -1.79457e-07 0)
(0.00100025 -1.82709e-07 0)
(0.00100031 -2.23837e-07 0)
(0.00100032 -2.26297e-07 0)
(0.00100042 -3.13116e-07 0)
(0.001 6.29173e-09 0)
(0.00100002 3.31811e-08 0)
(0.00100003 5.96809e-08 0)
(0.00100003 8.11778e-08 0)
(0.00100003 9.67873e-08 0)
(0.00100003 9.96395e-08 0)
(0.00100003 8.40465e-08 0)
(0.00100004 5.18e-08 0)
(0.00100004 1.53077e-08 0)
(0.00100006 -1.46344e-08 0)
(0.00100007 -3.51268e-08 0)
(0.00100009 -4.97273e-08 0)
(0.00100011 -6.0105e-08 0)
(0.00100014 -7.40477e-08 0)
(0.00100016 -8.29838e-08 0)
(0.00100019 -1.08108e-07 0)
(0.00100021 -1.16003e-07 0)
(0.00100025 -1.67632e-07 0)
(0.00100027 -1.71564e-07 0)
(0.00100034 -2.74232e-07 0)
(0.001 1.01962e-08 0)
(0.00100002 4.23591e-08 0)
(0.00100003 7.08497e-08 0)
(0.00100003 9.14175e-08 0)
(0.00100002 1.01615e-07 0)
(0.00100001 9.24232e-08 0)
(0.00100001 5.72523e-08 0)
(0.00100001 4.44829e-09 0)
(0.00100003 -4.80989e-08 0)
(0.00100005 -8.87351e-08 0)
(0.00100007 -1.15747e-07 0)
(0.00100009 -1.34226e-07 0)
(0.0010001 -1.47593e-07 0)
(0.00100012 -1.6305e-07 0)
(0.00100014 -1.74012e-07 0)
(0.00100017 -1.98752e-07 0)
(0.00100019 -2.0785e-07 0)
(0.00100022 -2.55763e-07 0)
(0.00100023 -2.60658e-07 0)
(0.00100029 -3.4933e-07 0)
(0.001 1.39914e-08 0)
(0.00100002 4.93087e-08 0)
(0.00100003 8.15613e-08 0)
(0.00100002 1.094e-07 0)
(0.00100002 1.26747e-07 0)
(0.00100001 1.2168e-07 0)
(0.00100002 8.92073e-08 0)
(0.00100002 4.05133e-08 0)
(0.00100003 -9.40687e-09 0)
(0.00100004 -5.04932e-08 0)
(0.00100005 -8.00415e-08 0)
(0.00100007 -1.01829e-07 0)
(0.00100008 -1.19453e-07 0)
(0.0010001 -1.40089e-07 0)
(0.00100012 -1.57605e-07 0)
(0.00100014 -1.89293e-07 0)
(0.00100015 -2.05535e-07 0)
(0.00100018 -2.59713e-07 0)
(0.00100019 -2.68328e-07 0)
(0.00100023 -3.60528e-07 0)
(0.001 1.75005e-08 0)
(0.00100001 5.57785e-08 0)
(0.00100002 9.14932e-08 0)
(0.00100002 1.24087e-07 0)
(0.00100001 1.44037e-07 0)
(0.00100001 1.35777e-07 0)
(0.00100001 9.52583e-08 0)
(0.00100001 3.51469e-08 0)
(0.00100002 -2.35089e-08 0)
(0.00100003 -6.74759e-08 0)
(0.00100004 -9.73259e-08 0)
(0.00100006 -1.19149e-07 0)
(0.00100007 -1.3726e-07 0)
(0.00100008 -1.58378e-07 0)
(0.00100009 -1.7722e-07 0)
(0.00100011 -2.09897e-07 0)
(0.00100012 -2.27814e-07 0)
(0.00100014 -2.82499e-07 0)
(0.00100015 -2.92192e-07 0)
(0.00100018 -3.82585e-07 0)
(0.001 2.02323e-08 0)
(0.00100001 6.0096e-08 0)
(0.00100002 9.78391e-08 0)
(0.00100001 1.34026e-07 0)
(0.00100001 1.56949e-07 0)
(0.00100001 1.48236e-07 0)
(0.00100001 1.04932e-07 0)
(0.00100001 4.38632e-08 0)
(0.00100002 -1.51895e-08 0)
(0.00100002 -6.14563e-08 0)
(0.00100003 -9.33875e-08 0)
(0.00100004 -1.16642e-07 0)
(0.00100005 -1.36192e-07 0)
(0.00100006 -1.58807e-07 0)
(0.00100007 -1.79859e-07 0)
(0.00100008 -2.14768e-07 0)
(0.00100009 -2.35375e-07 0)
(0.0010001 -2.91978e-07 0)
(0.00100011 -3.03684e-07 0)
(0.00100013 -3.94441e-07 0)
(0.001 2.19952e-08 0)
(0.00100001 6.27573e-08 0)
(0.00100001 1.01585e-07 0)
(0.00100001 1.40783e-07 0)
(0.00100001 1.65958e-07 0)
(0.001 1.57015e-07 0)
(0.001 1.1142e-07 0)
(0.00100001 4.70208e-08 0)
(0.00100001 -1.42577e-08 0)
(0.00100001 -6.08468e-08 0)
(0.00100002 -9.27175e-08 0)
(0.00100002 -1.15992e-07 0)
(0.00100003 -1.35869e-07 0)
(0.00100004 -1.58991e-07 0)
(0.00100004 -1.81155e-07 0)
(0.00100005 -2.17311e-07 0)
(0.00100005 -2.39597e-07 0)
(0.00100006 -2.97489e-07 0)
(0.00100007 -3.10711e-07 0)
(0.00100008 -4.02162e-07 0)
(0.001 2.29352e-08 0)
(0.001 6.40846e-08 0)
(0.001 1.03435e-07 0)
(0.001 1.44201e-07 0)
(0.001 1.7061e-07 0)
(0.001 1.61406e-07 0)
(0.001 1.14459e-07 0)
(0.001 4.89663e-08 0)
(0.001 -1.29386e-08 0)
(0.001 -5.98661e-08 0)
(0.00100001 -9.18954e-08 0)
(0.00100001 -1.15242e-07 0)
(0.00100001 -1.35269e-07 0)
(0.00100001 -1.58572e-07 0)
(0.00100001 -1.81215e-07 0)
(0.00100002 -2.17943e-07 0)
(0.00100002 -2.4105e-07 0)
(0.00100002 -2.99632e-07 0)
(0.00100002 -3.13727e-07 0)
(0.00100003 -4.05723e-07 0)
(0.001 2.29369e-08 0)
(0.000999998 6.40871e-08 0)
(0.000999997 1.03437e-07 0)
(0.000999997 1.44202e-07 0)
(0.000999998 1.70612e-07 0)
(0.000999999 1.6141e-07 0)
(0.000999999 1.14464e-07 0)
(0.000999998 4.89732e-08 0)
(0.000999997 -1.29321e-08 0)
(0.000999995 -5.98604e-08 0)
(0.000999993 -9.18907e-08 0)
(0.000999992 -1.15238e-07 0)
(0.00099999 -1.35264e-07 0)
(0.000999988 -1.58567e-07 0)
(0.000999986 -1.81211e-07 0)
(0.000999984 -2.17938e-07 0)
(0.000999982 -2.41046e-07 0)
(0.000999979 -2.99626e-07 0)
(0.000999978 -3.13722e-07 0)
(0.000999974 -4.05715e-07 0)
(0.001 2.20001e-08 0)
(0.000999995 6.27647e-08 0)
(0.000999991 1.01591e-07 0)
(0.000999991 1.40787e-07 0)
(0.000999994 1.65963e-07 0)
(0.000999996 1.57025e-07 0)
(0.000999996 1.11438e-07 0)
(0.000999994 4.70431e-08 0)
(0.000999991 -1.42378e-08 0)
(0.000999986 -6.083e-08 0)
(0.000999981 -9.27034e-08 0)
(0.000999975 -1.15979e-07 0)
(0.00099997 -1.35858e-07 0)
(0.000999964 -1.58978e-07 0)
(0.000999958 -1.81144e-07 0)
(0.000999951 -2.17297e-07 0)
(0.000999946 -2.39584e-07 0)
(0.000999938 -2.97472e-07 0)
(0.000999934 -3.10695e-07 0)
(0.000999923 -4.0214e-07 0)
(0.000999999 2.02402e-08 0)
(0.000999991 6.01084e-08 0)
(0.000999984 9.78502e-08 0)
(0.000999985 1.34034e-07 0)
(0.00099999 1.56958e-07 0)
(0.000999993 1.48256e-07 0)
(0.000999993 1.04965e-07 0)
(0.00099999 4.39008e-08 0)
(0.000999984 -1.51532e-08 0)
(0.000999977 -6.14278e-08 0)
(0.000999968 -9.33655e-08 0)
(0.00099996 -1.16623e-07 0)
(0.000999951 -1.36176e-07 0)
(0.000999941 -1.5879e-07 0)
(0.000999932 -1.79844e-07 0)
(0.00099992 -2.14748e-07 0)
(0.000999911 -2.35359e-07 0)
(0.000999897 -2.91953e-07 0)
(0.000999892 -3.0366e-07 0)
(0.000999871 -3.94407e-07 0)
(0.000999999 1.75116e-08 0)
(0.000999988 5.57959e-08 0)
(0.000999979 9.15095e-08 0)
(0.00099998 1.24099e-07 0)
(0.000999986 1.4405e-07 0)
(0.00099999 1.35803e-07 0)
(0.000999991 9.52983e-08 0)
(0.000999988 3.51923e-08 0)
(0.000999979 -2.34623e-08 0)
(0.000999967 -6.74388e-08 0)
(0.000999956 -9.7297e-08 0)
(0.000999944 -1.19125e-07 0)
(0.000999932 -1.37239e-07 0)
(0.000999919 -1.58355e-07 0)
(0.000999906 -1.77199e-07 0)
(0.00099989 -2.09869e-07 0)
(0.000999878 -2.2779e-07 0)
(0.000999857 -2.82462e-07 0)
(0.00099985 -2.92157e-07 0)
(0.00099982 -3.82533e-07 0)
(0.000999999 1.40046e-08 0)
(0.000999985 4.93298e-08 0)
(0.000999975 8.15817e-08 0)
(0.000999976 1.09416e-07 0)
(0.000999983 1.26764e-07 0)
(0.000999986 1.21705e-07 0)
(0.000999984 8.92469e-08 0)
(0.000999979 4.05556e-08 0)
(0.000999972 -9.36878e-09 0)
(0.000999962 -5.04612e-08 0)
(0.000999947 -8.00182e-08 0)
(0.000999931 -1.01812e-07 0)
(0.000999916 -1.19441e-07 0)
(0.000999899 -1.40078e-07 0)
(0.000999883 -1.57598e-07 0)
(0.000999861 -1.89279e-07 0)
(0.000999846 -2.05528e-07 0)
(0.000999818 -2.5969e-07 0)
(0.000999808 -2.68309e-07 0)
(0.000999768 -3.60485e-07 0)
(0.001 1.02093e-08 0)
(0.000999981 4.23807e-08 0)
(0.00099997 7.08716e-08 0)
(0.000999973 9.14341e-08 0)
(0.000999982 1.01631e-07 0)
(0.000999988 9.24459e-08 0)
(0.00099999 5.72901e-08 0)
(0.000999987 4.502e-09 0)
(0.000999972 -4.80568e-08 0)
(0.000999952 -8.87065e-08 0)
(0.000999933 -1.15727e-07 0)
(0.000999914 -1.3421e-07 0)
(0.000999895 -1.47579e-07 0)
(0.000999875 -1.63031e-07 0)
(0.000999856 -1.73995e-07 0)
(0.00099983 -1.98719e-07 0)
(0.000999812 -2.07822e-07 0)
(0.000999776 -2.55707e-07 0)
(0.000999765 -2.60604e-07 0)
(0.00099971 -3.49238e-07 0)
(0.001 6.30264e-09 0)
(0.000999979 3.31996e-08 0)
(0.000999966 5.96998e-08 0)
(0.000999966 8.11917e-08 0)
(0.000999971 9.67987e-08 0)
(0.000999971 9.96582e-08 0)
(0.000999966 8.40737e-08 0)
(0.000999961 5.18305e-08 0)
(0.000999956 1.53334e-08 0)
(0.000999945 -1.46153e-08 0)
(0.000999927 -3.51142e-08 0)
(0.000999906 -4.97178e-08 0)
(0.000999886 -6.01001e-08 0)
(0.000999864 -7.40418e-08 0)
(0.000999843 -8.29855e-08 0)
(0.000999813 -1.08101e-07 0)
(0.000999791 -1.16008e-07 0)
(0.000999747 -1.67618e-07 0)
(0.000999728 -1.71559e-07 0)
(0.000999663 -2.74207e-07 0)
(0.001 1.26397e-09 0)
(0.000999977 1.74191e-08 0)
(0.000999967 2.88101e-08 0)
(0.000999973 3.24374e-08 0)
(0.000999984 3.08183e-08 0)
(0.000999991 2.00306e-08 0)
(0.000999995 -4.76857e-09 0)
(0.000999988 -4.06917e-08 0)
(0.00099997 -7.72866e-08 0)
(0.000999944 -1.07176e-07 0)
(0.000999918 -1.27425e-07 0)
(0.000999892 -1.40474e-07 0)
(0.000999867 -1.47913e-07 0)
(0.000999839 -1.57335e-07 0)
(0.000999816 -1.6142e-07 0)
(0.000999777 -1.79433e-07 0)
(0.000999754 -1.82699e-07 0)
(0.000999694 -2.23784e-07 0)
(0.000999678 -2.26263e-07 0)
(0.000999578 -3.13011e-07 0)
(0.001 7.58917e-09 0)
(0.000999972 3.23783e-08 0)
(0.000999957 5.47498e-08 0)
(0.000999959 7.09376e-08 0)
(0.000999963 8.34109e-08 0)
(0.000999961 9.17463e-08 0)
(0.000999954 9.10605e-08 0)
(0.000999949 8.06243e-08 0)
(0.000999944 6.51702e-08 0)
(0.00099993 5.21113e-08 0)
(0.00099991 4.318e-08 0)
(0.000999886 3.74136e-08 0)
(0.000999864 3.53667e-08 0)
(0.000999836 3.08053e-08 0)
(0.000999812 3.34231e-08 0)
(0.000999772 2.06374e-08 0)
(0.000999745 2.68824e-08 0)
(0.000999679 -1.0994e-08 0)
(0.000999655 -2.95519e-09 0)
(0.000999548 -1.022e-07 0)
(0.001 -9.57082e-09 0)
(0.000999975 -2.64021e-08 0)
(0.000999964 -3.93492e-08 0)
(0.00099997 -4.85244e-08 0)
(0.000999977 -5.53577e-08 0)
(0.00099998 -6.33603e-08 0)
(0.000999982 -7.47448e-08 0)
(0.000999976 -8.75074e-08 0)
(0.000999959 -1.03284e-07 0)
(0.000999934 -1.17896e-07 0)
(0.000999906 -1.27748e-07 0)
(0.000999875 -1.33499e-07 0)
(0.00099985 -1.36188e-07 0)
(0.000999815 -1.40956e-07 0)
(0.000999795 -1.41146e-07 0)
(0.000999741 -1.52346e-07 0)
(0.000999723 -1.49742e-07 0)
(0.000999623 -1.7762e-07 0)
(0.000999617 -1.70496e-07 0)
(0.000999424 -2.43958e-07 0)
)
;

boundaryField
{
    sides
    {
        type            slip;
    }
    inlet
    {
        type            fixedValue;
        value           uniform (0.001 0 0);
    }
    outlet
    {
        type            zeroGradient;
    }
    frontAndBack
    {
        type            empty;
    }
}


// ************************************************************************* //
