/*--------------------------------*- C++ -*----------------------------------*\
  =========                 |
  \\      /  F ield         | OpenFOAM: The Open Source CFD Toolbox
   \\    /   O peration     | Website:  https://openfoam.org
    \\  /    A nd           | Version:  7
     \\/     M anipulation  |
\*---------------------------------------------------------------------------*/
FoamFile
{
    version     2.0;
    format      ascii;
    class       surfaceScalarField;
    location    "5";
    object      phi;
}
// * * * * * * * * * * * * * * * * * * * * * * * * * * * * * * * * * * * * * //

dimensions      [0 4 -1 0 0 0 0];

internalField   nonuniform List<scalar> 
760
(
5.00008e-06
1.36083e-11
5.00015e-06
4.30246e-11
5.00018e-06
7.87919e-11
5.00019e-06
1.05409e-10
5.00017e-06
1.22466e-10
5.00015e-06
1.29535e-10
5.00013e-06
9.27135e-11
5.00018e-06
1.17348e-11
5.00027e-06
-5.52613e-11
5.00039e-06
-1.16963e-10
5.00052e-06
-1.5857e-10
5.00066e-06
-1.80963e-10
5.00079e-06
-1.84275e-10
5.00095e-06
-1.99375e-10
5.00111e-06
-1.8991e-10
5.00133e-06
-2.41778e-10
5.00155e-06
-2.25207e-10
5.00194e-06
-3.7651e-10
5.0023e-06
-3.55337e-10
-7.98657e-10
5.00011e-06
5.61072e-12
5.00018e-06
7.73182e-11
5.00022e-06
1.51248e-10
5.00024e-06
1.95011e-10
5.00026e-06
2.18265e-10
5.00026e-06
2.09904e-10
5.00028e-06
1.61669e-10
5.00028e-06
6.32725e-11
5.00032e-06
-5.88194e-11
5.0004e-06
-1.83287e-10
5.0005e-06
-2.63684e-10
5.00061e-06
-3.1263e-10
5.00072e-06
-3.33198e-10
5.00085e-06
-3.66643e-10
5.001e-06
-3.68319e-10
5.00119e-06
-4.53715e-10
5.00141e-06
-4.50457e-10
5.00169e-06
-6.66119e-10
5.00199e-06
-6.51231e-10
-1.10259e-09
5.00008e-06
1.646e-11
5.00014e-06
1.23905e-10
5.00016e-06
2.31438e-10
5.00016e-06
3.05477e-10
5.00013e-06
3.54754e-10
5.00008e-06
3.45032e-10
5.00006e-06
2.51931e-10
5.00013e-06
5.93862e-11
5.00022e-06
-1.1945e-10
5.00034e-06
-2.70639e-10
5.00046e-06
-3.74026e-10
5.00058e-06
-4.40463e-10
5.00071e-06
-4.78289e-10
5.00084e-06
-5.28742e-10
5.00099e-06
-5.5225e-10
5.00115e-06
-6.52269e-10
5.00135e-06
-6.76683e-10
5.00157e-06
-9.04297e-10
5.00184e-06
-9.29186e-10
-1.43359e-09
5.00008e-06
3.16787e-11
5.00014e-06
1.64919e-10
5.00018e-06
2.91925e-10
5.0002e-06
3.90537e-10
5.0002e-06
4.44564e-10
5.0002e-06
4.34404e-10
5.00021e-06
3.08433e-10
5.00022e-06
1.18723e-10
5.00026e-06
-1.05333e-10
5.00032e-06
-2.99323e-10
5.00041e-06
-4.30697e-10
5.00051e-06
-5.21263e-10
5.00061e-06
-5.80695e-10
5.00071e-06
-6.52306e-10
5.00083e-06
-6.96683e-10
5.00098e-06
-8.21592e-10
5.00113e-06
-8.62124e-10
5.00132e-06
-1.11725e-09
5.00151e-06
-1.14161e-09
-1.60091e-09
5.00007e-06
4.84088e-11
5.00012e-06
2.05339e-10
5.00015e-06
3.57756e-10
5.00015e-06
4.7948e-10
5.00013e-06
5.6129e-10
5.00008e-06
5.43325e-10
5.00007e-06
3.97578e-10
5.00011e-06
1.43204e-10
5.0002e-06
-1.22783e-10
5.00029e-06
-3.34923e-10
5.00038e-06
-4.81071e-10
5.00047e-06
-5.82907e-10
5.00056e-06
-6.59057e-10
5.00066e-06
-7.46947e-10
5.00077e-06
-8.13558e-10
5.00088e-06
-9.52895e-10
5.00101e-06
-1.01456e-09
5.00114e-06
-1.27144e-09
5.00129e-06
-1.30796e-09
-1.77474e-09
5.00006e-06
6.82039e-11
5.0001e-06
2.4411e-10
5.00013e-06
4.07329e-10
5.00014e-06
5.5519e-10
5.00012e-06
6.49548e-10
5.0001e-06
6.29893e-10
5.00011e-06
4.58809e-10
5.00013e-06
1.89634e-10
5.00017e-06
-9.30081e-11
5.00023e-06
-3.32994e-10
5.0003e-06
-5.00101e-10
5.00037e-06
-6.18146e-10
5.00045e-06
-7.07718e-10
5.00053e-06
-8.08881e-10
5.00062e-06
-8.92411e-10
5.00072e-06
-1.04761e-09
5.00082e-06
-1.12476e-09
5.00092e-06
-1.391e-09
5.00103e-06
-1.43322e-09
-1.88189e-09
5.00005e-06
8.5603e-11
5.00008e-06
2.7301e-10
5.00011e-06
4.47415e-10
5.00011e-06
6.15218e-10
5.00009e-06
7.31794e-10
5.00007e-06
7.12369e-10
5.00006e-06
5.25412e-10
5.00009e-06
2.25631e-10
5.00014e-06
-7.91645e-11
5.00019e-06
-3.25137e-10
5.00025e-06
-4.99359e-10
5.0003e-06
-6.25221e-10
5.00036e-06
-7.25323e-10
5.00043e-06
-8.37135e-10
5.0005e-06
-9.34835e-10
5.00057e-06
-1.103e-09
5.00064e-06
-1.1942e-09
5.00072e-06
-1.46828e-09
5.0008e-06
-1.51714e-09
-1.9634e-09
5.00003e-06
9.78971e-11
5.00006e-06
2.92242e-10
5.00008e-06
4.74526e-10
5.00008e-06
6.58923e-10
5.00006e-06
7.92738e-10
5.00005e-06
7.7471e-10
5.00005e-06
5.73029e-10
5.00007e-06
2.58002e-10
5.0001e-06
-5.8621e-11
5.00014e-06
-3.12331e-10
5.00018e-06
-4.91463e-10
5.00022e-06
-6.20746e-10
5.00026e-06
-7.25423e-10
5.00031e-06
-8.42979e-10
5.00036e-06
-9.49972e-10
5.00041e-06
-1.12777e-09
5.00046e-06
-1.23019e-09
5.00052e-06
-1.51188e-09
5.00057e-06
-1.56842e-09
-2.01547e-09
5.00002e-06
1.04808e-10
5.00004e-06
3.03025e-10
5.00005e-06
4.88553e-10
5.00005e-06
6.84425e-10
5.00004e-06
8.27922e-10
5.00003e-06
8.10131e-10
5.00003e-06
6.01027e-10
5.00004e-06
2.78315e-10
5.00006e-06
-4.61146e-11
5.00008e-06
-3.03066e-10
5.00011e-06
-4.83254e-10
5.00013e-06
-6.13273e-10
5.00016e-06
-7.1964e-10
5.00019e-06
-8.39752e-10
5.00022e-06
-9.51741e-10
5.00025e-06
-1.13515e-09
5.00028e-06
-1.24467e-09
5.00031e-06
-1.53193e-09
5.00034e-06
-1.59454e-09
-2.04431e-09
5.00001e-06
1.07153e-10
5.00001e-06
3.0659e-10
5.00002e-06
4.93161e-10
5.00002e-06
6.92839e-10
5.00001e-06
8.39961e-10
5.00001e-06
8.21844e-10
5.00001e-06
6.10134e-10
5.00001e-06
2.84546e-10
5.00002e-06
-4.16551e-11
5.00003e-06
-2.99164e-10
5.00004e-06
-4.79324e-10
5.00004e-06
-6.09474e-10
5.00005e-06
-7.16447e-10
5.00006e-06
-8.3732e-10
5.00007e-06
-9.50771e-10
5.00008e-06
-1.13585e-09
5.00009e-06
-1.24773e-09
5.0001e-06
-1.53711e-09
5.00011e-06
-1.60221e-09
-2.05339e-09
4.99999e-06
1.04828e-10
4.99999e-06
3.03058e-10
4.99998e-06
4.88584e-10
4.99998e-06
6.84449e-10
4.99999e-06
8.27945e-10
4.99999e-06
8.10167e-10
4.99999e-06
6.01091e-10
4.99999e-06
2.78406e-10
4.99998e-06
-4.60293e-11
4.99997e-06
-3.02998e-10
4.99996e-06
-4.83201e-10
4.99996e-06
-6.13228e-10
4.99995e-06
-7.19599e-10
4.99994e-06
-8.3971e-10
4.99993e-06
-9.51703e-10
4.99992e-06
-1.1351e-09
4.99991e-06
-1.24463e-09
4.9999e-06
-1.53187e-09
4.99989e-06
-1.59449e-09
-2.04423e-09
4.99998e-06
9.79376e-11
4.99996e-06
2.92309e-10
4.99995e-06
4.74591e-10
4.99995e-06
6.58973e-10
4.99996e-06
7.92792e-10
4.99997e-06
7.74801e-10
4.99997e-06
5.73172e-10
4.99996e-06
2.58158e-10
4.99994e-06
-5.84599e-11
4.99992e-06
-3.12198e-10
4.99989e-06
-4.91362e-10
4.99987e-06
-6.20663e-10
4.99984e-06
-7.25351e-10
4.99981e-06
-8.42906e-10
4.99978e-06
-9.49907e-10
4.99975e-06
-1.12768e-09
4.99972e-06
-1.23011e-09
4.99969e-06
-1.51177e-09
4.99966e-06
-1.56832e-09
-2.01532e-09
4.99997e-06
8.56645e-11
4.99994e-06
2.73111e-10
4.99992e-06
4.47514e-10
4.99992e-06
6.15299e-10
4.99994e-06
7.31882e-10
4.99995e-06
7.12511e-10
4.99995e-06
5.25595e-10
4.99993e-06
2.25762e-10
4.9999e-06
-7.89895e-11
4.99986e-06
-3.24981e-10
4.99982e-06
-4.99233e-10
4.99978e-06
-6.25119e-10
4.99974e-06
-7.2524e-10
4.99969e-06
-8.3705e-10
4.99964e-06
-9.34761e-10
4.99959e-06
-1.10289e-09
4.99954e-06
-1.19411e-09
4.99948e-06
-1.46814e-09
4.99943e-06
-1.517e-09
-1.96318e-09
4.99995e-06
6.82781e-11
4.99992e-06
2.44234e-10
4.99989e-06
4.07453e-10
4.99989e-06
5.55292e-10
4.99991e-06
6.49642e-10
4.99993e-06
6.30035e-10
4.99994e-06
4.59003e-10
4.99991e-06
1.89833e-10
4.99986e-06
-9.2805e-11
4.99981e-06
-3.32834e-10
4.99975e-06
-4.99982e-10
4.9997e-06
-6.18057e-10
4.99964e-06
-7.07648e-10
4.99957e-06
-8.08805e-10
4.9995e-06
-8.92346e-10
4.99943e-06
-1.0475e-09
4.99936e-06
-1.12467e-09
4.99928e-06
-1.39084e-09
4.9992e-06
-1.43306e-09
-1.88164e-09
4.99994e-06
4.8484e-11
4.9999e-06
2.05469e-10
4.99987e-06
3.57892e-10
4.99986e-06
4.79586e-10
4.99988e-06
5.61374e-10
4.9999e-06
5.43424e-10
4.99989e-06
3.97786e-10
4.99987e-06
1.43455e-10
4.99983e-06
-1.22572e-10
4.99977e-06
-3.34774e-10
4.9997e-06
-4.80982e-10
4.99962e-06
-5.82842e-10
4.99955e-06
-6.59008e-10
4.99946e-06
-7.46883e-10
4.99938e-06
-8.13509e-10
4.99928e-06
-9.52789e-10
4.99918e-06
-1.01448e-09
4.99908e-06
-1.27126e-09
4.99896e-06
-1.3078e-09
-1.77441e-09
4.99993e-06
3.17431e-11
4.99988e-06
1.6504e-10
4.99985e-06
2.92055e-10
4.99985e-06
3.90645e-10
4.99987e-06
4.4465e-10
4.99992e-06
4.3451e-10
4.99993e-06
3.08576e-10
4.99989e-06
1.18884e-10
4.9998e-06
-1.05153e-10
4.99971e-06
-2.9922e-10
4.99962e-06
-4.30632e-10
4.99953e-06
-5.21212e-10
4.99944e-06
-5.80663e-10
4.99934e-06
-6.52258e-10
4.99923e-06
-6.96661e-10
4.99912e-06
-8.21506e-10
4.99899e-06
-8.62081e-10
4.99886e-06
-1.11709e-09
4.99871e-06
-1.14147e-09
-1.6006e-09
4.99992e-06
1.65125e-11
4.99986e-06
1.24002e-10
4.99982e-06
2.31542e-10
4.9998e-06
3.05554e-10
4.9998e-06
3.54804e-10
4.9998e-06
3.45092e-10
4.99979e-06
2.52023e-10
4.99978e-06
5.95547e-11
4.99974e-06
-1.19376e-10
4.99968e-06
-2.70597e-10
4.99959e-06
-3.74015e-10
4.99949e-06
-4.40458e-10
4.99939e-06
-4.78293e-10
4.99929e-06
-5.28713e-10
4.99917e-06
-5.5225e-10
4.99902e-06
-6.52189e-10
4.99887e-06
-6.76665e-10
4.99868e-06
-9.04121e-10
4.99849e-06
-9.29078e-10
-1.43325e-09
4.99992e-06
5.65069e-12
4.99986e-06
7.73898e-11
4.99984e-06
1.51332e-10
4.99984e-06
1.95091e-10
4.99987e-06
2.18321e-10
4.99992e-06
2.09967e-10
4.99994e-06
1.61739e-10
4.99987e-06
6.34897e-11
4.99978e-06
-5.8713e-11
4.99966e-06
-1.83214e-10
4.99954e-06
-2.6364e-10
4.99942e-06
-3.12604e-10
4.99929e-06
-3.332e-10
4.99916e-06
-3.66619e-10
4.99901e-06
-3.68339e-10
4.99885e-06
-4.53653e-10
4.99865e-06
-4.50474e-10
4.99843e-06
-6.65968e-10
4.99816e-06
-6.51162e-10
-1.10229e-09
4.99989e-06
1.36068e-11
4.99982e-06
4.30432e-11
4.99978e-06
7.8817e-11
4.99976e-06
1.05419e-10
4.99974e-06
1.22455e-10
4.99974e-06
1.29532e-10
4.99972e-06
9.27331e-11
4.99972e-06
1.17486e-11
4.99968e-06
-5.52929e-11
4.9996e-06
-1.16989e-10
4.9995e-06
-1.58613e-10
4.99939e-06
-1.80996e-10
4.99928e-06
-1.8431e-10
4.99915e-06
-1.99372e-10
4.999e-06
-1.89939e-10
4.99881e-06
-2.41749e-10
4.99859e-06
-2.25233e-10
4.99831e-06
-3.76441e-10
4.99801e-06
-3.5533e-10
-7.98555e-10
4.99992e-06
4.99985e-06
4.99982e-06
4.99981e-06
4.99983e-06
4.99985e-06
4.99987e-06
4.99982e-06
4.99973e-06
4.99961e-06
4.99948e-06
4.99934e-06
4.99921e-06
4.99905e-06
4.99889e-06
4.99867e-06
4.99845e-06
4.99806e-06
4.9977e-06
)
;

boundaryField
{
    sides
    {
        type            calculated;
        value           uniform 0;
    }
    inlet
    {
        type            calculated;
        value           nonuniform List<scalar> 
20
(
-5e-06
-5e-06
-5e-06
-5e-06
-5e-06
-5e-06
-5e-06
-5e-06
-5e-06
-5e-06
-5e-06
-5e-06
-5e-06
-5e-06
-5e-06
-5e-06
-5e-06
-5e-06
-5e-06
-5e-06
)
;
    }
    outlet
    {
        type            calculated;
        value           nonuniform List<scalar> 
20
(
5.0031e-06
5.00229e-06
5.00216e-06
5.00167e-06
5.00145e-06
5.00114e-06
5.00088e-06
5.00062e-06
5.00037e-06
5.00012e-06
4.99988e-06
4.99963e-06
4.99938e-06
4.99912e-06
4.99886e-06
4.99855e-06
4.99833e-06
4.99784e-06
4.99771e-06
4.9969e-06
)
;
    }
    frontAndBack
    {
        type            empty;
        value           nonuniform 0();
    }
}


// ************************************************************************* //
