/*--------------------------------*- C++ -*----------------------------------*\
  =========                 |
  \\      /  F ield         | OpenFOAM: The Open Source CFD Toolbox
   \\    /   O peration     | Website:  https://openfoam.org
    \\  /    A nd           | Version:  7
     \\/     M anipulation  |
\*---------------------------------------------------------------------------*/
FoamFile
{
    version     2.0;
    format      ascii;
    class       volVectorField;
    location    "38";
    object      ddt0(hU);
}
// * * * * * * * * * * * * * * * * * * * * * * * * * * * * * * * * * * * * * //

dimensions      [0 2 -2 0 0 0 0];

internalField   nonuniform List<vector> 
400
(
(3.81722e-10 6.8476e-10 0)
(1.33788e-11 1.19136e-09 0)
(-1.66144e-09 7.01743e-10 0)
(-2.98957e-09 1.59955e-10 0)
(-1.2758e-09 2.29827e-10 0)
(-3.27442e-09 -2.57503e-09 0)
(-6.40046e-09 -2.61772e-09 0)
(-2.04583e-09 -1.06427e-10 0)
(6.83736e-10 -2.37868e-09 0)
(1.57358e-09 -1.55734e-09 0)
(2.92082e-09 -6.21724e-10 0)
(2.7399e-09 5.93679e-10 0)
(2.4417e-09 1.85419e-09 0)
(1.72749e-09 2.41642e-09 0)
(6.34008e-10 2.02913e-09 0)
(-1.03949e-09 1.0096e-09 0)
(-1.55708e-09 -7.17043e-10 0)
(-7.88837e-10 -1.71258e-09 0)
(2.18361e-10 -2.77302e-09 0)
(3.05337e-09 -1.76429e-09 0)
(3.80707e-10 3.35772e-11 0)
(-1.68767e-10 5.69207e-10 0)
(-1.78429e-09 4.85684e-10 0)
(-2.7387e-09 4.8005e-10 0)
(-4.2511e-09 1.27034e-09 0)
(-2.03199e-09 -4.12869e-10 0)
(2.12711e-09 5.94418e-10 0)
(-9.11933e-11 8.24042e-10 0)
(-1.47251e-09 -2.10746e-10 0)
(1.85524e-09 -2.08663e-10 0)
(3.02106e-09 -6.16926e-10 0)
(3.43381e-09 -4.96038e-10 0)
(3.24712e-09 2.88837e-10 0)
(2.07061e-09 1.11901e-09 0)
(5.59431e-10 1.35716e-09 0)
(-1.16324e-09 1.38368e-09 0)
(-1.66404e-09 7.12137e-10 0)
(-1.02279e-09 3.00476e-10 0)
(-2.49122e-10 -8.01598e-10 0)
(2.55858e-09 -1.39569e-09 0)
(7.15795e-10 8.88824e-10 0)
(2.06025e-12 2.14582e-09 0)
(-1.75218e-09 1.95054e-09 0)
(-2.61663e-09 1.13843e-09 0)
(-2.77806e-09 1.28009e-10 0)
(-2.11004e-09 -1.92487e-10 0)
(-1.36941e-09 -1.10366e-09 0)
(-1.99363e-09 -4.0502e-09 0)
(7.16924e-10 -3.00379e-09 0)
(1.51064e-09 -2.87937e-09 0)
(2.175e-09 -1.53059e-09 0)
(2.57784e-09 6.1254e-10 0)
(2.5224e-09 3.11779e-09 0)
(1.42201e-09 4.66985e-09 0)
(7.12268e-11 4.4007e-09 0)
(-1.40354e-09 2.97963e-09 0)
(-1.62983e-09 -1.84074e-10 0)
(-8.50029e-10 -2.0754e-09 0)
(2.3272e-10 -5.00399e-09 0)
(3.11141e-09 -4.21941e-09 0)
(2.50575e-10 1.72479e-09 0)
(-4.53668e-10 3.63664e-09 0)
(-1.97219e-09 3.45781e-09 0)
(-2.82387e-09 2.44256e-09 0)
(-3.06734e-09 1.09503e-09 0)
(-2.26947e-09 3.66217e-10 0)
(-2.31683e-09 -1.70965e-09 0)
(-1.24481e-09 -2.42289e-09 0)
(1.24984e-10 -3.32128e-09 0)
(1.36815e-09 -3.42566e-09 0)
(2.71002e-09 -1.71583e-09 0)
(3.40203e-09 8.0038e-10 0)
(3.31537e-09 3.67188e-09 0)
(2.00425e-09 5.62462e-09 0)
(5.27149e-10 5.62604e-09 0)
(-8.13352e-10 4.40233e-09 0)
(-1.14428e-09 5.94913e-10 0)
(-7.3104e-10 -1.99231e-09 0)
(-3.50099e-10 -5.86002e-09 0)
(2.0556e-09 -5.30554e-09 0)
(2.72722e-10 8.68043e-10 0)
(-4.66579e-10 2.40148e-09 0)
(-1.39345e-09 2.80464e-09 0)
(-2.06258e-09 2.52058e-09 0)
(-2.18433e-09 1.60496e-09 0)
(-1.72385e-09 7.16568e-10 0)
(-1.55297e-09 -9.56638e-10 0)
(-8.94719e-10 -1.98626e-09 0)
(-4.34825e-10 -3.03298e-09 0)
(3.65003e-10 -3.08999e-09 0)
(1.37539e-09 -1.42154e-09 0)
(1.85895e-09 1.17254e-09 0)
(1.84486e-09 4.34381e-09 0)
(1.00973e-09 6.53856e-09 0)
(2.12788e-10 6.50202e-09 0)
(-4.62545e-10 5.12118e-09 0)
(-5.64383e-10 8.00906e-10 0)
(-2.3283e-10 -2.00158e-09 0)
(9.60645e-11 -6.50936e-09 0)
(2.11032e-09 -6.20331e-09 0)
(2.45952e-10 1.28582e-09 0)
(-5.86654e-10 2.90675e-09 0)
(-1.46653e-09 3.09018e-09 0)
(-2.32399e-09 2.40047e-09 0)
(-2.57829e-09 1.04763e-09 0)
(-2.41102e-09 -8.4429e-10 0)
(-1.98006e-09 -2.81928e-09 0)
(-1.0768e-09 -4.44878e-09 0)
(2.10806e-11 -5.30167e-09 0)
(1.87176e-09 -4.51509e-09 0)
(3.04461e-09 -1.73542e-09 0)
(3.1629e-09 2.14365e-09 0)
(2.63774e-09 6.58139e-09 0)
(1.2508e-09 9.45013e-09 0)
(6.01477e-11 9.19324e-09 0)
(-1.08667e-09 6.75884e-09 0)
(-1.47663e-09 3.86804e-10 0)
(-1.1831e-09 -3.69382e-09 0)
(-3.25032e-10 -9.35592e-09 0)
(2.21998e-09 -8.0908e-09 0)
(1.71995e-10 1.19505e-09 0)
(-5.04582e-10 2.71237e-09 0)
(-1.01637e-09 3.31431e-09 0)
(-1.5738e-09 3.13072e-09 0)
(-1.52731e-09 2.49294e-09 0)
(-1.29235e-09 1.09458e-09 0)
(-9.42568e-10 -4.78863e-10 0)
(-9.24934e-10 -2.29094e-09 0)
(-4.68559e-10 -3.22887e-09 0)
(3.28365e-10 -3.05324e-09 0)
(7.37815e-10 -1.10038e-09 0)
(1.05267e-09 2.17233e-09 0)
(1.27529e-09 6.24703e-09 0)
(1.17302e-09 9.23991e-09 0)
(1.07759e-09 9.43424e-09 0)
(6.49173e-10 7.57181e-09 0)
(6.49355e-11 1.42662e-09 0)
(-1.01721e-10 -2.58528e-09 0)
(-1.21013e-10 -8.47372e-09 0)
(1.13081e-09 -8.11249e-09 0)
(1.27245e-10 1.19248e-09 0)
(-3.5271e-10 2.5771e-09 0)
(-7.05015e-10 3.32237e-09 0)
(-1.23218e-09 3.07811e-09 0)
(-1.55373e-09 1.91981e-09 0)
(-1.48037e-09 8.71378e-11 0)
(-1.20242e-09 -1.86835e-09 0)
(-8.76739e-10 -3.70786e-09 0)
(2.7973e-11 -4.41501e-09 0)
(8.74752e-10 -3.87851e-09 0)
(1.50378e-09 -9.02837e-10 0)
(1.67344e-09 3.544e-09 0)
(1.3369e-09 8.57292e-09 0)
(7.16854e-10 1.18293e-08 0)
(1.43992e-10 1.14001e-08 0)
(-8.23942e-10 8.34161e-09 0)
(-1.23199e-09 7.53155e-10 0)
(-8.53917e-10 -3.90699e-09 0)
(-3.14111e-11 -1.05055e-08 0)
(1.61691e-09 -9.36326e-09 0)
(7.12358e-11 1.18336e-09 0)
(-2.30653e-10 2.37471e-09 0)
(-5.52541e-10 3.10391e-09 0)
(-8.46693e-10 3.00618e-09 0)
(-1.01165e-09 1.92462e-09 0)
(-7.90987e-10 4.99731e-10 0)
(-5.69077e-10 -1.20877e-09 0)
(-2.70764e-10 -2.76513e-09 0)
(1.5964e-10 -3.69669e-09 0)
(3.56188e-10 -3.47742e-09 0)
(4.94407e-10 -8.21162e-10 0)
(4.32956e-10 3.28414e-09 0)
(3.65396e-10 8.32808e-09 0)
(5.01778e-10 1.19157e-08 0)
(5.36277e-10 1.17671e-08 0)
(1.69263e-10 9.08325e-09 0)
(-1.09205e-10 1.7747e-09 0)
(1.42193e-10 -2.85325e-09 0)
(3.56158e-10 -9.83819e-09 0)
(6.05021e-10 -9.41557e-09 0)
(1.86314e-11 1.12003e-09 0)
(-1.18151e-10 2.22606e-09 0)
(-2.39948e-10 3.06615e-09 0)
(-2.92234e-10 3.17517e-09 0)
(-2.72195e-10 2.12642e-09 0)
(-1.91008e-10 5.87849e-10 0)
(-2.14311e-10 -1.30475e-09 0)
(-2.34569e-10 -2.95082e-09 0)
(-1.52171e-10 -3.92957e-09 0)
(6.27372e-11 -3.52539e-09 0)
(2.89599e-10 -5.58033e-10 0)
(4.18943e-10 3.85676e-09 0)
(4.60523e-10 9.17763e-09 0)
(3.13273e-10 1.27631e-08 0)
(5.36406e-11 1.22778e-08 0)
(-3.47005e-10 9.17896e-09 0)
(-4.40552e-10 1.55448e-09 0)
(-3.00136e-10 -3.21835e-09 0)
(-1.23681e-10 -1.05007e-08 0)
(3.30735e-10 -9.81652e-09 0)
(-7.95768e-12 1.04802e-09 0)
(5.33442e-11 2.17846e-09 0)
(1.58389e-10 3.10805e-09 0)
(2.38895e-10 3.22682e-09 0)
(3.17033e-10 2.17872e-09 0)
(2.2688e-10 5.87278e-10 0)
(2.1201e-10 -1.28098e-09 0)
(2.58061e-10 -2.96196e-09 0)
(1.32286e-10 -3.91833e-09 0)
(-5.08269e-11 -3.52171e-09 0)
(-3.51385e-10 -5.70981e-10 0)
(-4.98204e-10 3.88545e-09 0)
(-4.22634e-10 9.19542e-09 0)
(-3.23849e-10 1.2765e-08 0)
(-2.00986e-10 1.23455e-08 0)
(2.67634e-10 9.30597e-09 0)
(6.06141e-10 1.6422e-09 0)
(6.10223e-10 -3.23634e-09 0)
(2.9118e-10 -1.05959e-08 0)
(-4.37016e-10 -9.87333e-09 0)
(-5.55491e-11 1.06098e-09 0)
(2.87576e-10 2.28562e-09 0)
(5.52375e-10 3.15357e-09 0)
(8.19703e-10 3.08114e-09 0)
(9.74162e-10 2.02499e-09 0)
(8.077e-10 5.01381e-10 0)
(5.55654e-10 -1.16053e-09 0)
(2.85055e-10 -2.76479e-09 0)
(-1.29233e-10 -3.68198e-09 0)
(-3.86258e-10 -3.44441e-09 0)
(-5.0458e-10 -8.00819e-10 0)
(-4.35895e-10 3.35595e-09 0)
(-3.5021e-10 8.36636e-09 0)
(-4.25642e-10 1.19128e-08 0)
(-4.97842e-10 1.18661e-08 0)
(-2.51269e-10 9.29779e-09 0)
(2.2575e-11 1.94986e-09 0)
(-1.0126e-10 -2.86542e-09 0)
(-2.50634e-10 -1.00168e-08 0)
(-5.74889e-10 -9.52723e-09 0)
(-1.21868e-10 1.17484e-09 0)
(4.67751e-10 2.52458e-09 0)
(7.93667e-10 3.27397e-09 0)
(1.25028e-09 3.08314e-09 0)
(1.48177e-09 1.96048e-09 0)
(1.45179e-09 8.13599e-11 0)
(1.20156e-09 -1.85744e-09 0)
(8.52688e-10 -3.67543e-09 0)
(5.40847e-11 -4.45403e-09 0)
(-8.64743e-10 -3.87266e-09 0)
(-1.50543e-09 -8.31746e-10 0)
(-1.68627e-09 3.63382e-09 0)
(-1.38095e-09 8.61418e-09 0)
(-6.21143e-10 1.17984e-08 0)
(1.93822e-11 1.13762e-08 0)
(7.86917e-10 8.41331e-09 0)
(9.89754e-10 8.92481e-10 0)
(6.4948e-10 -3.84757e-09 0)
(2.96436e-11 -1.05909e-08 0)
(-1.47844e-09 -9.43427e-09 0)
(-2.2703e-10 1.30082e-09 0)
(5.32475e-10 2.71551e-09 0)
(1.13595e-09 3.20796e-09 0)
(1.64311e-09 3.08241e-09 0)
(1.51762e-09 2.41169e-09 0)
(1.22511e-09 1.11119e-09 0)
(9.75538e-10 -5.24372e-10 0)
(8.34689e-10 -2.19685e-09 0)
(4.96784e-10 -3.27369e-09 0)
(-1.77015e-10 -3.18362e-09 0)
(-6.51581e-10 -1.13143e-09 0)
(-1.11287e-09 2.21889e-09 0)
(-1.44022e-09 6.30833e-09 0)
(-1.20315e-09 9.21874e-09 0)
(-9.10272e-10 9.30899e-09 0)
(-5.35539e-10 7.47667e-09 0)
(-2.02995e-10 1.46655e-09 0)
(-1.67131e-10 -2.4866e-09 0)
(6.82007e-12 -8.41794e-09 0)
(-1.00423e-09 -8.09825e-09 0)
(-3.42852e-10 1.39891e-09 0)
(4.78144e-10 2.94685e-09 0)
(1.52249e-09 3.04136e-09 0)
(2.40129e-09 2.32825e-09 0)
(2.67142e-09 9.43385e-10 0)
(2.33943e-09 -7.59412e-10 0)
(2.06748e-09 -2.9356e-09 0)
(1.00266e-09 -4.37042e-09 0)
(-2.99795e-10 -5.14113e-09 0)
(-1.79244e-09 -4.62148e-09 0)
(-2.7864e-09 -1.92918e-09 0)
(-3.06774e-09 2.05982e-09 0)
(-2.79937e-09 6.64188e-09 0)
(-1.4455e-09 9.50897e-09 0)
(-5.91875e-12 9.12045e-09 0)
(1.31023e-09 6.61346e-09 0)
(1.54147e-09 3.11701e-10 0)
(1.01002e-09 -3.65078e-09 0)
(1.56557e-10 -9.24212e-09 0)
(-2.19812e-09 -8.01872e-09 0)
(-3.39893e-10 8.40844e-10 0)
(2.89997e-10 2.4601e-09 0)
(1.33086e-09 2.87876e-09 0)
(2.12492e-09 2.47214e-09 0)
(2.30458e-09 1.61688e-09 0)
(1.73232e-09 6.13054e-10 0)
(1.60011e-09 -1.01561e-09 0)
(1.28603e-09 -2.25971e-09 0)
(1.33397e-10 -2.81051e-09 0)
(-7.20192e-10 -2.91637e-09 0)
(-1.22641e-09 -1.5637e-09 0)
(-1.55263e-09 9.70398e-10 0)
(-1.81283e-09 4.30838e-09 0)
(-1.23881e-09 6.62877e-09 0)
(-3.20977e-10 6.54437e-09 0)
(6.26367e-10 5.03574e-09 0)
(7.48981e-10 6.77348e-10 0)
(2.30775e-10 -2.03565e-09 0)
(-2.11409e-10 -6.42478e-09 0)
(-2.17341e-09 -6.13182e-09 0)
(-1.64513e-10 1.60915e-09 0)
(3.98086e-10 3.70404e-09 0)
(1.83471e-09 3.60359e-09 0)
(2.79998e-09 2.46868e-09 0)
(2.99358e-09 1.1302e-09 0)
(2.50094e-09 1.5788e-10 0)
(1.80847e-09 -1.24734e-09 0)
(1.73374e-09 -2.95431e-09 0)
(2.83778e-10 -3.40185e-09 0)
(-1.84401e-09 -3.17375e-09 0)
(-2.98207e-09 -1.68903e-09 0)
(-3.1462e-09 6.3266e-10 0)
(-3.05466e-09 3.55536e-09 0)
(-2.08646e-09 5.65904e-09 0)
(-7.20727e-10 5.71573e-09 0)
(8.21022e-10 4.399e-09 0)
(1.31446e-09 4.92167e-10 0)
(8.52389e-10 -2.07529e-09 0)
(3.2054e-10 -5.85518e-09 0)
(-2.14694e-09 -5.27218e-09 0)
(-4.15467e-10 8.65058e-10 0)
(1.25076e-11 2.07981e-09 0)
(1.54108e-09 1.93175e-09 0)
(2.48918e-09 1.23165e-09 0)
(2.65776e-09 1.16087e-10 0)
(2.31489e-09 -2.82559e-10 0)
(9.20552e-10 -1.25794e-09 0)
(1.58844e-09 -4.07432e-09 0)
(1.9827e-10 -3.36055e-09 0)
(-1.74866e-09 -2.92721e-09 0)
(-2.65142e-09 -1.34967e-09 0)
(-2.48998e-09 7.0791e-10 0)
(-2.19953e-09 3.03169e-09 0)
(-1.34521e-09 4.59383e-09 0)
(-2.28294e-10 4.45371e-09 0)
(1.30464e-09 3.05821e-09 0)
(1.71312e-09 -1.84629e-10 0)
(9.94004e-10 -2.12742e-09 0)
(-1.92787e-10 -5.03818e-09 0)
(-3.16999e-09 -4.22037e-09 0)
(-4.3728e-10 1.87647e-11 0)
(1.85964e-10 5.11577e-10 0)
(1.83921e-09 3.86495e-10 0)
(2.68696e-09 5.39519e-10 0)
(3.15565e-09 1.37437e-09 0)
(6.04644e-09 -1.17877e-11 0)
(-2.20171e-09 2.16332e-10 0)
(1.6638e-10 1.90849e-09 0)
(1.86098e-09 -4.01081e-10 0)
(-1.59863e-09 -5.0324e-10 0)
(-3.08546e-09 -2.68141e-10 0)
(-3.54554e-09 -1.79684e-10 0)
(-3.21938e-09 2.24827e-10 0)
(-1.95667e-09 9.65912e-10 0)
(-5.5461e-10 1.36652e-09 0)
(1.06297e-09 1.47805e-09 0)
(1.62386e-09 7.50346e-10 0)
(1.0906e-09 2.6526e-10 0)
(3.17718e-10 -8.50733e-10 0)
(-2.55799e-09 -1.41013e-09 0)
(-5.27714e-10 6.4534e-10 0)
(1.64199e-10 1.23478e-09 0)
(1.85102e-09 6.94616e-10 0)
(3.06806e-09 1.58984e-10 0)
(2.44751e-09 3.40261e-10 0)
(-1.05054e-09 -2.12522e-09 0)
(7.2993e-09 -2.40093e-09 0)
(1.66219e-09 7.52714e-10 0)
(-1.92369e-09 -2.35084e-09 0)
(-9.76168e-10 -1.72718e-09 0)
(-2.52031e-09 -4.1637e-10 0)
(-3.21314e-09 7.55896e-10 0)
(-2.75911e-09 1.8049e-09 0)
(-1.53364e-09 2.3319e-09 0)
(-4.46119e-10 2.03168e-09 0)
(9.49052e-10 1.05089e-09 0)
(1.40841e-09 -7.05045e-10 0)
(7.80022e-10 -1.73282e-09 0)
(-1.53963e-10 -2.79861e-09 0)
(-3.02507e-09 -1.77153e-09 0)
)
;

boundaryField
{
    sides
    {
        type            calculated;
        value           nonuniform List<vector> 
40
(
(-5.27714e-10 0 0)
(1.64199e-10 0 0)
(1.85102e-09 0 0)
(3.06806e-09 0 0)
(2.44751e-09 0 0)
(-1.05054e-09 0 0)
(7.2993e-09 0 0)
(1.66219e-09 0 0)
(-1.92369e-09 0 0)
(-9.76168e-10 0 0)
(-2.52031e-09 0 0)
(-3.21314e-09 0 0)
(-2.75911e-09 0 0)
(-1.53364e-09 0 0)
(-4.46119e-10 0 0)
(9.49052e-10 0 0)
(1.40841e-09 0 0)
(7.80022e-10 0 0)
(-1.53963e-10 0 0)
(-3.02507e-09 0 0)
(3.81722e-10 0 0)
(1.33788e-11 0 0)
(-1.66144e-09 0 0)
(-2.98957e-09 0 0)
(-1.2758e-09 0 0)
(-3.27442e-09 0 0)
(-6.40046e-09 0 0)
(-2.04583e-09 0 0)
(6.83736e-10 0 0)
(1.57358e-09 0 0)
(2.92082e-09 0 0)
(2.7399e-09 0 0)
(2.4417e-09 0 0)
(1.72749e-09 0 0)
(6.34008e-10 0 0)
(-1.03949e-09 0 0)
(-1.55708e-09 0 0)
(-7.88837e-10 0 0)
(2.18361e-10 0 0)
(3.05337e-09 0 0)
)
;
    }
    inlet
    {
        type            calculated;
        value           uniform (0 0 0);
    }
    outlet
    {
        type            calculated;
        value           nonuniform List<vector> 
20
(
(3.05337e-09 -1.76429e-09 0)
(2.55858e-09 -1.39569e-09 0)
(3.11141e-09 -4.21941e-09 0)
(2.0556e-09 -5.30554e-09 0)
(2.11032e-09 -6.20331e-09 0)
(2.21998e-09 -8.0908e-09 0)
(1.13081e-09 -8.11249e-09 0)
(1.61691e-09 -9.36326e-09 0)
(6.05021e-10 -9.41557e-09 0)
(3.30735e-10 -9.81652e-09 0)
(-4.37016e-10 -9.87333e-09 0)
(-5.74889e-10 -9.52723e-09 0)
(-1.47844e-09 -9.43427e-09 0)
(-1.00423e-09 -8.09825e-09 0)
(-2.19812e-09 -8.01872e-09 0)
(-2.17341e-09 -6.13182e-09 0)
(-2.14694e-09 -5.27218e-09 0)
(-3.16999e-09 -4.22037e-09 0)
(-2.55799e-09 -1.41013e-09 0)
(-3.02507e-09 -1.77153e-09 0)
)
;
    }
    frontAndBack
    {
        type            empty;
    }
}


// ************************************************************************* //
