/*--------------------------------*- C++ -*----------------------------------*\
  =========                 |
  \\      /  F ield         | OpenFOAM: The Open Source CFD Toolbox
   \\    /   O peration     | Website:  https://openfoam.org
    \\  /    A nd           | Version:  7
     \\/     M anipulation  |
\*---------------------------------------------------------------------------*/
FoamFile
{
    version     2.0;
    format      ascii;
    class       volScalarField;
    location    "38";
    object      ddt0(h);
}
// * * * * * * * * * * * * * * * * * * * * * * * * * * * * * * * * * * * * * //

dimensions      [0 1 -1 0 0 0 0];

internalField   nonuniform List<scalar> 
400
(
1.76925e-08
1.78921e-08
1.79374e-08
2.00651e-08
2.32519e-08
-1.60476e-09
-1.34345e-08
6.14382e-09
8.37149e-09
8.21962e-09
7.31923e-09
4.88381e-09
3.47872e-09
3.47309e-09
2.80804e-09
1.22957e-09
1.07537e-10
-1.42484e-10
-1.71243e-10
-2.22299e-11
1.63813e-08
1.69556e-08
1.71387e-08
1.53161e-08
9.15061e-09
2.99009e-08
3.93224e-08
1.99787e-08
8.70129e-09
8.59325e-09
6.33713e-09
4.62736e-09
3.53711e-09
2.76663e-09
1.627e-09
4.63592e-10
-1.2677e-10
-2.25321e-10
-3.00178e-10
-1.11627e-10
2.10542e-08
1.98482e-08
1.95329e-08
1.76723e-08
1.79522e-08
1.42847e-08
1.69717e-08
7.2074e-09
1.29653e-08
7.92477e-09
5.19132e-09
4.01926e-09
3.07323e-09
1.50785e-09
-8.69411e-11
-6.81526e-10
-4.63317e-10
-1.76461e-10
-1.18613e-10
4.25095e-11
1.38805e-08
1.59793e-08
1.69152e-08
1.70672e-08
1.54317e-08
1.66734e-08
1.0439e-08
1.27961e-08
9.83922e-09
6.33745e-09
4.58982e-09
3.65307e-09
2.44494e-09
4.5474e-10
-1.011e-09
-1.17819e-09
-8.65376e-10
-6.47703e-10
-6.0734e-10
-2.51367e-10
1.53974e-08
1.66003e-08
1.81776e-08
1.91847e-08
1.71826e-08
1.66074e-08
1.33515e-08
1.26335e-08
9.30577e-09
6.53888e-09
5.12506e-09
3.66475e-09
1.66099e-09
-7.00417e-10
-1.74792e-09
-1.49641e-09
-1.24229e-09
-1.13105e-09
-9.55023e-10
-3.39275e-10
1.33027e-08
1.45108e-08
1.63129e-08
1.7129e-08
1.66328e-08
1.4715e-08
1.28053e-08
1.12391e-08
7.65459e-09
6.54956e-09
4.71245e-09
2.85848e-09
1.04426e-09
-8.41373e-10
-1.46323e-09
-1.3316e-09
-1.63713e-09
-1.96531e-09
-1.80699e-09
-7.54201e-10
1.11497e-08
1.24461e-08
1.41784e-08
1.40753e-08
1.44554e-08
1.23709e-08
1.18104e-08
9.05419e-09
7.33335e-09
5.80853e-09
3.36683e-09
1.91619e-09
4.81342e-10
-7.60746e-10
-1.15434e-09
-1.398e-09
-2.02606e-09
-2.44135e-09
-2.02589e-09
-7.43769e-10
8.53477e-09
9.63326e-09
1.07527e-08
1.07278e-08
1.06939e-08
9.98736e-09
9.23298e-09
7.18087e-09
6.13344e-09
3.9672e-09
2.51623e-09
1.35207e-09
3.54258e-11
-3.35436e-10
-5.75612e-10
-1.4183e-09
-2.23807e-09
-2.42285e-09
-1.67513e-09
-5.00469e-10
5.32747e-09
6.31542e-09
6.44336e-09
7.01176e-09
6.46892e-09
6.55227e-09
5.62032e-09
4.65107e-09
3.76442e-09
2.36696e-09
1.6878e-09
6.47477e-10
-2.12206e-10
-4.28824e-11
-2.3611e-10
-1.12665e-09
-1.71787e-09
-1.66736e-09
-8.42509e-10
-9.21773e-11
1.83256e-09
2.28714e-09
2.13011e-09
2.33704e-09
2.20393e-09
2.21844e-09
1.9448e-09
1.66371e-09
1.23486e-09
9.02865e-10
4.7931e-10
-1.79038e-11
-1.55256e-10
-1.40591e-10
-3.28472e-10
-3.85865e-10
-2.16864e-10
-1.55054e-10
-7.22375e-12
7.15834e-11
-1.69162e-09
-2.20492e-09
-2.17512e-09
-2.55765e-09
-2.13149e-09
-2.16896e-09
-1.86444e-09
-1.55149e-09
-1.54728e-09
-9.18631e-10
-6.75812e-10
-3.0879e-10
2.20705e-10
4.85485e-11
-1.12237e-10
4.24836e-10
1.04224e-09
1.06462e-09
5.50197e-10
1.03114e-10
-5.28156e-09
-6.1971e-09
-6.63821e-09
-7.0689e-09
-6.70371e-09
-6.39406e-09
-5.56682e-09
-4.49227e-09
-3.73398e-09
-2.55772e-09
-1.61273e-09
-5.37048e-10
3.29357e-10
3.39782e-10
3.92963e-10
9.18281e-10
1.46319e-09
1.72925e-09
1.21434e-09
3.27258e-10
-8.64801e-09
-9.58895e-09
-1.06642e-08
-1.07309e-08
-1.10759e-08
-1.00342e-08
-9.16412e-09
-7.18508e-09
-5.75099e-09
-4.06128e-09
-2.50467e-09
-1.23569e-09
-4.4153e-11
7.23427e-10
1.04717e-09
1.08497e-09
1.25686e-09
1.79296e-09
1.73846e-09
6.6911e-10
-1.15598e-08
-1.24592e-08
-1.36751e-08
-1.40541e-08
-1.43199e-08
-1.2757e-08
-1.17074e-08
-9.45952e-09
-7.01685e-09
-5.29209e-09
-3.19489e-09
-2.09917e-09
-9.49602e-10
6.90831e-10
1.59995e-09
1.4935e-09
1.34624e-09
1.67229e-09
1.7129e-09
7.11297e-10
-1.37217e-08
-1.46391e-08
-1.60146e-08
-1.67909e-08
-1.59792e-08
-1.56011e-08
-1.26002e-08
-1.18124e-08
-8.56341e-09
-6.0555e-09
-3.93484e-09
-2.63852e-09
-1.59069e-09
2.02963e-10
1.61149e-09
1.92811e-09
1.74802e-09
1.51385e-09
1.28989e-09
5.40932e-10
-1.54491e-08
-1.69036e-08
-1.84016e-08
-1.86439e-08
-1.72935e-08
-1.62367e-08
-1.29609e-08
-1.10611e-08
-1.04598e-08
-7.46685e-09
-4.57686e-09
-2.77667e-09
-1.62869e-09
-1.33822e-11
1.5073e-09
2.10429e-09
1.89632e-09
1.16891e-09
4.97838e-10
4.9122e-11
-1.31482e-08
-1.62953e-08
-1.7532e-08
-1.70418e-08
-1.59261e-08
-1.38122e-08
-1.45564e-08
-1.04314e-08
-8.51959e-09
-7.72042e-09
-5.31582e-09
-2.94219e-09
-1.75369e-09
-7.20113e-10
5.29802e-10
1.37665e-09
1.55729e-09
1.04606e-09
4.16562e-10
3.01654e-11
-1.88379e-08
-2.03579e-08
-2.08604e-08
-1.78784e-08
-1.81603e-08
-1.61163e-08
-1.86641e-08
-7.7168e-09
-9.95579e-09
-8.81881e-09
-6.62863e-09
-3.86104e-09
-2.20146e-09
-1.28912e-09
-3.32723e-10
5.02985e-10
8.64583e-10
6.39826e-10
2.16765e-10
-9.69803e-11
-1.66758e-08
-1.68424e-08
-1.73893e-08
-1.55345e-08
-1.80283e-08
1.19715e-08
-3.96782e-08
-1.97655e-08
-7.27312e-09
-8.13801e-09
-6.50513e-09
-4.9013e-09
-3.38238e-09
-2.38491e-09
-1.62564e-09
-7.60516e-10
4.9089e-11
4.26128e-10
5.30351e-10
2.04692e-10
-1.96143e-08
-1.70677e-08
-1.62663e-08
-2.03808e-08
-1.38862e-08
-4.06141e-08
1.86659e-08
-9.07917e-09
-1.24634e-08
-6.13754e-09
-6.3145e-09
-6.22682e-09
-4.29683e-09
-2.87311e-09
-2.33197e-09
-1.62601e-09
-6.76433e-10
2.49691e-11
4.14447e-10
1.87859e-10
)
;

boundaryField
{
    sides
    {
        type            calculated;
        value           nonuniform List<scalar> 
40
(
-1.96143e-08
-1.70677e-08
-1.62663e-08
-2.03808e-08
-1.38862e-08
-4.06141e-08
1.86659e-08
-9.07917e-09
-1.24634e-08
-6.13754e-09
-6.3145e-09
-6.22682e-09
-4.29683e-09
-2.87311e-09
-2.33197e-09
-1.62601e-09
-6.76433e-10
2.49691e-11
4.14447e-10
1.87859e-10
1.76925e-08
1.78921e-08
1.79374e-08
2.00651e-08
2.32519e-08
-1.60476e-09
-1.34345e-08
6.14382e-09
8.37149e-09
8.21962e-09
7.31923e-09
4.88381e-09
3.47872e-09
3.47309e-09
2.80804e-09
1.22957e-09
1.07537e-10
-1.42484e-10
-1.71243e-10
-2.22299e-11
)
;
    }
    inlet
    {
        type            calculated;
        value           nonuniform List<scalar> 
20
(
1.76925e-08
1.63813e-08
2.10542e-08
1.38805e-08
1.53974e-08
1.33027e-08
1.11497e-08
8.53477e-09
5.32747e-09
1.83256e-09
-1.69162e-09
-5.28156e-09
-8.64801e-09
-1.15598e-08
-1.37217e-08
-1.54491e-08
-1.31482e-08
-1.88379e-08
-1.66758e-08
-1.96143e-08
)
;
    }
    outlet
    {
        type            calculated;
        value           uniform 0;
    }
    frontAndBack
    {
        type            empty;
    }
}


// ************************************************************************* //
