/*--------------------------------*- C++ -*----------------------------------*\
  =========                 |
  \\      /  F ield         | OpenFOAM: The Open Source CFD Toolbox
   \\    /   O peration     | Website:  https://openfoam.org
    \\  /    A nd           | Version:  7
     \\/     M anipulation  |
\*---------------------------------------------------------------------------*/
FoamFile
{
    version     2.0;
    format      ascii;
    class       surfaceScalarField;
    location    "38";
    object      ddtCorrDdt0(phi);
}
// * * * * * * * * * * * * * * * * * * * * * * * * * * * * * * * * * * * * * //

dimensions      [0 4 -2 0 0 0 0];

internalField   nonuniform List<scalar> 
760
(
-3.11433e-12
2.67947e-12
-5.61944e-12
5.00085e-12
-1.02151e-11
3.47098e-12
-1.46099e-11
3.61005e-12
-3.06061e-12
-2.4008e-10
-2.90779e-11
-2.4124e-11
-2.6719e-11
-3.00772e-10
4.64407e-12
3.68125e-10
2.77526e-12
9.63671e-12
1.17898e-11
-4.02974e-12
1.4219e-11
-2.31727e-12
1.29037e-11
1.80374e-13
1.06315e-11
4.19524e-12
5.97169e-12
7.49817e-12
-8.57776e-13
7.47395e-12
-6.59123e-12
5.47098e-12
-5.80486e-12
1.35827e-13
-1.14507e-12
-3.03805e-12
7.73159e-12
-7.94309e-12
-7.46048e-12
-2.87424e-12
3.3116e-12
-7.70702e-12
9.78126e-12
-1.08495e-11
7.83309e-12
-1.35027e-11
3.99309e-12
-2.01166e-11
5.26961e-12
-2.94659e-12
-1.54375e-12
1.65055e-11
1.84516e-11
-1.38379e-11
-3.20109e-11
4.65842e-12
-1.00846e-11
1.15831e-11
-9.2771e-12
1.61104e-11
-6.15754e-12
1.70296e-11
7.22872e-13
1.35825e-11
1.00185e-11
6.60148e-12
1.64484e-11
-1.39499e-12
1.62623e-11
-7.08207e-12
1.19325e-11
-6.48846e-12
1.06205e-12
-2.92826e-12
-5.25192e-12
5.36049e-12
-1.59086e-11
-1.46581e-11
-1.47897e-12
-3.41311e-11
-7.00923e-12
1.25558e-11
-1.06129e-11
1.24753e-11
-1.07148e-11
8.35394e-12
-1.66713e-11
3.7231e-12
-3.94355e-12
7.60433e-13
-1.34854e-11
-9.42279e-12
-6.95373e-14
-8.38792e-12
5.98232e-12
-1.23785e-11
8.33931e-12
-1.39218e-11
1.18728e-11
-7.50174e-12
1.32358e-11
3.10363e-12
1.03298e-11
1.55516e-11
3.48798e-12
2.39172e-11
-3.44391e-12
2.34929e-11
-7.52668e-12
1.76939e-11
-5.88033e-12
1.50652e-12
-1.31919e-12
-9.00891e-12
7.78007e-12
-2.54423e-11
-2.30207e-11
-3.58571e-12
6.48764e-12
-8.41991e-12
1.4859e-11
-1.20622e-11
1.50132e-11
-1.26753e-11
1.1547e-11
-1.50269e-11
5.13466e-12
-1.05352e-11
1.60744e-12
-1.05152e-11
-9.25689e-12
-9.00235e-13
-1.37384e-11
3.36103e-12
-1.8619e-11
9.5538e-12
-1.8509e-11
1.53289e-11
-8.9297e-12
1.74067e-11
5.30873e-12
1.37738e-11
2.16089e-11
6.1018e-12
3.22028e-11
-7.79747e-13
3.16512e-11
-4.63153e-12
2.43296e-11
-4.28347e-12
3.06116e-12
-2.56794e-12
-1.09687e-11
3.69282e-12
-3.2563e-11
-2.95398e-11
-3.59559e-12
6.1221e-12
-6.30125e-12
1.41138e-11
-8.37775e-12
1.54457e-11
-1.03064e-11
1.31471e-11
-9.64563e-12
7.31236e-12
-9.56733e-12
3.12422e-13
-5.82808e-12
-8.00318e-12
-2.25997e-12
-1.44584e-11
-6.30352e-13
-1.96422e-11
4.18983e-12
-1.81755e-11
8.30085e-12
-7.45423e-12
9.79496e-12
7.6877e-12
7.43368e-12
2.57784e-11
2.60457e-12
3.82409e-11
-6.785e-13
3.79249e-11
-2.10648e-12
2.93101e-11
-1.63472e-12
3.59522e-12
-4.58204e-13
-1.31838e-11
4.94164e-12
-3.82892e-11
-3.5161e-11
-3.96422e-12
6.1406e-12
-6.94131e-12
1.42306e-11
-8.91344e-12
1.63979e-11
-1.22541e-11
1.44469e-11
-1.1958e-11
9.70682e-12
-1.24428e-11
9.23086e-13
-6.77802e-12
-8.2758e-12
-2.54728e-12
-1.73903e-11
4.58376e-12
-2.19861e-11
1.24407e-11
-1.87608e-11
1.54824e-11
-6.62612e-12
1.49617e-11
1.16282e-11
9.91699e-12
3.33207e-11
2.90416e-12
4.78806e-11
-2.30793e-12
4.73216e-11
-5.90008e-12
3.59344e-11
-6.48465e-12
3.93185e-12
-4.01535e-12
-1.66976e-11
4.29285e-12
-4.57772e-11
-4.09708e-11
-3.5208e-12
6.02106e-12
-4.89429e-12
1.32993e-11
-5.97334e-12
1.62037e-11
-7.48198e-12
1.41393e-11
-7.29814e-12
9.66749e-12
-6.54313e-12
1.53326e-12
-4.23865e-12
-6.71219e-12
-3.68052e-12
-1.5763e-11
2.42777e-13
-1.91503e-11
2.55155e-12
-1.75363e-11
4.44606e-12
-5.45779e-12
6.22649e-12
1.39128e-11
6.10296e-12
3.65766e-11
5.40321e-12
5.22872e-11
4.7077e-12
5.20662e-11
2.09706e-12
4.00886e-11
-2.10428e-13
5.73352e-12
-6.32165e-13
-1.59507e-11
2.2607e-12
-4.69365e-11
-4.34199e-11
-2.65742e-12
5.9721e-12
-3.13031e-12
1.21274e-11
-5.02533e-12
1.57911e-11
-6.43546e-12
1.53447e-11
-8.30121e-12
1.01916e-11
-6.752e-12
2.60012e-12
-5.50301e-12
-6.67966e-12
-1.72368e-12
-1.52907e-11
2.66962e-12
-1.97423e-11
5.6225e-12
-1.82546e-11
8.13234e-12
-4.24361e-12
7.69827e-12
1.70759e-11
4.93547e-12
4.22108e-11
2.24619e-12
5.9381e-11
-1.1696e-12
5.80892e-11
-5.26505e-12
4.37441e-11
-5.4735e-12
6.38363e-12
-1.96243e-12
-1.69168e-11
3.85721e-12
-5.09776e-11
-4.7047e-11
-1.8509e-12
5.77919e-12
-2.20677e-12
1.1483e-11
-3.73666e-12
1.53994e-11
-4.17291e-12
1.56821e-11
-4.85971e-12
1.03273e-11
-3.4252e-12
2.78486e-12
-2.54353e-12
-6.51694e-12
1.63191e-13
-1.44131e-11
1.43502e-12
-1.90042e-11
1.94912e-12
-1.69216e-11
2.51616e-12
-2.52709e-12
2.00171e-12
1.8729e-11
1.99043e-12
4.45082e-11
2.86332e-12
6.21088e-11
2.16368e-12
5.99009e-11
-1.90559e-13
4.50072e-11
-1.59642e-13
7.74816e-12
1.65969e-12
-1.53945e-11
2.32217e-12
-5.06493e-11
-4.78989e-11
-7.65691e-13
5.33165e-12
-1.08208e-12
1.10175e-11
-1.31304e-12
1.54092e-11
-1.26958e-12
1.58383e-11
-1.16609e-12
1.05698e-11
-1.215e-12
3.10062e-12
-1.26619e-12
-5.78182e-12
-8.03648e-13
-1.37603e-11
-7.28602e-14
-1.88613e-11
8.93064e-13
-1.7427e-11
1.73882e-12
-3.07754e-12
2.19566e-12
1.89425e-11
1.92101e-12
4.57671e-11
9.66885e-13
6.40701e-11
-6.90271e-13
6.21179e-11
-2.17517e-12
4.7017e-11
-1.86592e-12
9.01069e-12
-6.24879e-13
-1.527e-11
5.87929e-13
-5.25834e-11
-4.9359e-11
6.80653e-13
5.04969e-12
5.21235e-13
1.10042e-11
1.04663e-12
1.58261e-11
1.14512e-12
1.62084e-11
1.67124e-12
1.0858e-11
1.05872e-12
2.7892e-12
1.39226e-12
-6.28227e-12
7.81395e-13
-1.4524e-11
1.11554e-13
-1.89055e-11
-9.36912e-13
-1.68858e-11
-2.31297e-12
-2.63737e-12
-2.24757e-12
1.90124e-11
-1.66952e-12
4.46808e-11
-1.40668e-12
6.21232e-11
-7.35236e-14
6.05378e-11
2.25531e-12
4.62172e-11
3.24049e-12
8.60815e-12
2.19559e-12
-1.55442e-11
-4.98342e-13
-5.15696e-11
-4.84504e-11
2.02323e-12
5.46279e-12
2.48939e-12
1.17247e-11
3.56071e-12
1.58674e-11
4.01342e-12
1.5564e-11
4.80602e-12
1.06715e-11
3.51418e-12
2.63423e-12
2.34998e-12
-6.42302e-12
1.15861e-13
-1.51612e-11
-1.43581e-12
-1.97064e-11
-2.10143e-12
-1.79789e-11
-2.52951e-12
-3.91779e-12
-2.02919e-12
1.75048e-11
-1.75895e-12
4.24089e-11
-2.44291e-12
5.93254e-11
-2.27745e-12
5.8391e-11
-4.08188e-13
4.46247e-11
3.61624e-14
7.29383e-12
-1.13935e-12
-1.68041e-11
-1.96368e-12
-5.17706e-11
-4.7591e-11
2.95908e-12
6.36162e-12
3.91019e-12
1.3218e-11
5.06493e-12
1.5631e-11
6.50507e-12
1.39443e-11
7.7151e-12
9.57687e-12
7.01779e-12
1.42729e-12
5.14936e-12
-6.8535e-12
1.97305e-12
-1.55422e-11
-2.3365e-12
-1.95599e-11
-5.70533e-12
-1.77879e-11
-8.05939e-12
-5.09971e-12
-7.97229e-12
1.43938e-11
-4.93103e-12
3.68168e-11
-1.38925e-12
5.20535e-11
1.64234e-12
5.15294e-11
4.46914e-12
3.99181e-11
4.20061e-12
6.21869e-12
1.30388e-12
-1.54508e-11
-3.4445e-12
-4.6967e-11
-4.35636e-11
3.43383e-12
6.87719e-12
5.26877e-12
1.43699e-11
6.49531e-12
1.59012e-11
7.78376e-12
1.41568e-11
6.74791e-12
8.89859e-12
6.72321e-12
1.19315e-12
4.11451e-12
-8.57029e-12
3.2223e-12
-1.66078e-11
3.93287e-13
-2.19366e-11
-1.86284e-12
-1.98032e-11
-4.29921e-12
-7.33873e-12
-6.9511e-12
1.16041e-11
-6.79237e-12
3.37327e-11
-4.9665e-12
4.7961e-11
-3.77172e-12
4.66511e-11
-2.0496e-12
3.51433e-11
-9.773e-13
3.77626e-12
-6.75001e-13
-1.62769e-11
-2.17279e-12
-4.52147e-11
-4.06798e-11
3.27788e-12
6.51544e-12
6.62861e-12
1.43828e-11
9.67055e-12
1.55311e-11
1.2271e-11
1.27057e-11
1.24071e-11
7.06795e-12
1.20042e-11
1.02519e-12
7.62324e-12
-9.10732e-12
9.9131e-13
-1.4585e-11
-5.25111e-12
-1.791e-11
-1.12706e-11
-1.8052e-11
-1.43921e-11
-8.72484e-12
-1.51794e-11
6.75897e-12
-1.10775e-11
2.58956e-11
-3.38846e-12
3.87375e-11
3.21224e-12
3.78833e-11
6.8908e-12
2.86467e-11
6.11875e-12
2.96714e-12
2.83693e-12
-1.32101e-11
-4.64477e-12
-3.77102e-11
-3.47332e-11
2.69501e-12
6.14616e-12
5.65572e-12
1.51359e-11
8.57101e-12
1.55183e-11
1.03208e-11
1.15453e-11
1.11279e-11
5.70889e-12
8.05272e-12
-7.90547e-13
8.21731e-12
-8.94446e-12
2.60333e-12
-1.67435e-11
-1.95053e-12
-1.8464e-11
-4.64369e-12
-1.69271e-11
-6.74284e-12
-9.01002e-12
-8.72042e-12
4.23095e-12
-8.14243e-12
2.11067e-11
-3.75522e-12
3.25928e-11
8.79826e-13
3.21365e-11
3.24454e-12
2.41431e-11
2.1059e-12
2.39209e-12
3.11004e-14
-1.13744e-11
-5.40572e-12
-3.2378e-11
-2.92759e-11
3.58953e-12
-2.79758e-11
8.16314e-12
1.25754e-11
1.12199e-11
1.30313e-11
1.30383e-11
8.63773e-12
1.48104e-11
3.9737e-12
1.03637e-11
1.45211e-12
9.23724e-12
-8.25776e-13
5.16055e-12
-9.71206e-12
-4.35505e-12
-1.42503e-11
-1.21505e-11
-1.31892e-11
-1.5117e-11
-6.53264e-12
-1.5607e-11
2.88072e-12
-1.3308e-11
1.48467e-11
-7.11564e-12
2.377e-11
1.848e-13
2.39279e-11
5.2118e-12
1.79404e-11
5.11776e-12
1.23157e-12
2.85319e-12
-9.40646e-12
-4.02801e-12
-2.55897e-11
-2.29735e-11
2.23886e-12
2.6403e-12
7.05641e-12
9.50245e-12
9.17852e-12
7.70393e-12
1.05227e-11
4.40912e-12
1.50676e-11
4.23132e-12
8.10593e-12
-3.88829e-12
5.11524e-12
-2.89369e-12
5.29608e-12
-2.7997e-11
-4.50751e-12
-1.22488e-11
-1.12073e-11
-1.00884e-11
-1.28845e-11
-5.05441e-12
-1.17117e-11
1.64138e-12
-9.13587e-12
9.75041e-12
-3.88283e-12
1.58867e-11
2.60049e-12
1.63206e-11
7.47758e-12
1.23773e-11
6.56669e-12
1.27357e-12
1.91745e-12
-5.38341e-12
-7.86103e-12
-1.61341e-11
-1.47259e-11
2.56101e-12
2.63379e-12
7.97545e-12
4.86465e-12
1.12258e-11
2.85713e-12
1.02254e-11
6.13729e-12
2.76649e-11
4.19768e-11
1.25958e-11
1.43919e-11
-1.70829e-11
1.23504e-10
1.56313e-11
4.0378e-10
-2.71242e-12
1.0001e-11
-1.13065e-11
-5.06803e-12
-1.67487e-11
-1.61192e-12
-1.7333e-11
1.37757e-12
-1.30712e-11
4.28524e-12
-6.18914e-12
6.93775e-12
1.05953e-12
7.33006e-12
6.60327e-12
5.81168e-12
6.59327e-12
4.2245e-13
3.39492e-12
-3.05248e-12
-5.19203e-12
-8.12113e-12
-7.53177e-12
3.98577e-12
5.71159e-12
1.11362e-11
1.7703e-11
-3.80569e-12
1.71149e-11
3.4343e-11
-1.46888e-11
-2.90986e-12
-7.69334e-12
-1.5037e-11
-1.56809e-11
-1.07027e-11
-4.57019e-12
1.05999e-12
5.76475e-12
5.39134e-12
1.39653e-12
-7.48883e-12
)
;

boundaryField
{
    sides
    {
        type            calculated;
        value           uniform 0;
    }
    inlet
    {
        type            calculated;
        value           uniform 0;
    }
    outlet
    {
        type            calculated;
        value           nonuniform List<scalar> 
20
(
1.53792e-11
1.24324e-11
1.57325e-11
9.906e-12
1.08509e-11
1.1085e-11
5.77579e-12
7.78371e-12
2.65927e-12
1.0626e-12
-2.08783e-12
-2.6321e-12
-6.80118e-12
-4.66747e-12
-1.06459e-11
-1.11323e-11
-1.05297e-11
-1.62155e-11
-1.25426e-11
-1.52837e-11
)
;
    }
    frontAndBack
    {
        type            empty;
        value           nonuniform 0();
    }
}


// ************************************************************************* //
