/*--------------------------------*- C++ -*----------------------------------*\
  =========                 |
  \\      /  F ield         | OpenFOAM: The Open Source CFD Toolbox
   \\    /   O peration     | Website:  https://openfoam.org
    \\  /    A nd           | Version:  7
     \\/     M anipulation  |
\*---------------------------------------------------------------------------*/
FoamFile
{
    version     2.0;
    format      ascii;
    class       surfaceScalarField;
    location    "38";
    object      phi;
}
// * * * * * * * * * * * * * * * * * * * * * * * * * * * * * * * * * * * * * //

dimensions      [0 4 -1 0 0 0 0];

internalField   nonuniform List<scalar> 
760
(
4.99999e-06
9.94412e-12
4.99999e-06
-5.99131e-12
5e-06
-1.68587e-11
5.00002e-06
-2.5298e-11
5.00005e-06
-3.07778e-11
5.00008e-06
-4.55795e-11
5.00013e-06
-5.30187e-11
5.00018e-06
-5.22616e-11
5.00025e-06
-6.39038e-11
5.00032e-06
-7.72754e-11
5.00041e-06
-8.72922e-11
5.00052e-06
-1.10393e-10
5.00064e-06
-1.23899e-10
5.00081e-06
-1.67779e-10
5.00099e-06
-1.8124e-10
5.00125e-06
-2.63871e-10
5.00152e-06
-2.64621e-10
5.00196e-06
-4.39272e-10
5.00238e-06
-4.19881e-10
-8.90231e-10
5.00002e-06
-1.12022e-11
5.00003e-06
-2.19371e-11
5.00004e-06
-3.62985e-11
5.00007e-06
-5.19375e-11
5.0001e-06
-6.65653e-11
5.00014e-06
-8.25784e-11
5.00018e-06
-9.56155e-11
5.00023e-06
-1.13759e-10
5.0003e-06
-1.2746e-10
5.00037e-06
-1.51304e-10
5.00045e-06
-1.70278e-10
5.00055e-06
-2.13259e-10
5.00067e-06
-2.42714e-10
5.00082e-06
-3.2315e-10
5.001e-06
-3.60006e-10
5.00124e-06
-5.00141e-10
5.0015e-06
-5.26539e-10
5.00185e-06
-7.83233e-10
5.0022e-06
-7.72304e-10
-1.2604e-09
4.99999e-06
-4.78633e-12
4.99999e-06
-2.50877e-11
4.99999e-06
-4.82324e-11
5.00001e-06
-7.20671e-11
5.00003e-06
-9.47947e-11
5.00007e-06
-1.18089e-10
5.00011e-06
-1.40423e-10
5.00016e-06
-1.65104e-10
5.00021e-06
-1.88109e-10
5.00028e-06
-2.21272e-10
5.00036e-06
-2.52686e-10
5.00046e-06
-3.10708e-10
5.00058e-06
-3.6121e-10
5.00072e-06
-4.66224e-10
5.0009e-06
-5.34681e-10
5.0011e-06
-7.07721e-10
5.00135e-06
-7.73713e-10
5.00163e-06
-1.06436e-09
5.00196e-06
-1.10112e-09
-1.68555e-09
5e-06
-1.24962e-11
5.00001e-06
-3.96218e-11
5.00003e-06
-6.84161e-11
5.00005e-06
-9.79623e-11
5.00008e-06
-1.26643e-10
5.00011e-06
-1.56172e-10
5.00015e-06
-1.83996e-10
5.0002e-06
-2.14806e-10
5.00026e-06
-2.43693e-10
5.00032e-06
-2.84918e-10
5.00039e-06
-3.24579e-10
5.00047e-06
-3.97393e-10
5.00058e-06
-4.62882e-10
5.0007e-06
-5.93563e-10
5.00085e-06
-6.83486e-10
5.00104e-06
-8.91475e-10
5.00124e-06
-9.80005e-10
5.00149e-06
-1.30978e-09
5.00174e-06
-1.35526e-09
-1.89445e-09
5e-06
-1.34108e-11
5e-06
-4.54348e-11
5e-06
-7.95358e-11
5.00002e-06
-1.14792e-10
5.00004e-06
-1.49582e-10
5.00006e-06
-1.85436e-10
5.00009e-06
-2.19391e-10
5.00013e-06
-2.56757e-10
5.00018e-06
-2.93226e-10
5.00024e-06
-3.42215e-10
5.0003e-06
-3.91912e-10
5.00038e-06
-4.75706e-10
5.00047e-06
-5.56581e-10
5.00058e-06
-7.03942e-10
5.00072e-06
-8.15801e-10
5.00087e-06
-1.04328e-09
5.00105e-06
-1.15509e-09
5.00123e-06
-1.49653e-09
5.00144e-06
-1.56099e-09
-2.15781e-09
5e-06
-1.59968e-11
5e-06
-5.38879e-11
5.00001e-06
-9.3489e-11
5.00003e-06
-1.34443e-10
5.00005e-06
-1.74637e-10
5.00008e-06
-2.15619e-10
5.00011e-06
-2.53821e-10
5.00014e-06
-2.95167e-10
5.00018e-06
-3.35105e-10
5.00023e-06
-3.88867e-10
5.00028e-06
-4.44717e-10
5.00034e-06
-5.38572e-10
5.00042e-06
-6.31126e-10
5.00051e-06
-7.9553e-10
5.00062e-06
-9.23129e-10
5.00075e-06
-1.17092e-09
5.00089e-06
-1.29687e-09
5.00105e-06
-1.65699e-09
5.00122e-06
-1.72962e-09
-2.28779e-09
5e-06
-1.88898e-11
5e-06
-6.06234e-11
5.00001e-06
-1.03621e-10
5.00002e-06
-1.48071e-10
5.00003e-06
-1.91693e-10
5.00005e-06
-2.36056e-10
5.00007e-06
-2.78147e-10
5.0001e-06
-3.2388e-10
5.00013e-06
-3.68847e-10
5.00017e-06
-4.28089e-10
5.00021e-06
-4.90187e-10
5.00027e-06
-5.90963e-10
5.00033e-06
-6.92182e-10
5.0004e-06
-8.66445e-10
5.00048e-06
-1.00585e-09
5.00058e-06
-1.26524e-09
5.00069e-06
-1.40349e-09
5.0008e-06
-1.77011e-09
5.00092e-06
-1.84753e-09
-2.43614e-09
5e-06
-2.09193e-11
5e-06
-6.51966e-11
5.00001e-06
-1.10623e-10
5.00001e-06
-1.58215e-10
5.00002e-06
-2.05385e-10
5.00004e-06
-2.52962e-10
5.00006e-06
-2.98022e-10
5.00008e-06
-3.46344e-10
5.0001e-06
-3.93829e-10
5.00013e-06
-4.55762e-10
5.00016e-06
-5.21212e-10
5.0002e-06
-6.27122e-10
5.00024e-06
-7.3497e-10
5.00029e-06
-9.18173e-10
5.00035e-06
-1.06653e-09
5.00042e-06
-1.33564e-09
5.0005e-06
-1.48079e-09
5.00059e-06
-1.85448e-09
5.00068e-06
-1.93806e-09
-2.50929e-09
5e-06
-2.21002e-11
5e-06
-6.8099e-11
5e-06
-1.15297e-10
5.00001e-06
-1.649e-10
5.00002e-06
-2.13951e-10
5.00002e-06
-2.63075e-10
5.00003e-06
-3.09478e-10
5.00005e-06
-3.59153e-10
5.00006e-06
-4.08402e-10
5.00008e-06
-4.72595e-10
5.0001e-06
-5.40874e-10
5.00012e-06
-6.5019e-10
5.00015e-06
-7.61759e-10
5.00018e-06
-9.4928e-10
5.00021e-06
-1.10213e-09
5.00025e-06
-1.37582e-09
5.0003e-06
-1.52521e-09
5.00035e-06
-1.90196e-09
5.0004e-06
-1.98615e-09
-2.56552e-09
5e-06
-2.25472e-11
5e-06
-6.91895e-11
5e-06
-1.1693e-10
5e-06
-1.67086e-10
5.00001e-06
-2.16597e-10
5.00001e-06
-2.66212e-10
5.00001e-06
-3.13307e-10
5.00002e-06
-3.63852e-10
5.00002e-06
-4.13891e-10
5.00003e-06
-4.78565e-10
5.00003e-06
-5.472e-10
5.00004e-06
-6.57055e-10
5.00005e-06
-7.69745e-10
5.00006e-06
-9.59016e-10
5.00007e-06
-1.11399e-09
5.00008e-06
-1.38996e-09
5.0001e-06
-1.54112e-09
5.00012e-06
-1.91895e-09
5.00014e-06
-2.00456e-09
-2.58105e-09
5e-06
-2.21769e-11
5e-06
-6.81482e-11
5e-06
-1.15274e-10
5e-06
-1.64854e-10
4.99999e-06
-2.13912e-10
4.99999e-06
-2.63071e-10
4.99999e-06
-3.09462e-10
4.99998e-06
-3.59148e-10
4.99998e-06
-4.08371e-10
4.99997e-06
-4.72567e-10
4.99997e-06
-5.40849e-10
4.99996e-06
-6.50132e-10
4.99995e-06
-7.6172e-10
4.99994e-06
-9.49237e-10
4.99993e-06
-1.10206e-09
4.99992e-06
-1.37574e-09
4.9999e-06
-1.5252e-09
4.99988e-06
-1.90198e-09
4.99986e-06
-1.9862e-09
-2.56544e-09
5e-06
-2.09921e-11
5e-06
-6.5238e-11
5e-06
-1.10607e-10
4.99999e-06
-1.58182e-10
4.99998e-06
-2.05345e-10
4.99998e-06
-2.52968e-10
4.99997e-06
-2.98014e-10
4.99995e-06
-3.46332e-10
4.99994e-06
-3.93802e-10
4.99992e-06
-4.55709e-10
4.9999e-06
-5.2116e-10
4.99988e-06
-6.27057e-10
4.99985e-06
-7.34941e-10
4.99982e-06
-9.18138e-10
4.99979e-06
-1.06648e-09
4.99975e-06
-1.33553e-09
4.9997e-06
-1.48073e-09
4.99965e-06
-1.85442e-09
4.9996e-06
-1.93804e-09
-2.50914e-09
5e-06
-1.88944e-11
5e-06
-6.06303e-11
4.99999e-06
-1.03638e-10
4.99999e-06
-1.4806e-10
4.99998e-06
-1.91682e-10
4.99996e-06
-2.36078e-10
4.99994e-06
-2.78177e-10
4.99992e-06
-3.23879e-10
4.9999e-06
-3.68876e-10
4.99987e-06
-4.28082e-10
4.99984e-06
-4.90148e-10
4.9998e-06
-5.90909e-10
4.99976e-06
-6.92175e-10
4.99971e-06
-8.66441e-10
4.99965e-06
-1.00587e-09
4.99958e-06
-1.26515e-09
4.9995e-06
-1.40338e-09
4.99941e-06
-1.76992e-09
4.99932e-06
-1.84741e-09
-2.4358e-09
5e-06
-1.59375e-11
5e-06
-5.38765e-11
4.99999e-06
-9.35211e-11
4.99998e-06
-1.34448e-10
4.99997e-06
-1.74678e-10
4.99995e-06
-2.15602e-10
4.99993e-06
-2.53847e-10
4.9999e-06
-2.9511e-10
4.99987e-06
-3.35116e-10
4.99983e-06
-3.8894e-10
4.99978e-06
-4.44766e-10
4.99973e-06
-5.38543e-10
4.99967e-06
-6.31089e-10
4.9996e-06
-7.95484e-10
4.99952e-06
-9.23137e-10
4.99942e-06
-1.17081e-09
4.99931e-06
-1.29672e-09
4.9992e-06
-1.65667e-09
4.99908e-06
-1.72934e-09
-2.28734e-09
5e-06
-1.33354e-11
5e-06
-4.54162e-11
4.99999e-06
-7.95603e-11
4.99997e-06
-1.14844e-10
4.99995e-06
-1.49616e-10
4.99992e-06
-1.85376e-10
4.99989e-06
-2.19463e-10
4.99986e-06
-2.5673e-10
4.99982e-06
-2.93112e-10
4.99977e-06
-3.42243e-10
4.99972e-06
-3.92047e-10
4.99966e-06
-4.75758e-10
4.99958e-06
-5.56559e-10
4.99949e-06
-7.03845e-10
4.99938e-06
-8.15778e-10
4.99925e-06
-1.04318e-09
4.99911e-06
-1.155e-09
4.99895e-06
-1.49622e-09
4.99878e-06
-1.56071e-09
-2.15731e-09
5e-06
-1.24482e-11
5e-06
-3.95977e-11
5e-06
-6.84114e-11
4.99998e-06
-9.80014e-11
4.99996e-06
-1.26632e-10
4.99994e-06
-1.56337e-10
4.99991e-06
-1.84009e-10
4.99987e-06
-2.14996e-10
4.99982e-06
-2.43632e-10
4.99976e-06
-2.84807e-10
4.9997e-06
-3.24639e-10
4.99962e-06
-3.97466e-10
4.99953e-06
-4.62896e-10
4.99942e-06
-5.93437e-10
4.99928e-06
-6.83413e-10
4.99913e-06
-8.9134e-10
4.99895e-06
-9.79938e-10
4.99877e-06
-1.30947e-09
4.99856e-06
-1.35496e-09
-1.89386e-09
5e-06
-4.8126e-12
4.99999e-06
-2.50866e-11
4.99997e-06
-4.82009e-11
4.99995e-06
-7.20769e-11
4.99992e-06
-9.48582e-11
4.99989e-06
-1.18152e-10
4.99985e-06
-1.40028e-10
4.9998e-06
-1.65295e-10
4.99974e-06
-1.88272e-10
4.99968e-06
-2.21235e-10
4.99961e-06
-2.52694e-10
4.99953e-06
-3.10775e-10
4.99942e-06
-3.61304e-10
4.9993e-06
-4.66192e-10
4.99915e-06
-5.34675e-10
4.99896e-06
-7.07638e-10
4.99876e-06
-7.7374e-10
4.99851e-06
-1.06416e-09
4.99826e-06
-1.10097e-09
-1.68513e-09
5.00001e-06
-1.12828e-11
5.00001e-06
-2.19597e-11
5.00001e-06
-3.62502e-11
4.99999e-06
-5.18742e-11
4.99997e-06
-6.6492e-11
4.99993e-06
-8.23864e-11
4.99989e-06
-9.63218e-11
4.99984e-06
-1.13557e-10
4.99979e-06
-1.27668e-10
4.99972e-06
-1.51325e-10
4.99964e-06
-1.70184e-10
4.99954e-06
-2.13173e-10
4.99942e-06
-2.42768e-10
4.99928e-06
-3.23121e-10
4.9991e-06
-3.60012e-10
4.9989e-06
-4.99999e-10
4.99865e-06
-5.26553e-10
4.99837e-06
-7.82998e-10
4.99804e-06
-7.72177e-10
-1.25992e-09
4.99998e-06
9.80858e-12
4.99997e-06
-5.97297e-12
4.99996e-06
-1.68045e-11
4.99993e-06
-2.52193e-11
4.9999e-06
-3.18626e-11
4.99986e-06
-3.45314e-11
4.99982e-06
-5.54361e-11
4.99977e-06
-4.98407e-11
4.9997e-06
-6.39573e-11
4.99963e-06
-7.74074e-11
4.99955e-06
-8.72852e-11
4.99945e-06
-1.10385e-10
4.99933e-06
-1.24025e-10
4.99918e-06
-1.67901e-10
4.999e-06
-1.81354e-10
4.99876e-06
-2.6391e-10
4.9985e-06
-2.64729e-10
4.99816e-06
-4.39299e-10
4.9978e-06
-4.1994e-10
-8.90216e-10
5.00001e-06
5.00001e-06
5e-06
4.99998e-06
4.99995e-06
4.99992e-06
4.99987e-06
4.99982e-06
4.99975e-06
4.99968e-06
4.99959e-06
4.99948e-06
4.99936e-06
4.99919e-06
4.99901e-06
4.99875e-06
4.99848e-06
4.99804e-06
4.99762e-06
)
;

boundaryField
{
    sides
    {
        type            calculated;
        value           uniform 0;
    }
    inlet
    {
        type            calculated;
        value           nonuniform List<scalar> 
20
(
-5e-06
-5e-06
-5e-06
-5e-06
-5e-06
-5e-06
-5e-06
-5e-06
-5e-06
-5e-06
-5e-06
-5e-06
-5e-06
-5e-06
-5e-06
-5e-06
-5e-06
-5e-06
-5e-06
-5e-06
)
;
    }
    outlet
    {
        type            calculated;
        value           nonuniform List<scalar> 
20
(
5.00327e-06
5.00257e-06
5.00239e-06
5.00195e-06
5.0017e-06
5.00135e-06
5.00107e-06
5.00075e-06
5.00045e-06
5.00015e-06
4.99985e-06
4.99955e-06
4.99925e-06
4.99893e-06
4.99865e-06
4.9983e-06
4.99805e-06
4.99761e-06
4.99743e-06
4.99673e-06
)
;
    }
    frontAndBack
    {
        type            empty;
        value           nonuniform 0();
    }
}


// ************************************************************************* //
