/*--------------------------------*- C++ -*----------------------------------*\
  =========                 |
  \\      /  F ield         | OpenFOAM: The Open Source CFD Toolbox
   \\    /   O peration     | Website:  https://openfoam.org
    \\  /    A nd           | Version:  7
     \\/     M anipulation  |
\*---------------------------------------------------------------------------*/
FoamFile
{
    version     2.0;
    format      ascii;
    class       volVectorField;
    location    "38";
    object      U;
}
// * * * * * * * * * * * * * * * * * * * * * * * * * * * * * * * * * * * * * //

dimensions      [0 1 -1 0 0 0 0];

internalField   nonuniform List<vector> 
400
(
(0.0999932 -8.84069e-07 0)
(0.0999929 -2.45746e-06 0)
(0.0999929 -3.76352e-06 0)
(0.0999932 -4.89581e-06 0)
(0.0999938 -5.94136e-06 0)
(0.0999945 -7.00953e-06 0)
(0.0999954 -7.9959e-06 0)
(0.0999966 -9.01335e-06 0)
(0.0999977 -9.98206e-06 0)
(0.0999995 -1.10774e-05 0)
(0.100001 -1.2092e-05 0)
(0.100004 -1.34461e-05 0)
(0.100006 -1.45435e-05 0)
(0.10001 -1.6348e-05 0)
(0.100012 -1.7342e-05 0)
(0.100019 -1.98567e-05 0)
(0.100022 -2.03131e-05 0)
(0.100035 -2.44763e-05 0)
(0.100036 -2.39828e-05 0)
(0.10006 -3.30664e-05 0)
(0.0999944 4.1196e-07 0)
(0.0999946 1.23232e-06 0)
(0.099995 2.03456e-06 0)
(0.0999956 2.78974e-06 0)
(0.0999961 3.48859e-06 0)
(0.0999969 4.08204e-06 0)
(0.0999977 4.68538e-06 0)
(0.0999988 5.20902e-06 0)
(0.1 5.75367e-06 0)
(0.100002 6.16769e-06 0)
(0.100003 6.67025e-06 0)
(0.100005 6.86914e-06 0)
(0.100008 7.30653e-06 0)
(0.100011 7.0002e-06 0)
(0.100014 7.37262e-06 0)
(0.10002 6.06824e-06 0)
(0.100024 6.56168e-06 0)
(0.100033 3.01524e-06 0)
(0.100036 3.80195e-06 0)
(0.10005 -5.5179e-06 0)
(0.0999948 -3.97875e-07 0)
(0.0999946 -1.39115e-06 0)
(0.0999945 -2.50211e-06 0)
(0.0999948 -3.64964e-06 0)
(0.0999952 -4.75552e-06 0)
(0.0999958 -5.83465e-06 0)
(0.0999966 -6.86251e-06 0)
(0.0999976 -7.93389e-06 0)
(0.0999988 -8.93879e-06 0)
(0.1 -1.01447e-05 0)
(0.100002 -1.12889e-05 0)
(0.100004 -1.29627e-05 0)
(0.100006 -1.443e-05 0)
(0.100009 -1.69805e-05 0)
(0.100012 -1.86954e-05 0)
(0.100018 -2.25171e-05 0)
(0.100021 -2.4041e-05 0)
(0.100029 -3.01649e-05 0)
(0.100032 -3.09073e-05 0)
(0.100046 -4.20987e-05 0)
(0.0999957 -2.17321e-08 0)
(0.0999957 -1.56788e-07 0)
(0.099996 -2.56535e-07 0)
(0.0999965 -3.06238e-07 0)
(0.099997 -3.09094e-07 0)
(0.0999977 -3.25073e-07 0)
(0.0999985 -3.22825e-07 0)
(0.0999995 -3.81194e-07 0)
(0.100001 -4.06156e-07 0)
(0.100002 -6.64872e-07 0)
(0.100003 -9.00133e-07 0)
(0.100005 -1.75186e-06 0)
(0.100007 -2.46154e-06 0)
(0.10001 -4.39142e-06 0)
(0.100013 -5.55854e-06 0)
(0.100017 -8.98606e-06 0)
(0.10002 -1.01625e-05 0)
(0.100027 -1.60249e-05 0)
(0.10003 -1.65413e-05 0)
(0.100039 -2.75296e-05 0)
(0.0999963 -2.9266e-07 0)
(0.0999962 -1.01401e-06 0)
(0.0999963 -1.84491e-06 0)
(0.0999965 -2.76536e-06 0)
(0.0999968 -3.72421e-06 0)
(0.0999973 -4.73242e-06 0)
(0.0999979 -5.71804e-06 0)
(0.0999987 -6.77385e-06 0)
(0.0999996 -7.80319e-06 0)
(0.100001 -9.0706e-06 0)
(0.100002 -1.03119e-05 0)
(0.100004 -1.21986e-05 0)
(0.100006 -1.39656e-05 0)
(0.100008 -1.70274e-05 0)
(0.10001 -1.93228e-05 0)
(0.100014 -2.39494e-05 0)
(0.100017 -2.62364e-05 0)
(0.100022 -3.32551e-05 0)
(0.100024 -3.46539e-05 0)
(0.100033 -4.6367e-05 0)
(0.099997 -3.03554e-07 0)
(0.099997 -9.95502e-07 0)
(0.0999971 -1.68291e-06 0)
(0.0999974 -2.34173e-06 0)
(0.0999978 -2.93517e-06 0)
(0.0999983 -3.50465e-06 0)
(0.0999989 -3.99847e-06 0)
(0.0999997 -4.54418e-06 0)
(0.100001 -5.06464e-06 0)
(0.100002 -5.85881e-06 0)
(0.100003 -6.70187e-06 0)
(0.100004 -8.29777e-06 0)
(0.100005 -9.88076e-06 0)
(0.100007 -1.28744e-05 0)
(0.100009 -1.51506e-05 0)
(0.100012 -1.97813e-05 0)
(0.100015 -2.20202e-05 0)
(0.100019 -2.88637e-05 0)
(0.100021 -3.00697e-05 0)
(0.100027 -4.13475e-05 0)
(0.0999977 -3.47017e-07 0)
(0.0999977 -1.12576e-06 0)
(0.0999978 -1.94252e-06 0)
(0.099998 -2.81204e-06 0)
(0.0999982 -3.70386e-06 0)
(0.0999985 -4.64989e-06 0)
(0.0999989 -5.57591e-06 0)
(0.0999995 -6.58656e-06 0)
(0.1 -7.58054e-06 0)
(0.100001 -8.85108e-06 0)
(0.100002 -1.01563e-05 0)
(0.100003 -1.22062e-05 0)
(0.100004 -1.42262e-05 0)
(0.100006 -1.7684e-05 0)
(0.100007 -2.04308e-05 0)
(0.10001 -2.55998e-05 0)
(0.100011 -2.83594e-05 0)
(0.100015 -3.57779e-05 0)
(0.100016 -3.74199e-05 0)
(0.100021 -4.91565e-05 0)
(0.0999984 -3.92427e-07 0)
(0.0999983 -1.24924e-06 0)
(0.0999984 -2.14724e-06 0)
(0.0999985 -3.0932e-06 0)
(0.0999987 -4.02143e-06 0)
(0.099999 -4.93882e-06 0)
(0.0999993 -5.78323e-06 0)
(0.0999998 -6.67783e-06 0)
(0.1 -7.54831e-06 0)
(0.100001 -8.70687e-06 0)
(0.100001 -9.94109e-06 0)
(0.100002 -1.19828e-05 0)
(0.100003 -1.40659e-05 0)
(0.100004 -1.76378e-05 0)
(0.100005 -2.0508e-05 0)
(0.100007 -2.57634e-05 0)
(0.100008 -2.85569e-05 0)
(0.100011 -3.58929e-05 0)
(0.100012 -3.74606e-05 0)
(0.100015 -4.88916e-05 0)
(0.099999 -4.25538e-07 0)
(0.099999 -1.32923e-06 0)
(0.099999 -2.26343e-06 0)
(0.0999991 -3.23732e-06 0)
(0.0999993 -4.19111e-06 0)
(0.0999994 -5.14799e-06 0)
(0.0999996 -6.06213e-06 0)
(0.0999999 -7.05459e-06 0)
(0.1 -8.04097e-06 0)
(0.1 -9.32076e-06 0)
(0.100001 -1.06693e-05 0)
(0.100001 -1.28281e-05 0)
(0.100002 -1.50242e-05 0)
(0.100003 -1.87417e-05 0)
(0.100003 -2.17727e-05 0)
(0.100004 -2.72417e-05 0)
(0.100005 -3.02349e-05 0)
(0.100006 -3.78036e-05 0)
(0.100007 -3.95219e-05 0)
(0.100009 -5.1157e-05 0)
(0.0999997 -4.4243e-07 0)
(0.0999997 -1.36637e-06 0)
(0.0999997 -2.31672e-06 0)
(0.0999997 -3.31693e-06 0)
(0.0999998 -4.30931e-06 0)
(0.0999998 -5.30543e-06 0)
(0.0999999 -6.24676e-06 0)
(0.0999999 -7.25051e-06 0)
(0.1 -8.24291e-06 0)
(0.1 -9.53237e-06 0)
(0.1 -1.09073e-05 0)
(0.1 -1.31094e-05 0)
(0.100001 -1.53674e-05 0)
(0.100001 -1.91522e-05 0)
(0.100001 -2.22479e-05 0)
(0.100001 -2.77573e-05 0)
(0.100002 -3.07741e-05 0)
(0.100002 -3.83253e-05 0)
(0.100002 -4.00411e-05 0)
(0.100003 -5.15847e-05 0)
(0.1 -4.43188e-07 0)
(0.1 -1.36682e-06 0)
(0.1 -2.31649e-06 0)
(0.1 -3.31651e-06 0)
(0.1 -4.30897e-06 0)
(0.1 -5.30544e-06 0)
(0.1 -6.24662e-06 0)
(0.1 -7.25052e-06 0)
(0.0999999 -8.24266e-06 0)
(0.0999998 -9.53217e-06 0)
(0.0999997 -1.09071e-05 0)
(0.0999995 -1.31089e-05 0)
(0.0999994 -1.5367e-05 0)
(0.0999992 -1.91518e-05 0)
(0.0999989 -2.22471e-05 0)
(0.0999986 -2.77566e-05 0)
(0.0999983 -3.07742e-05 0)
(0.0999979 -3.83261e-05 0)
(0.0999976 -4.00421e-05 0)
(0.099997 -5.1585e-05 0)
(0.100001 -4.2702e-07 0)
(0.100001 -1.33007e-06 0)
(0.100001 -2.26304e-06 0)
(0.100001 -3.2366e-06 0)
(0.100001 -4.19046e-06 0)
(0.100001 -5.14818e-06 0)
(0.1 -6.06203e-06 0)
(0.1 -7.05455e-06 0)
(0.0999999 -8.04049e-06 0)
(0.0999995 -9.32e-06 0)
(0.0999991 -1.06686e-05 0)
(0.0999986 -1.28268e-05 0)
(0.0999981 -1.50235e-05 0)
(0.0999974 -1.87407e-05 0)
(0.0999968 -2.17712e-05 0)
(0.0999957 -2.72392e-05 0)
(0.099995 -3.02336e-05 0)
(0.0999936 -3.7802e-05 0)
(0.0999931 -3.9521e-05 0)
(0.0999911 -5.11522e-05 0)
(0.100002 -3.93218e-07 0)
(0.100002 -1.24976e-06 0)
(0.100002 -2.14727e-06 0)
(0.100001 -3.0928e-06 0)
(0.100001 -4.02104e-06 0)
(0.100001 -4.93932e-06 0)
(0.100001 -5.78376e-06 0)
(0.1 -6.67814e-06 0)
(0.0999997 -7.54884e-06 0)
(0.0999992 -8.70689e-06 0)
(0.0999986 -9.94091e-06 0)
(0.0999978 -1.19826e-05 0)
(0.099997 -1.40667e-05 0)
(0.0999958 -1.76389e-05 0)
(0.0999947 -2.05092e-05 0)
(0.099993 -2.57636e-05 0)
(0.0999917 -2.85574e-05 0)
(0.0999893 -3.58935e-05 0)
(0.0999883 -3.74622e-05 0)
(0.0999851 -4.88912e-05 0)
(0.100002 -3.46513e-07 0)
(0.100002 -1.12586e-06 0)
(0.100002 -1.9431e-06 0)
(0.100002 -2.81199e-06 0)
(0.100002 -3.70403e-06 0)
(0.100001 -4.6498e-06 0)
(0.100001 -5.57635e-06 0)
(0.100001 -6.58588e-06 0)
(0.0999999 -7.58082e-06 0)
(0.099999 -8.85142e-06 0)
(0.0999982 -1.01559e-05 0)
(0.099997 -1.22047e-05 0)
(0.0999959 -1.4225e-05 0)
(0.0999942 -1.76823e-05 0)
(0.0999928 -2.04295e-05 0)
(0.0999904 -2.55955e-05 0)
(0.0999888 -2.83544e-05 0)
(0.0999854 -3.5769e-05 0)
(0.0999842 -3.74121e-05 0)
(0.0999792 -4.91426e-05 0)
(0.100003 -3.02299e-07 0)
(0.100003 -9.95424e-07 0)
(0.100003 -1.68373e-06 0)
(0.100003 -2.34261e-06 0)
(0.100002 -2.93634e-06 0)
(0.100002 -3.50456e-06 0)
(0.100001 -3.99993e-06 0)
(0.1 -4.54401e-06 0)
(0.0999995 -5.06451e-06 0)
(0.0999985 -5.86082e-06 0)
(0.0999975 -6.7047e-06 0)
(0.0999961 -8.2994e-06 0)
(0.0999947 -9.88186e-06 0)
(0.0999927 -1.28755e-05 0)
(0.0999907 -1.51531e-05 0)
(0.0999877 -1.97829e-05 0)
(0.0999854 -2.2021e-05 0)
(0.099981 -2.88623e-05 0)
(0.099979 -3.00681e-05 0)
(0.0999731 -4.13448e-05 0)
(0.100004 -2.9168e-07 0)
(0.100004 -1.01343e-06 0)
(0.100004 -1.8448e-06 0)
(0.100004 -2.76605e-06 0)
(0.100003 -3.72454e-06 0)
(0.100003 -4.73273e-06 0)
(0.100002 -5.7186e-06 0)
(0.100001 -6.77512e-06 0)
(0.1 -7.80128e-06 0)
(0.0999992 -9.06976e-06 0)
(0.0999979 -1.03139e-05 0)
(0.0999962 -1.21996e-05 0)
(0.0999945 -1.39652e-05 0)
(0.0999919 -1.70243e-05 0)
(0.0999897 -1.93211e-05 0)
(0.0999858 -2.39452e-05 0)
(0.0999833 -2.62335e-05 0)
(0.0999775 -3.3246e-05 0)
(0.0999757 -3.46457e-05 0)
(0.099967 -4.63506e-05 0)
(0.100004 -2.08845e-08 0)
(0.100004 -1.56523e-07 0)
(0.100004 -2.56948e-07 0)
(0.100004 -3.07472e-07 0)
(0.100003 -3.10191e-07 0)
(0.100002 -3.27735e-07 0)
(0.100002 -3.2248e-07 0)
(0.100001 -3.86183e-07 0)
(0.0999994 -4.07301e-07 0)
(0.0999981 -6.64442e-07 0)
(0.0999967 -9.02054e-07 0)
(0.0999948 -1.75415e-06 0)
(0.0999929 -2.4631e-06 0)
(0.0999901 -4.39089e-06 0)
(0.0999875 -5.55861e-06 0)
(0.0999831 -8.98553e-06 0)
(0.0999799 -1.01627e-05 0)
(0.0999734 -1.60216e-05 0)
(0.0999705 -1.6537e-05 0)
(0.0999612 -2.75222e-05 0)
(0.100005 -3.98982e-07 0)
(0.100005 -1.39178e-06 0)
(0.100005 -2.50254e-06 0)
(0.100005 -3.64987e-06 0)
(0.100005 -4.75692e-06 0)
(0.100004 -5.83778e-06 0)
(0.100003 -6.86117e-06 0)
(0.100002 -7.93531e-06 0)
(0.100001 -8.94247e-06 0)
(0.0999997 -1.01455e-05 0)
(0.0999982 -1.12889e-05 0)
(0.099996 -1.29632e-05 0)
(0.099994 -1.44328e-05 0)
(0.0999905 -1.69814e-05 0)
(0.0999878 -1.86974e-05 0)
(0.0999824 -2.2517e-05 0)
(0.0999792 -2.40445e-05 0)
(0.0999705 -3.01631e-05 0)
(0.099968 -3.0908e-05 0)
(0.0999541 -4.20912e-05 0)
(0.100006 4.0832e-07 0)
(0.100005 1.23227e-06 0)
(0.100005 2.03636e-06 0)
(0.100004 2.7922e-06 0)
(0.100004 3.49152e-06 0)
(0.100003 4.08731e-06 0)
(0.100002 4.68348e-06 0)
(0.100001 5.216e-06 0)
(0.1 5.75099e-06 0)
(0.0999984 6.16753e-06 0)
(0.0999968 6.67434e-06 0)
(0.0999946 6.87206e-06 0)
(0.0999924 7.30603e-06 0)
(0.0999889 7.00144e-06 0)
(0.099986 7.37427e-06 0)
(0.0999802 6.07255e-06 0)
(0.0999765 6.56377e-06 0)
(0.0999673 3.02198e-06 0)
(0.0999639 3.80758e-06 0)
(0.0999497 -5.50518e-06 0)
(0.100007 -8.86104e-07 0)
(0.100007 -2.4574e-06 0)
(0.100007 -3.76286e-06 0)
(0.100007 -4.89549e-06 0)
(0.100006 -5.94029e-06 0)
(0.100005 -7.00588e-06 0)
(0.100005 -8.00262e-06 0)
(0.100003 -9.0129e-06 0)
(0.100002 -9.98868e-06 0)
(0.100001 -1.10838e-05 0)
(0.099999 -1.20964e-05 0)
(0.0999964 -1.34516e-05 0)
(0.0999945 -1.45511e-05 0)
(0.0999902 -1.63553e-05 0)
(0.0999878 -1.73494e-05 0)
(0.0999806 -1.98643e-05 0)
(0.099978 -2.03217e-05 0)
(0.0999652 -2.44854e-05 0)
(0.0999635 -2.39913e-05 0)
(0.0999399 -3.30793e-05 0)
)
;

boundaryField
{
    sides
    {
        type            calculated;
        value           nonuniform List<vector> 
40
(
(0.100007 0 0)
(0.100007 0 0)
(0.100007 0 0)
(0.100007 0 0)
(0.100006 0 0)
(0.100005 0 0)
(0.100005 0 0)
(0.100003 0 0)
(0.100002 0 0)
(0.100001 0 0)
(0.099999 0 0)
(0.0999964 0 0)
(0.0999945 0 0)
(0.0999902 0 0)
(0.0999878 0 0)
(0.0999806 0 0)
(0.099978 0 0)
(0.0999652 0 0)
(0.0999635 0 0)
(0.0999399 0 0)
(0.0999932 0 0)
(0.0999929 0 0)
(0.0999929 0 0)
(0.0999932 0 0)
(0.0999938 0 0)
(0.0999945 0 0)
(0.0999954 0 0)
(0.0999966 0 0)
(0.0999977 0 0)
(0.0999995 0 0)
(0.100001 0 0)
(0.100004 0 0)
(0.100006 0 0)
(0.10001 0 0)
(0.100012 0 0)
(0.100019 0 0)
(0.100022 0 0)
(0.100035 0 0)
(0.100036 0 0)
(0.10006 0 0)
)
;
    }
    inlet
    {
        type            calculated;
        value           nonuniform List<vector> 
20
(
(0.0999932 0 0)
(0.0999943 0 0)
(0.0999948 0 0)
(0.0999956 0 0)
(0.0999963 0 0)
(0.099997 0 0)
(0.0999977 0 0)
(0.0999983 0 0)
(0.099999 0 0)
(0.0999997 0 0)
(0.1 0 0)
(0.100001 0 0)
(0.100002 0 0)
(0.100002 0 0)
(0.100003 0 0)
(0.100004 0 0)
(0.100004 0 0)
(0.100005 0 0)
(0.100006 0 0)
(0.100007 0 0)
)
;
    }
    outlet
    {
        type            calculated;
        value           nonuniform List<vector> 
20
(
(0.100061 -3.30667e-05 0)
(0.100051 -5.51793e-06 0)
(0.100046 -4.20989e-05 0)
(0.100039 -2.75296e-05 0)
(0.100033 -4.63672e-05 0)
(0.100027 -4.13476e-05 0)
(0.100021 -4.91565e-05 0)
(0.100015 -4.88916e-05 0)
(0.100009 -5.1157e-05 0)
(0.100003 -5.15847e-05 0)
(0.099997 -5.1585e-05 0)
(0.0999911 -5.11521e-05 0)
(0.099985 -4.88911e-05 0)
(0.0999791 -4.91425e-05 0)
(0.0999729 -4.13447e-05 0)
(0.0999667 -4.63505e-05 0)
(0.0999609 -2.75221e-05 0)
(0.0999536 -4.2091e-05 0)
(0.0999492 -5.50516e-06 0)
(0.0999391 -3.3079e-05 0)
)
;
    }
    frontAndBack
    {
        type            empty;
    }
}


// ************************************************************************* //
