/*--------------------------------*- C++ -*----------------------------------*\
  =========                 |
  \\      /  F ield         | OpenFOAM: The Open Source CFD Toolbox
   \\    /   O peration     | Website:  https://openfoam.org
    \\  /    A nd           | Version:  7
     \\/     M anipulation  |
\*---------------------------------------------------------------------------*/
FoamFile
{
    version     2.0;
    format      ascii;
    class       volVectorField;
    location    "23";
    object      ddt0(hU);
}
// * * * * * * * * * * * * * * * * * * * * * * * * * * * * * * * * * * * * * //

dimensions      [0 2 -2 0 0 0 0];

internalField   nonuniform List<vector> 
400
(
(-5.44637e-10 -8.98897e-10 0)
(-3.30514e-09 -2.37895e-09 0)
(1.62545e-09 -2.13662e-09 0)
(7.65447e-09 -2.1983e-09 0)
(9.0818e-09 -2.01858e-10 0)
(7.26429e-09 2.95856e-09 0)
(5.58027e-09 6.64394e-09 0)
(3.01329e-09 7.89129e-09 0)
(-3.85099e-09 5.88967e-09 0)
(-1.05629e-08 2.63818e-09 0)
(-1.38552e-08 -8.82049e-10 0)
(-1.3547e-08 -3.63451e-09 0)
(-1.17285e-08 -5.58871e-09 0)
(-7.61106e-09 -5.78876e-09 0)
(-4.85454e-09 -4.56528e-09 0)
(-6.72009e-10 -2.79472e-09 0)
(1.73114e-10 7.26594e-10 0)
(-1.51198e-09 1.47042e-09 0)
(-1.41637e-09 6.06634e-09 0)
(-1.42704e-08 6.27797e-09 0)
(-2.93553e-10 -5.16912e-09 0)
(-2.81982e-09 -1.10695e-08 0)
(1.34425e-09 -9.44113e-09 0)
(6.37428e-09 -9.48589e-09 0)
(7.64639e-09 -8.02393e-09 0)
(6.9162e-09 -5.94042e-09 0)
(6.92265e-09 -3.68907e-09 0)
(2.66498e-09 -1.0475e-09 0)
(-4.72981e-09 7.71013e-10 0)
(-1.25574e-08 5.66357e-10 0)
(-1.64932e-08 -1.64865e-09 0)
(-1.59961e-08 -4.0956e-09 0)
(-1.3273e-08 -6.14918e-09 0)
(-7.7565e-09 -6.32175e-09 0)
(-4.00495e-09 -5.12006e-09 0)
(8.07985e-10 -4.53032e-09 0)
(1.8941e-09 -5.73135e-10 0)
(-3.2996e-10 -5.85411e-10 0)
(-6.83675e-10 4.90914e-09 0)
(-1.39329e-08 8.75871e-09 0)
(-5.18662e-10 -4.91581e-09 0)
(-3.60571e-09 -8.3688e-09 0)
(2.21403e-10 -6.91312e-09 0)
(7.64651e-09 -6.14555e-09 0)
(1.03195e-08 -5.71736e-09 0)
(6.24529e-09 -1.76248e-09 0)
(2.82416e-09 6.1939e-09 0)
(1.29359e-09 1.1182e-08 0)
(-2.79691e-09 1.11145e-08 0)
(-7.41931e-09 6.5995e-09 0)
(-9.46811e-09 -1.36028e-09 0)
(-9.1954e-09 -8.58618e-09 0)
(-8.37261e-09 -1.38765e-08 0)
(-5.86227e-09 -1.44961e-08 0)
(-4.29923e-09 -1.17587e-08 0)
(-1.38431e-09 -9.26133e-09 0)
(-1.07032e-09 -4.75127e-10 0)
(-2.7964e-09 7.60068e-10 0)
(-2.36729e-09 1.29547e-08 0)
(-1.2999e-08 1.79287e-08 0)
(2.2392e-09 -5.99306e-09 0)
(3.57098e-09 -1.56148e-08 0)
(3.7156e-09 -1.92786e-08 0)
(4.94343e-09 -1.92754e-08 0)
(2.79354e-09 -1.62137e-08 0)
(5.31134e-09 -6.16866e-09 0)
(7.76663e-09 5.61197e-09 0)
(2.78532e-09 1.29115e-08 0)
(-5.8054e-09 1.3037e-08 0)
(-1.35125e-08 7.45377e-09 0)
(-1.68966e-08 -2.41799e-09 0)
(-1.55302e-08 -1.14958e-08 0)
(-1.20223e-08 -1.8474e-08 0)
(-6.41057e-09 -1.96201e-08 0)
(-2.69641e-09 -1.63121e-08 0)
(1.94803e-09 -1.33917e-08 0)
(2.59579e-09 -2.02045e-09 0)
(6.52783e-10 -5.26366e-10 0)
(1.82343e-14 1.63137e-08 0)
(-1.30606e-08 2.39557e-08 0)
(-2.54401e-09 -8.66922e-09 0)
(-5.24709e-09 -1.9416e-08 0)
(3.15743e-11 -2.24139e-08 0)
(8.15217e-09 -2.21588e-08 0)
(1.09131e-08 -1.7247e-08 0)
(7.11055e-09 -7.37741e-09 0)
(4.14684e-09 4.90582e-09 0)
(2.26332e-09 1.30736e-08 0)
(-1.13883e-09 1.45048e-08 0)
(-4.73651e-09 8.83023e-09 0)
(-6.74332e-09 -2.76747e-09 0)
(-6.98886e-09 -1.38521e-08 0)
(-6.71479e-09 -2.26047e-08 0)
(-5.16745e-09 -2.43985e-08 0)
(-4.48575e-09 -2.07196e-08 0)
(-2.87758e-09 -1.74155e-08 0)
(-2.7945e-09 -3.57555e-09 0)
(-4.25171e-09 -1.29989e-09 0)
(-3.12524e-09 1.94856e-08 0)
(-1.06137e-08 2.91701e-08 0)
(2.24912e-09 -6.34998e-09 0)
(1.44775e-09 -1.34589e-08 0)
(-1.18086e-09 -1.67738e-08 0)
(2.85426e-09 -1.66197e-08 0)
(4.11336e-09 -1.16101e-08 0)
(6.96267e-09 -7.72766e-10 0)
(6.4916e-09 1.24801e-08 0)
(-3.58013e-11 2.2156e-08 0)
(-6.69419e-09 2.2666e-08 0)
(-1.15812e-08 1.40503e-08 0)
(-1.30827e-08 -1.76286e-09 0)
(-1.13825e-08 -1.64344e-08 0)
(-8.49204e-09 -2.78314e-08 0)
(-4.2267e-09 -3.03901e-08 0)
(-1.43037e-09 -2.59835e-08 0)
(1.91582e-09 -2.1583e-08 0)
(1.9566e-09 -4.22366e-09 0)
(1.9589e-10 -8.67642e-10 0)
(-1.06118e-09 2.48117e-08 0)
(-1.15207e-08 3.55295e-08 0)
(7.02869e-11 -5.085e-09 0)
(-1.61067e-09 -1.5361e-08 0)
(7.69097e-10 -2.26021e-08 0)
(4.82519e-09 -2.50599e-08 0)
(5.87832e-09 -1.98968e-08 0)
(2.04749e-09 -5.83177e-09 0)
(1.20378e-09 6.45195e-09 0)
(1.96534e-09 1.6634e-08 0)
(-2.39595e-10 1.91622e-08 0)
(-3.60003e-09 1.21814e-08 0)
(-5.7196e-09 -2.92409e-09 0)
(-5.93189e-09 -1.76982e-08 0)
(-5.65546e-09 -2.96889e-08 0)
(-4.61792e-09 -3.26063e-08 0)
(-4.03829e-09 -2.81653e-08 0)
(-2.59293e-09 -2.42066e-08 0)
(-2.20405e-09 -6.25873e-09 0)
(-3.09077e-09 -3.05315e-09 0)
(-2.67832e-09 2.45555e-08 0)
(-8.4464e-09 3.79065e-08 0)
(4.74415e-10 -2.82523e-09 0)
(-2.41041e-11 -9.97915e-09 0)
(-2.8301e-10 -1.73498e-08 0)
(2.69679e-09 -2.05455e-08 0)
(5.41224e-09 -1.42344e-08 0)
(3.88854e-09 -1.63871e-09 0)
(1.30763e-09 1.55128e-08 0)
(5.88982e-10 2.63323e-08 0)
(-1.7071e-09 2.63302e-08 0)
(-4.62425e-09 1.53499e-08 0)
(-6.25874e-09 -4.0152e-09 0)
(-6.22371e-09 -2.19471e-08 0)
(-5.30069e-09 -3.59692e-08 0)
(-3.27087e-09 -3.90162e-08 0)
(-1.91426e-09 -3.32086e-08 0)
(8.09144e-11 -2.72929e-08 0)
(5.5561e-10 -6.19857e-09 0)
(-8.76827e-11 -2.14863e-09 0)
(-6.20767e-10 2.90758e-08 0)
(-7.17335e-09 4.24988e-08 0)
(6.05018e-10 -5.02772e-10 0)
(-8.77081e-11 -7.72672e-09 0)
(-1.72783e-10 -1.69885e-08 0)
(2.0059e-09 -2.01829e-08 0)
(2.45129e-09 -1.41425e-08 0)
(1.85945e-09 -2.08786e-09 0)
(1.80463e-09 1.38884e-08 0)
(1.22896e-09 2.52029e-08 0)
(-3.47395e-10 2.59088e-08 0)
(-2.18293e-09 1.54743e-08 0)
(-2.91057e-09 -3.78003e-09 0)
(-2.88993e-09 -2.16896e-08 0)
(-2.71214e-09 -3.58267e-08 0)
(-1.91407e-09 -3.93486e-08 0)
(-1.3208e-09 -3.41101e-08 0)
(-7.9334e-10 -2.91129e-08 0)
(-1.03461e-09 -8.25402e-09 0)
(-1.77771e-09 -4.55931e-09 0)
(-2.0117e-09 2.77501e-08 0)
(-4.37288e-09 4.34452e-08 0)
(2.33599e-10 7.9784e-10 0)
(-3.11143e-10 -5.58116e-09 0)
(-1.74792e-10 -1.58546e-08 0)
(5.55627e-10 -1.94704e-08 0)
(8.65998e-10 -1.34754e-08 0)
(5.8718e-10 5.98396e-10 0)
(4.95505e-10 1.64435e-08 0)
(6.78299e-10 2.73605e-08 0)
(2.6445e-10 2.70917e-08 0)
(-7.4693e-10 1.56897e-08 0)
(-1.05996e-09 -4.68918e-09 0)
(-1.05436e-09 -2.39396e-08 0)
(-1.47858e-09 -3.88582e-08 0)
(-1.53509e-09 -4.19868e-08 0)
(-1.18003e-09 -3.58252e-08 0)
(-2.4659e-10 -2.99077e-08 0)
(3.27385e-10 -7.96512e-09 0)
(4.87895e-10 -3.93102e-09 0)
(6.99149e-10 2.97139e-08 0)
(-1.21011e-09 4.51197e-08 0)
(-2.27356e-10 7.99058e-10 0)
(3.09516e-10 -5.58299e-09 0)
(1.71893e-10 -1.58522e-08 0)
(-5.50564e-10 -1.94692e-08 0)
(-8.53154e-10 -1.34754e-08 0)
(-5.70571e-10 5.97114e-10 0)
(-4.81436e-10 1.64418e-08 0)
(-6.68688e-10 2.73597e-08 0)
(-2.52553e-10 2.70927e-08 0)
(7.64701e-10 1.56912e-08 0)
(1.07909e-09 -4.68684e-09 0)
(1.07205e-09 -2.39365e-08 0)
(1.49169e-09 -3.88554e-08 0)
(1.54544e-09 -4.19848e-08 0)
(1.18977e-09 -3.58254e-08 0)
(2.51214e-10 -2.99074e-08 0)
(-3.25017e-10 -7.96631e-09 0)
(-4.97924e-10 -3.93305e-09 0)
(-7.19585e-10 2.9713e-08 0)
(1.19179e-09 4.51167e-08 0)
(-6.06343e-10 -4.98134e-10 0)
(1.00958e-10 -7.72394e-09 0)
(1.78186e-10 -1.69916e-08 0)
(-2.00356e-09 -2.01846e-08 0)
(-2.44327e-09 -1.41453e-08 0)
(-1.84728e-09 -2.08914e-09 0)
(-1.79072e-09 1.38885e-08 0)
(-1.21498e-09 2.52045e-08 0)
(3.62516e-10 2.59115e-08 0)
(2.20028e-09 1.54757e-08 0)
(2.92858e-09 -3.77759e-09 0)
(2.90754e-09 -2.16859e-08 0)
(2.7255e-09 -3.58228e-08 0)
(1.92467e-09 -3.93434e-08 0)
(1.32939e-09 -3.41097e-08 0)
(7.949e-10 -2.91064e-08 0)
(1.03388e-09 -8.25087e-09 0)
(1.76643e-09 -4.55201e-09 0)
(1.99648e-09 2.77605e-08 0)
(4.35956e-09 4.34303e-08 0)
(-4.7094e-10 -2.82145e-09 0)
(1.78127e-11 -9.97162e-09 0)
(2.86564e-10 -1.73493e-08 0)
(-2.68835e-09 -2.05498e-08 0)
(-5.40461e-09 -1.4235e-08 0)
(-3.87367e-09 -1.63827e-09 0)
(-1.2902e-09 1.55135e-08 0)
(-5.72336e-10 2.63333e-08 0)
(1.72171e-09 2.63318e-08 0)
(4.63837e-09 1.53516e-08 0)
(6.27159e-09 -4.01068e-09 0)
(6.23696e-09 -2.19413e-08 0)
(5.31287e-09 -3.59653e-08 0)
(3.28203e-09 -3.90116e-08 0)
(1.92403e-09 -3.32107e-08 0)
(-7.69518e-11 -2.72851e-08 0)
(-5.51928e-10 -6.19261e-09 0)
(8.05976e-11 -2.13912e-09 0)
(6.07763e-10 2.90958e-08 0)
(7.16003e-09 4.24842e-08 0)
(-6.9255e-11 -5.07619e-09 0)
(1.62434e-09 -1.53531e-08 0)
(-7.65551e-10 -2.26001e-08 0)
(-4.81924e-09 -2.5071e-08 0)
(-5.87228e-09 -1.99007e-08 0)
(-2.04295e-09 -5.83139e-09 0)
(-1.19389e-09 6.45474e-09 0)
(-1.95022e-09 1.6636e-08 0)
(2.57677e-10 1.91627e-08 0)
(3.61822e-09 1.21813e-08 0)
(5.73444e-09 -2.91747e-09 0)
(5.94612e-09 -1.76864e-08 0)
(5.6684e-09 -2.96768e-08 0)
(4.63013e-09 -3.2596e-08 0)
(4.04776e-09 -2.81674e-08 0)
(2.59406e-09 -2.41989e-08 0)
(2.20395e-09 -6.26053e-09 0)
(3.08051e-09 -3.0479e-09 0)
(2.66852e-09 2.45623e-08 0)
(8.4365e-09 3.78721e-08 0)
(-2.24628e-09 -6.33918e-09 0)
(-1.45951e-09 -1.34432e-08 0)
(1.1742e-09 -1.6767e-08 0)
(-2.84651e-09 -1.6615e-08 0)
(-4.09746e-09 -1.16091e-08 0)
(-6.9496e-09 -7.65082e-10 0)
(-6.47736e-09 1.249e-08 0)
(4.92966e-11 2.21624e-08 0)
(6.70698e-09 2.26678e-08 0)
(1.1594e-08 1.40487e-08 0)
(1.30924e-08 -1.76055e-09 0)
(1.13912e-08 -1.64291e-08 0)
(8.49849e-09 -2.78298e-08 0)
(4.23328e-09 -3.03876e-08 0)
(1.43597e-09 -2.59904e-08 0)
(-1.91477e-09 -2.15732e-08 0)
(-1.94979e-09 -4.21478e-09 0)
(-1.97e-10 -8.54672e-10 0)
(1.06773e-09 2.48448e-08 0)
(1.15219e-08 3.55104e-08 0)
(2.54448e-09 -8.65604e-09 0)
(5.26399e-09 -1.93937e-08 0)
(-1.35688e-11 -2.24069e-08 0)
(-8.15094e-09 -2.21554e-08 0)
(-1.09144e-08 -1.7251e-08 0)
(-7.11016e-09 -7.37948e-09 0)
(-4.14735e-09 4.90673e-09 0)
(-2.26145e-09 1.30761e-08 0)
(1.1451e-09 1.45084e-08 0)
(4.74948e-09 8.83264e-09 0)
(6.75723e-09 -2.75928e-09 0)
(7.00199e-09 -1.38398e-08 0)
(6.72602e-09 -2.25926e-08 0)
(5.17916e-09 -2.43896e-08 0)
(4.49725e-09 -2.0726e-08 0)
(2.88278e-09 -1.741e-08 0)
(2.80043e-09 -3.58201e-09 0)
(4.24745e-09 -1.29795e-09 0)
(3.12225e-09 1.94889e-08 0)
(1.06086e-08 2.91281e-08 0)
(-2.23335e-09 -5.98484e-09 0)
(-3.5721e-09 -1.561e-08 0)
(-3.73161e-09 -1.92865e-08 0)
(-4.9566e-09 -1.929e-08 0)
(-2.79228e-09 -1.622e-08 0)
(-5.30068e-09 -6.16794e-09 0)
(-7.75626e-09 5.62126e-09 0)
(-2.7754e-09 1.29179e-08 0)
(5.81348e-09 1.30401e-08 0)
(1.352e-08 7.45378e-09 0)
(1.69026e-08 -2.41563e-09 0)
(1.55373e-08 -1.14922e-08 0)
(1.20268e-08 -1.84743e-08 0)
(6.41665e-09 -1.96188e-08 0)
(2.70177e-09 -1.6318e-08 0)
(-1.9461e-09 -1.33774e-08 0)
(-2.58261e-09 -2.00986e-09 0)
(-6.48872e-10 -5.13349e-10 0)
(2.62397e-11 1.63435e-08 0)
(1.3078e-08 2.39315e-08 0)
(5.15732e-10 -4.91583e-09 0)
(3.60996e-09 -8.37419e-09 0)
(-2.12953e-10 -6.91852e-09 0)
(-7.64279e-09 -6.15108e-09 0)
(-1.03202e-08 -5.72049e-09 0)
(-6.24088e-09 -1.76926e-09 0)
(-2.81774e-09 6.19059e-09 0)
(-1.29095e-09 1.11825e-08 0)
(2.80316e-09 1.11172e-08 0)
(7.42867e-09 6.60677e-09 0)
(9.47851e-09 -1.34966e-09 0)
(9.20693e-09 -8.57596e-09 0)
(8.38167e-09 -1.38696e-08 0)
(5.86996e-09 -1.44925e-08 0)
(4.30597e-09 -1.17655e-08 0)
(1.38685e-09 -9.25977e-09 0)
(1.07832e-09 -4.81642e-10 0)
(2.79684e-09 7.58131e-10 0)
(2.38094e-09 1.2957e-08 0)
(1.30077e-08 1.79012e-08 0)
(2.92231e-10 -5.16218e-09 0)
(2.82143e-09 -1.10642e-08 0)
(-1.33856e-09 -9.43972e-09 0)
(-6.37271e-09 -9.48662e-09 0)
(-7.64655e-09 -8.02499e-09 0)
(-6.91586e-09 -5.93198e-09 0)
(-6.91894e-09 -3.68532e-09 0)
(-2.68026e-09 -1.04494e-09 0)
(4.73671e-09 7.72293e-10 0)
(1.25665e-08 5.63827e-10 0)
(1.64978e-08 -1.6481e-09 0)
(1.60036e-08 -4.09448e-09 0)
(1.32812e-08 -6.14838e-09 0)
(7.77027e-09 -6.31882e-09 0)
(4.01847e-09 -5.12095e-09 0)
(-7.97542e-10 -4.51631e-09 0)
(-1.87474e-09 -5.65744e-10 0)
(3.40919e-10 -5.76386e-10 0)
(7.13413e-10 4.9227e-09 0)
(1.39428e-08 8.73635e-09 0)
(5.41392e-10 -8.9518e-10 0)
(3.30846e-09 -2.37662e-09 0)
(-1.61946e-09 -2.1341e-09 0)
(-7.65635e-09 -2.19646e-09 0)
(-9.08375e-09 -2.02826e-10 0)
(-7.26177e-09 2.96373e-09 0)
(-5.57678e-09 6.64443e-09 0)
(-2.98434e-09 7.89331e-09 0)
(3.86108e-09 5.89668e-09 0)
(1.0572e-08 2.64159e-09 0)
(1.38617e-08 -8.78648e-10 0)
(1.35524e-08 -3.63166e-09 0)
(1.17305e-08 -5.58947e-09 0)
(7.61328e-09 -5.79046e-09 0)
(4.85485e-09 -4.56899e-09 0)
(6.69585e-10 -2.7937e-09 0)
(-1.58533e-10 7.27698e-10 0)
(1.51812e-09 1.4688e-09 0)
(1.44964e-09 6.079e-09 0)
(1.42969e-08 6.28237e-09 0)
)
;

boundaryField
{
    sides
    {
        type            calculated;
        value           nonuniform List<vector> 
40
(
(5.41392e-10 0 0)
(3.30846e-09 0 0)
(-1.61946e-09 0 0)
(-7.65635e-09 0 0)
(-9.08375e-09 0 0)
(-7.26177e-09 0 0)
(-5.57678e-09 0 0)
(-2.98434e-09 0 0)
(3.86108e-09 0 0)
(1.0572e-08 0 0)
(1.38617e-08 0 0)
(1.35524e-08 0 0)
(1.17305e-08 0 0)
(7.61328e-09 0 0)
(4.85485e-09 0 0)
(6.69585e-10 0 0)
(-1.58533e-10 0 0)
(1.51812e-09 0 0)
(1.44964e-09 0 0)
(1.42969e-08 0 0)
(-5.44637e-10 0 0)
(-3.30514e-09 0 0)
(1.62545e-09 0 0)
(7.65447e-09 0 0)
(9.0818e-09 0 0)
(7.26429e-09 0 0)
(5.58027e-09 0 0)
(3.01329e-09 0 0)
(-3.85099e-09 0 0)
(-1.05629e-08 0 0)
(-1.38552e-08 0 0)
(-1.3547e-08 0 0)
(-1.17285e-08 0 0)
(-7.61106e-09 0 0)
(-4.85454e-09 0 0)
(-6.72009e-10 0 0)
(1.73114e-10 0 0)
(-1.51198e-09 0 0)
(-1.41637e-09 0 0)
(-1.42704e-08 0 0)
)
;
    }
    inlet
    {
        type            calculated;
        value           uniform (0 0 0);
    }
    outlet
    {
        type            calculated;
        value           nonuniform List<vector> 
20
(
(-1.42704e-08 6.27797e-09 0)
(-1.39329e-08 8.75871e-09 0)
(-1.2999e-08 1.79287e-08 0)
(-1.30606e-08 2.39557e-08 0)
(-1.06137e-08 2.91701e-08 0)
(-1.15207e-08 3.55295e-08 0)
(-8.4464e-09 3.79065e-08 0)
(-7.17335e-09 4.24988e-08 0)
(-4.37288e-09 4.34452e-08 0)
(-1.21011e-09 4.51197e-08 0)
(1.19179e-09 4.51167e-08 0)
(4.35956e-09 4.34303e-08 0)
(7.16003e-09 4.24842e-08 0)
(8.4365e-09 3.78721e-08 0)
(1.15219e-08 3.55104e-08 0)
(1.06086e-08 2.91281e-08 0)
(1.3078e-08 2.39315e-08 0)
(1.30077e-08 1.79012e-08 0)
(1.39428e-08 8.73635e-09 0)
(1.42969e-08 6.28237e-09 0)
)
;
    }
    frontAndBack
    {
        type            empty;
    }
}


// ************************************************************************* //
