/*--------------------------------*- C++ -*----------------------------------*\
  =========                 |
  \\      /  F ield         | OpenFOAM: The Open Source CFD Toolbox
   \\    /   O peration     | Website:  https://openfoam.org
    \\  /    A nd           | Version:  7
     \\/     M anipulation  |
\*---------------------------------------------------------------------------*/
FoamFile
{
    version     2.0;
    format      ascii;
    class       volVectorField;
    location    "23";
    object      hU;
}
// * * * * * * * * * * * * * * * * * * * * * * * * * * * * * * * * * * * * * //

dimensions      [0 2 -1 0 0 0 0];

internalField   nonuniform List<vector> 
400
(
(0.000999998 -9.00773e-09 0)
(0.001 -2.31883e-08 0)
(0.00100001 -3.36622e-08 0)
(0.00100001 -4.17788e-08 0)
(0.00100001 -4.92451e-08 0)
(0.00100001 -5.83525e-08 0)
(0.00100002 -6.96335e-08 0)
(0.00100003 -8.43814e-08 0)
(0.00100003 -9.94271e-08 0)
(0.00100005 -1.14423e-07 0)
(0.00100007 -1.26204e-07 0)
(0.0010001 -1.38925e-07 0)
(0.00100012 -1.47385e-07 0)
(0.00100017 -1.61139e-07 0)
(0.00100019 -1.67682e-07 0)
(0.00100025 -1.89387e-07 0)
(0.00100026 -1.93612e-07 0)
(0.00100038 -2.36541e-07 0)
(0.00100037 -2.33284e-07 0)
(0.0010006 -3.31812e-07 0)
(0.000999999 2.72536e-09 0)
(0.00100001 1.19102e-08 0)
(0.00100002 2.12559e-08 0)
(0.00100002 2.9325e-08 0)
(0.00100002 3.71058e-08 0)
(0.00100002 4.39133e-08 0)
(0.00100003 5.01869e-08 0)
(0.00100003 5.52321e-08 0)
(0.00100004 5.90351e-08 0)
(0.00100006 6.05003e-08 0)
(0.00100008 6.33184e-08 0)
(0.00100011 6.46677e-08 0)
(0.00100014 6.9813e-08 0)
(0.00100017 6.98498e-08 0)
(0.0010002 7.59742e-08 0)
(0.00100025 6.67017e-08 0)
(0.00100027 7.36696e-08 0)
(0.00100035 3.79741e-08 0)
(0.00100036 4.79165e-08 0)
(0.0010005 -5.39391e-08 0)
(0.000999998 -4.64727e-09 0)
(0.001 -1.05574e-08 0)
(0.001 -1.61587e-08 0)
(0.001 -2.23288e-08 0)
(0.001 -2.88133e-08 0)
(0.00100001 -3.73051e-08 0)
(0.00100001 -5.04036e-08 0)
(0.00100002 -6.84657e-08 0)
(0.00100003 -8.73741e-08 0)
(0.00100005 -1.07766e-07 0)
(0.00100007 -1.24198e-07 0)
(0.00100009 -1.40777e-07 0)
(0.00100011 -1.51173e-07 0)
(0.00100014 -1.67497e-07 0)
(0.00100017 -1.7761e-07 0)
(0.00100022 -2.07163e-07 0)
(0.00100024 -2.19586e-07 0)
(0.00100031 -2.82649e-07 0)
(0.00100032 -2.89901e-07 0)
(0.00100045 -4.21521e-07 0)
(0.000999999 -1.18262e-09 0)
(0.00100001 2.24467e-09 0)
(0.00100001 7.76866e-09 0)
(0.00100002 1.41601e-08 0)
(0.00100002 2.05777e-08 0)
(0.00100002 2.35687e-08 0)
(0.00100002 2.14428e-08 0)
(0.00100002 1.23393e-08 0)
(0.00100003 7.37278e-10 0)
(0.00100005 -1.28093e-08 0)
(0.00100007 -2.19386e-08 0)
(0.0010001 -3.07673e-08 0)
(0.00100012 -3.31436e-08 0)
(0.00100015 -4.12044e-08 0)
(0.00100017 -4.42467e-08 0)
(0.00100021 -6.73383e-08 0)
(0.00100023 -7.49636e-08 0)
(0.00100028 -1.3551e-07 0)
(0.00100029 -1.39276e-07 0)
(0.00100038 -2.74897e-07 0)
(0.000999999 -4.30491e-09 0)
(0.001 -6.99171e-09 0)
(0.001 -9.06429e-09 0)
(0.00100001 -1.18696e-08 0)
(0.00100001 -1.46347e-08 0)
(0.00100001 -2.06797e-08 0)
(0.00100002 -3.24282e-08 0)
(0.00100002 -5.11942e-08 0)
(0.00100003 -7.31713e-08 0)
(0.00100004 -9.8124e-08 0)
(0.00100006 -1.18595e-07 0)
(0.00100007 -1.38088e-07 0)
(0.00100009 -1.50347e-07 0)
(0.00100012 -1.67739e-07 0)
(0.00100014 -1.8055e-07 0)
(0.00100017 -2.13526e-07 0)
(0.00100019 -2.3127e-07 0)
(0.00100024 -3.03496e-07 0)
(0.00100024 -3.15091e-07 0)
(0.00100033 -4.62979e-07 0)
(0.001 -2.69369e-09 0)
(0.001 -2.56923e-09 0)
(0.00100001 5.48876e-10 0)
(0.00100001 5.27633e-09 0)
(0.00100001 9.42489e-09 0)
(0.00100001 7.97162e-09 0)
(0.00100001 -1.44595e-09 0)
(0.00100002 -2.06731e-08 0)
(0.00100002 -4.36284e-08 0)
(0.00100004 -6.85696e-08 0)
(0.00100005 -8.73339e-08 0)
(0.00100007 -1.03554e-07 0)
(0.00100009 -1.11799e-07 0)
(0.00100011 -1.24423e-07 0)
(0.00100012 -1.33918e-07 0)
(0.00100015 -1.63563e-07 0)
(0.00100016 -1.80223e-07 0)
(0.0010002 -2.51795e-07 0)
(0.0010002 -2.62531e-07 0)
(0.00100026 -4.13717e-07 0)
(0.000999999 -2.57666e-09 0)
(0.001 -4.38538e-09 0)
(0.001 -3.92438e-09 0)
(0.00100001 -2.45358e-09 0)
(0.00100001 -1.97062e-09 0)
(0.00100001 -6.85455e-09 0)
(0.00100001 -1.90299e-08 0)
(0.00100002 -4.00791e-08 0)
(0.00100002 -6.58666e-08 0)
(0.00100003 -9.52212e-08 0)
(0.00100004 -1.19356e-07 0)
(0.00100005 -1.41257e-07 0)
(0.00100006 -1.55103e-07 0)
(0.00100008 -1.73e-07 0)
(0.00100009 -1.87666e-07 0)
(0.00100011 -2.22253e-07 0)
(0.00100012 -2.43051e-07 0)
(0.00100016 -3.19684e-07 0)
(0.00100016 -3.32639e-07 0)
(0.00100021 -4.90298e-07 0)
(0.001 -1.95391e-09 0)
(0.001 -3.83432e-09 0)
(0.001 -2.43225e-09 0)
(0.001 1.12092e-09 0)
(0.00100001 4.06308e-09 0)
(0.00100001 9.48679e-10 0)
(0.00100001 -1.229e-08 0)
(0.00100001 -3.67417e-08 0)
(0.00100001 -6.58455e-08 0)
(0.00100002 -9.74691e-08 0)
(0.00100003 -1.22198e-07 0)
(0.00100004 -1.43036e-07 0)
(0.00100005 -1.54926e-07 0)
(0.00100006 -1.70135e-07 0)
(0.00100007 -1.8322e-07 0)
(0.00100008 -2.16136e-07 0)
(0.00100009 -2.37485e-07 0)
(0.00100011 -3.14711e-07 0)
(0.00100011 -3.28836e-07 0)
(0.00100014 -4.89302e-07 0)
(0.001 -1.38564e-09 0)
(0.001 -3.67347e-09 0)
(0.001 -2.44109e-09 0)
(0.001 1.3962e-09 0)
(0.001 3.87987e-09 0)
(0.001 -7.43369e-10 0)
(0.00100001 -1.41838e-08 0)
(0.00100001 -3.86018e-08 0)
(0.00100001 -6.8331e-08 0)
(0.00100001 -1.01257e-07 0)
(0.00100002 -1.27854e-07 0)
(0.00100002 -1.50993e-07 0)
(0.00100003 -1.65394e-07 0)
(0.00100004 -1.82996e-07 0)
(0.00100004 -1.98201e-07 0)
(0.00100005 -2.32895e-07 0)
(0.00100005 -2.55026e-07 0)
(0.00100007 -3.33603e-07 0)
(0.00100007 -3.47182e-07 0)
(0.00100009 -5.10364e-07 0)
(0.001 -1.12443e-09 0)
(0.001 -3.59888e-09 0)
(0.001 -2.43124e-09 0)
(0.001 1.61073e-09 0)
(0.001 4.43049e-09 0)
(0.001 3.49269e-10 0)
(0.001 -1.36803e-08 0)
(0.001 -3.92569e-08 0)
(0.001 -7.03446e-08 0)
(0.001 -1.04452e-07 0)
(0.00100001 -1.31695e-07 0)
(0.00100001 -1.54801e-07 0)
(0.00100001 -1.68683e-07 0)
(0.00100001 -1.85437e-07 0)
(0.00100001 -2.0026e-07 0)
(0.00100002 -2.34645e-07 0)
(0.00100002 -2.5748e-07 0)
(0.00100002 -3.36699e-07 0)
(0.00100002 -3.51328e-07 0)
(0.00100003 -5.15608e-07 0)
(0.001 -1.1241e-09 0)
(0.001 -3.59838e-09 0)
(0.000999999 -2.43155e-09 0)
(0.000999999 1.61019e-09 0)
(0.000999999 4.43026e-09 0)
(0.000999999 3.49174e-10 0)
(0.000999998 -1.36804e-08 0)
(0.000999998 -3.92564e-08 0)
(0.000999997 -7.03435e-08 0)
(0.000999996 -1.0445e-07 0)
(0.000999994 -1.31693e-07 0)
(0.000999992 -1.548e-07 0)
(0.00099999 -1.68683e-07 0)
(0.000999988 -1.85438e-07 0)
(0.000999986 -2.00261e-07 0)
(0.000999982 -2.34644e-07 0)
(0.000999981 -2.5748e-07 0)
(0.000999977 -3.36696e-07 0)
(0.000999977 -3.51326e-07 0)
(0.000999972 -5.15604e-07 0)
(0.001 -1.38543e-09 0)
(0.001 -3.67613e-09 0)
(0.000999998 -2.44468e-09 0)
(0.000999997 1.39394e-09 0)
(0.000999997 3.8791e-09 0)
(0.000999996 -7.42703e-10 0)
(0.000999995 -1.41836e-08 0)
(0.000999993 -3.86016e-08 0)
(0.000999991 -6.8331e-08 0)
(0.000999987 -1.01255e-07 0)
(0.000999982 -1.2785e-07 0)
(0.000999976 -1.50987e-07 0)
(0.000999971 -1.65387e-07 0)
(0.000999964 -1.82985e-07 0)
(0.000999959 -1.9819e-07 0)
(0.00099995 -2.32873e-07 0)
(0.000999946 -2.55013e-07 0)
(0.000999933 -3.33569e-07 0)
(0.000999931 -3.4717e-07 0)
(0.000999912 -5.10321e-07 0)
(0.001 -1.95389e-09 0)
(0.000999999 -3.83926e-09 0)
(0.000999997 -2.4389e-09 0)
(0.000999995 1.1168e-09 0)
(0.000999995 4.06122e-09 0)
(0.000999994 9.48178e-10 0)
(0.000999992 -1.2291e-08 0)
(0.00099999 -3.6743e-08 0)
(0.000999986 -6.58477e-08 0)
(0.000999979 -9.74708e-08 0)
(0.000999971 -1.22199e-07 0)
(0.00099996 -1.43038e-07 0)
(0.000999951 -1.54928e-07 0)
(0.000999939 -1.70134e-07 0)
(0.00099993 -1.8322e-07 0)
(0.000999916 -2.16127e-07 0)
(0.000999909 -2.37493e-07 0)
(0.000999889 -3.14703e-07 0)
(0.000999886 -3.28859e-07 0)
(0.000999856 -4.89313e-07 0)
(0.001 -2.57677e-09 0)
(0.000999999 -4.39094e-09 0)
(0.000999995 -3.9321e-09 0)
(0.000999994 -2.45867e-09 0)
(0.000999995 -1.97179e-09 0)
(0.000999992 -6.85237e-09 0)
(0.000999987 -1.90267e-08 0)
(0.000999983 -4.00737e-08 0)
(0.000999979 -6.58604e-08 0)
(0.000999971 -9.52095e-08 0)
(0.000999961 -1.19341e-07 0)
(0.000999948 -1.41238e-07 0)
(0.000999936 -1.55084e-07 0)
(0.00099992 -1.72975e-07 0)
(0.000999907 -1.87643e-07 0)
(0.000999886 -2.22206e-07 0)
(0.000999875 -2.43021e-07 0)
(0.000999845 -3.19604e-07 0)
(0.00099984 -3.32599e-07 0)
(0.000999795 -4.90181e-07 0)
(0.001 -2.69412e-09 0)
(0.000999998 -2.57484e-09 0)
(0.000999993 5.41147e-10 0)
(0.00099999 5.2701e-09 0)
(0.000999989 9.421e-09 0)
(0.000999988 7.96925e-09 0)
(0.000999987 -1.45117e-09 0)
(0.000999984 -2.06808e-08 0)
(0.000999976 -4.36384e-08 0)
(0.000999963 -6.85785e-08 0)
(0.000999948 -8.73408e-08 0)
(0.000999929 -1.03561e-07 0)
(0.000999912 -1.11804e-07 0)
(0.000999891 -1.24423e-07 0)
(0.000999876 -1.33919e-07 0)
(0.000999851 -1.63549e-07 0)
(0.000999839 -1.80235e-07 0)
(0.000999802 -2.51782e-07 0)
(0.000999795 -2.62565e-07 0)
(0.000999739 -4.13737e-07 0)
(0.001 -4.30494e-09 0)
(0.000999999 -6.99712e-09 0)
(0.000999995 -9.07187e-09 0)
(0.000999994 -1.18736e-08 0)
(0.000999994 -1.46361e-08 0)
(0.000999991 -2.06773e-08 0)
(0.000999984 -3.24237e-08 0)
(0.000999977 -5.11855e-08 0)
(0.00099997 -7.31624e-08 0)
(0.000999959 -9.81094e-08 0)
(0.000999945 -1.1858e-07 0)
(0.000999926 -1.38069e-07 0)
(0.000999909 -1.50333e-07 0)
(0.000999883 -1.67717e-07 0)
(0.000999865 -1.80536e-07 0)
(0.00099983 -2.1348e-07 0)
(0.000999814 -2.31254e-07 0)
(0.000999762 -3.03413e-07 0)
(0.000999755 -3.15063e-07 0)
(0.000999675 -4.62843e-07 0)
(0.001 -1.1834e-09 0)
(0.000999994 2.23704e-09 0)
(0.000999987 7.75804e-09 0)
(0.000999984 1.41518e-08 0)
(0.000999983 2.05725e-08 0)
(0.000999981 2.35652e-08 0)
(0.000999979 2.14362e-08 0)
(0.000999975 1.23303e-08 0)
(0.000999966 7.26653e-10 0)
(0.00099995 -1.28159e-08 0)
(0.000999929 -2.19417e-08 0)
(0.000999904 -3.07658e-08 0)
(0.000999881 -3.3139e-08 0)
(0.000999852 -4.119e-08 0)
(0.00099983 -4.42334e-08 0)
(0.000999793 -6.73034e-08 0)
(0.000999774 -7.49586e-08 0)
(0.000999718 -1.35467e-07 0)
(0.000999706 -1.39283e-07 0)
(0.000999619 -2.74871e-07 0)
(0.001 -4.64741e-09 0)
(0.001 -1.05604e-08 0)
(0.000999996 -1.61628e-08 0)
(0.000999995 -2.23325e-08 0)
(0.000999996 -2.88171e-08 0)
(0.000999993 -3.7307e-08 0)
(0.000999986 -5.04048e-08 0)
(0.000999977 -6.8463e-08 0)
(0.000999968 -8.73733e-08 0)
(0.000999952 -1.07763e-07 0)
(0.000999934 -1.24201e-07 0)
(0.00099991 -1.40779e-07 0)
(0.000999888 -1.51184e-07 0)
(0.000999855 -1.675e-07 0)
(0.000999832 -1.77631e-07 0)
(0.000999784 -2.07154e-07 0)
(0.000999765 -2.19617e-07 0)
(0.000999687 -2.82618e-07 0)
(0.000999679 -2.8993e-07 0)
(0.000999548 -4.2146e-07 0)
(0.001 2.72407e-09 0)
(0.000999993 1.19046e-08 0)
(0.000999984 2.12499e-08 0)
(0.00099998 2.93225e-08 0)
(0.000999979 3.71059e-08 0)
(0.000999976 4.39153e-08 0)
(0.000999972 5.01866e-08 0)
(0.000999967 5.52314e-08 0)
(0.000999958 5.90337e-08 0)
(0.00099994 6.05064e-08 0)
(0.000999918 6.3328e-08 0)
(0.00099989 6.46866e-08 0)
(0.000999865 6.98322e-08 0)
(0.000999829 6.98819e-08 0)
(0.000999804 7.59989e-08 0)
(0.000999754 6.67525e-08 0)
(0.000999732 7.36882e-08 0)
(0.000999651 3.80479e-08 0)
(0.000999636 4.79429e-08 0)
(0.000999503 -5.38323e-08 0)
(0.001 -9.00847e-09 0)
(0.000999998 -2.31919e-08 0)
(0.000999993 -3.36684e-08 0)
(0.000999992 -4.17874e-08 0)
(0.000999993 -4.92577e-08 0)
(0.000999989 -5.83674e-08 0)
(0.000999983 -6.96533e-08 0)
(0.000999975 -8.44065e-08 0)
(0.000999965 -9.94589e-08 0)
(0.000999946 -1.14458e-07 0)
(0.000999927 -1.26245e-07 0)
(0.000999897 -1.38968e-07 0)
(0.000999876 -1.47434e-07 0)
(0.000999834 -1.61187e-07 0)
(0.000999814 -1.67738e-07 0)
(0.000999749 -1.89438e-07 0)
(0.000999738 -1.93678e-07 0)
(0.000999622 -2.36609e-07 0)
(0.000999625 -2.33363e-07 0)
(0.000999402 -3.31951e-07 0)
)
;

boundaryField
{
    sides
    {
        type            slip;
    }
    inlet
    {
        type            fixedValue;
        value           uniform (0.001 0 0);
    }
    outlet
    {
        type            zeroGradient;
    }
    frontAndBack
    {
        type            empty;
    }
}


// ************************************************************************* //
