/*--------------------------------*- C++ -*----------------------------------*\
  =========                 |
  \\      /  F ield         | OpenFOAM: The Open Source CFD Toolbox
   \\    /   O peration     | Website:  https://openfoam.org
    \\  /    A nd           | Version:  7
     \\/     M anipulation  |
\*---------------------------------------------------------------------------*/
FoamFile
{
    version     2.0;
    format      ascii;
    class       volVectorField;
    location    "23";
    object      hU_0;
}
// * * * * * * * * * * * * * * * * * * * * * * * * * * * * * * * * * * * * * //

dimensions      [0 2 -1 0 0 0 0];

internalField   nonuniform List<vector> 
400
(
(0.000999998 -8.93098e-09 0)
(0.001 -2.30156e-08 0)
(0.00100001 -3.34951e-08 0)
(0.00100001 -4.16016e-08 0)
(0.00100001 -4.9235e-08 0)
(0.00100001 -5.86433e-08 0)
(0.00100002 -7.0291e-08 0)
(0.00100002 -8.5203e-08 0)
(0.00100004 -1.00051e-07 0)
(0.00100005 -1.14713e-07 0)
(0.00100007 -1.26136e-07 0)
(0.0010001 -1.38575e-07 0)
(0.00100013 -1.46832e-07 0)
(0.00100017 -1.60553e-07 0)
(0.00100019 -1.67206e-07 0)
(0.00100025 -1.89073e-07 0)
(0.00100026 -1.93647e-07 0)
(0.00100038 -2.3665e-07 0)
(0.00100037 -2.33844e-07 0)
(0.0010006 -3.32433e-07 0)
(0.000999999 3.17714e-09 0)
(0.00100001 1.29364e-08 0)
(0.00100002 2.21757e-08 0)
(0.00100002 3.02541e-08 0)
(0.00100002 3.79089e-08 0)
(0.00100002 4.4519e-08 0)
(0.00100003 5.05553e-08 0)
(0.00100003 5.53213e-08 0)
(0.00100004 5.89364e-08 0)
(0.00100006 6.04146e-08 0)
(0.00100008 6.34519e-08 0)
(0.00100011 6.50547e-08 0)
(0.00100014 7.04195e-08 0)
(0.00100017 7.04933e-08 0)
(0.0010002 7.65105e-08 0)
(0.00100025 6.71989e-08 0)
(0.00100027 7.37824e-08 0)
(0.00100035 3.80871e-08 0)
(0.00100036 4.75033e-08 0)
(0.0010005 -5.47864e-08 0)
(0.000999998 -4.20156e-09 0)
(0.001 -9.66256e-09 0)
(0.001 -1.53999e-08 0)
(0.001 -2.16334e-08 0)
(0.001 -2.822e-08 0)
(0.00100001 -3.70886e-08 0)
(0.00100001 -5.09547e-08 0)
(0.00100002 -6.95445e-08 0)
(0.00100003 -8.85095e-08 0)
(0.00100005 -1.08501e-07 0)
(0.00100007 -1.24157e-07 0)
(0.00100009 -1.39995e-07 0)
(0.00100011 -1.49822e-07 0)
(0.00100015 -1.66033e-07 0)
(0.00100017 -1.76392e-07 0)
(0.00100022 -2.06159e-07 0)
(0.00100024 -2.19444e-07 0)
(0.00100031 -2.82637e-07 0)
(0.00100032 -2.91075e-07 0)
(0.00100045 -4.23283e-07 0)
(0.000999999 -6.69786e-10 0)
(0.00100001 3.74593e-09 0)
(0.00100001 9.72543e-09 0)
(0.00100002 1.61753e-08 0)
(0.00100002 2.23071e-08 0)
(0.00100002 2.43149e-08 0)
(0.00100002 2.10219e-08 0)
(0.00100002 1.11062e-08 0)
(0.00100003 -5.96979e-10 0)
(0.00100005 -1.36426e-08 0)
(0.00100007 -2.18085e-08 0)
(0.0010001 -2.97143e-08 0)
(0.00100012 -3.13492e-08 0)
(0.00100015 -3.92292e-08 0)
(0.00100017 -4.2569e-08 0)
(0.00100021 -6.59118e-08 0)
(0.00100023 -7.46598e-08 0)
(0.00100028 -1.35367e-07 0)
(0.00100029 -1.4076e-07 0)
(0.00100038 -2.77253e-07 0)
(0.000999999 -3.53384e-09 0)
(0.001 -5.11419e-09 0)
(0.00100001 -6.95197e-09 0)
(0.00100001 -9.83618e-09 0)
(0.001 -1.29464e-08 0)
(0.00100001 -1.98388e-08 0)
(0.00100002 -3.28019e-08 0)
(0.00100002 -5.24545e-08 0)
(0.00100003 -7.46541e-08 0)
(0.00100004 -9.91056e-08 0)
(0.00100006 -1.18448e-07 0)
(0.00100007 -1.36814e-07 0)
(0.00100009 -1.4815e-07 0)
(0.00100012 -1.65287e-07 0)
(0.00100014 -1.78427e-07 0)
(0.00100017 -2.11685e-07 0)
(0.00100019 -2.30799e-07 0)
(0.00100024 -3.03266e-07 0)
(0.00100024 -3.16862e-07 0)
(0.00100033 -4.65845e-07 0)
(0.000999999 -2.08368e-09 0)
(0.001 -1.23291e-09 0)
(0.00100001 2.23668e-09 0)
(0.00100001 6.97146e-09 0)
(0.00100001 1.06663e-08 0)
(0.00100001 8.15248e-09 0)
(0.00100001 -2.60447e-09 0)
(0.00100002 -2.28331e-08 0)
(0.00100002 -4.58972e-08 0)
(0.00100004 -7.0051e-08 0)
(0.00100005 -8.72825e-08 0)
(0.00100007 -1.02022e-07 0)
(0.00100009 -1.09073e-07 0)
(0.00100011 -1.21356e-07 0)
(0.00100012 -1.31253e-07 0)
(0.00100015 -1.61287e-07 0)
(0.00100016 -1.79665e-07 0)
(0.0010002 -2.51577e-07 0)
(0.0010002 -2.64786e-07 0)
(0.00100026 -4.17207e-07 0)
(0.000999999 -2.10231e-09 0)
(0.001 -2.8928e-09 0)
(0.001 -1.56345e-09 0)
(0.00100001 2.60322e-10 0)
(0.001 2.62542e-10 0)
(0.00100001 -6.04165e-09 0)
(0.00100001 -1.95193e-08 0)
(0.00100002 -4.16115e-08 0)
(0.00100002 -6.77189e-08 0)
(0.00100003 -9.64653e-08 0)
(0.00100004 -1.19146e-07 0)
(0.00100005 -1.39566e-07 0)
(0.00100006 -1.52167e-07 0)
(0.00100008 -1.69687e-07 0)
(0.00100009 -1.84766e-07 0)
(0.00100011 -2.19711e-07 0)
(0.00100012 -2.42289e-07 0)
(0.00100016 -3.19239e-07 0)
(0.00100016 -3.3484e-07 0)
(0.00100021 -4.9401e-07 0)
(0.001 -1.64701e-09 0)
(0.001 -2.80225e-09 0)
(0.001 -6.89417e-10 0)
(0.001 3.217e-09 0)
(0.001 5.65038e-09 0)
(0.00100001 1.38739e-09 0)
(0.00100001 -1.35521e-08 0)
(0.00100001 -3.91598e-08 0)
(0.00100001 -6.83906e-08 0)
(0.00100002 -9.9044e-08 0)
(0.00100003 -1.21893e-07 0)
(0.00100004 -1.40921e-07 0)
(0.00100005 -1.51355e-07 0)
(0.00100006 -1.66161e-07 0)
(0.00100007 -1.79781e-07 0)
(0.00100008 -2.13239e-07 0)
(0.00100009 -2.3669e-07 0)
(0.00100011 -3.1433e-07 0)
(0.00100011 -3.31468e-07 0)
(0.00100014 -4.93477e-07 0)
(0.001 -1.26733e-09 0)
(0.001 -2.89257e-09 0)
(0.001 -6.96173e-10 0)
(0.001 3.57645e-09 0)
(0.001 5.54971e-09 0)
(0.001 -2.38209e-10 0)
(0.00100001 -1.52403e-08 0)
(0.00100001 -4.08738e-08 0)
(0.00100001 -7.08047e-08 0)
(0.00100001 -1.02822e-07 0)
(0.00100002 -1.27558e-07 0)
(0.00100002 -1.48884e-07 0)
(0.00100003 -1.61815e-07 0)
(0.00100004 -1.78979e-07 0)
(0.00100004 -1.94675e-07 0)
(0.00100005 -2.29814e-07 0)
(0.00100005 -2.54011e-07 0)
(0.00100007 -3.32968e-07 0)
(0.00100007 -3.49666e-07 0)
(0.00100009 -5.14624e-07 0)
(0.001 -1.14982e-09 0)
(0.001 -2.9974e-09 0)
(0.001 -7.86748e-10 0)
(0.001 3.73087e-09 0)
(0.001 6.04947e-09 0)
(0.001 6.25587e-10 0)
(0.001 -1.49934e-08 0)
(0.001 -4.17552e-08 0)
(0.001 -7.29585e-08 0)
(0.001 -1.06042e-07 0)
(0.00100001 -1.31307e-07 0)
(0.00100001 -1.52475e-07 0)
(0.00100001 -1.64798e-07 0)
(0.00100001 -1.81135e-07 0)
(0.00100001 -1.96539e-07 0)
(0.00100002 -2.31465e-07 0)
(0.00100002 -2.56481e-07 0)
(0.00100002 -3.36119e-07 0)
(0.00100002 -3.54002e-07 0)
(0.00100003 -5.20037e-07 0)
(0.001 -1.14961e-09 0)
(0.001 -2.99635e-09 0)
(0.000999999 -7.87117e-10 0)
(0.000999999 3.73022e-09 0)
(0.000999999 6.04922e-09 0)
(0.000999999 6.25557e-10 0)
(0.000999998 -1.49932e-08 0)
(0.000999998 -4.17545e-08 0)
(0.000999997 -7.29575e-08 0)
(0.000999996 -1.0604e-07 0)
(0.000999994 -1.31306e-07 0)
(0.000999992 -1.52474e-07 0)
(0.00099999 -1.64798e-07 0)
(0.000999988 -1.81136e-07 0)
(0.000999985 -1.9654e-07 0)
(0.000999982 -2.31465e-07 0)
(0.000999981 -2.56481e-07 0)
(0.000999977 -3.36116e-07 0)
(0.000999977 -3.54e-07 0)
(0.000999972 -5.20033e-07 0)
(0.001 -1.26748e-09 0)
(0.001 -2.89552e-09 0)
(0.000999998 -6.9973e-10 0)
(0.000999997 3.57442e-09 0)
(0.000999997 5.54914e-09 0)
(0.000999997 -2.37443e-10 0)
(0.000999995 -1.52401e-08 0)
(0.000999993 -4.08737e-08 0)
(0.000999991 -7.08049e-08 0)
(0.000999986 -1.0282e-07 0)
(0.000999982 -1.27555e-07 0)
(0.000999976 -1.48879e-07 0)
(0.000999971 -1.61808e-07 0)
(0.000999964 -1.78969e-07 0)
(0.000999959 -1.94664e-07 0)
(0.00099995 -2.29792e-07 0)
(0.000999946 -2.53998e-07 0)
(0.000999933 -3.32935e-07 0)
(0.000999931 -3.49655e-07 0)
(0.000999912 -5.1458e-07 0)
(0.001 -1.64735e-09 0)
(0.000999999 -2.80812e-09 0)
(0.000999997 -6.96089e-10 0)
(0.000999995 3.21321e-09 0)
(0.000999995 5.64858e-09 0)
(0.000999994 1.38681e-09 0)
(0.000999992 -1.35533e-08 0)
(0.00099999 -3.91612e-08 0)
(0.000999986 -6.8393e-08 0)
(0.000999979 -9.90459e-08 0)
(0.00099997 -1.21895e-07 0)
(0.00099996 -1.40924e-07 0)
(0.00099995 -1.51357e-07 0)
(0.000999938 -1.66161e-07 0)
(0.000999929 -1.79781e-07 0)
(0.000999916 -2.13231e-07 0)
(0.000999909 -2.36698e-07 0)
(0.000999889 -3.14323e-07 0)
(0.000999886 -3.31494e-07 0)
(0.000999856 -4.93487e-07 0)
(0.001 -2.1032e-09 0)
(0.000999999 -2.89974e-09 0)
(0.000999995 -1.57143e-09 0)
(0.000999995 2.56204e-10 0)
(0.000999995 2.61891e-10 0)
(0.000999993 -6.03951e-09 0)
(0.000999988 -1.95164e-08 0)
(0.000999984 -4.16065e-08 0)
(0.000999979 -6.77129e-08 0)
(0.000999971 -9.64537e-08 0)
(0.00099996 -1.19132e-07 0)
(0.000999948 -1.39548e-07 0)
(0.000999936 -1.52149e-07 0)
(0.000999919 -1.69664e-07 0)
(0.000999907 -1.84742e-07 0)
(0.000999885 -2.19664e-07 0)
(0.000999875 -2.4226e-07 0)
(0.000999844 -3.19159e-07 0)
(0.00099984 -3.348e-07 0)
(0.000999794 -4.93889e-07 0)
(0.001 -2.08524e-09 0)
(0.000999998 -1.23972e-09 0)
(0.000999993 2.22824e-09 0)
(0.00099999 6.96496e-09 0)
(0.00099999 1.06623e-08 0)
(0.000999989 8.14939e-09 0)
(0.000999988 -2.61081e-09 0)
(0.000999984 -2.28417e-08 0)
(0.000999976 -4.59076e-08 0)
(0.000999962 -7.00599e-08 0)
(0.000999946 -8.72897e-08 0)
(0.000999928 -1.02029e-07 0)
(0.000999911 -1.09077e-07 0)
(0.000999891 -1.21356e-07 0)
(0.000999876 -1.31253e-07 0)
(0.000999851 -1.61273e-07 0)
(0.000999839 -1.79678e-07 0)
(0.000999802 -2.51565e-07 0)
(0.000999795 -2.64823e-07 0)
(0.000999738 -4.17225e-07 0)
(0.001 -3.53521e-09 0)
(0.000999999 -5.12142e-09 0)
(0.000999995 -6.96058e-09 0)
(0.000999995 -9.84095e-09 0)
(0.000999995 -1.29476e-08 0)
(0.000999991 -1.98362e-08 0)
(0.000999984 -3.27975e-08 0)
(0.000999977 -5.24461e-08 0)
(0.00099997 -7.46456e-08 0)
(0.000999958 -9.90913e-08 0)
(0.000999944 -1.18433e-07 0)
(0.000999926 -1.36797e-07 0)
(0.000999908 -1.48137e-07 0)
(0.000999883 -1.65266e-07 0)
(0.000999864 -1.78412e-07 0)
(0.000999829 -2.1164e-07 0)
(0.000999813 -2.30783e-07 0)
(0.000999762 -3.03183e-07 0)
(0.000999755 -3.16836e-07 0)
(0.000999674 -4.65705e-07 0)
(0.001 -6.71227e-10 0)
(0.000999995 3.73718e-09 0)
(0.000999988 9.71514e-09 0)
(0.000999985 1.61681e-08 0)
(0.000999984 2.23024e-08 0)
(0.000999981 2.43114e-08 0)
(0.00099998 2.10144e-08 0)
(0.000999976 1.10965e-08 0)
(0.000999966 -6.07963e-10 0)
(0.000999948 -1.36493e-08 0)
(0.000999927 -2.18119e-08 0)
(0.000999903 -2.97131e-08 0)
(0.00099988 -3.13444e-08 0)
(0.000999851 -3.92149e-08 0)
(0.00099983 -4.2555e-08 0)
(0.000999793 -6.58782e-08 0)
(0.000999775 -7.46557e-08 0)
(0.000999718 -1.35324e-07 0)
(0.000999706 -1.40769e-07 0)
(0.000999618 -2.77224e-07 0)
(0.001 -4.20179e-09 0)
(0.000999999 -9.66503e-09 0)
(0.000999996 -1.54031e-08 0)
(0.000999996 -2.16363e-08 0)
(0.000999997 -2.82234e-08 0)
(0.000999994 -3.70901e-08 0)
(0.000999986 -5.09557e-08 0)
(0.000999977 -6.95418e-08 0)
(0.000999967 -8.8509e-08 0)
(0.000999951 -1.08498e-07 0)
(0.000999933 -1.24161e-07 0)
(0.000999909 -1.39997e-07 0)
(0.000999888 -1.49834e-07 0)
(0.000999854 -1.66037e-07 0)
(0.000999832 -1.76412e-07 0)
(0.000999784 -2.0615e-07 0)
(0.000999765 -2.19474e-07 0)
(0.000999687 -2.82605e-07 0)
(0.000999679 -2.91105e-07 0)
(0.000999547 -4.23219e-07 0)
(0.001 3.1752e-09 0)
(0.000999993 1.29302e-08 0)
(0.000999984 2.21694e-08 0)
(0.00099998 3.02517e-08 0)
(0.00099998 3.7909e-08 0)
(0.000999976 4.45204e-08 0)
(0.000999973 5.05545e-08 0)
(0.000999968 5.53203e-08 0)
(0.000999958 5.89349e-08 0)
(0.000999939 6.0421e-08 0)
(0.000999916 6.34616e-08 0)
(0.000999888 6.50735e-08 0)
(0.000999863 7.04388e-08 0)
(0.000999828 7.05252e-08 0)
(0.000999804 7.65354e-08 0)
(0.000999754 6.72484e-08 0)
(0.000999732 7.38002e-08 0)
(0.000999651 3.81601e-08 0)
(0.000999636 4.75282e-08 0)
(0.000999502 -5.46776e-08 0)
(0.001 -8.93202e-09 0)
(0.000999998 -2.30194e-08 0)
(0.000999993 -3.35017e-08 0)
(0.000999993 -4.16103e-08 0)
(0.000999993 -4.92475e-08 0)
(0.000999989 -5.86586e-08 0)
(0.000999984 -7.0311e-08 0)
(0.000999975 -8.52284e-08 0)
(0.000999965 -1.00083e-07 0)
(0.000999945 -1.14749e-07 0)
(0.000999925 -1.26177e-07 0)
(0.000999896 -1.38618e-07 0)
(0.000999874 -1.46881e-07 0)
(0.000999833 -1.606e-07 0)
(0.000999814 -1.67261e-07 0)
(0.000999749 -1.89124e-07 0)
(0.000999738 -1.93713e-07 0)
(0.000999622 -2.36717e-07 0)
(0.000999625 -2.33924e-07 0)
(0.000999401 -3.32573e-07 0)
)
;

boundaryField
{
    sides
    {
        type            slip;
    }
    inlet
    {
        type            fixedValue;
        value           uniform (0.001 0 0);
    }
    outlet
    {
        type            zeroGradient;
    }
    frontAndBack
    {
        type            empty;
    }
}


// ************************************************************************* //
