/*--------------------------------*- C++ -*----------------------------------*\
  =========                 |
  \\      /  F ield         | OpenFOAM: The Open Source CFD Toolbox
   \\    /   O peration     | Website:  https://openfoam.org
    \\  /    A nd           | Version:  7
     \\/     M anipulation  |
\*---------------------------------------------------------------------------*/
FoamFile
{
    version     2.0;
    format      ascii;
    class       volScalarField;
    location    "75";
    object      ddt0(h);
}
// * * * * * * * * * * * * * * * * * * * * * * * * * * * * * * * * * * * * * //

dimensions      [0 1 -1 0 0 0 0];

internalField   nonuniform List<scalar> 
400
(
1.01066e-09
-9.46854e-10
3.29962e-10
1.1439e-09
3.43393e-09
-1.25276e-08
-9.11766e-09
-1.69895e-08
-1.13237e-10
7.68403e-10
-1.86168e-10
-5.99099e-10
-6.69971e-10
-1.19565e-10
4.26289e-10
3.95955e-10
-9.63463e-14
-2.42026e-10
-2.16295e-10
-8.00633e-11
4.69236e-10
4.38575e-10
2.11478e-11
-5.00897e-10
-1.64442e-09
1.032e-08
1.21073e-08
1.38665e-08
2.00773e-09
-2.82063e-10
-1.98149e-10
-1.01194e-10
-1.19164e-10
3.70026e-11
8.85163e-11
-9.76748e-11
-2.82901e-10
-2.14386e-10
-2.50983e-11
3.32496e-11
5.42808e-10
1.31526e-09
-6.12864e-10
-4.56624e-11
-2.22508e-09
5.17491e-09
-4.85087e-09
2.46747e-09
4.45301e-10
-1.31348e-09
-1.17466e-11
1.43161e-10
3.67404e-10
4.32474e-10
-5.54855e-11
-5.57831e-10
-5.58909e-10
-1.89071e-10
1.2699e-10
1.20178e-10
-5.67034e-11
6.06908e-10
8.44399e-11
2.4773e-10
-4.27267e-10
-5.64358e-10
1.8186e-10
3.46893e-09
-2.95344e-09
-3.73356e-10
3.36994e-10
4.16366e-11
2.83982e-10
2.34458e-10
-3.11766e-10
-6.7168e-10
-4.48675e-10
1.02351e-11
2.19259e-10
1.12105e-10
-4.19584e-10
1.56049e-10
1.04809e-09
-1.06667e-10
1.59455e-09
-2.40381e-09
1.5881e-09
-2.25953e-09
-1.23339e-09
1.07987e-09
7.60239e-11
-1.31958e-11
2.02432e-10
-2.13839e-10
-5.05751e-10
-3.84944e-10
-4.42251e-11
2.25312e-10
2.15807e-10
6.4295e-11
-1.00364e-10
-2.11795e-10
8.62215e-10
-3.19419e-10
1.04935e-09
-5.81472e-10
7.38459e-10
-1.52749e-09
1.12089e-09
7.74836e-10
-6.52845e-10
7.81804e-11
1.01342e-10
-5.96849e-10
-4.0913e-10
2.70956e-10
5.07171e-10
2.83386e-10
6.80653e-11
8.49125e-12
2.76357e-10
-1.75622e-10
-4.01553e-12
4.2402e-10
-5.46502e-10
6.5345e-10
-1.23086e-10
1.46842e-10
1.23947e-09
-6.98168e-10
-3.97352e-10
3.88907e-10
-2.14225e-10
-6.68895e-10
-7.64677e-11
7.65854e-10
8.24556e-10
2.05342e-10
-1.94539e-10
-1.14476e-10
2.94644e-10
4.29658e-10
-7.95893e-10
3.68402e-10
-8.09839e-10
5.16998e-10
-6.9248e-10
7.95851e-10
-5.86515e-11
-6.83057e-10
5.5526e-10
-8.75513e-11
-7.33674e-10
-2.03758e-10
3.08041e-10
5.62458e-10
5.38166e-10
8.71764e-11
-3.27413e-10
-2.16223e-10
1.07421e-10
4.46014e-10
-2.48837e-10
-2.36249e-10
-3.89792e-10
-1.25349e-10
-3.87011e-10
2.75159e-10
-5.35245e-10
-2.21093e-11
3.33791e-10
-5.04497e-10
-3.5032e-10
3.3448e-10
2.08571e-10
-1.77008e-10
-2.11281e-10
-1.58124e-10
-2.01468e-10
-1.19562e-10
8.15438e-11
-1.87271e-10
3.66996e-10
-2.14145e-10
1.33607e-10
-4.24726e-10
2.06227e-10
-3.92448e-10
-1.86336e-10
2.78685e-10
-1.50607e-10
2.01678e-10
4.45419e-10
-1.47179e-13
-3.65917e-10
-5.24009e-10
-5.81995e-10
-3.75989e-10
-9.4316e-11
6.18802e-12
3.18981e-11
-4.87169e-10
4.72574e-10
-1.22371e-10
4.69064e-10
-2.99131e-10
5.55612e-10
-4.46918e-10
-1.69477e-11
3.8506e-10
-2.71584e-10
4.18293e-10
7.00019e-10
3.47633e-11
-3.08846e-10
-4.39182e-10
-5.66146e-10
-3.2058e-10
3.99486e-11
8.28962e-11
-1.16766e-10
-1.13037e-10
4.58325e-11
-1.61405e-10
3.54994e-10
6.03733e-11
2.91761e-10
1.62084e-10
-3.97532e-10
2.92024e-10
7.16118e-11
-3.58457e-10
1.59226e-10
7.22971e-10
4.73402e-10
-1.54776e-10
-3.32647e-10
-1.90331e-11
1.9032e-10
9.7122e-11
-1.47144e-10
2.74957e-10
-7.20364e-10
3.58171e-10
-2.71473e-10
6.16911e-10
-4.33753e-10
8.82671e-10
-4.70326e-10
-3.90634e-10
6.02924e-10
-4.33132e-10
-6.44921e-10
4.05606e-10
7.71737e-10
4.7696e-10
3.06933e-10
2.18135e-10
3.70914e-11
-3.53552e-11
-8.87872e-11
-6.87284e-11
-4.49106e-10
7.23594e-10
-9.2664e-10
9.27086e-10
-6.60078e-10
7.04423e-10
7.05561e-10
-1.0796e-09
-4.25192e-11
1.86656e-10
-5.12444e-10
-4.40444e-10
2.12848e-10
7.43474e-10
6.94443e-10
1.97057e-10
-1.27651e-10
-8.43345e-11
-2.98762e-10
-2.47369e-10
4.81406e-10
-1.9382e-10
4.39114e-12
1.39409e-10
1.69901e-10
-9.39644e-10
1.82984e-09
2.29956e-10
-7.19309e-10
1.48774e-10
-9.84849e-11
-7.74959e-10
-4.47843e-10
3.32258e-10
5.27507e-10
1.38396e-10
-1.27241e-10
-7.34503e-11
-5.48715e-10
-1.82026e-10
7.56493e-10
-7.54513e-10
1.21086e-09
-2.3046e-09
1.27256e-09
-2.4048e-09
2.69437e-10
1.47387e-09
-5.05611e-11
1.18408e-10
1.98958e-10
-5.06291e-10
-7.23203e-10
-3.07344e-10
1.18331e-10
1.6861e-10
-2.07056e-11
-7.02353e-11
-4.66793e-10
5.30838e-11
7.79857e-11
-5.27629e-10
5.25803e-10
-2.21735e-09
2.93585e-09
-1.02862e-09
-2.31621e-09
9.67333e-10
6.73027e-10
3.86552e-10
5.52014e-10
1.44888e-10
-4.75605e-10
-6.03424e-10
-2.06094e-10
1.40809e-10
1.16775e-10
5.87132e-12
-3.79731e-10
4.30308e-10
-6.74797e-10
-9.19728e-10
-1.27272e-09
1.50324e-09
-1.08518e-09
8.93159e-09
-2.96809e-09
-6.80912e-10
7.19063e-10
6.45057e-10
7.73946e-10
6.00925e-10
-2.89875e-11
-4.47876e-10
-3.14931e-10
2.7716e-11
1.94414e-10
1.06112e-10
-3.62047e-10
-6.77327e-11
-3.62015e-10
-4.39517e-10
-3.15786e-09
2.37057e-08
-5.62967e-09
-2.28958e-09
2.92559e-09
-6.27297e-10
2.0107e-10
2.53193e-10
1.88039e-10
3.61017e-10
3.55716e-10
9.99847e-11
-1.17464e-10
-5.24764e-11
1.46337e-10
1.16222e-10
1.68928e-10
-1.46463e-09
-6.80124e-10
1.27595e-09
2.89571e-09
-2.21683e-08
2.9344e-09
-3.42046e-09
7.08338e-10
-9.66489e-11
-8.86511e-10
-9.11283e-10
-6.27888e-10
2.17414e-10
8.64743e-10
7.18465e-10
1.48817e-10
-1.29898e-10
-1.9602e-11
4.13689e-11
)
;

boundaryField
{
    sides
    {
        type            calculated;
        value           nonuniform List<scalar> 
40
(
1.68928e-10
-1.46463e-09
-6.80124e-10
1.27595e-09
2.89571e-09
-2.21683e-08
2.9344e-09
-3.42046e-09
7.08338e-10
-9.66489e-11
-8.86511e-10
-9.11283e-10
-6.27888e-10
2.17414e-10
8.64743e-10
7.18465e-10
1.48817e-10
-1.29898e-10
-1.9602e-11
4.13689e-11
1.01066e-09
-9.46854e-10
3.29962e-10
1.1439e-09
3.43393e-09
-1.25276e-08
-9.11766e-09
-1.69895e-08
-1.13237e-10
7.68403e-10
-1.86168e-10
-5.99099e-10
-6.69971e-10
-1.19565e-10
4.26289e-10
3.95955e-10
-9.63463e-14
-2.42026e-10
-2.16295e-10
-8.00633e-11
)
;
    }
    inlet
    {
        type            calculated;
        value           nonuniform List<scalar> 
20
(
1.01066e-09
4.69236e-10
5.42808e-10
-5.67034e-11
-4.19584e-10
-1.00364e-10
2.76357e-10
2.94644e-10
1.07421e-10
8.15438e-11
3.18981e-11
-1.16766e-10
-1.47144e-10
-8.87872e-11
-2.98762e-10
-5.48715e-10
-4.66793e-10
-3.79731e-10
-3.62047e-10
1.68928e-10
)
;
    }
    outlet
    {
        type            calculated;
        value           uniform 0;
    }
    frontAndBack
    {
        type            empty;
    }
}


// ************************************************************************* //
