/*--------------------------------*- C++ -*----------------------------------*\
  =========                 |
  \\      /  F ield         | OpenFOAM: The Open Source CFD Toolbox
   \\    /   O peration     | Website:  https://openfoam.org
    \\  /    A nd           | Version:  7
     \\/     M anipulation  |
\*---------------------------------------------------------------------------*/
FoamFile
{
    version     2.0;
    format      ascii;
    class       volVectorField;
    location    "75";
    object      ddtCorrDdt0(hU);
}
// * * * * * * * * * * * * * * * * * * * * * * * * * * * * * * * * * * * * * //

dimensions      [0 2 -2 0 0 0 0];

internalField   nonuniform List<vector> 
400
(
(2.5178e-10 2.00474e-10 0)
(3.22412e-10 -4.09407e-12 0)
(7.32697e-11 -1.82911e-10 0)
(-2.79917e-10 -1.25923e-11 0)
(1.66618e-10 4.68473e-10 0)
(-1.22817e-09 -1.68636e-10 0)
(-1.34009e-09 6.00242e-10 0)
(-1.8843e-09 9.05105e-10 0)
(5.02561e-10 2.67452e-10 0)
(4.48544e-10 5.01658e-11 0)
(7.2657e-11 -9.45254e-11 0)
(-9.6052e-11 -4.06651e-11 0)
(-6.64004e-11 6.96235e-11 0)
(1.47576e-10 1.42559e-10 0)
(3.10142e-10 1.23774e-10 0)
(2.36038e-10 7.45629e-11 0)
(1.80494e-11 2.21398e-11 0)
(-8.91606e-11 9.49537e-12 0)
(-1.2197e-10 -2.86984e-11 0)
(-1.78614e-11 -7.07189e-11 0)
(-1.81514e-12 3.80495e-10 0)
(3.69697e-11 -5.72915e-11 0)
(4.07034e-12 -4.17866e-10 0)
(1.96646e-10 -7.59949e-11 0)
(-4.68587e-10 1.81884e-10 0)
(1.19315e-09 3.88465e-10 0)
(1.96389e-09 -2.93843e-11 0)
(9.40445e-10 3.01479e-10 0)
(-1.55092e-10 5.54696e-10 0)
(-2.94553e-11 7.04073e-12 0)
(-4.74541e-11 -1.34473e-10 0)
(7.10648e-11 -5.35415e-11 0)
(1.11502e-10 8.95696e-11 0)
(1.64681e-10 1.90587e-10 0)
(1.67178e-10 1.44217e-10 0)
(8.55453e-11 3.18961e-11 0)
(-3.58567e-11 -3.53492e-11 0)
(-6.6425e-11 -3.57566e-11 0)
(-6.17429e-11 -1.47864e-11 0)
(3.02731e-11 -2.65935e-11 0)
(-1.84198e-10 1.04012e-10 0)
(-2.76887e-10 4.65802e-11 0)
(-4.69451e-11 -6.9192e-12 0)
(1.8319e-10 1.55176e-10 0)
(4.22227e-11 -2.22154e-10 0)
(3.32035e-10 6.99229e-10 0)
(-9.95947e-10 -5.89609e-10 0)
(6.88284e-10 -1.32417e-10 0)
(2.90516e-10 7.15691e-11 0)
(-4.52736e-10 -2.64476e-10 0)
(4.16719e-11 -1.20172e-10 0)
(2.05562e-10 -4.89875e-11 0)
(2.74543e-10 4.76928e-11 0)
(2.42761e-10 1.45388e-10 0)
(7.73205e-11 1.48488e-10 0)
(-6.89993e-11 1.21086e-10 0)
(-1.24014e-10 7.1249e-11 0)
(-7.56401e-11 7.53144e-11 0)
(-5.56683e-11 3.85667e-11 0)
(6.963e-11 -8.54143e-11 0)
(-1.14438e-10 -1.68244e-10 0)
(-1.14938e-10 1.00022e-10 0)
(4.8054e-11 2.94648e-10 0)
(2.49349e-11 2.31142e-10 0)
(1.94058e-10 1.65104e-10 0)
(-1.54139e-10 -4.74623e-11 0)
(-4.04151e-11 2.94639e-10 0)
(6.69877e-10 4.69325e-10 0)
(-7.01298e-10 -3.9887e-10 0)
(-2.17342e-10 -9.58405e-11 0)
(1.98921e-10 5.37576e-11 0)
(1.83107e-10 2.99501e-11 0)
(2.43649e-10 6.08109e-11 0)
(1.84293e-10 7.84872e-11 0)
(8.06139e-12 6.79529e-11 0)
(-8.73937e-11 1.23801e-10 0)
(-6.47621e-11 1.47772e-10 0)
(1.13933e-11 1.94966e-10 0)
(5.39173e-12 1.61729e-10 0)
(4.18777e-11 -5.77291e-11 0)
(-6.16525e-11 -1.29625e-10 0)
(1.90096e-11 3.51794e-11 0)
(1.23171e-10 2.44728e-10 0)
(-2.12847e-11 1.58658e-10 0)
(1.67701e-10 3.80378e-10 0)
(-2.1286e-10 -1.77933e-10 0)
(3.15406e-10 3.78728e-10 0)
(-3.24723e-10 -2.22814e-10 0)
(-3.70117e-10 -2.51509e-10 0)
(2.95343e-10 1.40232e-10 0)
(1.38577e-10 4.94166e-11 0)
(8.93042e-11 -1.87688e-12 0)
(1.46742e-10 3.07456e-11 0)
(2.08577e-11 2.66913e-11 0)
(-7.65585e-11 3.06351e-11 0)
(-4.05004e-11 1.49671e-10 0)
(4.65478e-11 2.22055e-10 0)
(1.12762e-10 2.725e-10 0)
(2.72756e-11 2.28556e-10 0)
(-3.25204e-11 -3.71167e-11 0)
(-6.27975e-13 -2.31018e-11 0)
(1.09236e-10 7.15448e-11 0)
(1.39586e-10 2.87645e-10 0)
(1.87635e-11 2.50043e-10 0)
(8.68593e-12 3.88135e-10 0)
(-1.21725e-10 1.6722e-10 0)
(1.12121e-10 2.28758e-10 0)
(-3.56152e-10 -2.07432e-10 0)
(1.78397e-10 1.19687e-10 0)
(2.68824e-10 3.90149e-11 0)
(-6.01136e-11 -1.33815e-10 0)
(9.69225e-11 -5.76636e-11 0)
(1.29817e-10 -2.26372e-11 0)
(-4.14236e-11 1.55136e-11 0)
(-2.74785e-11 1.10826e-10 0)
(1.08229e-10 2.88972e-10 0)
(1.57819e-10 3.37225e-10 0)
(1.21418e-10 3.37105e-10 0)
(-5.99626e-11 1.91722e-10 0)
(-1.59996e-10 -1.33339e-10 0)
(2.97084e-11 6.74964e-11 0)
(1.20403e-10 1.15991e-10 0)
(4.7027e-11 1.48696e-10 0)
(4.47801e-11 2.68412e-10 0)
(-9.60912e-11 1.80619e-10 0)
(5.46413e-11 3.45149e-10 0)
(-2.7945e-11 1.38628e-10 0)
(-1.33343e-11 6.33228e-11 0)
(2.83664e-10 1.84359e-10 0)
(-8.97954e-11 -1.38777e-10 0)
(-6.94793e-11 -1.11749e-10 0)
(9.721e-11 4.79502e-12 0)
(-4.55006e-11 -5.97148e-11 0)
(-1.17577e-10 1.85847e-11 0)
(3.19641e-11 1.95447e-10 0)
(2.15995e-10 3.4987e-10 0)
(2.53842e-10 3.24439e-10 0)
(1.52123e-10 2.64089e-10 0)
(-4.62567e-11 1.12264e-10 0)
(-1.70643e-10 -1.67673e-10 0)
(2.15627e-11 8.8311e-11 0)
(7.34113e-11 1.75442e-10 0)
(-3.09345e-11 1.08453e-10 0)
(2.55861e-11 2.84507e-10 0)
(-1.01111e-10 2.03148e-10 0)
(6.70697e-11 3.40245e-10 0)
(-1.32635e-10 1.07442e-10 0)
(1.23108e-10 1.37284e-10 0)
(2.42017e-11 -5.32395e-11 0)
(-1.15648e-10 -2.02869e-10 0)
(1.68717e-10 -7.53988e-11 0)
(5.95238e-12 -6.02798e-11 0)
(-1.58018e-10 -3.77775e-11 0)
(2.60631e-11 1.66777e-10 0)
(1.56101e-10 3.53371e-10 0)
(1.50356e-10 4.51835e-10 0)
(1.16512e-10 3.19371e-10 0)
(4.35246e-11 1.71558e-10 0)
(-1.08868e-10 -1.92606e-11 0)
(-1.41615e-10 -2.60823e-10 0)
(2.26501e-11 6.71552e-11 0)
(1.49256e-11 1.31955e-10 0)
(-3.95893e-11 2.06885e-10 0)
(-2.37517e-11 2.41152e-10 0)
(-2.50857e-11 3.31089e-10 0)
(1.03664e-11 2.88483e-10 0)
(-6.15724e-11 1.96108e-10 0)
(6.43059e-11 1.52285e-10 0)
(-6.79856e-11 -1.03436e-10 0)
(2.63033e-11 -5.44728e-11 0)
(1.09454e-10 -1.11063e-10 0)
(-9.85965e-11 -1.55596e-10 0)
(-6.70359e-11 7.78568e-11 0)
(1.30506e-10 2.81075e-10 0)
(1.06788e-10 3.17957e-10 0)
(-3.6539e-11 3.96602e-10 0)
(-8.70228e-11 3.12598e-10 0)
(-5.54506e-11 1.62798e-10 0)
(-2.09631e-11 -3.67792e-11 0)
(2.82519e-11 -2.69724e-10 0)
(-1.13571e-11 3.93228e-11 0)
(-4.44089e-11 8.62716e-11 0)
(2.16478e-11 2.66803e-10 0)
(-1.40316e-11 2.77147e-10 0)
(5.12786e-11 3.85471e-10 0)
(-3.34247e-11 2.84828e-10 0)
(3.59063e-11 2.23815e-10 0)
(-6.19487e-11 1.00671e-10 0)
(-2.59379e-11 -9.47427e-11 0)
(5.35112e-11 -7.50207e-11 0)
(-5.30414e-11 -1.8783e-10 0)
(6.69383e-11 -1.71104e-10 0)
(1.55334e-10 8.85621e-11 0)
(3.03227e-11 2.36059e-10 0)
(-4.80827e-11 2.31991e-10 0)
(-8.9668e-11 3.46845e-10 0)
(-1.7603e-10 3.41353e-10 0)
(-1.74049e-10 2.54764e-10 0)
(-3.0376e-11 5.29159e-11 0)
(1.45743e-10 -2.41887e-10 0)
(-1.6966e-11 -7.59936e-12 0)
(-5.40949e-11 1.52947e-10 0)
(4.86328e-11 2.21945e-10 0)
(-1.88546e-12 3.33602e-10 0)
(8.07131e-11 3.08749e-10 0)
(-3.93546e-11 2.98925e-10 0)
(7.10404e-11 1.69384e-10 0)
(-9.11658e-11 6.20779e-11 0)
(-1.54742e-11 -3.89869e-11 0)
(5.48545e-11 -1.71763e-10 0)
(-1.00775e-10 -1.50728e-10 0)
(1.11827e-10 -1.18406e-10 0)
(1.99222e-10 -1.08714e-10 0)
(-1.93205e-11 2.5052e-11 0)
(-9.3214e-11 1.74683e-10 0)
(-8.0963e-11 3.30038e-10 0)
(-1.59692e-10 3.41661e-10 0)
(-1.75161e-10 3.52105e-10 0)
(9.09979e-12 2.20353e-10 0)
(1.88304e-10 -1.54865e-10 0)
(2.97766e-11 4.20687e-12 0)
(-6.03323e-12 1.67444e-10 0)
(-1.14988e-11 2.07297e-10 0)
(-2.4007e-11 3.39972e-10 0)
(4.50896e-11 2.45256e-10 0)
(9.94531e-12 2.71424e-10 0)
(2.67285e-11 1.44662e-10 0)
(2.07514e-11 1.69985e-11 0)
(-1.0023e-10 5.35487e-11 0)
(1.66331e-11 -1.80721e-10 0)
(-2.49755e-11 -1.18121e-10 0)
(-1.03013e-10 -2.40514e-11 0)
(1.64687e-11 -1.43753e-10 0)
(1.23316e-10 -8.06144e-11 0)
(8.61109e-11 9.8521e-11 0)
(-1.45199e-11 2.68535e-10 0)
(-7.5939e-11 3.17673e-10 0)
(-7.14524e-11 4.07168e-10 0)
(-8.70048e-13 3.33012e-10 0)
(6.1996e-11 -8.6261e-11 0)
(2.69554e-11 3.77619e-11 0)
(2.99156e-11 1.04789e-10 0)
(-7.68413e-11 2.72646e-10 0)
(-1.48341e-11 2.54707e-10 0)
(-5.82329e-11 3.20838e-10 0)
(8.49341e-11 1.92991e-10 0)
(-6.87926e-11 2.09378e-10 0)
(1.78761e-10 -5.31432e-11 0)
(-7.61603e-11 4.63055e-11 0)
(-1.27464e-10 -5.09574e-11 0)
(9.89762e-11 -1.47481e-10 0)
(-1.47897e-10 -1.68804e-11 0)
(-2.43569e-10 5.12496e-11 0)
(1.99212e-12 7.64713e-11 0)
(1.16495e-10 1.06917e-10 0)
(1.02571e-10 2.32117e-10 0)
(1.18222e-10 2.85645e-10 0)
(7.92726e-11 3.57887e-10 0)
(1.297e-11 2.68212e-10 0)
(-6.82777e-11 -1.15648e-10 0)
(1.88861e-11 3.73924e-11 0)
(4.47604e-11 8.81799e-11 0)
(-7.61509e-11 2.31698e-10 0)
(6.81733e-12 1.6431e-10 0)
(-1.35745e-10 3.84296e-10 0)
(1.0267e-10 1.12409e-10 0)
(-1.05685e-10 2.66006e-10 0)
(1.22283e-10 1.67204e-11 0)
(1.90028e-10 -9.9426e-11 0)
(-2.42747e-10 1.17284e-10 0)
(-4.834e-11 -1.17183e-11 0)
(1.20291e-11 -3.80173e-11 0)
(-1.89406e-10 1.37557e-10 0)
(-1.84554e-10 2.14805e-10 0)
(-2.60054e-11 1.73712e-10 0)
(1.29864e-10 2.24083e-10 0)
(1.9718e-10 2.08713e-10 0)
(1.05595e-10 2.04731e-10 0)
(-3.95791e-11 1.39946e-10 0)
(-1.55033e-10 -1.29129e-10 0)
(-7.12116e-13 5.07445e-11 0)
(8.58611e-12 1.11723e-10 0)
(-3.45537e-11 1.32239e-10 0)
(-2.11325e-11 2.47159e-10 0)
(-6.67449e-11 2.87848e-10 0)
(1.94186e-11 2.14779e-10 0)
(9.39539e-11 1.71863e-10 0)
(-1.74978e-10 1.76283e-10 0)
(4.08601e-10 -3.11052e-10 0)
(1.01084e-10 -1.30868e-10 0)
(-2.34003e-10 -1.0815e-12 0)
(-7.31081e-11 -4.08174e-11 0)
(-1.44838e-10 9.474e-11 0)
(-3.06382e-10 2.60943e-10 0)
(-2.20363e-10 3.0763e-10 0)
(7.00029e-12 3.32492e-10 0)
(1.63067e-10 2.10469e-10 0)
(1.56984e-10 1.11513e-10 0)
(9.0164e-11 -5.60707e-12 0)
(-8.36413e-11 -2.07572e-10 0)
(-2.86784e-11 7.35509e-11 0)
(-3.84604e-11 4.37728e-11 0)
(2.57304e-11 -3.33187e-11 0)
(-6.58741e-11 2.18329e-10 0)
(7.28555e-11 3.64949e-11 0)
(-2.10019e-10 5.19528e-10 0)
(2.4338e-10 -8.1781e-11 0)
(-4.67716e-10 4.73607e-10 0)
(-3.37611e-11 -2.93372e-11 0)
(3.82223e-10 -2.90432e-10 0)
(-1.57134e-11 -1.01346e-10 0)
(-5.20677e-11 -3.74295e-11 0)
(-3.80105e-11 2.04481e-11 0)
(-2.00717e-10 1.73849e-10 0)
(-2.55959e-10 2.79157e-10 0)
(-1.58176e-10 3.09522e-10 0)
(-1.07831e-11 1.99506e-10 0)
(7.01026e-11 8.73651e-11 0)
(8.91789e-11 -3.05763e-11 0)
(-1.19805e-11 -1.69197e-10 0)
(-6.40612e-11 9.38971e-11 0)
(-1.56915e-10 -3.85773e-13 0)
(-9.84973e-12 -5.22824e-11 0)
(-5.39968e-11 2.44273e-10 0)
(2.62673e-10 2.08566e-10 0)
(-2.51486e-10 6.80738e-10 0)
(4.07087e-10 -3.091e-10 0)
(2.65955e-11 1.83378e-10 0)
(-6.79647e-10 3.59012e-10 0)
(1.54891e-10 -2.30588e-10 0)
(1.55958e-10 -2.30637e-10 0)
(1.04868e-12 -1.06674e-10 0)
(3.93275e-12 -3.3479e-11 0)
(-9.51109e-11 1.02901e-10 0)
(-2.33543e-10 2.2146e-10 0)
(-2.57419e-10 2.93839e-10 0)
(-1.30339e-10 2.41888e-10 0)
(-1.325e-12 1.61449e-10 0)
(1.12622e-10 1.881e-11 0)
(1.01141e-10 -1.46701e-10 0)
(-1.25269e-10 -2.35383e-11 0)
(-2.45034e-10 6.44756e-11 0)
(4.66172e-12 1.61381e-10 0)
(1.18961e-10 5.93893e-11 0)
(2.72836e-10 3.66749e-10 0)
(-2.25083e-10 2.75011e-10 0)
(-3.92576e-10 -5.75624e-10 0)
(1.50103e-09 -2.17158e-09 0)
(-6.57681e-10 8.51949e-11 0)
(-4.0448e-10 8.59863e-11 0)
(1.50081e-10 -7.65066e-11 0)
(9.46345e-11 -4.91128e-11 0)
(6.56271e-11 -4.74872e-11 0)
(1.4424e-12 -1.68512e-11 0)
(-1.46817e-10 5.80271e-11 0)
(-2.18888e-10 1.7166e-10 0)
(-1.38069e-10 2.04123e-10 0)
(-3.65204e-11 1.86517e-10 0)
(1.26816e-10 8.44874e-11 0)
(1.22445e-10 -7.78051e-11 0)
(5.32793e-12 -1.99357e-10 0)
(-4.24243e-11 8.92386e-11 0)
(-1.28995e-10 4.18046e-10 0)
(1.08861e-10 1.59355e-11 0)
(1.40697e-10 -1.01986e-10 0)
(1.47918e-09 -1.21911e-09 0)
(-2.82328e-09 1.70114e-09 0)
(5.72742e-10 1.36962e-09 0)
(2.25821e-09 -1.06186e-10 0)
(-1.62769e-10 4.3603e-10 0)
(-6.19773e-11 2.26896e-10 0)
(-4.82592e-11 2.31246e-11 0)
(-1.02629e-10 -1.30894e-10 0)
(-7.02175e-11 -1.86247e-10 0)
(-5.60492e-11 -1.1624e-10 0)
(-7.82041e-11 1.91411e-11 0)
(-7.3721e-11 1.09202e-10 0)
(-5.39072e-11 1.3412e-10 0)
(5.29994e-11 1.19844e-10 0)
(5.93502e-11 2.8737e-11 0)
(2.03148e-10 -1.23435e-10 0)
(1.99436e-10 4.40541e-11 0)
(-8.07864e-11 2.96308e-10 0)
(-2.0821e-10 1.57607e-10 0)
(-5.54272e-10 -1.94118e-10 0)
(-8.77758e-10 -1.15693e-09 0)
(2.71871e-09 2.0883e-09 0)
(-1.53458e-09 3.36666e-09 0)
(-1.25353e-09 -1.98423e-11 0)
(3.93714e-11 1.80156e-10 0)
(-4.20035e-10 9.42947e-11 0)
(-4.17456e-10 -4.08599e-11 0)
(-2.92181e-10 -1.06407e-10 0)
(-3.90296e-11 -8.54927e-11 0)
(1.23264e-10 -7.31527e-12 0)
(9.54871e-11 8.20034e-11 0)
(4.61106e-12 1.00928e-10 0)
(-5.40051e-11 9.29328e-11 0)
(1.98433e-11 3.66864e-11 0)
(-7.52527e-12 -4.34701e-11 0)
)
;

boundaryField
{
    sides
    {
        type            calculated;
        value           nonuniform List<vector> 
40
(
(2.03148e-10 0 0)
(1.99436e-10 0 0)
(-8.07864e-11 0 0)
(-2.0821e-10 0 0)
(-5.54272e-10 0 0)
(-8.77758e-10 0 0)
(2.71871e-09 0 0)
(-1.53458e-09 0 0)
(-1.25353e-09 0 0)
(3.93714e-11 0 0)
(-4.20035e-10 0 0)
(-4.17456e-10 0 0)
(-2.92181e-10 0 0)
(-3.90296e-11 0 0)
(1.23264e-10 0 0)
(9.54871e-11 0 0)
(4.61106e-12 0 0)
(-5.40051e-11 0 0)
(1.98433e-11 0 0)
(-7.52527e-12 0 0)
(2.5178e-10 0 0)
(3.22412e-10 0 0)
(7.32697e-11 0 0)
(-2.79917e-10 0 0)
(1.66618e-10 0 0)
(-1.22817e-09 0 0)
(-1.34009e-09 0 0)
(-1.8843e-09 0 0)
(5.02561e-10 0 0)
(4.48544e-10 0 0)
(7.2657e-11 0 0)
(-9.6052e-11 0 0)
(-6.64004e-11 0 0)
(1.47576e-10 0 0)
(3.10142e-10 0 0)
(2.36038e-10 0 0)
(1.80494e-11 0 0)
(-8.91606e-11 0 0)
(-1.2197e-10 0 0)
(-1.78614e-11 0 0)
)
;
    }
    inlet
    {
        type            calculated;
        value           uniform (0 0 0);
    }
    outlet
    {
        type            calculated;
        value           nonuniform List<vector> 
20
(
(-1.78614e-11 -7.07189e-11 0)
(3.02731e-11 -2.65935e-11 0)
(6.963e-11 -8.54143e-11 0)
(4.18777e-11 -5.77291e-11 0)
(-3.25204e-11 -3.71167e-11 0)
(-1.59996e-10 -1.33339e-10 0)
(-1.70643e-10 -1.67673e-10 0)
(-1.41615e-10 -2.60823e-10 0)
(2.82519e-11 -2.69724e-10 0)
(1.45743e-10 -2.41887e-10 0)
(1.88304e-10 -1.54865e-10 0)
(6.1996e-11 -8.6261e-11 0)
(-6.82777e-11 -1.15648e-10 0)
(-1.55033e-10 -1.29129e-10 0)
(-8.36413e-11 -2.07572e-10 0)
(-1.19805e-11 -1.69197e-10 0)
(1.01141e-10 -1.46701e-10 0)
(1.22445e-10 -7.78051e-11 0)
(5.93502e-11 2.8737e-11 0)
(-7.52527e-12 -4.34701e-11 0)
)
;
    }
    frontAndBack
    {
        type            empty;
    }
}


// ************************************************************************* //
