/*--------------------------------*- C++ -*----------------------------------*\
  =========                 |
  \\      /  F ield         | OpenFOAM: The Open Source CFD Toolbox
   \\    /   O peration     | Website:  https://openfoam.org
    \\  /    A nd           | Version:  7
     \\/     M anipulation  |
\*---------------------------------------------------------------------------*/
FoamFile
{
    version     2.0;
    format      ascii;
    class       volVectorField;
    location    "75";
    object      hU;
}
// * * * * * * * * * * * * * * * * * * * * * * * * * * * * * * * * * * * * * //

dimensions      [0 2 -1 0 0 0 0];

internalField   nonuniform List<vector> 
400
(
(0.001 -8.7145e-09 0)
(0.000999999 -2.37507e-08 0)
(0.001 -3.60277e-08 0)
(0.001 -4.67818e-08 0)
(0.00100001 -5.69331e-08 0)
(0.00100001 -6.74271e-08 0)
(0.00100002 -7.80824e-08 0)
(0.00100003 -8.925e-08 0)
(0.00100004 -9.99553e-08 0)
(0.00100006 -1.1193e-07 0)
(0.00100007 -1.22641e-07 0)
(0.0010001 -1.3612e-07 0)
(0.00100011 -1.46463e-07 0)
(0.00100015 -1.63289e-07 0)
(0.00100017 -1.72138e-07 0)
(0.00100024 -1.96308e-07 0)
(0.00100026 -2.00848e-07 0)
(0.00100038 -2.43096e-07 0)
(0.00100038 -2.39264e-07 0)
(0.00100061 -3.31889e-07 0)
(0.001 4.01656e-09 0)
(0.001 1.21178e-08 0)
(0.00100001 2.02087e-08 0)
(0.00100001 2.79318e-08 0)
(0.00100002 3.51914e-08 0)
(0.00100002 4.17352e-08 0)
(0.00100003 4.77585e-08 0)
(0.00100004 5.30755e-08 0)
(0.00100005 5.84463e-08 0)
(0.00100007 6.22973e-08 0)
(0.00100008 6.69517e-08 0)
(0.0010001 6.85808e-08 0)
(0.00100012 7.27101e-08 0)
(0.00100016 6.99046e-08 0)
(0.00100018 7.40494e-08 0)
(0.00100023 6.16883e-08 0)
(0.00100026 6.7158e-08 0)
(0.00100035 3.17577e-08 0)
(0.00100037 3.98239e-08 0)
(0.0010005 -5.46208e-08 0)
(0.001 -3.95919e-09 0)
(0.000999999 -1.30088e-08 0)
(0.001 -2.30555e-08 0)
(0.001 -3.36735e-08 0)
(0.00100001 -4.42784e-08 0)
(0.00100001 -5.50915e-08 0)
(0.00100002 -6.57944e-08 0)
(0.00100003 -7.74371e-08 0)
(0.00100004 -8.89514e-08 0)
(0.00100005 -1.02574e-07 0)
(0.00100006 -1.15245e-07 0)
(0.00100009 -1.32347e-07 0)
(0.0010001 -1.46402e-07 0)
(0.00100014 -1.69918e-07 0)
(0.00100016 -1.85052e-07 0)
(0.00100021 -2.2111e-07 0)
(0.00100023 -2.35736e-07 0)
(0.00100031 -2.97666e-07 0)
(0.00100033 -3.0638e-07 0)
(0.00100046 -4.22271e-07 0)
(0.001 -1.69214e-10 0)
(0.001 -1.86202e-11 0)
(0.00100001 6.58204e-10 0)
(0.00100001 1.33629e-09 0)
(0.00100001 1.95431e-09 0)
(0.00100002 1.80452e-09 0)
(0.00100003 1.40767e-09 0)
(0.00100004 -4.63617e-10 0)
(0.00100004 -2.5093e-09 0)
(0.00100006 -7.11535e-09 0)
(0.00100007 -1.11928e-08 0)
(0.00100009 -2.03948e-08 0)
(0.00100011 -2.7047e-08 0)
(0.00100013 -4.41445e-08 0)
(0.00100016 -5.34419e-08 0)
(0.00100019 -8.49262e-08 0)
(0.00100022 -9.55376e-08 0)
(0.00100028 -1.54767e-07 0)
(0.0010003 -1.61188e-07 0)
(0.00100039 -2.76e-07 0)
(0.001 -2.90239e-09 0)
(0.001 -9.20432e-09 0)
(0.001 -1.62539e-08 0)
(0.001 -2.4329e-08 0)
(0.00100001 -3.30424e-08 0)
(0.00100001 -4.28273e-08 0)
(0.00100002 -5.29362e-08 0)
(0.00100002 -6.46532e-08 0)
(0.00100003 -7.65497e-08 0)
(0.00100004 -9.1252e-08 0)
(0.00100005 -1.05572e-07 0)
(0.00100007 -1.25307e-07 0)
(0.00100009 -1.42599e-07 0)
(0.00100011 -1.70794e-07 0)
(0.00100013 -1.91112e-07 0)
(0.00100016 -2.34258e-07 0)
(0.00100018 -2.55828e-07 0)
(0.00100024 -3.26645e-07 0)
(0.00100025 -3.41775e-07 0)
(0.00100033 -4.64563e-07 0)
(0.001 -2.53956e-09 0)
(0.001 -7.49652e-09 0)
(0.001 -1.21842e-08 0)
(0.00100001 -1.69694e-08 0)
(0.00100001 -2.18024e-08 0)
(0.00100001 -2.74141e-08 0)
(0.00100002 -3.33877e-08 0)
(0.00100002 -4.1037e-08 0)
(0.00100003 -4.90496e-08 0)
(0.00100004 -6.01978e-08 0)
(0.00100005 -7.12442e-08 0)
(0.00100006 -8.81162e-08 0)
(0.00100008 -1.03003e-07 0)
(0.0010001 -1.29271e-07 0)
(0.00100011 -1.48184e-07 0)
(0.00100014 -1.90209e-07 0)
(0.00100016 -2.11091e-07 0)
(0.0010002 -2.80671e-07 0)
(0.00100021 -2.94904e-07 0)
(0.00100027 -4.15211e-07 0)
(0.001 -2.86042e-09 0)
(0.001 -8.82292e-09 0)
(0.001 -1.51288e-08 0)
(0.001 -2.21937e-08 0)
(0.00100001 -2.99753e-08 0)
(0.00100001 -3.90176e-08 0)
(0.00100001 -4.88509e-08 0)
(0.00100002 -6.0614e-08 0)
(0.00100002 -7.30041e-08 0)
(0.00100003 -8.87317e-08 0)
(0.00100004 -1.04479e-07 0)
(0.00100005 -1.26281e-07 0)
(0.00100006 -1.46164e-07 0)
(0.00100007 -1.77667e-07 0)
(0.00100009 -2.01673e-07 0)
(0.00100011 -2.4912e-07 0)
(0.00100012 -2.74791e-07 0)
(0.00100015 -3.497e-07 0)
(0.00100016 -3.67593e-07 0)
(0.00100021 -4.9243e-07 0)
(0.001 -3.15438e-09 0)
(0.001 -9.69243e-09 0)
(0.001 -1.65115e-08 0)
(0.001 -2.39354e-08 0)
(0.001 -3.18558e-08 0)
(0.00100001 -4.08141e-08 0)
(0.00100001 -5.03534e-08 0)
(0.00100001 -6.16915e-08 0)
(0.00100002 -7.36304e-08 0)
(0.00100002 -8.88894e-08 0)
(0.00100003 -1.04282e-07 0)
(0.00100004 -1.25842e-07 0)
(0.00100004 -1.45674e-07 0)
(0.00100005 -1.77215e-07 0)
(0.00100006 -2.01543e-07 0)
(0.00100008 -2.49183e-07 0)
(0.00100009 -2.75363e-07 0)
(0.00100011 -3.50017e-07 0)
(0.00100012 -3.68059e-07 0)
(0.00100015 -4.91097e-07 0)
(0.001 -3.33104e-09 0)
(0.001 -1.01884e-08 0)
(0.001 -1.72836e-08 0)
(0.001 -2.49935e-08 0)
(0.001 -3.32043e-08 0)
(0.001 -4.25821e-08 0)
(0.00100001 -5.26709e-08 0)
(0.00100001 -6.4772e-08 0)
(0.00100001 -7.76466e-08 0)
(0.00100001 -9.40311e-08 0)
(0.00100002 -1.1072e-07 0)
(0.00100002 -1.33761e-07 0)
(0.00100003 -1.55134e-07 0)
(0.00100003 -1.88454e-07 0)
(0.00100004 -2.14502e-07 0)
(0.00100005 -2.64117e-07 0)
(0.00100005 -2.91874e-07 0)
(0.00100007 -3.68528e-07 0)
(0.00100007 -3.87612e-07 0)
(0.00100009 -5.12756e-07 0)
(0.001 -3.41287e-09 0)
(0.001 -1.0425e-08 0)
(0.001 -1.76673e-08 0)
(0.001 -2.55511e-08 0)
(0.001 -3.39832e-08 0)
(0.001 -4.36461e-08 0)
(0.001 -5.40737e-08 0)
(0.001 -6.65493e-08 0)
(0.001 -7.98074e-08 0)
(0.001 -9.65773e-08 0)
(0.00100001 -1.13663e-07 0)
(0.00100001 -1.37075e-07 0)
(0.00100001 -1.58857e-07 0)
(0.00100001 -1.92547e-07 0)
(0.00100001 -2.19022e-07 0)
(0.00100002 -2.68924e-07 0)
(0.00100002 -2.97082e-07 0)
(0.00100002 -3.73794e-07 0)
(0.00100002 -3.93177e-07 0)
(0.00100003 -5.17739e-07 0)
(0.001 -3.41507e-09 0)
(0.001 -1.04194e-08 0)
(0.001 -1.76732e-08 0)
(0.000999999 -2.55484e-08 0)
(0.000999999 -3.39894e-08 0)
(0.000999999 -4.36436e-08 0)
(0.000999998 -5.40769e-08 0)
(0.000999997 -6.65478e-08 0)
(0.000999996 -7.98033e-08 0)
(0.000999995 -9.65857e-08 0)
(0.000999994 -1.13662e-07 0)
(0.000999993 -1.37078e-07 0)
(0.000999991 -1.58877e-07 0)
(0.000999989 -1.9256e-07 0)
(0.000999987 -2.19018e-07 0)
(0.000999984 -2.68912e-07 0)
(0.000999982 -2.97068e-07 0)
(0.000999978 -3.73775e-07 0)
(0.000999977 -3.93157e-07 0)
(0.00099997 -5.17728e-07 0)
(0.001 -3.3346e-09 0)
(0.001 -1.01848e-08 0)
(0.000999999 -1.72879e-08 0)
(0.000999998 -2.4985e-08 0)
(0.000999997 -3.32105e-08 0)
(0.000999996 -4.25784e-08 0)
(0.000999994 -5.26735e-08 0)
(0.000999992 -6.4772e-08 0)
(0.000999989 -7.76324e-08 0)
(0.000999986 -9.40425e-08 0)
(0.000999983 -1.10723e-07 0)
(0.000999978 -1.33759e-07 0)
(0.000999973 -1.55161e-07 0)
(0.000999967 -1.88477e-07 0)
(0.000999961 -2.14499e-07 0)
(0.000999952 -2.64085e-07 0)
(0.000999946 -2.91831e-07 0)
(0.000999934 -3.68459e-07 0)
(0.00099993 -3.87546e-07 0)
(0.000999911 -5.12684e-07 0)
(0.001 -3.16086e-09 0)
(0.001 -9.69764e-09 0)
(0.000999999 -1.64965e-08 0)
(0.000999998 -2.39289e-08 0)
(0.000999996 -3.18446e-08 0)
(0.000999993 -4.082e-08 0)
(0.000999991 -5.03474e-08 0)
(0.000999987 -6.17017e-08 0)
(0.000999983 -7.36173e-08 0)
(0.000999977 -8.88827e-08 0)
(0.000999971 -1.04293e-07 0)
(0.000999964 -1.25845e-07 0)
(0.000999956 -1.45684e-07 0)
(0.000999945 -1.77238e-07 0)
(0.000999936 -2.0157e-07 0)
(0.000999921 -2.49186e-07 0)
(0.000999911 -2.75353e-07 0)
(0.000999889 -3.49986e-07 0)
(0.000999882 -3.68034e-07 0)
(0.000999852 -4.91073e-07 0)
(0.001 -2.86876e-09 0)
(0.000999999 -8.82367e-09 0)
(0.000999998 -1.51105e-08 0)
(0.000999996 -2.21929e-08 0)
(0.000999994 -2.99545e-08 0)
(0.000999991 -3.90356e-08 0)
(0.000999987 -4.88426e-08 0)
(0.000999982 -6.06226e-08 0)
(0.000999977 -7.30122e-08 0)
(0.000999969 -8.86988e-08 0)
(0.000999962 -1.04462e-07 0)
(0.000999951 -1.26262e-07 0)
(0.000999941 -1.46133e-07 0)
(0.000999925 -1.77637e-07 0)
(0.000999913 -2.01664e-07 0)
(0.000999891 -2.49089e-07 0)
(0.000999878 -2.74757e-07 0)
(0.000999847 -3.49618e-07 0)
(0.000999839 -3.67513e-07 0)
(0.000999792 -4.92286e-07 0)
(0.001 -2.53913e-09 0)
(0.000999999 -7.49027e-09 0)
(0.000999997 -1.21868e-08 0)
(0.000999995 -1.69739e-08 0)
(0.000999991 -2.18126e-08 0)
(0.000999987 -2.74308e-08 0)
(0.000999982 -3.34032e-08 0)
(0.000999975 -4.10355e-08 0)
(0.000999968 -4.90968e-08 0)
(0.000999959 -6.02092e-08 0)
(0.000999949 -7.12383e-08 0)
(0.000999935 -8.81139e-08 0)
(0.000999922 -1.02994e-07 0)
(0.000999903 -1.2926e-07 0)
(0.000999887 -1.48197e-07 0)
(0.000999859 -1.90232e-07 0)
(0.000999841 -2.11129e-07 0)
(0.000999802 -2.80691e-07 0)
(0.000999787 -2.94923e-07 0)
(0.000999731 -4.15199e-07 0)
(0.001 -2.88003e-09 0)
(0.001 -9.19902e-09 0)
(0.000999999 -1.62804e-08 0)
(0.000999997 -2.43351e-08 0)
(0.000999994 -3.3069e-08 0)
(0.00099999 -4.27764e-08 0)
(0.000999984 -5.29559e-08 0)
(0.000999977 -6.45951e-08 0)
(0.000999969 -7.65425e-08 0)
(0.000999958 -9.12727e-08 0)
(0.000999946 -1.05567e-07 0)
(0.00099993 -1.25283e-07 0)
(0.000999915 -1.4257e-07 0)
(0.000999891 -1.7074e-07 0)
(0.000999872 -1.91075e-07 0)
(0.000999837 -2.34214e-07 0)
(0.000999817 -2.55815e-07 0)
(0.000999764 -3.2658e-07 0)
(0.000999752 -3.41729e-07 0)
(0.00099967 -4.64412e-07 0)
(0.001 -1.31532e-10 0)
(0.000999998 -2.06681e-11 0)
(0.000999995 6.04131e-10 0)
(0.000999991 1.30401e-09 0)
(0.000999986 1.94441e-09 0)
(0.00099998 1.88142e-09 0)
(0.000999973 1.37745e-09 0)
(0.000999965 -4.60927e-10 0)
(0.000999955 -2.4759e-09 0)
(0.000999943 -7.14262e-09 0)
(0.00099993 -1.1218e-08 0)
(0.000999912 -2.03988e-08 0)
(0.000999894 -2.70443e-08 0)
(0.000999867 -4.41202e-08 0)
(0.000999845 -5.34208e-08 0)
(0.000999805 -8.49004e-08 0)
(0.000999779 -9.55332e-08 0)
(0.00099972 -1.54741e-07 0)
(0.000999699 -1.61175e-07 0)
(0.000999611 -2.75946e-07 0)
(0.001 -3.96897e-09 0)
(0.001 -1.30091e-08 0)
(0.001 -2.30464e-08 0)
(0.000999998 -3.36869e-08 0)
(0.000999995 -4.42426e-08 0)
(0.000999989 -5.50361e-08 0)
(0.000999983 -6.57875e-08 0)
(0.000999974 -7.755e-08 0)
(0.000999963 -8.89285e-08 0)
(0.000999949 -1.02547e-07 0)
(0.000999935 -1.15248e-07 0)
(0.000999914 -1.32353e-07 0)
(0.000999896 -1.46427e-07 0)
(0.000999864 -1.69924e-07 0)
(0.000999841 -1.85059e-07 0)
(0.000999791 -2.21078e-07 0)
(0.000999767 -2.35737e-07 0)
(0.000999687 -2.97623e-07 0)
(0.000999671 -3.06382e-07 0)
(0.000999539 -4.22195e-07 0)
(0.001 3.96064e-09 0)
(0.000999996 1.21007e-08 0)
(0.000999991 2.02828e-08 0)
(0.000999987 2.79923e-08 0)
(0.000999982 3.51855e-08 0)
(0.000999976 4.15109e-08 0)
(0.000999968 4.78346e-08 0)
(0.000999959 5.31048e-08 0)
(0.000999948 5.84167e-08 0)
(0.000999934 6.23325e-08 0)
(0.000999919 6.69576e-08 0)
(0.000999897 6.85637e-08 0)
(0.000999878 7.26728e-08 0)
(0.000999845 6.98937e-08 0)
(0.000999819 7.40612e-08 0)
(0.000999767 6.17533e-08 0)
(0.000999738 6.72083e-08 0)
(0.000999654 3.18462e-08 0)
(0.000999629 3.98833e-08 0)
(0.000999495 -5.44936e-08 0)
(0.001 -8.7401e-09 0)
(0.001 -2.37674e-08 0)
(0.001 -3.59941e-08 0)
(0.000999997 -4.67351e-08 0)
(0.000999993 -5.69763e-08 0)
(0.000999986 -6.76858e-08 0)
(0.000999979 -7.80445e-08 0)
(0.000999968 -8.91634e-08 0)
(0.000999958 -1.00024e-07 0)
(0.000999942 -1.11966e-07 0)
(0.000999928 -1.2269e-07 0)
(0.000999903 -1.36184e-07 0)
(0.000999886 -1.46537e-07 0)
(0.000999846 -1.63352e-07 0)
(0.000999826 -1.72192e-07 0)
(0.00099976 -1.9635e-07 0)
(0.000999742 -2.009e-07 0)
(0.000999623 -2.43162e-07 0)
(0.000999618 -2.3934e-07 0)
(0.000999394 -3.32016e-07 0)
)
;

boundaryField
{
    sides
    {
        type            slip;
    }
    inlet
    {
        type            fixedValue;
        value           uniform (0.001 0 0);
    }
    outlet
    {
        type            zeroGradient;
    }
    frontAndBack
    {
        type            empty;
    }
}


// ************************************************************************* //
