/*--------------------------------*- C++ -*----------------------------------*\
  =========                 |
  \\      /  F ield         | OpenFOAM: The Open Source CFD Toolbox
   \\    /   O peration     | Website:  https://openfoam.org
    \\  /    A nd           | Version:  7
     \\/     M anipulation  |
\*---------------------------------------------------------------------------*/
FoamFile
{
    version     2.0;
    format      ascii;
    class       surfaceScalarField;
    location    "75";
    object      phi;
}
// * * * * * * * * * * * * * * * * * * * * * * * * * * * * * * * * * * * * * //

dimensions      [0 4 -1 0 0 0 0];

internalField   nonuniform List<scalar> 
760
(
4.99999e-06
1.0168e-11
4.99999e-06
-4.29336e-12
5.00001e-06
-1.29932e-11
5.00003e-06
-1.95998e-11
5.00005e-06
-2.64561e-11
5.00009e-06
-3.58466e-11
5.00013e-06
-4.71386e-11
5.00018e-06
-5.11159e-11
5.00025e-06
-6.26408e-11
5.00032e-06
-7.81247e-11
5.00041e-06
-9.00633e-11
5.00053e-06
-1.1387e-10
5.00066e-06
-1.26685e-10
5.00082e-06
-1.67601e-10
5.001e-06
-1.77917e-10
5.00126e-06
-2.5685e-10
5.00151e-06
-2.56322e-10
5.00195e-06
-4.3192e-10
5.00236e-06
-4.14444e-10
-8.91803e-10
5.00002e-06
-1.16348e-11
5.00004e-06
-1.88396e-11
5.00005e-06
-2.92686e-11
5.00007e-06
-4.18582e-11
5.0001e-06
-5.45888e-11
5.00014e-06
-6.89807e-11
5.00018e-06
-8.51858e-11
5.00023e-06
-1.0503e-10
5.00029e-06
-1.2381e-10
5.00037e-06
-1.53373e-10
5.00045e-06
-1.77033e-10
5.00056e-06
-2.21846e-10
5.00069e-06
-2.49909e-10
5.00084e-06
-3.23714e-10
5.00102e-06
-3.53622e-10
5.00125e-06
-4.86032e-10
5.0015e-06
-5.09453e-10
5.00184e-06
-7.68226e-10
5.00218e-06
-7.60515e-10
-1.2624e-09
4.99999e-06
-4.66244e-12
4.99999e-06
-2.02294e-11
5e-06
-3.7446e-11
5.00002e-06
-5.65889e-11
5.00004e-06
-7.67321e-11
5.00007e-06
-9.94716e-11
5.00011e-06
-1.23356e-10
5.00016e-06
-1.52608e-10
5.00021e-06
-1.82997e-10
5.00029e-06
-2.24098e-10
5.00037e-06
-2.62251e-10
5.00047e-06
-3.22933e-10
5.00059e-06
-3.71351e-10
5.00074e-06
-4.66925e-10
5.00091e-06
-5.25294e-10
5.00111e-06
-6.86598e-10
5.00135e-06
-7.48213e-10
5.00162e-06
-1.04162e-09
5.00195e-06
-1.08416e-09
-1.69018e-09
5.00001e-06
-1.26758e-11
5.00002e-06
-3.31471e-11
5.00004e-06
-5.40524e-11
5.00006e-06
-7.74176e-11
5.00008e-06
-1.02023e-10
5.00011e-06
-1.31088e-10
5.00015e-06
-1.60831e-10
5.0002e-06
-1.98699e-10
5.00025e-06
-2.36942e-10
5.00032e-06
-2.89031e-10
5.00039e-06
-3.38202e-10
5.00049e-06
-4.14782e-10
5.00059e-06
-4.77567e-10
5.00072e-06
-5.95638e-10
5.00087e-06
-6.72152e-10
5.00105e-06
-8.64762e-10
5.00124e-06
-9.47191e-10
5.00148e-06
-1.28053e-09
5.00173e-06
-1.33266e-09
-1.89886e-09
5e-06
-1.15796e-11
5e-06
-3.62558e-11
5.00001e-06
-6.17816e-11
5.00002e-06
-8.99967e-11
5.00004e-06
-1.20062e-10
5.00006e-06
-1.55051e-10
5.0001e-06
-1.92028e-10
5.00013e-06
-2.37304e-10
5.00018e-06
-2.84133e-10
5.00024e-06
-3.45694e-10
5.00031e-06
-4.0656e-10
5.00039e-06
-4.95046e-10
5.00048e-06
-5.73268e-10
5.00059e-06
-7.06319e-10
5.00072e-06
-8.02702e-10
5.00087e-06
-1.01213e-09
5.00104e-06
-1.11679e-09
5.00122e-06
-1.4622e-09
5.00142e-06
-1.53429e-09
-2.16385e-09
5e-06
-1.37124e-11
5.00001e-06
-4.28523e-11
5.00002e-06
-7.26102e-11
5.00003e-06
-1.04853e-10
5.00005e-06
-1.3914e-10
5.00008e-06
-1.78514e-10
5.00011e-06
-2.20716e-10
5.00014e-06
-2.71833e-10
5.00018e-06
-3.25191e-10
5.00023e-06
-3.94878e-10
5.00029e-06
-4.64025e-10
5.00036e-06
-5.63103e-10
5.00043e-06
-6.51947e-10
5.00053e-06
-7.98826e-10
5.00063e-06
-9.07669e-10
5.00075e-06
-1.13392e-09
5.00089e-06
-1.25153e-09
5.00104e-06
-1.61672e-09
5.00121e-06
-1.6991e-09
-2.29476e-09
5e-06
-1.54524e-11
5.00001e-06
-4.72311e-11
5.00001e-06
-7.99142e-11
5.00002e-06
-1.14884e-10
5.00004e-06
-1.52477e-10
5.00005e-06
-1.95621e-10
5.00008e-06
-2.42217e-10
5.0001e-06
-2.98125e-10
5.00013e-06
-3.57279e-10
5.00017e-06
-4.33125e-10
5.00022e-06
-5.09479e-10
5.00027e-06
-6.16422e-10
5.00033e-06
-7.14516e-10
5.00041e-06
-8.70796e-10
5.00049e-06
-9.90689e-10
5.00058e-06
-1.22716e-09
5.00069e-06
-1.35599e-09
5.0008e-06
-1.72747e-09
5.00091e-06
-1.81415e-09
-2.44346e-09
5e-06
-1.65253e-11
5e-06
-5.02254e-11
5.00001e-06
-8.48571e-11
5.00002e-06
-1.22376e-10
5.00003e-06
-1.62568e-10
5.00004e-06
-2.08744e-10
5.00006e-06
-2.58528e-10
5.00008e-06
-3.18099e-10
5.0001e-06
-3.81259e-10
5.00013e-06
-4.61526e-10
5.00016e-06
-5.42905e-10
5.0002e-06
-6.5562e-10
5.00025e-06
-7.59722e-10
5.0003e-06
-9.22983e-10
5.00036e-06
-1.04981e-09
5.00042e-06
-1.29388e-09
5.0005e-06
-1.42914e-09
5.00058e-06
-1.80834e-09
5.00067e-06
-1.90264e-09
-2.51767e-09
5e-06
-1.71192e-11
5e-06
-5.20854e-11
5.00001e-06
-8.79417e-11
5.00001e-06
-1.27055e-10
5.00002e-06
-1.68868e-10
5.00002e-06
-2.16809e-10
5.00003e-06
-2.68412e-10
5.00005e-06
-3.30128e-10
5.00006e-06
-3.95617e-10
5.00008e-06
-4.78558e-10
5.0001e-06
-5.63017e-10
5.00012e-06
-6.79082e-10
5.00015e-06
-7.86841e-10
5.00018e-06
-9.54189e-10
5.00022e-06
-1.08527e-09
5.00026e-06
-1.3336e-09
5.0003e-06
-1.4729e-09
5.00035e-06
-1.85544e-09
5.00039e-06
-1.95002e-09
-2.57366e-09
5e-06
-1.73251e-11
5e-06
-5.26921e-11
5e-06
-8.90522e-11
5e-06
-1.28637e-10
5.00001e-06
-1.71016e-10
5.00001e-06
-2.19475e-10
5.00001e-06
-2.7171e-10
5.00002e-06
-3.34113e-10
5.00002e-06
-4.00397e-10
5.00003e-06
-4.84299e-10
5.00003e-06
-5.69762e-10
5.00004e-06
-6.86946e-10
5.00005e-06
-7.96019e-10
5.00006e-06
-9.64637e-10
5.00007e-06
-1.09709e-09
5.00009e-06
-1.34671e-09
5.0001e-06
-1.48735e-09
5.00012e-06
-1.87067e-09
5.00013e-06
-1.96715e-09
-2.58992e-09
5e-06
-1.71405e-11
5e-06
-5.20317e-11
5e-06
-8.80042e-11
5e-06
-1.27026e-10
4.99999e-06
-1.68927e-10
4.99999e-06
-2.16782e-10
4.99999e-06
-2.68444e-10
4.99998e-06
-3.30117e-10
4.99998e-06
-3.95581e-10
4.99997e-06
-4.78643e-10
4.99997e-06
-5.6302e-10
4.99996e-06
-6.7911e-10
4.99995e-06
-7.87034e-10
4.99994e-06
-9.54322e-10
4.99993e-06
-1.08524e-09
4.99991e-06
-1.33348e-09
4.9999e-06
-1.47276e-09
4.99988e-06
-1.85522e-09
4.99987e-06
-1.94981e-09
-2.57346e-09
5e-06
-1.65387e-11
5e-06
-5.02508e-11
4.99999e-06
-8.48408e-11
4.99999e-06
-1.22314e-10
4.99998e-06
-1.62566e-10
4.99998e-06
-2.08729e-10
4.99997e-06
-2.58519e-10
4.99995e-06
-3.18114e-10
4.99994e-06
-3.81162e-10
4.99992e-06
-4.6156e-10
4.9999e-06
-5.42945e-10
4.99988e-06
-6.55596e-10
4.99985e-06
-7.59812e-10
4.99982e-06
-9.23114e-10
4.99978e-06
-1.04987e-09
4.99974e-06
-1.29378e-09
4.9997e-06
-1.42895e-09
4.99965e-06
-1.80801e-09
4.99961e-06
-1.90233e-09
-2.51739e-09
5e-06
-1.5507e-11
5e-06
-4.72647e-11
4.99999e-06
-7.97787e-11
4.99998e-06
-1.14883e-10
4.99997e-06
-1.52365e-10
4.99996e-06
-1.9569e-10
4.99994e-06
-2.42159e-10
4.99992e-06
-2.98195e-10
4.9999e-06
-3.57231e-10
4.99987e-06
-4.32989e-10
4.99984e-06
-5.09499e-10
4.9998e-06
-6.16406e-10
4.99975e-06
-7.14454e-10
4.9997e-06
-8.70791e-10
4.99964e-06
-9.90773e-10
4.99958e-06
-1.22713e-09
4.9995e-06
-1.35591e-09
4.99942e-06
-1.72722e-09
4.99933e-06
-1.81392e-09
-2.44306e-09
5e-06
-1.37432e-11
4.99999e-06
-4.28212e-11
4.99999e-06
-7.25702e-11
4.99998e-06
-1.04865e-10
4.99996e-06
-1.39063e-10
4.99995e-06
-1.78667e-10
4.99992e-06
-2.20729e-10
4.9999e-06
-2.7189e-10
4.99987e-06
-3.25384e-10
4.99983e-06
-3.94768e-10
4.99978e-06
-4.63912e-10
4.99973e-06
-5.63032e-10
4.99967e-06
-6.51827e-10
4.99959e-06
-7.98697e-10
4.99951e-06
-9.0767e-10
4.99942e-06
-1.1339e-09
4.99931e-06
-1.25155e-09
4.9992e-06
-1.61658e-09
4.99909e-06
-1.69895e-09
-2.29436e-09
5e-06
-1.15137e-11
4.99999e-06
-3.6202e-11
4.99998e-06
-6.18744e-11
4.99997e-06
-9.00268e-11
4.99995e-06
-1.20253e-10
4.99992e-06
-1.54984e-10
4.99989e-06
-1.9209e-10
4.99986e-06
-2.371e-10
4.99982e-06
-2.84319e-10
4.99977e-06
-3.45852e-10
4.99971e-06
-4.06532e-10
4.99964e-06
-4.94963e-10
4.99957e-06
-5.73165e-10
4.99947e-06
-7.0614e-10
4.99937e-06
-8.0263e-10
4.99925e-06
-1.01208e-09
4.99911e-06
-1.11686e-09
4.99896e-06
-1.4621e-09
4.99879e-06
-1.53424e-09
-2.16345e-09
5e-06
-1.25114e-11
5e-06
-3.31285e-11
4.99999e-06
-5.42302e-11
4.99998e-06
-7.75245e-11
4.99996e-06
-1.02183e-10
4.99994e-06
-1.30582e-10
4.9999e-06
-1.61034e-10
4.99987e-06
-1.98366e-10
4.99982e-06
-2.36723e-10
4.99976e-06
-2.89167e-10
4.99969e-06
-3.38288e-10
4.99961e-06
-4.1475e-10
4.99952e-06
-4.77503e-10
4.99941e-06
-5.95438e-10
4.99928e-06
-6.72e-10
4.99913e-06
-8.64586e-10
4.99896e-06
-9.47165e-10
4.99878e-06
-1.28034e-09
4.99858e-06
-1.33255e-09
-1.89838e-09
4.99999e-06
-4.56878e-12
4.99998e-06
-2.02802e-11
4.99996e-06
-3.75429e-11
4.99994e-06
-5.66563e-11
4.99992e-06
-7.65573e-11
4.99988e-06
-9.93272e-11
4.99985e-06
-1.23482e-10
4.9998e-06
-1.53274e-10
4.99975e-06
-1.82752e-10
4.99968e-06
-2.24051e-10
4.99961e-06
-2.62369e-10
4.99952e-06
-3.23011e-10
4.99941e-06
-3.71422e-10
4.99928e-06
-4.66857e-10
4.99913e-06
-5.25221e-10
4.99896e-06
-6.86416e-10
4.99876e-06
-7.48163e-10
4.99852e-06
-1.0414e-09
4.99827e-06
-1.08409e-09
-1.68981e-09
5.00001e-06
-1.18079e-11
5.00001e-06
-1.89173e-11
5e-06
-2.90514e-11
4.99998e-06
-4.16689e-11
4.99996e-06
-5.42079e-11
4.99993e-06
-6.99562e-11
4.99989e-06
-8.41313e-11
4.99984e-06
-1.05489e-10
4.99978e-06
-1.24019e-10
4.99971e-06
-1.53217e-10
4.99963e-06
-1.7701e-10
4.99953e-06
-2.21873e-10
4.99941e-06
-2.50031e-10
4.99926e-06
-3.23736e-10
4.99909e-06
-3.53632e-10
4.99889e-06
-4.85815e-10
4.99865e-06
-5.09354e-10
4.99838e-06
-7.67892e-10
4.99805e-06
-7.60357e-10
-1.26191e-09
4.99998e-06
9.90622e-12
4.99996e-06
-4.34413e-12
4.99995e-06
-1.26434e-11
4.99993e-06
-1.93767e-11
4.9999e-06
-2.69834e-11
4.99986e-06
-3.19952e-11
4.99982e-06
-3.41375e-11
4.99977e-06
-4.52799e-11
4.99971e-06
-6.25345e-11
4.99963e-06
-7.81251e-11
4.99955e-06
-9.01104e-11
4.99944e-06
-1.13998e-10
4.99932e-06
-1.26912e-10
4.99916e-06
-1.67799e-10
4.99898e-06
-1.78058e-10
4.99875e-06
-2.56831e-10
4.9985e-06
-2.56329e-10
4.99817e-06
-4.31849e-10
4.99782e-06
-4.1446e-10
-8.91786e-10
5.00001e-06
5.00001e-06
4.99999e-06
4.99997e-06
4.99995e-06
4.99991e-06
4.99987e-06
4.99982e-06
4.99975e-06
4.99967e-06
4.99958e-06
4.99947e-06
4.99934e-06
4.99918e-06
4.999e-06
4.99874e-06
4.99849e-06
4.99805e-06
4.99764e-06
)
;

boundaryField
{
    sides
    {
        type            calculated;
        value           uniform 0;
    }
    inlet
    {
        type            calculated;
        value           nonuniform List<scalar> 
20
(
-5e-06
-5e-06
-5e-06
-5e-06
-5e-06
-5e-06
-5e-06
-5e-06
-5e-06
-5e-06
-5e-06
-5e-06
-5e-06
-5e-06
-5e-06
-5e-06
-5e-06
-5e-06
-5e-06
-5e-06
)
;
    }
    outlet
    {
        type            calculated;
        value           nonuniform List<scalar> 
20
(
5.00325e-06
5.00255e-06
5.00237e-06
5.00194e-06
5.00169e-06
5.00134e-06
5.00106e-06
5.00074e-06
5.00045e-06
5.00015e-06
4.99985e-06
4.99955e-06
4.99926e-06
4.99894e-06
4.99866e-06
4.99831e-06
4.99806e-06
4.99763e-06
4.99745e-06
4.99675e-06
)
;
    }
    frontAndBack
    {
        type            empty;
        value           nonuniform 0();
    }
}


// ************************************************************************* //
