/*--------------------------------*- C++ -*----------------------------------*\
  =========                 |
  \\      /  F ield         | OpenFOAM: The Open Source CFD Toolbox
   \\    /   O peration     | Website:  https://openfoam.org
    \\  /    A nd           | Version:  7
     \\/     M anipulation  |
\*---------------------------------------------------------------------------*/
FoamFile
{
    version     2.0;
    format      ascii;
    class       volScalarField;
    location    "1000";
    object      epsilon;
}
// * * * * * * * * * * * * * * * * * * * * * * * * * * * * * * * * * * * * * //

dimensions      [0 2 -3 0 0 0 0];

internalField   nonuniform List<scalar> 
120313
(
65.8309
72.4028
79.636
85.8423
89.1175
90.5599
91.0232
90.5888
89.1193
86.613
82.4838
78.6296
74.382
69.5682
65.1557
61.8433
58.6488
55.7746
52.6622
49.8599
46.9154
44.1958
41.5305
38.7775
65.7853
70.7008
77.872
84.8192
88.5341
90.4485
91.4506
90.9958
88.7109
86.5375
83.405
79.7085
75.2559
71.0558
67.013
63.4553
60.1082
56.9455
53.6925
50.6944
47.6882
44.5345
41.2826
39.8902
63.503
67.5673
74.2183
80.8115
84.6834
86.7765
87.9309
87.9898
86.2058
83.9926
80.8787
77.0337
72.7367
68.6701
64.6474
61.1912
57.9596
54.907
51.8035
48.9337
46.0597
42.9992
39.6144
38.8193
62.5664
66.3912
72.9207
79.5298
83.4529
85.6814
87.034
87.3808
85.7804
83.4986
80.2837
76.3399
72.0689
68.0619
64.0062
60.5494
57.3326
54.3134
51.273
48.4629
45.6438
42.6391
39.2701
38.6879
62.3858
66.2517
72.8094
79.4601
83.4142
85.6886
87.0994
87.5048
85.9397
83.6486
80.4082
76.4417
72.1605
68.1584
64.0684
60.6076
57.406
54.3939
51.3549
48.5477
45.7297
42.725
39.3251
38.7564
63.0813
67.2373
73.9953
80.7641
84.7471
86.9911
88.3128
88.4699
86.8548
84.6394
81.4393
77.4663
73.1405
69.1068
65.0106
61.536
58.2953
55.2165
52.094
49.2124
46.3341
43.2767
39.8001
39.0329
65.4075
70.529
77.9232
85.1945
89.1831
91.3413
92.471
92.0962
90.2504
88.0893
84.8883
80.8136
76.3132
72.1215
67.9648
64.3738
60.9916
57.7385
54.4251
51.3732
48.34
45.1775
41.8142
40.3983
67.0345
73.953
81.7215
88.8269
92.4166
94.2348
94.9788
94.5391
93.0841
90.4455
86.2803
82.1071
77.3918
72.4537
67.9255
64.6805
61.2662
58.1326
54.8378
51.8727
48.8417
46.0499
43.0563
40.1279
1.69295
3.61065
6.04133
9.14371
13.1238
18.3239
25.3422
34.8111
44.2591
52.9583
61.6665
69.0967
73.7222
76.7592
78.2189
78.5947
78.1865
77.1418
75.5713
73.4509
70.553
67.2776
63.7041
59.9383
56.4568
53.0292
49.7665
46.6466
43.6793
40.9126
38.2926
35.8487
33.5497
31.4032
29.4551
28.0711
1.70876
3.60317
6.03034
9.11607
13.0884
18.3307
25.4658
34.8934
45.2911
59.8222
71.6016
81.0698
87.343
90.7976
92.1967
92.4372
91.725
90.2402
88.1506
84.6417
81.1071
76.5715
72.1821
67.6916
63.4256
59.1925
55.2159
51.327
47.8463
44.405
41.3641
38.4217
35.3229
32.5006
30.2034
28.2573
1.58698
3.4573
5.82267
8.81869
12.6642
17.7481
24.6888
33.9181
44.5389
59.5907
73.4453
84.5792
90.6133
94.6868
96.5001
96.998
96.4048
94.645
92.133
88.3549
84.3392
79.8552
75.0708
70.3306
65.8755
61.4279
57.2734
53.2236
49.6218
46.0585
42.8453
39.7765
36.2818
33.1102
30.9726
28.7157
1.51368
3.36417
5.67685
8.59047
12.3136
17.2319
23.937
32.8438
43.4733
58.9316
73.303
84.5176
91.9886
96.1513
98.0293
98.78
98.7889
96.2876
93.8819
89.8344
85.6048
80.8376
76.0249
71.1793
66.7031
62.1751
57.9646
53.8664
50.2085
46.6162
43.3438
40.2459
36.5105
33.427
31.0551
28.8296
1.56578
3.37877
5.66731
8.54116
12.2031
17.0321
23.5839
32.2597
42.8398
58.4664
73.0093
84.3456
92.0632
96.4805
98.5327
99.4514
99.3112
96.8511
94.3886
90.248
85.9153
81.0699
76.2335
71.3353
66.8906
62.3169
58.1148
54.0069
50.3641
46.7796
43.52
40.4255
36.6465
33.5837
31.2325
28.9818
1.58763
3.36954
5.64049
8.49358
12.1294
16.9252
23.4304
32.0422
42.6334
58.269
72.7852
84.1525
91.8916
96.357
98.4773
99.4756
99.2532
96.8599
94.3867
90.2483
85.9003
81.0479
76.2222
71.3124
66.8775
62.3028
58.1097
54.0103
50.374
46.796
43.5472
40.4519
36.692
33.6313
31.3444
29.0827
1.5334
3.3041
5.56839
8.42532
12.077
16.9026
23.4688
32.1691
42.8576
58.5156
72.7679
84.0681
91.5994
95.8762
97.9076
98.8123
98.8176
96.3876
93.9219
89.882
85.6162
80.8265
76.0241
71.1633
66.7283
62.1894
57.9942
53.9011
50.2551
46.6757
43.4271
40.3239
36.6524
33.504
31.4339
29.1107
1.43967
3.21618
5.48428
8.37028
12.0803
17.0004
23.7498
32.7578
43.7231
59.2725
72.8853
84.2264
90.3216
94.5245
96.5318
97.3576
97.0532
95.0906
92.4665
88.6947
84.7318
80.0603
75.2862
70.518
66.0979
61.6279
57.4743
53.4306
49.8297
46.2716
43.0708
39.967
36.5664
33.2214
31.7202
29.225
1.44517
3.21328
5.51337
8.47873
12.3261
17.4628
24.5664
34.1292
45.3107
60.2626
72.2032
82.5409
87.9654
91.7445
93.5396
94.0217
93.6333
92.4831
89.8424
86.1421
82.3791
77.8288
73.2588
68.6824
64.3455
60.0671
56.0422
52.1188
48.5966
45.1408
42.0579
39.0569
35.977
32.9231
31.5565
29.3232
1.43605
3.18445
5.49608
8.50524
12.4233
17.6718
24.9628
34.8756
46.0017
59.3306
69.424
78.1698
83.8913
87.1649
88.5943
88.9373
88.4192
87.2109
85.4861
82.7718
79.2318
74.9936
70.7649
66.4347
62.3264
58.3578
54.5472
50.8685
47.4407
44.2331
41.2295
38.5531
35.8608
32.7866
31.638
29.3876
1.36559
3.12447
5.46017
8.50856
12.4665
17.7403
25.0281
34.8542
44.5483
53.9001
62.8741
70.2045
75.2227
78.4601
80.1448
80.693
80.4213
79.4947
78.0015
75.8152
73.0351
69.4269
65.542
61.6243
57.9037
54.3799
51.0044
47.76
44.6764
41.7888
39.0857
36.5723
34.2256
32.0045
30.1024
28.4237
1.13935
2.95778
5.29864
8.37448
12.3572
17.5826
24.6206
34.0597
43.8721
52.4567
61.2831
69.1581
73.9589
77.3428
79.1366
79.7999
79.6214
78.7738
77.1996
75.0151
72.2738
68.7944
64.9597
61.0579
57.3401
53.7532
50.3249
47.0506
43.944
41.0142
38.2835
35.7659
33.4317
31.3588
29.4396
27.988
86.2209
101.555
118.185
128.692
134.034
135.416
134.171
130.928
126.052
120.388
114.09
108.338
101.611
94.9049
88.3237
81.965
75.9011
70.1529
64.8068
59.8049
55.2735
51.0757
47.327
44.1512
1.64887
3.24115
5.59678
8.86089
13.3494
19.4917
27.7688
38.6559
55.1882
83.1399
99.1391
115.478
125.564
130.763
132.207
131.19
128.294
123.796
118.146
111.884
106.056
99.4398
93.5836
86.9892
80.7675
74.8097
69.2313
63.9927
59.1511
54.6784
50.6078
46.8311
43.5529
40.5402
37.0957
34.4973
1.60874
3.17128
5.5227
8.78099
13.2868
19.4978
27.9218
39.0181
55.8417
83.9381
100.284
116.888
126.825
131.914
133.089
131.852
128.695
123.957
117.981
111.649
105.569
99.1779
92.7183
86.2536
80.0951
74.1859
68.6766
63.4992
58.7714
54.3552
50.3808
46.6286
43.246
40.003
37.5578
34.7803
1.51288
3.03823
5.3385
8.52978
12.9554
19.0964
27.498
38.6339
55.3205
84.126
101.145
118.166
128.147
133.325
134.348
132.897
129.302
123.761
118.205
112.119
105.85
99.3135
92.7511
86.2859
80.1405
74.239
68.7491
63.5796
58.8834
54.4548
50.502
46.7308
43.2645
39.8802
37.3676
34.6309
1.4393
2.93578
5.18092
8.29236
12.6029
18.6033
26.8461
37.8037
54.2642
83.3562
100.803
117.986
128.061
133.312
134.267
132.553
128.291
122.917
118.167
112.007
105.663
99.0483
92.4336
85.9722
79.8583
73.9649
68.5093
63.3736
58.7359
54.3467
50.4425
46.6991
43.213
39.7596
37.2623
34.4073
1.45231
2.91735
5.12956
8.1917
12.4283
18.3264
26.4269
37.1977
53.4671
82.7938
100.307
117.492
127.572
132.849
133.689
131.766
127.321
122.393
117.861
111.601
105.197
98.5494
91.9792
85.5154
79.5261
73.4871
68.1102
62.903
58.3769
53.9834
50.169
46.4726
43.0549
39.6377
37.1663
34.2509
1.46148
2.90126
5.09193
8.12611
12.3263
18.1768
26.2115
36.8968
53.0987
82.3855
99.8164
117.044
127.165
132.474
133.31
131.332
126.889
122.091
117.622
111.342
104.938
98.2983
91.7833
85.2955
79.274
73.2543
67.9118
62.7468
58.2421
53.8798
50.0921
46.3903
42.9955
39.5927
37.1279
34.1909
1.42244
2.84936
5.02268
8.04275
12.2356
18.0942
26.1561
36.8915
53.1934
82.3418
99.6278
116.92
127.062
132.381
133.34
131.597
127.217
122.093
117.517
111.336
104.99
98.3907
91.8238
85.4247
79.3893
73.5242
68.14
63.0255
58.4314
54.0952
50.2438
46.5267
43.0906
39.6526
37.1645
34.2457
1.36849
2.79709
4.96727
7.99605
12.2209
18.1495
26.329
37.2329
53.7657
82.548
99.6008
116.813
126.885
132.162
133.251
131.755
127.88
122.344
117.398
111.307
105.077
98.5492
92.0318
85.6405
79.5717
73.7367
68.3221
63.2231
58.5907
54.2128
50.3033
46.5491
43.127
39.7157
37.2129
34.3745
1.37358
2.80135
4.99025
8.06319
12.3738
18.444
26.8185
37.9551
54.7451
82.8649
99.3748
116.276
126.233
131.375
132.559
131.338
128.029
122.911
117.061
111.099
104.929
98.4768
92.0337
85.639
79.565
73.7316
68.3107
63.1928
58.5269
54.1429
50.1884
46.4646
43.0942
39.7687
37.3037
34.5876
1.37844
2.8045
5.01379
8.13237
12.5196
18.6943
27.1811
38.385
55.0837
82.6053
98.7228
115.128
125
130.065
131.349
130.228
127.216
122.591
116.798
110.602
104.773
98.4297
92.0125
85.6484
79.6065
73.7879
68.3544
63.2474
58.5546
54.1978
50.2246
46.5494
43.2156
39.9613
37.5406
34.7907
1.32478
2.75614
4.96297
8.09489
12.4984
18.6777
27.1382
38.2586
55.008
83.2386
99.4717
116.092
126.329
131.675
133.22
132.192
129.195
124.477
118.728
112.335
106.901
100.204
93.8318
87.209
80.9129
74.8747
69.2276
63.9413
59.0816
54.5814
50.5339
46.7381
43.4263
40.3545
36.9145
34.297
1.19544
2.64523
4.81899
7.92355
12.2761
18.3805
26.7866
37.9526
55.1159
84.3868
101.863
119.176
129.971
135.568
137.132
135.987
132.742
127.515
121.518
115.126
109.669
102.656
95.7995
88.9261
82.3383
76.0432
70.1661
64.6955
59.6803
55.0681
50.9538
47.0868
43.7906
40.6243
37.0114
34.2499
144.911
150.6
161.992
167.752
167.172
162.625
155.405
146.709
137.373
127.948
118.797
110.102
101.94
94.2087
87.1789
80.6566
74.6838
69.1735
64.1344
59.5103
55.2851
51.4415
48.05
45.0634
1.35916
2.77785
5.40503
9.98843
17.6762
28.8525
43.2011
60.9296
93.7323
144.03
149.23
160.748
167.109
166.8
162.718
155.839
147.368
138.196
128.818
119.642
110.859
102.617
94.9628
87.9104
81.4655
75.3794
69.8268
64.6491
59.9812
55.669
51.757
48.1664
45.0154
41.9464
41.3093
38.6556
1.32952
2.70772
5.35534
10.1281
18.1401
29.7759
44.6089
62.8682
96.2825
145.855
149.974
160.058
166.151
165.583
161.015
153.852
145.266
136.014
126.529
117.301
108.64
100.496
93.0295
86.0774
79.772
73.7926
68.37
63.3264
58.8055
54.6338
50.8842
47.384
44.1747
41.1265
38.5095
35.7978
1.24916
2.55831
5.12193
9.76601
17.7122
29.4116
44.3496
62.7765
95.7675
144.517
148.791
158.423
163.04
162.042
156.994
149.542
140.765
131.256
121.917
112.98
104.593
96.5511
89.3092
82.6317
76.568
70.9543
65.8633
61.1267
56.8643
52.9375
49.46
46.2036
43.2284
40.228
37.4846
35.0294
1.17465
2.4355
4.87579
9.33981
17.0051
28.4414
43.1699
61.3045
93.789
142.237
147.045
156.305
159.621
158.146
152.773
145.057
135.89
126.427
117.361
108.534
100.273
92.5597
85.553
79.165
73.3656
67.9971
63.189
58.7797
54.8361
51.1876
47.9783
44.9651
42.2057
39.3111
36.6106
34.1423
1.17519
2.3921
4.76872
9.11405
16.6222
27.8792
42.4389
60.3571
92.5882
140.918
145.888
154.828
157.522
155.652
150.03
142.101
132.709
123.325
114.29
105.539
97.2917
89.7439
83.2331
76.6516
71.9073
64.8532
61.2235
55.77
53.0231
48.7134
46.2852
43.4667
41.0938
38.4425
35.8757
33.475
1.18638
2.38668
4.72812
9.03918
16.5208
27.7086
42.1835
59.9958
91.98
140.13
145.009
154.196
156.884
154.956
149.265
141.26
131.815
122.442
113.382
104.638
96.3906
88.9407
82.8491
75.6195
70.8494
63.9549
60.5061
55.221
52.5439
48.3572
46.0344
43.0241
40.7607
38.1691
35.6239
33.2433
1.16099
2.34636
4.67437
8.97021
16.4233
27.6118
42.0626
59.8377
91.8184
140.51
145.08
154.892
157.956
156.262
150.704
142.802
133.401
123.956
114.882
106.119
97.8852
90.3123
83.5047
77.2997
71.9252
66.3519
61.9886
57.3633
53.6523
50.2162
47.1564
44.2525
41.5688
38.7097
36.0133
33.5413
1.12393
2.31168
4.63944
8.93924
16.4282
27.716
42.2469
60.1003
92.2497
141.758
146.178
156.321
160.491
159.188
153.855
146.153
137.038
127.428
118.236
109.36
101.06
93.3471
86.3863
80.019
74.2154
68.8715
64.0292
59.5712
55.5103
51.7669
48.4331
45.2901
42.3969
39.4055
36.6415
34.1252
1.12844
2.33765
4.70285
9.04379
16.688
28.2098
42.9606
61.0453
93.6257
143.831
148.01
158.456
163.965
162.929
157.793
150.277
141.438
131.875
122.384
113.386
104.998
97.028
89.8456
83.1694
77.167
71.5472
66.4697
61.6945
57.4054
53.4094
49.8505
46.4821
43.3885
40.3006
37.5327
34.9558
1.14202
2.36384
4.81379
9.26933
17.0584
28.828
43.7792
62.1244
95.1754
145.474
149.842
160.782
166.489
165.595
160.616
153.209
144.477
135.091
125.549
116.381
107.838
99.8598
92.5909
85.8431
79.7322
73.8821
68.5503
63.5408
59.0325
54.8352
51.0525
47.5044
44.2468
41.2014
38.3094
35.7777
1.11056
2.32704
4.72263
9.13858
16.833
28.4059
43.3074
61.8024
95.413
145.562
150.466
162.005
168.011
167.242
162.368
155.023
146.317
136.983
127.44
118.248
109.674
101.65
94.2827
87.4331
81.1299
75.11
69.6187
64.488
59.8371
55.5403
51.6159
48.0105
44.6946
42.1824
40.9292
38.1865
0.998059
2.18574
4.44913
8.57151
15.7492
26.7856
41.4633
60.0811
94.5087
144.677
149.862
161.844
168.397
167.822
163.007
155.694
147.009
137.664
128.099
118.966
110.432
102.338
94.8624
87.8363
81.3931
75.2925
69.7377
64.5674
59.8741
55.554
51.6097
47.9801
44.6635
42.2263
40.9908
38.1811
113.558
94.8069
81.423
70.135
60.5615
52.9146
46.8734
41.99
37.885
34.4167
31.3754
28.9251
26.865
25.0763
23.4759
22.209
21.0631
20.1794
19.3274
18.6772
18.0199
17.4531
17.0369
15.823
39.7171
122.19
176.881
207.163
212.821
210.664
208.512
206.706
209.463
116.602
96.7567
82.5634
70.9273
61.2483
53.1697
46.9191
41.8548
37.68
34.1779
31.1338
28.6561
26.6102
24.8144
23.2728
21.9529
20.8643
19.9068
19.0969
18.3812
17.7813
17.216
16.7439
16.2998
15.1606
19.003
20.5881
41.2145
129.654
186.737
216.709
220.46
216.775
213.17
210.209
209.235
111.861
92.9059
78.8232
67.4181
57.75
50.2224
44.345
39.6133
35.611
32.4214
29.7964
27.5177
25.5851
23.8694
22.3686
20.9985
19.8488
18.8633
18.0634
17.3841
16.8149
16.381
15.9239
15.6826
15.0656
14.6637
13.413
35.6004
125.367
187.836
216.376
220.676
216.898
212.467
209.108
205.999
108.007
89.47
75.1721
63.5911
53.8512
46.667
41.0902
36.4486
33.0199
30.2538
27.8943
25.8323
24.0096
22.3736
20.9149
19.6299
18.513
17.5093
16.704
16.0776
15.5703
15.2233
14.8992
14.7178
14.174
13.6527
12.4934
33.5851
123.174
183.138
214.234
219.242
215.795
211.345
207.627
204.413
106.381
87.9351
73.0919
61.0293
51.2826
44.1657
38.4997
34.2716
31.0774
28.5375
26.3356
24.3719
22.6388
21.0733
19.6796
18.4381
17.3574
16.4203
15.6045
14.9767
14.5246
14.2404
14.0165
13.9086
13.3926
12.8411
11.6789
33.5578
114.889
181.04
213.084
218.089
214.844
210.31
206.595
203.483
105.593
87.0651
71.8501
59.5514
49.7088
42.6836
36.8855
32.9193
29.9143
27.4643
25.343
23.414
21.7096
20.1834
18.868
17.6288
16.579
15.6029
14.8442
14.2344
13.8272
13.6083
13.4628
13.4104
12.9299
12.3879
11.2478
33.7272
118.115
182.502
213.997
218.732
214.859
210.056
206.129
203.639
105.909
87.2427
71.9115
59.4813
49.5284
42.4233
36.543
32.601
29.6074
27.1814
25.0393
23.1359
21.4402
19.9274
18.6326
17.3532
16.3248
15.3755
14.6431
14.0318
13.6336
13.4114
13.2703
13.2031
12.7183
12.1764
11.0371
32.6948
119.125
184.709
214.686
218.776
214.907
209.832
205.84
203.589
106.02
87.3554
72.3985
60.1669
50.2655
43.1533
37.3268
33.2366
30.1502
27.6666
25.5209
23.5972
21.8879
20.3664
19.0296
17.8297
16.7951
15.8719
15.0913
14.4465
13.9979
13.7145
13.4912
13.3534
12.7979
12.2319
11.0842
32.3271
116.826
183.518
214.869
219.612
215.999
210.584
206.515
203.813
106.768
88.2522
73.8237
61.9072
52.1207
44.8753
39.1694
34.762
31.423
28.8197
26.5559
24.5898
22.8349
21.3081
19.9254
18.7131
17.6425
16.7155
15.8968
15.2639
14.7674
14.4148
14.0991
13.8577
13.2287
12.6422
11.4892
33.2204
122.086
181.249
214.304
220.329
216.306
211.114
207.242
205.449
107.731
89.559
75.6294
64.2697
54.5263
47.23
41.5323
36.7924
33.1907
30.3433
27.9096
25.8454
24.0263
22.4334
20.9932
19.7459
18.6353
17.672
16.8754
16.247
15.6974
15.2991
14.8719
14.5541
13.8707
13.2919
12.1859
35.4093
129.266
187.646
216.901
222.567
218.508
212.919
209.379
207.231
108.063
90.2093
76.8067
65.8168
56.282
48.9778
43.1907
38.5244
34.5818
31.5813
29.0747
26.8968
25.0438
23.4349
22.0119
20.7564
19.6576
18.7468
17.9651
17.3131
16.7099
16.2445
15.6865
15.3306
14.5392
14.0811
12.9913
34.9795
123.928
182.355
214.356
219.942
216.749
212.828
210.063
208.075
108.79
91.0199
77.5927
66.6015
57.0938
49.7832
44.0035
39.3667
35.392
32.3326
29.7912
27.6086
25.7634
24.1275
22.7179
21.4199
20.3902
19.4538
18.6943
17.9861
17.372
16.8311
16.227
15.8693
14.5906
17.8296
19.3125
27.4341
105.689
164.748
199.21
211.069
211.376
209.497
208.203
208.046
109.44
91.2603
77.6663
66.5806
57.0334
49.8317
44.1343
39.5921
35.6643
32.6565
30.1677
27.9948
26.1511
24.4974
23.0485
21.712
20.6657
19.6967
18.9261
18.1863
17.5612
16.9874
16.3771
16.0032
14.7198
18.0121
19.4815
1.35747
1.65205
1.85534
1.97194
2.03128
2.0536
2.05135
2.03178
2.00106
1.96471
1.92576
1.89104
1.85722
1.83038
1.80986
1.7973
1.7916
1.79478
1.80503
1.82323
1.84736
1.87656
1.90901
1.77422
0.00992937
0.00936708
0.00891522
0.00850654
0.00817817
0.00784052
0.00902928
0.0164468
0.034875
0.0662898
0.123934
0.31266
0.799481
1.40541
1.21199
1.5387
1.7624
1.89444
1.96352
1.99156
1.99284
1.97504
1.94584
1.90892
1.87259
1.83488
1.80288
1.77397
1.75338
1.74014
1.73462
1.73641
1.74562
1.76206
1.78517
1.8152
1.84976
1.87328
1.7697
2.49337
2.89137
0.0099671
0.00935465
0.00890852
0.00847308
0.00816794
0.00784177
0.00777361
0.0107627
0.0181452
0.0276701
0.0694883
0.209171
0.579892
1.17022
1.07383
1.38697
1.5948
1.71541
1.77897
1.8054
1.80805
1.79338
1.76716
1.73569
1.70031
1.66884
1.63636
1.60925
1.58726
1.57189
1.56207
1.55964
1.56521
1.57848
1.5999
1.6311
1.67218
1.72235
1.75443
1.77403
1.75403
0.00996653
0.00935329
0.00891127
0.00847158
0.00817538
0.00788116
0.00760882
0.00909264
0.0143973
0.0224233
0.0572309
0.166918
0.433072
0.982992
0.985922
1.28673
1.47323
1.57481
1.62216
1.63713
1.62867
1.60738
1.57606
1.54045
1.50369
1.47174
1.43938
1.41091
1.38626
1.36776
1.35506
1.34942
1.35118
1.3613
1.38042
1.4084
1.44583
1.48692
1.51723
1.53061
1.5543
0.00991196
0.00932275
0.00887694
0.00844863
0.00816466
0.00788485
0.00757987
0.00857213
0.0113935
0.0180388
0.047224
0.138268
0.360114
0.935303
0.949183
1.23981
1.41055
1.49569
1.52941
1.53171
1.51245
1.48117
1.44359
1.40604
1.3693
1.33734
1.30514
1.27663
1.25081
1.22961
1.21332
1.20337
1.2003
1.20546
1.21968
1.24193
1.27196
1.30311
1.32735
1.33912
1.36052
0.00991185
0.00932458
0.00888957
0.00845836
0.0081789
0.0078831
0.00756303
0.00856981
0.0112742
0.0178562
0.0467462
0.136061
0.347075
0.917327
0.93876
1.2232
1.38268
1.45702
1.48051
1.47357
1.44587
1.40949
1.36961
1.33078
1.29359
1.26057
1.2273
1.19738
1.17055
1.14704
1.12849
1.11539
1.11025
1.11322
1.12574
1.14671
1.17513
1.20503
1.22997
1.24569
1.25975
0.0099119
0.00934113
0.00890958
0.00850265
0.008173
0.00789244
0.0075483
0.00835267
0.0106641
0.0166843
0.0446321
0.136007
0.362073
0.95164
0.951985
1.2369
1.39516
1.4659
1.4863
1.47494
1.44324
1.40361
1.36101
1.31943
1.28193
1.24541
1.21148
1.17993
1.15199
1.12784
1.10875
1.09507
1.08918
1.09105
1.10211
1.12094
1.14701
1.17444
1.19774
1.20833
1.22737
0.009912
0.00932908
0.00885668
0.00843263
0.00815769
0.00788033
0.00755021
0.00837852
0.0104423
0.0165204
0.0433944
0.130273
0.346627
0.930166
0.939795
1.22713
1.39101
1.46878
1.49444
1.48873
1.46175
1.42497
1.38411
1.34445
1.30634
1.27333
1.24024
1.21116
1.18541
1.16376
1.14662
1.13509
1.12992
1.1322
1.1425
1.15955
1.18254
1.20652
1.2257
1.2344
1.24554
0.00996731
0.00935408
0.00884774
0.00848164
0.00816595
0.0078791
0.00754974
0.00843109
0.0104197
0.0165114
0.0433274
0.127948
0.333375
0.894159
0.939917
1.2329
1.41021
1.50129
1.53735
1.5458
1.52869
1.49811
1.45985
1.42079
1.3846
1.35006
1.31922
1.29145
1.26756
1.24903
1.23556
1.22862
1.2274
1.23346
1.24647
1.26519
1.28925
1.31282
1.33119
1.33909
1.35074
0.00991188
0.00933848
0.00890955
0.00847624
0.00817126
0.00782999
0.00756112
0.0080884
0.0101915
0.0163314
0.044518
0.134661
0.353176
0.915817
0.958922
1.25942
1.45252
1.56131
1.61505
1.6336
1.62719
1.60586
1.57432
1.53705
1.50014
1.46481
1.43401
1.406
1.38338
1.36705
1.35684
1.35328
1.35653
1.3663
1.38275
1.40462
1.43073
1.45692
1.47939
1.49115
1.50673
0.00991195
0.00932694
0.00888988
0.00846579
0.00815592
0.00786151
0.00759904
0.00794046
0.00942974
0.0159758
0.044083
0.133075
0.345491
0.906147
0.960559
1.26876
1.47493
1.59737
1.66427
1.69297
1.69752
1.68388
1.65869
1.6284
1.59497
1.56643
1.53776
1.51557
1.49876
1.48981
1.48712
1.49125
1.50182
1.51814
1.53997
1.56607
1.59487
1.62363
1.64624
1.66894
1.68133
0.00996671
0.00935362
0.00889333
0.00851052
0.00817578
0.00788443
0.0076797
0.00949408
0.0143426
0.021539
0.0532376
0.152181
0.388171
0.965219
0.996472
1.30541
1.51247
1.63593
1.70488
1.73611
1.74254
1.732
1.71072
1.68371
1.65708
1.63045
1.60969
1.59172
1.58192
1.57803
1.58205
1.59127
1.60753
1.62812
1.65433
1.684
1.71666
1.75228
1.6304
2.26441
2.57775
0.00991393
0.00934154
0.00888504
0.00846807
0.00816782
0.00788144
0.00813604
0.0121692
0.0187692
0.0241616
0.0511524
0.14823
0.402905
0.970948
1.00156
1.304
1.50765
1.62969
1.69952
1.73296
1.74285
1.73629
1.71963
1.69677
1.67434
1.6519
1.63567
1.62132
1.6157
1.61271
1.61868
1.62919
1.64677
1.66814
1.69534
1.72544
1.75904
1.7962
1.6422
2.3109
2.66382
0.00581856
0.00603775
0.00639524
0.00685179
0.00738433
0.00797605
0.00861032
0.00927483
0.00995833
0.0106579
0.0113735
0.0121135
0.0128808
0.0136951
0.0145715
0.0155329
0.0165991
0.0178006
0.0191547
0.0207017
0.0224505
0.0244238
0.0265185
0.0258692
0.00995014
0.00952061
0.009103
0.00870865
0.00833953
0.00799477
0.00767172
0.00736817
0.00708378
0.00681612
0.0065639
0.0063256
0.00609852
0.00587443
0.00575113
0.00592629
0.0062408
0.00665558
0.00715078
0.00770522
0.00830454
0.00893238
0.00958162
0.010242
0.0109215
0.011616
0.0123396
0.0130979
0.0139167
0.0148095
0.0158054
0.0169208
0.0181851
0.0196182
0.0212584
0.023131
0.0253174
0.0274274
0.0262349
0.0406501
0.0506524
0.00994817
0.00951271
0.00909849
0.00870545
0.00833654
0.00799118
0.00766708
0.00736354
0.00707902
0.00681159
0.00655953
0.00632147
0.00609671
0.00588247
0.00571584
0.00584069
0.00608333
0.00641086
0.00680541
0.00725312
0.0077385
0.00825155
0.00878045
0.00932314
0.00987195
0.0104359
0.0110097
0.0116112
0.0122472
0.0129425
0.0137069
0.0145703
0.0155487
0.0166759
0.0179919
0.01957
0.021526
0.0238982
0.0261322
0.028209
0.0297977
0.00994837
0.00951183
0.00909787
0.00870547
0.00833681
0.00799139
0.00766701
0.00736346
0.00707883
0.0068111
0.00655874
0.0063207
0.00609628
0.0058801
0.0056929
0.00578723
0.00597868
0.00624127
0.0065535
0.00690433
0.00727887
0.00767031
0.00806679
0.00846372
0.00885899
0.00926045
0.00966605
0.010086
0.0105264
0.0110034
0.0115278
0.0121229
0.0128075
0.0136122
0.0145718
0.0157331
0.0171543
0.018833
0.0205049
0.0221601
0.0237846
0.00994876
0.00951221
0.00909821
0.00870594
0.00833741
0.00799195
0.00766751
0.0073638
0.00707896
0.00681127
0.00655903
0.00632065
0.00609609
0.00588027
0.00568155
0.00576185
0.00592896
0.00615725
0.00642283
0.00671439
0.00701932
0.00732872
0.00763421
0.0079375
0.00823782
0.00854276
0.00884931
0.00916716
0.00949778
0.0098529
0.010239
0.0106744
0.011173
0.0117615
0.0124602
0.0132944
0.0142794
0.0153894
0.0165497
0.0178083
0.0190764
0.00994862
0.009512
0.00909805
0.00870589
0.0083375
0.00799216
0.0076678
0.00736411
0.00707914
0.00681142
0.00655917
0.00632056
0.00609604
0.00588041
0.00567962
0.00575561
0.00591181
0.00612493
0.00636584
0.00662456
0.00688936
0.00715378
0.00741268
0.00766806
0.0079203
0.00817491
0.00842926
0.00869072
0.00896141
0.0092491
0.00955972
0.00990809
0.0103087
0.0107836
0.0113507
0.0120254
0.0128166
0.0137111
0.0147106
0.0158124
0.0169343
0.00994874
0.00951215
0.00909819
0.00870601
0.00833754
0.0079921
0.00766761
0.00736397
0.00707896
0.00681089
0.00655877
0.0063207
0.00609603
0.00588068
0.00568398
0.00576561
0.00592779
0.00614359
0.00638713
0.00664513
0.00690592
0.00716354
0.00741314
0.00765682
0.00789707
0.00813632
0.0083748
0.00861878
0.00887011
0.00913804
0.00942812
0.00975412
0.0101288
0.0105721
0.0110988
0.0117199
0.0124483
0.0132786
0.0142135
0.0152516
0.0162983
0.00994886
0.00951233
0.00909832
0.00870601
0.00833745
0.007992
0.0076676
0.00736393
0.00707882
0.00681059
0.00655825
0.00632037
0.00609567
0.00588039
0.00567979
0.00575756
0.00591712
0.00613439
0.00638125
0.0066468
0.00691896
0.00719032
0.00745556
0.00771677
0.00797451
0.00823561
0.00849783
0.0087696
0.00905354
0.00935868
0.00968939
0.0100602
0.010481
0.0109722
0.0115461
0.0122132
0.0129839
0.0138525
0.0148204
0.0158714
0.0169344
0.00994865
0.00951207
0.0090981
0.0087058
0.00833727
0.00799188
0.00766745
0.00736361
0.00707848
0.00681038
0.00655803
0.00631993
0.00609511
0.00587991
0.00567817
0.00575609
0.00592242
0.00615267
0.00642277
0.00672143
0.00703515
0.00735426
0.0076695
0.00798163
0.00829222
0.008606
0.00892489
0.00925761
0.00960764
0.00998814
0.0104052
0.0108771
0.0114145
0.0120386
0.0127609
0.0135936
0.0145457
0.0156219
0.0168094
0.018084
0.0193541
0.00994894
0.0095124
0.00909841
0.00870614
0.00833762
0.00799228
0.00766764
0.00736346
0.0070786
0.00681051
0.00655797
0.00631964
0.00609507
0.00587917
0.00568302
0.00576768
0.00595126
0.00620927
0.00651978
0.00687095
0.00724672
0.00763828
0.00803481
0.0084303
0.0088241
0.00922161
0.00962677
0.0100485
0.0104955
0.0109835
0.0115236
0.012136
0.0128348
0.0136394
0.0145657
0.0156293
0.0168407
0.0182146
0.019753
0.0214402
0.0230835
0.00994877
0.00951244
0.00909848
0.00870605
0.00833737
0.00799189
0.00766725
0.00736295
0.00707838
0.00681054
0.00655791
0.00631976
0.00609443
0.00587871
0.00568399
0.00577237
0.00596612
0.00624248
0.00658113
0.00696963
0.00739236
0.0078392
0.00829951
0.00877077
0.00924765
0.00974044
0.0102465
0.0107841
0.0113617
0.0120032
0.0127209
0.0135387
0.0144699
0.0155341
0.0167507
0.0181336
0.0196952
0.0214495
0.0233052
0.0255173
0.0274408
0.00994878
0.00951402
0.00909956
0.00870619
0.00833704
0.00799142
0.00766716
0.00736331
0.00707868
0.00681084
0.00655821
0.0063196
0.0060948
0.00587873
0.00569201
0.00579011
0.00599686
0.00628629
0.00664181
0.0070494
0.00749674
0.0079716
0.00846827
0.00898119
0.00951401
0.0100679
0.0106541
0.0112807
0.0119689
0.0127348
0.0136012
0.0145827
0.0157059
0.0169769
0.0184326
0.0200766
0.021948
0.024029
0.0228121
0.0347863
0.0431118
0.00995029
0.00952177
0.00910168
0.00870631
0.00833638
0.00799059
0.00766706
0.00736358
0.00707853
0.00681084
0.00655845
0.00631979
0.00609467
0.00588055
0.00568424
0.00577732
0.00597627
0.00625758
0.00660595
0.00700853
0.00745548
0.00793435
0.00844205
0.00897069
0.00952635
0.0101087
0.0107325
0.0114017
0.012142
0.0129621
0.0138909
0.0149374
0.0161335
0.0174833
0.0190256
0.02077
0.0227614
0.0249858
0.0231975
0.0356716
0.0443913
0.00560221
0.00539344
0.00523494
0.00499045
0.00484273
0.00470087
0.0045655
0.00443424
0.00430806
0.00418457
0.00406475
0.00394698
0.0038329
0.00372085
0.00361229
0.0035057
0.00340276
0.00330211
0.00320527
0.00311101
0.00302089
0.0029345
0.00285667
0.00278547
0.00994969
0.00951948
0.0091019
0.00870723
0.00833695
0.00799014
0.00766512
0.00735998
0.0070732
0.00680346
0.00654938
0.00630958
0.00608156
0.00585387
0.00561535
0.00537623
0.00525948
0.00498692
0.00483652
0.00469655
0.00456132
0.00443163
0.00430532
0.00418335
0.00406355
0.00394703
0.00383291
0.00372201
0.00361333
0.0035077
0.00340455
0.00330466
0.00320755
0.00311387
0.00302328
0.00293618
0.00285191
0.00277004
0.00270507
0.00267093
0.00260094
0.00994805
0.00951141
0.00909794
0.00870575
0.00833605
0.00798912
0.00766382
0.00735856
0.00707178
0.00680203
0.00654799
0.00630832
0.0060821
0.00585208
0.00561178
0.0053803
0.00525435
0.00502628
0.00483554
0.00469475
0.0045593
0.00442904
0.00430249
0.00417996
0.00405984
0.0039428
0.00382824
0.00371688
0.0036078
0.00350181
0.00339822
0.00329802
0.00320041
0.00310639
0.00301502
0.00292736
0.00284194
0.00275968
0.0026808
0.00260604
0.00254151
0.00994809
0.00951023
0.00909678
0.00870609
0.00833712
0.00799041
0.00766522
0.0073602
0.00707374
0.00680429
0.00655053
0.00631128
0.00608555
0.00584415
0.0055943
0.00540261
0.00523257
0.00505639
0.00483789
0.00469764
0.00456166
0.00443144
0.00430483
0.00418265
0.00406262
0.00394599
0.0038316
0.00372051
0.00361146
0.00350558
0.00340186
0.00330154
0.00320356
0.00310912
0.003017
0.00292844
0.00284191
0.00275886
0.00267869
0.00260352
0.00253913
0.00994848
0.00951052
0.00909708
0.00870672
0.00833798
0.00799139
0.00766628
0.00736144
0.00707524
0.00680606
0.00655252
0.00631339
0.00608765
0.00584002
0.00558525
0.0054144
0.00521826
0.00507744
0.00483585
0.00469552
0.00456039
0.00443079
0.00430477
0.00418272
0.00406272
0.00394584
0.00383123
0.00371973
0.00361035
0.00350401
0.00339999
0.00329925
0.00320101
0.00310617
0.00301375
0.00292484
0.00283807
0.00275514
0.00267463
0.00259877
0.00253328
0.00994877
0.00951085
0.00909742
0.00870713
0.00833846
0.00799194
0.00766691
0.00736216
0.00707601
0.00680683
0.00655333
0.00631422
0.00608846
0.00583828
0.00558153
0.00542044
0.005208
0.00508955
0.00485359
0.00469248
0.0045556
0.00442549
0.00429969
0.00417832
0.00405907
0.00394318
0.00382936
0.00371864
0.00360981
0.00350394
0.0034002
0.00329967
0.0032015
0.00310665
0.00301418
0.00292513
0.0028383
0.00275534
0.00267474
0.00259873
0.00253287
0.00994908
0.00951125
0.0090979
0.00870773
0.00833922
0.00799283
0.00766777
0.0073628
0.00707633
0.00680685
0.00655315
0.00631391
0.00608814
0.0058392
0.00558338
0.00541838
0.00521175
0.00507792
0.00485599
0.00469974
0.00456216
0.0044311
0.00430424
0.00418185
0.00406167
0.003945
0.00383056
0.00371935
0.00361017
0.00350408
0.00340017
0.00329959
0.00320134
0.00310649
0.00301398
0.00292493
0.0028381
0.00275512
0.0026744
0.00259802
0.0025321
0.00994918
0.0095113
0.00909788
0.00870768
0.0083392
0.00799285
0.00766784
0.00736284
0.0070763
0.00680679
0.00655311
0.00631397
0.00608826
0.00583832
0.00558224
0.0054188
0.00520951
0.0050902
0.00484909
0.00469245
0.00455625
0.00442658
0.00430107
0.0041798
0.00406054
0.00394446
0.00383038
0.00371935
0.00361023
0.00350413
0.00340016
0.00329951
0.00320122
0.00310638
0.00301391
0.00292499
0.00283826
0.00275535
0.00267471
0.00259833
0.00253254
0.00994888
0.00951099
0.00909757
0.00870734
0.00833881
0.00799241
0.00766735
0.0073623
0.00707569
0.00680619
0.00655261
0.00631357
0.00608783
0.00583897
0.00558361
0.00541553
0.00521624
0.00507794
0.00483787
0.00469698
0.00456137
0.00443147
0.00430534
0.00418324
0.0040633
0.0039464
0.00383175