/*--------------------------------*- C++ -*----------------------------------*\
  =========                 |
  \\      /  F ield         | OpenFOAM: The Open Source CFD Toolbox
   \\    /   O peration     | Website:  https://openfoam.org
    \\  /    A nd           | Version:  7
     \\/     M anipulation  |
\*---------------------------------------------------------------------------*/
FoamFile
{
    version     2.0;
    format      ascii;
    class       volScalarField;
    location    "1000";
    object      k;
}
// * * * * * * * * * * * * * * * * * * * * * * * * * * * * * * * * * * * * * //

dimensions      [0 2 -2 0 0 0 0];

internalField   nonuniform List<scalar> 
120313
(
1.08708
1.24731
1.34365
1.41797
1.45563
1.47182
1.47682
1.47216
1.45612
1.42873
1.38295
1.33919
1.29091
1.23406
1.18193
1.14073
1.10179
1.06494
1.02516
0.987815
0.947543
0.906538
0.860035
0.760201
1.16791
1.40473
1.52455
1.62417
1.6748
1.69997
1.7128
1.70714
1.67843
1.65071
1.61126
1.56241
1.50466
1.44707
1.39236
1.34203
1.29472
1.24845
1.20039
1.15419
1.10587
1.04937
0.97979
0.833338
1.15217
1.38461
1.5068
1.60748
1.66287
1.69167
1.70716
1.70813
1.68499
1.65583
1.61521
1.56298
1.50456
1.4479
1.39079
1.34069
1.29297
1.24694
1.19907
1.15323
1.1046
1.04638
0.968454
0.826486
1.14396
1.37555
1.49884
1.60167
1.65878
1.68988
1.70829
1.71317
1.69218
1.66181
1.61938
1.56564
1.50668
1.45036
1.39215
1.34148
1.29342
1.24733
1.19985
1.15433
1.10576
1.04728
0.967759
0.827077
1.14151
1.37292
1.49655
1.60003
1.65759
1.68933
1.70855
1.71421
1.69371
1.66333
1.62046
1.56661
1.50751
1.45134
1.39266
1.34194
1.29417
1.24822
1.20079
1.15532
1.10678
1.04831
0.968309
0.827789
1.14543
1.37816
1.50159
1.60448
1.66134
1.69213
1.7099
1.71233
1.69157
1.66225
1.62069
1.56726
1.5085
1.45256
1.39458
1.34438
1.29665
1.25033
1.20225
1.1563
1.10762
1.04952
0.970194
0.828529
1.15983
1.39759
1.51999
1.62352
1.67749
1.70574
1.72031
1.71595
1.69306
1.66598
1.62575
1.57266
1.51435
1.45817
1.40176
1.35179
1.304
1.25694
1.20802
1.16135
1.11272
1.05625
0.984981
0.837815
1.09113
1.25621
1.35812
1.44157
1.48212
1.50217
1.51036
1.50588
1.49054
1.46234
1.4171
1.3709
1.31856
1.26096
1.20892
1.16934
1.12833
1.08889
1.04745
1.00851
0.967642
0.926181
0.87498
0.771725
0.15234
0.303432
0.464926
0.644643
0.847131
1.0773
1.33857
1.62544
1.99863
2.25386
2.58344
2.8566
3.0461
3.15842
3.21748
3.23983
3.23733
3.21664
3.17737
3.12888
3.05902
2.9763
2.87578
2.76573
2.65673
2.54327
2.43103
2.31951
2.21312
2.11256
2.01279
1.92245
1.83244
1.75002
1.68188
1.6315
0.1527
0.301154
0.461207
0.638461
0.837249
1.06245
1.31555
1.57583
1.90206
2.75607
3.32732
3.70693
3.95352
4.08472
4.14087
4.15336
4.13463
4.08961
4.02289
3.93103
3.83798
3.71192
3.57452
3.42939
3.285
3.13744
2.99405
2.85088
2.7184
2.58612
2.46149
2.35594
2.14491
2.03612
1.72352
1.61222
0.144085
0.292552
0.450731
0.624654
0.8183
1.03606
1.2781
1.51628
1.79315
2.63862
3.34944
3.78716
4.0649
4.20622
4.26139
4.27225
4.24847
4.19002
4.13496
4.03987
3.92936
3.79253
3.64806
3.49746
3.3493
3.19822
3.05272
2.90804
2.77442
2.64083
2.51152
2.40198
2.12113
1.98861
1.70699
1.60045
0.137963
0.286912
0.443293
0.613947
0.802459
1.01261
1.24329
1.4641
1.72054
2.57016
3.32595
3.78491
4.06619
4.21361
4.27128
4.28304
4.26462
4.21662
4.15929
4.05543
3.93566
3.79467
3.64653
3.49366
3.34582
3.19497
3.05046
2.90814
2.77636
2.64562
2.51782
2.40391
2.10651
1.96766
1.69045
1.58871
0.142127
0.287884
0.4424
0.61056
0.795612
1.00087
1.22467
1.43713
1.6885
2.54118
3.30659
3.77171
4.05177
4.20143
4.26189
4.27557
4.26152
4.2203
4.15488
4.04812
3.92422
3.78079
3.63134
3.47712
3.33003
3.18038
3.03848
2.89924
2.77056
2.64298
2.51842
2.40376
2.10584
1.96337
1.68852
1.58836
0.144447
0.287666
0.440885
0.607841
0.791588
0.995325
1.21737
1.42818
1.68035
2.53441
3.29906
3.7641
4.04426
4.19404
4.25513
4.26957
4.25666
4.21681
4.15023
4.04304
3.91838
3.77428
3.62495
3.47053
3.32481
3.17591
3.03494
2.89622
2.76811
2.64096
2.51712
2.40232
2.10593
1.9647
1.69049
1.59044
0.140854
0.283605
0.436836
0.604629
0.79002
0.996287
1.22173
1.43626
1.69444
2.55529
3.30534
3.76597
4.04793
4.19591
4.25519
4.26918
4.25227
4.21101
4.14821
4.04385
3.92143
3.77911
3.63175
3.47872
3.33323
3.18315
3.04049
2.89946
2.76945
2.64011
2.51423
2.39979
2.10586
1.97201
1.69486
1.59258
0.134126
0.27801
0.432073
0.602288
0.791932
1.00478
1.23989
1.46741
1.74702
2.62639
3.32679
3.76838
4.05189
4.19186
4.24782
4.26105
4.23745
4.19037
4.13317
4.03492
3.91717
3.7794
3.6355
3.48459
3.33894
3.18843
3.0446
2.90127
2.76904
2.63675
2.50905
2.3977
2.12076
1.99827
1.7106
1.60281
0.134605
0.277022
0.432024
0.605713
0.801898
1.02559
1.27796
1.53474
1.86634
2.7719
3.34333
3.73271
3.99444
4.11927
4.17214
4.1841
4.16383
4.12176
4.0549
3.96612
3.86016
3.72925
3.58954
3.44261
3.29833
3.15048
3.00761
2.86477
2.73266
2.60108
2.47677
2.36705
2.1578
2.05742
1.75228
1.63175
0.13506
0.275203
0.430721
0.606709
0.807155
1.03816
1.3039
1.58804
1.98829
2.87588
3.27061
3.61399
3.84546
3.9675
4.02304
4.03811
4.02321
3.98384
3.92516
3.85452
3.76413
3.64489
3.51323
3.3734
3.23522
3.09467
2.95525
2.81802
2.68711
2.56198
2.44067
2.33532
2.19795
2.12135
1.79782
1.66039
0.130035
0.270931
0.42894
0.608383
0.812766
1.04778
1.31766
1.60868
1.98814
2.23796
2.54802
2.82111
3.01322
3.12724
3.1903
3.21636
3.21797
3.19858
3.16315
3.11649
3.05649
2.96819
2.86218
2.75197
2.63918
2.52661
2.41327
2.30189
2.19465
2.09281
1.99544
1.90404
1.8138
1.73611
1.6831
1.63439
0.111958
0.261049
0.423269
0.607677
0.818401
1.06126
1.34096
1.65678
2.05106
2.3026
2.62565
2.90678
3.10386
3.22343
3.28964
3.31683
3.31911
3.29972
3.26815
3.22318
3.16299
3.07464
2.96514
2.85029
2.73212
2.613
2.49428
2.37828
2.266
2.15867
2.05598
1.95914
1.86776
1.78842
1.71853
1.65919
3.83481
4.33594
4.84141
5.13712
5.29714
5.3466
5.33297
5.27492
5.19151
5.09604
4.97916
4.83103
4.66861
4.48765
4.29642
4.10696
3.91566
3.73015
3.54743
3.37338
3.20733
3.05166
2.90132
2.78681
0.201044
0.366935
0.56445
0.795923
1.06913
1.3945
1.7825
2.24229
2.86227
3.76511
4.2627
4.772
5.05241
5.20194
5.25097
5.23303
5.17779
5.09751
5.0017
4.89359
4.77252
4.62022
4.4339
4.24707
4.0588
3.87234
3.68711
3.50908
3.33695
3.17501
3.02158
2.87694
2.74595
2.63763
2.47938
2.36167
0.19632
0.35979
0.557009
0.787322
1.05949
1.38497
1.77469
2.23536
2.85829
3.7393
4.22905
4.75368
5.02539
5.16899
5.20954
5.18437
5.12623
5.04605
4.95274
4.84973
4.72232
4.55815
4.37871
4.19431
4.00444
3.81858
3.63504
3.46039
3.29319
3.13573
2.98604
2.84963
2.71113
2.58419
2.48231
2.36212
0.186735
0.348516
0.543373
0.770387
1.03836
1.35936
1.74425
2.19774
2.79951
3.67636
4.1863
4.70915
4.98995
5.1407
5.17911
5.15933
5.10608
5.0375
4.95761
4.83739
4.68859
4.51994
4.33578
4.14948
3.96209
3.77789
3.5983
3.42647
3.2634
3.10925
2.96298
2.83298
2.69094
2.55512
2.45246
2.33511
0.178766
0.339946
0.531913
0.754917
1.01735
1.33137
1.70725
2.14725
2.73005
3.61469
4.1412
4.6546
4.93534
5.09426
5.13815
5.12317
5.07921
5.02294
4.93475
4.80061
4.64518
4.47148
4.28633
4.09932
3.91441
3.7326
3.55791
3.39061
3.23404
3.08493
2.94352
2.81746
2.67681
2.53861
2.43704
2.31703
0.180261
0.338259
0.52744
0.747191
1.00554
1.31424
1.68303
2.11311
2.68646
3.57968
4.11033
4.61478
4.89512
5.05796
5.10635
5.09363
5.05441
5.00574
4.90214
4.76663
4.60746
4.4305
4.24466
4.05723
3.87302
3.69486
3.52512
3.36347
3.21271
3.06941
2.93335
2.81094
2.67302
2.53497
2.43419
2.31291
0.181794
0.337042
0.524392
0.742327
0.998876
1.30544
1.67158
2.09834
2.67051
3.56742
4.09617
4.6013
4.88205
5.04482
5.09392
5.0818
5.04384
4.99548
4.89091
4.75401
4.59449
4.4164
4.23087
4.04357
3.86152
3.6851
3.51699
3.35626
3.20644
3.06387
2.9288
2.80686
2.66981
2.53221
2.43172
2.31012
0.178385
0.332807
0.51957
0.73746
0.994666
1.30284
1.67173
2.10255
2.6823
3.58278
4.10576
4.61895
4.89956
5.0597
5.10466
5.09119
5.0505
5.00146
4.90195
4.76817
4.61135
4.43506
4.25203
4.06611
3.88476
3.70528
3.53423
3.36942
3.21643
3.06973
2.93107
2.80585
2.66686
2.52948
2.42904
2.30747
0.173256
0.32841
0.515765
0.73534
0.99577
1.3094
1.68656
2.12937
2.72744
3.62809
4.13881
4.66246
4.94227
5.09311
5.13388
5.11821
5.07103
5.01039
4.92889
4.79826
4.64554
4.47523
4.29515
4.10964
3.92727
3.74486
3.57058
3.40125
3.24221
3.09004
2.94577
2.81646
2.67578
2.54011
2.43874
2.31751
0.174008
0.328432
0.516937
0.739535
1.00547
1.32782
1.71777
2.17919
2.80567
3.70111
4.18916
4.71881
4.98976
5.12954
5.16932
5.14823
5.09418
5.02153
4.93797
4.83001
4.68526
4.52104
4.33923
4.15401
3.96764
3.78409
3.60506
3.43294
3.26904
3.11394
2.96614
2.83303
2.69431
2.56242
2.46138
2.34235
0.175597
0.328631
0.518606
0.744485
1.01557
1.34514
1.74485
2.22034
2.86402
3.75254
4.22813
4.74714
5.01333
5.15124
5.19489
5.17217
5.11563
5.03752
4.94584
4.84708
4.7266
4.56072
4.38161
4.19959
4.01303
3.82847
3.6453
3.47086
3.30261
3.14511
2.99387
2.85601
2.71896
2.59231
2.49103
2.36851
0.170892
0.324508
0.515791
0.744409
1.01872
1.35122
1.75327
2.23006
2.87082
3.77696
4.26846
4.78914
5.06773
5.21722
5.2713
5.25662
5.20473
5.12896
5.03579
4.93403
4.81271
4.64068
4.45527
4.26796
4.07328
3.8828
3.69268
3.5127
3.33823
3.17533
3.02111
2.87691
2.73889
2.62754
2.46772
2.3478
0.15768
0.315634
0.507628
0.737789
1.0132
1.34604
1.74802
2.22431
2.86829
3.78504
4.29889
4.83199
5.12022
5.27217
5.32327
5.31587
5.27008
5.19948
5.11067
5.00798
4.86664
4.69336
4.50149
4.30588
4.10305
3.90653
3.71123
3.52757
3.34942
3.18446
3.0286
2.883
2.74478
2.63431
2.47353
2.34817
4.25916
4.59271
5.14359
5.328
5.37664
5.32392
5.20492
5.04336
4.85911
4.66577
4.47976
4.30553
4.10698
3.94668
3.74171
3.59832
3.42025
3.29066
3.12362
3.01228
2.85641
2.76304
2.61978
2.56108
0.19041
0.326256
0.512206
0.774336
1.12322
1.54665
2.02906
2.58181
3.34359
4.25538
4.57389
5.15255
5.36324
5.4157
5.36618
5.25282
5.09442
4.91157
4.71731
4.52372
4.33728
4.16002
3.9789
3.81797
3.62953
3.49416
3.29887
3.18075
3.00766
2.90524
2.75747
2.65955
2.54147
2.47426
2.46162
2.39485
0.186011
0.318227
0.504204
0.769238
1.12401
1.55488
2.04642
2.61126
3.39031
4.2584
4.53798
5.10154
5.29435
5.34161
5.29058
5.17466
5.01503
4.83241
4.64108
4.45035
4.26661
4.09579
3.90195
3.75551
3.54166
3.41231
3.21839
3.10841
2.94171
2.84999
2.70609
2.62042
2.50039
2.40822
2.30991
2.22018
0.177484
0.306019
0.488073
0.748086
1.09923
1.52891
2.02096
2.58914
3.36102
4.18272
4.4977
4.98094
5.14842
5.18513
5.1275
5.00366
4.8415
4.66383
4.48147
4.31044
4.11508
3.95383
3.74771
3.5996
3.42151
3.2844
3.12295
3.00378
2.85698
2.76241
2.63374
2.56419
2.44633
2.3656
2.24792
2.15629
0.169413
0.296206
0.472875
0.726246
1.069
1.49116
1.97667
2.53695
3.29912
4.09574
4.45752
4.86161
5.00891
5.03477
4.96485
4.833
4.66521
4.49444
4.31735
4.15126
3.95529
3.78009
3.60485
3.4464
3.29429
3.15343
3.02038
2.89927
2.78634
2.68698
2.57695
2.51007
2.40762
2.33513
2.20013
2.10198
0.169539
0.292612
0.46529
0.713528
1.05126
1.46806
1.94806
2.50126
3.25786
4.04473
4.42624
4.79253
4.92791
4.94073
4.86221
4.72244
4.55112
4.38988
4.20862
4.03582
3.84027
3.66015
3.49102
3.3331
3.18679
3.05843
2.94205
2.83344
2.73773
2.64937
2.55421
2.49279
2.39685
2.32604
2.18859
2.08647
0.170833
0.291209
0.461396
0.707319
1.04367
1.45835
1.93592
2.48603
3.2389
4.02809
4.40587
4.77753
4.91187
4.91999
4.83796
4.69413
4.52329
4.36126
4.17929
4.00247
3.80715
3.62525
3.45811
3.2994
3.1623
3.03864
2.92508
2.81804
2.72351
2.63693
2.54462
2.48372
2.38915
2.31881
2.17812
2.07641
0.168308
0.287798
0.457315
0.702603
1.03861
1.45381
1.93197
2.48309
3.23912
4.05339
4.41367
4.81887
4.95791
4.975
4.89668
4.75641
4.57964
4.41476
4.23652
4.06362
3.87088
3.68817
3.52335
3.36789
3.22579
3.09054
2.9666
2.85048
2.74804
2.65223
2.55039
2.48251
2.38277
2.31022
2.17083
2.07024
0.164595
0.285198
0.455423
0.701787
1.03984
1.4589
1.94163
2.49867
3.26447
4.11999
4.44505
4.91583
5.06711
5.09464
5.02324
4.88956
4.7201
4.53627
4.35771
4.19243
3.98839
3.82466
3.6536
3.49445
3.34391
3.19958
3.06531
2.93906
2.81261
2.71276
2.59136
2.52099
2.40842
2.33132
2.19137
2.09177
0.16523
0.286737
0.459045
0.708323
1.05188
1.4789
1.97041
2.53792
3.31844
4.21003
4.49366
5.04928
5.21133
5.24061
5.17773
5.04958
4.8826
4.69907
4.51113
4.33397
4.14457
3.99012
3.77205
3.63347
3.44252
3.31742
3.14426
3.03535
2.88041
2.79016
2.65586
2.57971
2.45431
2.36891
2.24602
2.1512
0.167046
0.288245
0.464055
0.717758
1.06722
1.50197
2.00052
2.57641
3.36493
4.26461
4.55335
5.14046
5.31204
5.34515
5.28476
5.1627
4.99864
4.8137
4.62319
4.43516
4.25631
4.08988
3.90194
3.76111
3.55845
3.43084
3.23687
3.12789
2.95959
2.86628
2.71785
2.62814
2.50641
2.40859
2.30481
2.21114
0.163888
0.285327
0.46033
0.715395
1.0651
1.4989
1.99789
2.57409
3.36142
4.2584
4.56305
5.17017
5.35221
5.39061
5.33474
5.21593
5.05422
4.87076
4.68069
4.4938
4.3179
4.15174
3.9592
3.81844
3.60564
3.47802
3.28057
3.17011
2.99641
2.90013
2.74709
2.6547
2.52528
2.45094
2.42174
2.35587
0.152547
0.277084
0.449445
0.698038
1.03884
1.4652
1.96134
2.53577
3.32459
4.21874
4.52628
5.1448
5.34111
5.38606
5.33526
5.21861
5.05897
4.87729
4.68899
4.5109
4.32953
4.16928
3.95391
3.80991
3.59439
3.46642
3.27233
3.16148
2.98773
2.89439
2.7366
2.64866
2.50995
2.4453
2.42325
2.35858
2.23395
2.05348
1.93702
1.80822
1.70572
1.62104
1.5446
1.47365
1.40782
1.34565
1.28864
1.24133
1.20054
1.16781
1.13745
1.11648
1.09775
1.0873
1.0763
1.07172
1.06433
1.06383
1.0607
1.03805
0.802082
1.58304
2.20154
2.65195
2.90935
3.12641
3.33825
3.5367
3.68898
2.2766
2.08202
1.95734
1.82119
1.70955
1.61782
1.5387
1.46449
1.39812
1.33498
1.27904
1.22822
1.1881
1.15376
1.12657
1.1044
1.08776
1.07433
1.06329
1.05688
1.05139
1.05052
1.05233
1.04909
1.02677
1.2688
1.38795
0.809518
1.65518
2.30157
2.73195
2.96781
3.1748
3.39499
3.56691
3.69313
2.19474
2.00433
1.86891
1.73207
1.62621
1.53966
1.46473
1.39477
1.33112
1.27272
1.21864
1.16898
1.12908
1.095
1.06817
1.04413
1.02669
1.01168
1.00316
0.996896
0.995874
0.997844
1.00374
1.0122
1.01205
1.00353
0.970905
0.745452
1.60576
2.28749
2.71115
2.9523
3.14692
3.35168
3.52095
3.62425
2.12386
1.9374
1.77824
1.63519
1.5249
1.4407
1.36219
1.29616
1.2323
1.17504
1.1257
1.08454
1.04475
1.01033
0.980761
0.957927
0.94027
0.928704
0.921258
0.920587
0.922206
0.928345
0.939391
0.950678
0.951944
0.937484
0.902894
0.71148
1.57627
2.2286
2.66897
2.91846
3.11112
3.31445
3.47785
3.58096
2.08195
1.89785
1.71739
1.56329
1.45079
1.35921
1.28125
1.21132
1.15347
1.1068
1.06274
1.02308
0.986138
0.951347
0.919861
0.893021
0.874183
0.860602
0.854103
0.854255
0.86034
0.870008
0.886949
0.901736
0.902652
0.885986
0.84738
0.696489
1.49972
2.20514
2.65275
2.90246
3.09488
3.29493
3.45529
3.55949
2.06486
1.87892
1.68334
1.52397
1.4053
1.31257
1.22829
1.16354
1.1107
1.066
1.02431
0.983099
0.945746
0.910595
0.87928
0.850297
0.829855
0.816044
0.812412
0.815151
0.825177
0.84011
0.863147
0.881361
0.882494
0.863537
0.825262
0.720105
1.53495
2.22075
2.65861
2.90342
3.08894
3.2884
3.44969
3.55296
2.06892
1.8813
1.68445
1.52103
1.40002
1.30347
1.21796
1.15319
1.10016
1.05565
1.01293
0.972323
0.93351
0.89927
0.866185
0.840285
0.820325
0.806763
0.803075
0.805547
0.815591
0.829827
0.853517
0.870082
0.87044
0.851214
0.810288
0.694761
1.54258
2.2378
2.66238
2.90156
3.08349
3.27952
3.44086
3.54735
2.0693
1.88394
1.69817
1.53981
1.42108
1.32742
1.24259
1.1747
1.1198
1.07428
1.03181
0.992194
0.954251
0.920431
0.890513
0.863295
0.84304
0.829468
0.822485
0.822843
0.829507
0.839793
0.85651
0.869027
0.865874
0.845499
0.806028
0.682061
1.51286
2.22428
2.66425
2.91052
3.09
3.28235
3.44382
3.5573
2.08839
1.90362
1.73821
1.5871
1.47577
1.3824
1.30386
1.23022
1.16759
1.11864
1.07293
1.0334
0.995785
0.964238
0.933651
0.910356
0.89277
0.881092
0.874031
0.873328
0.87519
0.882175
0.892219
0.898324
0.89123
0.870112
0.832555
0.701718
1.54684
2.20801
2.66829
2.91995
3.10449
3.29817
3.46364
3.57717
2.11494
1.93418
1.79148
1.65393
1.54589
1.45869
1.3783
1.3074
1.24231
1.18095
1.12892
1.0867
1.04805
1.016
0.987979
0.967078
0.950738
0.940109
0.933134
0.93035
0.930204
0.934153
0.939001
0.941305
0.932678
0.913597
0.882307
0.716013
1.62394
2.2595
2.69402
2.94609
3.12496
3.31555
3.48927
3.59798
2.12023
1.9488
1.82493
1.69705
1.59609
1.51012
1.43335
1.36248
1.2976
1.23979
1.18677
1.14004
1.10249
1.0732
1.04964
1.03163
1.01795
1.00684
0.999744
0.993757
0.99134
0.989255
0.989609
0.990776
0.978332
0.966186
0.940709
0.726396
1.56388
2.22416
2.67694
2.92552
3.12318
3.32968
3.50247
3.60933
2.12538
1.95928
1.83918
1.71455
1.61707
1.53275
1.45892
1.38936
1.32711
1.27063
1.22064
1.17508
1.14107
1.11179
1.09137
1.07238
1.06034
1.04741
1.04087
1.03252
1.02887
1.02383
1.02379
1.02251
0.989225
1.19039
1.3005
0.601794
1.36803
2.007
2.49354
2.80507
3.05262
3.27555
3.47769
3.60054
2.12276
1.95019
1.82711
1.70456
1.61161
1.53127
1.46127
1.39473
1.33556
1.28007
1.233
1.1886
1.15578
1.12663
1.10524
1.08436
1.07157
1.05754
1.05065
1.04128
1.03714
1.0311
1.03087
1.02938
0.995402
1.20201
1.31204
0.0368046
0.0483025
0.058467
0.066653
0.0735416
0.0795062
0.0846624
0.0890583
0.0928231
0.0960923
0.0990181
0.101897
0.104616
0.107565
0.110738
0.114298
0.118249
0.122752
0.127735
0.133313
0.139316
0.145581
0.152339
0.144602
0.000997202
0.000974824
0.000952594
0.00093145
0.000911458
0.00089226
0.000891028
0.000966545
0.00120862
0.00174574
0.0030329
0.00744949
0.0193408
0.0326199
0.0325589
0.0447328
0.0553296
0.0638391
0.0708357
0.0768152
0.081955
0.0863061
0.0900387
0.0931995
0.0961607
0.0987932
0.101489
0.1042
0.107266
0.110675
0.114539
0.118841
0.123631
0.128965
0.134811
0.141101
0.147672
0.154367
0.148638
0.214634
0.257141
0.000997448
0.000975281
0.000953178
0.000932095
0.000911627
0.000892404
0.000876862
0.000900646
0.000989831
0.00115503
0.00204675
0.00533225
0.0147875
0.0280257
0.0293415
0.0407525
0.0504187
0.058104
0.0645438
0.0700657
0.0747987
0.0788336
0.082274
0.0852359
0.0877267
0.0900938
0.092228
0.0944834
0.0969501
0.0997493
0.102944
0.106568
0.110726
0.115448
0.120856
0.127065
0.134288
0.142157
0.148606
0.154021
0.157977
0.000997684
0.000975616
0.000953665
0.000932416
0.000912315
0.000893915
0.000874115
0.00087954
0.00094179
0.00107816
0.00181229
0.00440106
0.0112702
0.0239833
0.0271667
0.0380255
0.0467181
0.0534531
0.0589861
0.0636907
0.0675509
0.070888
0.0735328
0.0756526
0.0774479
0.0792325
0.0808187
0.0824451
0.0841821
0.0862204
0.0886064
0.0915031
0.0949511
0.0990624
0.103918
0.10954
0.116115
0.12309
0.129342
0.133695
0.139554
0.000997692
0.000975465
0.000953327
0.000932231
0.000912175
0.000894312
0.000873434
0.000872617
0.0008994
0.0010088
0.0016133
0.00375091
0.00945321
0.0228572
0.0260206
0.0365631
0.0445738
0.0505806
0.0554332
0.0593486
0.0625438
0.0650774
0.0670834
0.0688142
0.0703342
0.0718471
0.0731756
0.0745216
0.0758788
0.0773957
0.0791831
0.081374
0.084107
0.0875049
0.0916672
0.0965158
0.102135
0.107897
0.113314
0.117369
0.122515
0.000997505
0.00097533
0.000953221
0.000931959
0.000911979
0.00089269
0.000873723
0.000872296
0.000896976
0.00100548
0.00160336
0.00369932
0.00907037
0.0224222
0.025774
0.0361092
0.0436861
0.0492472
0.0536073
0.057051
0.0597294
0.0618583
0.0635823
0.0650804
0.0664143
0.0676999
0.0687963
0.0698805
0.0709822
0.0721465
0.0735673
0.0753501
0.0777469
0.0808185
0.0847109
0.0893386
0.0947347
0.100309
0.105674
0.109955
0.11441
0.000997452
0.000975256
0.000953235
0.000932063
0.000911936
0.000894355
0.000873374
0.000869862
0.000889429
0.000987984
0.00156889
0.0037179
0.0095108
0.0231733
0.0261623
0.03647
0.044059
0.0495455
0.0537923
0.0570652
0.0595838
0.0615656
0.0631497
0.0645044
0.0657817
0.0668782
0.0678886
0.068846
0.0698228
0.0709401
0.0723124
0.0740305
0.0763344
0.0792836
0.083022
0.0874384
0.0926163
0.0979436
0.103091
0.106921
0.111565
0.000997445
0.000975212
0.000953222
0.000932034
0.000912013
0.000892741
0.000873546
0.00087007
0.000886412
0.000985866
0.00154068
0.00358195
0.00911527
0.022619
0.025783
0.0361804
0.0439419
0.0496482
0.0541221
0.0576542
0.0603998
0.0625497
0.0642662
0.0657621
0.0670832
0.0684119
0.0695533
0.0707301
0.0719574
0.0732983
0.0748572
0.0767684
0.0791583
0.0821672
0.0858643
0.0901482
0.0950453
0.100043
0.104815
0.108516
0.112508
0.000997545
0.000975317
0.000953123
0.000931845
0.000911864
0.000892431
0.000873575
0.000870639
0.000885827
0.000986184
0.00154097
0.00352978
0.00878267
0.0215822
0.0257016
0.0363242
0.044578
0.0508051
0.0558689
0.0599427
0.0632743
0.065892
0.0679076
0.0696119
0.0711808
0.072615
0.0740393
0.0754824
0.0770028
0.0787566
0.0808025
0.0832684
0.0862236
0.0897537
0.0938596
0.098472
0.103624
0.108764
0.113574
0.117492
0.121751
0.000997714
0.000975556
0.000953556
0.00093228
0.000911957
0.000892937
0.000873652
0.000867039
0.000883931
0.000983303
0.00156618
0.00368175
0.00928114
0.0221559
0.026297
0.037151
0.0460483
0.0530179
0.0587851
0.0636259
0.067577
0.0708947
0.0735503
0.0756056
0.0773798
0.0790032
0.0806594
0.0823285
0.0842006
0.0863941
0.0889704
0.0920252
0.0955892
0.0996572
0.104291
0.109401
0.114986
0.120622
0.125633
0.131202
0.136032
0.000997536
0.000975311
0.000953346
0.000932001
0.000911372
0.000893959
0.000873911
0.000865227
0.000874708
0.000980838
0.00156017
0.00365269
0.00909422
0.0220268
0.026404
0.0374632
0.0468471
0.054355
0.0606941
0.0660601
0.0705752
0.0743717
0.0775682
0.08027
0.0825455
0.0847833
0.0868628
0.0891677
0.0917314
0.0947337
0.0981931
0.102093
0.106481
0.111297
0.116612
0.122273
0.128333
0.134365
0.140085
0.144925
0.152739
0.000997642
0.000975445
0.000953463
0.000932235
0.000912032
0.00089434
0.000874919
0.000883893
0.000937906
0.00105748
0.00172218
0.00404616
0.0101051
0.0234561
0.0271867
0.0383739
0.047847
0.0554756
0.061996
0.067554
0.0723322
0.0763845
0.0799089
0.0829511
0.0857533
0.0883248
0.0910465
0.0938325
0.0970556
0.100653
0.104758
0.109208
0.114193
0.11951
0.125342
0.131457
0.138018
0.144846
0.137612
0.190857
0.225765
0.000997543
0.000975361
0.000953352
0.000931883
0.000912102
0.000894541
0.000880548
0.000912491
0.00098427
0.0010691
0.00162907
0.00386969
0.0102485
0.0229882
0.0269472
0.0378503
0.0471878
0.0547704
0.0613623
0.0670492
0.0720227
0.0762961
0.0800947
0.0833848
0.086459
0.0893107
0.0923495
0.0954172
0.0989066
0.102704
0.107001
0.111607
0.11675
0.122198
0.128168
0.134399
0.140959
0.148213
0.138227
0.199018
0.238885
0.000743084
0.000745155
0.000753917
0.000769447
0.000791153
0.000819479
0.000854375
0.000895734
0.000943332
0.00099722
0.0010576
0.00112517
0.00120033
0.00128484
0.00138023
0.00148895
0.00161344
0.00175732
0.0019234
0.00211677
0.00233972
0.00259499
0.00287091
0.00289138
0.000997283
0.000974577
0.000952039
0.000930302
0.000909541
0.000889789
0.000870937
0.000852889
0.000835698
0.000819257
0.000803474
0.000788287
0.000773604
0.000758352
0.000742065
0.000742356
0.000749129
0.00076275
0.00078241
0.000808277
0.000840547
0.00087894
0.000923465
0.000973775
0.00103053
0.00109361
0.00116411
0.00124273
0.00133179
0.00143293
0.00154932
0.00168328
0.00183855
0.00201835
0.00222774
0.00247057
0.00275687
0.00305632
0.00297755
0.00487202
0.00591037
0.000997437
0.000974488
0.000952171
0.000930537
0.000909813
0.000890042
0.000871126
0.000853076
0.00083585
0.000819367
0.000803558
0.000788364
0.000773823
0.000757886
0.000741027
0.000739525
0.000743738
0.000753365
0.000768449
0.000788787
0.000814492
0.000845545
0.000881647
0.000922862
0.000968764
0.00101993
0.0010761
0.00113869
0.00120854
0.00128796
0.00137853
0.00148343
0.00160505
0.00174763
0.00191647
0.0021207
0.00237509
0.00268747
0.0029973
0.00330081
0.00355168
0.000997586
0.000974613
0.000952327
0.000930738
0.000910034
0.000890263
0.000871341
0.000853307
0.000836082
0.000819581
0.000803741
0.000788545
0.000773951
0.000757496
0.000740238
0.000737637
0.00074006
0.000746782
0.000758064
0.000773505
0.00079275
0.000816071
0.000842949
0.00087313
0.000906424
0.000943339
0.000983752
0.00102844
0.00107802
0.00113397
0.00119765
0.0012716
0.00135831
0.00146159
0.00158606
0.00173801
0.00192569
0.00215103
0.00238613
0.00262838
0.00286995
0.000997651
0.000974692
0.000952415
0.000930835
0.000910136
0.000890361
0.000871442
0.000853404
0.000836168
0.000819667
0.000803833
0.000788611
0.000774021
0.000757317
0.000739825
0.000736635
0.000738024
0.000743205
0.000752294
0.000764364
0.000779501
0.000797633
0.000818288
0.000841538
0.000867257
0.000895912
0.000927306
0.00096214
0.0010006
0.00104372
0.00109233
0.00114833
0.00121362
0.00129139
0.00138466
0.00149704
0.00163166
0.00178682
0.00195536
0.00214191
0.00233165
0.000997647
0.000974679
0.000952396
0.000930817
0.00091013
0.00089037
0.000871467
0.000853441
0.000836198
0.000819702
0.000803876
0.000788649
0.000774044
0.000757271
0.00073975
0.000736423
0.000737402
0.000741829
0.000749536
0.000760327
0.000773213
0.000788486
0.000805904
0.000825576
0.000847448
0.000871838
0.000898536
0.000928047
0.000960544
0.000996687
0.00103718
0.00108357
0.00113771
0.00120229
0.00127997
0.00137327
0.00148437
0.00161277
0.00175956
0.00192435
0.00209316
0.000997674
0.000974721
0.000952459
0.000930898
0.000910213
0.000890435
0.000871498
0.000853452
0.000836197
0.000819671
0.000803843
0.000788627
0.000774032
0.000757345
0.000739879
0.000736754
0.000737954
0.000742689
0.000750504
0.00076087
0.000773705
0.000788802
0.000805827
0.000824848
0.00084594
0.000869216
0.000894654
0.000922684
0.000953439
0.000987742
0.00102625
0.00107041
0.00112187
0.00118308
0.00125633
0.00134367
0.00144748
0.00156809
0.00170667
0.00186294
0.00202171
0.000997703
0.000974763
0.000952502
0.000930933
0.000910241
0.000890459
0.00087153
0.000853485
0.000836223
0.000819683
0.000803835
0.000788621
0.000774035
0.000757258
0.000739725
0.00073648
0.00073757
0.000742205
0.000750331
0.000761342
0.00077461
0.00079036
0.000808285
0.000828479
0.000850885
0.000875914
0.000903387
0.000933912
0.000967744
0.00100567
0.00104828
0.00109709
0.00115352
0.00122004
0.00129872
0.00139149
0.00150045
0.00162577
0.00176848
0.00192688
0.00208785
0.000997676
0.000974734
0.000952473
0.000930905
0.000910212
0.000890433
0.000871497
0.000853438
0.00083618
0.000819654
0.000803813
0.000788609
0.000774033
0.000757192
0.00073964
0.00073636
0.00073772
0.000742978
0.000752389
0.000764871
0.000780506
0.000799248
0.000820578
0.000844506
0.000871061
0.000900524
0.000933033
0.000969273
0.0010096
0.00105523
0.00110702
0.00116689
0.00123655
0.00131861
0.00141515
0.00152833
0.0016603
0.00181238
0.00198424
0.00217374
0.0023644
0.000997707
0.000974753
0.000952475
0.000930892
0.000910186
0.000890403
0.000871445
0.000853351
0.000836111
0.000819594
0.000803757
0.000788548
0.000773956
0.000757208
0.000739767
0.000736721
0.000738821
0.000745394
0.000756496
0.000771854
0.000791321
0.000814766
0.00084173
0.00087186
0.00090507
0.000941711
0.000982087
0.00102694
0.0010771
0.0011341
0.00119933
0.00127511
0.00136347
0.00146706
0.0015885
0.00173045
0.00189545
0.00208617
0.00230362
0.00254976
0.00279391
0.000997689
0.000974745
0.000952457
0.000930853
0.000910132
0.000890343
0.000871394
0.000853299
0.000836076
0.000819566
0.000803715
0.000788506
0.000773905
0.000757174
0.000739745
0.000736859
0.000739353
0.000746742
0.0007593
0.000776514
0.000798586
0.000825417
0.00085669
0.00089238
0.000932188
0.00097681
0.00102621
0.00108191
0.0011449
0.0012175
0.00130153
0.00139969
0.00151421
0.00164793
0.00180395
0.00198491
0.00219371
0.00243286
0.002694
0.00300624
0.00329662
0.000997671
0.000974794
0.000952473
0.000930823
0.000910094
0.000890322
0.000871411
0.000853346
0.000836109
0.000819592
0.000803738
0.000788504
0.000773891
0.000757244
0.000739879
0.00073727
0.000740195
0.000748093
0.000761344
0.000779695
0.000803218
0.000831781
0.00086547
0.000904196
0.000948322
0.000998067
0.00105443
0.00111833
0.00119186
0.00127694
0.00137625
0.00149194
0.00162749
0.00178476
0.0019686
0.00218084
0.00242731
0.00270772
0.00260809
0.00418815
0.00505014
0.000997732
0.000975205
0.000952584
0.000930836
0.000910078
0.0008903
0.00087144
0.000853396
0.000836124
0.000819615
0.000803769
0.000788518
0.000773897
0.000757254
0.000739646
0.000736799
0.000739268
0.00074659
0.000759257
0.00077707
0.000800369
0.000828982
0.00086318
0.000902778
0.000948336
0.00100004
0.00105918
0.00112649
0.00120434
0.0012943
0.00139948
0.00152158
0.00166462
0.00183028
0.00202371
0.00224731
0.00250734
0.00280491
0.00267508
0.00435778
0.00521599
0.000737191
0.000727244
0.000712501
0.000704161
0.000686639
0.000675881
0.00066621
0.000656623
0.000647284
0.00063794
0.000628739
0.000619496
0.000610416
0.000601307
0.000592345
0.000583365
0.000574561
0.000565786
0.000557219
0.000548729
0.000540502
0.00053249
0.000525191
0.000517897
0.000997725
0.0009751
0.000952619
0.000930905
0.000910103
0.000890228
0.000871237
0.000853065
0.000835661
0.000818987
0.000803013
0.000787694
0.000772905
0.000755633
0.000737899
0.000728931
0.000712532
0.00070503
0.000689266
0.000676512
0.000666632
0.000657093
0.000647643
0.000638422
0.000629179
0.000620055
0.000610937
0.000601935
0.000592935
0.000584039
0.000575184
0.000566469
0.000557846
0.000549398
0.000541096
0.000533006
0.000525065
0.000517149
0.000510886
0.00050768
0.00050101
0.000997568
0.000974561
0.000952271
0.000930683
0.000909912
0.00089003
0.000871013
0.000852811
0.000835382
0.000818691
0.0008027
0.00078735
0.00077259
0.000756291
0.000739332
0.00072701
0.000714277
0.000702783
0.000691664
0.000676358
0.000666451
0.000656843
0.000647357
0.000638069
0.000628785
0.000619599
0.000610428
0.000601371
0.000592319
0.000583377
0.000574464
0.000565706
0.000557015
0.00054852
0.000540134
0.000531971
0.000523917
0.000516052
0.000508429
0.000501102
0.000494737
0.000997319
0.000974203
0.000951891
0.000930366
0.000909624
0.000889737
0.000870703
0.000852489
0.000835063
0.000818382
0.000802398
0.000787073
0.000772376
0.000756569
0.000739894
0.000726214
0.000715223
0.000701616
0.000691979
0.000679567
0.000666105
0.000656249
0.000646654
0.000637401
0.000628163
0.000619114
0.000610043
0.000601126
0.000592156
0.000583308
0.000574438
0.000565723
0.000557036
0.000548529
0.000540094
0.000531854
0.000523701
0.000515749
0.000507983
0.000500601
0.0004942
0.000997265
0.00097413
0.000951816
0.000930308
0.000909578
0.000889693
0.000870653
0.000852435
0.000835007
0.000818331
0.000802363
0.000787059
0.00077238
0.00075652
0.000739701
0.00072657
0.000714631
0.000702191
0.000693331
0.000678044
0.000664669
0.00065558
0.000646507
0.000637538
0.000628439
0.000619399
0.00061029
0.000601274