/*--------------------------------*- C++ -*----------------------------------*\
  =========                 |
  \\      /  F ield         | OpenFOAM: The Open Source CFD Toolbox
   \\    /   O peration     | Website:  https://openfoam.org
    \\  /    A nd           | Version:  7
     \\/     M anipulation  |
\*---------------------------------------------------------------------------*/
FoamFile
{
    version     2.0;
    format      ascii;
    class       volScalarField;
    location    "1000";
    object      nut;
}
// * * * * * * * * * * * * * * * * * * * * * * * * * * * * * * * * * * * * * //

dimensions      [0 2 -1 0 0 0 0];

internalField   nonuniform List<scalar> 
120313
(
0.0016156
0.0019339
0.00204034
0.00210802
0.00213985
0.00215285
0.00215649
0.00215316
0.00214124
0.00212109
0.00208683
0.00205276
0.00201635
0.00197016
0.00192964
0.00189374
0.00186285
0.00183003
0.0017961
0.00176134
0.00172237
0.00167353
0.0016029
0.00134128
0.00186608
0.00251192
0.00268625
0.00279905
0.0028514
0.00287558
0.00288716
0.00288245
0.00285807
0.00283386
0.00280144
0.00275631
0.00270756
0.0026523
0.00260367
0.00255447
0.00250991
0.00246333
0.00241531
0.00236502
0.00230804
0.00222537
0.00209287
0.00156682
0.0018814
0.00255366
0.00275322
0.00287781
0.00293874
0.00296805
0.00298297
0.00298435
0.00296415
0.00293786
0.00290311
0.0028541
0.00280098
0.00274758
0.00269287
0.00264371
0.00259592
0.00254864
0.0024979
0.00244607
0.00238414
0.00229171
0.00213083
0.00158367
0.00188244
0.00256499
0.00277268
0.00290309
0.00296743
0.00299963
0.00301771
0.00302294
0.00300432
0.00297664
0.00293975
0.00288984
0.0028349
0.00278157
0.00272515
0.00267487
0.00262614
0.00257809
0.00252703
0.00247451
0.00241092
0.00231506
0.00214642
0.00159132
0.00187983
0.00256057
0.00276847
0.00289969
0.00296454
0.00299741
0.00301635
0.00302232
0.00300417
0.00297673
0.00293913
0.00288959
0.0028344
0.00278139
0.00272451
0.00267413
0.00262585
0.00257793
0.00252693
0.00247446
0.00241081
0.00231495
0.00214586
0.00159125
0.00187187
0.00254234
0.00274246
0.00286874
0.00293112
0.00296233
0.00297961
0.00298278
0.00296502
0.00293808
0.00290272
0.00285373
0.00280011
0.00274783
0.00269243
0.00264338
0.00259571
0.00254812
0.00249716
0.00244517
0.00238299
0.00229069
0.00212851
0.0015828
0.00185098
0.00249248
0.00266845
0.00278448
0.00283976
0.00286682
0.00288038
0.00287745
0.00285851
0.00283569
0.00280222
0.0027544
0.00270456
0.00265334
0.002602
0.00255476
0.00250915
0.00246266
0.0024132
0.00236284
0.00230519
0.00222256
0.00208821
0.00156378
0.00159844
0.00192049
0.00203135
0.00210558
0.00213923
0.00215511
0.00216162
0.00215879
0.00214811
0.00212791
0.00209476
0.00206003
0.00202186
0.00197507
0.00193644
0.0019026
0.00187024
0.00183564
0.00180064
0.00176466
0.00172537
0.00167651
0.0016003
0.00133574
0.00123374
0.00229499
0.00322016
0.00409033
0.00492133
0.00570026
0.00636331
0.00683076
0.00812279
0.00863306
0.0097407
0.0106288
0.0113274
0.0116964
0.0119114
0.0120197
0.0120638
0.0120714
0.0120232
0.0119956
0.0119369
0.0118502
0.0116839
0.0114857
0.0112518
0.0109777
0.0106878
0.0103804
0.010092
0.0098175
0.00952191
0.00927851
0.00900773
0.00877711
0.00864316
0.00853404
0.00122813
0.00226535
0.00317462
0.00402443
0.00482022
0.00554217
0.0061165
0.00640496
0.00718914
0.0114277
0.0139159
0.015255
0.0161058
0.0165383
0.0167383
0.0167955
0.0167736
0.0166804
0.0165232
0.0164312
0.0163451
0.0161947
0.0159312
0.0156366
0.0153126
0.0149667
0.0146115
0.0142513
0.0139002
0.0135552
0.0131831
0.0130015
0.0117221
0.0114805
0.00885153
0.00827869
0.00117736
0.00222797
0.00314018
0.00398215
0.00475873
0.00544332
0.00595486
0.00610059
0.00649738
0.0105152
0.0137475
0.0152618
0.0164115
0.0168165
0.0169363
0.0169353
0.0168504
0.0166946
0.0167021
0.0166244
0.0164762
0.0162105
0.0159549
0.0156532
0.0153259
0.0149863
0.0146441
0.0143001
0.0139609
0.0136274
0.0132499
0.0130543
0.0111606
0.0107493
0.00846694
0.00802799
0.00113171
0.00220223
0.00311542
0.003949
0.00470656
0.00535542
0.00581191
0.00587398
0.00612843
0.0100882
0.0135816
0.0152548
0.0161765
0.0166187
0.0167496
0.0167139
0.016569
0.0166188
0.0165844
0.0164768
0.0162847
0.0160316
0.0157415
0.015433
0.0151044
0.0147761
0.0144481
0.0141304
0.0138171
0.0135133
0.0131633
0.0129228
0.0109383
0.0104242
0.00828159
0.00787938
0.00116108
0.00220759
0.00310811
0.0039281
0.00466845
0.00529336
0.00572356
0.00576201
0.00598962
0.00994045
0.013478
0.0151795
0.016049
0.0164664
0.0165907
0.0165432
0.0164579
0.0165511
0.0164604
0.0163422
0.0161317
0.015869
0.015568
0.0152537
0.0149202
0.0146081
0.0142978
0.0140075
0.0137169
0.0134392
0.0131162
0.0128638
0.0108908
0.0103304
0.00821573
0.00783455
0.00118279
0.00221028
0.00310153
0.003915
0.00464945
0.00526793
0.00569259
0.00572909
0.00596064
0.00992106
0.013458
0.015153
0.0160193
0.0164295
0.0165475
0.0164928
0.0164299
0.0165221
0.0164239
0.0163012
0.0160865
0.0158186
0.0155155
0.0152009
0.0148763
0.0145704
0.0142657
0.0139775
0.01369
0.013414
0.0130946
0.01284
0.0108783
0.0103298
0.00820559
0.00782786
0.00116446
0.00219088
0.00308425
0.00390512
0.00465114
0.00528516
0.00572401
0.00577127
0.0060293
0.0100427
0.0135125
0.0151832
0.0160997
0.0165267
0.0166443
0.0166005
0.0164683
0.0165575
0.0164891
0.0163742
0.016165
0.0159026
0.0156143
0.0153047
0.0149852
0.0146636
0.0143464
0.0140371
0.0137357
0.0134399
0.0131006
0.0128536
0.0108892
0.0104464
0.00822451
0.00784136
0.00112463
0.00216283
0.00306364
0.00390041
0.00467239
0.00534471
0.0058257
0.00591601
0.00628242
0.0104739
0.0136664
0.0151741
0.0163593
0.0167306
0.016823
0.0167844
0.0166511
0.0166191
0.0166274
0.0165202
0.0162983
0.0160572
0.0157999
0.015497
0.01518
0.0148463
0.0145154
0.0141785
0.0138488
0.0135228
0.0131547
0.0129459
0.0110699
0.0108176
0.00830236
0.00791137
0.00112835
0.00214942
0.00304678
0.00389444
0.00469521
0.00542092
0.00598326
0.00621134
0.00691866
0.011475
0.013933
0.0151923
0.0163246
0.0166458
0.016748
0.0167579
0.0166647
0.0165328
0.016471
0.0164346
0.0162793
0.0160822
0.0158293
0.01553
0.0152165
0.0148717
0.0145268
0.0141719
0.0138295
0.0134891
0.013127
0.012911
0.0116477
0.0115715
0.00875709
0.00817219
0.00114321
0.0021405
0.00303796
0.00389508
0.00471975
0.00548899
0.0061297
0.00650792
0.00773441
0.012546
0.0138672
0.0150375
0.0158643
0.0162531
0.0164416
0.0165012
0.0164756
0.0163785
0.0162204
0.0161547
0.0160943
0.0159436
0.0156978
0.0154164
0.015114
0.0147697
0.0144099
0.0140501
0.0136981
0.0133551
0.0130033
0.0127315
0.0121244
0.012353
0.00919447
0.00844309
0.0011144
0.00211438
0.0030327
0.00391508
0.00476901
0.00556961
0.00624338
0.00668233
0.00798559
0.00836292
0.00929342
0.0102028
0.0108632
0.011218
0.0114295
0.0115382
0.0115887
0.0115829
0.0115446
0.0115297
0.0115122
0.0114208
0.0112491
0.0110605
0.0108262
0.0105653
0.0102765
0.00998498
0.00970276
0.00943279
0.00916856
0.00892158
0.00865108
0.00847587
0.00846954
0.00845816
0.000990133
0.00207358
0.00304307
0.00396853
0.00487815
0.00576507
0.00657318
0.00725327
0.00863001
0.00909659
0.0101245
0.0109957
0.0117234
0.0120909
0.0123073
0.0124076
0.0124525
0.0124399
0.0124518
0.0124642
0.0124583
0.0123674
0.0121812
0.0119751
0.0117161
0.0114318
0.0111263
0.0108194
0.0105163
0.0102254
0.00993733
0.0096584
0.0093913
0.00917961
0.00902865
0.00885243
0.0153503
0.0166612
0.0178493
0.0184557
0.0188412
0.0189989
0.0190775
0.0191268
0.0192433
0.0194144
0.0195572
0.0193883
0.0193054
0.0190981
0.0188095
0.0185206
0.0181804
0.0178504
0.0174763
0.0171252
0.0167499
0.0164097
0.0160075
0.0158312
0.00220618
0.00373871
0.00512336
0.00643439
0.00770618
0.00897905
0.0102978
0.011706
0.0133603
0.0153458
0.0164955
0.0177477
0.0182968
0.0186247
0.0187702
0.0187867
0.0188073
0.0188908
0.0190572
0.0192633
0.0193287
0.01932
0.0189066
0.0186619
0.018357
0.0180398
0.0176731
0.017318
0.0169426
0.0165927
0.0162365
0.0159063
0.0155816
0.0154449
0.0149143
0.0145511
0.00215619
0.00367374
0.00505611
0.00635337
0.0076035
0.00885394
0.0101518
0.0115258
0.0131673
0.0149921
0.0160509
0.0173994
0.0179215
0.018229
0.0183527
0.0183463
0.0183772
0.0184874
0.018712
0.0189593
0.0190116
0.018854
0.018611
0.0183563
0.0180186
0.0176898
0.0173162
0.0169716
0.0166077
0.0162809
0.0159282
0.0156735
0.0152966
0.0150245
0.0147657
0.0144382
0.00207437
0.00359805
0.00497759
0.00626213
0.00749005
0.00870886
0.00995767
0.0112519
0.0127503
0.0144593
0.015594
0.0168902
0.0174874
0.0178393
0.0179689
0.0180267
0.0181473
0.018454
0.0187134
0.0187839
0.0186912
0.0185139
0.0182414
0.0179593
0.0176295
0.0173025
0.01695
0.0166195
0.0162776
0.0159779
0.0156456
0.0154571
0.0150632
0.0147336
0.0144861
0.0141708
0.00199831
0.00354274
0.00491494
0.00618532
0.00739107
0.0085753
0.0097714
0.0109767
0.0123615
0.0141074
0.0153116
0.0165264
0.0171183
0.0175201
0.0176965
0.017821
0.0180984
0.0184734
0.0185472
0.0185178
0.0183792
0.0181676
0.0178889
0.0175917
0.0172686
0.0169527
0.0166296
0.0163264
0.0160261
0.0157602
0.0154589
0.0152985
0.0149233
0.0145878
0.0143449
0.0140429
0.00201365
0.00352982
0.004881
0.00613382
0.00732207
0.0084823
0.00964673
0.0108036
0.0121483
0.0139294
0.0151589
0.0163131
0.0169049
0.0173314
0.0175537
0.0177212
0.0180585
0.0184257
0.0183503
0.018323
0.018162
0.0179264
0.0176294
0.0173244
0.0169759
0.0167196
0.0164202
0.0161863
0.0159127
0.0157069
0.015436
0.015302
0.0149357
0.0145908
0.0143484
0.0140568
0.00203522
0.0035239
0.00486039
0.00610309
0.00728504
0.00843799
0.00959416
0.01074
0.0120878
0.0139028
0.0151285
0.01628
0.0168686
0.0172903
0.0175179
0.0176973
0.0180443
0.0183955
0.0183036
0.0182684
0.0181044
0.0178581
0.0175525
0.0172523
0.0169289
0.0166843
0.0163923
0.016157
0.0158874
0.0156804
0.0154117
0.0152847
0.0149204
0.0145757
0.0143341
0.0140476
0.00201338
0.00349849
0.00483721
0.00608576
0.00727734
0.0084428
0.0096162
0.0107848
0.0121731
0.0140301
0.0152282
0.0164225
0.0170036
0.0174047
0.017588
0.0177269
0.0180453
0.0184393
0.0184026
0.0183785
0.0182284
0.0179924
0.0177207
0.0174188
0.0171084
0.0168056
0.016498
0.016212
0.0159347
0.0156778
0.0153891
0.0152289
0.0148546
0.0145222
0.0142883
0.0139929
0.00197413
0.00347032
0.00481979
0.00608616
0.00730227
0.00850199
0.00972329
0.0109601
0.0124523
0.0143513
0.0154785
0.0167488
0.0173255
0.0176645
0.0178017
0.0178942
0.0180981
0.0184673
0.0186242
0.0186161
0.0184844
0.0182903
0.018041
0.0177489
0.0174448
0.0171171
0.0167942
0.0164681
0.0161472
0.0158514
0.0155255
0.015337
0.0149415
0.0146212
0.014384
0.0140621
0.00198392
0.00346551
0.00481943
0.00610453
0.00735322
0.00860339
0.0099023
0.0112606
0.0129411
0.0148777
0.0158935
0.0172352
0.0177513
0.0180255
0.0181426
0.0181622
0.0182424
0.0184639
0.0187468
0.0188985
0.0188283
0.0186803
0.0184128
0.0181345
0.0178068
0.0174788
0.017123
0.0167845
0.0164334
0.0161184
0.0157769
0.0155461
0.0151607
0.0148594
0.0146167
0.0142766
0.00201321
0.00346581
0.00482783
0.00613391
0.00741431
0.00871097
0.0100807
0.011559
0.0134021
0.0153421
0.0162976
0.0176167
0.0180962
0.0183614
0.0184913
0.0184877
0.0185139
0.0186302
0.018849
0.0191179
0.0191907
0.0190188
0.0187786
0.0185327
0.018207
0.0178775
0.0174962
0.0171425
0.0167647
0.0164261
0.0160617
0.0157706
0.015396
0.0151348
0.0148765
0.0145121
0.00198399
0.00343868
0.00482446
0.00616105
0.00747308
0.00879775
0.0101944
0.0116989
0.0134843
0.0154242
0.0164849
0.0177809
0.0182965
0.0186046
0.0187719
0.0188127
0.0188709
0.01902
0.0192231
0.0195044
0.0195003
0.0193429
0.0190388
0.0187984
0.018455
0.0181217
0.0177274
0.0173677
0.0169755
0.0166256
0.0162553
0.0159376
0.0155467
0.0153975
0.0148469
0.0144647
0.00187183
0.00338957
0.00481257
0.00618282
0.00752604
0.00887152
0.0102664
0.0117326
0.0134342
0.0152795
0.0163282
0.0176322
0.0181541
0.0184528
0.0185978
0.0187022
0.0188308
0.0190809
0.0193445
0.0196061
0.0194365
0.019312
0.0190367
0.0187645
0.0184015
0.0180619
0.0176665
0.0173109
0.016918
0.0165735
0.0162013
0.0158867
0.0154838
0.0153741
0.0148779
0.0144891
0.0112665
0.0126053
0.0146988
0.0152302
0.0155633
0.0156863
0.0156894
0.0156036
0.0154688
0.0153128
0.0152036
0.0151532
0.0148917
0.0148804
0.0144534
0.0144478
0.0140972
0.0140887
0.013692
0.0137228
0.0132823
0.0133568
0.0128552
0.0130999
0.00240079
0.00344866
0.00436851
0.00540262
0.00642362
0.00746181
0.00857704
0.00984606
0.0107345
0.0113153
0.0126171
0.0148642
0.0154916
0.0158254
0.0159271
0.0159349
0.0158499
0.0157105
0.0155473
0.015394
0.0152723
0.0151779
0.0150043
0.0149233
0.0145536
0.0145773
0.0140266
0.0140845
0.0135733
0.0136456
0.0132219
0.0132164
0.0129137
0.0131353
0.0132019
0.0133533
0.00234221
0.00336599
0.00427235
0.0052582
0.00626821
0.00730753
0.00844912
0.00976141
0.0107442
0.0111896
0.0123581
0.0146341
0.0151832
0.0155085
0.0156453
0.015664
0.015582
0.0154521
0.0153212
0.015196
0.0150806
0.0150235
0.0147294
0.0147465
0.0141516
0.0142012
0.013635
0.0137321
0.0132442
0.0133803
0.0129522
0.0130422
0.0127375
0.0126916
0.01247
0.0123926
0.00226956
0.00329448
0.0041858
0.00515737
0.00613964
0.00715295
0.00828839
0.00961075
0.0106161
0.0108954
0.0122362
0.0140945
0.0146317
0.0149325
0.015072
0.015068
0.0149867
0.0149146
0.0148258
0.0148008
0.0145712
0.0145721
0.014154
0.0141125
0.0137604
0.0136828
0.0133269
0.0132846
0.0129187
0.0129735
0.0126222
0.0128076
0.0124596
0.0125198
0.0121325
0.0119461
0.00219901
0.00324222
0.00412753
0.00508244
0.00604813
0.00703623
0.00814575
0.00944876
0.0104445
0.0106143
0.0121613
0.0136091
0.0141461
0.014426
0.0145213
0.0144924
0.0144145
0.0143798
0.014294
0.0142901
0.0140416
0.0138939
0.0136704
0.0135033
0.013313
0.0131619
0.0129935
0.0128704
0.0127422
0.0126943
0.0124568
0.0126107
0.0123608
0.0124839
0.0118996
0.0116469
0.00220126
0.00322141
0.00408591
0.00502751
0.00598372
0.00695745
0.00804793
0.00932895
0.010317
0.0104485
0.0120863
0.0133513
0.0138748
0.0141146
0.0141818
0.0141247
0.0140469
0.0140636
0.013948
0.0138898
0.0136424
0.013435
0.013178
0.0130442
0.0127109
0.012981
0.012724
0.012956
0.0127221
0.0129682
0.0126857
0.0128664
0.012582
0.0126668
0.0120163
0.0117043
0.00221393
0.00319784
0.0040523
0.00498131
0.00593389
0.00690799
0.00799605
0.0092712
0.0102647
0.010421
0.0120479
0.0133222
0.0138406
0.0140592
0.0141127
0.0140389
0.0139696
0.0139809
0.0138644
0.0137787
0.0135334
0.013299
0.0129907
0.0129563
0.0127032
0.0129935
0.0127268
0.0129429
0.0127051
0.0129413
0.0126592
0.0129043
0.0126034
0.0126782
0.0119857
0.0116725
0.00219593
0.00317706
0.00402671
0.0049529
0.00591139
0.00688908
0.00798633
0.00927366
0.0102841
0.0105238
0.0120847
0.0134929
0.0140056
0.0142553
0.0143193
0.0142582
0.0141497
0.014151
0.0140608
0.0140048
0.0137767
0.0135556
0.0133796
0.0132063
0.0130207
0.0129556
0.0127775
0.0127481
0.0126678
0.0126073
0.0124141
0.0125339
0.0122924
0.0124088
0.0117769
0.0115002
0.00216938
0.0031667
0.00402353
0.00495853
0.0059236
0.00691137
0.00803123
0.0093494
0.0103969
0.0107768
0.012165
0.0139129
0.0143984
0.0146743
0.0147604
0.0147222
0.0146319
0.0145337
0.0144547
0.014465
0.0141663
0.0141035
0.0139072
0.0137343
0.0135599
0.0133779
0.0132073
0.0130504
0.0128259
0.0127942
0.0124783
0.0126293
0.0123132
0.0124134
0.011795
0.0115397
0.00217743
0.00316543
0.00403266
0.00499292
0.00596723
0.00697778
0.00813365
0.00949614
0.0105856
0.0110908
0.0122787
0.0144807
0.014907
0.0151707
0.0152909
0.0152708
0.0151697
0.0150696
0.0149653
0.0149091
0.0147238
0.0147679
0.0142528
0.0142863
0.0138218
0.0138436
0.0133861
0.0134404
0.0130077
0.0131184
0.0127345
0.0128854
0.0124947
0.0125322
0.0120965
0.0119147
0.00219909
0.00316335
0.00402619
0.00500207
0.00600916
0.00704288
0.00822734
0.00961639
0.0107071
0.0112516
0.0124529
0.0147914
0.0152539
0.015528
0.0156496
0.0156571
0.015565
0.0154374
0.0153218
0.0152117
0.0151195
0.0150756
0.0147991
0.0148309
0.0142932
0.0143385
0.0137557
0.0138577
0.0133541
0.0134841
0.013022
0.0130859
0.0127781
0.0126723
0.0124797
0.0122988
0.00217669
0.00314866
0.0040383
0.00504029
0.00606547
0.00711836
0.00829513
0.00964906
0.0106581
0.0112121
0.0124542
0.0148499
0.0153452
0.0156377
0.015775
0.0157946
0.015713
0.0155872
0.0154723
0.0153701
0.0152997
0.0152614
0.0149632
0.0150085
0.014422
0.0144947
0.0139128
0.0140253
0.0135044
0.0136292
0.0131585
0.013211
0.0128412
0.0128167
0.0128963
0.0130808
0.00209843
0.0031613
0.0040862
0.00511615
0.00616709
0.00721329
0.00834997
0.00963216
0.0105256
0.0110715
0.0123036
0.0147191
0.0152466
0.0155573
0.0157162
0.0157427
0.0156684
0.0155517
0.0154474
0.0153938
0.0152767
0.0152871
0.0148321
0.014873
0.0142858
0.0143633
0.0138194
0.0139319
0.0134179
0.0135719
0.0130597
0.0131593
0.0126946
0.0127446
0.012893
0.0131128
0.00395525
0.00400299
0.00414729
0.00419576
0.00432374
0.00446948
0.00458089
0.00465463
0.00470835
0.00473517
0.0047634
0.00479447
0.00482849
0.00489463
0.00496006
0.00505143
0.0051491
0.00527272
0.00539431
0.00553471
0.00565769
0.00583597
0.00594344
0.00612894
0.00145781
0.00184584
0.00246613
0.00305536
0.00357948
0.00417583
0.00481004
0.00544609
0.0058472
0.00400046
0.00403212
0.00417626
0.00420862
0.00429451
0.00443038
0.00454149
0.00461179
0.00466893
0.00469294
0.00472908
0.00473785
0.00477418
0.00482799
0.0049081
0.00500035
0.0051039
0.00521817
0.00532821
0.00546914
0.00559506
0.00576929
0.00595239
0.00607699
0.00625859
0.00762439
0.00842119
0.00143102
0.00190171
0.00255305
0.00309963
0.00359571
0.00418471
0.00486625
0.00544723
0.00586673
0.00387551
0.0038917
0.00398811
0.00400493
0.00412141
0.00424808
0.00435425
0.00441987
0.00447809
0.00449651
0.00448572
0.00446933
0.00448437
0.00452092
0.00459072
0.00467269
0.00477953
0.0048833
0.005014
0.00514504
0.00530832
0.00547052
0.00569429
0.0058797
0.00611874
0.00618096
0.00632515
0.00140484
0.00185108
0.00250717
0.00305731
0.00355473
0.0041092
0.00475855
0.00533572
0.0057387
0.00375873
0.00377574
0.00378588
0.00378426
0.00388624
0.00400296
0.00406426
0.00414835
0.00413905
0.00410743
0.00408859
0.004098
0.00409154
0.00410609
0.00413916
0.00420716
0.00429805
0.00443331
0.00457283
0.00474407
0.00491587
0.00509511
0.00533056
0.00552672
0.00575404
0.00579363
0.00587267
0.0013565
0.00181544
0.00244078
0.00299254
0.00349644
0.00403678
0.00467813
0.00524299
0.0056459
0.00366704
0.00368643
0.0036317
0.00360398
0.00369387
0.00376471
0.00383752
0.00385321
0.0038531
0.00386335
0.00385971
0.00386522
0.00386603
0.00386534
0.00386964
0.00389269
0.00396245
0.00405944
0.00420739
0.00438533
0.00458648
0.00478375
0.00505126
0.0052616
0.00547544
0.00550165
0.00553344
0.001301
0.00176191
0.00241735
0.00297224
0.00347648
0.00401243
0.00464596
0.00520105
0.0056039
0.00363402
0.00364933
0.00354943
0.00350997
0.00357561
0.00363265
0.00368117
0.00370132
0.00371158
0.0037238
0.00372601
0.00371503
0.003708
0.00369741
0.00368783
0.00369114
0.00373842
0.00384117
0.00400164
0.00420126
0.00443202
0.00466781
0.00498054
0.00521327
0.00542089
0.00541759
0.00544951
0.00138374
0.00179526
0.00243205
0.00297264
0.00346858
0.00399676
0.00463314
0.00519593
0.00557908
0.00363745
0.00365114
0.00355108
0.00350055
0.00356167
0.00360444
0.00365344
0.00367123
0.00367923
0.00368985
0.00368789
0.0036777
0.00365807
0.00365234
0.00362401
0.00366199
0.00370994
0.00380983
0.00396389
0.00416207
0.00439112
0.00462108
0.00494067
0.00516045
0.00536157
0.0053555
0.00535386
0.00132873
0.00179778
0.00244004
0.00297151
0.00346343
0.00398178
0.0046131
0.00517661
0.00556283
0.00363497
0.00365666
0.00358487
0.00354664
0.00361584
0.00367489
0.00372286
0.00373663
0.00374313
0.00375424
0.00375445
0.00375469
0.00374424
0.00374379
0.00375053
0.00376198
0.00380851
0.00390133
0.00403434
0.00421808
0.00442404
0.00462814
0.00489391
0.00508999
0.00527246
0.00525988
0.00527519
0.00129516
0.00176319
0.00242629
0.00297317
0.00347158
0.00397839
0.00460453
0.00516858
0.00558791
0.00367641
0.00369552
0.00368341
0.00366194
0.00376071
0.00383269
0.00390625
0.00391834
0.0039046
0.00390784
0.00390141
0.00390862
0.00390818
0.00392705
0.00393736
0.00398583
0.00406596
0.00417989
0.004325
0.0044971
0.00466813
0.00485895
0.00508154
0.00524104
0.00540387
0.00538978
0.00542974
0.00133402
0.00176388
0.00242087
0.00299005
0.00348275
0.00401008
0.00463737
0.00520991
0.00560556
0.00373677
0.00375949
0.00381924
0.00383065
0.0039445
0.00405464
0.00411667
0.00418119
0.0041849
0.00413663
0.00410973
0.00411224
0.00411457
0.00414128
0.00418466
0.00426272
0.00436544
0.00450105
0.00464383
0.0047947
0.00496102
0.0051335
0.00533591
0.00547919
0.00564427
0.00565151
0.0057494
0.00130306
0.00183612
0.00244867
0.0030115
0.00350974
0.00402221
0.00464664
0.00523332
0.0056222
0.00374396
0.00378902
0.00390245
0.00393819
0.00407366
0.00419049
0.00428113
0.00433675
0.00438204
0.00438035
0.00435971
0.00434892
0.00436808
0.00442323
0.00450472
0.00461465
0.00474417
0.0048667
0.00500715
0.00513368
0.00529313
0.0054219
0.00561879
0.00576281
0.00592479
0.00596661
0.00613058
0.00135761
0.00177614
0.00244151
0.00300873
0.00350218
0.00405022
0.00468833
0.00525584
0.00563475
0.00373703
0.00379576
0.00392347
0.00397243
0.00412205
0.00424718
0.00435332
0.00441312
0.0044787
0.00449408
0.00450124
0.00450125
0.00454848
0.00461079
0.00471863
0.00483192
0.00496261
0.00507543
0.00521587
0.00533461
0.00548417
0.00560513
0.00581334
0.00592947
0.00603615
0.00715289
0.0078818
0.00118808
0.00159368
0.00220047
0.00280908
0.0033551
0.00396765
0.00460928
0.00522803
0.00560814
0.00370569
0.00375074
0.00386848
0.00392752
0.00409856
0.00423484
0.00435441
0.00442197
0.00450128
0.00451583
0.00453552
0.00454185
0.00459732
0.00466323
0.0047699
0.00487408
0.00500071
0.00511024
0.00524929
0.00536582
0.00551263
0.00563269
0.00584006
0.00595921
0.00605812
0.00721925
0.00795264
8.98084e-05
0.000127104
0.000165822
0.000202763
0.000239629
0.000277031
0.000314473
0.00035133
0.00038752
0.000422982
0.000458215
0.00049416
0.000530368
0.000568907
0.000609808
0.000654183
0.00070242
0.000755593
0.000813542
0.000877294
0.000945573
0.00101645
0.0010941
0.00106068
9.01337e-06
9.13042e-06
9.16065e-06
9.17927e-06
9.14238e-06
9.13862e-06
7.91356e-06
5.11217e-06
3.76972e-06
4.13766e-06
6.67984e-06
1.59744e-05
4.211e-05
6.81405e-05
7.87197e-05
0.000117042
0.000156333
0.000193613
0.000229992
0.000266652
0.000303334
0.000339429
0.000374968
0.000409526
0.000444422
0.000478729
0.000514174
0.000550843
0.000590592
0.000633516
0.000680686
0.000732021
0.000788042
0.000849507
0.000916249
0.000987143
0.00106103
0.00114485
0.00112359
0.00166284
0.00205818
8.98368e-06
9.15111e-06
9.17878e-06
9.2283e-06
9.15724e-06
9.14012e-06
8.90189e-06
6.78315e-06
4.85963e-06
4.3393e-06
5.42576e-06
1.22338e-05
3.39379e-05
6.04069e-05
7.2156e-05
0.000107767
0.000143456
0.000177128
0.000210758
0.000244726
0.000278497
0.000311884
0.00034474
0.000376716
0.00040736
0.00043774
0.000467831
0.000499264
0.000532954
0.000569693
0.000610582
0.000655352
0.00070497
0.000759936
0.000821647
0.00089087
0.000970587
0.00105598
0.00113287
0.00120349
0.00128054
8.98845e-06
9.15874e-06
9.18532e-06
9.23629e-06
9.1627e-06
9.12526e-06
9.03778e-06
7.65709e-06
5.54458e-06
4.6656e-06
5.16497e-06
1.04437e-05
2.63963e-05
5.26635e-05
6.73712e-05
0.000101136
0.000133335
0.00016329
0.00019304
0.000223003
0.000252158
0.000281364
0.000308768
0.000334383
0.000359008
0.0003839
0.000408404
0.000433584
0.000460085
0.000489161
0.000521454
0.000558427
0.000600521
0.000648792
0.000704072
0.000766766
0.000839271
0.000917063
0.000992365
0.00105102
0.0011277
9.03808e-06
9.18591e-06
9.21431e-06
9.25771e-06
9.17192e-06
9.12907e-06
9.05818e-06
7.99469e-06
6.38987e-06
5.07745e-06
4.96034e-06
9.1579e-06
2.23337e-05
5.02732e-05
6.41986e-05
9.70448e-05
0.000126769
0.000153946
0.000180825
0.00020696
0.000232772
0.000257334
0.000280561
0.000303111
0.000325145
0.00034739
0.000369248
0.000391509
0.000414278
0.000438438
0.000465084
0.00049524
0.000530415
0.000571682
0.000620049
0.000675057
0.0007381
0.000804037
0.000870616
0.000925819
0.000992925
9.03478e-06
9.18155e-06
9.19917e-06
9.24165e-06
9.15201e-06
9.09802e-06
9.08436e-06
7.99095e-06
6.4227e-06
5.09566e-06
4.94947e-06
9.05215e-06
2.13339e-05
4.93258e-05
6.36872e-05
9.59356e-05
0.000124225
0.00014981
0.000174695
0.000198791
0.00022207
0.00024433
0.000265655
0.000286443
0.00030688
0.000327228
0.000347075
0.000367047
0.000387391
0.000408408
0.000431632
0.000458124
0.000489989
0.000528059
0.000573698
0.000626421
0.000687344
0.000751499
0.000817109
0.000873492
0.000935153
9.03377e-06
9.16391e-06
9.17879e-06
9.19557e-06
9.15777e-06
9.12118e-06
9.09483e-06
8.15301e-06
6.67637e-06
5.26545e-06
4.96338e-06
9.14697e-06
2.24844e-05
5.07861e-05
6.47092e-05
9.67785e-05
0.000125224
0.000150712
0.000175217
0.000198705
0.000221392
0.000243037
0.000263709
0.000283815
0.0003038
0.00032322
0.000342389
0.000361528
0.000380879
0.000401587
0.000424458
0.000450423
0.000481485
0.000518518
0.000562864
0.000613853
0.000673055
0.000735128
0.000798587
0.000851502
0.000912691
9.03357e-06
9.1749e-06
9.23336e-06
9.27135e-06
9.17651e-06
9.10226e-06
9.09611e-06
8.13174e-06
6.77199e-06
5.29491e-06
4.92307e-06
8.86392e-06
2.15734e-05
4.95026e-05
6.36615e-05
9.60059e-05
0.000124931
0.00015104
0.000176405
0.000200949
0.000224616
0.000247109
0.000268558
0.000289502
0.000310038
0.000330798
0.000351052
0.000371748
0.000393121
0.000415496
0.000439834
0.000467281
0.0004991
0.000536682
0.000580781
0.000630762
0.000687525
0.000746584
0.000806684
0.000858576
0.000914648
8.98524e-06
9.15236e-06
9.24078e-06
9.21404e-06
9.16424e-06
9.09736e-06
9.09727e-06
8.09161e-06
6.77776e-06
5.30121e-06
4.93254e-06
8.76406e-06
2.08239e-05
4.68836e-05
6.32517e-05
9.6318e-05
0.000126824
0.000154736
0.00018273
0.0002092
0.00023571
0.000260834
0.000284297
0.000306959
0.000329341
0.000351513
0.00037398
0.000397061
0.000421004
0.000446934
0.000475584
0.000507907
0.00054514
0.00058779
0.000636091
0.000689782
0.000749596
0.000810977
0.000872081
0.000927788
0.000987688
9.03854e-06
9.17213e-06
9.18499e-06
9.22852e-06
9.16014e-06
9.16481e-06
9.08518e-06
8.36484e-06
6.89984e-06
5.32838e-06
4.95898e-06
9.05956e-06
2.19509e-05
4.82404e-05
6.49043e-05
9.86305e-05
0.000131386
0.000162032
0.000192571
0.00022303
0.000252582
0.000281685
0.000309255
0.000334704
0.000359223
0.000383486
0.00040832
0.000433868
0.000461245
0.00049139
0.000525055
0.000563209
0.00060622
0.000654203
0.000707929
0.000766875
0.000831715
0.0008988
0.000960222
0.00103896
0.00110531
9.03525e-06
9.17888e-06
9.20128e-06
9.23438e-06
9.16559e-06
9.14895e-06
9.04521e-06
8.48511e-06
7.30246e-06
5.41968e-06
4.96954e-06
9.02347e-06
2.15445e-05
4.81887e-05
6.53218e-05
9.95577e-05
0.000133917
0.000166463
0.000199211
0.000231991
0.000264079
0.000295629
0.00032647
0.000356114
0.000384483
0.000413003
0.000441593
0.000472152
0.000505297
0.000542153
0.000583524
0.000629049
0.000679473
0.000734343
0.000794722
0.000859196
0.000929383
0.00100076
0.00107284
0.00113263
0.00124879
8.98752e-06
9.15521e-06
9.19995e-06
9.19046e-06
9.15659e-06
9.13013e-06
8.97086e-06
7.40609e-06
5.51992e-06
4.67265e-06
5.01395e-06
9.68207e-06
2.36756e-05
5.13011e-05
6.67558e-05
0.000101524
0.000136228
0.000169309
0.000202897
0.000236574
0.000270224
0.000303183
0.000335934
0.000367807
0.000399393
0.000430627
0.000463474
0.000497832
0.00053592
0.000577803
0.0006243
0.000674541
0.000730068
0.000789529
0.000854697
0.000923561
0.000998684
0.00107758
0.00104535
0.00144779
0.00177957
9.03358e-06
9.16548e-06
9.2064e-06
9.22955e-06
9.16691e-06
9.13771e-06
8.577e-06
6.15796e-06
4.64543e-06
4.25748e-06
4.66934e-06
9.09198e-06
2.34618e-05
4.89842e-05
6.5252e-05
9.88789e-05
0.000132924
0.000165665
0.000199398
0.000233475
0.000267868
0.000301734
0.000335749
0.000368802
0.000401808
0.000434575
0.000469263
0.000505393
0.000544922
0.000588659
0.000636584
0.000688104
0.000744942
0.000805632
0.000872053
0.000942177
0.00101661
0.00110067
0.00104714
0.00154258
0.00192804
8.54089e-06
8.27676e-06
7.99894e-06
7.77671e-06
7.62873e-06
7.57758e-06
7.62992e-06
7.78564e-06
8.04239e-06
8.39755e-06
8.851e-06
9.40605e-06
1.00671e-05
1.08486e-05
1.17664e-05
1.28456e-05
1.41144e-05
1.56138e-05
1.73824e-05
1.94797e-05
2.19455e-05
2.48143e-05
2.79726e-05
2.90851e-05
8.99602e-06
8.97862e-06
8.96122e-06
8.94417e-06
8.92782e-06
8.91272e-06
8.89864e-06
8.88521e-06
8.87311e-06
8.86228e-06
8.85165e-06
8.84116e-06
8.83194e-06
8.81085e-06
8.61732e-06
8.3692e-06
8.09311e-06
7.8672e-06
7.70473e-06
7.63094e-06
7.65686e-06
7.78384e-06
8.01022e-06
8.33245e-06
8.7515e-06
9.26642e-06
9.88393e-06
1.0612e-05
1.14704e-05
1.24783e-05
1.36684e-05
1.50707e-05
1.67293e-05
1.86886e-05
2.10108e-05
2.37489e-05
2.70183e-05
3.06518e-05
3.04146e-05
5.25531e-05
6.20685e-05
9.00058e-06
8.98445e-06
8.96815e-06
8.95198e-06
8.93638e-06
8.92179e-06
8.90788e-06
8.89471e-06
8.88231e-06
8.87057e-06
8.85939e-06
8.84866e-06
8.83955e-06
8.78801e-06
8.64631e-06
8.42721e-06
8.18355e-06
7.96777e-06
7.80941e-06
7.72035e-06
7.71541e-06
7.79796e-06
7.96738e-06
8.22155e-06
8.55609e-06
8.97117e-06
9.46615e-06
1.00502e-05
1.07331e-05
1.15353e-05
1.24778e-05
1.35927e-05
1.49116e-05
1.64836e-05
1.83725e-05
2.06829e-05
2.35851e-05
2.71997e-05
3.09405e-05
3.47613e-05
3.81003e-05
9.00309e-06
8.98758e-06
8.9717e-06
8.95582e-06
8.94042e-06
8.92599e-06
8.91235e-06
8.89961e-06
8.88748e-06
8.87582e-06
8.86451e-06
8.8538e-06
8.84311e-06
8.78251e-06
8.66267e-06
8.4617e-06
8.24463e-06
8.04187e-06
7.89189e-06
7.79915e-06
7.77053e-06
7.81422e-06
7.92765e-06
8.1066e-06
8.34683e-06
8.64861e-06
9.01084e-06
9.43808e-06
9.93599e-06
1.05177e-05
1.11983e-05
1.20043e-05
1.29651e-05
1.41242e-05
1.5537e-05
1.72795e-05
1.94554e-05
2.21114e-05
2.49905e-05
2.80574e-05
3.11671e-05
9.00391e-06
8.98869e-06
8.97304e-06
8.95719e-06
8.94177e-06
8.92734e-06
8.91384e-06
8.90122e-06
8.88914e-06
8.87749e-06
8.86615e-06
8.85536e-06
8.84497e-06
8.77812e-06
8.67029e-06
8.4759e-06
8.26808e-06
8.0737e-06
7.93033e-06
7.83134e-06
7.79077e-06
7.81305e-06
7.89389e-06
8.02983e-06
8.21724e-06
8.45619e-06
8.74538e-06
9.08833e-06
9.4873e-06
9.95054e-06
1.0488e-05
1.11181e-05
1.18642e-05
1.27613e-05
1.38485e-05
1.5172e-05
1.678e-05
1.86717e-05
2.07926e-05
2.31858e-05
2.56491e-05
9.00395e-06
8.98864e-06
8.97282e-06
8.95691e-06
8.94156e-06
8.92728e-06
8.91403e-06
8.90161e-06
8.88956e-06
8.87803e-06
8.86691e-06
8.85635e-06
8.84558e-06
8.77683e-06
8.67149e-06
8.48021e-06
8.27809e-06
8.08629e-06
7.94276e-06
7.85391e-06
7.8102e-06
7.82158e-06
7.88558e-06