/*--------------------------------*- C++ -*----------------------------------*\
  =========                 |
  \\      /  F ield         | OpenFOAM: The Open Source CFD Toolbox
   \\    /   O peration     | Website:  https://openfoam.org
    \\  /    A nd           | Version:  7
     \\/     M anipulation  |
\*---------------------------------------------------------------------------*/
FoamFile
{
    version     2.0;
    format      ascii;
    class       volVectorField;
    location    "1000";
    object      U;
}
// * * * * * * * * * * * * * * * * * * * * * * * * * * * * * * * * * * * * * //

dimensions      [0 1 -1 0 0 0 0];

internalField   nonuniform List<vector> 
120313
(
(-2.92834 -0.0374981 0.00489185)
(-2.93105 -0.0274363 -0.0443889)
(-2.8976 -0.0369477 -0.0642635)
(-2.78864 -0.041076 -0.0927816)
(-2.63396 -0.0466698 -0.112674)
(-2.44234 -0.0503098 -0.129095)
(-2.22413 -0.0503046 -0.144298)
(-1.98418 -0.0522748 -0.159701)
(-1.73219 -0.0633395 -0.177611)
(-1.43236 -0.0709959 -0.196514)
(-1.07435 -0.0724544 -0.179959)
(-0.815279 -0.0683826 -0.170419)
(-0.505737 -0.0595577 -0.178755)
(-0.236818 -0.0562077 -0.180868)
(0.0319485 -0.0535679 -0.185717)
(0.287053 -0.0502923 -0.16161)
(0.533711 -0.0481188 -0.139003)
(0.760414 -0.0448823 -0.130124)
(0.980336 -0.0456187 -0.11665)
(1.16738 -0.0408161 -0.107609)
(1.36988 -0.0440937 -0.0946012)
(1.50643 -0.0368399 -0.096876)
(1.71215 -0.041934 -0.089297)
(1.79031 -0.0352562 -0.0590129)
(-2.79842 -0.0145216 -0.00485516)
(-2.76508 -0.00951708 -0.0379142)
(-2.73022 -0.0133801 -0.0745621)
(-2.61156 -0.0159194 -0.107164)
(-2.45322 -0.0199137 -0.132063)
(-2.25907 -0.0224523 -0.154523)
(-2.04694 -0.0210425 -0.179466)
(-1.78361 -0.0222005 -0.204614)
(-1.44937 -0.0526201 -0.197188)
(-1.20054 -0.0633337 -0.194968)
(-0.890601 -0.0556571 -0.200587)
(-0.616731 -0.0536655 -0.19954)
(-0.328916 -0.0487308 -0.204602)
(-0.0592544 -0.0466239 -0.215403)
(0.208107 -0.0442894 -0.197784)
(0.450619 -0.0441498 -0.166094)
(0.691904 -0.0395458 -0.153682)
(0.908986 -0.0362632 -0.144998)
(1.12358 -0.0347828 -0.132684)
(1.3019 -0.0322394 -0.122794)
(1.50282 -0.0313025 -0.11182)
(1.63049 -0.0293901 -0.106544)
(1.82151 -0.0303975 -0.0974215)
(1.85062 -0.0250942 -0.0634461)
(-2.79758 -0.0164441 -0.00126957)
(-2.76133 -0.0159794 -0.0460449)
(-2.72654 -0.0183539 -0.0835932)
(-2.60256 -0.0202534 -0.118762)
(-2.44012 -0.0231385 -0.142492)
(-2.24068 -0.0265659 -0.165573)
(-2.02214 -0.0294495 -0.193474)
(-1.7641 -0.0353638 -0.224192)
(-1.41766 -0.0510417 -0.21568)
(-1.18017 -0.0545504 -0.205642)
(-0.862806 -0.053441 -0.215337)
(-0.589543 -0.0510436 -0.215447)
(-0.302772 -0.0477247 -0.223312)
(-0.0348151 -0.0460602 -0.233733)
(0.236952 -0.0445899 -0.210069)
(0.471495 -0.0433049 -0.17473)
(0.715613 -0.0378371 -0.162368)
(0.932499 -0.034298 -0.154136)
(1.14733 -0.0316427 -0.140747)
(1.32819 -0.0295532 -0.131245)
(1.52697 -0.0271141 -0.118361)
(1.66125 -0.0264987 -0.115296)
(1.84543 -0.0249393 -0.103732)
(1.86468 -0.0216355 -0.0673094)
(-2.79159 -0.00573592 -0.00320569)
(-2.75914 -0.00515296 -0.0461789)
(-2.72152 -0.00647059 -0.0865443)
(-2.5952 -0.0083287 -0.122753)
(-2.43058 -0.0109333 -0.147299)
(-2.22882 -0.0139188 -0.171604)
(-2.00947 -0.0172199 -0.200971)
(-1.74192 -0.0240599 -0.232468)
(-1.40361 -0.0314709 -0.223433)
(-1.16069 -0.0325851 -0.213526)
(-0.843019 -0.0331996 -0.224406)
(-0.569906 -0.0322418 -0.224236)
(-0.284524 -0.0311161 -0.232936)
(-0.0163255 -0.0299373 -0.242829)
(0.25761 -0.0285307 -0.215838)
(0.487908 -0.0267809 -0.17835)
(0.733332 -0.0230325 -0.166143)
(0.949754 -0.0203066 -0.157866)
(1.16468 -0.0179729 -0.144499)
(1.3469 -0.0160648 -0.134954)
(1.54525 -0.0140595 -0.121779)
(1.68225 -0.0129301 -0.118953)
(1.86467 -0.0113956 -0.10668)
(1.88455 -0.0113738 -0.0728401)
(-2.78862 -0.001498 -0.00210342)
(-2.75261 -0.00120496 -0.0482528)
(-2.71692 -0.000888455 -0.0867206)
(-2.59059 -0.00177612 -0.123029)
(-2.42573 -0.00336826 -0.147802)
(-2.22344 -0.00521404 -0.172434)
(-2.00394 -0.00697981 -0.202262)
(-1.73251 -0.00884554 -0.23344)
(-1.39765 -0.00832474 -0.223034)
(-1.15155 -0.00934252 -0.214535)
(-0.834943 -0.0103883 -0.224368)
(-0.56061 -0.0101989 -0.224867)
(-0.275798 -0.0105504 -0.233975)
(-0.00735912 -0.0101407 -0.243511)
(0.266915 -0.00947767 -0.214753)
(0.495809 -0.00822381 -0.176909)
(0.741623 -0.00717392 -0.16594)
(0.957922 -0.0059909 -0.157701)
(1.1728 -0.00450806 -0.144423)
(1.35501 -0.00316957 -0.134899)
(1.55336 -0.00179747 -0.121888)
(1.69056 -0.000560953 -0.119127)
(1.87311 0.000394026 -0.107099)
(1.89259 0.00115289 -0.073065)
(-2.77677 0.0106074 -0.00144275)
(-2.74615 0.0101153 -0.0458728)
(-2.71169 0.0117588 -0.0839152)
(-2.58766 0.0107775 -0.119966)
(-2.42436 0.00946987 -0.144482)
(-2.22336 0.00821524 -0.168745)
(-2.00427 0.006333 -0.198113)
(-1.73478 0.00528453 -0.228448)
(-1.39719 0.014723 -0.219195)
(-1.15121 0.0153415 -0.211462)
(-0.835921 0.0128449 -0.220837)
(-0.559804 0.0123516 -0.22176)
(-0.275312 0.010037 -0.230055)
(-0.00654913 0.00981448 -0.239473)
(0.266926 0.0102136 -0.211286)
(0.496798 0.011497 -0.174911)
(0.741567 0.0102707 -0.164561)
(0.95748 0.0103617 -0.155822)
(1.17172 0.011458 -0.14242)
(1.35235 0.0123697 -0.132792)
(1.55087 0.0133466 -0.11989)
(1.6857 0.0148047 -0.117238)
(1.87016 0.0158461 -0.106142)
(1.88966 0.014182 -0.0694122)
(-2.76581 0.0104213 -0.00692037)
(-2.73586 0.00510324 -0.038122)
(-2.70158 0.00742776 -0.0761046)
(-2.58324 0.00718288 -0.109727)
(-2.4242 0.00730355 -0.136176)
(-2.2283 0.0055211 -0.15989)
(-2.0158 -0.000432366 -0.186102)
(-1.73449 -0.00270827 -0.210897)
(-1.4143 0.0251337 -0.204413)
(-1.15139 0.030128 -0.205172)
(-0.847492 0.0235245 -0.209945)
(-0.568841 0.0233906 -0.210391)
(-0.283763 0.0199708 -0.216506)
(-0.013954 0.0197789 -0.22605)
(0.256384 0.0189549 -0.201479)
(0.490997 0.020922 -0.169048)
(0.73341 0.0186124 -0.158917)
(0.949062 0.0178596 -0.149156)
(1.16252 0.0193917 -0.136447)
(1.34025 0.0191766 -0.126562)
(1.5403 0.0213028 -0.115066)
(1.66881 0.0212218 -0.111089)
(1.86031 0.02439 -0.10226)
(1.89209 0.021318 -0.0680262)
(-2.87379 0.0323292 0.000998646)
(-2.87921 0.0215872 -0.0472727)
(-2.84715 0.0318956 -0.0672547)
(-2.73796 0.0359934 -0.0955084)
(-2.58461 0.0403822 -0.115456)
(-2.39232 0.0413367 -0.133103)
(-2.17211 0.0381335 -0.150163)
(-1.92986 0.0392206 -0.167859)
(-1.67956 0.0492701 -0.189042)
(-1.35189 0.0577439 -0.203496)
(-1.02296 0.0588671 -0.184549)
(-0.748173 0.0557844 -0.182168)
(-0.450066 0.049524 -0.188185)
(-0.179142 0.0474857 -0.19147)
(0.0851626 0.0455914 -0.190498)
(0.339398 0.0470235 -0.167233)
(0.582643 0.044314 -0.145325)
(0.806362 0.042008 -0.133886)
(1.02329 0.044241 -0.119639)
(1.20967 0.0397469 -0.110338)
(1.40984 0.0449628 -0.0983949)
(1.55128 0.0384371 -0.103262)
(1.7597 0.0463009 -0.0924195)
(1.83853 0.0461941 -0.0615853)
(-0.365687 0.010127 0.376451)
(-0.695812 0.0022087 0.297513)
(-0.94895 -0.00273141 0.251474)
(-1.17398 -0.00560583 0.232419)
(-1.38392 -0.0074854 0.220566)
(-1.57677 -0.00861508 0.207145)
(-1.74539 -0.00830071 0.189842)
(-1.90113 -0.00616937 0.168727)
(-2.04142 -0.00196349 0.140675)
(-2.17725 0.0106238 0.0863087)
(-2.20658 0.0103909 0.0191788)
(-2.15936 0.000233475 -0.0371365)
(-2.04881 -0.00319394 -0.0856702)
(-1.8916 -0.00615803 -0.117956)
(-1.69991 -0.00738263 -0.141826)
(-1.48292 -0.00891754 -0.160559)
(-1.24514 -0.0109814 -0.175638)
(-0.990256 -0.0139199 -0.187863)
(-0.722442 -0.0165122 -0.196911)
(-0.443904 -0.0188158 -0.204932)
(-0.1628 -0.0222284 -0.211078)
(0.116303 -0.0205136 -0.207556)
(0.387602 -0.0172416 -0.201961)
(0.644473 -0.0161988 -0.19507)
(0.890992 -0.0160132 -0.182468)
(1.12229 -0.0144653 -0.169189)
(1.33649 -0.0142016 -0.155941)
(1.53626 -0.0136723 -0.142797)
(1.72389 -0.0131726 -0.131358)
(1.89823 -0.0121567 -0.122704)
(2.05816 -0.0103575 -0.114296)
(2.20738 -0.00753233 -0.10778)
(2.3449 -0.00701488 -0.0981783)
(2.47724 -0.00254549 -0.0885993)
(2.58513 0.0070379 -0.0847648)
(2.71696 0.026889 -0.0809484)
(-0.392673 0.0192821 0.371472)
(-0.706065 0.000728794 0.293354)
(-0.955376 -0.00683058 0.248201)
(-1.1802 -0.0113394 0.229204)
(-1.39155 -0.014563 0.217313)
(-1.58702 -0.016873 0.204151)
(-1.7614 -0.0177398 0.187715)
(-1.93754 -0.0144298 0.16785)
(-2.07176 -0.00595967 0.139369)
(-1.83457 0.011397 0.111868)
(-1.66678 0.0250029 0.00554326)
(-1.58177 0.00553909 -0.0826939)
(-1.43449 0.00152555 -0.151243)
(-1.26131 -0.00280511 -0.197766)
(-1.0591 -0.0056804 -0.232651)
(-0.83633 -0.00806844 -0.262828)
(-0.596108 -0.0130946 -0.289084)
(-0.342119 -0.0239559 -0.310787)
(-0.0751807 -0.0327689 -0.330898)
(0.195338 -0.0391272 -0.331547)
(0.457458 -0.0417174 -0.326538)
(0.719821 -0.0395585 -0.321536)
(0.969156 -0.0381135 -0.311146)
(1.20961 -0.0367373 -0.299845)
(1.4382 -0.0338822 -0.283107)
(1.65273 -0.0311168 -0.264122)
(1.85207 -0.0279654 -0.245996)
(2.03684 -0.0262699 -0.226607)
(2.20597 -0.0237518 -0.210361)
(2.36607 -0.0241074 -0.193109)
(2.50239 -0.0194048 -0.177204)
(2.63418 -0.0194012 -0.170811)
(2.71464 -0.0148621 -0.140526)
(2.74696 -0.00168815 -0.117972)
(2.63773 -6.37337e-05 -0.116631)
(2.7067 0.0127422 -0.097158)
(-0.354997 0.00681997 0.369936)
(-0.676051 -0.00379755 0.292565)
(-0.929676 -0.00941883 0.245425)
(-1.15597 -0.013851 0.225299)
(-1.36779 -0.0170996 0.212079)
(-1.56302 -0.0192414 0.196824)
(-1.73707 -0.0199095 0.176968)
(-1.91422 -0.0193553 0.151758)
(-2.04834 -0.0080683 0.125267)
(-1.7849 0.0193593 0.112553)
(-1.49544 0.0289343 0.00846923)
(-1.37592 0.0164195 -0.0993601)
(-1.20771 0.0124474 -0.175334)
(-1.02404 0.00856454 -0.228199)
(-0.814012 0.00602812 -0.267132)
(-0.584497 0.00446949 -0.307228)
(-0.338874 -0.000488524 -0.347426)
(-0.0831526 -0.014605 -0.361765)
(0.174825 -0.0267959 -0.368669)
(0.438823 -0.0305782 -0.372857)
(0.695408 -0.0314518 -0.368152)
(0.948129 -0.0300594 -0.360637)
(1.19094 -0.0278493 -0.349931)
(1.42312 -0.0269191 -0.33546)
(1.64214 -0.0260123 -0.315508)
(1.84957 -0.0237337 -0.295277)
(2.04118 -0.0213891 -0.275849)
(2.21975 -0.0199337 -0.255564)
(2.38071 -0.0178964 -0.238242)
(2.53597 -0.0177447 -0.220875)
(2.65693 -0.0149816 -0.201146)
(2.78199 -0.0169334 -0.195518)
(2.8028 -0.0134013 -0.154888)
(2.79212 -0.00669379 -0.125389)
(2.67826 -0.00865979 -0.131625)
(2.74024 -0.00295482 -0.105433)
(-0.325113 0.0171508 0.373959)
(-0.657287 0.00159698 0.291615)
(-0.912998 -0.00782407 0.242604)
(-1.13988 -0.0133783 0.221576)
(-1.35231 -0.0166703 0.207302)
(-1.54855 -0.018376 0.190515)
(-1.72505 -0.0179625 0.168907)
(-1.90906 -0.0143104 0.143581)
(-2.05212 -0.00554824 0.118882)
(-1.77293 0.00814573 0.11967)
(-1.42997 0.0177639 0.0142209)
(-1.29245 0.0117473 -0.105063)
(-1.11019 0.00963467 -0.185294)
(-0.918052 0.00673063 -0.23921)
(-0.700574 0.00417992 -0.281079)
(-0.464625 0.00157729 -0.325257)
(-0.214131 -0.00396844 -0.370946)
(0.042725 -0.0146348 -0.386975)
(0.29648 -0.0231989 -0.391569)
(0.559329 -0.0264726 -0.395158)
(0.812886 -0.0276017 -0.389265)
(1.06237 -0.0269853 -0.381238)
(1.30167 -0.0258329 -0.371345)
(1.53043 -0.0256358 -0.355257)
(1.74585 -0.0245127 -0.333254)
(1.95055 -0.0220143 -0.311945)
(2.13897 -0.0195648 -0.291418)
(2.31506 -0.0177361 -0.27013)
(2.47284 -0.0156593 -0.252068)
(2.62602 -0.014827 -0.233967)
(2.74042 -0.0126566 -0.214519)
(2.86233 -0.0132978 -0.20308)
(2.85325 -0.0095222 -0.159472)
(2.83493 -0.00756927 -0.134463)
(2.71659 -0.00984201 -0.138885)
(2.77821 -0.00776372 -0.109565)
(-0.3536 0.0251196 0.371083)
(-0.670513 0.00485543 0.287663)
(-0.919636 -0.00575239 0.239786)
(-1.14404 -0.0110262 0.219315)
(-1.35583 -0.0135166 0.205211)
(-1.55203 -0.014137 0.188418)
(-1.72779 -0.0126805 0.166838)
(-1.90901 -0.00930323 0.141746)
(-2.04718 -0.00379579 0.119828)
(-1.76384 0.0028632 0.121276)
(-1.40337 0.00808484 0.0140512)
(-1.25933 0.0071271 -0.108058)
(-1.06974 0.00659856 -0.190569)
(-0.872493 0.00506764 -0.2455)
(-0.650159 0.00304802 -0.289037)
(-0.410306 0.000307764 -0.33553)
(-0.156662 -0.00422167 -0.382487)
(0.0996303 -0.0103508 -0.399537)
(0.352765 -0.0147575 -0.403817)
(0.616082 -0.0172353 -0.406772)
(0.868502 -0.018449 -0.400363)
(1.11681 -0.0185622 -0.391998)
(1.35493 -0.0181366 -0.382532)
(1.58208 -0.0178301 -0.365668)
(1.79609 -0.0167049 -0.342097)
(1.99977 -0.0147842 -0.319787)
(2.18733 -0.0129214 -0.298463)
(2.36277 -0.011283 -0.276601)
(2.51985 -0.00963341 -0.258224)
(2.67251 -0.00843208 -0.239616)
(2.78506 -0.00693649 -0.220614)
(2.90506 -0.00640888 -0.207008)
(2.88646 -0.00460162 -0.162942)
(2.86394 -0.00449477 -0.139604)
(2.74696 -0.0064329 -0.145362)
(2.80903 -0.00582299 -0.11366)
(-0.367359 0.0211291 0.367047)
(-0.676487 0.00262005 0.284224)
(-0.920867 -0.00510959 0.237812)
(-1.14306 -0.00844337 0.218059)
(-1.3538 -0.00960729 0.204289)
(-1.54931 -0.00942792 0.187685)
(-1.72425 -0.00797934 0.166333)
(-1.90426 -0.00574927 0.141769)
(-2.04054 -0.002921 0.120352)
(-1.7573 -0.00494022 0.121339)
(-1.39824 -0.00371678 0.0145414)
(-1.25375 -0.000112249 -0.107802)
(-1.06351 0.00104476 -0.190791)
(-0.865351 0.00115261 -0.246233)
(-0.64183 -4.70243e-05 -0.290507)
(-0.400705 -0.00215898 -0.33788)
(-0.1458 -0.0041778 -0.384777)
(0.110845 -0.00486356 -0.402238)
(0.364992 -0.00548438 -0.406838)
(0.628619 -0.00681966 -0.409665)
(0.88158 -0.00757706 -0.403389)
(1.12978 -0.00818141 -0.394901)
(1.36788 -0.00830775 -0.385371)
(1.5945 -0.00800084 -0.367819)
(1.80847 -0.00729126 -0.343615)
(2.01196 -0.00641218 -0.321355)
(2.19922 -0.0054861 -0.300004)
(2.37434 -0.00430627 -0.278069)
(2.5312 -0.00326344 -0.259637)
(2.68374 -0.00196266 -0.241)
(2.79614 -0.00111484 -0.22195)
(2.91629 0.000175822 -0.20833)
(2.89748 -2.44314e-05 -0.164217)
(2.8751 0.00118791 -0.140669)
(2.7612 -1.34056e-05 -0.146884)
(2.8241 -0.000487534 -0.115297)
(-0.355474 0.0162007 0.362807)
(-0.66312 -0.000785533 0.283157)
(-0.907549 -0.00484393 0.237236)
(-1.12952 -0.00577653 0.217581)
(-1.34005 -0.00528822 0.203705)
(-1.53558 -0.00405059 0.186894)
(-1.71125 -0.00239081 0.16561)
(-1.89278 -0.00143013 0.141431)
(-2.03086 -0.000772162 0.118893)
(-1.75232 -0.00861744 0.120966)
(-1.41241 -0.0141569 0.0155835)
(-1.27449 -0.00579184 -0.104326)
(-1.09039 -0.00309242 -0.186176)
(-0.895627 -0.00138569 -0.241695)
(-0.674889 -0.00181302 -0.285572)
(-0.43529 -0.00363857 -0.3326)
(-0.180844 -0.00361546 -0.378095)
(0.0774894 0.00104455 -0.39501)
(0.333477 0.00462805 -0.400548)
(0.597609 0.00432387 -0.403777)
(0.852099 0.00408427 -0.397945)
(1.10127 0.00306795 -0.389374)
(1.34039 0.0023176 -0.379415)
(1.56788 0.00280258 -0.361993)
(1.78222 0.00338698 -0.338461)
(1.98569 0.00338887 -0.316677)
(2.1728 0.00348487 -0.295558)
(2.34779 0.00426438 -0.273816)
(2.50483 0.00462606 -0.255511)
(2.65766 0.0061103 -0.237367)
(2.77164 0.00604868 -0.218015)
(2.89378 0.00843161 -0.206774)
(2.88456 0.00648279 -0.163199)
(2.86652 0.00602157 -0.137441)
(2.75687 0.00651597 -0.143545)
(2.82043 0.00544135 -0.113741)
(-0.326453 0.0110805 0.361068)
(-0.64225 -0.00105013 0.28403)
(-0.889624 -0.00395794 0.238109)
(-1.11202 -0.00344891 0.218566)
(-1.32207 -0.00140917 0.204691)
(-1.51657 0.00145258 0.187767)
(-1.69139 0.00486434 0.166441)
(-1.87356 0.00685992 0.141355)
(-2.01686 0.00416999 0.114536)
(-1.75112 -0.0197764 0.115879)
(-1.46593 -0.0262483 0.01062)
(-1.3434 -0.0123133 -0.0985692)
(-1.17284 -0.00778395 -0.177179)
(-0.985796 -0.00470872 -0.233091)
(-0.771292 -0.00473686 -0.275093)
(-0.536425 -0.00710398 -0.319463)
(-0.284345 -0.00607792 -0.359266)
(-0.0253886 0.00385801 -0.374525)
(0.236214 0.0117002 -0.383204)
(0.500275 0.0125665 -0.387063)
(0.757976 0.0128103 -0.381876)
(1.00986 0.0112381 -0.373089)
(1.25173 0.00943788 -0.362493)
(1.48201 0.00978129 -0.346136)
(1.69883 0.0104832 -0.324293)
(1.904 0.0100151 -0.303306)
(2.09304 0.00957061 -0.2829)
(2.26964 0.0101793 -0.261972)
(2.42891 0.00991263 -0.244261)
(2.58328 0.0117393 -0.226828)
(2.70333 0.0106352 -0.207276)
(2.82832 0.0140226 -0.201546)
(2.84896 0.0123366 -0.16248)
(2.83973 0.00858061 -0.129809)
(2.73741 0.0109408 -0.136465)
(2.80193 0.0093173 -0.10899)
(-0.33685 0.0222794 0.358326)
(-0.647872 0.000491065 0.28369)
(-0.891968 -0.00429795 0.240203)
(-1.11311 -0.00328217 0.222103)
(-1.32268 -0.000230139 0.2095)
(-1.51681 0.00368031 0.194128)
(-1.69156 0.00824361 0.175203)
(-1.87261 0.0135441 0.154193)
(-2.02237 0.009949 0.128719)
(-1.79345 -0.013962 0.117022)
(-1.61887 -0.0202818 0.0100586)
(-1.52987 -0.00172865 -0.0815161)
(-1.3799 0.00344809 -0.153432)
(-1.204 0.00723097 -0.205115)
(-0.997199 0.00778064 -0.243231)
(-0.768441 0.00672614 -0.277055)
(-0.522384 0.00916132 -0.305536)
(-0.262886 0.0174151 -0.329759)
(0.00850612 0.0246673 -0.346598)
(0.276866 0.0293853 -0.346357)
(0.540226 0.0309563 -0.342296)
(0.799011 0.0285175 -0.335582)
(1.04639 0.0268268 -0.32528)
(1.28385 0.0261585 -0.312076)
(1.50884 0.0246048 -0.293668)
(1.71956 0.0234666 -0.272985)
(1.91509 0.0220783 -0.253409)
(2.097 0.0221834 -0.233358)
(2.26356 0.0205041 -0.216716)
(2.42221 0.0220119 -0.199603)
(2.55681 0.0178728 -0.183851)
(2.68767 0.0196467 -0.177525)
(2.76362 0.0175196 -0.145641)
(2.79442 0.00914105 -0.121109)
(2.70452 0.0119413 -0.131937)
(2.77227 0.00835302 -0.105191)
(-0.352308 0.01652 0.350534)
(-0.651282 -0.0055242 0.283405)
(-0.891655 -0.0079088 0.243156)
(-1.11231 -0.00555655 0.227031)
(-1.3219 -0.00200028 0.216637)
(-1.51507 0.00190543 0.204324)
(-1.68568 0.00584494 0.189333)
(-1.85402 0.00766319 0.173203)
(-1.98573 0.00433457 0.148114)
(-1.83585 -0.0193715 0.109611)
(-1.78778 -0.0225883 0.00767582)
(-1.72026 -0.00284739 -0.0624732)
(-1.58732 0.00215839 -0.126637)
(-1.4176 0.00605833 -0.171547)
(-1.21482 0.00711158 -0.206201)
(-0.988491 0.00755689 -0.23538)
(-0.743059 0.0101203 -0.259498)
(-0.482711 0.0155956 -0.278818)
(-0.212301 0.0216064 -0.290223)
(0.0609393 0.0281272 -0.293841)
(0.332138 0.0321826 -0.295179)
(0.595178 0.0306406 -0.290143)
(0.8489 0.0300364 -0.281255)
(1.09144 0.0297841 -0.269708)
(1.31809 0.0278953 -0.251822)
(1.53356 0.0262091 -0.233919)
(1.73323 0.0239161 -0.216144)
(1.91842 0.0231532 -0.198186)
(2.09015 0.0214789 -0.182407)
(2.24989 0.021889 -0.167867)
(2.39678 0.0175825 -0.154097)
(2.53023 0.0174673 -0.145879)
(2.65853 0.0150977 -0.128445)
(2.74592 0.0037142 -0.117954)
(2.67826 0.0080834 -0.13006)
(2.75076 0.00241678 -0.102258)
(-0.352611 0.00917588 0.343084)
(-0.633875 -0.0149102 0.284617)
(-0.874511 -0.0113769 0.245137)
(-1.09906 -0.00725344 0.228729)
(-1.31312 -0.00406621 0.218658)
(-1.51118 -0.0021802 0.207492)
(-1.6863 -0.00206187 0.194739)
(-1.86008 -0.00618441 0.180328)
(-2.03432 -0.020295 0.136016)
(-2.19771 -0.0129362 0.0824395)
(-2.22719 -0.00679593 0.0223194)
(-2.18995 0.00745285 -0.0313592)
(-2.07976 0.014582 -0.0818879)
(-1.92291 0.0179433 -0.115468)
(-1.72976 0.0188159 -0.141515)
(-1.50916 0.0191054 -0.162832)
(-1.26673 0.0203037 -0.180014)
(-1.00681 0.0228866 -0.193724)
(-0.734003 0.0257695 -0.20272)
(-0.452939 0.0288594 -0.207075)
(-0.169414 0.0317839 -0.21811)
(0.10955 0.0280213 -0.213918)
(0.380855 0.0248027 -0.207386)
(0.63926 0.0230319 -0.200147)
(0.882846 0.0216357 -0.186111)
(1.11383 0.020025 -0.171605)
(1.32793 0.0176207 -0.157177)
(1.5279 0.0161017 -0.142917)
(1.71389 0.0150356 -0.13115)
(1.8865 0.0140487 -0.121638)
(2.04738 0.0118416 -0.113059)
(2.19799 0.00830884 -0.10433)
(2.33894 0.00491273 -0.0945693)
(2.47187 -0.00219127 -0.0848902)
(2.59956 0.00218662 -0.0809062)
(2.73288 -0.00576387 -0.0922617)
(-0.262085 -0.0469625 0.330033)
(-0.56151 -0.0193802 0.29395)
(-0.820444 -0.00797346 0.247275)
(-1.05335 -0.00362674 0.227224)
(-1.27188 -0.00130225 0.214201)
(-1.4738 1.86989e-05 0.198831)
(-1.65378 -6.59442e-05 0.179481)
(-1.81472 -0.00410469 0.161403)
(-1.95675 -0.0171868 0.150556)
(-2.09563 -0.00834725 0.0827336)
(-2.12737 -0.00198976 0.015659)
(-2.08505 0.00237428 -0.0426097)
(-1.97869 0.00505761 -0.093171)
(-1.8231 0.00690304 -0.127118)
(-1.63203 0.00811812 -0.153192)
(-1.41352 0.00926367 -0.17361)
(-1.17308 0.0107088 -0.189246)
(-0.914899 0.0128519 -0.200461)
(-0.64292 0.0152025 -0.208089)
(-0.36268 0.017374 -0.212409)
(-0.0808752 0.0201114 -0.221984)
(0.195306 0.0201678 -0.217348)
(0.467563 0.0205985 -0.20788)
(0.726071 0.0197626 -0.199041)
(0.971359 0.0184239 -0.186169)
(1.20328 0.0161108 -0.173581)
(1.41947 0.013721 -0.161331)
(1.62149 0.0120128 -0.150095)
(1.8084 0.0105104 -0.140284)
(1.98181 0.00893517 -0.132553)
(2.14202 0.00688016 -0.123355)
(2.29109 0.00437219 -0.114794)
(2.42711 0.00343909 -0.103423)
(2.55925 0.000202876 -0.0999703)
(2.66879 -0.000738533 -0.0927485)
(2.79775 -0.00287604 -0.107265)
(0.0352972 -0.00792884 0.0580361)
(0.0509171 -0.00665335 -0.119544)
(0.202532 -0.00504342 -0.237031)
(0.358423 -0.00225052 -0.329969)
(0.542061 -0.00175571 -0.396843)
(0.741791 -0.00152437 -0.446122)
(0.954889 -0.00137019 -0.48518)
(1.17569 -0.00123905 -0.515288)
(1.399 -0.0014888 -0.534707)
(1.62195 -0.0020659 -0.545818)
(1.84267 -0.00275429 -0.549234)
(2.05639 -0.00358714 -0.543481)
(2.26085 -0.00345966 -0.527551)
(2.45316 -0.00318521 -0.504406)
(2.63621 -0.00301117 -0.479475)
(2.80507 -0.00301813 -0.450524)
(2.96343 -0.00287467 -0.421549)
(3.10898 -0.00294948 -0.392081)
(3.24386 -0.00294573 -0.364585)
(3.36682 -0.00325733 -0.337398)
(3.48216 -0.00300198 -0.314261)
(3.58436 -0.0032519 -0.290599)
(3.68177 0.00018514 -0.272698)
(3.77076 0.000676441 -0.252954)
(-0.208129 0.0133682 0.62022)
(-0.336398 0.0063439 0.478246)
(-0.427081 0.00191152 0.413499)
(-0.515585 -0.00111662 0.387986)
(-0.593767 -0.00369419 0.362782)
(-0.650465 -0.00645665 0.327008)
(-0.680232 -0.00972148 0.280016)
(-0.675637 -0.0120165 0.229864)
(-0.491131 -0.0147372 0.172035)
(-0.10011 0.00742781 0.0753298)
(-0.0247033 0.020865 -0.113013)
(0.123768 0.00996465 -0.225026)
(0.281934 0.00948689 -0.317144)
(0.465041 0.00879516 -0.383909)
(0.664803 0.00798639 -0.433985)
(0.877491 0.00734756 -0.473601)
(1.09926 0.00675186 -0.504435)
(1.3245 0.00388552 -0.52464)
(1.55191 0.000777102 -0.536344)
(1.77592 -0.00306184 -0.538135)
(1.99297 -0.00593301 -0.531512)
(2.20138 -0.00603468 -0.517378)
(2.39771 -0.00577062 -0.495696)
(2.58244 -0.00535785 -0.470629)
(2.756 -0.00518059 -0.443069)
(2.91614 -0.00481262 -0.414903)
(3.06543 -0.00473821 -0.387041)
(3.20057 -0.00482931 -0.359247)
(3.32701 -0.00535417 -0.333251)
(3.44103 -0.00533713 -0.309005)
(3.54743 -0.00570468 -0.286878)
(3.63845 -0.00322231 -0.266238)
(3.74234 -0.0075857 -0.249644)
(3.80226 -0.00568852 -0.225977)
(3.70394 0.000258796 -0.220666)
(3.76361 0.00216987 -0.205744)
(-0.212373 0.0257375 0.619458)
(-0.331705 0.00936583 0.475695)
(-0.420285 0.0024338 0.409526)
(-0.507354 -0.00205949 0.382908)
(-0.585016 -0.00594584 0.356579)
(-0.643743 -0.00998254 0.32017)
(-0.683855 -0.0142947 0.27406)
(-0.708552 -0.0173185 0.229017)
(-0.565599 -0.0155882 0.18233)
(-0.0801992 0.00986458 0.0661676)
(0.0862912 0.0246961 -0.132996)
(0.262202 0.0172182 -0.242198)
(0.438144 0.015955 -0.332543)
(0.630218 0.0149778 -0.398855)
(0.835896 0.0136693 -0.450433)
(1.05137 0.0126791 -0.491481)
(1.2726 0.0109748 -0.523001)
(1.49577 0.0042728 -0.54284)
(1.71915 -0.00255129 -0.553401)
(1.93712 -0.00713095 -0.552111)
(2.14781 -0.0100588 -0.542313)
(2.35027 -0.0106044 -0.526401)
(2.54135 -0.0103427 -0.504002)
(2.72019 -0.0101007 -0.479207)
(2.8888 -0.00979483 -0.452733)
(3.04387 -0.00893791 -0.424696)
(3.18871 -0.00774972 -0.397866)
(3.31986 -0.00734722 -0.370223)
(3.44089 -0.00651529 -0.345091)
(3.54954 -0.0069981 -0.319773)
(3.64635 -0.00517979 -0.298314)
(3.72691 -0.00566891 -0.276226)
(3.78924 -0.000409652 -0.258134)
(3.84779 -0.0069183 -0.233686)
(3.89606 0.00143875 -0.239207)
(4.10489 -0.00225939 -0.251834)
(-0.190861 0.0221807 0.61775)
(-0.310918 0.00856586 0.474548)
(-0.400414 0.00188888 0.405514)
(-0.487381 -0.00299092 0.377513)
(-0.565165 -0.00647062 0.34945)
(-0.625073 -0.00960527 0.310732)
(-0.670689 -0.0120434 0.263)
(-0.709178 -0.011368 0.219819)
(-0.573872 -0.00271948 0.178488)
(-0.0157028 0.016926 0.0598276)
(0.229437 0.0290968 -0.148358)
(0.439933 0.0248937 -0.262316)
(0.63799 0.0229417 -0.353284)
(0.843625 0.0207184 -0.42273)
(1.0593 0.0188943 -0.477278)
(1.28123 0.0177262 -0.52133)
(1.50488 0.0152756 -0.556204)
(1.72601 0.00737541 -0.57534)
(1.9427 -0.00108662 -0.582839)
(2.15556 -0.00524788 -0.581873)
(2.36041 -0.0076544 -0.57049)
(2.55512 -0.00858576 -0.552449)
(2.73978 -0.00842081 -0.53054)
(2.91153 -0.0088148 -0.504986)
(3.07272 -0.00902039 -0.476307)
(3.22207 -0.00826952 -0.447166)
(3.3601 -0.00718989 -0.41954)
(3.4855 -0.00665776 -0.391084)
(3.59893 -0.00551461 -0.365373)
(3.70089 -0.00582051 -0.339211)
(3.78327 -0.00404069 -0.316661)
(3.85207 -0.00543663 -0.292333)
(3.87399 -0.00287579 -0.273323)
(3.9163 -0.00354855 -0.246802)
(3.95018 0.00052963 -0.257712)
(4.19537 0.00150322 -0.267902)
(-0.168664 0.0270165 0.61827)
(-0.29423 0.0113942 0.472669)
(-0.384134 0.00170248 0.401541)
(-0.470972 -0.0041938 0.372837)
(-0.54924 -0.00748603 0.344078)
(-0.610051 -0.00954433 0.303934)
(-0.657019 -0.0102912 0.255051)
(-0.696691 -0.00807277 0.212501)
(-0.560768 -0.000553065 0.175547)
(0.017055 0.00999757 0.0639823)
(0.30991 0.0207173 -0.152545)
(0.541612 0.0201957 -0.272081)
(0.759789 0.0195085 -0.365403)
(0.976952 0.0174032 -0.436702)
(1.20113 0.0155345 -0.493491)
(1.42919 0.0138474 -0.538871)
(1.65679 0.0107983 -0.576604)
(1.8768 0.00502533 -0.598009)
(2.09168 -0.000995023 -0.604898)
(2.30213 -0.00501106 -0.60303)
(2.50351 -0.00765303 -0.589851)
(2.69549 -0.00882556 -0.571304)
(2.87621 -0.00914175 -0.549625)
(3.04443 -0.00969956 -0.523164)
(3.20158 -0.00963392 -0.49334)
(3.34777 -0.00865817 -0.463228)
(3.48188 -0.00749144 -0.434837)
(3.60399 -0.00669603 -0.405348)
(3.71262 -0.00542388 -0.379111)
(3.81052 -0.0052815 -0.351785)
(3.88339 -0.00363924 -0.329344)
(3.94377 -0.00467308 -0.303135)
(3.94557 -0.00280826 -0.284022)
(3.97757 -0.00251792 -0.257483)
(4.00834 0.000338438 -0.271575)
(4.2616 0.00116101 -0.279386)
(-0.181448 0.030961 0.614755)
(-0.295794 0.011878 0.466567)
(-0.380877 0.000398114 0.396814)
(-0.465964 -0.0058352 0.369177)
(-0.543884 -0.00888119 0.340944)
(-0.604777 -0.0100192 0.300881)
(-0.65139 -0.00955244 0.25208)
(-0.689219 -0.00674009 0.209986)
(-0.549437 -0.00114679 0.174221)
(0.035677 0.00266926 0.0656351)
(0.346893 0.00928662 -0.153755)
(0.588861 0.0112347 -0.276474)
(0.817737 0.012045 -0.371464)
(1.0419 0.0115901 -0.444073)
(1.27161 0.0105714 -0.502375)
(1.50351 0.00896175 -0.549178)
(1.7334 0.00621422 -0.588394)
(1.95331 0.00249688 -0.611145)
(2.16844 -0.00114474 -0.617667)
(2.37876 -0.00420981 -0.614628)
(2.57846 -0.00640217 -0.60103)
(2.7694 -0.00760529 -0.582346)
(2.94876 -0.00814383 -0.560937)
(3.11454 -0.00840276 -0.533895)
(3.27076 -0.00807833 -0.503334)
(3.41553 -0.00723955 -0.472208)
(3.54976 -0.00625707 -0.443251)
(3.67031 -0.00534961 -0.413058)
(3.77812 -0.00423597 -0.38656)
(3.87402 -0.00353059 -0.358475)
(3.94354 -0.00231522 -0.336071)
(3.99988 -0.00227208 -0.308926)
(3.99373 -0.00118838 -0.291001)
(4.02081 -0.0012295 -0.263244)
(4.05036 0.000412047 -0.278701)
(4.30531 0.000916458 -0.286039)
(-0.189713 0.0267554 0.609694)
(-0.298309 0.00728786 0.460976)
(-0.379649 -0.00270404 0.393259)
(-0.463131 -0.00792493 0.366789)
(-0.540243 -0.0102533 0.339054)
(-0.600489 -0.010724 0.299307)
(-0.646261 -0.00973117 0.250742)
(-0.682643 -0.0072326 0.208826)
(-0.541929 -0.00421774 0.172909)
(0.0399543 -0.00564179 0.0659867)
(0.349224 -0.00407948 -0.152366)
(0.592457 -0.000649679 -0.275602)
(0.823011 0.001664 -0.371464)
(1.04899 0.00333526 -0.444885)
(1.28051 0.00359484 -0.503978)
(1.51408 0.00244234 -0.551614)
(1.74547 0.000464879 -0.591553)
(1.96636 -0.00114025 -0.614623)
(2.18265 -0.00238422 -0.621161)
(2.39353 -0.00393786 -0.618029)
(2.59377 -0.00514979 -0.604506)
(2.78452 -0.0061462 -0.585781)
(2.96404 -0.00668402 -0.564373)
(3.1291 -0.00684032 -0.536661)
(3.28619 -0.00663026 -0.505604)
(3.43059 -0.00615623 -0.474471)
(3.56438 -0.00540267 -0.445471)
(3.68445 -0.00435702 -0.41516)
(3.79184 -0.00341562 -0.388603)
(3.88742 -0.00226131 -0.360411)
(3.95672 -0.00150898 -0.338021)
(4.0131 -0.000272813 -0.310805)
(4.00673 0.000319727 -0.293118)
(4.03439 0.000539432 -0.265459)
(4.06414 0.000932458 -0.280913)
(4.31978 0.000938177 -0.288401)
(-0.183783 0.0211326 0.604709)
(-0.29285 0.00116533 0.459602)
(-0.37445 -0.00658563 0.392522)
(-0.457695 -0.0103159 0.366234)
(-0.534574 -0.0117284 0.338356)
(-0.594376 -0.0116435 0.29828)
(-0.639795 -0.0102014 0.249574)
(-0.676583 -0.00785766 0.207832)
(-0.539881 -0.0067603 0.171682)
(0.028987 -0.011843 0.0655106)
(0.319271 -0.0159589 -0.149382)
(0.554685 -0.0117066 -0.270798)
(0.777578 -0.00810958 -0.366138)
(0.999877 -0.00445384 -0.439569)
(1.22896 -0.00315373 -0.498744)
(1.46183 -0.00404006 -0.546476)
(1.69349 -0.00528007 -0.585687)
(1.9164 -0.00469217 -0.608254)
(2.13407 -0.00340718 -0.615437)
(2.34634 -0.00355346 -0.612943)
(2.54843 -0.00366739 -0.599713)
(2.74046 -0.0042561 -0.580902)
(2.92106 -0.00476898 -0.558949)
(3.08771 -0.0046171 -0.531217)
(3.24388 -0.00416682 -0.500312)
(3.38843 -0.00372195 -0.469528)
(3.52154 -0.00316783 -0.440582)
(3.64235 -0.00210601 -0.410561)
(3.75015 -0.00146838 -0.384106)
(3.84744 9.16417e-05 -0.356543)
(3.91925 0.00029625 -0.334352)
(3.97955 0.00236331 -0.308211)
(3.98032 0.00244157 -0.289785)
(4.0144 0.0021301 -0.263534)
(4.04581 0.00157182 -0.278008)
(4.30236 0.00128902 -0.286108)
(-0.171799 0.0154802 0.601163)
(-0.287573 -0.00276837 0.46071)
(-0.37144 -0.0103034 0.39414)
(-0.455236 -0.0131029 0.368182)
(-0.532357 -0.0137026 0.34015)
(-0.591815 -0.0129063 0.299688)
(-0.636793 -0.0106924 0.250851)
(-0.67443 -0.0078772 0.208956)
(-0.545629 -0.00802247 0.17143)
(-0.00297923 -0.0189659 0.0633713)
(0.245738 -0.0266228 -0.143906)
(0.463042 -0.0203583 -0.261339)
(0.668565 -0.0157234 -0.355012)
(0.882435 -0.0113977 -0.427732)
(1.10559 -0.00988651 -0.485824)
(1.33508 -0.011151 -0.53282)
(1.56583 -0.0119866 -0.569985)
(1.79101 -0.00844686 -0.590817)
(2.01162 -0.00470759 -0.599881)
(2.2256 -0.00407887 -0.598574)
(2.43156 -0.00339336 -0.586002)
(2.62624 -0.00360219 -0.567065)
(2.80945 -0.00416167 -0.544584)
(2.97909 -0.00335537 -0.517438)
(3.13742 -0.00223499 -0.487247)
(3.28417 -0.00170895 -0.457075)
(3.41924 -0.00137751 -0.42847)
(3.54245 -0.000349069 -0.39925)
(3.6534 -2.85517e-05 -0.373241)