/*--------------------------------*- C++ -*----------------------------------*\
  =========                 |
  \\      /  F ield         | OpenFOAM: The Open Source CFD Toolbox
   \\    /   O peration     | Website:  https://openfoam.org
    \\  /    A nd           | Version:  7
     \\/     M anipulation  |
\*---------------------------------------------------------------------------*/
FoamFile
{
    version     2.0;
    format      ascii;
    class       surfaceScalarField;
    location    "97";
    object      ddtCorrDdt0(phi);
}
// * * * * * * * * * * * * * * * * * * * * * * * * * * * * * * * * * * * * * //

dimensions      [0 4 -2 0 0 0 0];

internalField   nonuniform List<scalar> 
760
(
-1.8153e-12
-4.80428e-13
-2.46745e-13
7.90483e-13
1.67354e-12
2.99092e-13
2.51199e-12
-1.92339e-12
-1.18823e-11
-6.91326e-13
8.94234e-12
2.55144e-10
-6.07675e-12
2.60397e-10
-1.76321e-11
-2.76339e-10
-8.47459e-13
-1.42573e-11
-2.68811e-12
-2.55444e-13
-2.27139e-14
7.32741e-13
2.10716e-12
1.34111e-12
1.69234e-12
8.53972e-13
4.60432e-13
1.44857e-13
-3.38944e-13
-2.98283e-13
-5.85276e-13
-4.81431e-13
-4.16259e-13
-3.76189e-13
-6.2563e-14
-1.28407e-13
1.48511e-13
2.23788e-14
3.83442e-14
-1.00774e-13
-5.14281e-13
4.64802e-13
6.86918e-13
-1.51771e-12
5.15207e-13
3.92532e-13
3.55148e-13
4.95619e-12
-2.58571e-12
2.77123e-12
-4.63451e-13
-2.1346e-12
-1.7214e-11
1.85662e-11
2.30501e-11
1.00861e-12
1.48468e-13
-1.47284e-13
-1.37086e-13
2.21075e-13
7.57509e-13
8.90535e-14
9.69816e-13
-1.46224e-13
3.91167e-13
-2.53487e-13
-1.04086e-13
-2.91395e-13
-3.65913e-13
-2.34358e-13
-4.92362e-13
-1.85474e-14
-3.68592e-13
1.57582e-13
-7.14711e-14
1.51073e-13
4.27961e-14
2.93997e-14
1.28552e-12
-8.66072e-14
-3.21672e-13
9.51858e-14
-5.24736e-13
1.14899e-13
-1.14404e-12
8.58958e-13
4.58036e-12
-1.53777e-12
-8.71335e-12
1.86184e-12
3.15893e-12
5.0615e-13
8.75959e-13
-2.6869e-12
-5.84664e-13
6.63239e-13
1.94644e-12
2.46648e-13
1.49913e-12
7.14217e-13
-5.34617e-13
3.92903e-14
-1.22603e-12
-5.11886e-13
-9.28588e-13
-5.7428e-13
-5.17799e-13
-3.99267e-13
-2.39928e-14
-1.9981e-13
3.90339e-13
-3.87394e-14
3.74917e-13
5.66925e-14
1.42007e-13
-9.48427e-15
-1.3911e-14
7.5543e-13
2.32097e-13
-3.09871e-13
-2.02885e-13
4.65664e-13
-2.03192e-13
-2.10476e-12
1.22257e-13
3.43582e-12
8.45797e-13
-4.68755e-12
-2.32112e-12
4.2741e-12
2.4181e-12
7.9809e-13
2.21659e-12
-1.30425e-12
-1.6759e-12
1.62333e-12
5.48593e-13
4.73648e-13
3.5358e-13
-1.05203e-12
-8.0769e-13
-1.04535e-12
-7.52236e-13
-5.25389e-13
-4.07263e-13
-1.69732e-13
-1.11352e-13
2.1608e-13
2.57319e-13
5.08053e-13
3.51796e-13
3.45394e-13
8.67665e-14
2.36703e-14
-1.82964e-13
-9.73882e-14
2.95191e-13
1.79284e-13
-1.57949e-13
-3.90806e-13
2.12209e-13
-1.22799e-13
-1.03052e-12
-7.35236e-13
4.53848e-13
1.55619e-12
-7.29624e-13
-1.35845e-12
2.59866e-12
1.29271e-12
-2.84849e-12
-1.96559e-12
9.40816e-13
-9.56979e-14
1.07544e-12
9.45863e-13
-1.25533e-12
-7.73894e-13
-1.17024e-12
-1.01479e-12
-4.35345e-13
-1.98795e-13
9.96537e-14
2.07202e-13
4.19197e-13
3.21215e-13
4.07068e-13
5.43013e-13
2.40068e-13
5.12465e-13
8.3275e-14
6.45207e-14
-5.81205e-14
-3.72203e-13
-2.13186e-13
-2.13957e-13
-1.06626e-15
1.58582e-13
-2.38782e-13
-4.6962e-13
7.12284e-14
7.76932e-13
-3.51697e-13
-1.51192e-12
-8.84444e-14
1.54005e-12
5.56245e-13
-6.10464e-13
2.32331e-13
-8.27913e-13
-5.83288e-13
1.94427e-12
1.16997e-12
-9.67262e-13
-5.84327e-13
-1.63471e-12
-1.18085e-12
-8.68408e-14
2.4124e-14
3.21122e-13
5.23554e-13
4.01196e-13
5.41948e-13
7.16934e-13
5.26401e-13
3.88361e-13
3.7912e-13
-2.93326e-13
1.82229e-13
-4.05993e-13
-6.40895e-14
-1.05412e-13
-4.06694e-13
-2.38093e-13
-4.50403e-13
-5.58585e-14
4.17612e-13
2.31121e-13
-5.61338e-13
-2.64074e-13
9.57808e-13
5.47268e-13
-8.55553e-13
-7.90454e-13
1.20264e-12
3.91589e-13
-1.17175e-12
-6.5955e-13
9.76218e-13
3.74566e-14
-2.11926e-13
-1.92596e-14
-1.7794e-12
-1.0651e-12
-1.19763e-13
3.0383e-13
8.2632e-13
1.11299e-12
5.84383e-13
4.75445e-13
4.88024e-13
2.82093e-13
6.53582e-13
3.90655e-13
2.61599e-13
-4.89122e-14
-5.73946e-13
-4.7162e-13
-8.02997e-13
-3.83128e-13
-2.36272e-13
-2.48359e-13
-6.17357e-14
-7.17619e-14
-6.45168e-14
-5.63031e-14
4.28123e-13
2.97669e-13
-2.88481e-14
-1.60974e-13
5.90551e-14
4.05868e-13
-2.61483e-13
1.22418e-13
-1.76888e-13
-3.6449e-13
-5.75046e-13
8.10012e-13
5.56659e-14
-1.31424e-12
-5.96874e-13
-4.35751e-14
2.34256e-13
1.00409e-12
1.06542e-12
1.00532e-13
5.7158e-13
2.62927e-13
2.23267e-13
5.67428e-13
2.1957e-13
2.01566e-13
2.92708e-14
-1.45995e-13
-5.09971e-13
-4.28172e-13
-8.88234e-13
-5.31116e-13
-6.28706e-13
-1.73007e-13
-2.01548e-13
4.69935e-14
4.25058e-13
2.80441e-13
-3.74354e-13
-2.31863e-13
3.80758e-13
2.75458e-13
-4.98453e-13
-3.48634e-13
4.53509e-13
1.13196e-13
-3.04599e-13
-4.54981e-13
2.2482e-13
-2.44757e-13
4.76431e-14
-1.63528e-13
-3.91403e-13
-5.15412e-13
8.38242e-13
6.98562e-13
3.06123e-13
4.34085e-13
-5.09826e-13
-4.97457e-15
1.21577e-13
5.72769e-13
2.9191e-13
3.32514e-13
-3.55961e-13
-4.86827e-13
-4.72116e-13
-8.11735e-13
-6.5258e-14
-7.0268e-13
1.56221e-13
-3.83306e-13
1.01069e-13
-1.60023e-13
1.4751e-14
-1.1318e-13
8.64797e-14
1.44886e-13
-9.15327e-14
-2.04344e-13
2.93558e-14
-6.08404e-14
-1.678e-13
-2.55883e-13
-3.54102e-14
-1.83527e-13
-2.08538e-13
1.32664e-13
-1.85675e-13
-4.08899e-13
-1.9111e-13
7.99634e-13
-2.85956e-13
3.38011e-13
3.72655e-14
-2.86033e-13
-1.71491e-14
6.86419e-14
-5.38379e-14
-3.36612e-13
1.78265e-13
-8.76e-13
1.11981e-13
-6.97687e-13
-9.44578e-14
-1.3852e-13
-2.00668e-13
3.99775e-13
-2.40766e-13
5.82148e-13
-1.64527e-13
2.90437e-13
-1.55263e-13
-2.86293e-14
-3.13926e-13
-3.03662e-13
3.15211e-13
3.31348e-13
-3.07418e-13
-3.34962e-13
1.52849e-13
1.94926e-13
-4.01101e-13
-3.65958e-13
-1.55156e-13
1.3094e-13
6.80239e-14
-2.50464e-13
-5.6327e-13
-1.40687e-13
1.07925e-12
3.3957e-14
1.83666e-13
-8.24113e-13
-3.71405e-13
-3.25868e-13
3.20042e-13
1.10515e-15
-4.00208e-13
-5.16389e-13
-1.10257e-12
-2.25126e-13
-6.98313e-13
5.72769e-13
-1.0699e-14
6.70855e-13
5.55484e-13
2.63451e-13
7.15347e-13
-3.13839e-14
2.89108e-13
-2.46378e-13
-1.1803e-13
3.13068e-13
3.64602e-14
-2.49256e-13
-2.29488e-13
3.16287e-13
-1.98231e-13
-2.42075e-13
6.95047e-14
3.38903e-13
-3.06425e-13
-4.13148e-13
1.12628e-14
2.73656e-13
1.11331e-14
-4.39216e-13
-2.73611e-13
1.40873e-13
5.6232e-13
7.92312e-13
-6.79976e-13
-1.32981e-14
-8.88942e-13
-2.17446e-13
-1.52995e-13
2.43229e-13
-2.53691e-13
1.79816e-13
-2.78211e-13
-4.09409e-13
2.00396e-13
-4.83764e-13
6.13358e-13
1.5124e-13
6.45903e-13
5.15454e-13
2.27052e-13
1.71267e-13
-4.06272e-13
-2.96258e-13
8.51848e-14
1.50758e-13
-2.78615e-13
-3.31562e-13
6.41272e-13
3.85193e-13
-4.58611e-13
-6.96318e-13
8.55419e-13
3.44472e-13
-3.57956e-13
-6.19935e-13
1.05799e-14
5.51318e-13
3.03083e-13
-3.65328e-13
-1.42693e-12
6.78917e-13
4.7956e-13
1.01322e-12
8.38522e-13
-4.76858e-13
-2.23061e-13
-6.50098e-13
4.6334e-13
-2.82431e-14
1.02515e-12
-1.27336e-13
2.95633e-13
-3.48891e-13
-3.24997e-13
4.198e-14
-3.2757e-13
4.02734e-13
-2.39033e-13
1.03593e-13
-1.55555e-13
-4.92137e-13
-3.23467e-13
-4.43068e-13
3.84181e-14
3.81866e-13
1.88392e-13
-3.57955e-13
1.25838e-13
4.65336e-13
-2.49614e-13
-1.50874e-13
5.00255e-13
7.94296e-13
-1.22391e-12
-1.0138e-12
1.73588e-13
1.37486e-12
-2.66563e-13
-1.36191e-12
-9.39786e-13
-1.57451e-12
1.54769e-12
3.89101e-13
1.34024e-12
4.70972e-13
9.70513e-14
4.6793e-13
3.44507e-14
8.72096e-13
-1.44639e-13
8.58335e-13
-5.51382e-13
2.03575e-13
-5.23059e-13
-6.43763e-13
-3.00384e-13
-8.71027e-13
-2.19481e-13
-2.45154e-13
-2.49452e-13
-7.82443e-14
-2.92485e-13
-2.07785e-13
4.60549e-13
4.23306e-13
-8.93449e-13
-5.01056e-15
1.20508e-12
5.94967e-13
-1.71372e-12
-1.14629e-12
2.21288e-12
3.34569e-13
-1.67324e-12
-1.08081e-12
7.81953e-13
1.8196e-12
1.40571e-12
-1.57999e-12
-1.94846e-12
-6.09523e-13
-1.3609e-12
1.42551e-12
5.03525e-14
1.21618e-12
1.67784e-13
5.73131e-13
4.61146e-13
1.6641e-13
1.02987e-12
-2.55862e-13
6.20049e-13
-6.9116e-13
-4.44531e-13
-7.41903e-13
-7.6003e-13
-3.10371e-13
-1.85781e-13
4.05686e-14
1.05544e-13
2.79396e-13
-2.69823e-13
9.77172e-14
2.66617e-13
-3.68623e-13
-1.43498e-13
8.24445e-14
2.65357e-13
-9.7669e-13
-1.38199e-12
1.17078e-12
2.57441e-12
6.60283e-13
-2.9396e-12
-2.69927e-12
2.50654e-13
2.62977e-12
1.33841e-12
4.93067e-13
-1.62761e-12
-1.52712e-12
-1.83448e-13
-9.18889e-13
1.06875e-12
-5.52755e-13
9.61888e-13
-1.39887e-13
6.60298e-13
5.79068e-13
2.80393e-13
6.7935e-13
-3.48762e-13
1.48273e-13
-6.35378e-13
-1.8416e-13
-2.84196e-13
-1.10474e-13
3.46552e-14
7.8696e-14
9.22164e-13
1.19607e-13
-4.4482e-13
-1.25018e-13
6.88556e-13
-2.72197e-13
-1.52193e-12
-5.47511e-13
2.33695e-12
5.37887e-13
-3.59191e-12
5.67686e-13
5.3234e-12
-2.6104e-12
-2.12634e-12
-4.39504e-12
-5.49324e-13
-9.72789e-14
2.28676e-12
-3.58313e-13
2.9394e-13
-1.03149e-12
-8.9168e-13
-6.20052e-14
-1.04077e-12
5.109e-13
-7.4405e-13
6.49071e-13
-1.35057e-13
5.39318e-13
4.53482e-13
1.5715e-13
5.96105e-13
-2.01783e-13
2.6976e-13
-2.47204e-13
-1.01941e-13
-1.47247e-13
-1.99246e-14
1.5694e-12
9.57769e-13
-7.83084e-13
-9.05977e-13
4.95875e-13
-3.17392e-13
-1.66962e-12
-6.14111e-13
5.34879e-12
2.52221e-12
-1.01374e-11
3.31668e-13
5.37466e-12
1.57823e-12
6.39869e-13
1.25115e-11
-1.00615e-12
4.21217e-13
2.47937e-12
3.88176e-13
1.73315e-12
-8.75601e-13
-2.3783e-13
-1.02723e-12
-1.05591e-12
-5.28565e-13
-1.01282e-12
-8.07411e-15
-5.70382e-13
3.73589e-13
9.56651e-14
4.62822e-13
5.35093e-13
2.10837e-13
3.83682e-13
-1.17617e-13
-6.38018e-14
-2.30797e-13
-8.58585e-14
-1.63275e-14
5.09898e-13
4.04889e-13
-9.51928e-13
-9.85394e-13
-6.72119e-14
-1.55255e-13
1.26043e-12
4.87162e-12
3.92277e-13
-2.09425e-11
-2.47909e-10
7.12536e-12
4.49141e-10
-1.34781e-11
-9.97728e-11
-1.78911e-13
-6.56254e-12
1.88918e-13
9.64732e-13
5.0115e-13
-4.39223e-13
1.32287e-13
-1.2522e-12
-1.76634e-14
-1.00215e-12
-1.51051e-13
-3.39069e-13
-3.14962e-13
2.28751e-13
-2.3451e-13
4.54648e-13
6.64774e-14
2.89567e-13
2.27178e-13
-1.40347e-14
3.46303e-14
-1.69154e-13
-8.0087e-14
-2.09911e-12
3.76663e-13
1.01924e-12
2.50228e-12
-1.02887e-11
3.14602e-11
-1.6179e-11
1.58496e-11
-7.71257e-13
-3.5762e-12
-6.68302e-13
1.67739e-12
1.93239e-12
8.87102e-13
-2.54464e-13
-6.71034e-13
-3.79612e-13
4.59119e-14
8.36875e-14
)
;

boundaryField
{
    sides
    {
        type            calculated;
        value           uniform 0;
    }
    inlet
    {
        type            calculated;
        value           uniform 0;
    }
    outlet
    {
        type            calculated;
        value           nonuniform List<scalar> 
20
(
1.73215e-13
9.39883e-14
2.64691e-14
-9.47165e-14
-1.34829e-13
3.82056e-14
1.6884e-13
1.25693e-13
3.12313e-14
3.64945e-14
-5.29346e-14
-1.49045e-13
-7.50243e-14
2.47843e-13
2.2678e-13
-1.24296e-14
-2.25312e-13
-2.61901e-13
-1.34677e-13
-2.79702e-14
)
;
    }
    frontAndBack
    {
        type            empty;
        value           nonuniform 0();
    }
}


// ************************************************************************* //
