/*--------------------------------*- C++ -*----------------------------------*\
  =========                 |
  \\      /  F ield         | OpenFOAM: The Open Source CFD Toolbox
   \\    /   O peration     | Website:  https://openfoam.org
    \\  /    A nd           | Version:  7
     \\/     M anipulation  |
\*---------------------------------------------------------------------------*/
FoamFile
{
    version     2.0;
    format      ascii;
    class       volVectorField;
    location    "97";
    object      ddtCorrDdt0(hU);
}
// * * * * * * * * * * * * * * * * * * * * * * * * * * * * * * * * * * * * * //

dimensions      [0 2 -2 0 0 0 0];

internalField   nonuniform List<vector> 
400
(
(-1.22404e-10 -8.32699e-11 0)
(-1.64252e-10 8.78646e-11 0)
(1.21699e-10 1.18246e-10 0)
(1.79461e-10 -2.62403e-10 0)
(-3.37561e-10 -4.21513e-10 0)
(-9.03699e-10 9.35598e-10 0)
(1.30722e-09 -6.55308e-10 0)
(-3.97759e-09 -2.19558e-09 0)
(-1.06808e-09 1.25929e-10 0)
(-3.16703e-10 6.15393e-11 0)
(-3.551e-10 2.74981e-10 0)
(2.53711e-10 2.66932e-10 0)
(4.31486e-10 9.09299e-11 0)
(2.18947e-10 -4.12607e-11 0)
(-6.83488e-12 -7.84671e-11 0)
(-1.09405e-10 -6.98223e-11 0)
(-1.04566e-10 -4.608e-11 0)
(-4.40862e-11 -1.6877e-11 0)
(1.49584e-11 -2.17871e-12 0)
(3.12422e-11 3.91929e-12 0)
(-1.67602e-11 -1.36884e-10 0)
(1.87413e-11 1.65988e-10 0)
(-9.95872e-11 1.13325e-10 0)
(-1.57042e-11 -1.82576e-10 0)
(1.33262e-10 -5.04187e-10 0)
(1.21345e-09 1.01855e-09 0)
(-6.73279e-10 -1.10486e-09 0)
(2.90945e-09 -1.11521e-09 0)
(1.41083e-09 8.01782e-11 0)
(-2.7759e-11 -7.31488e-11 0)
(5.80679e-12 3.16546e-10 0)
(4.50916e-11 3.98737e-10 0)
(3.9949e-13 1.64157e-10 0)
(-4.59463e-11 -4.28172e-11 0)
(-6.35526e-11 -1.20147e-10 0)
(-5.48394e-11 -1.22465e-10 0)
(-2.20083e-11 -7.97913e-11 0)
(1.39916e-11 -1.54862e-11 0)
(3.43601e-11 1.503e-11 0)
(2.37186e-11 8.81746e-12 0)
(5.01231e-11 -3.5173e-11 0)
(1.13922e-10 4.69746e-11 0)
(-7.77509e-11 -2.38628e-11 0)
(-8.23504e-12 1.6891e-10 0)
(1.66083e-11 -1.18274e-10 0)
(1.67425e-11 -7.81228e-11 0)
(-1.05818e-09 -3.35036e-10 0)
(7.31908e-10 1.17876e-09 0)
(-5.86794e-11 1.42258e-11 0)
(1.09165e-10 -1.0349e-10 0)
(4.23494e-10 7.17381e-11 0)
(9.79825e-11 9.0648e-11 0)
(-2.11618e-10 7.27627e-12 0)
(-2.34819e-10 -5.04313e-11 0)
(-1.46268e-10 -6.99287e-11 0)
(-4.65689e-11 -7.25663e-11 0)
(4.51909e-11 -4.71994e-11 0)
(7.34344e-11 -5.94597e-12 0)
(5.43821e-11 2.17303e-12 0)
(1.60026e-11 2.71093e-12 0)
(5.54163e-11 4.30844e-11 0)
(5.62588e-11 -4.81912e-11 0)
(-3.86342e-12 -1.60343e-11 0)
(-1.07468e-10 8.86767e-11 0)
(9.42009e-11 5.97958e-11 0)
(-1.74012e-10 -3.70013e-10 0)
(-4.73272e-11 3.21249e-10 0)
(6.8346e-10 2.25503e-10 0)
(-2.13923e-10 -1.05238e-10 0)
(4.28633e-11 1.04888e-10 0)
(2.90325e-10 5.28207e-11 0)
(-8.08926e-11 -1.49148e-10 0)
(-2.47041e-10 -1.61111e-10 0)
(-1.63943e-10 -9.52839e-11 0)
(-6.0527e-11 -3.59014e-11 0)
(1.15556e-11 1.56446e-11 0)
(7.58204e-11 3.44226e-11 0)
(8.38618e-11 1.49088e-11 0)
(3.80033e-11 -1.99934e-11 0)
(-8.02892e-12 -1.18413e-11 0)
(6.56246e-11 4.01599e-11 0)
(-8.6888e-12 -5.43755e-11 0)
(2.41161e-11 -8.5396e-12 0)
(-1.49173e-10 -7.99173e-11 0)
(1.00636e-10 2.05339e-10 0)
(-2.44478e-10 -3.17385e-10 0)
(3.72919e-10 3.18222e-10 0)
(-7.63103e-11 -5.5246e-11 0)
(-2.96721e-10 -1.61984e-10 0)
(3.29254e-10 1.64116e-10 0)
(-2.32647e-11 -5.53626e-11 0)
(-2.93987e-10 -1.97412e-10 0)
(-1.70693e-10 -9.75116e-11 0)
(-2.17374e-11 -1.30861e-11 0)
(6.72395e-11 2.87363e-11 0)
(8.40993e-11 8.42625e-11 0)
(6.11942e-11 8.86089e-11 0)
(3.181e-11 1.73166e-11 0)
(1.18949e-12 -5.37476e-11 0)
(-1.85493e-11 -3.16867e-11 0)
(2.40606e-11 1.54932e-11 0)
(-3.81072e-11 -6.3076e-11 0)
(9.9719e-12 -9.03077e-12 0)
(-4.89431e-11 -1.03778e-10 0)
(1.66731e-11 1.03689e-10 0)
(-7.9671e-11 -5.21334e-11 0)
(2.13905e-10 1.38123e-10 0)
(-2.94566e-10 -2.32183e-10 0)
(1.84993e-10 1.21194e-10 0)
(1.59005e-10 2.33577e-11 0)
(-3.33981e-10 -2.02725e-10 0)
(-1.93569e-10 -8.78427e-11 0)
(4.41227e-11 5.05505e-11 0)
(8.64458e-11 8.83619e-11 0)
(1.20065e-10 9.05964e-11 0)
(1.08241e-10 9.12618e-11 0)
(5.41425e-12 6.59924e-11 0)
(-7.41047e-11 -4.19542e-12 0)
(-5.64039e-11 -8.36005e-11 0)
(-2.14929e-13 -4.71726e-11 0)
(-2.52692e-11 -7.2969e-12 0)
(-1.77191e-11 -3.26204e-12 0)
(-1.85518e-11 -2.35936e-11 0)
(6.36513e-11 2.79476e-11 0)
(-3.81289e-11 -8.21949e-11 0)
(9.12747e-11 9.49474e-11 0)
(-1.66069e-11 -4.09318e-11 0)
(-5.52146e-11 -4.4737e-11 0)
(1.57581e-10 1.16544e-10 0)
(-2.49277e-10 -1.72645e-10 0)
(-2.24901e-10 -8.50124e-11 0)
(9.00514e-11 1.23262e-10 0)
(1.55965e-10 1.04582e-10 0)
(1.17834e-10 8.38097e-11 0)
(1.15472e-10 9.30394e-11 0)
(8.68208e-11 3.43149e-11 0)
(-3.03262e-11 -2.74567e-11 0)
(-1.40845e-10 -4.25083e-11 0)
(-1.1774e-10 -6.44896e-11 0)
(3.87503e-12 -3.19024e-11 0)
(-3.6852e-11 -1.35398e-11 0)
(2.55714e-11 6.43087e-11 0)
(-3.18814e-11 -2.70642e-11 0)
(7.47179e-11 5.85063e-11 0)
(-3.41483e-11 -1.03493e-10 0)
(1.20316e-10 2.1097e-11 0)
(-9.23647e-11 -1.25501e-10 0)
(9.53773e-11 1.18393e-11 0)
(-4.92362e-11 -6.29647e-11 0)
(-1.93944e-10 -8.11047e-11 0)
(1.3756e-10 1.48467e-10 0)
(1.14058e-10 1.76322e-10 0)
(1.86724e-11 6.92321e-11 0)
(1.02886e-10 4.72709e-11 0)
(8.17555e-11 3.99251e-11 0)
(-9.4335e-12 -5.9332e-11 0)
(-5.5252e-11 -1.40596e-10 0)
(-9.03366e-11 -1.04114e-10 0)
(-8.35614e-11 -4.51235e-11 0)
(2.91216e-12 2.68634e-13 0)
(8.99858e-12 2.2807e-11 0)
(3.4569e-11 2.13008e-11 0)
(-1.74771e-11 2.58087e-11 0)
(-3.70216e-12 -2.72531e-11 0)
(-1.10773e-11 -1.62582e-11 0)
(2.86636e-11 -6.42669e-11 0)
(-3.6988e-11 -8.36902e-11 0)
(6.72104e-11 -1.13542e-11 0)
(-6.18606e-11 -1.15557e-10 0)
(3.67475e-11 9.58282e-11 0)
(1.46825e-10 1.503e-10 0)
(-3.31146e-11 5.24128e-11 0)
(-5.21169e-11 7.9068e-11 0)
(5.49052e-11 5.34133e-11 0)
(-3.61625e-12 -5.14118e-11 0)
(-9.48239e-11 -1.35464e-10 0)
(-5.57495e-11 -1.59329e-10 0)
(1.66553e-11 -1.01256e-10 0)
(2.67212e-11 -3.50997e-11 0)
(1.14806e-11 8.22193e-12 0)
(1.2235e-11 3.78019e-11 0)
(-2.081e-11 -2.92456e-11 0)
(2.06338e-11 2.9636e-11 0)
(-4.98529e-11 -4.96979e-11 0)
(-6.55125e-12 7.99044e-12 0)
(-7.90549e-11 -6.79983e-11 0)
(1.85109e-11 -4.47807e-11 0)
(-3.84675e-11 -3.75623e-11 0)
(4.00178e-11 -8.23836e-11 0)
(1.30269e-10 7.67772e-11 0)
(-1.71522e-11 4.01339e-11 0)
(-4.10811e-13 -8.03101e-12 0)
(-1.25162e-11 7.94437e-11 0)
(-1.55789e-10 4.47852e-11 0)
(-1.68592e-10 -6.5017e-11 0)
(-6.63715e-11 -1.06014e-10 0)
(2.81924e-11 -9.43916e-11 0)
(9.26789e-11 -5.467e-11 0)
(9.97217e-11 -3.14974e-11 0)
(2.60866e-11 1.68314e-13 0)
(3.73416e-12 -2.24048e-11 0)
(-3.82285e-11 2.17118e-11 0)
(3.93331e-11 -2.96415e-11 0)
(-4.54081e-11 2.40431e-12 0)
(9.15873e-12 -3.97991e-11 0)
(-1.03452e-10 -6.41578e-12 0)
(2.81201e-11 -4.29348e-11 0)
(-7.56035e-11 -3.22802e-11 0)
(6.12622e-11 -2.47271e-11 0)
(1.50228e-10 -7.90599e-11 0)
(-5.7255e-11 -3.16183e-11 0)
(2.4877e-11 -3.61032e-12 0)
(1.49849e-11 -3.53209e-11 0)
(-1.97494e-10 -1.02772e-11 0)
(-1.95543e-10 5.20596e-11 0)
(-4.42975e-11 4.91592e-11 0)
(5.68373e-11 1.27309e-12 0)
(1.16865e-10 -2.09976e-11 0)
(1.17294e-10 -4.08499e-11 0)
(1.48987e-11 -1.46526e-11 0)
(1.37722e-11 -2.83132e-11 0)
(1.1524e-11 8.54292e-12 0)
(1.55049e-11 -5.31477e-11 0)
(-8.88442e-12 2.30123e-11 0)
(3.20486e-11 -6.65086e-11 0)
(-2.40211e-11 1.72613e-11 0)
(-1.51437e-11 -2.07139e-11 0)
(-2.1044e-12 -3.88023e-11 0)
(-5.47809e-11 6.24482e-11 0)
(1.11937e-10 -1.56206e-10 0)
(8.34311e-11 -1.21994e-10 0)
(-3.26751e-11 -1.2864e-11 0)
(6.13433e-12 -8.02903e-11 0)
(4.3152e-11 -4.86056e-11 0)
(-2.51508e-11 8.68884e-11 0)
(-9.0796e-11 1.35554e-10 0)
(-3.98836e-11 9.25958e-11 0)
(6.44584e-11 2.0056e-11 0)
(8.27174e-11 -6.6552e-11 0)
(-3.57491e-12 -4.45586e-11 0)
(-2.71819e-11 1.94147e-11 0)
(2.47468e-11 -5.31576e-11 0)
(-1.99895e-11 1.62487e-11 0)
(6.54262e-11 -6.23607e-11 0)
(6.08567e-12 1.48255e-12 0)
(1.01684e-10 -6.33027e-11 0)
(-1.00547e-10 5.47722e-11 0)
(9.45929e-11 -6.65442e-11 0)
(-1.45471e-10 1.27314e-10 0)
(-1.27127e-10 2.97922e-11 0)
(1.82791e-10 -1.43265e-10 0)
(4.55104e-11 -8.01837e-11 0)
(4.12428e-12 -2.5208e-11 0)
(1.76587e-10 -3.80764e-11 0)
(1.41875e-10 -1.26886e-11 0)
(-1.65281e-11 6.65176e-11 0)
(-7.23802e-11 1.05048e-10 0)
(-5.45815e-11 3.22811e-11 0)
(-4.14252e-11 -9.28711e-11 0)
(-2.07462e-11 -6.44056e-11 0)
(-3.28305e-11 2.05322e-11 0)
(-2.91544e-12 -1.28388e-11 0)
(-3.95793e-11 5.49626e-11 0)
(8.12904e-11 -9.37718e-11 0)
(-5.48979e-11 7.94766e-11 0)
(1.61238e-10 -1.7647e-10 0)
(-9.68959e-11 7.31871e-11 0)
(6.18443e-11 -6.61318e-11 0)
(5.10502e-11 -2.19378e-11 0)
(-3.71945e-10 2.57422e-10 0)
(-1.10535e-10 7.24679e-11 0)
(1.01649e-10 -7.0411e-11 0)
(8.76955e-11 -7.16661e-12 0)
(1.50787e-10 -3.13972e-11 0)
(1.83213e-10 -9.22076e-11 0)
(1.02112e-10 -4.63564e-11 0)
(-4.88946e-11 1.39907e-11 0)
(-1.56676e-10 -8.45309e-12 0)
(-1.20681e-10 -7.19301e-11 0)
(8.60836e-12 -4.03564e-11 0)
(1.15149e-11 -1.57121e-11 0)
(-2.15017e-11 5.2913e-11 0)
(-1.3247e-11 1.3161e-11 0)
(1.17811e-12 1.53726e-11 0)
(-4.0592e-11 -4.35367e-11 0)
(5.40117e-11 -1.14378e-10 0)
(1.00031e-10 -8.52143e-11 0)
(-2.10405e-10 1.17954e-10 0)
(3.42076e-10 -2.46702e-10 0)
(-6.12139e-11 1.18923e-10 0)
(-3.98512e-10 2.84696e-10 0)
(-1.28488e-10 1.23464e-10 0)
(3.3755e-11 4.92557e-11 0)
(7.08268e-11 -8.02394e-12 0)
(1.61274e-10 -8.71428e-11 0)
(1.71196e-10 -1.24371e-10 0)
(1.22807e-11 -1.05781e-10 0)
(-1.25747e-10 -5.40092e-11 0)
(-1.02554e-10 -2.07887e-11 0)
(9.23592e-12 5.13425e-12 0)
(6.07116e-11 -4.62274e-11 0)
(-4.95332e-12 6.60794e-11 0)
(2.35743e-11 -3.51802e-11 0)
(-1.15717e-10 9.95018e-11 0)
(5.96294e-11 -1.95123e-10 0)
(-1.86913e-10 2.43074e-10 0)
(4.25139e-10 -3.52306e-10 0)
(-3.96939e-10 2.48041e-10 0)
(5.10087e-12 -4.61694e-11 0)
(4.34763e-10 -2.16185e-10 0)
(-1.52394e-10 1.48155e-10 0)
(-2.78962e-10 2.43398e-10 0)
(-1.49436e-10 1.54954e-10 0)
(-6.80378e-11 7.61927e-11 0)
(5.66129e-11 -4.61042e-12 0)
(1.34607e-10 -1.05489e-10 0)
(8.13277e-11 -1.34872e-10 0)
(-2.14518e-12 -5.55861e-11 0)
(-3.40613e-11 1.20943e-11 0)
(-1.31229e-11 1.99902e-11 0)
(6.15816e-11 -4.75721e-11 0)
(4.16409e-11 6.73613e-11 0)
(5.58899e-11 -5.01956e-11 0)
(-1.11727e-10 -7.61266e-12 0)
(1.73802e-10 -1.72636e-10 0)
(-3.42733e-10 4.88485e-10 0)
(3.14005e-10 -6.0926e-10 0)
(4.53696e-10 -2.01893e-10 0)
(-5.08334e-10 9.92212e-11 0)
(2.70755e-10 -2.61161e-10 0)
(3.15049e-10 -7.04687e-11 0)
(-9.0402e-11 1.74996e-10 0)
(-2.2001e-10 1.87495e-10 0)
(-1.89751e-10 1.33664e-10 0)
(-8.40812e-11 6.88375e-11 0)
(4.18681e-11 -2.95245e-11 0)
(1.12692e-10 -8.81775e-11 0)
(9.17477e-11 -5.59612e-11 0)
(1.25373e-11 -1.40798e-11 0)
(-3.68595e-11 5.30211e-12 0)
(5.68619e-11 3.66315e-11 0)
(9.33968e-11 -5.97648e-11 0)
(2.09475e-11 2.05181e-11 0)
(-6.15022e-11 -1.52642e-10 0)
(2.20611e-10 8.96782e-12 0)
(-3.67547e-10 4.48157e-10 0)
(-6.20777e-10 -9.83788e-10 0)
(7.95007e-10 1.94817e-10 0)
(-1.69142e-10 2.28664e-11 0)
(1.41912e-10 5.51242e-11 0)
(5.09356e-10 -1.22907e-10 0)
(1.46277e-10 -8.28359e-11 0)
(-1.59793e-10 -1.27497e-11 0)
(-2.26238e-10 4.69424e-11 0)
(-1.65763e-10 8.36262e-11 0)
(-3.89186e-11 6.19364e-11 0)
(7.54439e-11 8.88834e-13 0)
(9.73651e-11 -3.95455e-11 0)
(2.81308e-11 -4.1946e-11 0)
(-3.63497e-11 -1.12855e-11 0)
(-1.66492e-11 1.43422e-10 0)
(2.84962e-11 -2.13408e-10 0)
(-7.05334e-11 -4.34788e-11 0)
(1.66478e-11 7.23287e-11 0)
(4.06868e-10 4.60069e-10 0)
(-1.53042e-09 -1.4334e-09 0)
(-9.43623e-10 2.43649e-09 0)
(-1.97723e-09 -4.88667e-10 0)
(-5.70496e-10 1.32059e-10 0)
(-2.05096e-11 2.22784e-10 0)
(7.45788e-11 -2.78473e-10 0)
(7.43533e-11 -4.14082e-10 0)
(1.41964e-11 -2.30276e-10 0)
(-1.80996e-11 -9.21179e-12 0)
(-5.56606e-11 1.13252e-10 0)
(-5.74914e-11 1.22203e-10 0)
(-1.26615e-11 5.73915e-11 0)
(3.29193e-11 -1.27038e-11 0)
(2.7083e-11 -3.81023e-11 0)
(-1.28237e-11 -1.75006e-11 0)
(-1.46701e-10 8.57959e-11 0)
(-1.31679e-10 -1.17879e-10 0)
(6.08552e-11 -8.38249e-11 0)
(2.44001e-10 1.60193e-10 0)
(-7.46546e-10 3.82083e-10 0)
(2.24868e-09 -1.63981e-09 0)
(9.22011e-10 3.0565e-09 0)
(1.21197e-09 -9.90154e-10 0)
(9.4386e-10 9.82989e-11 0)
(-5.48338e-10 8.56963e-11 0)
(-4.96056e-10 -2.13456e-10 0)
(1.39008e-10 -2.70904e-10 0)
(4.11747e-10 -1.26737e-10 0)
(2.99501e-10 1.50812e-11 0)
(4.81141e-11 7.31667e-11 0)
(-1.11024e-10 6.00219e-11 0)
(-1.12697e-10 2.01098e-11 0)
(-2.72678e-11 -1.35413e-11 0)
(1.92697e-11 -2.64958e-11 0)
(2.22556e-12 -8.91445e-12 0)
)
;

boundaryField
{
    sides
    {
        type            calculated;
        value           nonuniform List<vector> 
40
(
(-1.46701e-10 0 0)
(-1.31679e-10 0 0)
(6.08552e-11 0 0)
(2.44001e-10 0 0)
(-7.46546e-10 0 0)
(2.24868e-09 0 0)
(9.22011e-10 0 0)
(1.21197e-09 0 0)
(9.4386e-10 0 0)
(-5.48338e-10 0 0)
(-4.96056e-10 0 0)
(1.39008e-10 0 0)
(4.11747e-10 0 0)
(2.99501e-10 0 0)
(4.81141e-11 0 0)
(-1.11024e-10 0 0)
(-1.12697e-10 0 0)
(-2.72678e-11 0 0)
(1.92697e-11 0 0)
(2.22556e-12 0 0)
(-1.22404e-10 0 0)
(-1.64252e-10 0 0)
(1.21699e-10 0 0)
(1.79461e-10 0 0)
(-3.37561e-10 0 0)
(-9.03699e-10 0 0)
(1.30722e-09 0 0)
(-3.97759e-09 0 0)
(-1.06808e-09 0 0)
(-3.16703e-10 0 0)
(-3.551e-10 0 0)
(2.53711e-10 0 0)
(4.31486e-10 0 0)
(2.18947e-10 0 0)
(-6.83488e-12 0 0)
(-1.09405e-10 0 0)
(-1.04566e-10 0 0)
(-4.40862e-11 0 0)
(1.49584e-11 0 0)
(3.12422e-11 0 0)
)
;
    }
    inlet
    {
        type            calculated;
        value           uniform (0 0 0);
    }
    outlet
    {
        type            calculated;
        value           nonuniform List<vector> 
20
(
(3.12422e-11 3.91929e-12 0)
(2.37186e-11 8.81746e-12 0)
(1.60026e-11 2.71093e-12 0)
(-8.02892e-12 -1.18413e-11 0)
(-1.85493e-11 -3.16867e-11 0)
(-2.14929e-13 -4.71726e-11 0)
(3.87503e-12 -3.19024e-11 0)
(2.91216e-12 2.68634e-13 0)
(1.14806e-11 8.22193e-12 0)
(2.60866e-11 1.68314e-13 0)
(1.48987e-11 -1.46526e-11 0)
(-3.57491e-12 -4.45586e-11 0)
(-2.07462e-11 -6.44056e-11 0)
(8.60836e-12 -4.03564e-11 0)
(9.23592e-12 5.13425e-12 0)
(-1.31229e-11 1.99902e-11 0)
(-3.68595e-11 5.30211e-12 0)
(-3.63497e-11 -1.12855e-11 0)
(-1.28237e-11 -1.75006e-11 0)
(2.22556e-12 -8.91445e-12 0)
)
;
    }
    frontAndBack
    {
        type            empty;
    }
}


// ************************************************************************* //
