/*--------------------------------*- C++ -*----------------------------------*\
  =========                 |
  \\      /  F ield         | OpenFOAM: The Open Source CFD Toolbox
   \\    /   O peration     | Website:  https://openfoam.org
    \\  /    A nd           | Version:  7
     \\/     M anipulation  |
\*---------------------------------------------------------------------------*/
FoamFile
{
    version     2.0;
    format      ascii;
    class       volVectorField;
    location    "97";
    object      hU_0;
}
// * * * * * * * * * * * * * * * * * * * * * * * * * * * * * * * * * * * * * //

dimensions      [0 2 -1 0 0 0 0];

internalField   nonuniform List<vector> 
400
(
(0.001 -8.73906e-09 0)
(0.000999999 -2.37661e-08 0)
(0.001 -3.59897e-08 0)
(0.001 -4.6711e-08 0)
(0.00100001 -5.69744e-08 0)
(0.00100001 -6.75046e-08 0)
(0.00100002 -7.82315e-08 0)
(0.00100003 -8.90917e-08 0)
(0.00100004 -9.98975e-08 0)
(0.00100006 -1.11879e-07 0)
(0.00100007 -1.22634e-07 0)
(0.0010001 -1.36175e-07 0)
(0.00100011 -1.46558e-07 0)
(0.00100015 -1.63376e-07 0)
(0.00100017 -1.72191e-07 0)
(0.00100024 -1.96313e-07 0)
(0.00100026 -2.00803e-07 0)
(0.00100038 -2.43036e-07 0)
(0.00100038 -2.39162e-07 0)
(0.00100061 -3.31832e-07 0)
(0.001 3.96522e-09 0)
(0.001 1.21031e-08 0)
(0.00100001 2.0257e-08 0)
(0.00100001 2.79614e-08 0)
(0.00100002 3.50801e-08 0)
(0.00100002 4.15892e-08 0)
(0.00100003 4.75862e-08 0)
(0.00100004 5.31276e-08 0)
(0.00100005 5.84292e-08 0)
(0.00100007 6.23438e-08 0)
(0.00100008 6.69896e-08 0)
(0.0010001 6.8556e-08 0)
(0.00100012 7.26341e-08 0)
(0.00100016 6.98228e-08 0)
(0.00100018 7.39971e-08 0)
(0.00100023 6.16673e-08 0)
(0.00100026 6.71674e-08 0)
(0.00100035 3.17706e-08 0)
(0.00100037 3.98653e-08 0)
(0.0010005 -5.45746e-08 0)
(0.001 -3.97639e-09 0)
(0.000999999 -1.30348e-08 0)
(0.001 -2.30792e-08 0)
(0.001 -3.36878e-08 0)
(0.00100001 -4.42038e-08 0)
(0.00100001 -5.49886e-08 0)
(0.00100002 -6.55681e-08 0)
(0.00100003 -7.73696e-08 0)
(0.00100004 -8.88845e-08 0)
(0.00100005 -1.02521e-07 0)
(0.00100006 -1.15255e-07 0)
(0.00100009 -1.32428e-07 0)
(0.0010001 -1.46539e-07 0)
(0.00100014 -1.70056e-07 0)
(0.00100016 -1.85153e-07 0)
(0.00100021 -2.21151e-07 0)
(0.00100023 -2.3569e-07 0)
(0.00100031 -2.97588e-07 0)
(0.00100033 -3.06204e-07 0)
(0.00100046 -4.22145e-07 0)
(0.001 -1.47536e-10 0)
(0.001 -6.37011e-11 0)
(0.00100001 5.74232e-10 0)
(0.00100001 1.28747e-09 0)
(0.00100001 2.01722e-09 0)
(0.00100002 1.89954e-09 0)
(0.00100003 1.57273e-09 0)
(0.00100004 -3.61531e-10 0)
(0.00100004 -2.39124e-09 0)
(0.00100006 -7.07487e-09 0)
(0.00100007 -1.12466e-08 0)
(0.00100009 -2.05022e-08 0)
(0.00100011 -2.71881e-08 0)
(0.00100013 -4.4279e-08 0)
(0.00100016 -5.35518e-08 0)
(0.00100019 -8.49925e-08 0)
(0.00100022 -9.55039e-08 0)
(0.00100028 -1.54689e-07 0)
(0.0010003 -1.60971e-07 0)
(0.00100039 -2.7583e-07 0)
(0.001 -2.90197e-09 0)
(0.001 -9.25179e-09 0)
(0.001 -1.63308e-08 0)
(0.001 -2.43923e-08 0)
(0.00100001 -3.30595e-08 0)
(0.00100001 -4.27565e-08 0)
(0.00100002 -5.28608e-08 0)
(0.00100002 -6.45565e-08 0)
(0.00100003 -7.64522e-08 0)
(0.00100004 -9.12395e-08 0)
(0.00100005 -1.05636e-07 0)
(0.00100007 -1.25413e-07 0)
(0.00100009 -1.42737e-07 0)
(0.00100011 -1.70934e-07 0)
(0.00100013 -1.91238e-07 0)
(0.00100016 -2.34351e-07 0)
(0.00100018 -2.55813e-07 0)
(0.00100024 -3.26579e-07 0)
(0.00100025 -3.41551e-07 0)
(0.00100033 -4.64375e-07 0)
(0.001 -2.57478e-09 0)
(0.001 -7.56124e-09 0)
(0.001 -1.22528e-08 0)
(0.00100001 -1.69851e-08 0)
(0.00100001 -2.17567e-08 0)
(0.00100001 -2.72569e-08 0)
(0.00100002 -3.32049e-08 0)
(0.00100002 -4.08203e-08 0)
(0.00100003 -4.88968e-08 0)
(0.00100004 -6.01434e-08 0)
(0.00100005 -7.12809e-08 0)
(0.00100006 -8.82343e-08 0)
(0.00100008 -1.03191e-07 0)
(0.0010001 -1.29476e-07 0)
(0.00100011 -1.48371e-07 0)
(0.00100014 -1.90327e-07 0)
(0.00100016 -2.11045e-07 0)
(0.0010002 -2.80546e-07 0)
(0.00100021 -2.94564e-07 0)
(0.00100027 -4.14955e-07 0)
(0.001 -2.91364e-09 0)
(0.001 -8.90461e-09 0)
(0.001 -1.52132e-08 0)
(0.001 -2.22466e-08 0)
(0.00100001 -2.99724e-08 0)
(0.00100001 -3.89434e-08 0)
(0.00100001 -4.87191e-08 0)
(0.00100002 -6.0445e-08 0)
(0.00100002 -7.28822e-08 0)
(0.00100003 -8.86575e-08 0)
(0.00100004 -1.04487e-07 0)
(0.00100005 -1.2638e-07 0)
(0.00100006 -1.46345e-07 0)
(0.00100007 -1.77881e-07 0)
(0.00100009 -2.01879e-07 0)
(0.00100011 -2.49259e-07 0)
(0.00100012 -2.74756e-07 0)
(0.00100015 -3.49581e-07 0)
(0.00100016 -3.67253e-07 0)
(0.00100021 -4.92156e-07 0)
(0.001 -3.2077e-09 0)
(0.001 -9.78805e-09 0)
(0.001 -1.65989e-08 0)
(0.001 -2.3987e-08 0)
(0.001 -3.18181e-08 0)
(0.00100001 -4.06968e-08 0)
(0.00100001 -5.01537e-08 0)
(0.00100001 -6.14768e-08 0)
(0.00100002 -7.34586e-08 0)
(0.00100002 -8.87966e-08 0)
(0.00100003 -1.04321e-07 0)
(0.00100004 -1.26e-07 0)
(0.00100004 -1.45935e-07 0)
(0.00100005 -1.77505e-07 0)
(0.00100006 -2.01794e-07 0)
(0.00100008 -2.4932e-07 0)
(0.00100009 -2.75284e-07 0)
(0.00100011 -3.49836e-07 0)
(0.00100012 -3.67633e-07 0)
(0.00100015 -4.90782e-07 0)
(0.001 -3.37319e-09 0)
(0.001 -1.02851e-08 0)
(0.001 -1.73808e-08 0)
(0.001 -2.50547e-08 0)
(0.001 -3.3187e-08 0)
(0.001 -4.24809e-08 0)
(0.00100001 -5.24901e-08 0)
(0.00100001 -6.45756e-08 0)
(0.00100001 -7.74714e-08 0)
(0.00100001 -9.39426e-08 0)
(0.00100002 -1.10754e-07 0)
(0.00100002 -1.33904e-07 0)
(0.00100003 -1.55397e-07 0)
(0.00100003 -1.88758e-07 0)
(0.00100004 -2.14759e-07 0)
(0.00100005 -2.64261e-07 0)
(0.00100005 -2.91805e-07 0)
(0.00100007 -3.68359e-07 0)
(0.00100007 -3.87184e-07 0)
(0.00100009 -5.12427e-07 0)
(0.001 -3.45102e-09 0)
(0.001 -1.05188e-08 0)
(0.001 -1.77723e-08 0)
(0.001 -2.56199e-08 0)
(0.001 -3.39763e-08 0)
(0.001 -4.3542e-08 0)
(0.001 -5.38874e-08 0)
(0.001 -6.63408e-08 0)
(0.001 -7.96278e-08 0)
(0.001 -9.64946e-08 0)
(0.00100001 -1.13706e-07 0)
(0.00100001 -1.37231e-07 0)
(0.00100001 -1.59131e-07 0)
(0.00100001 -1.92852e-07 0)
(0.00100001 -2.19273e-07 0)
(0.00100002 -2.6906e-07 0)
(0.00100002 -2.97008e-07 0)
(0.00100002 -3.73625e-07 0)
(0.00100002 -3.92745e-07 0)
(0.00100003 -5.17409e-07 0)
(0.001 -3.45752e-09 0)
(0.001 -1.05146e-08 0)
(0.001 -1.77742e-08 0)
(0.000999999 -2.56127e-08 0)
(0.000999999 -3.39702e-08 0)
(0.000999999 -4.35282e-08 0)
(0.000999998 -5.38845e-08 0)
(0.000999997 -6.63321e-08 0)
(0.000999996 -7.96295e-08 0)
(0.000999995 -9.64945e-08 0)
(0.000999994 -1.13697e-07 0)
(0.000999993 -1.37227e-07 0)
(0.000999991 -1.59119e-07 0)
(0.000999989 -1.92824e-07 0)
(0.000999987 -2.19253e-07 0)
(0.000999984 -2.69055e-07 0)
(0.000999982 -2.9701e-07 0)
(0.000999978 -3.73627e-07 0)
(0.000999977 -3.92751e-07 0)
(0.00099997 -5.1741e-07 0)
(0.001 -3.38057e-09 0)
(0.001 -1.0279e-08 0)
(0.000999999 -1.73873e-08 0)
(0.000999998 -2.50392e-08 0)
(0.000999997 -3.31796e-08 0)
(0.000999996 -4.24542e-08 0)
(0.000999994 -5.24884e-08 0)
(0.000999992 -6.45643e-08 0)
(0.000999989 -7.74762e-08 0)
(0.000999986 -9.39538e-08 0)
(0.000999983 -1.10745e-07 0)
(0.000999978 -1.33892e-07 0)
(0.000999973 -1.55369e-07 0)
(0.000999967 -1.887e-07 0)
(0.000999961 -2.14712e-07 0)
(0.000999952 -2.64232e-07 0)
(0.000999946 -2.91794e-07 0)
(0.000999934 -3.6834e-07 0)
(0.00099993 -3.87175e-07 0)
(0.000999911 -5.12381e-07 0)
(0.001 -3.20155e-09 0)
(0.001 -9.78876e-09 0)
(0.000999999 -1.66013e-08 0)
(0.000999997 -2.3982e-08 0)
(0.000999996 -3.18205e-08 0)
(0.000999993 -4.06843e-08 0)
(0.000999991 -5.01557e-08 0)
(0.000999987 -6.1487e-08 0)
(0.000999983 -7.34618e-08 0)
(0.000999977 -8.88246e-08 0)
(0.000999971 -1.04349e-07 0)
(0.000999964 -1.26009e-07 0)
(0.000999956 -1.45927e-07 0)
(0.000999945 -1.77481e-07 0)
(0.000999936 -2.01772e-07 0)
(0.000999921 -2.49305e-07 0)
(0.000999911 -2.75288e-07 0)
(0.000999889 -3.49844e-07 0)
(0.000999882 -3.67653e-07 0)
(0.000999852 -4.90779e-07 0)
(0.001 -2.90055e-09 0)
(0.000999999 -8.90762e-09 0)
(0.000999998 -1.5206e-08 0)
(0.000999996 -2.22599e-08 0)
(0.000999994 -2.99663e-08 0)
(0.000999991 -3.89551e-08 0)
(0.000999987 -4.87064e-08 0)
(0.000999982 -6.04672e-08 0)
(0.000999977 -7.287e-08 0)
(0.000999969 -8.86479e-08 0)
(0.000999962 -1.04514e-07 0)
(0.000999951 -1.26397e-07 0)
(0.000999941 -1.46348e-07 0)
(0.000999925 -1.77862e-07 0)
(0.000999913 -2.01849e-07 0)
(0.000999891 -2.49199e-07 0)
(0.000999878 -2.74706e-07 0)
(0.000999847 -3.49494e-07 0)
(0.000999839 -3.67177e-07 0)
(0.000999792 -4.92016e-07 0)
(0.001 -2.57058e-09 0)
(0.000999999 -7.56299e-09 0)
(0.000999997 -1.2248e-08 0)
(0.000999995 -1.69983e-08 0)
(0.000999991 -2.17464e-08 0)
(0.000999987 -2.72978e-08 0)
(0.000999982 -3.319e-08 0)
(0.000999975 -4.08387e-08 0)
(0.000999968 -4.89126e-08 0)
(0.000999959 -6.01159e-08 0)
(0.000999949 -7.12856e-08 0)
(0.000999935 -8.82706e-08 0)
(0.000999922 -1.03243e-07 0)
(0.000999903 -1.29519e-07 0)
(0.000999886 -1.48402e-07 0)
(0.000999859 -1.90332e-07 0)
(0.000999841 -2.11047e-07 0)
(0.000999802 -2.80527e-07 0)
(0.000999787 -2.94554e-07 0)
(0.000999731 -4.14933e-07 0)
(0.001 -2.91308e-09 0)
(0.001 -9.24569e-09 0)
(0.000999999 -1.63209e-08 0)
(0.000999997 -2.43787e-08 0)
(0.000999994 -3.30675e-08 0)
(0.00099999 -4.27694e-08 0)
(0.000999984 -5.28493e-08 0)
(0.000999977 -6.4498e-08 0)
(0.000999969 -7.64589e-08 0)
(0.000999958 -9.11994e-08 0)
(0.000999946 -1.05573e-07 0)
(0.00099993 -1.25378e-07 0)
(0.000999915 -1.42746e-07 0)
(0.000999891 -1.70943e-07 0)
(0.000999872 -1.9125e-07 0)
(0.000999837 -2.34314e-07 0)
(0.000999817 -2.55775e-07 0)
(0.000999764 -3.26477e-07 0)
(0.000999752 -3.41471e-07 0)
(0.00099967 -4.6421e-07 0)
(0.001 -1.68449e-10 0)
(0.000999998 -5.51457e-11 0)
(0.000999995 5.90905e-10 0)
(0.000999991 1.29573e-09 0)
(0.000999986 1.94334e-09 0)
(0.00099998 1.91586e-09 0)
(0.000999973 1.48463e-09 0)
(0.000999965 -3.2182e-10 0)
(0.000999955 -2.38727e-09 0)
(0.000999943 -7.06302e-09 0)
(0.00099993 -1.11962e-08 0)
(0.000999912 -2.0459e-08 0)
(0.000999894 -2.71842e-08 0)
(0.000999867 -4.42943e-08 0)
(0.000999845 -5.35814e-08 0)
(0.000999805 -8.49951e-08 0)
(0.000999779 -9.55015e-08 0)
(0.00099972 -1.54651e-07 0)
(0.000999698 -1.60939e-07 0)
(0.000999611 -2.75766e-07 0)
(0.001 -3.97626e-09 0)
(0.001 -1.30391e-08 0)
(0.001 -2.30824e-08 0)
(0.000999998 -3.36794e-08 0)
(0.000999995 -4.42443e-08 0)
(0.000999989 -5.49982e-08 0)
(0.000999983 -6.57619e-08 0)
(0.000999974 -7.73518e-08 0)
(0.000999964 -8.88399e-08 0)
(0.00099995 -1.0253e-07 0)
(0.000999936 -1.15278e-07 0)
(0.000999914 -1.32416e-07 0)
(0.000999896 -1.4652e-07 0)
(0.000999864 -1.70029e-07 0)
(0.000999841 -1.85163e-07 0)
(0.000999791 -2.21145e-07 0)
(0.000999767 -2.35717e-07 0)
(0.000999687 -2.9756e-07 0)
(0.000999671 -3.06211e-07 0)
(0.000999539 -4.22068e-07 0)
(0.001 3.9892e-09 0)
(0.000999996 1.20934e-08 0)
(0.000999991 2.01978e-08 0)
(0.000999987 2.79242e-08 0)
(0.000999982 3.52104e-08 0)
(0.000999976 4.16431e-08 0)
(0.000999969 4.78471e-08 0)
(0.000999959 5.30037e-08 0)
(0.000999948 5.83861e-08 0)
(0.000999934 6.22516e-08 0)
(0.000999919 6.69039e-08 0)
(0.000999897 6.85647e-08 0)
(0.000999878 7.2702e-08 0)
(0.000999845 6.99094e-08 0)
(0.000999819 7.40425e-08 0)
(0.000999767 6.17082e-08 0)
(0.000999738 6.71779e-08 0)
(0.000999654 3.18329e-08 0)
(0.000999629 3.99121e-08 0)
(0.000999495 -5.44518e-08 0)
(0.001 -8.72528e-09 0)
(0.001 -2.37665e-08 0)
(0.001 -3.60354e-08 0)
(0.000999997 -4.67616e-08 0)
(0.000999993 -5.68674e-08 0)
(0.000999986 -6.74407e-08 0)
(0.000999979 -7.78773e-08 0)
(0.000999968 -8.92629e-08 0)
(0.000999958 -1.00008e-07 0)
(0.000999942 -1.11991e-07 0)
(0.000999928 -1.22724e-07 0)
(0.000999903 -1.36208e-07 0)
(0.000999886 -1.46564e-07 0)
(0.000999846 -1.63386e-07 0)
(0.000999826 -1.7223e-07 0)
(0.00099976 -1.9637e-07 0)
(0.000999742 -2.00877e-07 0)
(0.000999623 -2.43114e-07 0)
(0.000999618 -2.39243e-07 0)
(0.000999394 -3.31961e-07 0)
)
;

boundaryField
{
    sides
    {
        type            slip;
    }
    inlet
    {
        type            fixedValue;
        value           uniform (0.001 0 0);
    }
    outlet
    {
        type            zeroGradient;
    }
    frontAndBack
    {
        type            empty;
    }
}


// ************************************************************************* //
