/*--------------------------------*- C++ -*----------------------------------*\
  =========                 |
  \\      /  F ield         | OpenFOAM: The Open Source CFD Toolbox
   \\    /   O peration     | Website:  https://openfoam.org
    \\  /    A nd           | Version:  7
     \\/     M anipulation  |
\*---------------------------------------------------------------------------*/
FoamFile
{
    version     2.0;
    format      ascii;
    class       surfaceScalarField;
    location    "97";
    object      phi_0;
}
// * * * * * * * * * * * * * * * * * * * * * * * * * * * * * * * * * * * * * //

dimensions      [0 4 -1 0 0 0 0];

internalField   nonuniform List<scalar> 
760
(
4.99999e-06
9.92909e-12
4.99999e-06
-4.33951e-12
5.00001e-06
-1.27087e-11
5.00003e-06
-1.94799e-11
5.00005e-06
-2.7149e-11
5.00009e-06
-3.19326e-11
5.00013e-06
-3.84643e-11
5.00018e-06
-4.77404e-11
5.00025e-06
-6.2451e-11
5.00032e-06
-7.79618e-11
5.00041e-06
-8.99313e-11
5.00053e-06
-1.13961e-10
5.00066e-06
-1.27009e-10
5.00082e-06
-1.67988e-10
5.001e-06
-1.78187e-10
5.00126e-06
-2.5694e-10
5.00151e-06
-2.56216e-10
5.00195e-06
-4.31751e-10
5.00236e-06
-4.14107e-10
-8.91551e-10
5.00002e-06
-1.18161e-11
5.00004e-06
-1.90155e-11
5.00005e-06
-2.92387e-11
5.00007e-06
-4.17101e-11
5.0001e-06
-5.44366e-11
5.00014e-06
-6.94208e-11
5.00018e-06
-8.42243e-11
5.00023e-06
-1.04596e-10
5.00029e-06
-1.23689e-10
5.00037e-06
-1.53124e-10
5.00045e-06
-1.76983e-10
5.00056e-06
-2.22122e-10
5.00069e-06
-2.50456e-10
5.00084e-06
-3.24287e-10
5.00102e-06
-3.54039e-10
5.00125e-06
-4.86213e-10
5.0015e-06
-5.09306e-10
5.00184e-06
-7.67965e-10
5.00218e-06
-7.59908e-10
-1.26194e-09
4.99999e-06
-4.63333e-12
4.99999e-06
-2.04149e-11
5e-06
-3.76806e-11
5.00002e-06
-5.66947e-11
5.00004e-06
-7.64178e-11
5.00007e-06
-9.92929e-11
5.00011e-06
-1.22358e-10
5.00016e-06
-1.52398e-10
5.00021e-06
-1.82575e-10
5.00029e-06
-2.23839e-10
5.00037e-06
-2.62435e-10
5.00047e-06
-3.23449e-10
5.00059e-06
-3.72049e-10
5.00074e-06
-4.67567e-10
5.00091e-06
-5.25774e-10
5.00111e-06
-6.86847e-10
5.00135e-06
-7.4803e-10
5.00162e-06
-1.04126e-09
5.00194e-06
-1.08323e-09
-1.68947e-09
5.00001e-06
-1.26127e-11
5.00002e-06
-3.33836e-11
5.00004e-06
-5.44452e-11
5.00006e-06
-7.77313e-11
5.00008e-06
-1.01868e-10
5.00012e-06
-1.30532e-10
5.00015e-06
-1.60244e-10
5.0002e-06
-1.98157e-10
5.00025e-06
-2.36308e-10
5.00032e-06
-2.88843e-10
5.00039e-06
-3.38538e-10
5.00048e-06
-4.15397e-10
5.00059e-06
-4.7834e-10
5.00072e-06
-5.96365e-10
5.00087e-06
-6.72761e-10
5.00105e-06
-8.65159e-10
5.00124e-06
-9.47047e-10
5.00148e-06
-1.28014e-09
5.00173e-06
-1.33151e-09
-1.89795e-09
5e-06
-1.16565e-11
5e-06
-3.65176e-11
5.00001e-06
-6.21483e-11
5.00002e-06
-9.02264e-11
5.00004e-06
-1.20075e-10
5.00006e-06
-1.54451e-10
5.0001e-06
-1.91445e-10
5.00013e-06
-2.3652e-10
5.00018e-06
-2.8351e-10
5.00024e-06
-3.45582e-10
5.00031e-06
-4.06825e-10
5.00039e-06
-4.95555e-10
5.00048e-06
-5.74004e-10
5.00059e-06
-7.07105e-10
5.00072e-06
-8.03443e-10
5.00087e-06
-1.01266e-09
5.00104e-06
-1.11667e-09
5.00122e-06
-1.46178e-09
5.00142e-06
-1.53295e-09
-2.16276e-09
5e-06
-1.39559e-11
5.00001e-06
-4.323e-11
5.00002e-06
-7.30204e-11
5.00003e-06
-1.05017e-10
5.00005e-06
-1.39053e-10
5.00008e-06
-1.7796e-10
5.00011e-06
-2.19945e-10
5.00014e-06
-2.70849e-10
5.00018e-06
-3.2456e-10
5.00023e-06
-3.946e-10
5.00029e-06
-4.64137e-10
5.00036e-06
-5.6365e-10
5.00043e-06
-6.52882e-10
5.00053e-06
-7.99886e-10
5.00063e-06
-9.08668e-10
5.00075e-06
-1.13456e-09
5.00089e-06
-1.25132e-09
5.00104e-06
-1.6161e-09
5.00121e-06
-1.69738e-09
-2.29343e-09
5e-06
-1.57556e-11
5.00001e-06
-4.76772e-11
5.00001e-06
-8.03019e-11
5.00002e-06
-1.15079e-10
5.00004e-06
-1.52263e-10
5.00005e-06
-1.95086e-10
5.00008e-06
-2.41322e-10
5.0001e-06
-2.97132e-10
5.00013e-06
-3.56523e-10
5.00017e-06
-4.32643e-10
5.00022e-06
-5.09547e-10
5.00027e-06
-6.1705e-10
5.00033e-06
-7.15603e-10
5.00041e-06
-8.72047e-10
5.00049e-06
-9.91838e-10
5.00058e-06
-1.22786e-09
5.00069e-06
-1.35572e-09
5.0008e-06
-1.72672e-09
5.00091e-06
-1.81225e-09
-2.44199e-09
5e-06
-1.67624e-11
5e-06
-5.07192e-11
5.00001e-06
-8.53017e-11
5.00002e-06
-1.22667e-10
5.00003e-06
-1.62446e-10
5.00004e-06
-2.08226e-10
5.00006e-06
-2.57584e-10
5.00008e-06
-3.17082e-10
5.0001e-06
-3.80371e-10
5.00013e-06
-4.6106e-10
5.00016e-06
-5.43095e-10
5.0002e-06
-6.56372e-10
5.00025e-06
-7.61038e-10
5.0003e-06
-9.24492e-10
5.00036e-06
-1.0511e-09
5.00042e-06
-1.29459e-09
5.0005e-06
-1.42876e-09
5.00058e-06
-1.80744e-09
5.00067e-06
-1.90048e-09
-2.51604e-09
5e-06
-1.73018e-11
5e-06
-5.25552e-11
5.00001e-06
-8.84725e-11
5.00001e-06
-1.274e-10
5.00002e-06
-1.68844e-10
5.00002e-06
-2.16307e-10
5.00003e-06
-2.67503e-10
5.00005e-06
-3.29125e-10
5.00006e-06
-3.94734e-10
5.00008e-06
-4.78173e-10
5.0001e-06
-5.63253e-10
5.00012e-06
-6.79863e-10
5.00015e-06
-7.88247e-10
5.00018e-06
-9.55768e-10
5.00022e-06
-1.08654e-09
5.00026e-06
-1.33427e-09
5.0003e-06
-1.47251e-09
5.00035e-06
-1.85457e-09
5.00039e-06
-1.94785e-09
-2.57201e-09
5e-06
-1.75215e-11
5e-06
-5.31576e-11
5e-06
-8.95713e-11
5e-06
-1.28973e-10
5.00001e-06
-1.70961e-10
5.00001e-06
-2.18941e-10
5.00001e-06
-2.70791e-10
5.00002e-06
-3.33081e-10
5.00002e-06
-3.99525e-10
5.00003e-06
-4.83862e-10
5.00003e-06
-5.69935e-10
5.00004e-06
-6.8768e-10
5.00005e-06
-7.97299e-10
5.00006e-06
-9.66069e-10
5.00007e-06
-1.09832e-09
5.00009e-06
-1.34743e-09
5.0001e-06
-1.48705e-09
5.00012e-06
-1.86989e-09
5.00013e-06
-1.96505e-09
-2.58829e-09
5e-06
-1.737e-11
5e-06
-5.25154e-11
5e-06
-8.84911e-11
5e-06
-1.27327e-10
4.99999e-06
-1.6878e-10
4.99999e-06
-2.16168e-10
4.99999e-06
-2.67471e-10
4.99998e-06
-3.29037e-10
4.99998e-06
-3.94748e-10
4.99997e-06
-4.78175e-10
4.99997e-06
-5.6317e-10
4.99996e-06
-6.79826e-10
4.99995e-06
-7.88127e-10
4.99994e-06
-9.55496e-10
4.99993e-06
-1.08634e-09
4.99991e-06
-1.33421e-09
4.9999e-06
-1.47252e-09
4.99988e-06
-1.85456e-09
4.99987e-06
-1.94789e-09
-2.57193e-09
5e-06
-1.67697e-11
5e-06
-5.07018e-11
4.99999e-06
-8.53519e-11
4.99999e-06
-1.22585e-10
4.99998e-06
-1.62433e-10
4.99998e-06
-2.08096e-10
4.99997e-06
-2.57591e-10
4.99995e-06
-3.17055e-10
4.99994e-06
-3.80397e-10
4.99992e-06
-4.61173e-10
4.9999e-06
-5.43111e-10
4.99988e-06
-6.5632e-10
4.99985e-06
-7.60905e-10
4.99982e-06
-9.24234e-10
4.99978e-06
-1.05089e-09
4.99974e-06
-1.29445e-09
4.9997e-06
-1.42871e-09
4.99965e-06
-1.80738e-09
4.99961e-06
-1.90048e-09
-2.51591e-09
5e-06
-1.56823e-11
5e-06
-4.77054e-11
4.99999e-06
-8.02821e-11
4.99998e-06
-1.15117e-10
4.99997e-06
-1.52306e-10
4.99996e-06
-1.95086e-10
4.99994e-06
-2.41324e-10
4.99992e-06
-2.97243e-10
4.9999e-06
-3.565e-10
4.99987e-06
-4.32762e-10
4.99984e-06
-5.09778e-10
4.9998e-06
-6.17142e-10
4.99975e-06
-7.15592e-10
4.9997e-06
-8.71952e-10
4.99964e-06
-9.91727e-10
4.99958e-06
-1.22769e-09
4.9995e-06
-1.35563e-09
4.99942e-06
-1.72657e-09
4.99933e-06
-1.81215e-09
-2.44166e-09
5e-06
-1.38944e-11
4.99999e-06
-4.32291e-11
4.99999e-06
-7.29693e-11
4.99998e-06
-1.05134e-10
4.99996e-06
-1.3896e-10
4.99995e-06
-1.78118e-10
4.99992e-06
-2.19856e-10
4.9999e-06
-2.71017e-10
4.99987e-06
-3.24525e-10
4.99983e-06
-3.94443e-10
4.99978e-06
-4.64245e-10
4.99973e-06
-5.63841e-10
4.99967e-06
-6.5306e-10
4.99959e-06
-7.99966e-10
4.99951e-06
-9.08672e-10
4.99942e-06
-1.13442e-09
4.99931e-06
-1.25118e-09
4.9992e-06
-1.61581e-09
4.99909e-06
-1.69713e-09
-2.29301e-09
5e-06
-1.16783e-11
4.99999e-06
-3.651e-11
4.99998e-06
-6.2115e-11
4.99997e-06
-9.01936e-11
4.99995e-06
-1.20043e-10
4.99992e-06
-1.54718e-10
4.99989e-06
-1.91332e-10
4.99986e-06
-2.36463e-10
4.99982e-06
-2.83653e-10
4.99977e-06
-3.45356e-10
4.99971e-06
-4.06618e-10
4.99964e-06
-4.9557e-10
4.99957e-06
-5.74206e-10
4.99947e-06
-7.07283e-10
4.99937e-06
-8.03571e-10
4.99925e-06
-1.01258e-09
4.99911e-06
-1.11657e-09
4.99896e-06
-1.46145e-09
4.99879e-06
-1.5327e-09
-2.16228e-09
5e-06
-1.27012e-11
5e-06
-3.33511e-11
4.99999e-06
-5.43968e-11
4.99998e-06
-7.76074e-11
4.99996e-06
-1.02098e-10
4.99994e-06
-1.30494e-10
4.9999e-06
-1.6032e-10
4.99987e-06
-1.97661e-10
4.99982e-06
-2.36283e-10
4.99976e-06
-2.88773e-10
4.99969e-06
-3.38215e-10
4.99961e-06
-4.15132e-10
4.99952e-06
-4.78322e-10
4.99941e-06
-5.9643e-10
4.99928e-06
-6.72886e-10
4.99913e-06
-8.65093e-10
4.99896e-06
-9.46972e-10
4.99878e-06
-1.27982e-09
4.99858e-06
-1.33126e-09
-1.8974e-09
4.99999e-06
-4.70645e-12
4.99998e-06
-2.03829e-11
4.99996e-06
-3.76739e-11
4.99994e-06
-5.67268e-11
4.99992e-06
-7.66693e-11
4.99989e-06
-9.90661e-11
4.99985e-06
-1.23278e-10
4.9998e-06
-1.52587e-10
4.99975e-06
-1.82479e-10
4.99968e-06
-2.23907e-10
4.99961e-06
-2.62349e-10
4.99952e-06
-3.23209e-10
4.99941e-06
-3.71904e-10
4.99928e-06
-4.67511e-10
4.99913e-06
-5.25871e-10
4.99896e-06
-6.86834e-10
4.99876e-06
-7.48072e-10
4.99852e-06
-1.04107e-09
4.99827e-06
-1.08314e-09
-1.68907e-09
5.00001e-06
-1.17551e-11
5.00001e-06
-1.90263e-11
5e-06
-2.93929e-11
4.99998e-06
-4.18984e-11
4.99996e-06
-5.43398e-11
4.99993e-06
-6.89104e-11
4.99989e-06
-8.49649e-11
4.99984e-06
-1.04682e-10
4.99979e-06
-1.23729e-10
4.99971e-06
-1.53305e-10
4.99963e-06
-1.77193e-10
4.99953e-06
-2.22067e-10
4.99941e-06
-2.5027e-10
4.99926e-06
-3.24027e-10
4.99909e-06
-3.53965e-10
4.99889e-06
-4.86083e-10
4.99865e-06
-5.09348e-10
4.99838e-06
-7.67743e-10
4.99805e-06
-7.59825e-10
-1.26148e-09
4.99998e-06
1.0054e-11
4.99996e-06
-4.4074e-12
4.99995e-06
-1.30467e-11
4.99992e-06
-1.95399e-11
4.9999e-06
-2.63263e-11
4.99986e-06
-3.174e-11
4.99982e-06
-4.32366e-11
4.99977e-06
-4.45097e-11
4.99971e-06
-6.25008e-11
4.99963e-06
-7.83307e-11
4.99955e-06
-9.03621e-11
4.99944e-06
-1.1414e-10
4.99932e-06
-1.2695e-10
4.99916e-06
-1.67818e-10
4.99898e-06
-1.78137e-10
4.99875e-06
-2.56945e-10
4.9985e-06
-2.56342e-10
4.99817e-06
-4.31791e-10
4.99782e-06
-4.14198e-10
-8.91563e-10
5.00001e-06
5.00001e-06
4.99999e-06
4.99997e-06
4.99995e-06
4.99991e-06
4.99987e-06
4.99982e-06
4.99975e-06
4.99968e-06
4.99959e-06
4.99947e-06
4.99934e-06
4.99918e-06
4.999e-06
4.99874e-06
4.99848e-06
4.99805e-06
4.99764e-06
)
;

boundaryField
{
    sides
    {
        type            calculated;
        value           uniform 0;
    }
    inlet
    {
        type            calculated;
        value           nonuniform List<scalar> 
20
(
-5e-06
-5e-06
-5e-06
-5e-06
-5e-06
-5e-06
-5e-06
-5e-06
-5e-06
-5e-06
-5e-06
-5e-06
-5e-06
-5e-06
-5e-06
-5e-06
-5e-06
-5e-06
-5e-06
-5e-06
)
;
    }
    outlet
    {
        type            calculated;
        value           nonuniform List<scalar> 
20
(
5.00325e-06
5.00255e-06
5.00237e-06
5.00194e-06
5.00169e-06
5.00134e-06
5.00106e-06
5.00074e-06
5.00045e-06
5.00015e-06
4.99985e-06
4.99955e-06
4.99926e-06
4.99894e-06
4.99866e-06
4.99831e-06
4.99806e-06
4.99763e-06
4.99745e-06
4.99675e-06
)
;
    }
    frontAndBack
    {
        type            empty;
        value           nonuniform 0();
    }
}


// ************************************************************************* //
