/*--------------------------------*- C++ -*----------------------------------*\
  =========                 |
  \\      /  F ield         | OpenFOAM: The Open Source CFD Toolbox
   \\    /   O peration     | Website:  https://openfoam.org
    \\  /    A nd           | Version:  7
     \\/     M anipulation  |
\*---------------------------------------------------------------------------*/
FoamFile
{
    version     2.0;
    format      ascii;
    class       volVectorField;
    location    "97";
    object      U;
}
// * * * * * * * * * * * * * * * * * * * * * * * * * * * * * * * * * * * * * //

dimensions      [0 1 -1 0 0 0 0];

internalField   nonuniform List<vector> 
400
(
(0.0999931 -8.7428e-07 0)
(0.099993 -2.37561e-06 0)
(0.0999931 -3.59828e-06 0)
(0.0999934 -4.67417e-06 0)
(0.0999939 -5.69807e-06 0)
(0.0999947 -6.74357e-06 0)
(0.0999955 -7.81695e-06 0)
(0.0999966 -8.92835e-06 0)
(0.0999978 -9.99058e-06 0)
(0.0999996 -1.11874e-05 0)
(0.100001 -1.2261e-05 0)
(0.100004 -1.36143e-05 0)
(0.100006 -1.46535e-05 0)
(0.10001 -1.63366e-05 0)
(0.100013 -1.72188e-05 0)
(0.10002 -1.96312e-05 0)
(0.100022 -2.00801e-05 0)
(0.100035 -2.43031e-05 0)
(0.100036 -2.39158e-05 0)
(0.10006 -3.31829e-05 0)
(0.0999943 3.95864e-07 0)
(0.0999947 1.2115e-06 0)
(0.0999952 2.02589e-06 0)
(0.0999958 2.79283e-06 0)
(0.0999963 3.50691e-06 0)
(0.099997 4.1649e-06 0)
(0.0999978 4.75932e-06 0)
(0.0999988 5.29928e-06 0)
(0.1 5.842e-06 0)
(0.100002 6.23265e-06 0)
(0.100003 6.69994e-06 0)
(0.100006 6.85865e-06 0)
(0.100008 7.26554e-06 0)
(0.100012 6.98256e-06 0)
(0.100014 7.39875e-06 0)
(0.10002 6.16539e-06 0)
(0.100024 6.71565e-06 0)
(0.100033 3.1767e-06 0)
(0.100036 3.98651e-06 0)
(0.10005 -5.45741e-06 0)
(0.0999948 -3.9787e-07 0)
(0.0999947 -1.30316e-06 0)
(0.0999947 -2.30783e-06 0)
(0.0999949 -3.36735e-06 0)
(0.0999953 -4.42144e-06 0)
(0.099996 -5.49923e-06 0)
(0.0999967 -6.56346e-06 0)
(0.0999977 -7.7286e-06 0)
(0.0999988 -8.88626e-06 0)
(0.1 -1.02523e-05 0)
(0.100002 -1.15248e-05 0)
(0.100004 -1.32413e-05 0)
(0.100006 -1.46527e-05 0)
(0.10001 -1.70051e-05 0)
(0.100013 -1.85153e-05 0)
(0.100018 -2.21152e-05 0)
(0.100021 -2.3569e-05 0)
(0.100029 -2.97584e-05 0)
(0.100032 -3.06201e-05 0)
(0.100046 -4.22143e-05 0)
(0.0999956 -1.48146e-08 0)
(0.0999958 -6.5648e-09 0)
(0.0999962 5.75611e-08 0)
(0.0999966 1.30271e-07 0)
(0.0999972 2.00258e-07 0)
(0.0999978 1.88744e-07 0)
(0.0999986 1.55965e-07 0)
(0.0999995 -3.25858e-08 0)
(0.100001 -2.39041e-07 0)
(0.100002 -7.06801e-07 0)
(0.100003 -1.1235e-06 0)
(0.100005 -2.05059e-06 0)
(0.100007 -2.71995e-06 0)
(0.10001 -4.42892e-06 0)
(0.100013 -5.35576e-06 0)
(0.100017 -8.49915e-06 0)
(0.10002 -9.54996e-06 0)
(0.100027 -1.54685e-05 0)
(0.100029 -1.60971e-05 0)
(0.100039 -2.7583e-05 0)
(0.0999962 -2.90101e-07 0)
(0.0999963 -9.25417e-07 0)
(0.0999964 -1.63319e-06 0)
(0.0999966 -2.43908e-06 0)
(0.0999969 -3.30498e-06 0)
(0.0999974 -4.27751e-06 0)
(0.099998 -5.28396e-06 0)
(0.0999988 -6.45399e-06 0)
(0.0999997 -7.64656e-06 0)
(0.100001 -9.12264e-06 0)
(0.100002 -1.05627e-05 0)
(0.100004 -1.25422e-05 0)
(0.100006 -1.42746e-05 0)
(0.100008 -1.70936e-05 0)
(0.100011 -1.91235e-05 0)
(0.100014 -2.3434e-05 0)
(0.100017 -2.55801e-05 0)
(0.100022 -3.26572e-05 0)
(0.100024 -3.41551e-05 0)
(0.100033 -4.64376e-05 0)
(0.099997 -2.57259e-07 0)
(0.099997 -7.56563e-07 0)
(0.0999972 -1.22534e-06 0)
(0.0999975 -1.69945e-06 0)
(0.0999979 -2.17425e-06 0)
(0.0999984 -2.72693e-06 0)
(0.099999 -3.31877e-06 0)
(0.0999997 -4.08349e-06 0)
(0.1 -4.88966e-06 0)
(0.100002 -6.01331e-06 0)
(0.100003 -7.12908e-06 0)
(0.100004 -8.82447e-06 0)
(0.100006 -1.03192e-05 0)
(0.100008 -1.2947e-05 0)
(0.10001 -1.48362e-05 0)
(0.100013 -1.90316e-05 0)
(0.100015 -2.11036e-05 0)
(0.100019 -2.80542e-05 0)
(0.100021 -2.94568e-05 0)
(0.100027 -4.14957e-05 0)
(0.0999976 -2.91135e-07 0)
(0.0999977 -8.90633e-07 0)
(0.0999978 -1.52118e-06 0)
(0.099998 -2.225e-06 0)
(0.0999983 -2.99725e-06 0)
(0.0999986 -3.8942e-06 0)
(0.0999991 -4.87149e-06 0)
(0.0999996 -6.04561e-06 0)
(0.1 -7.28719e-06 0)
(0.100001 -8.86631e-06 0)
(0.100002 -1.04498e-05 0)
(0.100003 -1.26375e-05 0)
(0.100004 -1.46334e-05 0)
(0.100006 -1.77871e-05 0)
(0.100007 -2.01868e-05 0)
(0.10001 -2.49251e-05 0)
(0.100011 -2.74755e-05 0)
(0.100015 -3.49582e-05 0)
(0.100016 -3.67257e-05 0)
(0.100021 -4.92158e-05 0)
(0.0999983 -3.20682e-07 0)
(0.0999984 -9.78474e-07 0)
(0.0999985 -1.65995e-06 0)
(0.0999986 -2.39826e-06 0)
(0.0999988 -3.18262e-06 0)
(0.099999 -4.06942e-06 0)
(0.0999994 -5.01617e-06 0)
(0.0999998 -6.14798e-06 0)
(0.1 -7.34593e-06 0)
(0.100001 -8.88047e-06 0)
(0.100002 -1.04314e-05 0)
(0.100002 -1.25983e-05 0)
(0.100003 -1.45922e-05 0)
(0.100004 -1.77495e-05 0)
(0.100005 -2.01786e-05 0)
(0.100007 -2.49321e-05 0)
(0.100008 -2.75294e-05 0)
(0.100011 -3.49846e-05 0)
(0.100012 -3.6764e-05 0)
(0.100015 -4.90783e-05 0)
(0.099999 -3.37304e-07 0)
(0.099999 -1.02813e-06 0)
(0.0999991 -1.73811e-06 0)
(0.0999992 -2.50526e-06 0)
(0.0999993 -3.31899e-06 0)
(0.0999994 -4.24806e-06 0)
(0.0999996 -5.24986e-06 0)
(0.0999999 -6.45745e-06 0)
(0.1 -7.74796e-06 0)
(0.100001 -9.3939e-06 0)
(0.100001 -1.10739e-05 0)
(0.100001 -1.33895e-05 0)
(0.100002 -1.55386e-05 0)
(0.100003 -1.88746e-05 0)
(0.100003 -2.14756e-05 0)
(0.100004 -2.6427e-05 0)
(0.100005 -2.91819e-05 0)
(0.100006 -3.68369e-05 0)
(0.100007 -3.87192e-05 0)
(0.100009 -5.12429e-05 0)
(0.0999997 -3.4504e-07 0)
(0.0999997 -1.05182e-06 0)
(0.0999997 -1.77722e-06 0)
(0.0999997 -2.56217e-06 0)
(0.0999998 -3.39771e-06 0)
(0.0999998 -4.3544e-06 0)
(0.0999999 -5.3893e-06 0)
(0.1 -6.63415e-06 0)
(0.1 -7.96354e-06 0)
(0.1 -9.64906e-06 0)
(0.1 -1.13699e-05 0)
(0.1 -1.37231e-05 0)
(0.100001 -1.59125e-05 0)
(0.100001 -1.92842e-05 0)
(0.100001 -2.19274e-05 0)
(0.100001 -2.69069e-05 0)
(0.100002 -2.97018e-05 0)
(0.100002 -3.73631e-05 0)
(0.100002 -3.92751e-05 0)
(0.100003 -5.17411e-05 0)
(0.1 -3.45789e-07 0)
(0.1 -1.05144e-06 0)
(0.1 -1.77761e-06 0)
(0.1 -2.56141e-06 0)
(0.1 -3.39746e-06 0)
(0.1 -4.35317e-06 0)
(0.1 -5.38886e-06 0)
(0.1 -6.6337e-06 0)
(0.0999999 -7.96318e-06 0)
(0.0999998 -9.65018e-06 0)
(0.0999997 -1.13702e-05 0)
(0.0999995 -1.37228e-05 0)
(0.0999993 -1.59122e-05 0)
(0.0999991 -1.92829e-05 0)
(0.0999989 -2.19252e-05 0)
(0.0999986 -2.69052e-05 0)
(0.0999983 -2.97009e-05 0)
(0.0999979 -3.73628e-05 0)
(0.0999977 -3.92755e-05 0)
(0.0999971 -5.17412e-05 0)
(0.100001 -3.38059e-07 0)
(0.100001 -1.02814e-06 0)
(0.100001 -1.73881e-06 0)
(0.100001 -2.5042e-06 0)
(0.100001 -3.31845e-06 0)
(0.100001 -4.24601e-06 0)
(0.1 -5.24888e-06 0)
(0.1 -6.45718e-06 0)
(0.0999998 -7.74713e-06 0)
(0.0999995 -9.39632e-06 0)
(0.0999991 -1.10761e-05 0)
(0.0999985 -1.33896e-05 0)
(0.099998 -1.55377e-05 0)
(0.0999973 -1.88713e-05 0)
(0.0999967 -2.14713e-05 0)
(0.0999957 -2.64222e-05 0)
(0.099995 -2.91785e-05 0)
(0.0999936 -3.68337e-05 0)
(0.0999932 -3.87179e-05 0)
(0.0999912 -5.12384e-05 0)
(0.100002 -3.20112e-07 0)
(0.100002 -9.79205e-07 0)
(0.100002 -1.65987e-06 0)
(0.100001 -2.39895e-06 0)
(0.100001 -3.18184e-06 0)
(0.100001 -4.06944e-06 0)
(0.100001 -5.01514e-06 0)
(0.1 -6.14924e-06 0)
(0.0999997 -7.34556e-06 0)
(0.0999991 -8.88163e-06 0)
(0.0999985 -1.04357e-05 0)
(0.0999976 -1.26018e-05 0)
(0.0999968 -1.45933e-05 0)
(0.0999956 -1.77489e-05 0)
(0.0999945 -2.01779e-05 0)
(0.0999929 -2.49304e-05 0)
(0.0999917 -2.75282e-05 0)
(0.0999894 -3.49841e-05 0)
(0.0999885 -3.67659e-05 0)
(0.0999853 -4.90784e-05 0)
(0.100002 -2.9015e-07 0)
(0.100002 -8.90582e-07 0)
(0.100002 -1.52047e-06 0)
(0.100002 -2.22628e-06 0)
(0.100002 -2.99632e-06 0)
(0.100001 -3.89663e-06 0)
(0.100001 -4.87076e-06 0)
(0.1 -6.04657e-06 0)
(0.0999998 -7.2879e-06 0)
(0.099999 -8.86316e-06 0)
(0.0999981 -1.045e-05 0)
(0.0999969 -1.26399e-05 0)
(0.0999958 -1.46349e-05 0)
(0.0999941 -1.77865e-05 0)
(0.0999926 -2.01859e-05 0)
(0.0999903 -2.49208e-05 0)
(0.0999887 -2.74709e-05 0)
(0.0999853 -3.49498e-05 0)
(0.0999843 -3.67185e-05 0)
(0.0999793 -4.9202e-05 0)
(0.100003 -2.57261e-07 0)
(0.100003 -7.55794e-07 0)
(0.100003 -1.22496e-06 0)
(0.100002 -1.69927e-06 0)
(0.100002 -2.17582e-06 0)
(0.100002 -2.72967e-06 0)
(0.100001 -3.3209e-06 0)
(0.1 -4.08251e-06 0)
(0.0999995 -4.89286e-06 0)
(0.0999985 -6.012e-06 0)
(0.0999973 -7.12652e-06 0)
(0.0999959 -8.82553e-06 0)
(0.0999944 -1.03234e-05 0)
(0.0999923 -1.29517e-05 0)
(0.0999904 -1.4841e-05 0)
(0.0999874 -1.90346e-05 0)
(0.0999853 -2.11061e-05 0)
(0.0999811 -2.80538e-05 0)
(0.0999793 -2.94561e-05 0)
(0.0999733 -4.14935e-05 0)
(0.100004 -2.91437e-07 0)
(0.100004 -9.24247e-07 0)
(0.100004 -1.6325e-06 0)
(0.100003 -2.43746e-06 0)
(0.100003 -3.30833e-06 0)
(0.100003 -4.2747e-06 0)
(0.100002 -5.28821e-06 0)
(0.100001 -6.44993e-06 0)
(0.1 -7.64536e-06 0)
(0.0999991 -9.12227e-06 0)
(0.0999978 -1.05577e-05 0)
(0.099996 -1.25364e-05 0)
(0.0999942 -1.42732e-05 0)
(0.0999916 -1.70935e-05 0)
(0.0999895 -1.9125e-05 0)
(0.0999856 -2.34326e-05 0)
(0.0999833 -2.55792e-05 0)
(0.0999776 -3.2649e-05 0)
(0.099976 -3.41476e-05 0)
(0.0999673 -4.64211e-05 0)
(0.100004 -1.6784e-08 0)
(0.100004 -5.28332e-09 0)
(0.100004 5.8417e-08 0)
(0.100003 1.28814e-07 0)
(0.100003 1.94411e-07 0)
(0.100002 1.94101e-07 0)
(0.100001 1.46158e-07 0)
(0.100001 -3.5391e-08 0)
(0.0999994 -2.38082e-07 0)
(0.0999981 -7.08014e-07 0)
(0.0999966 -1.12119e-06 0)
(0.0999946 -2.04538e-06 0)
(0.0999926 -2.71705e-06 0)
(0.0999897 -4.42812e-06 0)
(0.0999871 -5.35725e-06 0)
(0.0999828 -8.49967e-06 0)
(0.0999798 -9.55106e-06 0)
(0.0999734 -1.54659e-05 0)
(0.0999707 -1.60943e-05 0)
(0.0999614 -2.75768e-05 0)
(0.100005 -3.97396e-07 0)
(0.100005 -1.30439e-06 0)
(0.100005 -2.3081e-06 0)
(0.100005 -3.36967e-06 0)
(0.100005 -4.42353e-06 0)
(0.100004 -5.49987e-06 0)
(0.100003 -6.57402e-06 0)
(0.100002 -7.73542e-06 0)
(0.100001 -8.88498e-06 0)
(0.0999996 -1.02527e-05 0)
(0.099998 -1.15288e-05 0)
(0.0999957 -1.3243e-05 0)
(0.0999936 -1.46531e-05 0)
(0.0999901 -1.70035e-05 0)
(0.0999875 -1.85162e-05 0)
(0.0999821 -2.21145e-05 0)
(0.0999791 -2.35721e-05 0)
(0.0999706 -2.97567e-05 0)
(0.0999684 -3.06218e-05 0)
(0.0999544 -4.22072e-05 0)
(0.100006 3.99553e-07 0)
(0.100005 1.20783e-06 0)
(0.100005 2.02042e-06 0)
(0.100004 2.79408e-06 0)
(0.100004 3.52258e-06 0)
(0.100003 4.15602e-06 0)
(0.100002 4.79269e-06 0)
(0.100001 5.30154e-06 0)
(0.1 5.83908e-06 0)
(0.0999984 6.22828e-06 0)
(0.0999967 6.69008e-06 0)
(0.0999943 6.85357e-06 0)
(0.0999921 7.26769e-06 0)
(0.0999885 6.99016e-06 0)
(0.0999855 7.40502e-06 0)
(0.0999799 6.17213e-06 0)
(0.0999764 6.71874e-06 0)
(0.0999674 3.18346e-06 0)
(0.0999642 3.99099e-06 0)
(0.09995 -5.44536e-06 0)
(0.100007 -8.72172e-07 0)
(0.100007 -2.37782e-06 0)
(0.100007 -3.60393e-06 0)
(0.100007 -4.67431e-06 0)
(0.100006 -5.68649e-06 0)
(0.100005 -6.75253e-06 0)
(0.100005 -7.78368e-06 0)
(0.100003 -8.92833e-06 0)
(0.100002 -1.00014e-05 0)
(0.1 -1.11984e-05 0)
(0.0999988 -1.2274e-05 0)
(0.0999961 -1.36238e-05 0)
(0.0999941 -1.46589e-05 0)
(0.0999898 -1.63399e-05 0)
(0.0999874 -1.72234e-05 0)
(0.0999803 -1.96373e-05 0)
(0.0999779 -2.00881e-05 0)
(0.0999653 -2.43122e-05 0)
(0.0999638 -2.3925e-05 0)
(0.0999402 -3.31965e-05 0)
)
;

boundaryField
{
    sides
    {
        type            calculated;
        value           nonuniform List<vector> 
40
(
(0.100007 0 0)
(0.100007 0 0)
(0.100007 0 0)
(0.100007 0 0)
(0.100006 0 0)
(0.100005 0 0)
(0.100005 0 0)
(0.100003 0 0)
(0.100002 0 0)
(0.1 0 0)
(0.0999988 0 0)
(0.0999961 0 0)
(0.0999941 0 0)
(0.0999898 0 0)
(0.0999874 0 0)
(0.0999803 0 0)
(0.0999779 0 0)
(0.0999653 0 0)
(0.0999638 0 0)
(0.0999402 0 0)
(0.0999931 0 0)
(0.099993 0 0)
(0.0999931 0 0)
(0.0999934 0 0)
(0.0999939 0 0)
(0.0999947 0 0)
(0.0999955 0 0)
(0.0999966 0 0)
(0.0999978 0 0)
(0.0999996 0 0)
(0.100001 0 0)
(0.100004 0 0)
(0.100006 0 0)
(0.10001 0 0)
(0.100013 0 0)
(0.10002 0 0)
(0.100022 0 0)
(0.100035 0 0)
(0.100036 0 0)
(0.10006 0 0)
)
;
    }
    inlet
    {
        type            calculated;
        value           nonuniform List<vector> 
20
(
(0.0999931 0 0)
(0.0999943 0 0)
(0.0999948 0 0)
(0.0999956 0 0)
(0.0999963 0 0)
(0.0999969 0 0)
(0.0999976 0 0)
(0.0999983 0 0)
(0.099999 0 0)
(0.0999997 0 0)
(0.1 0 0)
(0.100001 0 0)
(0.100002 0 0)
(0.100002 0 0)
(0.100003 0 0)
(0.100004 0 0)
(0.100004 0 0)
(0.100005 0 0)
(0.100006 0 0)
(0.100007 0 0)
)
;
    }
    outlet
    {
        type            calculated;
        value           nonuniform List<vector> 
20
(
(0.100061 -3.31832e-05 0)
(0.10005 -5.45743e-06 0)
(0.100046 -4.22145e-05 0)
(0.100039 -2.75831e-05 0)
(0.100033 -4.64377e-05 0)
(0.100027 -4.14958e-05 0)
(0.100021 -4.92159e-05 0)
(0.100015 -4.90784e-05 0)
(0.100009 -5.12429e-05 0)
(0.100003 -5.17411e-05 0)
(0.099997 -5.17411e-05 0)
(0.0999911 -5.12383e-05 0)
(0.0999852 -4.90783e-05 0)
(0.0999792 -4.9202e-05 0)
(0.0999731 -4.14934e-05 0)
(0.099967 -4.64209e-05 0)
(0.0999611 -2.75767e-05 0)
(0.0999539 -4.2207e-05 0)
(0.0999495 -5.44533e-06 0)
(0.0999394 -3.31962e-05 0)
)
;
    }
    frontAndBack
    {
        type            empty;
    }
}


// ************************************************************************* //
