/*--------------------------------*- C++ -*----------------------------------*\
  =========                 |
  \\      /  F ield         | OpenFOAM: The Open Source CFD Toolbox
   \\    /   O peration     | Website:  https://openfoam.org
    \\  /    A nd           | Version:  7
     \\/     M anipulation  |
\*---------------------------------------------------------------------------*/
FoamFile
{
    version     2.0;
    format      ascii;
    class       volVectorField;
    location    "53";
    object      ddtCorrDdt0(hU);
}
// * * * * * * * * * * * * * * * * * * * * * * * * * * * * * * * * * * * * * //

dimensions      [0 2 -2 0 0 0 0];

internalField   nonuniform List<vector> 
400
(
(-2.80238e-10 -1.90123e-10 0)
(-4.17895e-10 -1.11105e-10 0)
(2.92426e-10 -4.47842e-11 0)
(6.21454e-10 -2.98999e-10 0)
(7.7515e-10 -8.60478e-11 0)
(1.25501e-09 -1.20771e-10 0)
(1.48737e-10 -6.42749e-11 0)
(1.38608e-09 -1.3828e-09 0)
(-1.73462e-09 1.08607e-09 0)
(-3.68548e-10 6.72582e-10 0)
(-8.90945e-10 3.17364e-10 0)
(-5.45872e-10 6.16244e-11 0)
(-2.14031e-10 -3.27517e-10 0)
(-2.61447e-10 -5.9204e-10 0)
(-3.78691e-10 -6.08626e-10 0)
(-6.81003e-11 -3.98091e-10 0)
(2.08602e-10 3.70001e-11 0)
(2.62513e-10 2.58579e-10 0)
(1.6091e-10 7.40486e-10 0)
(-6.55817e-10 5.8815e-10 0)
(-5.68975e-11 -1.37755e-10 0)
(-2.27732e-10 2.50123e-10 0)
(7.5085e-11 2.30684e-10 0)
(5.53749e-10 -3.48021e-10 0)
(1.36524e-10 -5.34552e-10 0)
(-7.31578e-10 -2.09602e-10 0)
(9.54475e-10 -1.08003e-09 0)
(-3.44506e-09 -1.45273e-09 0)
(1.09634e-09 6.49499e-10 0)
(-7.87979e-10 1.99502e-10 0)
(-1.04048e-09 2.16623e-10 0)
(-8.21738e-10 2.78006e-10 0)
(-7.14707e-10 1.05134e-11 0)
(-6.01053e-10 -3.1281e-10 0)
(-4.20258e-10 -4.1639e-10 0)
(1.23396e-11 -3.90628e-10 0)
(2.93657e-10 -2.03602e-10 0)
(3.04313e-10 -1.1105e-10 0)
(2.14474e-10 1.76008e-10 0)
(-5.30295e-10 3.65015e-10 0)
(4.02572e-11 -7.03275e-11 0)
(1.16727e-10 -2.94865e-10 0)
(5.37988e-11 -4.85318e-10 0)
(2.42826e-10 -2.72023e-10 0)
(1.51835e-10 -1.8032e-10 0)
(4.3083e-10 8.35447e-10 0)
(-1.11127e-09 4.51054e-10 0)
(1.55683e-09 1.97664e-09 0)
(1.00002e-10 7.73044e-10 0)
(-8.79492e-10 3.07551e-10 0)
(-5.50823e-10 1.18023e-10 0)
(-6.29602e-10 -1.61724e-10 0)
(-8.67682e-10 -6.43695e-10 0)
(-6.6912e-10 -9.96702e-10 0)
(-2.28652e-10 -1.05044e-09 0)
(3.73217e-10 -8.56437e-10 0)
(5.39648e-10 -1.75137e-10 0)
(4.11756e-10 1.81264e-10 0)
(2.34454e-10 1.19324e-09 0)
(-7.00772e-10 1.22996e-09 0)
(-1.25856e-12 -5.91638e-11 0)
(-1.30301e-10 -6.92549e-10 0)
(9.84617e-11 -9.40055e-10 0)
(4.32982e-10 -5.51643e-10 0)
(5.85183e-10 -2.06461e-10 0)
(3.13078e-10 1.8891e-10 0)
(3.4913e-10 1.03646e-09 0)
(5.28827e-10 1.46291e-09 0)
(-7.47688e-10 6.76288e-10 0)
(-8.55658e-10 5.91485e-10 0)
(-6.69871e-10 2.32629e-10 0)
(-8.75889e-10 -3.60195e-10 0)
(-1.0196e-09 -9.50845e-10 0)
(-6.86908e-10 -1.22605e-09 0)
(-1.87756e-10 -1.20945e-09 0)
(2.6917e-10 -1.03795e-09 0)
(3.7315e-10 -2.79495e-10 0)
(2.47143e-10 8.38519e-11 0)
(1.94416e-10 1.41138e-09 0)
(-4.02895e-10 1.61085e-09 0)
(-1.28709e-11 -8.02452e-11 0)
(-8.31973e-11 -5.42915e-10 0)
(1.14434e-10 -7.89505e-10 0)
(1.5671e-10 -7.34424e-10 0)
(2.96128e-10 -2.69225e-10 0)
(1.87622e-11 -1.26242e-10 0)
(2.95774e-10 7.42027e-10 0)
(-2.85874e-11 6.04204e-10 0)
(-5.20335e-10 5.0432e-10 0)
(-2.89719e-10 5.4853e-10 0)
(-4.17623e-10 7.50669e-11 0)
(-7.11542e-10 -5.4911e-10 0)
(-6.6966e-10 -1.03193e-09 0)
(-2.94501e-10 -1.22582e-09 0)
(2.26943e-11 -1.23856e-09 0)
(2.15938e-10 -1.18273e-09 0)
(1.46951e-10 -4.5187e-10 0)
(5.04414e-11 -5.78748e-11 0)
(4.59486e-11 1.43356e-09 0)
(-4.66521e-10 1.76001e-09 0)
(-7.05715e-11 -3.03104e-10 0)
(-1.24686e-10 -9.39766e-10 0)
(2.12942e-10 -1.17888e-09 0)
(4.57209e-10 -1.03066e-09 0)
(5.75624e-10 -2.52011e-10 0)
(3.30708e-10 3.28929e-10 0)
(3.45276e-10 1.11798e-09 0)
(-2.81904e-10 1.1822e-09 0)
(-4.31076e-10 1.23997e-09 0)
(-5.01289e-10 8.86057e-10 0)
(-9.5593e-10 4.33688e-11 0)
(-1.00102e-09 -6.54987e-10 0)
(-6.39153e-10 -1.25608e-09 0)
(-1.38137e-10 -1.61069e-09 0)
(1.84272e-10 -1.76887e-09 0)
(4.18674e-10 -1.69244e-09 0)
(3.94259e-10 -5.76296e-10 0)
(3.50077e-10 1.23547e-10 0)
(2.86619e-10 2.25778e-09 0)
(-4.45879e-10 2.45119e-09 0)
(-7.73194e-11 -3.65217e-10 0)
(-5.72317e-11 -9.43254e-10 0)
(1.32333e-10 -1.25744e-09 0)
(2.88553e-10 -1.25827e-09 0)
(1.79849e-10 -9.01572e-10 0)
(1.05244e-10 -2.1851e-10 0)
(3.90268e-11 3.67892e-10 0)
(-1.27272e-10 6.80428e-10 0)
(1.35366e-11 8.99609e-10 0)
(-2.49874e-10 5.12218e-10 0)
(-4.27922e-10 -2.58738e-11 0)
(-2.96669e-10 -4.55849e-10 0)
(-1.50294e-10 -1.03521e-09 0)
(-9.96655e-11 -1.49652e-09 0)
(-1.86415e-10 -1.76134e-09 0)
(-2.16175e-10 -1.83129e-09 0)
(-1.40704e-10 -7.99915e-10 0)
(-2.22262e-11 -1.25429e-10 0)
(1.43302e-10 2.00694e-09 0)
(-1.52532e-10 2.43916e-09 0)
(-7.01808e-11 -4.45104e-10 0)
(-4.93025e-13 -1.04851e-09 0)
(9.41846e-11 -1.42056e-09 0)
(2.55111e-10 -1.31258e-09 0)
(1.53685e-10 -8.98757e-10 0)
(1.99157e-10 3.00212e-11 0)
(-5.02257e-12 7.03657e-10 0)
(1.54666e-11 1.21331e-09 0)
(-1.27423e-10 1.16414e-09 0)
(-3.6795e-10 6.76806e-10 0)
(-2.68619e-10 4.06407e-11 0)
(-2.50185e-10 -6.55235e-10 0)
(-2.49284e-10 -1.48579e-09 0)
(-1.57124e-10 -2.05182e-09 0)
(-1.80526e-10 -2.23955e-09 0)
(-5.24801e-11 -2.05671e-09 0)
(1.63554e-10 -6.64141e-10 0)
(3.24416e-10 1.31638e-10 0)
(2.82133e-10 2.49012e-09 0)
(-2.53937e-10 2.77797e-09 0)
(-2.29248e-11 -4.82976e-10 0)
(1.51276e-11 -1.15646e-09 0)
(6.51232e-11 -1.4863e-09 0)
(1.24869e-10 -1.46585e-09 0)
(8.97006e-11 -9.54425e-10 0)
(5.43119e-11 -1.44538e-10 0)
(-5.62178e-11 6.07232e-10 0)
(9.83041e-12 1.11434e-09 0)
(-1.08262e-10 1.02942e-09 0)
(-1.05089e-10 7.55989e-10 0)
(-3.65601e-11 8.03527e-11 0)
(-1.18509e-10 -6.92722e-10 0)
(-1.31014e-10 -1.48048e-09 0)
(-9.92036e-11 -2.08678e-09 0)
(-1.80205e-10 -2.31299e-09 0)
(-2.05331e-10 -2.08903e-09 0)
(-8.26885e-11 -6.42835e-10 0)
(3.39089e-11 8.72755e-11 0)
(4.21777e-11 2.38864e-09 0)
(-8.55777e-11 2.8026e-09 0)
(-6.25405e-12 -5.38974e-10 0)
(-2.78333e-11 -1.25649e-09 0)
(1.71866e-11 -1.52739e-09 0)
(-2.00426e-11 -1.54994e-09 0)
(2.12455e-11 -9.93628e-10 0)
(-3.65436e-11 -1.79594e-10 0)
(2.69914e-11 6.88072e-10 0)
(-7.11654e-12 1.18019e-09 0)
(1.52489e-11 1.10154e-09 0)
(1.33278e-12 7.43041e-10 0)
(-1.27722e-10 -8.33598e-11 0)
(-1.12067e-10 -9.07717e-10 0)
(-1.40076e-10 -1.68607e-09 0)
(-1.88498e-10 -2.25642e-09 0)
(-9.90642e-11 -2.41921e-09 0)
(5.84834e-11 -2.08799e-09 0)
(9.72579e-11 -5.20237e-10 0)
(7.41317e-11 2.50308e-10 0)
(7.3134e-11 2.60327e-09 0)
(1.31744e-12 2.91868e-09 0)
(1.62961e-11 -6.26073e-10 0)
(-2.08912e-11 -1.24329e-09 0)
(-1.69654e-11 -1.53654e-09 0)
(-1.05558e-10 -1.44822e-09 0)
(-2.57871e-11 -9.76054e-10 0)
(-5.26438e-11 -1.18537e-10 0)
(5.97114e-11 6.67104e-10 0)
(-2.78934e-11 1.13319e-09 0)
(6.0767e-12 1.09714e-09 0)
(1.03059e-11 6.25513e-10 0)
(-8.7301e-11 -8.95177e-11 0)
(6.5565e-11 -8.26965e-10 0)
(1.13832e-10 -1.65458e-09 0)
(3.15492e-11 -2.17594e-09 0)
(1.23766e-10 -2.30976e-09 0)
(1.48523e-10 -2.0973e-09 0)
(-1.28651e-11 -6.30385e-10 0)
(-2.13573e-10 1.99181e-10 0)
(-2.57118e-10 2.66753e-09 0)
(3.87432e-11 2.97608e-09 0)
(5.75092e-11 -5.82453e-10 0)
(5.9906e-11 -1.19571e-09 0)
(-3.51234e-11 -1.49923e-09 0)
(-1.5305e-10 -1.37334e-09 0)
(-1.25433e-10 -9.08049e-10 0)
(-7.46523e-11 -8.76006e-11 0)
(9.96678e-12 6.2446e-10 0)
(1.00903e-10 9.92701e-10 0)
(6.9302e-11 1.03923e-09 0)
(1.73498e-10 5.7844e-10 0)
(2.04828e-10 -2.96716e-11 0)
(1.54968e-10 -6.38994e-10 0)
(1.14115e-10 -1.43166e-09 0)
(7.31795e-11 -1.94146e-09 0)
(8.34806e-11 -2.1351e-09 0)
(1.03369e-10 -2.105e-09 0)
(9.3446e-11 -8.18711e-10 0)
(3.59358e-11 1.55493e-11 0)
(-3.27135e-11 2.52081e-09 0)
(7.40673e-11 2.91396e-09 0)
(3.49461e-11 -4.04387e-10 0)
(8.93473e-11 -1.11701e-09 0)
(-5.07465e-11 -1.45596e-09 0)
(-1.22045e-10 -1.44866e-09 0)
(-2.32737e-10 -8.1065e-10 0)
(-1.29266e-10 -2.99485e-11 0)
(-1.80191e-10 8.41076e-10 0)
(8.7124e-11 1.14783e-09 0)
(1.36919e-10 1.16364e-09 0)
(2.4026e-10 7.47105e-10 0)
(5.23953e-10 -6.8487e-11 0)
(5.12435e-10 -8.28011e-10 0)
(3.81122e-10 -1.58579e-09 0)
(1.97734e-10 -2.02966e-09 0)
(-9.22502e-12 -2.1592e-09 0)
(-2.01891e-10 -2.01603e-09 0)
(-1.68092e-10 -6.95477e-10 0)
(-1.18826e-10 1.10358e-10 0)
(-1.46502e-10 2.55976e-09 0)
(1.77544e-10 2.84127e-09 0)
(-9.24855e-13 -2.4822e-10 0)
(1.06605e-11 -9.29497e-10 0)
(-1.11041e-10 -1.34601e-09 0)
(-1.17118e-10 -1.39741e-09 0)
(-1.83443e-10 -8.65869e-10 0)
(-3.52182e-11 -3.01545e-10 0)
(-1.10497e-10 4.80605e-10 0)
(-2.95474e-11 8.31192e-10 0)
(1.99186e-10 7.7815e-10 0)
(8.42067e-11 7.10614e-10 0)
(1.98411e-10 1.4272e-10 0)
(3.9064e-10 -5.88188e-10 0)
(4.48496e-10 -1.27907e-09 0)
(3.24034e-10 -1.68573e-09 0)
(1.40579e-10 -1.80854e-09 0)
(2.90689e-11 -1.7323e-09 0)
(7.24967e-11 -6.90909e-10 0)
(1.41243e-10 -1.2223e-10 0)
(-8.39406e-12 1.95386e-09 0)
(7.80946e-11 2.41408e-09 0)
(1.06108e-11 -2.29211e-10 0)
(-4.97217e-11 -8.71854e-10 0)
(-2.36211e-10 -1.22794e-09 0)
(-4.0672e-10 -9.6154e-10 0)
(-4.238e-10 -4.17478e-10 0)
(-3.67068e-10 4.34734e-10 0)
(-1.08833e-10 1.06102e-09 0)
(-1.70177e-10 1.57971e-09 0)
(5.15933e-10 1.19242e-09 0)
(7.83409e-10 8.33012e-10 0)
(5.95472e-10 2.95256e-10 0)
(6.08455e-10 -4.92025e-10 0)
(6.79082e-10 -1.35802e-09 0)
(4.44158e-10 -1.85337e-09 0)
(5.41638e-11 -1.92174e-09 0)
(-4.18811e-10 -1.65846e-09 0)
(-5.33608e-10 -4.62278e-10 0)
(-4.02597e-10 1.43576e-10 0)
(-2.21691e-10 2.14839e-09 0)
(4.32066e-10 2.36945e-09 0)
(2.90394e-11 -2.07275e-10 0)
(-1.01395e-10 -4.56998e-10 0)
(-1.82883e-10 -6.48431e-10 0)
(-2.69611e-10 -5.76363e-10 0)
(-3.68482e-11 -5.13875e-10 0)
(-1.60592e-10 2.50198e-10 0)
(1.87234e-10 2.82935e-10 0)
(-1.88408e-10 8.42973e-10 0)
(-6.32189e-11 8.09756e-10 0)
(6.25241e-10 3.41298e-10 0)
(4.75163e-10 6.67896e-11 0)
(2.25123e-10 -2.7428e-10 0)
(3.31255e-10 -8.47033e-10 0)
(4.13461e-10 -1.27982e-09 0)
(3.09397e-10 -1.38841e-09 0)
(-5.56002e-11 -1.26185e-09 0)
(-2.48341e-10 -4.19545e-10 0)
(-1.92265e-10 -1.83477e-11 0)
(-6.05887e-11 1.3656e-09 0)
(5.24409e-10 1.68817e-09 0)
(1.85045e-10 -3.47689e-10 0)
(2.2656e-10 -5.91706e-10 0)
(-1.83891e-10 -6.34326e-10 0)
(-6.34403e-10 -5.32067e-10 0)
(-4.52329e-10 -3.24224e-10 0)
(-4.74814e-10 4.01108e-10 0)
(-2.1232e-12 -7.70912e-11 0)
(3.44848e-10 9.16025e-10 0)
(5.53496e-11 1.04835e-09 0)
(6.98936e-10 5.37431e-10 0)
(1.08631e-09 9.65271e-11 0)
(7.72969e-10 -1.90438e-10 0)
(5.68005e-10 -6.54117e-10 0)
(4.95034e-10 -1.07591e-09 0)
(3.54859e-10 -1.25328e-09 0)
(-5.86782e-11 -1.13972e-09 0)
(-3.55694e-10 -3.10108e-10 0)
(-3.63035e-10 1.24962e-10 0)
(-2.44784e-10 1.43407e-09 0)
(4.92691e-10 1.60133e-09 0)
(3.4378e-10 -5.61569e-11 0)
(2.45675e-10 -4.00464e-10 0)
(-2.26006e-10 -4.47741e-10 0)
(-4.9075e-10 -4.08975e-10 0)
(-3.36198e-10 3.65633e-11 0)
(-4.87048e-10 -2.20094e-11 0)
(-1.5527e-10 -8.2552e-10 0)
(1.01389e-09 9.44417e-10 0)
(-5.16985e-11 9.01224e-10 0)
(4.77957e-10 5.44653e-10 0)
(1.01868e-09 3.59857e-11 0)
(8.32775e-10 -3.11264e-10 0)
(5.28215e-10 -5.70814e-10 0)
(3.11533e-10 -7.9625e-10 0)
(1.79527e-10 -9.45785e-10 0)
(-2.24831e-10 -8.82664e-10 0)
(-4.42417e-10 -2.2879e-10 0)
(-4.51561e-10 1.87744e-10 0)
(-2.82619e-10 1.25541e-09 0)
(7.53303e-10 1.26575e-09 0)
(4.44827e-11 2.69167e-10 0)
(3.39563e-10 8.05146e-12 0)
(-3.81971e-11 -2.82708e-10 0)
(-4.69501e-10 -3.62258e-10 0)
(-7.5221e-10 -7.29142e-12 0)
(-2.10052e-09 -5.39257e-10 0)
(-6.82445e-10 2.87275e-09 0)
(7.14356e-09 -8.57727e-10 0)
(3.64249e-11 -3.86196e-10 0)
(3.79402e-10 2.60137e-10 0)
(9.17336e-10 -2.11334e-11 0)
(9.74379e-10 -2.05025e-10 0)
(7.8761e-10 -1.35188e-10 0)
(4.8225e-10 -1.13929e-10 0)
(2.80499e-10 -2.16636e-10 0)
(-1.80738e-11 -3.48994e-10 0)
(-2.15514e-10 -2.50292e-10 0)
(-2.73942e-10 -1.32962e-10 0)
(-2.43299e-10 2.2042e-10 0)
(5.15979e-10 4.01371e-10 0)
(-1.62328e-10 5.11279e-11 0)
(1.37608e-10 -1.94498e-10 0)
(-7.55689e-11 -4.23299e-10 0)
(-3.45663e-10 -2.33715e-10 0)
(-3.96535e-10 2.08779e-10 0)
(1.94346e-09 3.75009e-10 0)
(-3.04077e-12 4.43936e-09 0)
(-7.8795e-09 -2.85486e-10 0)
(1.54265e-09 4.80514e-11 0)
(9.35319e-10 5.28854e-10 0)
(4.58266e-10 1.13041e-10 0)
(8.31236e-10 -2.26068e-10 0)
(8.48802e-10 -4.08286e-10 0)
(4.28376e-10 -4.84632e-10 0)
(1.43161e-10 -5.0091e-10 0)
(-1.05021e-10 -3.71431e-10 0)
(-1.76829e-10 1.78189e-11 0)
(-1.95815e-10 2.44668e-10 0)
(-1.73119e-10 7.54114e-10 0)
(6.09328e-10 6.01754e-10 0)
)
;

boundaryField
{
    sides
    {
        type            calculated;
        value           nonuniform List<vector> 
40
(
(-1.62328e-10 0 0)
(1.37608e-10 0 0)
(-7.55689e-11 0 0)
(-3.45663e-10 0 0)
(-3.96535e-10 0 0)
(1.94346e-09 0 0)
(-3.04077e-12 0 0)
(-7.8795e-09 0 0)
(1.54265e-09 0 0)
(9.35319e-10 0 0)
(4.58266e-10 0 0)
(8.31236e-10 0 0)
(8.48802e-10 0 0)
(4.28376e-10 0 0)
(1.43161e-10 0 0)
(-1.05021e-10 0 0)
(-1.76829e-10 0 0)
(-1.95815e-10 0 0)
(-1.73119e-10 0 0)
(6.09328e-10 0 0)
(-2.80238e-10 0 0)
(-4.17895e-10 0 0)
(2.92426e-10 0 0)
(6.21454e-10 0 0)
(7.7515e-10 0 0)
(1.25501e-09 0 0)
(1.48737e-10 0 0)
(1.38608e-09 0 0)
(-1.73462e-09 0 0)
(-3.68548e-10 0 0)
(-8.90945e-10 0 0)
(-5.45872e-10 0 0)
(-2.14031e-10 0 0)
(-2.61447e-10 0 0)
(-3.78691e-10 0 0)
(-6.81003e-11 0 0)
(2.08602e-10 0 0)
(2.62513e-10 0 0)
(1.6091e-10 0 0)
(-6.55817e-10 0 0)
)
;
    }
    inlet
    {
        type            calculated;
        value           uniform (0 0 0);
    }
    outlet
    {
        type            calculated;
        value           nonuniform List<vector> 
20
(
(-6.55817e-10 5.8815e-10 0)
(-5.30295e-10 3.65015e-10 0)
(-7.00772e-10 1.22996e-09 0)
(-4.02895e-10 1.61085e-09 0)
(-4.66521e-10 1.76001e-09 0)
(-4.45879e-10 2.45119e-09 0)
(-1.52532e-10 2.43916e-09 0)
(-2.53937e-10 2.77797e-09 0)
(-8.55777e-11 2.8026e-09 0)
(1.31744e-12 2.91868e-09 0)
(3.87432e-11 2.97608e-09 0)
(7.40673e-11 2.91396e-09 0)
(1.77544e-10 2.84127e-09 0)
(7.80946e-11 2.41408e-09 0)
(4.32066e-10 2.36945e-09 0)
(5.24409e-10 1.68817e-09 0)
(4.92691e-10 1.60133e-09 0)
(7.53303e-10 1.26575e-09 0)
(5.15979e-10 4.01371e-10 0)
(6.09328e-10 6.01754e-10 0)
)
;
    }
    frontAndBack
    {
        type            empty;
    }
}


// ************************************************************************* //
