/*--------------------------------*- C++ -*----------------------------------*\
  =========                 |
  \\      /  F ield         | OpenFOAM: The Open Source CFD Toolbox
   \\    /   O peration     | Website:  https://openfoam.org
    \\  /    A nd           | Version:  7
     \\/     M anipulation  |
\*---------------------------------------------------------------------------*/
FoamFile
{
    version     2.0;
    format      ascii;
    class       volVectorField;
    location    "11";
    object      ddtCorrDdt0(hU);
}
// * * * * * * * * * * * * * * * * * * * * * * * * * * * * * * * * * * * * * //

dimensions      [0 2 -2 0 0 0 0];

internalField   nonuniform List<vector> 
400
(
(1.61751e-09 2.61375e-09 0)
(-5.68379e-09 3.77839e-09 0)
(1.8535e-09 5.41253e-10 0)
(2.83561e-08 -2.00735e-09 0)
(3.50998e-08 -5.66965e-09 0)
(2.21252e-08 -1.95e-09 0)
(1.40238e-08 -2.90287e-09 0)
(-3.87779e-09 1.25007e-09 0)
(-2.18165e-08 3.62755e-09 0)
(-3.78707e-08 1.98592e-10 0)
(-4.35053e-08 -5.29779e-09 0)
(-4.128e-08 -1.26651e-08 0)
(-3.61108e-08 -2.18235e-08 0)
(-2.62038e-08 -2.84394e-08 0)
(-1.46575e-08 -2.79221e-08 0)
(-3.52468e-09 -1.83866e-08 0)
(-7.71356e-10 -2.2664e-09 0)
(-7.28387e-09 8.58426e-09 0)
(-1.7914e-08 1.90999e-08 0)
(-4.35461e-08 9.73038e-09 0)
(1.16053e-09 8.02815e-09 0)
(-8.41215e-09 6.35995e-09 0)
(3.98157e-10 -5.23082e-09 0)
(1.97303e-08 -1.04249e-08 0)
(1.84182e-08 -8.65e-09 0)
(1.55467e-08 5.51262e-09 0)
(1.55948e-08 1.0921e-08 0)
(8.39646e-09 1.14197e-08 0)
(-1.39649e-08 -1.42936e-09 0)
(-3.99961e-08 -1.26587e-08 0)
(-5.04975e-08 -2.22587e-08 0)
(-4.79674e-08 -2.96371e-08 0)
(-3.78257e-08 -3.41206e-08 0)
(-2.24112e-08 -3.6485e-08 0)
(-7.09134e-09 -3.52695e-08 0)
(4.4627e-09 -2.95167e-08 0)
(5.98576e-09 -1.74813e-08 0)
(-2.39658e-09 -4.93199e-09 0)
(-1.31205e-08 8.83725e-09 0)
(-3.36562e-08 1.58059e-08 0)
(-1.36081e-09 1.28215e-08 0)
(-6.8018e-09 9.66011e-09 0)
(2.61067e-09 -9.66063e-09 0)
(2.44942e-08 -2.16221e-08 0)
(2.68964e-08 -1.5296e-08 0)
(2.10728e-08 5.16107e-10 0)
(6.53211e-10 1.54864e-08 0)
(-1.96202e-08 2.62731e-08 0)
(-3.2964e-08 1.90675e-08 0)
(-3.36369e-08 -5.43599e-10 0)
(-3.4963e-08 -2.23198e-08 0)
(-3.39272e-08 -4.29443e-08 0)
(-3.03374e-08 -5.82633e-08 0)
(-2.2416e-08 -6.51304e-08 0)
(-1.35907e-08 -5.85289e-08 0)
(-5.72934e-09 -3.98097e-08 0)
(-4.54367e-09 -1.06619e-08 0)
(-1.06716e-08 9.45465e-09 0)
(-1.99305e-08 3.11916e-08 0)
(-3.90428e-08 2.38095e-08 0)
(-5.80685e-10 1.33195e-08 0)
(-9.47312e-09 5.44622e-09 0)
(1.37596e-09 -2.05894e-08 0)
(1.03324e-08 -3.44185e-08 0)
(1.08778e-08 -1.98957e-08 0)
(3.63321e-09 6.25197e-12 0)
(1.46627e-08 1.64043e-08 0)
(1.09873e-08 1.91001e-08 0)
(-1.84265e-08 1.47715e-08 0)
(-4.07315e-08 -3.36162e-09 0)
(-4.79217e-08 -2.88367e-08 0)
(-4.59255e-08 -5.39793e-08 0)
(-3.56436e-08 -7.3682e-08 0)
(-1.88532e-08 -8.34235e-08 0)
(-1.25557e-09 -7.69417e-08 0)
(1.09529e-08 -5.38936e-08 0)
(1.10697e-08 -1.72261e-08 0)
(6.22844e-10 1.13398e-08 0)
(-1.23771e-08 4.00912e-08 0)
(-3.06618e-08 3.89984e-08 0)
(-3.95697e-09 6.23739e-09 0)
(-1.28767e-08 -8.41929e-09 0)
(-1.89903e-09 -3.64114e-08 0)
(1.214e-08 -4.658e-08 0)
(1.3643e-08 -2.99936e-08 0)
(5.11892e-09 6.02712e-10 0)
(-1.30255e-08 2.83635e-08 0)
(-2.12198e-08 3.56796e-08 0)
(-1.95176e-08 2.17856e-08 0)
(-2.30857e-08 -2.03071e-09 0)
(-2.75831e-08 -3.06862e-08 0)
(-2.65168e-08 -5.84557e-08 0)
(-2.21019e-08 -8.05203e-08 0)
(-1.5347e-08 -9.11307e-08 0)
(-8.17792e-09 -8.14207e-08 0)
(-2.18351e-09 -5.38898e-08 0)
(-2.16539e-09 -1.22844e-08 0)
(-7.95418e-09 1.66705e-08 0)
(-1.63639e-08 4.70831e-08 0)
(-2.93735e-08 3.83669e-08 0)
(-3.68269e-09 -3.87519e-09 0)
(-1.30355e-08 -2.62612e-08 0)
(-2.75291e-09 -5.02971e-08 0)
(5.65171e-09 -5.7743e-08 0)
(3.29844e-10 -4.30512e-08 0)
(-3.50156e-09 -3.4949e-09 0)
(-3.02997e-09 3.6444e-08 0)
(-5.10749e-09 5.94447e-08 0)
(-1.96812e-08 5.20675e-08 0)
(-3.11423e-08 2.15697e-08 0)
(-3.4861e-08 -1.66934e-08 0)
(-3.26133e-08 -5.49593e-08 0)
(-2.48903e-08 -8.65342e-08 0)
(-1.16089e-08 -1.02028e-07 0)
(2.56894e-09 -9.10315e-08 0)
(1.06975e-08 -5.69092e-08 0)
(8.30758e-09 -6.43281e-09 0)
(-1.13611e-09 2.91004e-08 0)
(-1.18391e-08 6.39173e-08 0)
(-2.49034e-08 5.3843e-08 0)
(-5.86468e-09 -1.52588e-08 0)
(-1.23782e-08 -4.70481e-08 0)
(-1.5364e-09 -6.98538e-08 0)
(1.50048e-09 -7.44283e-08 0)
(6.27934e-10 -4.86537e-08 0)
(-4.51787e-09 1.52808e-09 0)
(-7.11263e-09 4.87314e-08 0)
(-1.09844e-08 6.55785e-08 0)
(-1.69832e-08 5.67048e-08 0)
(-2.13644e-08 2.98357e-08 0)
(-2.24391e-08 -6.55088e-09 0)
(-1.89868e-08 -4.56291e-08 0)
(-1.45033e-08 -8.02657e-08 0)
(-8.41328e-09 -9.85447e-08 0)
(-2.00885e-09 -8.87236e-08 0)
(2.05518e-09 -5.52008e-08 0)
(8.06897e-10 -4.2344e-09 0)
(-4.16038e-09 3.09265e-08 0)
(-1.10558e-08 6.59492e-08 0)
(-1.99947e-08 5.22601e-08 0)
(-5.2168e-09 -2.79163e-08 0)
(-8.79573e-09 -6.54069e-08 0)
(-2.78703e-09 -8.56295e-08 0)
(-7.27485e-10 -8.73662e-08 0)
(-2.76438e-09 -5.8172e-08 0)
(-5.6721e-09 -2.37952e-09 0)
(-7.46103e-09 5.48857e-08 0)
(-9.56904e-09 8.45403e-08 0)
(-1.37365e-08 7.86704e-08 0)
(-1.78708e-08 4.82856e-08 0)
(-1.77142e-08 6.26224e-09 0)
(-1.63991e-08 -4.13179e-08 0)
(-1.3378e-08 -8.4114e-08 0)
(-5.7371e-09 -1.06462e-07 0)
(2.14316e-09 -9.52318e-08 0)
(5.58355e-09 -5.63452e-08 0)
(3.63959e-09 1.16163e-09 0)
(-1.44409e-09 4.01436e-08 0)
(-7.5798e-09 7.74178e-08 0)
(-1.53171e-08 6.11688e-08 0)
(-2.87631e-09 -3.72808e-08 0)
(-5.72165e-09 -8.23614e-08 0)
(-1.76971e-09 -9.87491e-08 0)
(-1.39981e-09 -9.57413e-08 0)
(-2.78186e-09 -6.23021e-08 0)
(-4.31909e-09 -5.5678e-10 0)
(-5.04253e-09 6.21324e-08 0)
(-6.44209e-09 9.45843e-08 0)
(-9.7588e-09 8.92205e-08 0)
(-1.10476e-08 5.95519e-08 0)
(-9.92585e-09 1.61622e-08 0)
(-8.48369e-09 -3.40571e-08 0)
(-6.0885e-09 -7.87986e-08 0)
(-2.01842e-09 -1.03272e-07 0)
(1.10692e-09 -9.40424e-08 0)
(2.23781e-09 -5.59702e-08 0)
(1.38159e-09 2.01807e-09 0)
(-1.05714e-09 4.1179e-08 0)
(-5.13663e-09 7.87284e-08 0)
(-9.89976e-09 6.12129e-08 0)
(-9.65909e-10 -4.18002e-08 0)
(-1.93243e-09 -9.07579e-08 0)
(-3.88728e-10 -1.08035e-07 0)
(-7.24449e-10 -1.02767e-07 0)
(-1.35263e-09 -6.62627e-08 0)
(-2.13727e-09 6.72819e-10 0)
(-1.75745e-09 6.68021e-08 0)
(-2.74143e-09 1.00974e-07 0)
(-3.09043e-09 9.72032e-08 0)
(-3.41887e-09 6.72811e-08 0)
(-3.29864e-09 2.22114e-08 0)
(-2.67542e-09 -3.09863e-08 0)
(-2.23077e-09 -7.93301e-08 0)
(-1.36166e-09 -1.06134e-07 0)
(-1.94983e-10 -9.65946e-08 0)
(8.07372e-10 -5.63768e-08 0)
(1.12953e-09 3.63253e-09 0)
(3.55108e-10 4.32923e-08 0)
(-1.3576e-09 8.09877e-08 0)
(-3.50066e-09 6.2992e-08 0)
(9.56887e-10 -4.18107e-08 0)
(1.91434e-09 -9.07652e-08 0)
(3.49042e-10 -1.08037e-07 0)
(6.73708e-10 -1.02774e-07 0)
(1.30421e-09 -6.62768e-08 0)
(2.09697e-09 6.678e-10 0)
(1.73804e-09 6.68076e-08 0)
(2.74728e-09 1.00979e-07 0)
(3.09188e-09 9.72033e-08 0)
(3.41349e-09 6.728e-08 0)
(3.30042e-09 2.22124e-08 0)
(2.69214e-09 -3.09807e-08 0)
(2.25861e-09 -7.93228e-08 0)
(1.38709e-09 -1.06127e-07 0)
(2.18374e-10 -9.65872e-08 0)
(-7.90294e-10 -5.63698e-08 0)
(-1.11572e-09 3.63685e-09 0)
(-3.43115e-10 4.32947e-08 0)
(1.38082e-09 8.09871e-08 0)
(3.55188e-09 6.29856e-08 0)
(2.8742e-09 -3.73098e-08 0)
(5.70621e-09 -8.23822e-08 0)
(1.7299e-09 -9.87586e-08 0)
(1.34151e-09 -9.57548e-08 0)
(2.74103e-09 -6.23348e-08 0)
(4.28715e-09 -5.75023e-10 0)
(5.02229e-09 6.21419e-08 0)
(6.42995e-09 9.46013e-08 0)
(9.75407e-09 8.92314e-08 0)
(1.10483e-08 5.95545e-08 0)
(9.9365e-09 1.61625e-08 0)
(8.50434e-09 -3.40506e-08 0)
(6.11294e-09 -7.87851e-08 0)
(2.04083e-09 -1.03251e-07 0)
(-1.08529e-09 -9.40152e-08 0)
(-2.22253e-09 -5.59443e-08 0)
(-1.36706e-09 2.03123e-09 0)
(1.07337e-09 4.11839e-08 0)
(5.16119e-09 7.87183e-08 0)
(9.94417e-09 6.1195e-08 0)
(5.21669e-09 -2.79525e-08 0)
(8.77764e-09 -6.54319e-08 0)
(2.75042e-09 -8.56397e-08 0)
(6.7178e-10 -8.7375e-08 0)
(2.71974e-09 -5.82005e-08 0)
(5.65172e-09 -2.40681e-09 0)
(7.43876e-09 5.48908e-08 0)
(9.54698e-09 8.45688e-08 0)
(1.37259e-08 7.86984e-08 0)
(1.78719e-08 4.83031e-08 0)
(1.77295e-08 6.27121e-09 0)
(1.64197e-08 -4.13086e-08 0)
(1.3401e-08 -8.40981e-08 0)
(5.76094e-09 -1.06437e-07 0)
(-2.12174e-09 -9.52002e-08 0)
(-5.57172e-09 -5.63113e-08 0)
(-3.62581e-09 1.18685e-09 0)
(1.46256e-09 4.01574e-08 0)
(7.60639e-09 7.74102e-08 0)
(1.5359e-08 6.11367e-08 0)
(5.86907e-09 -1.52919e-08 0)
(1.23591e-08 -4.70694e-08 0)
(1.50139e-09 -6.98497e-08 0)
(-1.53511e-09 -7.443e-08 0)
(-6.63285e-10 -4.86746e-08 0)
(4.50123e-09 1.50021e-09 0)
(7.10133e-09 4.8731e-08 0)
(1.09632e-08 6.56054e-08 0)
(1.69724e-08 5.67434e-08 0)
(2.13687e-08 2.98619e-08 0)
(2.24523e-08 -6.53844e-09 0)
(1.90056e-08 -4.56154e-08 0)
(1.45244e-08 -8.02375e-08 0)
(8.43176e-09 -9.85033e-08 0)
(2.02344e-09 -8.868e-08 0)
(-2.04667e-09 -5.51588e-08 0)
(-7.94433e-10 -4.2139e-09 0)
(4.17519e-09 3.09273e-08 0)
(1.1075e-08 6.59095e-08 0)
(2.00187e-08 5.2209e-08 0)
(3.68947e-09 -3.89872e-09 0)
(1.302e-08 -2.6274e-08 0)
(2.72426e-09 -5.02745e-08 0)
(-5.67145e-09 -5.77372e-08 0)
(-3.54738e-10 -4.30634e-08 0)
(3.47395e-09 -3.50255e-09 0)
(3.01139e-09 3.64676e-08 0)
(5.11089e-09 5.9493e-08 0)
(1.96872e-08 5.21258e-08 0)
(3.11438e-08 2.16012e-08 0)
(3.48635e-08 -1.66876e-08 0)
(3.26216e-08 -5.49617e-08 0)
(2.49026e-08 -8.6527e-08 0)
(1.16189e-08 -1.02005e-07 0)
(-2.55525e-09 -9.09969e-08 0)
(-1.06799e-08 -5.68648e-08 0)
(-8.28495e-09 -6.39368e-09 0)
(1.15798e-09 2.91257e-08 0)
(1.18643e-08 6.39141e-08 0)
(2.49376e-08 5.38018e-08 0)
(3.9601e-09 6.22392e-09 0)
(1.28645e-08 -8.41549e-09 0)
(1.87763e-09 -3.6378e-08 0)
(-1.21499e-08 -4.65581e-08 0)
(-1.36486e-08 -2.99986e-08 0)
(-5.12924e-09 5.97985e-10 0)
(1.29981e-08 2.83739e-08 0)
(2.12184e-08 3.57313e-08 0)
(1.95156e-08 2.18198e-08 0)
(2.30809e-08 -2.00973e-09 0)
(2.75844e-08 -3.06759e-08 0)
(2.65269e-08 -5.84421e-08 0)
(2.21186e-08 -8.04962e-08 0)
(1.53611e-08 -9.10949e-08 0)
(8.19286e-09 -8.13823e-08 0)
(2.19662e-09 -5.38521e-08 0)
(2.18026e-09 -1.22715e-08 0)
(7.96281e-09 1.66639e-08 0)
(1.6377e-08 4.70294e-08 0)
(2.93813e-08 3.82935e-08 0)
(5.94186e-10 1.33295e-08 0)
(9.46514e-09 5.47142e-09 0)
(-1.39068e-09 -2.05521e-08 0)
(-1.03411e-08 -3.43936e-08 0)
(-1.08801e-08 -1.98966e-08 0)
(-3.65577e-09 3.1475e-12 0)
(-1.46767e-08 1.64442e-08 0)
(-1.10254e-08 1.916e-08 0)
(1.84072e-08 1.48294e-08 0)
(4.07363e-08 -3.33063e-09 0)
(4.79236e-08 -2.88283e-08 0)
(4.59243e-08 -5.39763e-08 0)
(3.56447e-08 -7.36731e-08 0)
(1.88595e-08 -8.34001e-08 0)
(1.27395e-09 -7.69059e-08 0)
(-1.09203e-08 -5.3851e-08 0)
(-1.10297e-08 -1.71924e-08 0)
(-5.86076e-10 1.13646e-08 0)
(1.24082e-08 4.00917e-08 0)
(3.06838e-08 3.89635e-08 0)
(1.36327e-09 1.28364e-08 0)
(6.79112e-09 9.69092e-09 0)
(-2.61896e-09 -9.61803e-09 0)
(-2.44889e-08 -2.15905e-08 0)
(-2.69033e-08 -1.52847e-08 0)
(-2.10838e-08 5.16884e-10 0)
(-6.7326e-10 1.55092e-08 0)
(1.96257e-08 2.63019e-08 0)
(3.29668e-08 1.90986e-08 0)
(3.36333e-08 -5.25481e-10 0)
(3.49678e-08 -2.23117e-08 0)
(3.39364e-08 -4.29362e-08 0)
(3.03528e-08 -5.82532e-08 0)
(2.24347e-08 -6.51166e-08 0)
(1.36104e-08 -5.85151e-08 0)
(5.74502e-09 -3.97947e-08 0)
(4.56608e-09 -1.06585e-08 0)
(1.06881e-08 9.45108e-09 0)
(1.99612e-08 3.11587e-08 0)
(3.90563e-08 2.37437e-08 0)
(-1.14998e-09 8.04231e-09 0)
(8.41476e-09 6.38733e-09 0)
(-4.10773e-10 -5.20646e-09 0)
(-1.97393e-08 -1.04034e-08 0)
(-1.84242e-08 -8.6497e-09 0)
(-1.55498e-08 5.52052e-09 0)
(-1.56062e-08 1.0928e-08 0)
(-8.43876e-09 1.14416e-08 0)
(1.39278e-08 -1.42431e-09 0)
(3.9992e-08 -1.26581e-08 0)
(5.04992e-08 -2.226e-08 0)
(4.79681e-08 -2.96329e-08 0)
(3.78276e-08 -3.41099e-08 0)
(2.24266e-08 -3.64636e-08 0)
(7.12226e-09 -3.52402e-08 0)
(-4.41434e-09 -2.94857e-08 0)
(-5.93145e-09 -1.74637e-08 0)
(2.44465e-09 -4.92357e-09 0)
(1.31489e-08 8.8266e-09 0)
(3.36513e-08 1.57888e-08 0)
(-1.61556e-09 2.62774e-09 0)
(5.67967e-09 3.787e-09 0)
(-1.85691e-09 5.38523e-10 0)
(-2.83618e-08 -2.00498e-09 0)
(-3.51173e-08 -5.67707e-09 0)
(-2.21609e-08 -1.95779e-09 0)
(-1.4044e-08 -2.90954e-09 0)
(3.87418e-09 1.24805e-09 0)
(2.18355e-08 3.65009e-09 0)
(3.78893e-08 2.24746e-10 0)
(4.35191e-08 -5.2788e-09 0)
(4.12846e-08 -1.26535e-08 0)
(3.61139e-08 -2.18215e-08 0)
(2.62118e-08 -2.84442e-08 0)
(1.46705e-08 -2.79272e-08 0)
(3.54147e-09 -1.83817e-08 0)
(8.08856e-10 -2.24926e-09 0)
(7.32221e-09 8.60932e-09 0)
(1.79864e-08 1.9122e-08 0)
(4.3583e-08 9.69853e-09 0)
)
;

boundaryField
{
    sides
    {
        type            calculated;
        value           nonuniform List<vector> 
40
(
(-1.61556e-09 0 0)
(5.67967e-09 0 0)
(-1.85691e-09 0 0)
(-2.83618e-08 0 0)
(-3.51173e-08 0 0)
(-2.21609e-08 0 0)
(-1.4044e-08 0 0)
(3.87418e-09 0 0)
(2.18355e-08 0 0)
(3.78893e-08 0 0)
(4.35191e-08 0 0)
(4.12846e-08 0 0)
(3.61139e-08 0 0)
(2.62118e-08 0 0)
(1.46705e-08 0 0)
(3.54147e-09 0 0)
(8.08856e-10 0 0)
(7.32221e-09 0 0)
(1.79864e-08 0 0)
(4.3583e-08 0 0)
(1.61751e-09 0 0)
(-5.68379e-09 0 0)
(1.8535e-09 0 0)
(2.83561e-08 0 0)
(3.50998e-08 0 0)
(2.21252e-08 0 0)
(1.40238e-08 0 0)
(-3.87779e-09 0 0)
(-2.18165e-08 0 0)
(-3.78707e-08 0 0)
(-4.35053e-08 0 0)
(-4.128e-08 0 0)
(-3.61108e-08 0 0)
(-2.62038e-08 0 0)
(-1.46575e-08 0 0)
(-3.52468e-09 0 0)
(-7.71356e-10 0 0)
(-7.28387e-09 0 0)
(-1.7914e-08 0 0)
(-4.35461e-08 0 0)
)
;
    }
    inlet
    {
        type            calculated;
        value           uniform (0 0 0);
    }
    outlet
    {
        type            calculated;
        value           nonuniform List<vector> 
20
(
(-4.35461e-08 9.73038e-09 0)
(-3.36562e-08 1.58059e-08 0)
(-3.90428e-08 2.38095e-08 0)
(-3.06618e-08 3.89984e-08 0)
(-2.93735e-08 3.83669e-08 0)
(-2.49034e-08 5.3843e-08 0)
(-1.99947e-08 5.22601e-08 0)
(-1.53171e-08 6.11688e-08 0)
(-9.89976e-09 6.12129e-08 0)
(-3.50066e-09 6.2992e-08 0)
(3.55188e-09 6.29856e-08 0)
(9.94417e-09 6.1195e-08 0)
(1.5359e-08 6.11367e-08 0)
(2.00187e-08 5.2209e-08 0)
(2.49376e-08 5.38018e-08 0)
(2.93813e-08 3.82935e-08 0)
(3.06838e-08 3.89635e-08 0)
(3.90563e-08 2.37437e-08 0)
(3.36513e-08 1.57888e-08 0)
(4.3583e-08 9.69853e-09 0)
)
;
    }
    frontAndBack
    {
        type            empty;
    }
}


// ************************************************************************* //
