/*--------------------------------*- C++ -*----------------------------------*\
  =========                 |
  \\      /  F ield         | OpenFOAM: The Open Source CFD Toolbox
   \\    /   O peration     | Website:  https://openfoam.org
    \\  /    A nd           | Version:  7
     \\/     M anipulation  |
\*---------------------------------------------------------------------------*/
FoamFile
{
    version     2.0;
    format      ascii;
    class       volVectorField;
    location    "11";
    object      hU;
}
// * * * * * * * * * * * * * * * * * * * * * * * * * * * * * * * * * * * * * //

dimensions      [0 2 -1 0 0 0 0];

internalField   nonuniform List<vector> 
400
(
(0.000999995 -7.13675e-09 0)
(0.00100001 -2.24183e-08 0)
(0.00100003 -3.51538e-08 0)
(0.00100003 -4.57365e-08 0)
(0.00100001 -5.52025e-08 0)
(0.00100001 -6.39444e-08 0)
(0.00100001 -7.35926e-08 0)
(0.00100001 -8.46237e-08 0)
(0.00100002 -9.9374e-08 0)
(0.00100005 -1.16238e-07 0)
(0.00100008 -1.30275e-07 0)
(0.00100011 -1.43831e-07 0)
(0.00100014 -1.51422e-07 0)
(0.00100019 -1.60593e-07 0)
(0.00100021 -1.61396e-07 0)
(0.00100027 -1.76704e-07 0)
(0.00100027 -1.81007e-07 0)
(0.00100038 -2.26292e-07 0)
(0.00100037 -2.32041e-07 0)
(0.00100059 -3.3622e-07 0)
(0.000999995 8.38073e-09 0)
(0.00100001 2.01247e-08 0)
(0.00100003 3.63101e-08 0)
(0.00100003 5.59049e-08 0)
(0.00100003 7.25627e-08 0)
(0.00100003 8.1793e-08 0)
(0.00100003 8.10693e-08 0)
(0.00100003 7.23676e-08 0)
(0.00100003 6.47055e-08 0)
(0.00100006 5.92758e-08 0)
(0.00100009 5.8906e-08 0)
(0.00100013 5.95984e-08 0)
(0.00100016 6.61677e-08 0)
(0.00100021 6.8191e-08 0)
(0.00100023 7.98586e-08 0)
(0.00100027 7.46092e-08 0)
(0.00100028 8.70568e-08 0)
(0.00100035 5.08889e-08 0)
(0.00100036 6.02521e-08 0)
(0.00100049 -4.86458e-08 0)
(0.000999995 2.2569e-09 0)
(0.00100001 -1.9121e-09 0)
(0.00100003 -1.05431e-09 0)
(0.00100002 5.56246e-09 0)
(0.00100001 1.00167e-08 0)
(0.000999999 3.74329e-09 0)
(0.000999995 -1.54551e-08 0)
(0.000999999 -4.51228e-08 0)
(0.00100001 -8.09826e-08 0)
(0.00100004 -1.14765e-07 0)
(0.00100006 -1.39159e-07 0)
(0.0010001 -1.56953e-07 0)
(0.00100012 -1.62721e-07 0)
(0.00100016 -1.68784e-07 0)
(0.00100019 -1.6541e-07 0)
(0.00100023 -1.83892e-07 0)
(0.00100025 -1.93125e-07 0)
(0.00100032 -2.59058e-07 0)
(0.00100032 -2.78252e-07 0)
(0.00100045 -4.18742e-07 0)
(0.000999995 6.8484e-09 0)
(0.00100001 1.34299e-08 0)
(0.00100003 2.7877e-08 0)
(0.00100003 5.02017e-08 0)
(0.00100002 7.12743e-08 0)
(0.00100002 7.79557e-08 0)
(0.00100003 6.62906e-08 0)
(0.00100002 4.05185e-08 0)
(0.00100002 1.04712e-08 0)
(0.00100004 -1.87255e-08 0)
(0.00100008 -3.74183e-08 0)
(0.00100011 -4.80428e-08 0)
(0.00100014 -4.39454e-08 0)
(0.00100018 -3.98781e-08 0)
(0.0010002 -2.40896e-08 0)
(0.00100023 -3.36112e-08 0)
(0.00100024 -3.32835e-08 0)
(0.00100028 -9.99602e-08 0)
(0.00100029 -1.15723e-07 0)
(0.00100037 -2.68644e-07 0)
(0.000999995 2.91794e-09 0)
(0.00100001 7.39698e-09 0)
(0.00100002 2.1085e-08 0)
(0.00100002 4.21149e-08 0)
(0.00100001 5.88662e-08 0)
(0.00100001 5.67807e-08 0)
(0.001 3.0693e-08 0)
(0.00100001 -1.48897e-08 0)
(0.00100002 -6.35555e-08 0)
(0.00100004 -1.07332e-07 0)
(0.00100006 -1.39077e-07 0)
(0.00100008 -1.60355e-07 0)
(0.0010001 -1.64999e-07 0)
(0.00100013 -1.66383e-07 0)
(0.00100015 -1.56956e-07 0)
(0.00100019 -1.73183e-07 0)
(0.0010002 -1.8484e-07 0)
(0.00100024 -2.62738e-07 0)
(0.00100025 -2.92171e-07 0)
(0.00100033 -4.53761e-07 0)
(0.000999995 7.69037e-10 0)
(0.00100001 7.82474e-09 0)
(0.00100002 2.49015e-08 0)
(0.00100002 4.98252e-08 0)
(0.00100001 7.18735e-08 0)
(0.00100001 7.63347e-08 0)
(0.00100001 5.57544e-08 0)
(0.00100001 1.44602e-08 0)
(0.00100001 -3.68051e-08 0)
(0.00100003 -8.41911e-08 0)
(0.00100005 -1.15812e-07 0)
(0.00100008 -1.3281e-07 0)
(0.00100011 -1.28645e-07 0)
(0.00100013 -1.19265e-07 0)
(0.00100015 -9.87617e-08 0)
(0.00100017 -1.08347e-07 0)
(0.00100017 -1.16849e-07 0)
(0.0010002 -1.99356e-07 0)
(0.00100021 -2.3153e-07 0)
(0.00100026 -4.05066e-07 0)
(0.000999996 -1.97057e-09 0)
(0.00100001 6.94337e-09 0)
(0.00100002 2.65556e-08 0)
(0.00100002 5.3267e-08 0)
(0.00100001 7.66691e-08 0)
(0.00100001 7.90138e-08 0)
(0.00100001 5.11814e-08 0)
(0.00100001 -2.54684e-10 0)
(0.00100001 -5.59654e-08 0)
(0.00100002 -1.07293e-07 0)
(0.00100004 -1.44414e-07 0)
(0.00100006 -1.67455e-07 0)
(0.00100008 -1.69367e-07 0)
(0.00100009 -1.64519e-07 0)
(0.00100011 -1.48373e-07 0)
(0.00100013 -1.61613e-07 0)
(0.00100013 -1.75438e-07 0)
(0.00100016 -2.6263e-07 0)
(0.00100016 -3.00757e-07 0)
(0.00100021 -4.78254e-07 0)
(0.000999997 -4.64716e-09 0)
(0.00100001 5.94103e-09 0)
(0.00100001 2.7161e-08 0)
(0.00100001 5.43082e-08 0)
(0.00100001 7.82629e-08 0)
(0.00100001 8.13342e-08 0)
(0.001 5.38914e-08 0)
(0.001 1.08807e-09 0)
(0.00100001 -5.97854e-08 0)
(0.00100002 -1.15e-07 0)
(0.00100003 -1.53628e-07 0)
(0.00100004 -1.75261e-07 0)
(0.00100006 -1.72161e-07 0)
(0.00100007 -1.59854e-07 0)
(0.00100008 -1.36438e-07 0)
(0.00100009 -1.45708e-07 0)
(0.0010001 -1.59359e-07 0)
(0.00100011 -2.50556e-07 0)
(0.00100012 -2.92473e-07 0)
(0.00100015 -4.76944e-07 0)
(0.000999998 -6.65542e-09 0)
(0.001 4.87853e-09 0)
(0.00100001 2.71754e-08 0)
(0.00100001 5.48004e-08 0)
(0.001 7.96204e-08 0)
(0.001 8.31798e-08 0)
(0.001 5.42138e-08 0)
(0.001 -9.18118e-10 0)
(0.001 -6.30421e-08 0)
(0.00100001 -1.18891e-07 0)
(0.00100002 -1.58318e-07 0)
(0.00100003 -1.80981e-07 0)
(0.00100004 -1.7927e-07 0)
(0.00100004 -1.68484e-07 0)
(0.00100005 -1.46726e-07 0)
(0.00100006 -1.57495e-07 0)
(0.00100006 -1.73143e-07 0)
(0.00100007 -2.66678e-07 0)
(0.00100007 -3.10999e-07 0)
(0.00100009 -4.98123e-07 0)
(0.000999999 -7.6766e-09 0)
(0.001 4.45762e-09 0)
(0.001 2.70474e-08 0)
(0.001 5.47119e-08 0)
(0.001 7.9842e-08 0)
(0.001 8.38089e-08 0)
(0.001 5.46465e-08 0)
(0.001 -1.17859e-09 0)
(0.001 -6.44179e-08 0)
(0.001 -1.21811e-07 0)
(0.00100001 -1.62769e-07 0)
(0.00100001 -1.86216e-07 0)
(0.00100001 -1.83893e-07 0)
(0.00100001 -1.7117e-07 0)
(0.00100002 -1.47246e-07 0)
(0.00100002 -1.56751e-07 0)
(0.00100002 -1.72549e-07 0)
(0.00100002 -2.67374e-07 0)
(0.00100002 -3.13167e-07 0)
(0.00100003 -5.0214e-07 0)
(0.001 -7.67596e-09 0)
(0.000999998 4.45988e-09 0)
(0.000999997 2.70478e-08 0)
(0.000999997 5.47091e-08 0)
(0.000999999 7.98386e-08 0)
(0.000999999 8.38089e-08 0)
(0.000999999 5.46487e-08 0)
(0.000999999 -1.17656e-09 0)
(0.000999998 -6.44166e-08 0)
(0.000999997 -1.21809e-07 0)
(0.000999994 -1.62765e-07 0)
(0.000999991 -1.86212e-07 0)
(0.000999989 -1.83889e-07 0)
(0.000999985 -1.71167e-07 0)
(0.000999983 -1.47244e-07 0)
(0.000999981 -1.56749e-07 0)
(0.00099998 -1.72551e-07 0)
(0.000999977 -2.67374e-07 0)
(0.000999976 -3.13172e-07 0)
(0.000999971 -5.0214e-07 0)
(0.001 -6.65423e-09 0)
(0.000999995 4.88427e-09 0)
(0.000999991 2.71753e-08 0)
(0.000999992 5.47925e-08 0)
(0.000999995 7.96126e-08 0)
(0.000999997 8.31816e-08 0)
(0.000999998 5.42229e-08 0)
(0.000999998 -9.09551e-10 0)
(0.000999996 -6.3039e-08 0)
(0.00099999 -1.1889e-07 0)
(0.000999982 -1.58314e-07 0)
(0.000999973 -1.80971e-07 0)
(0.000999965 -1.79256e-07 0)
(0.000999956 -1.68467e-07 0)
(0.000999951 -1.46714e-07 0)
(0.000999944 -1.57482e-07 0)
(0.000999941 -1.7314e-07 0)
(0.000999931 -2.66663e-07 0)
(0.00099993 -3.10995e-07 0)
(0.000999912 -4.98082e-07 0)
(0.001 -4.64615e-09 0)
(0.000999993 5.94901e-09 0)
(0.000999985 2.71607e-08 0)
(0.000999988 5.42968e-08 0)
(0.000999993 7.82537e-08 0)
(0.000999995 8.13404e-08 0)
(0.000999996 5.39102e-08 0)
(0.000999996 1.10705e-09 0)
(0.000999993 -5.97749e-08 0)
(0.000999985 -1.14997e-07 0)
(0.000999972 -1.53627e-07 0)
(0.000999956 -1.75254e-07 0)
(0.000999942 -1.72153e-07 0)
(0.000999926 -1.59841e-07 0)
(0.000999917 -1.36432e-07 0)
(0.000999905 -1.45701e-07 0)
(0.000999902 -1.59371e-07 0)
(0.000999886 -2.50561e-07 0)
(0.000999884 -2.92504e-07 0)
(0.000999854 -4.76944e-07 0)
(0.001 -1.96977e-09 0)
(0.000999991 6.95098e-09 0)
(0.000999981 2.65561e-08 0)
(0.000999983 5.32562e-08 0)
(0.00099999 7.6661e-08 0)
(0.000999993 7.90241e-08 0)
(0.000999995 5.12082e-08 0)
(0.000999994 -2.2669e-10 0)
(0.000999988 -5.59447e-08 0)
(0.000999976 -1.07275e-07 0)
(0.00099996 -1.44393e-07 0)
(0.000999941 -1.67424e-07 0)
(0.000999925 -1.69335e-07 0)
(0.000999905 -1.64483e-07 0)
(0.000999892 -1.4835e-07 0)
(0.000999873 -1.61584e-07 0)
(0.000999866 -1.75431e-07 0)
(0.00099984 -2.6259e-07 0)
(0.000999838 -3.00739e-07 0)
(0.000999793 -4.78142e-07 0)
(0.001 7.69245e-10 0)
(0.00099999 7.8308e-09 0)
(0.000999978 2.49012e-08 0)
(0.00099998 4.98143e-08 0)
(0.000999988 7.18677e-08 0)
(0.000999989 7.63503e-08 0)
(0.000999989 5.57846e-08 0)
(0.000999992 1.44851e-08 0)
(0.000999989 -3.67982e-08 0)
(0.000999972 -8.41964e-08 0)
(0.000999948 -1.15819e-07 0)
(0.00099992 -1.32807e-07 0)
(0.000999895 -1.28636e-07 0)
(0.000999869 -1.19246e-07 0)
(0.000999853 -9.87488e-08 0)
(0.000999834 -1.08332e-07 0)
(0.000999828 -1.16862e-07 0)
(0.000999799 -1.99363e-07 0)
(0.000999794 -2.31578e-07 0)
(0.00099974 -4.05084e-07 0)
(0.00100001 2.9174e-09 0)
(0.00099999 7.40262e-09 0)
(0.000999975 2.10846e-08 0)
(0.000999978 4.21042e-08 0)
(0.000999988 5.88618e-08 0)
(0.000999995 5.67996e-08 0)
(0.000999998 3.07296e-08 0)
(0.000999994 -1.48483e-08 0)
(0.000999982 -6.35244e-08 0)
(0.000999965 -1.07305e-07 0)
(0.000999944 -1.39051e-07 0)
(0.000999919 -1.6032e-07 0)
(0.000999895 -1.64969e-07 0)
(0.000999866 -1.66347e-07 0)
(0.000999846 -1.56942e-07 0)
(0.000999813 -1.73155e-07 0)
(0.000999801 -1.84849e-07 0)
(0.000999755 -2.62694e-07 0)
(0.000999752 -2.92169e-07 0)
(0.000999672 -4.5362e-07 0)
(0.001 6.8487e-09 0)
(0.000999989 1.34317e-08 0)
(0.000999972 2.78736e-08 0)
(0.000999972 5.0192e-08 0)
(0.000999978 7.12732e-08 0)
(0.000999977 7.79764e-08 0)
(0.000999975 6.63249e-08 0)
(0.000999979 4.05461e-08 0)
(0.000999978 1.04813e-08 0)
(0.000999956 -1.87249e-08 0)
(0.000999925 -3.74174e-08 0)
(0.000999888 -4.80281e-08 0)
(0.000999856 -4.39237e-08 0)
(0.000999821 -3.98434e-08 0)
(0.0009998 -2.40632e-08 0)
(0.000999771 -3.35783e-08 0)
(0.000999762 -3.32793e-08 0)
(0.000999717 -9.99411e-08 0)
(0.00099971 -1.15745e-07 0)
(0.000999628 -2.6863e-07 0)
(0.00100001 2.25679e-09 0)
(0.000999992 -1.91042e-09 0)
(0.000999975 -1.05427e-09 0)
(0.000999978 5.55925e-09 0)
(0.000999993 1.00181e-08 0)
(0.001 3.7595e-09 0)
(0.00100001 -1.54278e-08 0)
(0.001 -4.50944e-08 0)
(0.000999985 -8.09651e-08 0)
(0.000999962 -1.14755e-07 0)
(0.000999936 -1.39158e-07 0)
(0.000999904 -1.56946e-07 0)
(0.000999876 -1.62726e-07 0)
(0.000999836 -1.6878e-07 0)
(0.000999812 -1.6543e-07 0)
(0.000999766 -1.83887e-07 0)
(0.000999753 -1.93167e-07 0)
(0.000999682 -2.59044e-07 0)
(0.00099968 -2.78307e-07 0)
(0.000999549 -4.18675e-07 0)
(0.001 8.37933e-09 0)
(0.000999989 2.01219e-08 0)
(0.000999968 3.63055e-08 0)
(0.000999966 5.59002e-08 0)
(0.000999972 7.25643e-08 0)
(0.000999971 8.18076e-08 0)
(0.000999969 8.10892e-08 0)
(0.000999971 7.23844e-08 0)
(0.000999968 6.47149e-08 0)
(0.000999945 5.92897e-08 0)
(0.000999911 5.89262e-08 0)
(0.00099987 5.96339e-08 0)
(0.000999836 6.62058e-08 0)
(0.000999795 6.82418e-08 0)
(0.000999771 7.98944e-08 0)
(0.000999729 7.46565e-08 0)
(0.000999717 8.70746e-08 0)
(0.000999649 5.09431e-08 0)
(0.00099964 6.02763e-08 0)
(0.000999513 -4.85488e-08 0)
(0.001 -7.13662e-09 0)
(0.000999993 -2.24208e-08 0)
(0.000999974 -3.51558e-08 0)
(0.000999974 -4.57393e-08 0)
(0.000999987 -5.52088e-08 0)
(0.000999993 -6.39517e-08 0)
(0.000999994 -7.3603e-08 0)
(0.000999991 -8.46399e-08 0)
(0.000999981 -9.94007e-08 0)
(0.000999954 -1.16274e-07 0)
(0.000999925 -1.30321e-07 0)
(0.000999886 -1.43881e-07 0)
(0.000999856 -1.5148e-07 0)
(0.000999808 -1.60644e-07 0)
(0.000999788 -1.61451e-07 0)
(0.000999727 -1.76745e-07 0)
(0.000999726 -1.81069e-07 0)
(0.00099962 -2.26355e-07 0)
(0.000999634 -2.32151e-07 0)
(0.000999412 -3.3637e-07 0)
)
;

boundaryField
{
    sides
    {
        type            slip;
    }
    inlet
    {
        type            fixedValue;
        value           uniform (0.001 0 0);
    }
    outlet
    {
        type            zeroGradient;
    }
    frontAndBack
    {
        type            empty;
    }
}


// ************************************************************************* //
