/*--------------------------------*- C++ -*----------------------------------*\
  =========                 |
  \\      /  F ield         | OpenFOAM: The Open Source CFD Toolbox
   \\    /   O peration     | Website:  https://openfoam.org
    \\  /    A nd           | Version:  7
     \\/     M anipulation  |
\*---------------------------------------------------------------------------*/
FoamFile
{
    version     2.0;
    format      ascii;
    class       volVectorField;
    location    "11";
    object      hU_0;
}
// * * * * * * * * * * * * * * * * * * * * * * * * * * * * * * * * * * * * * //

dimensions      [0 2 -1 0 0 0 0];

internalField   nonuniform List<vector> 
400
(
(0.000999995 -7.2994e-09 0)
(0.00100001 -2.27554e-08 0)
(0.00100003 -3.52133e-08 0)
(0.00100002 -4.54403e-08 0)
(0.00100001 -5.47721e-08 0)
(0.001 -6.35962e-08 0)
(0.001 -7.32692e-08 0)
(0.00100001 -8.46509e-08 0)
(0.00100002 -9.96344e-08 0)
(0.00100005 -1.16144e-07 0)
(0.00100008 -1.29652e-07 0)
(0.00100012 -1.4252e-07 0)
(0.00100015 -1.4925e-07 0)
(0.00100019 -1.57762e-07 0)
(0.00100021 -1.58569e-07 0)
(0.00100027 -1.74762e-07 0)
(0.00100027 -1.80663e-07 0)
(0.00100038 -2.27065e-07 0)
(0.00100037 -2.33944e-07 0)
(0.00100059 -3.37257e-07 0)
(0.000999995 7.66148e-09 0)
(0.00100001 1.94802e-08 0)
(0.00100003 3.69141e-08 0)
(0.00100003 5.7282e-08 0)
(0.00100003 7.35626e-08 0)
(0.00100003 8.17311e-08 0)
(0.00100003 8.01676e-08 0)
(0.00100003 7.13267e-08 0)
(0.00100003 6.47552e-08 0)
(0.00100006 6.04674e-08 0)
(0.00100009 6.10995e-08 0)
(0.00100014 6.25402e-08 0)
(0.00100017 6.95389e-08 0)
(0.00100021 7.17671e-08 0)
(0.00100023 8.33038e-08 0)
(0.00100027 7.75034e-08 0)
(0.00100028 8.87835e-08 0)
(0.00100035 5.13872e-08 0)
(0.00100036 5.93877e-08 0)
(0.00100049 -5.02295e-08 0)
(0.000999995 1.27616e-09 0)
(0.00100001 -2.74324e-09 0)
(0.00100003 1.8819e-10 0)
(0.00100002 8.09137e-09 0)
(0.001 1.21226e-08 0)
(0.000999997 4.15666e-09 0)
(0.000999994 -1.64036e-08 0)
(0.001 -4.71751e-08 0)
(0.00100002 -8.27116e-08 0)
(0.00100004 -1.14748e-07 0)
(0.00100007 -1.37049e-07 0)
(0.0010001 -1.52828e-07 0)
(0.00100013 -1.57055e-07 0)
(0.00100017 -1.62388e-07 0)
(0.00100019 -1.5959e-07 0)
(0.00100024 -1.79847e-07 0)
(0.00100025 -1.91963e-07 0)
(0.00100032 -2.59939e-07 0)
(0.00100032 -2.81381e-07 0)
(0.00100045 -4.21222e-07 0)
(0.000999995 5.89153e-09 0)
(0.00100001 1.30995e-08 0)
(0.00100003 3.01572e-08 0)
(0.00100003 5.39455e-08 0)
(0.00100002 7.41015e-08 0)
(0.00100002 7.88471e-08 0)
(0.00100002 6.52582e-08 0)
(0.00100002 3.89654e-08 0)
(0.00100002 9.31654e-09 0)
(0.00100005 -1.82888e-08 0)
(0.00100008 -3.46304e-08 0)
(0.00100012 -4.28363e-08 0)
(0.00100015 -3.67689e-08 0)
(0.00100018 -3.16604e-08 0)
(0.0010002 -1.63939e-08 0)
(0.00100023 -2.80686e-08 0)
(0.00100024 -3.135e-08 0)
(0.00100028 -1.00921e-07 0)
(0.00100029 -1.1965e-07 0)
(0.00100038 -2.72596e-07 0)
(0.000999995 2.37224e-09 0)
(0.00100001 8.27215e-09 0)
(0.00100003 2.48548e-08 0)
(0.00100002 4.73141e-08 0)
(0.00100001 6.26629e-08 0)
(0.001 5.7708e-08 0)
(0.001 2.84368e-08 0)
(0.00100001 -1.83704e-08 0)
(0.00100002 -6.57136e-08 0)
(0.00100004 -1.07292e-07 0)
(0.00100006 -1.36314e-07 0)
(0.00100008 -1.54837e-07 0)
(0.00100011 -1.57215e-07 0)
(0.00100014 -1.57404e-07 0)
(0.00100016 -1.48751e-07 0)
(0.00100019 -1.67547e-07 0)
(0.0010002 -1.83323e-07 0)
(0.00100025 -2.64183e-07 0)
(0.00100025 -2.96781e-07 0)
(0.00100033 -4.57678e-07 0)
(0.000999996 1.18306e-09 0)
(0.00100001 1.04115e-08 0)
(0.00100002 3.00761e-08 0)
(0.00100002 5.61376e-08 0)
(0.00100001 7.69085e-08 0)
(0.00100001 7.74275e-08 0)
(0.00100001 5.30084e-08 0)
(0.00100001 9.24168e-09 0)
(0.00100001 -4.18737e-08 0)
(0.00100003 -8.65454e-08 0)
(0.00100006 -1.1449e-07 0)
(0.00100008 -1.27659e-07 0)
(0.00100011 -1.20241e-07 0)
(0.00100013 -1.09106e-07 0)
(0.00100015 -8.94275e-08 0)
(0.00100017 -1.022e-07 0)
(0.00100017 -1.15715e-07 0)
(0.0010002 -2.01877e-07 0)
(0.00100021 -2.37714e-07 0)
(0.00100026 -4.10502e-07 0)
(0.000999996 -5.17967e-10 0)
(0.00100001 1.16558e-08 0)
(0.00100002 3.36626e-08 0)
(0.00100002 6.10201e-08 0)
(0.00100001 8.22265e-08 0)
(0.00100001 7.9681e-08 0)
(0.00100001 4.70491e-08 0)
(0.00100001 -6.3637e-09 0)
(0.00100001 -6.16053e-08 0)
(0.00100003 -1.10476e-07 0)
(0.00100004 -1.4402e-07 0)
(0.00100006 -1.63135e-07 0)
(0.00100008 -1.61497e-07 0)
(0.0010001 -1.54586e-07 0)
(0.00100011 -1.39129e-07 0)
(0.00100013 -1.55506e-07 0)
(0.00100013 -1.74411e-07 0)
(0.00100016 -2.65242e-07 0)
(0.00100016 -3.07101e-07 0)
(0.00100021 -4.83536e-07 0)
(0.000999997 -2.01126e-09 0)
(0.00100001 1.24607e-08 0)
(0.00100002 3.58266e-08 0)
(0.00100001 6.33411e-08 0)
(0.00100001 8.45827e-08 0)
(0.00100001 8.21952e-08 0)
(0.001 4.88932e-08 0)
(0.001 -7.2205e-09 0)
(0.00100001 -6.77072e-08 0)
(0.00100002 -1.20017e-07 0)
(0.00100003 -1.54454e-07 0)
(0.00100005 -1.71316e-07 0)
(0.00100006 -1.63822e-07 0)
(0.00100007 -1.48993e-07 0)
(0.00100008 -1.26368e-07 0)
(0.00100009 -1.39299e-07 0)
(0.0010001 -1.58699e-07 0)
(0.00100011 -2.5397e-07 0)
(0.00100012 -2.99922e-07 0)
(0.00100015 -4.83126e-07 0)
(0.000999998 -3.08944e-09 0)
(0.00100001 1.30002e-08 0)
(0.00100001 3.7092e-08 0)
(0.00100001 6.45862e-08 0)
(0.001 8.63179e-08 0)
(0.001 8.38216e-08 0)
(0.001 4.84698e-08 0)
(0.001 -1.01759e-08 0)
(0.001 -7.19827e-08 0)
(0.00100001 -1.24938e-07 0)
(0.00100002 -1.60068e-07 0)
(0.00100003 -1.77695e-07 0)
(0.00100004 -1.71362e-07 0)
(0.00100004 -1.57856e-07 0)
(0.00100005 -1.36709e-07 0)
(0.00100006 -1.51052e-07 0)
(0.00100006 -1.72499e-07 0)
(0.00100007 -2.70152e-07 0)
(0.00100007 -3.18568e-07 0)
(0.00100009 -5.04316e-07 0)
(0.000999999 -3.67699e-09 0)
(0.001 1.35256e-08 0)
(0.001 3.78655e-08 0)
(0.001 6.50818e-08 0)
(0.001 8.67625e-08 0)
(0.001 8.42605e-08 0)
(0.001 4.84209e-08 0)
(0.001 -1.10682e-08 0)
(0.001 -7.41317e-08 0)
(0.001 -1.28612e-07 0)
(0.00100001 -1.65094e-07 0)
(0.00100001 -1.83208e-07 0)
(0.00100001 -1.75909e-07 0)
(0.00100001 -1.60222e-07 0)
(0.00100002 -1.36911e-07 0)
(0.00100002 -1.50195e-07 0)
(0.00100002 -1.7203e-07 0)
(0.00100002 -2.71066e-07 0)
(0.00100002 -3.20984e-07 0)
(0.00100003 -5.08524e-07 0)
(0.001 -3.67509e-09 0)
(0.000999998 1.35289e-08 0)
(0.000999997 3.78663e-08 0)
(0.000999997 6.50794e-08 0)
(0.000999998 8.67602e-08 0)
(0.000999999 8.42608e-08 0)
(0.000999999 4.84226e-08 0)
(0.000999999 -1.1067e-08 0)
(0.000999998 -7.41307e-08 0)
(0.000999996 -1.2861e-07 0)
(0.000999994 -1.6509e-07 0)
(0.000999991 -1.83203e-07 0)
(0.000999988 -1.75906e-07 0)
(0.000999985 -1.6022e-07 0)
(0.000999983 -1.3691e-07 0)
(0.000999981 -1.50194e-07 0)
(0.00099998 -1.72033e-07 0)
(0.000999977 -2.71067e-07 0)
(0.000999976 -3.20989e-07 0)
(0.00099997 -5.08523e-07 0)
(0.001 -3.08514e-09 0)
(0.000999995 1.30086e-08 0)
(0.00099999 3.7093e-08 0)
(0.000999992 6.45792e-08 0)
(0.000999995 8.63124e-08 0)
(0.000999997 8.38248e-08 0)
(0.000999997 4.8478e-08 0)
(0.000999998 -1.01696e-08 0)
(0.000999995 -7.1981e-08 0)
(0.000999989 -1.24937e-07 0)
(0.000999981 -1.60064e-07 0)
(0.000999972 -1.77684e-07 0)
(0.000999964 -1.71349e-07 0)
(0.000999956 -1.5784e-07 0)
(0.000999951 -1.36699e-07 0)
(0.000999944 -1.51041e-07 0)
(0.000999941 -1.72498e-07 0)
(0.000999931 -2.70138e-07 0)
(0.000999929 -3.18563e-07 0)
(0.000999911 -5.04273e-07 0)
(0.001 -2.00654e-09 0)
(0.000999992 1.24717e-08 0)
(0.000999985 3.58273e-08 0)
(0.000999988 6.33305e-08 0)
(0.000999992 8.45758e-08 0)
(0.000999994 8.22041e-08 0)
(0.000999995 4.89117e-08 0)
(0.000999996 -7.20422e-09 0)
(0.000999992 -6.76997e-08 0)
(0.000999983 -1.20015e-07 0)
(0.00099997 -1.54453e-07 0)
(0.000999955 -1.7131e-07 0)
(0.00099994 -1.63816e-07 0)
(0.000999925 -1.48984e-07 0)
(0.000999917 -1.26365e-07 0)
(0.000999906 -1.39295e-07 0)
(0.000999902 -1.58713e-07 0)
(0.000999886 -2.53977e-07 0)
(0.000999883 -2.99952e-07 0)
(0.000999852 -4.83123e-07 0)
(0.001 -5.13754e-10 0)
(0.00099999 1.1666e-08 0)
(0.00099998 3.36627e-08 0)
(0.000999983 6.10097e-08 0)
(0.00099999 8.22206e-08 0)
(0.000999993 7.96941e-08 0)
(0.000999994 4.70762e-08 0)
(0.000999993 -6.33792e-09 0)
(0.000999987 -6.1588e-08 0)
(0.000999974 -1.10461e-07 0)
(0.000999958 -1.44e-07 0)
(0.000999939 -1.63105e-07 0)
(0.000999923 -1.61468e-07 0)
(0.000999904 -1.54554e-07 0)
(0.000999892 -1.3911e-07 0)
(0.000999873 -1.55482e-07 0)
(0.000999866 -1.74407e-07 0)
(0.00099984 -2.65203e-07 0)
(0.000999837 -3.07079e-07 0)
(0.00099979 -4.8342e-07 0)
(0.001 1.18554e-09 0)
(0.000999989 1.0419e-08 0)
(0.000999977 3.0074e-08 0)
(0.000999981 5.61259e-08 0)
(0.000999988 7.6904e-08 0)
(0.000999989 7.74442e-08 0)
(0.000999989 5.30368e-08 0)
(0.000999992 9.26255e-09 0)
(0.000999987 -4.18722e-08 0)
(0.000999969 -8.65538e-08 0)
(0.000999945 -1.14498e-07 0)
(0.000999917 -1.27656e-07 0)
(0.000999892 -1.20232e-07 0)
(0.000999867 -1.09088e-07 0)
(0.000999853 -8.94181e-08 0)
(0.000999835 -1.02189e-07 0)
(0.000999829 -1.15732e-07 0)
(0.000999799 -2.01886e-07 0)
(0.000999793 -2.37762e-07 0)
(0.000999737 -4.10516e-07 0)
(0.001 2.37285e-09 0)
(0.000999989 8.27741e-09 0)
(0.000999975 2.48514e-08 0)
(0.000999979 4.73009e-08 0)
(0.00099999 6.2659e-08 0)
(0.000999996 5.7728e-08 0)
(0.000999997 2.84725e-08 0)
(0.000999992 -1.8334e-08 0)
(0.00099998 -6.5686e-08 0)
(0.000999963 -1.07267e-07 0)
(0.000999941 -1.36288e-07 0)
(0.000999916 -1.54802e-07 0)
(0.000999893 -1.57187e-07 0)
(0.000999864 -1.57371e-07 0)
(0.000999845 -1.4874e-07 0)
(0.000999812 -1.67523e-07 0)
(0.000999801 -1.83334e-07 0)
(0.000999754 -2.64138e-07 0)
(0.000999751 -2.96774e-07 0)
(0.000999669 -4.57529e-07 0)
(0.001 5.89071e-09 0)
(0.000999988 1.30989e-08 0)
(0.000999972 3.01501e-08 0)
(0.000999973 5.39334e-08 0)
(0.000999979 7.41007e-08 0)
(0.000999978 7.88686e-08 0)
(0.000999976 6.52899e-08 0)
(0.00099998 3.89877e-08 0)
(0.000999977 9.32125e-09 0)
(0.000999953 -1.8291e-08 0)
(0.00099992 -3.46299e-08 0)
(0.000999883 -4.28215e-08 0)
(0.000999852 -3.67476e-08 0)
(0.000999819 -3.16277e-08 0)
(0.0009998 -1.63708e-08 0)
(0.000999771 -2.80399e-08 0)
(0.000999763 -3.13493e-08 0)
(0.000999717 -1.00905e-07 0)
(0.000999709 -1.19672e-07 0)
(0.000999624 -2.7258e-07 0)
(0.001 1.27447e-09 0)
(0.000999991 -2.74477e-09 0)
(0.000999975 1.83976e-10 0)
(0.00099998 8.08494e-09 0)
(0.000999995 1.21229e-08 0)
(0.001 4.17343e-09 0)
(0.00100001 -1.63775e-08 0)
(0.000999999 -4.71484e-08 0)
(0.000999982 -8.26968e-08 0)
(0.000999958 -1.14739e-07 0)
(0.000999932 -1.37049e-07 0)
(0.0009999 -1.52822e-07 0)
(0.000999872 -1.57061e-07 0)
(0.000999834 -1.62385e-07 0)
(0.00099981 -1.59611e-07 0)
(0.000999765 -1.79843e-07 0)
(0.000999752 -1.92006e-07 0)
(0.000999681 -2.59925e-07 0)
(0.000999678 -2.81433e-07 0)
(0.000999545 -4.21148e-07 0)
(0.001 7.65843e-09 0)
(0.000999988 1.94746e-08 0)
(0.000999968 3.69069e-08 0)
(0.000999967 5.72753e-08 0)
(0.000999974 7.35645e-08 0)
(0.000999972 8.17452e-08 0)
(0.00099997 8.01869e-08 0)
(0.000999972 7.13413e-08 0)
(0.000999967 6.47644e-08 0)
(0.000999941 6.04818e-08 0)
(0.000999906 6.11205e-08 0)
(0.000999865 6.25758e-08 0)
(0.000999832 6.95764e-08 0)
(0.000999793 7.18161e-08 0)
(0.000999771 8.33371e-08 0)
(0.000999729 7.75477e-08 0)
(0.000999718 8.87996e-08 0)
(0.000999648 5.14405e-08 0)
(0.000999639 5.94129e-08 0)
(0.00099951 -5.01308e-08 0)
(0.001 -7.30084e-09 0)
(0.000999993 -2.27585e-08 0)
(0.000999974 -3.52149e-08 0)
(0.000999977 -4.54431e-08 0)
(0.00099999 -5.47774e-08 0)
(0.000999995 -6.36029e-08 0)
(0.000999996 -7.32785e-08 0)
(0.000999991 -8.46667e-08 0)
(0.000999979 -9.96627e-08 0)
(0.000999951 -1.16181e-07 0)
(0.000999921 -1.297e-07 0)
(0.000999881 -1.42571e-07 0)
(0.000999853 -1.49308e-07 0)
(0.000999805 -1.57812e-07 0)
(0.000999786 -1.58623e-07 0)
(0.000999727 -1.74803e-07 0)
(0.000999726 -1.80726e-07 0)
(0.000999619 -2.27131e-07 0)
(0.000999632 -2.34057e-07 0)
(0.000999408 -3.37404e-07 0)
)
;

boundaryField
{
    sides
    {
        type            slip;
    }
    inlet
    {
        type            fixedValue;
        value           uniform (0.001 0 0);
    }
    outlet
    {
        type            zeroGradient;
    }
    frontAndBack
    {
        type            empty;
    }
}


// ************************************************************************* //
