/*--------------------------------*- C++ -*----------------------------------*\
  =========                 |
  \\      /  F ield         | OpenFOAM: The Open Source CFD Toolbox
   \\    /   O peration     | Website:  https://openfoam.org
    \\  /    A nd           | Version:  7
     \\/     M anipulation  |
\*---------------------------------------------------------------------------*/
FoamFile
{
    version     2.0;
    format      ascii;
    class       surfaceScalarField;
    location    "11";
    object      phi;
}
// * * * * * * * * * * * * * * * * * * * * * * * * * * * * * * * * * * * * * //

dimensions      [0 4 -1 0 0 0 0];

internalField   nonuniform List<scalar> 
760
(
5.00004e-06
2.49137e-11
5.00008e-06
1.76042e-11
5.00011e-06
3.14263e-11
5.00011e-06
6.81559e-11
5.00007e-06
9.458e-11
5.00003e-06
9.60284e-11
5.00002e-06
5.87504e-11
5.00007e-06
-2.25916e-12
5.00017e-06
-4.99624e-11
5.0003e-06
-9.38764e-11
5.00046e-06
-1.23298e-10
5.00065e-06
-1.49976e-10
5.00083e-06
-1.53317e-10
5.00102e-06
-1.69387e-10
5.00118e-06
-1.47361e-10
5.00138e-06
-1.90848e-10
5.00156e-06
-1.7358e-10
5.00192e-06
-3.53319e-10
5.00227e-06
-3.52181e-10
-8.87983e-10
5.00006e-06
1.63348e-11
5.00011e-06
2.64931e-11
5.00015e-06
5.93371e-11
5.00016e-06
1.11565e-10
5.00016e-06
1.55026e-10
5.00015e-06
1.59154e-10
5.00014e-06
1.16396e-10
5.00015e-06
3.94717e-11
5.00022e-06
-8.12404e-11
5.00036e-06
-1.99153e-10
5.00054e-06
-2.70365e-10
5.00073e-06
-3.17359e-10
5.00092e-06
-3.11726e-10
5.00109e-06
-3.19558e-10
5.00123e-06
-2.74542e-10
5.0014e-06
-3.40851e-10
5.00156e-06
-3.32563e-10
5.00183e-06
-6.10472e-10
5.00211e-06
-6.31016e-10
-1.23854e-09
5.00004e-06
3.36401e-11
5.00008e-06
4.36426e-11
5.0001e-06
9.27292e-11
5.00008e-06
1.77212e-10
5.00003e-06
2.50095e-10
4.99998e-06
2.55614e-10
4.99996e-06
1.74233e-10
5.00004e-06
2.82374e-12
5.00014e-06
-1.33617e-10
5.00025e-06
-2.74761e-10
5.00039e-06
-3.73466e-10
5.00055e-06
-4.41104e-10
5.00072e-06
-4.48837e-10
5.00088e-06
-4.57958e-10
5.00105e-06
-4.16805e-10
5.00121e-06
-4.83389e-10
5.0014e-06
-5.03592e-10
5.00161e-06
-8.19229e-10
5.00189e-06
-9.05741e-10
-1.66243e-09
5.00006e-06
2.19094e-11
5.0001e-06
4.45422e-11
5.00012e-06
1.06089e-10
5.00013e-06
2.05961e-10
5.00013e-06
2.94885e-10
5.00012e-06
2.9958e-10
5.00012e-06
2.02151e-10
5.0001e-06
4.23935e-11
5.00017e-06
-1.7728e-10
5.0003e-06
-3.7507e-10
5.00046e-06
-5.08643e-10
5.00064e-06
-5.905e-10
5.00081e-06
-5.87456e-10
5.00095e-06
-5.7514e-10
5.00107e-06
-5.04374e-10
5.00118e-06
-5.7105e-10
5.00129e-06
-6.01743e-10
5.00147e-06
-9.77143e-10
5.00166e-06
-1.09248e-09
-1.85457e-09
5.00005e-06
1.00911e-11
5.00009e-06
4.24003e-11
5.0001e-06
1.23818e-10
5.00009e-06
2.43782e-10
5.00005e-06
3.43792e-10
5.00001e-06
3.54416e-10
5e-06
2.3838e-10
5.00007e-06
6.19459e-12
5.00014e-06
-2.15984e-10
5.00023e-06
-4.35558e-10
5.00034e-06
-5.89322e-10
5.00046e-06
-6.82908e-10
5.0006e-06
-6.85898e-10
5.00072e-06
-6.695e-10
5.00085e-06
-5.99642e-10
5.00097e-06
-6.63056e-10
5.0011e-06
-7.11103e-10
5.00125e-06
-1.10312e-09
5.00142e-06
-1.25292e-09
-2.11102e-09
5.00005e-06
-2.35636e-12
5.00008e-06
3.81999e-11
5.00009e-06
1.31282e-10
5.00009e-06
2.59215e-10
5.00007e-06
3.69097e-10
5.00005e-06
3.80969e-10
5.00004e-06
2.59039e-10
5.00004e-06
3.05906e-11
5.0001e-06
-2.55208e-10
5.0002e-06
-5.06052e-10
5.00032e-06
-6.8174e-10
5.00046e-06
-7.84835e-10
5.00059e-06
-7.79546e-10
5.0007e-06
-7.4242e-10
5.00078e-06
-6.47873e-10
5.00085e-06
-7.06086e-10
5.00093e-06
-7.63877e-10
5.00104e-06
-1.19391e-09
5.00117e-06
-1.37298e-09
-2.23368e-09
5.00004e-06
-1.65612e-11
5.00007e-06
3.35882e-11
5.00008e-06
1.34223e-10
5.00007e-06
2.66525e-10
5.00005e-06
3.84514e-10
5.00003e-06
4.00304e-10
5.00002e-06
2.65138e-10
5.00004e-06
6.98549e-12
5.00009e-06
-2.86342e-10
5.00016e-06
-5.50519e-10
5.00024e-06
-7.35883e-10
5.00033e-06
-8.42983e-10
5.00043e-06
-8.36809e-10
5.00051e-06
-7.92469e-10
5.00059e-06
-6.93617e-10
5.00066e-06
-7.49112e-10
5.00073e-06
-8.17021e-10
5.00082e-06
-1.26114e-09
5.00091e-06
-1.45875e-09
-2.3734e-09
5.00004e-06
-2.9011e-11
5.00006e-06
2.64654e-11
5.00006e-06
1.35243e-10
5.00005e-06
2.72422e-10
5.00004e-06
3.94102e-10
5.00002e-06
4.09926e-10
5.00001e-06
2.68181e-10
5.00002e-06
1.91049e-14
5.00006e-06
-3.05376e-10
5.00011e-06
-5.82635e-10
5.00018e-06
-7.79554e-10
5.00026e-06
-8.9363e-10
5.00033e-06
-8.84796e-10
5.00039e-06
-8.29399e-10
5.00044e-06
-7.17826e-10
5.00049e-06
-7.69104e-10
5.00053e-06
-8.42887e-10
5.00059e-06
-1.30507e-09
5.00066e-06
-1.52128e-09
-2.44499e-09
5.00002e-06
-3.6657e-11
5.00004e-06
2.26167e-11
5.00004e-06
1.34382e-10
5.00003e-06
2.7196e-10
5.00002e-06
3.9672e-10
5.00001e-06
4.15014e-10
5.00001e-06
2.71646e-10
5.00001e-06
-5.34606e-12
5.00004e-06
-3.19293e-10
5.00007e-06
-6.03114e-10
5.00011e-06
-8.04737e-10
5.00016e-06
-9.19702e-10
5.0002e-06
-9.08044e-10
5.00023e-06
-8.47315e-10
5.00026e-06
-7.31854e-10
5.00029e-06
-7.8218e-10
5.00032e-06
-8.60835e-10
5.00035e-06
-1.33189e-09
5.00039e-06
-1.55679e-09
-2.49783e-09
5.00001e-06
-3.8971e-11
5.00001e-06
2.22686e-11
5.00001e-06
1.33659e-10
5.00001e-06
2.71092e-10
5.00001e-06
3.96016e-10
5e-06
4.16131e-10
5e-06
2.72192e-10
5.00001e-06
-7.38654e-12
5.00001e-06
-3.2337e-10
5.00002e-06
-6.0885e-10
5.00004e-06
-8.11518e-10
5.00005e-06
-9.27735e-10
5.00007e-06
-9.1682e-10
5.00008e-06
-8.54971e-10
5.00009e-06
-7.37297e-10
5.0001e-06
-7.86275e-10
5.00011e-06
-8.65956e-10
5.00012e-06
-1.34025e-09
5.00013e-06
-1.569e-09
-2.51255e-09
4.99999e-06
-3.66509e-11
4.99999e-06
2.26384e-11
4.99999e-06
1.34383e-10
4.99999e-06
2.71928e-10
4.99999e-06
3.96685e-10
5e-06
4.15013e-10
5e-06
2.7169e-10
4.99999e-06
-5.31704e-12
4.99999e-06
-3.19279e-10
4.99998e-06
-6.03108e-10
4.99996e-06
-8.04725e-10
4.99995e-06
-9.19673e-10
4.99994e-06
-9.08008e-10
4.99992e-06
-8.47271e-10
4.99991e-06
-7.31825e-10
4.9999e-06
-7.8215e-10
4.99989e-06
-8.60842e-10
4.99988e-06
-1.33187e-09
4.99987e-06
-1.55681e-09
-2.49774e-09
4.99998e-06
-2.9006e-11
4.99996e-06
2.64985e-11
4.99996e-06
1.35241e-10
4.99997e-06
2.72373e-10
4.99998e-06
3.94052e-10
4.99999e-06
4.09938e-10
4.99999e-06
2.68255e-10
4.99999e-06
8.25916e-14
4.99996e-06
-3.05342e-10
4.99993e-06
-5.82613e-10
4.99989e-06
-7.79524e-10
4.99984e-06
-8.93572e-10
4.9998e-06
-8.8473e-10
4.99977e-06
-8.29316e-10
4.99974e-06
-7.17772e-10
4.99971e-06
-7.69042e-10
4.99968e-06
-8.42897e-10
4.99965e-06
-1.30502e-09
4.99961e-06
-1.5213e-09
-2.44486e-09
4.99996e-06
-1.65555e-11
4.99994e-06
3.36244e-11
4.99994e-06
1.3422e-10
4.99995e-06
2.66476e-10
4.99996e-06
3.84477e-10
4.99998e-06
4.00345e-10
4.99999e-06
2.65251e-10
4.99998e-06
7.09441e-12
4.99994e-06
-2.86285e-10
4.99989e-06
-5.50488e-10
4.99982e-06
-7.35848e-10
4.99974e-06
-8.42909e-10
4.99967e-06
-8.36722e-10
4.99961e-06
-7.92356e-10
4.99956e-06
-6.93548e-10
4.99951e-06
-7.49029e-10
4.99947e-06
-8.17042e-10
4.99941e-06
-1.26107e-09
4.99935e-06
-1.45882e-09
-2.37315e-09
4.99995e-06
-2.35276e-12
4.99993e-06
3.82283e-11
4.99992e-06
1.31279e-10
4.99993e-06
2.59167e-10
4.99995e-06
3.69061e-10
4.99997e-06
3.81036e-10
4.99998e-06
2.59183e-10
4.99996e-06
3.07227e-11
4.99991e-06
-2.55126e-10
4.99984e-06
-5.06001e-10
4.99976e-06
-6.81689e-10
4.99967e-06
-7.84737e-10
4.99957e-06
-7.79433e-10
4.99949e-06
-7.42274e-10
4.99941e-06
-6.4778e-10
4.99934e-06
-7.05972e-10
4.99927e-06
-7.63891e-10
4.99919e-06
-1.19382e-09
4.99909e-06
-1.37304e-09
-2.23343e-09
4.99995e-06
1.00907e-11
4.99992e-06
4.2427e-11
4.99991e-06
1.23815e-10
4.99991e-06
2.43726e-10
4.99993e-06
3.43764e-10
4.99995e-06
3.54503e-10
4.99996e-06
2.38552e-10
4.99996e-06
6.35538e-12
4.9999e-06
-2.15892e-10
4.9998e-06
-4.35507e-10
4.99968e-06
-5.8928e-10
4.99954e-06
-6.82817e-10
4.99941e-06
-6.85802e-10
4.9993e-06
-6.69364e-10
4.99922e-06
-5.99573e-10
4.99915e-06
-6.62945e-10
4.99907e-06
-7.11147e-10
4.99896e-06
-1.10301e-09
4.99883e-06
-1.25302e-09
-2.1107e-09
4.99995e-06
2.19067e-11
4.99991e-06
4.45616e-11
4.9999e-06
1.06083e-10
4.99991e-06
2.05921e-10
4.99994e-06
2.9488e-10
4.99999e-06
2.99684e-10
5e-06
2.0232e-10
4.99993e-06
4.25504e-11
4.99986e-06
-1.77174e-10
4.99977e-06
-3.75003e-10
4.99966e-06
-5.08579e-10
4.99954e-06
-5.90375e-10
4.9994e-06
-5.87329e-10
4.99928e-06
-5.74963e-10
4.99915e-06
-5.04278e-10
4.99903e-06
-5.70904e-10
4.9989e-06
-6.01771e-10
4.99875e-06
-9.77003e-10
4.99858e-06
-1.09256e-09
-1.8542e-09
4.99994e-06
3.36463e-11
4.9999e-06
4.36485e-11
4.99988e-06
9.27124e-11
4.99987e-06
1.77164e-10
4.99987e-06
2.50084e-10
4.99988e-06
2.55699e-10
4.99988e-06
1.74408e-10
4.9999e-06
2.95026e-12
4.99983e-06
-1.3355e-10
4.9997e-06
-2.74724e-10
4.99954e-06
-3.73448e-10
4.99936e-06
-4.41042e-10
4.99919e-06
-4.48789e-10
4.99905e-06
-4.57857e-10
4.99893e-06
-4.1678e-10
4.99882e-06
-4.83287e-10
4.99871e-06
-5.03667e-10
4.99854e-06
-8.19121e-10
4.99834e-06
-9.05901e-10
-1.66219e-09
4.99996e-06
1.63413e-11
4.99992e-06
2.64831e-11
4.9999e-06
5.93359e-11
4.99992e-06
1.11559e-10
4.99997e-06
1.55045e-10
5.00002e-06
1.59231e-10
5.00004e-06
1.16496e-10
4.99996e-06
3.95774e-11
4.99986e-06
-8.11593e-11
4.99975e-06
-1.99095e-10
4.99961e-06
-2.70318e-10
4.99945e-06
-3.17252e-10
4.99928e-06
-3.11643e-10
4.99912e-06
-3.19409e-10
4.99895e-06
-2.74501e-10
4.99879e-06
-3.40713e-10
4.9986e-06
-3.32638e-10
4.99839e-06
-6.10306e-10
4.99811e-06
-6.31106e-10
-1.23816e-09
4.99994e-06
2.4904e-11
4.99989e-06
1.7588e-11
4.99985e-06
3.13877e-11
4.99984e-06
6.81196e-11
4.99984e-06
9.45538e-11
4.99985e-06
9.60462e-11
4.99986e-06
5.87785e-11
4.99985e-06
-2.2658e-12
4.99978e-06
-4.99965e-11
4.99964e-06
-9.39148e-11
4.99946e-06
-1.2335e-10
4.99927e-06
-1.50005e-10
4.99908e-06
-1.53361e-10
4.99891e-06
-1.69391e-10
4.99877e-06
-1.47406e-10
4.99861e-06
-1.9084e-10
4.99844e-06
-1.73681e-10
4.99818e-06
-3.53349e-10
4.9979e-06
-3.52387e-10
-8.88104e-10
4.99996e-06
4.99992e-06
4.99989e-06
4.99989e-06
4.99993e-06
4.99997e-06
4.99998e-06
4.99993e-06
4.99983e-06
4.9997e-06
4.99954e-06
4.99935e-06
4.99917e-06
4.99898e-06
4.99882e-06
4.99862e-06
4.99844e-06
4.99808e-06
4.99773e-06
)
;

boundaryField
{
    sides
    {
        type            calculated;
        value           uniform 0;
    }
    inlet
    {
        type            calculated;
        value           nonuniform List<scalar> 
20
(
-5e-06
-5e-06
-5e-06
-5e-06
-5e-06
-5e-06
-5e-06
-5e-06
-5e-06
-5e-06
-5e-06
-5e-06
-5e-06
-5e-06
-5e-06
-5e-06
-5e-06
-5e-06
-5e-06
-5e-06
)
;
    }
    outlet
    {
        type            calculated;
        value           nonuniform List<scalar> 
20
(
5.00316e-06
5.00246e-06
5.00232e-06
5.00185e-06
5.00168e-06
5.00129e-06
5.00105e-06
5.00073e-06
5.00045e-06
5.00015e-06
4.99985e-06
4.99955e-06
4.99927e-06
4.99895e-06
4.99871e-06
4.99832e-06
4.99815e-06
4.99768e-06
4.99755e-06
4.99684e-06
)
;
    }
    frontAndBack
    {
        type            empty;
        value           nonuniform 0();
    }
}


// ************************************************************************* //
