/*--------------------------------*- C++ -*----------------------------------*\
  =========                 |
  \\      /  F ield         | OpenFOAM: The Open Source CFD Toolbox
   \\    /   O peration     | Website:  https://openfoam.org
    \\  /    A nd           | Version:  7
     \\/     M anipulation  |
\*---------------------------------------------------------------------------*/
FoamFile
{
    version     2.0;
    format      ascii;
    class       surfaceScalarField;
    location    "11";
    object      phi_0;
}
// * * * * * * * * * * * * * * * * * * * * * * * * * * * * * * * * * * * * * //

dimensions      [0 4 -1 0 0 0 0];

internalField   nonuniform List<scalar> 
760
(
5.00003e-06
2.23958e-11
5.00008e-06
1.53196e-11
5.0001e-06
3.34002e-11
5.0001e-06
7.34506e-11
5.00005e-06
9.7581e-11
5.00002e-06
9.6358e-11
5.00002e-06
5.64869e-11
5.00008e-06
-4.82011e-12
5.00018e-06
-5.00898e-11
5.00032e-06
-9.06193e-11
5.00048e-06
-1.16646e-10
5.00067e-06
-1.40673e-10
5.00084e-06
-1.41317e-10
5.00103e-06
-1.55622e-10
5.00118e-06
-1.34145e-10
5.00138e-06
-1.8033e-10
5.00156e-06
-1.68999e-10
5.00192e-06
-3.53682e-10
5.00228e-06
-3.58268e-10
-8.94148e-10
5.00006e-06
1.15167e-11
5.00011e-06
2.61828e-11
5.00014e-06
6.33953e-11
5.00015e-06
1.20977e-10
5.00015e-06
1.63109e-10
5.00014e-06
1.61567e-10
5.00014e-06
1.09921e-10
5.00015e-06
3.53717e-11
5.00023e-06
-8.89742e-11
5.00038e-06
-1.98831e-10
5.00056e-06
-2.60594e-10
5.00076e-06
-2.99191e-10
5.00093e-06
-2.87461e-10
5.0011e-06
-2.92537e-10
5.00123e-06
-2.49149e-10
5.00139e-06
-3.2265e-10
5.00156e-06
-3.25664e-10
5.00183e-06
-6.12697e-10
5.00212e-06
-6.42529e-10
-1.24936e-09
5.00004e-06
2.82756e-11
5.00008e-06
4.04424e-11
5.00009e-06
1.0416e-10
5.00007e-06
1.94502e-10
5.00002e-06
2.64112e-10
4.99997e-06
2.54676e-10
4.99997e-06
1.67209e-10
5.00005e-06
-4.01789e-12
5.00015e-06
-1.37291e-10
5.00027e-06
-2.70444e-10
5.00041e-06
-3.59605e-10
5.00057e-06
-4.17578e-10
5.00073e-06
-4.17631e-10
5.00089e-06
-4.22786e-10
5.00105e-06
-3.84321e-10
5.00121e-06
-4.59659e-10
5.0014e-06
-4.95107e-10
5.00162e-06
-8.22575e-10
5.00191e-06
-9.2206e-10
-1.67803e-09
5.00006e-06
1.77904e-11
5.0001e-06
4.63272e-11
5.00012e-06
1.19767e-10
5.00013e-06
2.26598e-10
5.00012e-06
3.09438e-10
5.00011e-06
3.09205e-10
5.00011e-06
2.00294e-10
5.0001e-06
3.36884e-11
5.00018e-06
-1.88823e-10
5.00032e-06
-3.75934e-10
5.00048e-06
-4.95484e-10
5.00066e-06
-5.63456e-10
5.00082e-06
-5.49013e-10
5.00096e-06
-5.30827e-10
5.00106e-06
-4.63612e-10
5.00117e-06
-5.43287e-10
5.00129e-06
-5.94212e-10
5.00147e-06
-9.84433e-10
5.00167e-06
-1.11504e-09
-1.8746e-09
5.00006e-06
9.78981e-12
5.00009e-06
4.95018e-11
5.0001e-06
1.45626e-10
5.00009e-06
2.74037e-10
5.00005e-06
3.6814e-10
5.00001e-06
3.58024e-10
5.00001e-06
2.20534e-10
5.00008e-06
-9.64829e-12
5.00015e-06
-2.32255e-10
5.00024e-06
-4.40445e-10
5.00035e-06
-5.79098e-10
5.00048e-06
-6.56826e-10
5.00061e-06
-6.46592e-10
5.00073e-06
-6.22994e-10
5.00085e-06
-5.56761e-10
5.00097e-06
-6.33802e-10
5.00111e-06
-7.04088e-10
5.00125e-06
-1.11258e-09
5.00143e-06
-1.27945e-09
-2.13435e-09
5.00005e-06
2.18589e-12
5.00008e-06
5.73285e-11
5.00009e-06
1.61937e-10
5.00009e-06
2.9275e-10
5.00007e-06
3.94586e-10
5.00005e-06
3.85611e-10
5.00004e-06
2.45509e-10
5.00005e-06
-4.78524e-12
5.00011e-06
-2.81536e-10
5.00022e-06
-5.19583e-10
5.00034e-06
-6.77219e-10
5.00048e-06
-7.60846e-10
5.0006e-06
-7.38323e-10
5.0007e-06
-6.91568e-10
5.00078e-06
-6.01076e-10
5.00085e-06
-6.75599e-10
5.00093e-06
-7.58914e-10
5.00104e-06
-1.20702e-09
5.00118e-06
-1.4044e-09
-2.26036e-09
5.00005e-06
-6.32443e-12
5.00007e-06
6.1586e-11
5.00008e-06
1.74304e-10
5.00007e-06
3.09971e-10
5.00005e-06
4.14756e-10
5.00003e-06
4.04284e-10
5.00002e-06
2.40961e-10
5.00005e-06
-3.12347e-11
5.0001e-06
-3.21191e-10
5.00017e-06
-5.71371e-10
5.00025e-06
-7.36965e-10
5.00034e-06
-8.22458e-10
5.00043e-06
-7.96618e-10
5.00051e-06
-7.40873e-10
5.00059e-06
-6.45595e-10
5.00066e-06
-7.17901e-10
5.00073e-06
-8.12797e-10
5.00082e-06
-1.27629e-09
5.00092e-06
-1.4934e-09
-2.40219e-09
5.00004e-06
-1.27098e-11
5.00006e-06
6.33647e-11
5.00006e-06
1.81626e-10
5.00006e-06
3.19272e-10
5.00004e-06
4.26953e-10
5.00002e-06
4.14012e-10
5.00002e-06
2.41758e-10
5.00003e-06
-4.35502e-11
5.00006e-06
-3.47595e-10
5.00012e-06
-6.10583e-10
5.00019e-06
-7.86589e-10
5.00026e-06
-8.76105e-10
5.00034e-06
-8.44498e-10
5.0004e-06
-7.75807e-10
5.00044e-06
-6.67631e-10
5.00048e-06
-7.3691e-10
5.00053e-06
-8.39474e-10
5.00059e-06
-1.32209e-09
5.00066e-06
-1.55864e-09
-2.47583e-09
5.00003e-06
-1.69198e-11
5.00004e-06
6.65879e-11
5.00004e-06
1.86818e-10
5.00003e-06
3.22638e-10
5.00002e-06
4.30539e-10
5.00001e-06
4.17449e-10
5.00001e-06
2.41282e-10
5.00002e-06
-5.39124e-11
5.00004e-06
-3.66661e-10
5.00007e-06
-6.36068e-10
5.00012e-06
-8.15465e-10
5.00016e-06
-9.04099e-10
5.0002e-06
-8.68289e-10
5.00023e-06
-7.93304e-10
5.00026e-06
-6.80844e-10
5.00029e-06
-7.49517e-10
5.00032e-06
-8.57795e-10
5.00035e-06
-1.34975e-09
5.0004e-06
-1.59531e-09
-2.52932e-09
5.00001e-06
-1.83952e-11
5.00001e-06
6.86483e-11
5.00001e-06
1.89282e-10
5.00001e-06
3.2392e-10
5.00001e-06
4.31008e-10
5e-06
4.17844e-10
5e-06
2.4044e-10
5.00001e-06
-5.74926e-11
5.00001e-06
-3.72623e-10
5.00002e-06
-6.43251e-10
5.00004e-06
-8.23515e-10
5.00005e-06
-9.1319e-10
5.00007e-06
-8.77327e-10
5.00008e-06
-8.0045e-10
5.00009e-06
-6.85699e-10
5.0001e-06
-7.53557e-10
5.00011e-06
-8.63386e-10
5.00012e-06
-1.35858e-09
5.00013e-06
-1.6078e-09
-2.54429e-09
4.99999e-06
-1.69007e-11
4.99999e-06
6.66199e-11
4.99999e-06
1.86824e-10
4.99999e-06
3.22611e-10
4.99999e-06
4.30515e-10
5e-06
4.17451e-10
5e-06
2.41322e-10
4.99999e-06
-5.38923e-11
4.99999e-06
-3.66652e-10
4.99998e-06
-6.36062e-10
4.99996e-06
-8.15453e-10
4.99995e-06
-9.04071e-10
4.99993e-06
-8.68258e-10
4.99992e-06
-7.93266e-10
4.99991e-06
-6.80823e-10
4.9999e-06
-7.49495e-10
4.99989e-06
-8.57807e-10
4.99988e-06
-1.34973e-09
4.99987e-06
-1.59532e-09
-2.52923e-09
4.99997e-06
-1.26865e-11
4.99996e-06
6.34142e-11
4.99996e-06
1.81632e-10
4.99997e-06
3.19228e-10
4.99998e-06
4.26915e-10
4.99999e-06
4.14035e-10
4.99999e-06
2.41828e-10
4.99998e-06
-4.34993e-11
4.99996e-06
-3.47572e-10
4.99993e-06
-6.10566e-10
4.99988e-06
-7.8656e-10
4.99984e-06
-8.76051e-10
4.9998e-06
-8.4444e-10
4.99977e-06
-7.75736e-10
4.99974e-06
-6.67592e-10
4.99971e-06
-7.36865e-10
4.99968e-06
-8.39495e-10
4.99965e-06
-1.32205e-09
4.9996e-06
-1.55866e-09
-2.47568e-09
4.99996e-06
-6.30018e-12
4.99994e-06
6.16368e-11
4.99994e-06
1.74304e-10
4.99994e-06
3.09925e-10
4.99996e-06
4.1473e-10
4.99998e-06
4.04339e-10
4.99998e-06
2.41077e-10
4.99997e-06
-3.11419e-11
4.99994e-06
-3.21153e-10
4.99988e-06
-5.71352e-10
4.99981e-06
-7.36936e-10
4.99974e-06
-8.22388e-10
4.99966e-06
-7.9654e-10
4.9996e-06
-7.40777e-10
4.99956e-06
-6.45546e-10
4.99952e-06
-7.17838e-10
4.99947e-06
-8.12832e-10
4.99941e-06
-1.27624e-09
4.99934e-06
-1.49346e-09
-2.40192e-09
4.99995e-06
2.20482e-12
4.99993e-06
5.73668e-11
4.99992e-06
1.61926e-10
4.99993e-06
2.92703e-10
4.99995e-06
3.94563e-10
4.99997e-06
3.8569e-10
4.99998e-06
2.45651e-10
4.99995e-06
-4.65559e-12
4.9999e-06
-2.81472e-10
4.99983e-06
-5.19545e-10
4.99975e-06
-6.77174e-10
4.99966e-06
-7.60751e-10
4.99957e-06
-7.38219e-10
4.99949e-06
-6.91438e-10
4.99941e-06
-6.01003e-10
4.99934e-06
-6.75508e-10
4.99927e-06
-7.58945e-10
4.99918e-06
-1.20694e-09
4.99908e-06
-1.40445e-09
-2.26009e-09
4.99995e-06
9.79604e-12
4.99992e-06
4.95306e-11
4.99991e-06
1.45609e-10
4.99991e-06
2.73973e-10
4.99993e-06
3.68113e-10
4.99995e-06
3.58115e-10
4.99996e-06
2.20696e-10
4.99995e-06
-9.53939e-12
4.99989e-06
-2.32185e-10
4.99979e-06
-4.40408e-10
4.99966e-06
-5.7906e-10
4.99952e-06
-6.56738e-10
4.9994e-06
-6.46502e-10
4.9993e-06
-6.22872e-10
4.99922e-06
-5.5671e-10
4.99915e-06
-6.33712e-10
4.99907e-06
-7.04147e-10
4.99896e-06
-1.11248e-09
4.99882e-06
-1.27954e-09
-2.134e-09
4.99994e-06
1.77922e-11
4.99991e-06
4.63382e-11
4.9999e-06
1.19745e-10
4.99991e-06
2.26544e-10
4.99995e-06
3.09438e-10
4.99999e-06
3.09311e-10
4.99999e-06
2.00461e-10
4.99992e-06
3.37877e-11
4.99985e-06
-1.88744e-10
4.99976e-06
-3.75877e-10
4.99965e-06
-4.9542e-10
4.99952e-06
-5.63332e-10
4.99939e-06
-5.48891e-10
4.99927e-06
-5.30662e-10
4.99915e-06
-4.63533e-10
4.99903e-06
-5.43161e-10
4.99889e-06
-5.94252e-10
4.99875e-06
-9.84298e-10
4.99857e-06
-1.1151e-09
-1.87421e-09
4.99994e-06
2.82617e-11
4.9999e-06
4.04338e-11
4.99988e-06
1.04122e-10
4.99987e-06
1.94441e-10
4.99988e-06
2.64098e-10
4.99989e-06
2.5477e-10
4.99989e-06
1.6737e-10
4.9999e-06
-3.90142e-12
4.99982e-06
-1.37237e-10
4.99968e-06
-2.70417e-10
4.99952e-06
-3.5959e-10
4.99934e-06
-4.17518e-10
4.99918e-06
-4.17586e-10
4.99904e-06
-4.22693e-10
4.99894e-06
-3.84306e-10
4.99883e-06
-4.59571e-10
4.99871e-06
-4.95191e-10
4.99853e-06
-8.22473e-10
4.99833e-06
-9.22214e-10
-1.67776e-09
4.99996e-06
1.15022e-11
4.99992e-06
2.61691e-11
4.99991e-06
6.33795e-11
4.99993e-06
1.20959e-10
4.99998e-06
1.63126e-10
5.00003e-06
1.61647e-10
5.00003e-06
1.1002e-10
4.99995e-06
3.54277e-11
4.99985e-06
-8.89083e-11
4.99973e-06
-1.98777e-10
4.99959e-06
-2.60546e-10
4.99943e-06
-2.99084e-10
4.99927e-06
-2.87381e-10
4.99911e-06
-2.92396e-10
4.99895e-06
-2.4912e-10
4.99879e-06
-3.22525e-10
4.9986e-06
-3.25746e-10
4.99838e-06
-6.12533e-10
4.99809e-06
-6.42609e-10
-1.24895e-09
4.99994e-06
2.23865e-11
4.99989e-06
1.52971e-11
4.99986e-06
3.33535e-11
4.99985e-06
7.34087e-11
4.99985e-06
9.75597e-11
4.99986e-06
9.6374e-11
4.99986e-06
5.65181e-11
4.99985e-06
-4.83056e-12
4.99977e-06
-5.01234e-11
4.99962e-06
-9.06634e-11
4.99944e-06
-1.16696e-10
4.99924e-06
-1.40705e-10
4.99907e-06
-1.41361e-10
4.9989e-06
-1.55627e-10
4.99877e-06
-1.34192e-10
4.99861e-06
-1.80328e-10
4.99844e-06
-1.69105e-10
4.99817e-06
-3.53718e-10
4.99788e-06
-3.58478e-10
-8.94257e-10
4.99997e-06
4.99992e-06
4.9999e-06
4.9999e-06
4.99995e-06
4.99998e-06
4.99998e-06
4.99992e-06
4.99982e-06
4.99968e-06
4.99952e-06
4.99933e-06
4.99916e-06
4.99897e-06
4.99882e-06
4.99862e-06
4.99844e-06
4.99808e-06
4.99772e-06
)
;

boundaryField
{
    sides
    {
        type            calculated;
        value           uniform 0;
    }
    inlet
    {
        type            calculated;
        value           nonuniform List<scalar> 
20
(
-5e-06
-5e-06
-5e-06
-5e-06
-5e-06
-5e-06
-5e-06
-5e-06
-5e-06
-5e-06
-5e-06
-5e-06
-5e-06
-5e-06
-5e-06
-5e-06
-5e-06
-5e-06
-5e-06
-5e-06
)
;
    }
    outlet
    {
        type            calculated;
        value           nonuniform List<scalar> 
20
(
5.00318e-06
5.00247e-06
5.00234e-06
5.00187e-06
5.00169e-06
5.00131e-06
5.00106e-06
5.00074e-06
5.00045e-06
5.00015e-06
4.99985e-06
4.99955e-06
4.99926e-06
4.99894e-06
4.99869e-06
4.99831e-06
4.99813e-06
4.99766e-06
4.99753e-06
4.99682e-06
)
;
    }
    frontAndBack
    {
        type            empty;
        value           nonuniform 0();
    }
}


// ************************************************************************* //
