/*--------------------------------*- C++ -*----------------------------------*\
  =========                 |
  \\      /  F ield         | OpenFOAM: The Open Source CFD Toolbox
   \\    /   O peration     | Website:  https://openfoam.org
    \\  /    A nd           | Version:  7
     \\/     M anipulation  |
\*---------------------------------------------------------------------------*/
FoamFile
{
    version     2.0;
    format      ascii;
    class       volVectorField;
    location    "11";
    object      U;
}
// * * * * * * * * * * * * * * * * * * * * * * * * * * * * * * * * * * * * * //

dimensions      [0 1 -1 0 0 0 0];

internalField   nonuniform List<vector> 
400
(
(0.0999924 -7.13624e-07 0)
(0.0999938 -2.24168e-06 0)
(0.099996 -3.51515e-06 0)
(0.0999963 -4.57336e-06 0)
(0.0999951 -5.51991e-06 0)
(0.0999948 -6.39406e-06 0)
(0.0999949 -7.35885e-06 0)
(0.0999954 -8.4619e-06 0)
(0.0999966 -9.93687e-06 0)
(0.0999995 -1.16232e-05 0)
(0.100003 -1.30268e-05 0)
(0.100007 -1.43824e-05 0)
(0.10001 -1.51415e-05 0)
(0.100015 -1.60587e-05 0)
(0.100017 -1.6139e-05 0)
(0.100024 -1.76698e-05 0)
(0.100024 -1.81002e-05 0)
(0.100036 -2.26286e-05 0)
(0.100035 -2.32037e-05 0)
(0.100058 -3.36217e-05 0)
(0.0999936 8.38023e-07 0)
(0.0999955 2.01236e-06 0)
(0.0999979 3.63081e-06 0)
(0.0999984 5.59021e-06 0)
(0.0999979 7.25592e-06 0)
(0.0999983 8.17892e-06 0)
(0.0999987 8.10657e-06 0)
(0.0999986 7.23645e-06 0)
(0.099999 6.47029e-06 0)
(0.100002 5.92735e-06 0)
(0.100005 5.89038e-06 0)
(0.10001 5.95963e-06 0)
(0.100013 6.61655e-06 0)
(0.100017 6.81889e-06 0)
(0.10002 7.98564e-06 0)
(0.100025 7.46074e-06 0)
(0.100026 8.70551e-06 0)
(0.100034 5.08882e-06 0)
(0.100035 6.02515e-06 0)
(0.100048 -4.86456e-06 0)
(0.0999942 2.25678e-07 0)
(0.0999958 -1.912e-07 0)
(0.0999978 -1.05426e-07 0)
(0.0999976 5.5622e-07 0)
(0.0999962 1.00163e-06 0)
(0.0999955 3.74312e-07 0)
(0.0999953 -1.54544e-06 0)
(0.0999959 -4.5121e-06 0)
(0.0999975 -8.09794e-06 0)
(0.1 -1.1476e-05 0)
(0.100003 -1.39154e-05 0)
(0.100006 -1.56948e-05 0)
(0.100009 -1.62716e-05 0)
(0.100014 -1.68779e-05 0)
(0.100016 -1.65406e-05 0)
(0.100021 -1.83888e-05 0)
(0.100023 -1.93121e-05 0)
(0.10003 -2.59055e-05 0)
(0.100031 -2.78249e-05 0)
(0.100045 -4.18741e-05 0)
(0.0999952 6.8481e-07 0)
(0.0999969 1.34293e-06 0)
(0.0999989 2.78759e-06 0)
(0.099999 5.01998e-06 0)
(0.0999985 7.12716e-06 0)
(0.0999987 7.79529e-06 0)
(0.0999991 6.62883e-06 0)
(0.0999988 4.05172e-06 0)
(0.099999 1.04709e-06 0)
(0.100001 -1.8725e-06 0)
(0.100005 -3.74173e-06 0)
(0.100009 -4.80415e-06 0)
(0.100012 -4.39443e-06 0)
(0.100016 -3.98772e-06 0)
(0.100018 -2.40891e-06 0)
(0.100021 -3.36107e-06 0)
(0.100023 -3.3283e-06 0)
(0.100027 -9.99593e-06 0)
(0.100028 -1.15722e-05 0)
(0.100037 -2.68643e-05 0)
(0.099996 2.91784e-07 0)
(0.0999977 7.39673e-07 0)
(0.0999993 2.10843e-06 0)
(0.0999991 4.21136e-06 0)
(0.0999981 5.88644e-06 0)
(0.0999974 5.67789e-06 0)
(0.0999971 3.06921e-06 0)
(0.0999976 -1.48892e-06 0)
(0.0999988 -6.35536e-06 0)
(0.100001 -1.07329e-05 0)
(0.100003 -1.39073e-05 0)
(0.100006 -1.60351e-05 0)
(0.100008 -1.64995e-05 0)
(0.100011 -1.66379e-05 0)
(0.100014 -1.56953e-05 0)
(0.100017 -1.7318e-05 0)
(0.100019 -1.84838e-05 0)
(0.100024 -2.62736e-05 0)
(0.100024 -2.92169e-05 0)
(0.100033 -4.5376e-05 0)
(0.0999968 7.69016e-08 0)
(0.0999984 7.82454e-07 0)
(0.0999998 2.49008e-06 0)
(0.0999995 4.9824e-06 0)
(0.0999987 7.18717e-06 0)
(0.0999986 7.63328e-06 0)
(0.0999986 5.5753e-06 0)
(0.0999983 1.44599e-06 0)
(0.0999987 -3.68042e-06 0)
(0.100001 -8.41891e-06 0)
(0.100003 -1.15809e-05 0)
(0.100006 -1.32807e-05 0)
(0.100009 -1.28643e-05 0)
(0.100012 -1.19263e-05 0)
(0.100013 -9.87604e-06 0)
(0.100016 -1.08346e-05 0)
(0.100016 -1.16849e-05 0)
(0.10002 -1.99355e-05 0)
(0.10002 -2.31529e-05 0)
(0.100026 -4.05066e-05 0)
(0.0999976 -1.97053e-07 0)
(0.099999 6.94323e-07 0)
(0.1 2.65552e-06 0)
(0.0999999 5.32661e-06 0)
(0.0999991 7.66677e-06 0)
(0.0999987 7.90122e-06 0)
(0.0999985 5.11804e-06 0)
(0.0999986 -2.54679e-08 0)
(0.0999991 -5.59643e-06 0)
(0.1 -1.07291e-05 0)
(0.100002 -1.44411e-05 0)
(0.100004 -1.67452e-05 0)
(0.100006 -1.69365e-05 0)
(0.100008 -1.64517e-05 0)
(0.10001 -1.48372e-05 0)
(0.100012 -1.61611e-05 0)
(0.100013 -1.75437e-05 0)
(0.100016 -2.62629e-05 0)
(0.100016 -3.00756e-05 0)
(0.100021 -4.78253e-05 0)
(0.0999983 -4.6471e-07 0)
(0.0999995 5.94096e-07 0)
(0.1 2.71607e-06 0)
(0.1 5.43075e-06 0)
(0.0999994 7.82619e-06 0)
(0.0999991 8.13331e-06 0)
(0.0999989 5.38906e-06 0)
(0.0999989 1.08805e-07 0)
(0.0999992 -5.97845e-06 0)
(0.1 -1.14999e-05 0)
(0.100002 -1.53626e-05 0)
(0.100003 -1.75259e-05 0)
(0.100005 -1.72159e-05 0)
(0.100007 -1.59852e-05 0)
(0.100008 -1.36437e-05 0)
(0.100009 -1.45707e-05 0)
(0.100009 -1.59359e-05 0)
(0.100011 -2.50555e-05 0)
(0.100012 -2.92473e-05 0)
(0.100015 -4.76944e-05 0)
(0.099999 -6.65537e-07 0)
(0.0999998 4.87849e-07 0)
(0.1 2.71753e-06 0)
(0.1 5.48e-06 0)
(0.0999996 7.96198e-06 0)
(0.0999994 8.31791e-06 0)
(0.0999993 5.42133e-06 0)
(0.0999993 -9.1811e-08 0)
(0.0999995 -6.30416e-06 0)
(0.1 -1.1889e-05 0)
(0.100001 -1.58317e-05 0)
(0.100002 -1.8098e-05 0)
(0.100003 -1.79269e-05 0)
(0.100004 -1.68483e-05 0)
(0.100004 -1.46725e-05 0)
(0.100005 -1.57495e-05 0)
(0.100006 -1.73143e-05 0)
(0.100007 -2.66678e-05 0)
(0.100007 -3.10999e-05 0)
(0.100009 -4.98123e-05 0)
(0.0999997 -7.67658e-07 0)
(0.0999999 4.45761e-07 0)
(0.1 2.70474e-06 0)
(0.1 5.47118e-06 0)
(0.0999999 7.98418e-06 0)
(0.0999998 8.38087e-06 0)
(0.0999998 5.46463e-06 0)
(0.0999998 -1.17858e-07 0)
(0.0999998 -6.44177e-06 0)
(0.1 -1.21811e-05 0)
(0.1 -1.62768e-05 0)
(0.100001 -1.86216e-05 0)
(0.100001 -1.83892e-05 0)
(0.100001 -1.7117e-05 0)
(0.100002 -1.47246e-05 0)
(0.100002 -1.56751e-05 0)
(0.100002 -1.72549e-05 0)
(0.100002 -2.67373e-05 0)
(0.100002 -3.13167e-05 0)
(0.100003 -5.0214e-05 0)
(0.1 -7.67598e-07 0)
(0.1 4.45989e-07 0)
(0.0999999 2.70479e-06 0)
(0.1 5.47092e-06 0)
(0.1 7.98389e-06 0)
(0.1 8.38092e-06 0)
(0.1 5.46488e-06 0)
(0.1 -1.17656e-07 0)
(0.1 -6.44168e-06 0)
(0.0999999 -1.21809e-05 0)
(0.0999997 -1.62765e-05 0)
(0.0999994 -1.86212e-05 0)
(0.0999991 -1.8389e-05 0)
(0.0999987 -1.71167e-05 0)
(0.0999985 -1.47245e-05 0)
(0.0999982 -1.56749e-05 0)
(0.0999981 -1.72551e-05 0)
(0.0999977 -2.67374e-05 0)
(0.0999977 -3.13172e-05 0)
(0.0999971 -5.0214e-05 0)
(0.100001 -6.65428e-07 0)
(0.1 4.8843e-07 0)
(0.0999998 2.71755e-06 0)
(0.1 5.47929e-06 0)
(0.1 7.96132e-06 0)
(0.100001 8.31823e-06 0)
(0.100001 5.42234e-06 0)
(0.100001 -9.09559e-08 0)
(0.100001 -6.30396e-06 0)
(0.0999999 -1.18891e-05 0)
(0.099999 -1.58316e-05 0)
(0.099998 -1.80972e-05 0)
(0.0999971 -1.79258e-05 0)
(0.0999962 -1.68468e-05 0)
(0.0999955 -1.46714e-05 0)
(0.0999947 -1.57482e-05 0)
(0.0999944 -1.73141e-05 0)
(0.0999933 -2.66664e-05 0)
(0.0999931 -3.10995e-05 0)
(0.0999912 -4.98082e-05 0)
(0.100002 -4.64621e-07 0)
(0.100001 5.94908e-07 0)
(0.0999997 2.7161e-06 0)
(0.1 5.42975e-06 0)
(0.100001 7.82547e-06 0)
(0.100001 8.13416e-06 0)
(0.100001 5.3911e-06 0)
(0.100001 1.10707e-07 0)
(0.100001 -5.97758e-06 0)
(0.0999999 -1.14998e-05 0)
(0.0999985 -1.53629e-05 0)
(0.0999968 -1.75256e-05 0)
(0.0999952 -1.72155e-05 0)
(0.0999935 -1.59843e-05 0)
(0.0999924 -1.36433e-05 0)
(0.0999911 -1.45702e-05 0)
(0.0999906 -1.59371e-05 0)
(0.0999888 -2.50562e-05 0)
(0.0999885 -2.92504e-05 0)
(0.0999854 -4.76945e-05 0)
(0.100002 -1.96981e-07 0)
(0.100001 6.95111e-07 0)
(0.0999998 2.65566e-06 0)
(0.1 5.32572e-06 0)
(0.100001 7.66625e-06 0)
(0.100001 7.90256e-06 0)
(0.100001 5.12093e-06 0)
(0.100001 -2.26695e-08 0)
(0.100001 -5.59458e-06 0)
(0.0999995 -1.07277e-05 0)
(0.0999978 -1.44396e-05 0)
(0.0999957 -1.67427e-05 0)
(0.0999939 -1.69337e-05 0)
(0.0999918 -1.64485e-05 0)
(0.0999903 -1.48352e-05 0)
(0.0999881 -1.61586e-05 0)
(0.0999873 -1.75432e-05 0)
(0.0999845 -2.62591e-05 0)
(0.0999841 -3.00739e-05 0)
(0.0999793 -4.78143e-05 0)
(0.100003 7.69266e-08 0)
(0.100002 7.831e-07 0)
(0.1 2.49018e-06 0)
(0.1 4.98155e-06 0)
(0.100001 7.18695e-06 0)
(0.100001 7.63522e-06 0)
(0.100001 5.5786e-06 0)
(0.100002 1.44855e-06 0)
(0.100001 -3.67991e-06 0)
(0.0999995 -8.41984e-06 0)
(0.099997 -1.15822e-05 0)
(0.099994 -1.3281e-05 0)
(0.0999913 -1.28638e-05 0)
(0.0999884 -1.19247e-05 0)
(0.0999866 -9.87501e-06 0)
(0.0999844 -1.08333e-05 0)
(0.0999836 -1.16863e-05 0)
(0.0999805 -1.99364e-05 0)
(0.0999797 -2.31578e-05 0)
(0.0999741 -4.05084e-05 0)
(0.100004 2.91751e-07 0)
(0.100002 7.40287e-07 0)
(0.100001 2.10853e-06 0)
(0.100001 4.21055e-06 0)
(0.100002 5.88637e-06 0)
(0.100003 5.68014e-06 0)
(0.100003 3.07305e-06 0)
(0.100002 -1.48488e-06 0)
(0.100001 -6.35263e-06 0)
(0.0999993 -1.07308e-05 0)
(0.0999971 -1.39054e-05 0)
(0.0999943 -1.60324e-05 0)
(0.0999918 -1.64973e-05 0)
(0.0999886 -1.6635e-05 0)
(0.0999863 -1.56945e-05 0)
(0.0999827 -1.73158e-05 0)
(0.0999812 -1.84851e-05 0)
(0.0999763 -2.62696e-05 0)
(0.0999757 -2.9217e-05 0)
(0.0999674 -4.53621e-05 0)
(0.100005 6.84899e-07 0)
(0.100003 1.34322e-06 0)
(0.100001 2.78747e-06 0)
(0.100001 5.01939e-06 0)
(0.100001 7.12758e-06 0)
(0.100001 7.79791e-06 0)
(0.100001 6.63272e-06 0)
(0.100001 4.05475e-06 0)
(0.100001 1.04816e-06 0)
(0.0999987 -1.87255e-06 0)
(0.0999954 -3.74184e-06 0)
(0.0999915 -4.80294e-06 0)
(0.099988 -4.39248e-06 0)
(0.0999843 -3.98443e-06 0)
(0.0999819 -2.40637e-06 0)
(0.0999787 -3.35789e-06 0)
(0.0999775 -3.32797e-06 0)
(0.0999726 -9.9942e-06 0)
(0.0999715 -1.15746e-05 0)
(0.0999629 -2.68631e-05 0)
(0.100006 2.25691e-07 0)
(0.100004 -1.91051e-07 0)
(0.100002 -1.05432e-07 0)
(0.100002 5.55951e-07 0)
(0.100004 1.00185e-06 0)
(0.100005 3.75966e-07 0)
(0.100005 -1.54284e-06 0)
(0.100004 -4.50963e-06 0)
(0.100002 -8.09683e-06 0)
(0.0999999 -1.14759e-05 0)
(0.0999972 -1.39163e-05 0)
(0.0999938 -1.56952e-05 0)
(0.0999907 -1.62732e-05 0)
(0.0999865 -1.68785e-05 0)
(0.0999837 -1.65434e-05 0)
(0.0999787 -1.83892e-05 0)
(0.0999771 -1.93171e-05 0)
(0.0999696 -2.59048e-05 0)
(0.0999689 -2.78309e-05 0)
(0.0999553 -4.18677e-05 0)
(0.100006 8.37983e-07 0)
(0.100005 2.01231e-06 0)
(0.100002 3.63074e-06 0)
(0.100002 5.5903e-06 0)
(0.100002 7.25679e-06 0)
(0.100002 8.18115e-06 0)
(0.100001 8.10928e-06 0)
(0.100001 7.23875e-06 0)
(0.100001 6.47175e-06 0)
(0.0999984 5.92921e-06 0)
(0.0999948 5.89284e-06 0)
(0.0999905 5.96359e-06 0)
(0.0999868 6.6208e-06 0)
(0.0999825 6.82438e-06 0)
(0.0999799 7.98966e-06 0)
(0.0999753 7.46583e-06 0)
(0.0999737 8.70763e-06 0)
(0.0999664 5.09438e-06 0)
(0.0999649 6.02769e-06 0)
(0.0999517 -4.85489e-06 0)
(0.100008 -7.13713e-07 0)
(0.100006 -2.24224e-06 0)
(0.100004 -3.51581e-06 0)
(0.100004 -4.57422e-06 0)
(0.100005 -5.52122e-06 0)
(0.100005 -6.39555e-06 0)
(0.100005 -7.36071e-06 0)
(0.100005 -8.46445e-06 0)
(0.100003 -9.9406e-06 0)
(0.100001 -1.1628e-05 0)
(0.0999973 -1.30328e-05 0)
(0.0999932 -1.43887e-05 0)
(0.09999 -1.51487e-05 0)
(0.0999849 -1.60651e-05 0)
(0.0999826 -1.61457e-05 0)
(0.0999761 -1.76751e-05 0)
(0.0999756 -1.81074e-05 0)
(0.0999644 -2.26361e-05 0)
(0.099965 -2.32155e-05 0)
(0.0999419 -3.36372e-05 0)
)
;

boundaryField
{
    sides
    {
        type            calculated;
        value           nonuniform List<vector> 
40
(
(0.100008 0 0)
(0.100006 0 0)
(0.100004 0 0)
(0.100004 0 0)
(0.100005 0 0)
(0.100005 0 0)
(0.100005 0 0)
(0.100005 0 0)
(0.100003 0 0)
(0.100001 0 0)
(0.0999973 0 0)
(0.0999932 0 0)
(0.09999 0 0)
(0.0999849 0 0)
(0.0999826 0 0)
(0.0999761 0 0)
(0.0999756 0 0)
(0.0999644 0 0)
(0.099965 0 0)
(0.0999419 0 0)
(0.0999924 0 0)
(0.0999938 0 0)
(0.099996 0 0)
(0.0999963 0 0)
(0.0999951 0 0)
(0.0999948 0 0)
(0.0999949 0 0)
(0.0999954 0 0)
(0.0999966 0 0)
(0.0999995 0 0)
(0.100003 0 0)
(0.100007 0 0)
(0.10001 0 0)
(0.100015 0 0)
(0.100017 0 0)
(0.100024 0 0)
(0.100024 0 0)
(0.100036 0 0)
(0.100035 0 0)
(0.100058 0 0)
)
;
    }
    inlet
    {
        type            calculated;
        value           nonuniform List<vector> 
20
(
(0.0999929 0 0)
(0.0999941 0 0)
(0.0999947 0 0)
(0.0999956 0 0)
(0.0999965 0 0)
(0.0999973 0 0)
(0.099998 0 0)
(0.0999987 0 0)
(0.0999992 0 0)
(0.0999997 0 0)
(0.1 0 0)
(0.100001 0 0)
(0.100001 0 0)
(0.100002 0 0)
(0.100003 0 0)
(0.100004 0 0)
(0.100004 0 0)
(0.100005 0 0)
(0.100006 0 0)
(0.100007 0 0)
)
;
    }
    outlet
    {
        type            calculated;
        value           nonuniform List<vector> 
20
(
(0.100059 -3.3622e-05 0)
(0.100049 -4.86458e-06 0)
(0.100045 -4.18742e-05 0)
(0.100037 -2.68644e-05 0)
(0.100033 -4.53761e-05 0)
(0.100026 -4.05066e-05 0)
(0.100021 -4.78254e-05 0)
(0.100015 -4.76944e-05 0)
(0.100009 -4.98123e-05 0)
(0.100003 -5.0214e-05 0)
(0.0999971 -5.0214e-05 0)
(0.0999912 -4.98082e-05 0)
(0.0999854 -4.76944e-05 0)
(0.0999793 -4.78142e-05 0)
(0.099974 -4.05084e-05 0)
(0.0999672 -4.5362e-05 0)
(0.0999628 -2.6863e-05 0)
(0.0999549 -4.18675e-05 0)
(0.0999513 -4.85488e-06 0)
(0.0999412 -3.3637e-05 0)
)
;
    }
    frontAndBack
    {
        type            empty;
    }
}


// ************************************************************************* //
