/*--------------------------------*- C++ -*----------------------------------*\
  =========                 |
  \\      /  F ield         | OpenFOAM: The Open Source CFD Toolbox
   \\    /   O peration     | Website:  https://openfoam.org
    \\  /    A nd           | Version:  7
     \\/     M anipulation  |
\*---------------------------------------------------------------------------*/
FoamFile
{
    version     2.0;
    format      ascii;
    class       surfaceScalarField;
    location    "26";
    object      ddtCorrDdt0(phi);
}
// * * * * * * * * * * * * * * * * * * * * * * * * * * * * * * * * * * * * * //

dimensions      [0 4 -2 0 0 0 0];

internalField   nonuniform List<scalar> 
760
(
-1.60698e-11
1.11478e-11
-2.83355e-11
1.52172e-11
-3.48938e-11
9.63397e-11
-4.73836e-11
-3.63811e-11
-4.2211e-11
-3.78858e-11
-4.41936e-11
-3.06032e-11
-2.76052e-11
9.2319e-12
-1.45865e-11
-2.09167e-11
4.47123e-12
-4.42963e-12
2.76742e-11
-2.56547e-12
4.14465e-11
5.35425e-12
4.29993e-11
1.54705e-11
3.18868e-11
2.56232e-11
1.36634e-11
3.10296e-11
-1.18526e-12
2.68794e-11
-9.93091e-12
1.96729e-11
-3.17139e-12
2.29241e-12
9.45233e-12
-6.46996e-12
3.12558e-11
-1.9399e-11
-2.11836e-11
-1.09825e-11
1.97495e-11
-2.15071e-11
2.59438e-11
-3.33989e-11
2.53828e-11
-3.97418e-11
3.16855e-11
-5.58744e-11
2.94322e-11
-5.41212e-11
1.80453e-11
-4.77511e-11
3.80965e-12
-2.4017e-11
-6.69051e-12
6.79687e-12
-1.45046e-11
3.32318e-11
-1.31727e-11
4.9574e-11
3.68114e-12
5.16625e-11
2.76131e-11
3.67231e-11
5.35909e-11
1.36247e-11
6.6303e-11
-7.13542e-12
5.92118e-11
-1.91522e-11
4.21611e-11
-1.25457e-11
3.94814e-12
1.42963e-12
-1.58089e-11
2.61319e-11
-4.31362e-11
-4.25674e-11
-7.6281e-12
1.92475e-11
-2.07529e-11
3.13111e-11
-2.97134e-11
2.96909e-11
-3.37497e-11
3.26178e-11
-3.78117e-11
3.05066e-11
-3.59178e-11
2.28647e-11
-2.90705e-11
6.97303e-12
-1.59941e-11
-1.24557e-11
3.39327e-12
-1.94128e-11
2.0663e-11
-1.58987e-11
3.11511e-11
6.59101e-12
3.21316e-11
3.93132e-11
2.54027e-11
7.40238e-11
1.33103e-11
9.24217e-11
3.76328e-12
8.19609e-11
-1.90025e-12
5.9561e-11
4.30314e-12
6.33891e-12
1.3802e-11
-2.14468e-11
3.13231e-11
-5.98952e-11
-6.1829e-11
-7.56241e-12
2.3384e-11
-1.81111e-11
3.4685e-11
-2.76607e-11
3.53998e-11
-3.96342e-11
4.11622e-11
-4.80064e-11
3.8054e-11
-4.75472e-11
2.40137e-11
-3.8107e-11
9.34356e-13
-1.543e-11
-2.37774e-11
1.08322e-11
-3.87741e-11
3.63313e-11
-3.33613e-11
5.10963e-11
1.55507e-12
5.11548e-11
4.95517e-11
3.62198e-11
1.01173e-10
1.31023e-11
1.28028e-10
-8.69335e-12
1.14376e-10
-2.2378e-11
8.21618e-11
-1.69841e-11
7.77047e-12
-3.42928e-12
-3.11903e-11
2.20322e-11
-8.35978e-11
-8.29221e-11
-3.04875e-12
2.05233e-11
-1.13625e-11
3.41965e-11
-1.88455e-11
3.85384e-11
-2.68906e-11
3.94149e-11
-2.64818e-11
3.78675e-11
-2.54972e-11
2.12148e-11
-2.24404e-11
-4.91929e-12
-1.28576e-11
-2.85304e-11
-4.57853e-12
-4.28147e-11
4.0621e-12
-3.83344e-11
1.31528e-11
-2.45378e-12
2.06283e-11
5.06471e-11
2.29703e-11
1.09862e-10
1.83276e-11
1.42639e-10
1.05837e-11
1.28376e-10
2.54727e-12
9.35952e-11
3.58306e-12
9.6895e-12
9.5163e-12
-3.38717e-11
2.25841e-11
-9.40259e-11
-9.67708e-11
-4.06059e-12
1.68842e-11
-9.43848e-12
3.64482e-11
-2.08187e-11
4.28318e-11
-2.91873e-11
4.42313e-11
-3.6111e-11
3.69283e-11
-3.67819e-11
1.86502e-11
-2.91917e-11
-1.50612e-11
-1.17571e-11
-4.93576e-11
1.09064e-11
-6.6669e-11
3.05552e-11
-5.64763e-11
4.10279e-11
-6.72899e-12
3.99699e-11
6.16632e-11
2.62733e-11
1.33055e-10
6.52012e-12
1.69072e-10
-1.02942e-11
1.48629e-10
-2.03345e-11
1.04034e-10
-1.57054e-11
4.56261e-12
-3.06181e-12
-4.53454e-11
1.97513e-11
-1.14163e-10
-1.13305e-10
-1.65738e-12
1.49855e-11
-5.21046e-12
3.42884e-11
-1.26261e-11
4.20184e-11
-1.57603e-11
4.11704e-11
-1.59203e-11
3.2585e-11
-1.809e-11
8.59091e-12
-1.44179e-11
-2.2565e-11
-9.9332e-12
-5.57785e-11
-7.39617e-12
-7.62135e-11
-1.36928e-12
-6.69511e-11
9.0996e-12
-1.34637e-11
1.79226e-11
6.00178e-11
1.8572e-11
1.36798e-10
1.26291e-11
1.77114e-10
6.47955e-12
1.5735e-10
9.91755e-13
1.11346e-10
1.11343e-12
4.46834e-12
4.70326e-12
-4.86271e-11
1.38567e-11
-1.22223e-10
-1.22828e-10
-3.12151e-13
9.3819e-12
-2.51111e-12
3.28189e-11
-8.7268e-12
4.42441e-11
-1.3092e-11
4.07562e-11
-2.03123e-11
2.68548e-11
-1.93556e-11
3.74535e-12
-1.61382e-11
-3.40235e-11
-8.93551e-12
-7.31817e-11
3.81437e-12
-9.3413e-11
1.56629e-11
-7.98395e-11
2.15855e-11
-1.99217e-11
2.01449e-11
5.9798e-11
1.09496e-11
1.42797e-10
-6.592e-13
1.87106e-10
-8.05729e-12
1.67437e-10
-1.08433e-11
1.18813e-10
-6.85809e-12
3.93677e-12
-2.5612e-13
-5.36187e-11
1.14246e-11
-1.34062e-10
-1.33459e-10
7.1762e-13
8.88209e-12
-1.28065e-12
3.10757e-11
-6.01682e-12
4.26201e-11
-7.28433e-12
3.69109e-11
-9.44041e-12
2.11335e-11
-8.28707e-12
-4.29724e-12
-6.03996e-12
-4.23453e-11
-4.80896e-12
-8.14989e-11
4.57407e-13
-1.00796e-10
5.35746e-12
-8.81826e-11
6.60662e-12
-2.88472e-11
5.60716e-12
5.32047e-11
2.56996e-12
1.40581e-10
-1.04749e-12
1.88876e-10
-1.95269e-12
1.7104e-10
-8.29201e-13
1.22655e-10
2.31498e-12
4.58056e-12
5.55618e-12
-5.48078e-11
9.22771e-12
-1.36714e-10
-1.36995e-10
-6.25432e-13
6.92181e-12
3.42588e-13
3.25812e-11
-1.76276e-12
4.21317e-11
-1.01624e-12
3.62853e-11
-3.32075e-12
1.76543e-11
-4.30264e-12
-7.70861e-12
-4.26235e-12
-4.5808e-11
-2.93873e-12
-8.60783e-11
4.34508e-13
-1.0636e-10
3.41661e-12
-9.39283e-11
4.06087e-12
-3.40827e-11
3.61205e-12
4.99225e-11
2.51941e-12
1.40571e-10
5.79798e-13
1.91083e-10
-1.51255e-12
1.74064e-10
-2.8782e-12
1.25834e-10
-2.64364e-12
6.38186e-12
-2.03148e-12
-5.43847e-11
8.40185e-13
-1.39973e-10
-1.39833e-10
6.10069e-13
8.88662e-12
-3.61195e-13
3.10757e-11
1.71732e-12
4.26038e-11
9.8396e-13
3.68895e-11
3.28114e-12
2.11261e-11
4.26094e-12
-4.27532e-12
4.2236e-12
-4.23132e-11
2.89675e-12
-8.14733e-11
-4.65804e-13
-1.00772e-10
-3.43417e-12
-8.81519e-11
-4.0752e-12
-2.88096e-11
-3.6229e-12
5.32483e-11
-2.51878e-12
1.40618e-10
-5.5501e-13
1.88885e-10
1.55413e-12
1.71036e-10
2.94436e-12
1.22632e-10
2.72455e-12
4.56323e-12
2.11081e-12
-5.48109e-11
-7.58869e-13
-1.36716e-10
-1.36972e-10
-7.32077e-13
9.38186e-12
1.25345e-12
3.2805e-11
5.96933e-12
4.42038e-11
7.261e-12
4.0741e-11
9.4211e-12
2.68631e-11
8.2496e-12
3.7805e-12
5.99746e-12
-3.39628e-11
4.77563e-12
-7.31308e-11
-4.79401e-13
-9.33853e-11
-5.3745e-12
-7.98171e-11
-6.62837e-12
-1.98972e-11
-5.63546e-12
5.98337e-11
-2.59325e-12
1.42838e-10
1.05119e-12
1.87113e-10
1.98052e-12
1.67433e-10
8.86819e-13
1.18781e-10
-2.23863e-12
3.91822e-12
-5.48096e-12
-5.36091e-11
-9.15328e-12
-1.34058e-10
-1.33407e-10
2.94085e-13
1.49717e-11
2.47215e-12
3.42534e-11
8.71064e-12
4.19806e-11
1.30623e-11
4.1143e-11
2.02828e-11
3.26036e-11
1.93333e-11
8.62895e-12
1.60939e-11
-2.25277e-11
8.89612e-12
-5.57461e-11
-3.8304e-12
-7.61972e-11
-1.56618e-11
-6.69425e-11
-2.15775e-11
-1.34703e-11
-2.01531e-11
6.00102e-11
-1.09828e-11
1.36804e-10
6.25906e-13
1.77101e-10
8.04312e-12
1.57349e-10
1.0866e-11
1.11317e-10
6.90918e-12
4.46219e-12
3.21689e-13
-4.86039e-11
-1.1354e-11
-1.22214e-10
-1.22755e-10
1.63794e-12
1.68589e-11
5.1836e-12
3.64069e-11
1.26184e-11
4.27999e-11
1.57628e-11
4.42263e-11
1.58923e-11
3.69181e-11
1.80652e-11
1.8694e-11
1.43971e-11
-1.50099e-11
9.91978e-12
-4.93185e-11
7.37981e-12
-6.66805e-11
1.33534e-12
-5.64828e-11
-9.12378e-12
-6.73375e-12
-1.79337e-11
6.16385e-11
-1.85951e-11
1.33018e-10
-1.26598e-11
1.6901e-10
-6.49859e-12
1.48604e-10
-9.76238e-13
1.03999e-10
-1.06691e-12
4.56249e-12
-4.64319e-12
-4.53094e-11
-1.37945e-11
-1.14146e-10
-1.13214e-10
4.04008e-12
2.04847e-11
9.43302e-12
3.4158e-11
2.08363e-11
3.85305e-11
2.91497e-11
3.93809e-11
3.6093e-11
3.78647e-11
3.67588e-11
2.12735e-11
2.91779e-11
-4.91225e-12
1.17182e-11
-2.84833e-11
-1.09131e-11
-4.2831e-11
-3.05857e-11
-3.83787e-11
-4.1059e-11
-2.46483e-12
-3.99531e-11
5.06407e-11
-2.62319e-11
1.09831e-10
-6.49529e-12
1.42563e-10
1.02943e-11
1.28338e-10
2.03253e-11
9.35552e-11
1.56952e-11
9.6921e-12
3.05592e-12
-3.38292e-11
-1.9748e-11
-9.40038e-11
-9.66732e-11
3.04746e-12
2.3363e-11
1.13989e-11
3.46773e-11
1.8849e-11
3.53853e-11
2.6875e-11
4.11036e-11
2.65097e-11
3.80602e-11
2.54318e-11
2.4006e-11
2.24786e-11
1.0045e-12
1.2788e-11
-2.3786e-11
4.56807e-12
-3.86976e-11
-4.04588e-12
-3.33614e-11
-1.31988e-11
1.55155e-12
-2.06763e-11
4.95805e-11
-2.29727e-11
1.01184e-10
-1.83058e-11
1.27965e-10
-1.0572e-11
1.14324e-10
-2.54523e-12
8.20888e-11
-3.5794e-12
7.74384e-12
-9.49149e-12
-3.11706e-11
-2.2535e-11
-8.35843e-11
-8.28198e-11
7.59576e-12
1.9241e-11
1.81655e-11
3.13229e-11
2.76367e-11
2.9656e-11
3.96474e-11
3.2529e-11
4.79869e-11
3.04841e-11
4.75155e-11
2.28836e-11
3.81089e-11
7.06146e-12
1.54632e-11
-1.24054e-11
-1.09394e-11
-1.9406e-11
-3.6334e-11
-1.5834e-11
-5.11092e-11
6.62078e-12
-5.11948e-11
3.93466e-11
-3.622e-11
7.406e-11
-1.30642e-11
9.24009e-11
8.72631e-12
8.19322e-11
2.23718e-11
5.95009e-11
1.69532e-11
6.31026e-12
3.39393e-12
-2.14309e-11
-2.20595e-11
-5.98821e-11
-6.17365e-11
7.70856e-12
1.97936e-11
2.0822e-11
2.59456e-11
2.96413e-11
2.52438e-11
3.38081e-11
3.15988e-11
3.78144e-11
2.92879e-11
3.59773e-11
1.80985e-11
2.90018e-11
3.77256e-12
1.60042e-11
-6.37261e-12
-3.4844e-12
-1.43874e-11
-2.07207e-11
-1.31029e-11
-3.11852e-11
3.73067e-12
-3.21961e-11
2.76551e-11
-2.5443e-11
5.36388e-11
-1.3306e-11
6.63152e-11
-3.73615e-12
5.92097e-11
1.91958e-12
4.21171e-11
-4.3003e-12
3.92716e-12
-1.37986e-11
-1.58043e-11
-3.13284e-11
-4.31205e-11
-4.24892e-11
1.10189e-11
1.12004e-11
2.1548e-11
1.51659e-11
3.33771e-11
1.01605e-10
3.9951e-11
-3.55132e-11
5.60173e-11
-3.09778e-11
5.40475e-11
-3.27938e-11
4.83224e-11
1.3269e-11
2.40172e-11
-3.30781e-11
-6.87556e-12
-5.69057e-12
-3.32729e-11
-2.52371e-12
-4.95946e-11
5.41661e-12
-5.16936e-11
1.55231e-11
-3.67834e-11
2.56813e-11
-1.37004e-11
3.1062e-11
7.07441e-12
2.68917e-11
1.91017e-11
1.96474e-11
1.25209e-11
2.26004e-12
-1.43595e-12
-6.48633e-12
-2.61198e-11
-1.94148e-11
-2.11473e-11
1.60063e-11
2.82377e-11
3.50694e-11
4.71724e-11
4.21006e-11
4.43351e-11
2.70706e-11
1.45926e-11
-4.31051e-12
-2.77314e-11
-4.1493e-11
-4.29946e-11
-3.19142e-11
-1.37317e-11
1.13677e-12
9.90359e-12
3.14728e-12
-9.48273e-12
-3.13119e-11
)
;

boundaryField
{
    sides
    {
        type            calculated;
        value           uniform 0;
    }
    inlet
    {
        type            calculated;
        value           uniform 0;
    }
    outlet
    {
        type            calculated;
        value           nonuniform List<scalar> 
20
(
5.25786e-11
4.72805e-11
5.0679e-11
4.37385e-11
3.74129e-11
3.77743e-11
2.39705e-11
2.15057e-11
1.30745e-11
3.15954e-12
-3.0999e-12
-1.30275e-11
-2.14543e-11
-2.39263e-11
-3.77714e-11
-3.73586e-11
-4.37493e-11
-5.0671e-11
-4.72342e-11
-5.26072e-11
)
;
    }
    frontAndBack
    {
        type            empty;
        value           nonuniform 0();
    }
}


// ************************************************************************* //
