/*--------------------------------*- C++ -*----------------------------------*\
  =========                 |
  \\      /  F ield         | OpenFOAM: The Open Source CFD Toolbox
   \\    /   O peration     | Website:  https://openfoam.org
    \\  /    A nd           | Version:  7
     \\/     M anipulation  |
\*---------------------------------------------------------------------------*/
FoamFile
{
    version     2.0;
    format      ascii;
    class       volVectorField;
    location    "26";
    object      ddtCorrDdt0(hU);
}
// * * * * * * * * * * * * * * * * * * * * * * * * * * * * * * * * * * * * * //

dimensions      [0 2 -2 0 0 0 0];

internalField   nonuniform List<vector> 
400
(
(1.08862e-09 1.38291e-09 0)
(-2.4454e-09 1.31797e-09 0)
(-6.02677e-09 1.006e-09 0)
(-9.63685e-09 2.57099e-10 0)
(-9.42186e-09 5.7694e-10 0)
(-7.83078e-09 -4.85532e-10 0)
(-7.86244e-09 -2.19736e-09 0)
(-3.75795e-09 -4.90663e-09 0)
(-2.09058e-09 -5.31391e-09 0)
(3.64722e-09 -3.30259e-09 0)
(7.74109e-09 5.77083e-10 0)
(8.73506e-09 4.32259e-09 0)
(7.89835e-09 6.87387e-09 0)
(4.40487e-09 7.07447e-09 0)
(1.28217e-09 5.26498e-09 0)
(-1.999e-09 2.89157e-09 0)
(-2.22834e-09 -7.69043e-10 0)
(6.35144e-10 -2.25357e-09 0)
(2.62561e-09 -4.50931e-09 0)
(1.0705e-08 -3.79226e-09 0)
(1.03284e-09 2.17947e-09 0)
(-1.11268e-09 3.76235e-09 0)
(-5.33639e-09 4.68783e-09 0)
(-7.65765e-09 5.76365e-09 0)
(-1.05155e-08 6.85088e-09 0)
(-1.12037e-08 5.84715e-09 0)
(-9.28183e-09 4.69509e-09 0)
(-9.29101e-09 3.44183e-09 0)
(-1.70128e-09 2.59917e-09 0)
(4.76918e-09 1.80278e-09 0)
(9.23102e-09 2.05214e-09 0)
(1.04917e-08 3.41679e-09 0)
(9.47544e-09 5.84724e-09 0)
(5.00752e-09 7.81633e-09 0)
(5.57095e-10 7.51534e-09 0)
(-3.71314e-09 6.11789e-09 0)
(-4.2559e-09 1.66677e-09 0)
(-1.21698e-09 -8.81242e-10 0)
(1.33337e-09 -4.28791e-09 0)
(9.85422e-09 -5.19348e-09 0)
(1.38053e-09 3.90982e-09 0)
(-9.51118e-10 5.47945e-09 0)
(-5.17229e-09 4.88161e-09 0)
(-7.34001e-09 5.39015e-09 0)
(-7.51759e-09 4.57924e-09 0)
(-6.81641e-09 2.44691e-09 0)
(-6.07176e-09 -9.77738e-10 0)
(-5.05833e-09 -4.1181e-09 0)
(-2.01147e-09 -5.65914e-09 0)
(2.7537e-09 -4.59926e-09 0)
(5.95631e-09 1.811e-10 0)
(6.49779e-09 6.59781e-09 0)
(5.968e-09 1.31032e-08 0)
(3.76469e-09 1.63467e-08 0)
(1.84534e-09 1.44056e-08 0)
(-5.43287e-10 1.01365e-08 0)
(-5.57654e-10 5.41994e-10 0)
(1.84422e-09 -4.36947e-09 0)
(3.27991e-09 -1.12881e-08 0)
(1.01402e-08 -1.10092e-08 0)
(6.66537e-10 5.214e-09 0)
(-7.30169e-10 6.84936e-09 0)
(-3.91097e-09 6.197e-09 0)
(-7.62179e-09 6.88076e-09 0)
(-9.50196e-09 6.60569e-09 0)
(-9.36694e-09 4.71784e-09 0)
(-8.77351e-09 9.32984e-10 0)
(-6.25723e-09 -3.453e-09 0)
(-7.5949e-10 -5.87604e-09 0)
(5.39352e-09 -4.97069e-09 0)
(9.73346e-09 1.0891e-09 0)
(1.07118e-08 9.43794e-09 0)
(9.34336e-09 1.81507e-08 0)
(4.86769e-09 2.24781e-08 0)
(3.82472e-10 1.97979e-08 0)
(-4.22288e-09 1.4182e-08 0)
(-5.03605e-09 1.31294e-09 0)
(-2.15963e-09 -5.3266e-09 0)
(4.7035e-10 -1.43766e-08 0)
(9.04012e-09 -1.45899e-08 0)
(7.16139e-10 4.27896e-09 0)
(1.65248e-11 7.33019e-09 0)
(-2.82402e-09 8.45522e-09 0)
(-5.51204e-09 9.59903e-09 0)
(-5.88501e-09 9.3384e-09 0)
(-4.50974e-09 6.30291e-09 0)
(-4.35531e-09 1.55392e-09 0)
(-3.87004e-09 -2.86488e-09 0)
(-2.26242e-09 -5.63911e-09 0)
(4.67249e-11 -5.16143e-09 0)
(2.09251e-09 8.89612e-10 0)
(3.3786e-09 1.01099e-08 0)
(4.61016e-09 2.07534e-08 0)
(4.26651e-09 2.68352e-08 0)
(3.12835e-09 2.43592e-08 0)
(8.34024e-10 1.79329e-08 0)
(-1.01858e-10 2.30107e-09 0)
(1.33334e-09 -6.01407e-09 0)
(2.23009e-09 -1.72581e-08 0)
(7.41941e-09 -1.77457e-08 0)
(4.05299e-10 3.87134e-09 0)
(1.8011e-10 6.94625e-09 0)
(-2.53453e-09 7.45729e-09 0)
(-5.73676e-09 7.11125e-09 0)
(-7.07964e-09 5.76019e-09 0)
(-7.14256e-09 1.91021e-09 0)
(-6.86601e-09 -4.55121e-09 0)
(-4.83827e-09 -1.08823e-08 0)
(-2.9042e-10 -1.40973e-08 0)
(4.84185e-09 -1.1892e-08 0)
(8.05068e-09 -1.97235e-09 0)
(8.54161e-09 1.14849e-08 0)
(7.0438e-09 2.53677e-08 0)
(3.10763e-09 3.23175e-08 0)
(-5.09362e-10 2.84216e-08 0)
(-3.99502e-09 1.99275e-08 0)
(-4.3713e-09 9.47299e-10 0)
(-2.00776e-09 -8.60088e-09 0)
(6.37256e-10 -2.18616e-08 0)
(7.69121e-09 -2.16324e-08 0)
(3.10929e-10 3.14714e-09 0)
(3.41987e-10 6.91127e-09 0)
(-1.52681e-09 8.53268e-09 0)
(-3.74608e-09 9.08304e-09 0)
(-3.46105e-09 8.04752e-09 0)
(-2.99322e-09 4.27541e-09 0)
(-2.93993e-09 -1.67401e-09 0)
(-2.5857e-09 -7.93487e-09 0)
(-2.07368e-09 -1.17833e-08 0)
(-9.10834e-10 -1.06587e-08 0)
(9.86014e-10 -1.59015e-09 0)
(2.82528e-09 1.14675e-08 0)
(3.95941e-09 2.56491e-08 0)
(3.19613e-09 3.33531e-08 0)
(1.96973e-09 2.982e-08 0)
(3.9775e-10 2.14169e-08 0)
(-2.36197e-10 1.39353e-09 0)
(6.43625e-10 -8.69915e-09 0)
(1.11325e-09 -2.26667e-08 0)
(4.75579e-09 -2.3213e-08 0)
(3.06491e-11 2.40358e-09 0)
(5.90873e-10 6.83339e-09 0)
(-8.85415e-10 8.91739e-09 0)
(-2.4935e-09 8.37179e-09 0)
(-3.65496e-09 5.6737e-09 0)
(-3.91618e-09 4.10024e-10 0)
(-3.60707e-09 -7.11253e-09 0)
(-2.93486e-09 -1.48426e-08 0)
(-6.79034e-10 -1.88055e-08 0)
(2.34486e-09 -1.57138e-08 0)
(4.24075e-09 -3.2103e-09 0)
(4.42279e-09 1.31054e-08 0)
(3.35173e-09 2.96224e-08 0)
(8.81973e-10 3.7945e-08 0)
(-9.90049e-10 3.34096e-08 0)
(-2.38909e-09 2.31557e-08 0)
(-2.1211e-09 1.88381e-10 0)
(-6.88869e-10 -1.11628e-08 0)
(4.14829e-10 -2.68726e-08 0)
(4.37225e-09 -2.62226e-08 0)
(1.25335e-10 1.81868e-09 0)
(4.19667e-10 6.44922e-09 0)
(-4.92146e-10 8.64973e-09 0)
(-1.77485e-09 7.585e-09 0)
(-1.87226e-09 4.70206e-09 0)
(-1.69304e-09 1.89626e-10 0)
(-1.27435e-09 -6.98901e-09 0)
(-1.21945e-09 -1.45981e-08 0)
(-5.55762e-10 -1.87099e-08 0)
(7.61408e-10 -1.66329e-08 0)
(1.41243e-09 -5.35566e-09 0)
(1.27007e-09 1.037e-08 0)
(8.76525e-10 2.73023e-08 0)
(7.92597e-11 3.68618e-08 0)
(-3.93619e-10 3.35733e-08 0)
(-4.65625e-10 2.43879e-08 0)
(4.04553e-12 1.3962e-09 0)
(8.45404e-10 -1.02432e-08 0)
(1.32394e-09 -2.64959e-08 0)
(2.57268e-09 -2.69637e-08 0)
(-7.89724e-11 1.53695e-09 0)
(1.87229e-10 6.38659e-09 0)
(-1.69637e-10 8.60628e-09 0)
(-3.71675e-10 7.5052e-09 0)
(-4.22978e-10 3.98935e-09 0)
(-7.16097e-10 -1.21158e-09 0)
(-8.69625e-10 -9.0178e-09 0)
(-8.32505e-10 -1.71643e-08 0)
(-3.15149e-10 -2.11683e-08 0)
(4.70005e-10 -1.85222e-08 0)
(8.41588e-10 -6.31742e-09 0)
(7.75878e-10 1.05932e-08 0)
(6.84652e-10 2.85998e-08 0)
(3.23764e-10 3.84749e-08 0)
(-5.25304e-11 3.48179e-08 0)
(-5.41055e-10 2.49076e-08 0)
(-6.27921e-10 8.52417e-10 0)
(-4.37866e-10 -1.12892e-08 0)
(-4.63875e-10 -2.81509e-08 0)
(7.0619e-10 -2.79513e-08 0)
(7.76118e-11 1.53739e-09 0)
(-1.92389e-10 6.38674e-09 0)
(1.61982e-10 8.60454e-09 0)
(3.65562e-10 7.50247e-09 0)
(4.17368e-10 3.98832e-09 0)
(7.07533e-10 -1.20906e-09 0)
(8.61175e-10 -9.01406e-09 0)
(8.23901e-10 -1.71612e-08 0)
(3.06874e-10 -2.11656e-08 0)
(-4.75724e-10 -1.85192e-08 0)
(-8.44139e-10 -6.3144e-09 0)
(-7.77888e-10 1.05962e-08 0)
(-6.84721e-10 2.86019e-08 0)
(-3.20576e-10 3.84749e-08 0)
(5.8747e-11 3.48177e-08 0)
(5.53406e-10 2.49076e-08 0)
(6.40779e-10 8.53381e-10 0)
(4.54185e-10 -1.12873e-08 0)
(4.80495e-10 -2.81499e-08 0)
(-6.93961e-10 -2.79505e-08 0)
(-1.26333e-10 1.81912e-09 0)
(-4.25701e-10 6.44783e-09 0)
(4.83488e-10 8.64423e-09 0)
(1.76902e-09 7.58147e-09 0)
(1.86995e-09 4.70175e-09 0)
(1.68711e-09 1.94714e-10 0)
(1.26532e-09 -6.98015e-09 0)
(1.21144e-09 -1.45907e-08 0)
(5.49866e-10 -1.87049e-08 0)
(-7.66072e-10 -1.66274e-08 0)
(-1.41579e-09 -5.34888e-09 0)
(-1.27486e-09 1.03789e-08 0)
(-8.80957e-10 2.73109e-08 0)
(-8.0659e-11 3.68632e-08 0)
(3.96525e-10 3.35719e-08 0)
(4.75992e-10 2.43809e-08 0)
(7.51456e-12 1.39215e-09 0)
(-8.29376e-10 -1.02423e-08 0)
(-1.30905e-09 -2.64953e-08 0)
(-2.56261e-09 -2.69545e-08 0)
(-3.20722e-11 2.40219e-09 0)
(-5.9899e-10 6.82852e-09 0)
(8.80237e-10 8.90969e-09 0)
(2.49028e-09 8.36804e-09 0)
(3.64886e-09 5.67703e-09 0)
(3.91116e-09 4.17899e-10 0)
(3.59998e-09 -7.10255e-09 0)
(2.92557e-09 -1.48344e-08 0)
(6.73038e-10 -1.88012e-08 0)
(-2.34691e-09 -1.57105e-08 0)
(-4.23878e-09 -3.20775e-09 0)
(-4.42175e-09 1.31093e-08 0)
(-3.35489e-09 2.96289e-08 0)
(-8.88537e-10 3.7946e-08 0)
(9.84288e-10 3.34097e-08 0)
(2.39134e-09 2.31489e-08 0)
(2.12649e-09 1.82535e-10 0)
(7.0118e-10 -1.11635e-08 0)
(-4.01363e-10 -2.68759e-08 0)
(-4.36096e-09 -2.62124e-08 0)
(-3.11857e-10 3.14346e-09 0)
(-3.47785e-10 6.90378e-09 0)
(1.52177e-09 8.52493e-09 0)
(3.74625e-09 9.07862e-09 0)
(3.46038e-09 8.04796e-09 0)
(2.98671e-09 4.28361e-09 0)
(2.93498e-09 -1.66442e-09 0)
(2.58225e-09 -7.92641e-09 0)
(2.07115e-09 -1.17819e-08 0)
(9.04969e-10 -1.06589e-08 0)
(-9.91864e-10 -1.59316e-09 0)
(-2.82829e-09 1.14619e-08 0)
(-3.96153e-09 2.56429e-08 0)
(-3.20116e-09 3.33426e-08 0)
(-1.97571e-09 2.98157e-08 0)
(-3.96547e-10 2.1411e-08 0)
(2.40331e-10 1.39844e-09 0)
(-6.3167e-10 -8.6865e-09 0)
(-1.10121e-09 -2.26557e-08 0)
(-4.74659e-09 -2.31926e-08 0)
(-4.05285e-10 3.8651e-09 0)
(-1.84212e-10 6.93864e-09 0)
(2.53394e-09 7.45346e-09 0)
(5.73555e-09 7.10709e-09 0)
(7.07522e-09 5.75821e-09 0)
(7.13646e-09 1.91946e-09 0)
(6.864e-09 -4.54627e-09 0)
(4.83181e-09 -1.08761e-08 0)
(2.8617e-10 -1.41016e-08 0)
(-4.84581e-09 -1.18962e-08 0)
(-8.05754e-09 -1.97094e-09 0)
(-8.54297e-09 1.14851e-08 0)
(-7.03551e-09 2.53652e-08 0)
(-3.09962e-09 3.2307e-08 0)
(5.1117e-10 2.84171e-08 0)
(3.99572e-09 1.99188e-08 0)
(4.36622e-09 9.40266e-10 0)
(2.00773e-09 -8.60109e-09 0)
(-6.40561e-10 -2.18684e-08 0)
(-7.68988e-09 -2.1618e-08 0)
(-7.14125e-10 4.27403e-09 0)
(-1.50272e-11 7.32679e-09 0)
(2.82455e-09 8.45366e-09 0)
(5.51337e-09 9.59142e-09 0)
(5.88667e-09 9.34037e-09 0)
(4.506e-09 6.31097e-09 0)
(4.35205e-09 1.56442e-09 0)
(3.86723e-09 -2.85653e-09 0)
(2.25224e-09 -5.63144e-09 0)
(-4.36571e-11 -5.1669e-09 0)
(-2.09473e-09 8.8448e-10 0)
(-3.38938e-09 1.01076e-08 0)
(-4.61459e-09 2.07468e-08 0)
(-4.26339e-09 2.68187e-08 0)
(-3.1252e-09 2.43501e-08 0)
(-8.31438e-10 1.79244e-08 0)
(9.98123e-11 2.30711e-09 0)
(-1.33012e-09 -5.99906e-09 0)
(-2.22332e-09 -1.72435e-08 0)
(-7.40866e-09 -1.77209e-08 0)
(-6.62624e-10 5.20905e-09 0)
(7.35735e-10 6.84739e-09 0)
(3.91193e-09 6.19364e-09 0)
(7.62457e-09 6.86581e-09 0)
(9.49902e-09 6.59976e-09 0)
(9.36554e-09 4.71471e-09 0)
(8.7624e-09 9.43195e-10 0)
(6.26934e-09 -3.45323e-09 0)
(7.48237e-10 -5.86714e-09 0)
(-5.40625e-09 -4.96322e-09 0)
(-9.73218e-09 1.09663e-09 0)
(-1.0718e-08 9.44908e-09 0)
(-9.34674e-09 1.81581e-08 0)
(-4.8624e-09 2.24687e-08 0)
(-3.75138e-10 1.9787e-08 0)
(4.2284e-09 1.41635e-08 0)
(5.02812e-09 1.29886e-09 0)
(2.15504e-09 -5.33058e-09 0)
(-4.80564e-10 -1.43829e-08 0)
(-9.04266e-09 -1.45724e-08 0)
(-1.3741e-09 3.91156e-09 0)
(9.60394e-10 5.47879e-09 0)
(5.17403e-09 4.87511e-09 0)
(7.33927e-09 5.37049e-09 0)
(7.52505e-09 4.57223e-09 0)
(6.82353e-09 2.45796e-09 0)
(6.0701e-09 -9.7063e-10 0)
(5.04722e-09 -4.07529e-09 0)
(2.00868e-09 -5.64952e-09 0)
(-2.77137e-09 -4.59327e-09 0)
(-5.96352e-09 1.79165e-10 0)
(-6.50748e-09 6.59642e-09 0)
(-5.97868e-09 1.31074e-08 0)
(-3.76791e-09 1.63477e-08 0)
(-1.84209e-09 1.44073e-08 0)
(5.50202e-10 1.01327e-08 0)
(5.57282e-10 5.44697e-10 0)
(-1.84191e-09 -4.36145e-09 0)
(-3.28287e-09 -1.12799e-08 0)
(-1.01389e-08 -1.09917e-08 0)
(-1.03141e-09 2.19237e-09 0)
(1.11594e-09 3.75927e-09 0)
(5.33174e-09 4.66419e-09 0)
(7.69565e-09 5.77837e-09 0)
(1.05362e-08 6.85766e-09 0)
(1.12264e-08 5.85302e-09 0)
(9.28769e-09 4.71126e-09 0)
(9.40702e-09 3.42255e-09 0)
(1.66602e-09 2.59358e-09 0)
(-4.78075e-09 1.82399e-09 0)
(-9.23571e-09 2.07396e-09 0)
(-1.04965e-08 3.43572e-09 0)
(-9.48337e-09 5.86549e-09 0)
(-5.02159e-09 7.82169e-09 0)
(-5.71581e-10 7.51184e-09 0)
(3.70383e-09 6.10319e-09 0)
(4.24553e-09 1.65587e-09 0)
(1.21608e-09 -8.85761e-10 0)
(-1.33704e-09 -4.28836e-09 0)
(-9.84569e-09 -5.17842e-09 0)
(-1.09938e-09 1.3907e-09 0)
(2.43599e-09 1.3137e-09 0)
(6.04058e-09 9.87142e-10 0)
(9.61132e-09 2.85462e-10 0)
(9.40584e-09 5.90954e-10 0)
(7.81234e-09 -4.8597e-10 0)
(7.87014e-09 -2.17477e-09 0)
(3.64602e-09 -4.95997e-09 0)
(2.13913e-09 -5.32568e-09 0)
(-3.63762e-09 -3.29162e-09 0)
(-7.75584e-09 5.86534e-10 0)
(-8.73805e-09 4.32989e-09 0)
(-7.89774e-09 6.88374e-09 0)
(-4.41445e-09 7.0807e-09 0)
(-1.29581e-09 5.2689e-09 0)
(1.99439e-09 2.89112e-09 0)
(2.22105e-09 -7.74224e-10 0)
(-6.37113e-10 -2.2569e-09 0)
(-2.63979e-09 -4.51636e-09 0)
(-1.07114e-08 -3.79309e-09 0)
)
;

boundaryField
{
    sides
    {
        type            calculated;
        value           nonuniform List<vector> 
40
(
(-1.09938e-09 0 0)
(2.43599e-09 0 0)
(6.04058e-09 0 0)
(9.61132e-09 0 0)
(9.40584e-09 0 0)
(7.81234e-09 0 0)
(7.87014e-09 0 0)
(3.64602e-09 0 0)
(2.13913e-09 0 0)
(-3.63762e-09 0 0)
(-7.75584e-09 0 0)
(-8.73805e-09 0 0)
(-7.89774e-09 0 0)
(-4.41445e-09 0 0)
(-1.29581e-09 0 0)
(1.99439e-09 0 0)
(2.22105e-09 0 0)
(-6.37113e-10 0 0)
(-2.63979e-09 0 0)
(-1.07114e-08 0 0)
(1.08862e-09 0 0)
(-2.4454e-09 0 0)
(-6.02677e-09 0 0)
(-9.63685e-09 0 0)
(-9.42186e-09 0 0)
(-7.83078e-09 0 0)
(-7.86244e-09 0 0)
(-3.75795e-09 0 0)
(-2.09058e-09 0 0)
(3.64722e-09 0 0)
(7.74109e-09 0 0)
(8.73506e-09 0 0)
(7.89835e-09 0 0)
(4.40487e-09 0 0)
(1.28217e-09 0 0)
(-1.999e-09 0 0)
(-2.22834e-09 0 0)
(6.35144e-10 0 0)
(2.62561e-09 0 0)
(1.0705e-08 0 0)
)
;
    }
    inlet
    {
        type            calculated;
        value           uniform (0 0 0);
    }
    outlet
    {
        type            calculated;
        value           nonuniform List<vector> 
20
(
(1.0705e-08 -3.79226e-09 0)
(9.85422e-09 -5.19348e-09 0)
(1.01402e-08 -1.10092e-08 0)
(9.04012e-09 -1.45899e-08 0)
(7.41941e-09 -1.77457e-08 0)
(7.69121e-09 -2.16324e-08 0)
(4.75579e-09 -2.3213e-08 0)
(4.37225e-09 -2.62226e-08 0)
(2.57268e-09 -2.69637e-08 0)
(7.0619e-10 -2.79513e-08 0)
(-6.93961e-10 -2.79505e-08 0)
(-2.56261e-09 -2.69545e-08 0)
(-4.36096e-09 -2.62124e-08 0)
(-4.74659e-09 -2.31926e-08 0)
(-7.68988e-09 -2.1618e-08 0)
(-7.40866e-09 -1.77209e-08 0)
(-9.04266e-09 -1.45724e-08 0)
(-1.01389e-08 -1.09917e-08 0)
(-9.84569e-09 -5.17842e-09 0)
(-1.07114e-08 -3.79309e-09 0)
)
;
    }
    frontAndBack
    {
        type            empty;
    }
}


// ************************************************************************* //
