/*--------------------------------*- C++ -*----------------------------------*\
  =========                 |
  \\      /  F ield         | OpenFOAM: The Open Source CFD Toolbox
   \\    /   O peration     | Website:  https://openfoam.org
    \\  /    A nd           | Version:  7
     \\/     M anipulation  |
\*---------------------------------------------------------------------------*/
FoamFile
{
    version     2.0;
    format      ascii;
    class       volVectorField;
    location    "26";
    object      hU;
}
// * * * * * * * * * * * * * * * * * * * * * * * * * * * * * * * * * * * * * //

dimensions      [0 2 -1 0 0 0 0];

internalField   nonuniform List<vector> 
400
(
(0.001 -9.71693e-09 0)
(0.000999996 -2.69199e-08 0)
(0.000999995 -4.08914e-08 0)
(0.000999999 -5.2988e-08 0)
(0.00100001 -6.40309e-08 0)
(0.00100001 -7.46932e-08 0)
(0.00100002 -8.43638e-08 0)
(0.00100003 -9.31343e-08 0)
(0.00100004 -1.00223e-07 0)
(0.00100006 -1.08621e-07 0)
(0.00100007 -1.1736e-07 0)
(0.00100009 -1.31028e-07 0)
(0.00100011 -1.43179e-07 0)
(0.00100014 -1.63155e-07 0)
(0.00100016 -1.74409e-07 0)
(0.00100023 -2.00552e-07 0)
(0.00100026 -2.05142e-07 0)
(0.00100038 -2.4613e-07 0)
(0.00100039 -2.40933e-07 0)
(0.00100062 -3.2986e-07 0)
(0.001 3.98065e-09 0)
(0.001 1.14749e-08 0)
(0.001 1.91771e-08 0)
(0.00100001 2.61843e-08 0)
(0.00100002 3.22501e-08 0)
(0.00100002 3.77536e-08 0)
(0.00100003 4.373e-08 0)
(0.00100004 4.95317e-08 0)
(0.00100006 5.59007e-08 0)
(0.00100007 6.15057e-08 0)
(0.00100008 6.80594e-08 0)
(0.0010001 7.08814e-08 0)
(0.00100011 7.51937e-08 0)
(0.00100014 7.0401e-08 0)
(0.00100017 7.22061e-08 0)
(0.00100023 5.68916e-08 0)
(0.00100026 6.07606e-08 0)
(0.00100035 2.60726e-08 0)
(0.00100038 3.44319e-08 0)
(0.00100052 -5.52484e-08 0)
(0.001 -4.82236e-09 0)
(0.000999997 -1.69434e-08 0)
(0.000999995 -2.93062e-08 0)
(0.000999998 -4.1725e-08 0)
(0.001 -5.37655e-08 0)
(0.00100001 -6.51545e-08 0)
(0.00100002 -7.46974e-08 0)
(0.00100003 -8.30582e-08 0)
(0.00100004 -8.98175e-08 0)
(0.00100005 -9.80364e-08 0)
(0.00100006 -1.06475e-07 0)
(0.00100008 -1.22459e-07 0)
(0.0010001 -1.38595e-07 0)
(0.00100013 -1.68296e-07 0)
(0.00100015 -1.89186e-07 0)
(0.0010002 -2.3126e-07 0)
(0.00100023 -2.47864e-07 0)
(0.00100031 -3.07605e-07 0)
(0.00100034 -3.1418e-07 0)
(0.00100047 -4.19872e-07 0)
(0.001 -1.99959e-09 0)
(0.001 -7.12997e-09 0)
(0.001 -1.02815e-08 0)
(0.00100001 -1.23989e-08 0)
(0.00100001 -1.40685e-08 0)
(0.00100002 -1.51948e-08 0)
(0.00100003 -1.45536e-08 0)
(0.00100004 -1.24547e-08 0)
(0.00100005 -8.19971e-09 0)
(0.00100006 -5.2982e-09 0)
(0.00100007 -3.19927e-09 0)
(0.00100008 -1.02892e-08 0)
(0.0010001 -1.90456e-08 0)
(0.00100012 -4.39156e-08 0)
(0.00100014 -6.05134e-08 0)
(0.00100019 -9.97169e-08 0)
(0.00100022 -1.12974e-07 0)
(0.00100028 -1.69151e-07 0)
(0.00100031 -1.73068e-07 0)
(0.0010004 -2.74333e-07 0)
(0.001 -3.76125e-09 0)
(0.000999999 -1.3765e-08 0)
(0.000999998 -2.42157e-08 0)
(0.001 -3.55245e-08 0)
(0.001 -4.7381e-08 0)
(0.00100001 -5.87904e-08 0)
(0.00100001 -6.79372e-08 0)
(0.00100002 -7.54069e-08 0)
(0.00100003 -8.08792e-08 0)
(0.00100004 -8.77106e-08 0)
(0.00100005 -9.52961e-08 0)
(0.00100007 -1.12511e-07 0)
(0.00100008 -1.31934e-07 0)
(0.0010001 -1.69155e-07 0)
(0.00100012 -1.98346e-07 0)
(0.00100016 -2.51206e-07 0)
(0.00100018 -2.76447e-07 0)
(0.00100024 -3.43891e-07 0)
(0.00100025 -3.56202e-07 0)
(0.00100034 -4.62561e-07 0)
(0.001 -4.33518e-09 0)
(0.000999999 -1.49442e-08 0)
(0.000999999 -2.52001e-08 0)
(0.001 -3.48172e-08 0)
(0.00100001 -4.34168e-08 0)
(0.00100001 -5.06465e-08 0)
(0.00100002 -5.48694e-08 0)
(0.00100003 -5.62623e-08 0)
(0.00100004 -5.48541e-08 0)
(0.00100004 -5.49971e-08 0)
(0.00100005 -5.7304e-08 0)
(0.00100006 -7.15259e-08 0)
(0.00100007 -8.9995e-08 0)
(0.00100009 -1.28157e-07 0)
(0.0010001 -1.58215e-07 0)
(0.00100013 -2.11868e-07 0)
(0.00100016 -2.36522e-07 0)
(0.0010002 -3.01483e-07 0)
(0.00100022 -3.11608e-07 0)
(0.00100028 -4.11752e-07 0)
(0.001 -4.69838e-09 0)
(0.000999999 -1.58774e-08 0)
(0.000999999 -2.75539e-08 0)
(0.001 -3.96084e-08 0)
(0.001 -5.16349e-08 0)
(0.00100001 -6.3055e-08 0)
(0.00100001 -7.20001e-08 0)
(0.00100002 -7.85873e-08 0)
(0.00100002 -8.24672e-08 0)
(0.00100003 -8.7463e-08 0)
(0.00100004 -9.39672e-08 0)
(0.00100005 -1.12135e-07 0)
(0.00100006 -1.34541e-07 0)
(0.00100007 -1.77593e-07 0)
(0.00100008 -2.12873e-07 0)
(0.00100011 -2.72625e-07 0)
(0.00100012 -3.02778e-07 0)
(0.00100015 -3.72941e-07 0)
(0.00100016 -3.87056e-07 0)
(0.00100021 -4.90315e-07 0)
(0.001 -4.95714e-09 0)
(0.001 -1.68054e-08 0)
(0.000999999 -2.98802e-08 0)
(0.001 -4.33287e-08 0)
(0.001 -5.59345e-08 0)
(0.00100001 -6.70269e-08 0)
(0.00100001 -7.47527e-08 0)
(0.00100001 -7.90418e-08 0)
(0.00100002 -8.00845e-08 0)
(0.00100002 -8.25444e-08 0)
(0.00100003 -8.77529e-08 0)
(0.00100003 -1.06267e-07 0)
(0.00100004 -1.30459e-07 0)
(0.00100005 -1.76321e-07 0)
(0.00100006 -2.14065e-07 0)
(0.00100008 -2.75736e-07 0)
(0.00100009 -3.06339e-07 0)
(0.00100011 -3.75232e-07 0)
(0.00100012 -3.88037e-07 0)
(0.00100015 -4.86655e-07 0)
(0.001 -5.11182e-09 0)
(0.001 -1.73316e-08 0)
(0.001 -3.10613e-08 0)
(0.001 -4.50368e-08 0)
(0.001 -5.81009e-08 0)
(0.001 -6.99511e-08 0)
(0.00100001 -7.90174e-08 0)
(0.00100001 -8.51111e-08 0)
(0.00100001 -8.79929e-08 0)
(0.00100001 -9.19108e-08 0)
(0.00100002 -9.79582e-08 0)
(0.00100002 -1.16978e-07 0)
(0.00100002 -1.41544e-07 0)
(0.00100003 -1.88413e-07 0)
(0.00100004 -2.276e-07 0)
(0.00100005 -2.91536e-07 0)
(0.00100005 -3.24496e-07 0)
(0.00100007 -3.95646e-07 0)
(0.00100007 -4.10266e-07 0)
(0.00100009 -5.10302e-07 0)
(0.001 -5.16066e-09 0)
(0.001 -1.74885e-08 0)
(0.001 -3.1606e-08 0)
(0.001 -4.61927e-08 0)
(0.001 -5.98994e-08 0)
(0.001 -7.21714e-08 0)
(0.001 -8.12791e-08 0)
(0.001 -8.69533e-08 0)
(0.001 -8.9191e-08 0)
(0.00100001 -9.26217e-08 0)
(0.00100001 -9.8711e-08 0)
(0.00100001 -1.18367e-07 0)
(0.00100001 -1.44072e-07 0)
(0.00100001 -1.9233e-07 0)
(0.00100001 -2.32666e-07 0)
(0.00100001 -2.97394e-07 0)
(0.00100002 -3.30504e-07 0)
(0.00100002 -4.0122e-07 0)
(0.00100002 -4.15351e-07 0)
(0.00100003 -5.13873e-07 0)
(0.001 -5.16086e-09 0)
(0.001 -1.74892e-08 0)
(0.001 -3.1607e-08 0)
(0.001 -4.61932e-08 0)
(0.000999999 -5.98991e-08 0)
(0.000999999 -7.21709e-08 0)
(0.000999998 -8.12793e-08 0)
(0.000999997 -8.6954e-08 0)
(0.000999996 -8.9192e-08 0)
(0.000999995 -9.26222e-08 0)
(0.000999994 -9.87113e-08 0)
(0.000999993 -1.18366e-07 0)
(0.000999992 -1.44071e-07 0)
(0.00099999 -1.92328e-07 0)
(0.000999988 -2.32664e-07 0)
(0.000999985 -2.97392e-07 0)
(0.000999982 -3.30502e-07 0)
(0.000999978 -4.01219e-07 0)
(0.000999975 -4.1535e-07 0)
(0.000999969 -5.13872e-07 0)
(0.001 -5.11259e-09 0)
(0.001 -1.73335e-08 0)
(0.001 -3.1064e-08 0)
(0.000999999 -4.50387e-08 0)
(0.000999998 -5.81016e-08 0)
(0.000999996 -6.99513e-08 0)
(0.000999994 -7.90182e-08 0)
(0.000999992 -8.51119e-08 0)
(0.000999989 -8.79931e-08 0)
(0.000999986 -9.19082e-08 0)
(0.000999984 -9.79555e-08 0)
(0.00099998 -1.16973e-07 0)
(0.000999976 -1.41541e-07 0)
(0.000999969 -1.88405e-07 0)
(0.000999963 -2.27592e-07 0)
(0.000999953 -2.91518e-07 0)
(0.000999946 -3.24472e-07 0)
(0.000999933 -3.95608e-07 0)
(0.000999928 -4.10225e-07 0)
(0.00099991 -5.10238e-07 0)
(0.001 -4.95851e-09 0)
(0.001 -1.68086e-08 0)
(0.001 -2.98841e-08 0)
(0.000999999 -4.33312e-08 0)
(0.000999997 -5.59356e-08 0)
(0.000999994 -6.70286e-08 0)
(0.00099999 -7.47566e-08 0)
(0.000999985 -7.9047e-08 0)
(0.00099998 -8.00897e-08 0)
(0.000999976 -8.25469e-08 0)
(0.000999972 -8.77564e-08 0)
(0.000999967 -1.06269e-07 0)
(0.000999961 -1.30466e-07 0)
(0.000999951 -1.76327e-07 0)
(0.000999941 -2.14074e-07 0)
(0.000999924 -2.7574e-07 0)
(0.000999911 -3.06339e-07 0)
(0.000999888 -3.75225e-07 0)
(0.000999877 -3.88025e-07 0)
(0.000999847 -4.86631e-07 0)
(0.001 -4.7004e-09 0)
(0.001 -1.58821e-08 0)
(0.001 -2.75591e-08 0)
(0.000999999 -3.96106e-08 0)
(0.000999995 -5.16341e-08 0)
(0.000999992 -6.3053e-08 0)
(0.000999989 -7.19999e-08 0)
(0.000999984 -7.85877e-08 0)
(0.000999977 -8.24676e-08 0)
(0.00099997 -8.74578e-08 0)
(0.000999963 -9.39613e-08 0)
(0.000999953 -1.1212e-07 0)
(0.000999944 -1.3453e-07 0)
(0.00099993 -1.77565e-07 0)
(0.000999917 -2.12844e-07 0)
(0.000999895 -2.72571e-07 0)
(0.000999879 -3.0272e-07 0)
(0.000999846 -3.7285e-07 0)
(0.000999835 -3.86966e-07 0)
(0.000999788 -4.90171e-07 0)
(0.001 -4.33775e-09 0)
(0.001 -1.49496e-08 0)
(0.001 -2.52066e-08 0)
(0.000999998 -3.48227e-08 0)
(0.000999993 -4.3421e-08 0)
(0.000999987 -5.06515e-08 0)
(0.00099998 -5.48783e-08 0)
(0.000999972 -5.62723e-08 0)
(0.000999964 -5.48645e-08 0)
(0.000999957 -5.50036e-08 0)
(0.000999951 -5.73129e-08 0)
(0.000999941 -7.15332e-08 0)
(0.000999931 -9.00114e-08 0)
(0.000999913 -1.28171e-07 0)
(0.000999895 -1.58232e-07 0)
(0.000999865 -2.11878e-07 0)
(0.000999841 -2.36525e-07 0)
(0.000999799 -3.01473e-07 0)
(0.000999779 -3.11588e-07 0)
(0.000999724 -4.11713e-07 0)
(0.001 -3.76369e-09 0)
(0.001 -1.3769e-08 0)
(0.001 -2.42187e-08 0)
(0.001 -3.55242e-08 0)
(0.000999996 -4.73776e-08 0)
(0.000999991 -5.87866e-08 0)
(0.000999986 -6.7937e-08 0)
(0.000999979 -7.54082e-08 0)
(0.00099997 -8.0882e-08 0)
(0.000999959 -8.77077e-08 0)
(0.000999948 -9.5293e-08 0)
(0.000999933 -1.12495e-07 0)
(0.000999919 -1.31925e-07 0)
(0.000999896 -1.69126e-07 0)
(0.000999877 -1.98323e-07 0)
(0.000999841 -2.51149e-07 0)
(0.000999818 -2.76397e-07 0)
(0.000999763 -3.43794e-07 0)
(0.000999747 -3.56118e-07 0)
(0.000999665 -4.62399e-07 0)
(0.000999999 -2.00381e-09 0)
(0.001 -7.13771e-09 0)
(0.001 -1.02909e-08 0)
(0.000999995 -1.24088e-08 0)
(0.000999988 -1.40768e-08 0)
(0.00099998 -1.52042e-08 0)
(0.000999971 -1.45651e-08 0)
(0.000999961 -1.24656e-08 0)
(0.00099995 -8.20827e-09 0)
(0.000999939 -5.30192e-09 0)
(0.000999931 -3.20688e-09 0)
(0.000999917 -1.02937e-08 0)
(0.000999904 -1.90605e-08 0)
(0.000999879 -4.39222e-08 0)
(0.000999855 -6.05227e-08 0)
(0.000999813 -9.97085e-08 0)
(0.000999779 -1.12957e-07 0)
(0.000999716 -1.69108e-07 0)
(0.000999687 -1.73014e-07 0)
(0.0009996 -2.74247e-07 0)
(0.001 -4.82313e-09 0)
(0.001 -1.6945e-08 0)
(0.001 -2.93078e-08 0)
(0.001 -4.17275e-08 0)
(0.000999997 -5.37652e-08 0)
(0.000999992 -6.51556e-08 0)
(0.000999985 -7.47029e-08 0)
(0.000999975 -8.30671e-08 0)
(0.000999964 -8.98299e-08 0)
(0.00099995 -9.80434e-08 0)
(0.000999939 -1.06484e-07 0)
(0.000999921 -1.22457e-07 0)
(0.000999904 -1.38602e-07 0)
(0.000999874 -1.68287e-07 0)
(0.000999849 -1.89196e-07 0)
(0.000999798 -2.31243e-07 0)
(0.000999768 -2.47874e-07 0)
(0.000999686 -3.0757e-07 0)
(0.000999665 -3.14176e-07 0)
(0.000999533 -4.19797e-07 0)
(0.000999999 3.98086e-09 0)
(0.000999999 1.14714e-08 0)
(0.000999997 1.91683e-08 0)
(0.000999992 2.61798e-08 0)
(0.000999984 3.22445e-08 0)
(0.000999976 3.77518e-08 0)
(0.000999967 4.37308e-08 0)
(0.000999955 4.95363e-08 0)
(0.000999943 5.59068e-08 0)
(0.00099993 6.15176e-08 0)
(0.00099992 6.80654e-08 0)
(0.000999902 7.08917e-08 0)
(0.000999887 7.51934e-08 0)
(0.000999856 7.04155e-08 0)
(0.000999829 7.22133e-08 0)
(0.000999774 5.69304e-08 0)
(0.000999737 6.0794e-08 0)
(0.000999649 2.61542e-08 0)
(0.000999618 3.45054e-08 0)
(0.000999484 -5.51108e-08 0)
(0.001 -9.7174e-09 0)
(0.001 -2.69241e-08 0)
(0.001 -4.09025e-08 0)
(0.001 -5.29977e-08 0)
(0.000999995 -6.40498e-08 0)
(0.000999987 -7.47144e-08 0)
(0.000999979 -8.43882e-08 0)
(0.000999968 -9.31603e-08 0)
(0.000999956 -1.00254e-07 0)
(0.000999941 -1.08652e-07 0)
(0.000999931 -1.17398e-07 0)
(0.000999909 -1.31067e-07 0)
(0.000999895 -1.43225e-07 0)
(0.000999857 -1.63203e-07 0)
(0.000999836 -1.74466e-07 0)
(0.000999767 -2.00613e-07 0)
(0.000999742 -2.0521e-07 0)
(0.00099962 -2.46206e-07 0)
(0.000999608 -2.4101e-07 0)
(0.000999384 -3.29982e-07 0)
)
;

boundaryField
{
    sides
    {
        type            slip;
    }
    inlet
    {
        type            fixedValue;
        value           uniform (0.001 0 0);
    }
    outlet
    {
        type            zeroGradient;
    }
    frontAndBack
    {
        type            empty;
    }
}


// ************************************************************************* //
