/*--------------------------------*- C++ -*----------------------------------*\
  =========                 |
  \\      /  F ield         | OpenFOAM: The Open Source CFD Toolbox
   \\    /   O peration     | Website:  https://openfoam.org
    \\  /    A nd           | Version:  7
     \\/     M anipulation  |
\*---------------------------------------------------------------------------*/
FoamFile
{
    version     2.0;
    format      ascii;
    class       volVectorField;
    location    "26";
    object      U;
}
// * * * * * * * * * * * * * * * * * * * * * * * * * * * * * * * * * * * * * //

dimensions      [0 1 -1 0 0 0 0];

internalField   nonuniform List<vector> 
400
(
(0.0999933 -9.71628e-07 0)
(0.0999928 -2.6918e-06 0)
(0.0999927 -4.08886e-06 0)
(0.099993 -5.29844e-06 0)
(0.0999936 -6.40264e-06 0)
(0.0999944 -7.4688e-06 0)
(0.0999952 -8.4358e-06 0)
(0.0999964 -9.31279e-06 0)
(0.0999976 -1.00216e-05 0)
(0.0999993 -1.08613e-05 0)
(0.1 -1.17352e-05 0)
(0.100003 -1.3102e-05 0)
(0.100005 -1.4317e-05 0)
(0.100009 -1.63146e-05 0)
(0.100011 -1.744e-05 0)
(0.100019 -2.00543e-05 0)
(0.100022 -2.05134e-05 0)
(0.100035 -2.46122e-05 0)
(0.100037 -2.40928e-05 0)
(0.100061 -3.29857e-05 0)
(0.0999945 3.98043e-07 0)
(0.0999945 1.14743e-06 0)
(0.0999947 1.9176e-06 0)
(0.0999952 2.61829e-06 0)
(0.0999959 3.22482e-06 0)
(0.0999968 3.77515e-06 0)
(0.0999977 4.37275e-06 0)
(0.0999989 4.95289e-06 0)
(0.1 5.58977e-06 0)
(0.100002 6.15024e-06 0)
(0.100003 6.80558e-06 0)
(0.100005 7.08779e-06 0)
(0.100007 7.51902e-06 0)
(0.10001 7.0398e-06 0)
(0.100013 7.22033e-06 0)
(0.100019 5.68897e-06 0)
(0.100024 6.07589e-06 0)
(0.100033 2.60721e-06 0)
(0.100037 3.44315e-06 0)
(0.100051 -5.52481e-06 0)
(0.099995 -4.82212e-07 0)
(0.0999946 -1.69425e-06 0)
(0.0999943 -2.93046e-06 0)
(0.0999946 -4.17228e-06 0)
(0.099995 -5.37627e-06 0)
(0.0999956 -6.51511e-06 0)
(0.0999963 -7.46935e-06 0)
(0.0999973 -8.30539e-06 0)
(0.0999985 -8.98129e-06 0)
(0.1 -9.80316e-06 0)
(0.100001 -1.0647e-05 0)
(0.100003 -1.22453e-05 0)
(0.100005 -1.38589e-05 0)
(0.100009 -1.68289e-05 0)
(0.100011 -1.89179e-05 0)
(0.100017 -2.31252e-05 0)
(0.100021 -2.47858e-05 0)
(0.100029 -3.07599e-05 0)
(0.100032 -3.14176e-05 0)
(0.100046 -4.1987e-05 0)
(0.0999958 -1.9995e-07 0)
(0.0999957 -7.12967e-07 0)
(0.0999957 -1.02811e-06 0)
(0.0999962 -1.23984e-06 0)
(0.0999969 -1.40678e-06 0)
(0.0999977 -1.51941e-06 0)
(0.0999986 -1.4553e-06 0)
(0.0999997 -1.24542e-06 0)
(0.100001 -8.19936e-07 0)
(0.100002 -5.29799e-07 0)
(0.100003 -3.19915e-07 0)
(0.100005 -1.02888e-06 0)
(0.100006 -1.90449e-06 0)
(0.100009 -4.39142e-06 0)
(0.100012 -6.05117e-06 0)
(0.100016 -9.97145e-06 0)
(0.10002 -1.12972e-05 0)
(0.100027 -1.69149e-05 0)
(0.10003 -1.73066e-05 0)
(0.10004 -2.74332e-05 0)
(0.0999965 -3.76112e-07 0)
(0.0999962 -1.37645e-06 0)
(0.0999961 -2.42148e-06 0)
(0.0999963 -3.55232e-06 0)
(0.0999967 -4.73792e-06 0)
(0.0999972 -5.87883e-06 0)
(0.0999977 -6.79347e-06 0)
(0.0999985 -7.54041e-06 0)
(0.0999994 -8.08763e-06 0)
(0.100001 -8.77075e-06 0)
(0.100002 -9.52929e-06 0)
(0.100003 -1.12507e-05 0)
(0.100005 -1.3193e-05 0)
(0.100008 -1.69151e-05 0)
(0.10001 -1.98342e-05 0)
(0.100014 -2.512e-05 0)
(0.100016 -2.76442e-05 0)
(0.100022 -3.43886e-05 0)
(0.100024 -3.56199e-05 0)
(0.100033 -4.62559e-05 0)
(0.0999971 -4.33505e-07 0)
(0.099997 -1.49438e-06 0)
(0.0999969 -2.51993e-06 0)
(0.0999972 -3.48162e-06 0)
(0.0999977 -4.34155e-06 0)
(0.0999983 -5.0645e-06 0)
(0.099999 -5.48678e-06 0)
(0.0999999 -5.62606e-06 0)
(0.100001 -5.48526e-06 0)
(0.100002 -5.49956e-06 0)
(0.100002 -5.73025e-06 0)
(0.100003 -7.15241e-06 0)
(0.100005 -8.99928e-06 0)
(0.100006 -1.28155e-05 0)
(0.100009 -1.58212e-05 0)
(0.100012 -2.11865e-05 0)
(0.100015 -2.36519e-05 0)
(0.100019 -3.0148e-05 0)
(0.100022 -3.11607e-05 0)
(0.100027 -4.11752e-05 0)
(0.0999978 -4.69827e-07 0)
(0.0999977 -1.5877e-06 0)
(0.0999976 -2.75532e-06 0)
(0.0999979 -3.96075e-06 0)
(0.0999982 -5.16337e-06 0)
(0.0999985 -6.30536e-06 0)
(0.0999989 -7.19984e-06 0)
(0.0999994 -7.85855e-06 0)
(0.1 -8.24653e-06 0)
(0.100001 -8.74611e-06 0)
(0.100002 -9.39652e-06 0)
(0.100003 -1.12132e-05 0)
(0.100004 -1.34538e-05 0)
(0.100005 -1.7759e-05 0)
(0.100007 -2.1287e-05 0)
(0.100009 -2.72622e-05 0)
(0.100011 -3.02775e-05 0)
(0.100015 -3.72938e-05 0)
(0.100016 -3.87054e-05 0)
(0.100021 -4.90314e-05 0)
(0.0999984 -4.95706e-07 0)
(0.0999983 -1.68051e-06 0)
(0.0999983 -2.98797e-06 0)
(0.0999984 -4.3328e-06 0)
(0.0999987 -5.59336e-06 0)
(0.099999 -6.70258e-06 0)
(0.0999994 -7.47515e-06 0)
(0.0999999 -7.90406e-06 0)
(0.1 -8.00833e-06 0)
(0.100001 -8.25432e-06 0)
(0.100001 -8.77516e-06 0)
(0.100002 -1.06266e-05 0)
(0.100003 -1.30457e-05 0)
(0.100004 -1.76319e-05 0)
(0.100005 -2.14063e-05 0)
(0.100007 -2.75733e-05 0)
(0.100008 -3.06337e-05 0)
(0.100011 -3.7523e-05 0)
(0.100012 -3.88036e-05 0)
(0.100015 -4.86654e-05 0)
(0.0999991 -5.11177e-07 0)
(0.099999 -1.73315e-06 0)
(0.099999 -3.1061e-06 0)
(0.0999991 -4.50363e-06 0)
(0.0999993 -5.81003e-06 0)
(0.0999994 -6.99504e-06 0)
(0.0999996 -7.90167e-06 0)
(0.0999999 -8.51103e-06 0)
(0.1 -8.79921e-06 0)
(0.1 -9.191e-06 0)
(0.100001 -9.79573e-06 0)
(0.100001 -1.16977e-05 0)
(0.100002 -1.41542e-05 0)
(0.100002 -1.88412e-05 0)
(0.100003 -2.27598e-05 0)
(0.100004 -2.91535e-05 0)
(0.100005 -3.24494e-05 0)
(0.100006 -3.95645e-05 0)
(0.100007 -4.10265e-05 0)
(0.100009 -5.10302e-05 0)
(0.0999997 -5.16065e-07 0)
(0.0999997 -1.74884e-06 0)
(0.0999997 -3.16059e-06 0)
(0.0999997 -4.61925e-06 0)
(0.0999997 -5.98992e-06 0)
(0.0999998 -7.21711e-06 0)
(0.0999999 -8.12789e-06 0)
(0.1 -8.6953e-06 0)
(0.1 -8.91908e-06 0)
(0.1 -9.26214e-06 0)
(0.1 -9.87107e-06 0)
(0.1 -1.18366e-05 0)
(0.100001 -1.44071e-05 0)
(0.100001 -1.92329e-05 0)
(0.100001 -2.32666e-05 0)
(0.100001 -2.97394e-05 0)
(0.100002 -3.30504e-05 0)
(0.100002 -4.0122e-05 0)
(0.100002 -4.1535e-05 0)
(0.100003 -5.13873e-05 0)
(0.1 -5.16088e-07 0)
(0.1 -1.74892e-06 0)
(0.1 -3.16071e-06 0)
(0.1 -4.61933e-06 0)
(0.1 -5.98993e-06 0)
(0.1 -7.21712e-06 0)
(0.1 -8.12795e-06 0)
(0.1 -8.69543e-06 0)
(0.0999999 -8.91922e-06 0)
(0.0999998 -9.26225e-06 0)
(0.0999997 -9.87116e-06 0)
(0.0999996 -1.18366e-05 0)
(0.0999994 -1.44072e-05 0)
(0.0999992 -1.92328e-05 0)
(0.099999 -2.32665e-05 0)
(0.0999987 -2.97392e-05 0)
(0.0999984 -3.30502e-05 0)
(0.0999979 -4.01219e-05 0)
(0.0999976 -4.1535e-05 0)
(0.0999969 -5.13872e-05 0)
(0.100001 -5.11264e-07 0)
(0.100001 -1.73337e-06 0)
(0.100001 -3.10643e-06 0)
(0.100001 -4.50391e-06 0)
(0.100001 -5.81022e-06 0)
(0.100001 -6.9952e-06 0)
(0.1 -7.90189e-06 0)
(0.1 -8.51127e-06 0)
(0.0999999 -8.79939e-06 0)
(0.0999995 -9.19091e-06 0)
(0.0999992 -9.79564e-06 0)
(0.0999988 -1.16974e-05 0)
(0.0999983 -1.41542e-05 0)
(0.0999976 -1.88406e-05 0)
(0.0999969 -2.27593e-05 0)
(0.0999959 -2.9152e-05 0)
(0.0999951 -3.24474e-05 0)
(0.0999936 -3.9561e-05 0)
(0.099993 -4.10225e-05 0)
(0.099991 -5.10238e-05 0)
(0.100002 -4.95859e-07 0)
(0.100002 -1.68089e-06 0)
(0.100002 -2.98846e-06 0)
(0.100002 -4.33319e-06 0)
(0.100001 -5.59365e-06 0)
(0.100001 -6.70297e-06 0)
(0.100001 -7.47578e-06 0)
(0.1 -7.90482e-06 0)
(0.0999996 -8.00909e-06 0)
(0.0999991 -8.25481e-06 0)
(0.0999987 -8.77577e-06 0)
(0.0999981 -1.06271e-05 0)
(0.0999974 -1.30468e-05 0)
(0.0999963 -1.76329e-05 0)
(0.0999951 -2.14076e-05 0)
(0.0999933 -2.75743e-05 0)
(0.0999918 -3.06341e-05 0)
(0.0999893 -3.75227e-05 0)
(0.0999881 -3.88026e-05 0)
(0.0999848 -4.86631e-05 0)
(0.100002 -4.70051e-07 0)
(0.100002 -1.58825e-06 0)
(0.100002 -2.75598e-06 0)
(0.100002 -3.96115e-06 0)
(0.100002 -5.16352e-06 0)
(0.100001 -6.30545e-06 0)
(0.100001 -7.20015e-06 0)
(0.100001 -7.85895e-06 0)
(0.1 -8.24695e-06 0)
(0.0999991 -8.74597e-06 0)
(0.0999984 -9.39632e-06 0)
(0.0999973 -1.12122e-05 0)
(0.0999962 -1.34532e-05 0)
(0.0999946 -1.77568e-05 0)
(0.0999932 -2.12848e-05 0)
(0.0999907 -2.72575e-05 0)
(0.0999889 -3.02723e-05 0)
(0.0999854 -3.72853e-05 0)
(0.099984 -3.86968e-05 0)
(0.099979 -4.90171e-05 0)
(0.100003 -4.33788e-07 0)
(0.100003 -1.495e-06 0)
(0.100003 -2.52074e-06 0)
(0.100003 -3.48237e-06 0)
(0.100002 -4.34223e-06 0)
(0.100002 -5.0653e-06 0)
(0.100001 -5.48799e-06 0)
(0.1 -5.6274e-06 0)
(0.0999993 -5.48661e-06 0)
(0.0999984 -5.50051e-06 0)
(0.0999977 -5.73144e-06 0)
(0.0999967 -7.1535e-06 0)
(0.0999955 -9.00135e-06 0)
(0.0999935 -1.28173e-05 0)
(0.0999915 -1.58235e-05 0)
(0.0999882 -2.11881e-05 0)
(0.0999854 -2.36528e-05 0)
(0.0999808 -3.01476e-05 0)
(0.0999785 -3.1159e-05 0)
(0.0999725 -4.11714e-05 0)
(0.100004 -3.76382e-07 0)
(0.100004 -1.37695e-06 0)
(0.100004 -2.42196e-06 0)
(0.100004 -3.55255e-06 0)
(0.100003 -4.73793e-06 0)
(0.100003 -5.87888e-06 0)
(0.100002 -6.79395e-06 0)
(0.100002 -7.5411e-06 0)
(0.100001 -8.08849e-06 0)
(0.0999994 -8.77107e-06 0)
(0.0999982 -9.52962e-06 0)
(0.0999965 -1.12498e-05 0)
(0.0999949 -1.31929e-05 0)
(0.0999924 -1.6913e-05 0)
(0.0999902 -1.98328e-05 0)
(0.0999862 -2.51155e-05 0)
(0.0999835 -2.76402e-05 0)
(0.0999776 -3.43799e-05 0)
(0.0999755 -3.56121e-05 0)
(0.0999668 -4.62401e-05 0)
(0.100004 -2.0039e-07 0)
(0.100004 -7.13801e-07 0)
(0.100004 -1.02913e-06 0)
(0.100004 -1.24093e-06 0)
(0.100003 -1.40775e-06 0)
(0.100002 -1.52048e-06 0)
(0.100001 -1.45657e-06 0)
(0.1 -1.24662e-06 0)
(0.0999992 -8.20861e-07 0)
(0.099998 -5.30213e-07 0)
(0.099997 -3.20701e-07 0)
(0.0999954 -1.02941e-06 0)
(0.0999939 -1.90612e-06 0)
(0.0999911 -4.39236e-06 0)
(0.0999884 -6.05244e-06 0)
(0.0999837 -9.97109e-06 0)
(0.0999799 -1.12959e-05 0)
(0.099973 -1.6911e-05 0)
(0.0999696 -1.73015e-05 0)
(0.0999603 -2.74248e-05 0)
(0.100005 -4.82337e-07 0)
(0.100005 -1.69458e-06 0)
(0.100006 -2.93094e-06 0)
(0.100005 -4.17297e-06 0)
(0.100005 -5.37681e-06 0)
(0.100004 -6.5159e-06 0)
(0.100004 -7.47068e-06 0)
(0.100003 -8.30714e-06 0)
(0.100001 -8.98345e-06 0)
(0.1 -9.80483e-06 0)
(0.0999987 -1.06489e-05 0)
(0.0999967 -1.22462e-05 0)
(0.0999948 -1.38608e-05 0)
(0.0999914 -1.68294e-05 0)
(0.0999886 -1.89202e-05 0)
(0.0999829 -2.3125e-05 0)
(0.0999794 -2.47881e-05 0)
(0.0999706 -3.07576e-05 0)
(0.0999677 -3.1418e-05 0)
(0.0999538 -4.19799e-05 0)
(0.100005 3.98108e-07 0)
(0.100006 1.1472e-06 0)
(0.100005 1.91694e-06 0)
(0.100005 2.61813e-06 0)
(0.100004 3.22464e-06 0)
(0.100003 3.77539e-06 0)
(0.100002 4.37332e-06 0)
(0.100001 4.9539e-06 0)
(0.0999998 5.59099e-06 0)
(0.0999984 6.15208e-06 0)
(0.0999971 6.80689e-06 0)
(0.0999952 7.08952e-06 0)
(0.0999933 7.51969e-06 0)
(0.0999899 7.04186e-06 0)
(0.0999868 7.22161e-06 0)
(0.0999808 5.69323e-06 0)
(0.0999765 6.07957e-06 0)
(0.099967 2.61548e-06 0)
(0.0999631 3.45059e-06 0)
(0.0999488 -5.51111e-06 0)
(0.100007 -9.71805e-07 0)
(0.100007 -2.69259e-06 0)
(0.100007 -4.09053e-06 0)
(0.100007 -5.30013e-06 0)
(0.100006 -6.40542e-06 0)
(0.100006 -7.47196e-06 0)
(0.100005 -8.43941e-06 0)
(0.100004 -9.31667e-06 0)
(0.100002 -1.0026e-05 0)
(0.100001 -1.08659e-05 0)
(0.0999995 -1.17405e-05 0)
(0.0999971 -1.31075e-05 0)
(0.0999954 -1.43233e-05 0)
(0.0999912 -1.63212e-05 0)
(0.0999886 -1.74475e-05 0)
(0.0999812 -2.00623e-05 0)
(0.0999781 -2.05218e-05 0)
(0.0999651 -2.46214e-05 0)
(0.0999629 -2.41015e-05 0)
(0.0999393 -3.29984e-05 0)
)
;

boundaryField
{
    sides
    {
        type            calculated;
        value           nonuniform List<vector> 
40
(
(0.100007 0 0)
(0.100007 0 0)
(0.100007 0 0)
(0.100007 0 0)
(0.100006 0 0)
(0.100006 0 0)
(0.100005 0 0)
(0.100004 0 0)
(0.100002 0 0)
(0.100001 0 0)
(0.0999995 0 0)
(0.0999971 0 0)
(0.0999954 0 0)
(0.0999912 0 0)
(0.0999886 0 0)
(0.0999812 0 0)
(0.0999781 0 0)
(0.0999651 0 0)
(0.0999629 0 0)
(0.0999393 0 0)
(0.0999933 0 0)
(0.0999928 0 0)
(0.0999927 0 0)
(0.099993 0 0)
(0.0999936 0 0)
(0.0999944 0 0)
(0.0999952 0 0)
(0.0999964 0 0)
(0.0999976 0 0)
(0.0999993 0 0)
(0.1 0 0)
(0.100003 0 0)
(0.100005 0 0)
(0.100009 0 0)
(0.100011 0 0)
(0.100019 0 0)
(0.100022 0 0)
(0.100035 0 0)
(0.100037 0 0)
(0.100061 0 0)
)
;
    }
    inlet
    {
        type            calculated;
        value           nonuniform List<vector> 
20
(
(0.0999933 0 0)
(0.0999944 0 0)
(0.099995 0 0)
(0.0999957 0 0)
(0.0999964 0 0)
(0.0999971 0 0)
(0.0999977 0 0)
(0.0999984 0 0)
(0.099999 0 0)
(0.0999997 0 0)
(0.1 0 0)
(0.100001 0 0)
(0.100002 0 0)
(0.100002 0 0)
(0.100003 0 0)
(0.100004 0 0)
(0.100004 0 0)
(0.100005 0 0)
(0.100006 0 0)
(0.100007 0 0)
)
;
    }
    outlet
    {
        type            calculated;
        value           nonuniform List<vector> 
20
(
(0.100062 -3.2986e-05 0)
(0.100052 -5.52484e-06 0)
(0.100047 -4.19872e-05 0)
(0.10004 -2.74333e-05 0)
(0.100034 -4.62561e-05 0)
(0.100028 -4.11752e-05 0)
(0.100021 -4.90315e-05 0)
(0.100015 -4.86655e-05 0)
(0.100009 -5.10302e-05 0)
(0.100003 -5.13873e-05 0)
(0.0999969 -5.13872e-05 0)
(0.099991 -5.10238e-05 0)
(0.0999847 -4.86631e-05 0)
(0.0999788 -4.90171e-05 0)
(0.0999724 -4.11713e-05 0)
(0.0999665 -4.62399e-05 0)
(0.09996 -2.74247e-05 0)
(0.0999533 -4.19797e-05 0)
(0.0999484 -5.51108e-06 0)
(0.0999384 -3.29982e-05 0)
)
;
    }
    frontAndBack
    {
        type            empty;
    }
}


// ************************************************************************* //
