/*--------------------------------*- C++ -*----------------------------------*\
  =========                 |
  \\      /  F ield         | OpenFOAM: The Open Source CFD Toolbox
   \\    /   O peration     | Website:  https://openfoam.org
    \\  /    A nd           | Version:  7
     \\/     M anipulation  |
\*---------------------------------------------------------------------------*/
FoamFile
{
    version     2.0;
    format      ascii;
    class       volScalarField;
    location    "27";
    object      ddt0(h);
}
// * * * * * * * * * * * * * * * * * * * * * * * * * * * * * * * * * * * * * //

dimensions      [0 1 -1 0 0 0 0];

internalField   nonuniform List<scalar> 
400
(
4.0185e-08
3.71036e-08
3.14247e-08
2.50903e-08
1.49988e-08
2.62024e-08
1.09371e-09
-1.24601e-08
-9.83839e-09
-1.29604e-08
-1.66608e-08
-1.88925e-08
-2.00464e-08
-1.98814e-08
-1.78747e-08
-1.47064e-08
-1.12022e-08
-6.71553e-09
-2.36323e-09
-9.04023e-11
3.94241e-08
3.62401e-08
2.85444e-08
2.29505e-08
1.97122e-08
-7.63064e-09
2.99738e-09
5.26237e-09
-7.6784e-09
-1.33532e-08
-1.73972e-08
-1.95513e-08
-2.02635e-08
-1.96732e-08
-1.75444e-08
-1.44239e-08
-1.09851e-08
-6.8504e-09
-3.13014e-09
-6.45491e-10
4.36798e-08
3.45559e-08
3.07497e-08
2.51755e-08
1.87099e-08
1.04661e-08
4.23583e-09
-2.88389e-09
-7.84296e-09
-1.3522e-08
-1.77404e-08
-1.9938e-08
-2.04272e-08
-1.97364e-08
-1.81879e-08
-1.53736e-08
-1.18042e-08
-8.1696e-09
-4.98226e-09
-1.57739e-09
3.82833e-08
3.1308e-08
2.65868e-08
2.20203e-08
1.67347e-08
1.05813e-08
3.46508e-09
-2.37106e-09
-8.15336e-09
-1.42856e-08
-1.85864e-08
-2.05493e-08
-2.02404e-08
-1.8838e-08
-1.69632e-08
-1.41683e-08
-1.09943e-08
-8.43504e-09
-6.37922e-09
-2.55739e-09
4.24976e-08
4.09194e-08
3.62483e-08
3.1089e-08
2.33682e-08
1.60148e-08
7.48316e-09
3.01653e-10
-6.27091e-09
-1.20195e-08
-1.64592e-08
-1.92605e-08
-1.97832e-08
-1.86647e-08
-1.67177e-08
-1.38667e-08
-1.09335e-08
-8.734e-09
-6.31445e-09
-2.26755e-09
3.75535e-08
3.51164e-08
3.1891e-08
2.67228e-08
2.10669e-08
1.32975e-08
5.26657e-09
-7.90238e-10
-7.86422e-09
-1.35307e-08
-1.71126e-08
-1.92149e-08
-1.99004e-08
-1.89515e-08
-1.63869e-08
-1.3036e-08
-1.0305e-08
-8.01645e-09
-5.19579e-09
-1.70109e-09
3.38691e-08
3.22672e-08
2.90357e-08
2.50543e-08
1.88061e-08
1.23449e-08
4.97461e-09
-1.49742e-09
-6.67572e-09
-1.1407e-08
-1.47825e-08
-1.66554e-08
-1.79389e-08
-1.80141e-08
-1.61505e-08
-1.33092e-08
-1.06769e-08
-7.74291e-09
-4.2679e-09
-1.13239e-09
2.63641e-08
2.56022e-08
2.31323e-08
2.01735e-08
1.52785e-08
9.26652e-09
4.83652e-09
-9.53542e-10
-5.76634e-09
-9.13644e-09
-1.14903e-08
-1.28665e-08
-1.39271e-08
-1.44832e-08
-1.37164e-08
-1.20258e-08
-9.9993e-09
-6.91933e-09
-3.3951e-09
-8.27203e-10
1.6475e-08
1.61851e-08
1.46624e-08
1.33879e-08
9.6952e-09
6.7647e-09
3.46685e-09
-9.08442e-10
-3.56049e-09
-5.44479e-09
-7.59886e-09
-8.55425e-09
-8.32677e-09
-8.43117e-09
-8.97577e-09
-9.0303e-09
-7.87394e-09
-5.23788e-09
-2.50206e-09
-6.56922e-10
5.6606e-09
5.35556e-09
5.56627e-09
4.48965e-09
3.69521e-09
2.17719e-09
7.59058e-10
-5.28101e-10
-1.07779e-09
-1.86188e-09
-2.80787e-09
-2.88586e-09
-2.38862e-09
-2.35597e-09
-2.95912e-09
-3.48172e-09
-3.2406e-09
-2.12932e-09
-8.71123e-10
-1.35654e-10
-5.68476e-09
-5.37206e-09
-5.58399e-09
-4.49563e-09
-3.69982e-09
-2.18576e-09
-7.59389e-10
5.29913e-10
1.07472e-09
1.8595e-09
2.80124e-09
2.87088e-09
2.36593e-09
2.32483e-09
2.92582e-09
3.46109e-09
3.24618e-09
2.15913e-09
9.09875e-10
1.55006e-10
-1.64835e-08
-1.61969e-08
-1.46789e-08
-1.34028e-08
-9.71456e-09
-6.77739e-09
-3.48395e-09
9.00801e-10
3.55877e-09
5.44194e-09
7.58854e-09
8.53153e-09
8.29986e-09
8.40687e-09
8.94938e-09
8.99925e-09
7.85117e-09
5.23487e-09
2.51446e-09
6.65808e-10
-2.63549e-08
-2.56107e-08
-2.31486e-08
-2.01987e-08
-1.53264e-08
-9.30086e-09
-4.86655e-09
9.3513e-10
5.75612e-09
9.12355e-09
1.14854e-08
1.2852e-08
1.38934e-08
1.44477e-08
1.3686e-08
1.19896e-08
9.95798e-09
6.88634e-09
3.37633e-09
8.20949e-10
-3.38558e-08
-3.22793e-08
-2.90487e-08
-2.51148e-08
-1.8848e-08
-1.2393e-08
-5.00667e-09
1.46119e-09
6.6758e-09
1.13904e-08
1.47674e-08
1.66536e-08
1.79163e-08
1.79708e-08
1.61111e-08
1.32758e-08
1.06401e-08
7.70419e-09
4.23569e-09
1.11919e-09
-3.75652e-08
-3.51377e-08
-3.19225e-08
-2.67786e-08
-2.10948e-08
-1.3348e-08
-5.27298e-09
7.49448e-10
7.85093e-09
1.35353e-08
1.70908e-08
1.92079e-08
1.9896e-08
1.89251e-08
1.63556e-08
1.30174e-08
1.02914e-08
7.99604e-09
5.17251e-09
1.69023e-09
-4.25388e-08
-4.09419e-08
-3.62835e-08
-3.11129e-08
-2.33975e-08
-1.60162e-08
-7.48104e-09
-3.03811e-10
6.2437e-09
1.20385e-08
1.6459e-08
1.925e-08
1.97857e-08
1.86615e-08
1.67071e-08
1.38657e-08
1.09417e-08
8.7347e-09
6.30589e-09
2.26254e-09
-3.83669e-08
-3.13204e-08
-2.66353e-08
-2.19738e-08
-1.67391e-08
-1.05439e-08
-3.46108e-09
2.43324e-09
8.13375e-09
1.42931e-08
1.85931e-08
2.05372e-08
2.02416e-08
1.88472e-08
1.69665e-08
1.41744e-08
1.10099e-08
8.44776e-09
6.38245e-09
2.55758e-09
-4.37925e-08
-3.45661e-08
-3.08209e-08
-2.50778e-08
-1.86965e-08
-1.03796e-08
-4.1815e-09
2.94507e-09
7.86725e-09
1.35107e-08
1.77448e-08
1.9927e-08
2.04227e-08
1.97454e-08
1.81955e-08
1.53789e-08
1.18147e-08
8.18125e-09
4.98915e-09
1.57923e-09
-3.94849e-08
-3.6296e-08
-2.85833e-08
-2.28782e-08
-2.06898e-08
8.03694e-09
-2.7028e-09
-6.38521e-09
7.62991e-09
1.33549e-08
1.73987e-08
1.95499e-08
2.02528e-08
1.9665e-08
1.75384e-08
1.44136e-08
1.09751e-08
6.85033e-09
3.13811e-09
6.51344e-10
-4.01801e-08
-3.72183e-08
-3.1382e-08
-2.53289e-08
-1.4022e-08
-2.66825e-08
-1.41549e-09
1.3542e-08
9.92616e-09
1.29544e-08
1.66584e-08
1.88925e-08
2.00214e-08
1.98559e-08
1.78592e-08
1.46882e-08
1.11808e-08
6.70739e-09
2.37165e-09
9.74348e-11
)
;

boundaryField
{
    sides
    {
        type            calculated;
        value           nonuniform List<scalar> 
40
(
-4.01801e-08
-3.72183e-08
-3.1382e-08
-2.53289e-08
-1.4022e-08
-2.66825e-08
-1.41549e-09
1.3542e-08
9.92616e-09
1.29544e-08
1.66584e-08
1.88925e-08
2.00214e-08
1.98559e-08
1.78592e-08
1.46882e-08
1.11808e-08
6.70739e-09
2.37165e-09
9.74348e-11
4.0185e-08
3.71036e-08
3.14247e-08
2.50903e-08
1.49988e-08
2.62024e-08
1.09371e-09
-1.24601e-08
-9.83839e-09
-1.29604e-08
-1.66608e-08
-1.88925e-08
-2.00464e-08
-1.98814e-08
-1.78747e-08
-1.47064e-08
-1.12022e-08
-6.71553e-09
-2.36323e-09
-9.04023e-11
)
;
    }
    inlet
    {
        type            calculated;
        value           nonuniform List<scalar> 
20
(
4.0185e-08
3.94241e-08
4.36798e-08
3.82833e-08
4.24976e-08
3.75535e-08
3.38691e-08
2.63641e-08
1.6475e-08
5.6606e-09
-5.68476e-09
-1.64835e-08
-2.63549e-08
-3.38558e-08
-3.75652e-08
-4.25388e-08
-3.83669e-08
-4.37925e-08
-3.94849e-08
-4.01801e-08
)
;
    }
    outlet
    {
        type            calculated;
        value           uniform 0;
    }
    frontAndBack
    {
        type            empty;
    }
}


// ************************************************************************* //
