/*--------------------------------*- C++ -*----------------------------------*\
  =========                 |
  \\      /  F ield         | OpenFOAM: The Open Source CFD Toolbox
   \\    /   O peration     | Website:  https://openfoam.org
    \\  /    A nd           | Version:  7
     \\/     M anipulation  |
\*---------------------------------------------------------------------------*/
FoamFile
{
    version     2.0;
    format      ascii;
    class       volVectorField;
    location    "27";
    object      ddtCorrDdt0(hU);
}
// * * * * * * * * * * * * * * * * * * * * * * * * * * * * * * * * * * * * * //

dimensions      [0 2 -2 0 0 0 0];

internalField   nonuniform List<vector> 
400
(
(-3.91255e-11 4.01409e-10 0)
(2.99529e-09 2.90725e-09 0)
(2.14801e-09 5.13507e-09 0)
(-6.44932e-10 4.88066e-09 0)
(-2.08321e-09 4.17777e-09 0)
(4.54919e-10 3.33215e-09 0)
(-9.1292e-10 1.85335e-09 0)
(-2.41423e-09 -5.24632e-10 0)
(-1.08213e-09 -2.65723e-09 0)
(2.28983e-09 -5.07179e-09 0)
(6.57349e-09 -5.59778e-09 0)
(9.94916e-09 -3.76597e-09 0)
(1.21962e-08 -3.60691e-10 0)
(1.18073e-08 3.41011e-09 0)
(8.7771e-09 5.23277e-09 0)
(3.91396e-09 5.74606e-09 0)
(-2.70389e-09 3.88298e-09 0)
(-5.25623e-09 1.70236e-09 0)
(-9.23743e-09 -1.03306e-09 0)
(-4.68767e-09 -3.23365e-09 0)
(-2.2804e-10 -5.28553e-10 0)
(3.59232e-09 4.01879e-10 0)
(3.17351e-09 6.93263e-10 0)
(5.18611e-11 1.22395e-09 0)
(-1.34429e-09 2.25226e-09 0)
(-4.37965e-09 2.83984e-09 0)
(-3.53767e-09 2.32359e-09 0)
(-2.79314e-09 1.11337e-09 0)
(-2.114e-09 3.11591e-10 0)
(1.20921e-09 -9.96749e-10 0)
(6.25056e-09 -2.13261e-09 0)
(1.03748e-08 -2.54436e-09 0)
(1.34552e-08 -1.88211e-09 0)
(1.35343e-08 6.86093e-10 0)
(1.015e-08 3.21229e-09 0)
(4.38519e-09 5.78491e-09 0)
(-3.24546e-09 5.68177e-09 0)
(-6.54612e-09 3.75101e-09 0)
(-1.07799e-08 7.70007e-10 0)
(-5.94849e-09 -3.25654e-09 0)
(3.65928e-10 6.10945e-10 0)
(1.27256e-09 5.67114e-09 0)
(9.39555e-10 8.04987e-09 0)
(-4.03642e-10 8.26312e-09 0)
(-1.35303e-09 7.26482e-09 0)
(-8.29557e-10 5.83023e-09 0)
(1.76534e-10 3.89084e-09 0)
(7.91758e-11 6.66467e-10 0)
(3.96365e-10 -3.42017e-09 0)
(2.4876e-09 -7.23448e-09 0)
(6.15009e-09 -8.99322e-09 0)
(9.00884e-09 -7.47173e-09 0)
(1.06357e-08 -2.87819e-09 0)
(1.0048e-08 4.43439e-09 0)
(7.44475e-09 9.73014e-09 0)
(3.46822e-09 1.36278e-08 0)
(-2.02958e-09 1.13098e-08 0)
(-4.08791e-09 6.57822e-09 0)
(-7.58414e-09 -4.01409e-10 0)
(-3.42023e-09 -8.00318e-09 0)
(7.07408e-10 5.49448e-10 0)
(2.3855e-09 7.40738e-09 0)
(1.09938e-09 1.27501e-08 0)
(-1.1555e-09 1.33975e-08 0)
(-2.80671e-09 1.22855e-08 0)
(-3.36572e-09 1.08057e-08 0)
(-3.81758e-09 8.29816e-09 0)
(-4.01494e-09 3.89314e-09 0)
(-2.55759e-09 -1.54454e-09 0)
(1.08081e-09 -7.38779e-09 0)
(6.27747e-09 -1.06301e-08 0)
(1.05271e-08 -9.41878e-09 0)
(1.3497e-08 -3.78373e-09 0)
(1.33173e-08 5.94159e-09 0)
(9.82256e-09 1.30253e-08 0)
(4.09396e-09 1.82203e-08 0)
(-3.39866e-09 1.527e-08 0)
(-6.69482e-09 8.97954e-09 0)
(-1.10535e-08 1.49172e-10 0)
(-6.27907e-09 -1.00623e-08 0)
(9.65619e-11 5.53988e-10 0)
(1.18557e-09 4.80088e-09 0)
(1.21139e-09 8.60444e-09 0)
(5.59671e-11 1.05648e-08 0)
(-1.02855e-09 1.14235e-08 0)
(-6.74929e-10 1.11679e-08 0)
(-1.6516e-12 8.60111e-09 0)
(3.51287e-10 3.90624e-09 0)
(8.80774e-10 -1.78757e-09 0)
(2.31908e-09 -7.75252e-09 0)
(4.41161e-09 -1.12072e-08 0)
(5.71689e-09 -1.0329e-08 0)
(6.83879e-09 -4.69365e-09 0)
(7.31306e-09 6.19789e-09 0)
(6.46308e-09 1.48201e-08 0)
(4.23852e-09 2.17843e-08 0)
(1.85438e-10 1.88508e-08 0)
(-1.77675e-09 1.14162e-08 0)
(-5.16078e-09 5.64383e-10 0)
(-3.03913e-09 -1.21225e-08 0)
(1.73455e-10 2.97407e-09 0)
(5.52404e-10 1.06776e-08 0)
(4.61176e-10 1.58787e-08 0)
(-8.11462e-10 1.78312e-08 0)
(-2.12881e-09 1.7563e-08 0)
(-2.67407e-09 1.59184e-08 0)
(-2.95074e-09 1.23212e-08 0)
(-3.04458e-09 5.95875e-09 0)
(-2.11514e-09 -2.06399e-09 0)
(1.23715e-09 -1.03634e-08 0)
(6.06417e-09 -1.48481e-08 0)
(9.5629e-09 -1.28087e-08 0)
(1.13704e-08 -4.27317e-09 0)
(1.05702e-08 1.00958e-08 0)
(7.48116e-09 2.04729e-08 0)
(2.746e-09 2.79532e-08 0)
(-2.97482e-09 2.31068e-08 0)
(-5.19135e-09 1.32552e-08 0)
(-8.20485e-09 -5.31952e-10 0)
(-4.09525e-09 -1.54717e-08 0)
(3.21198e-10 3.45656e-09 0)
(7.50457e-11 1.07456e-08 0)
(-1.76397e-10 1.62345e-08 0)
(-8.07853e-10 1.94825e-08 0)
(-1.51123e-09 2.09022e-08 0)
(-1.01512e-09 2.01285e-08 0)
(-2.21581e-10 1.71597e-08 0)
(2.43274e-10 1.11007e-08 0)
(6.5047e-10 3.08658e-09 0)
(1.35353e-09 -5.62906e-09 0)
(2.53847e-09 -1.11305e-08 0)
(3.53997e-09 -1.05222e-08 0)
(4.54937e-09 -3.17792e-09 0)
(5.18539e-09 1.10885e-08 0)
(4.86025e-09 2.19471e-08 0)
(3.30013e-09 3.03196e-08 0)
(2.41487e-10 2.57111e-08 0)
(-1.15216e-09 1.51636e-08 0)
(-3.21e-09 5.6107e-10 0)
(-1.63467e-09 -1.59728e-08 0)
(2.00298e-10 4.40129e-09 0)
(-1.85267e-10 1.18239e-08 0)
(-2.16706e-10 1.80595e-08 0)
(-4.14819e-10 2.23797e-08 0)
(-1.19565e-09 2.39219e-08 0)
(-1.54063e-09 2.25002e-08 0)
(-1.37411e-09 1.84467e-08 0)
(-1.72503e-09 1.09751e-08 0)
(-1.24546e-09 1.38938e-09 0)
(7.57756e-10 -8.55218e-09 0)
(3.39577e-09 -1.40233e-08 0)
(5.29047e-09 -1.20555e-08 0)
(6.33726e-09 -2.31194e-09 0)
(5.96986e-09 1.47143e-08 0)
(4.25095e-09 2.70333e-08 0)
(1.43039e-09 3.57828e-08 0)
(-2.04897e-09 2.95109e-08 0)
(-3.08949e-09 1.71195e-08 0)
(-4.39625e-09 -4.96277e-11 0)
(-1.6242e-09 -1.85068e-08 0)
(1.65422e-10 5.10574e-09 0)
(-1.63597e-10 1.25105e-08 0)
(-3.0413e-10 1.89762e-08 0)
(-5.22955e-10 2.3855e-08 0)
(-1.13323e-09 2.56667e-08 0)
(-8.73374e-10 2.4748e-08 0)
(-3.09784e-10 2.11297e-08 0)
(-2.02979e-10 1.41994e-08 0)
(2.52525e-10 5.0725e-09 0)
(9.68351e-10 -5.18609e-09 0)
(1.49774e-09 -1.16591e-08 0)
(1.97583e-09 -1.0858e-08 0)
(2.63214e-09 -2.18439e-09 0)
(2.79798e-09 1.43594e-08 0)
(2.02381e-09 2.6733e-08 0)
(6.34526e-10 3.62232e-08 0)
(-8.77032e-10 3.08734e-08 0)
(-1.14335e-09 1.88493e-08 0)
(-1.10515e-09 1.93191e-09 0)
(1.76422e-10 -1.78799e-08 0)
(7.6702e-12 5.42505e-09 0)
(-1.47626e-10 1.27912e-08 0)
(-1.11577e-10 1.93993e-08 0)
(-2.17947e-10 2.4885e-08 0)
(-1.65851e-10 2.72412e-08 0)
(-5.68894e-11 2.6254e-08 0)
(-1.13481e-10 2.21099e-08 0)
(-3.95147e-10 1.45958e-08 0)
(-4.09862e-10 4.82202e-09 0)
(-1.3469e-10 -5.98094e-09 0)
(3.02685e-10 -1.2282e-08 0)
(8.6002e-10 -1.06282e-08 0)
(1.52469e-09 -1.0231e-09 0)
(1.76786e-09 1.60808e-08 0)
(1.38931e-09 2.84914e-08 0)
(5.37013e-10 3.7923e-08 0)
(-5.39274e-10 3.2072e-08 0)
(-8.09646e-10 1.96128e-08 0)
(-1.34353e-09 1.75412e-09 0)
(-5.87273e-10 -1.87663e-08 0)
(-7.06472e-12 5.42763e-09 0)
(1.50842e-10 1.27933e-08 0)
(1.10418e-10 1.94004e-08 0)
(2.19334e-10 2.48846e-08 0)
(1.69491e-10 2.72391e-08 0)
(5.88213e-11 2.62531e-08 0)
(1.14723e-10 2.21111e-08 0)
(3.93062e-10 1.45978e-08 0)
(4.02094e-10 4.82507e-09 0)
(1.23446e-10 -5.97781e-09 0)
(-3.13984e-10 -1.22794e-08 0)
(-8.69512e-10 -1.06265e-08 0)
(-1.53317e-09 -1.02194e-09 0)
(-1.77588e-09 1.60816e-08 0)
(-1.39844e-09 2.84931e-08 0)
(-5.38549e-10 3.7925e-08 0)
(5.45859e-10 3.20725e-08 0)
(8.22147e-10 1.96119e-08 0)
(1.35985e-09 1.75273e-09 0)
(5.96175e-10 -1.8766e-08 0)
(-1.64789e-10 5.11078e-09 0)
(1.63858e-10 1.25166e-08 0)
(3.0159e-10 1.89799e-08 0)
(5.21789e-10 2.38552e-08 0)
(1.13569e-09 2.56647e-08 0)
(8.77652e-10 2.47457e-08 0)
(3.1076e-10 2.11314e-08 0)
(2.01258e-10 1.4203e-08 0)
(-2.57532e-10 5.07759e-09 0)
(-9.78076e-10 -5.18178e-09 0)
(-1.50974e-09 -1.16552e-08 0)
(-1.98845e-09 -1.0853e-08 0)
(-2.64346e-09 -2.17632e-09 0)
(-2.805e-09 1.4366e-08 0)
(-2.03032e-09 2.6739e-08 0)
(-6.36904e-10 3.62257e-08 0)
(8.77587e-10 3.08669e-08 0)
(1.1491e-09 1.88398e-08 0)
(1.11765e-09 1.9191e-09 0)
(-1.66592e-10 -1.78807e-08 0)
(-1.98291e-10 4.40462e-09 0)
(1.8303e-10 1.1833e-08 0)
(2.1234e-10 1.80673e-08 0)
(4.13385e-10 2.23841e-08 0)
(1.19481e-09 2.39234e-08 0)
(1.54081e-09 2.25003e-08 0)
(1.37277e-09 1.84508e-08 0)
(1.72115e-09 1.09809e-08 0)
(1.2393e-09 1.39432e-09 0)
(-7.68192e-10 -8.54872e-09 0)
(-3.40407e-09 -1.40221e-08 0)
(-5.29731e-09 -1.20531e-08 0)
(-6.34602e-09 -2.30247e-09 0)
(-5.97602e-09 1.47226e-08 0)
(-4.25679e-09 2.70384e-08 0)
(-1.43545e-09 3.57831e-08 0)
(2.04112e-09 2.95011e-08 0)
(3.08444e-09 1.71086e-08 0)
(4.40081e-09 -6.62362e-11 0)
(1.63286e-09 -1.85095e-08 0)
(-3.17318e-10 3.45758e-09 0)
(-7.61655e-11 1.07567e-08 0)
(1.73201e-10 1.6247e-08 0)
(8.02783e-10 1.94942e-08 0)
(1.51027e-09 2.09054e-08 0)
(1.01463e-09 2.0132e-08 0)
(2.20318e-10 1.71638e-08 0)
(-2.48945e-10 1.11098e-08 0)
(-6.52072e-10 3.09049e-09 0)
(-1.36096e-09 -5.6263e-09 0)
(-2.54722e-09 -1.11313e-08 0)
(-3.54486e-09 -1.05273e-08 0)
(-4.55915e-09 -3.1765e-09 0)
(-5.19857e-09 1.10887e-08 0)
(-4.8726e-09 2.1943e-08 0)
(-3.30631e-09 3.03076e-08 0)
(-2.48238e-10 2.5693e-08 0)
(1.14725e-09 1.51539e-08 0)
(3.21378e-09 5.56203e-10 0)
(1.64407e-09 -1.59605e-08 0)
(-1.69167e-10 2.97514e-09 0)
(-5.50045e-10 1.06864e-08 0)
(-4.61709e-10 1.58903e-08 0)
(8.0737e-10 1.78443e-08 0)
(2.12556e-09 1.75662e-08 0)
(2.66755e-09 1.5922e-08 0)
(2.94613e-09 1.23226e-08 0)
(3.03244e-09 5.96605e-09 0)
(2.10615e-09 -2.06359e-09 0)
(-1.24286e-09 -1.03688e-08 0)
(-6.07669e-09 -1.48504e-08 0)
(-9.57032e-09 -1.28127e-08 0)
(-1.13729e-08 -4.27074e-09 0)
(-1.05731e-08 1.01001e-08 0)
(-7.48575e-09 2.04754e-08 0)
(-2.74426e-09 2.79501e-08 0)
(2.97362e-09 2.30911e-08 0)
(5.18826e-09 1.32447e-08 0)
(8.20012e-09 -5.4844e-10 0)
(4.09053e-09 -1.54727e-08 0)
(-9.46624e-11 5.62109e-10 0)
(-1.18114e-09 4.81149e-09 0)
(-1.20926e-09 8.62031e-09 0)
(-5.66102e-11 1.0574e-08 0)
(1.02446e-09 1.14276e-08 0)
(6.73254e-10 1.11681e-08 0)
(-1.6148e-12 8.60213e-09 0)
(-3.5799e-10 3.91256e-09 0)
(-8.92791e-10 -1.77837e-09 0)
(-2.31942e-09 -7.75286e-09 0)
(-4.41395e-09 -1.12104e-08 0)
(-5.722e-09 -1.03371e-08 0)
(-6.84133e-09 -4.70116e-09 0)
(-7.31741e-09 6.1884e-09 0)
(-6.47266e-09 1.48125e-08 0)
(-4.24391e-09 2.17725e-08 0)
(-1.88265e-10 1.88343e-08 0)
(1.77574e-09 1.141e-08 0)
(5.16034e-09 5.64064e-10 0)
(3.0405e-09 -1.21044e-08 0)
(-7.12837e-10 5.65418e-10 0)
(-2.38055e-09 7.42097e-09 0)
(-1.09811e-09 1.27682e-08 0)
(1.1606e-09 1.33984e-08 0)
(2.80179e-09 1.22838e-08 0)
(3.35865e-09 1.07915e-08 0)
(3.80799e-09 8.29244e-09 0)
(4.01465e-09 3.88658e-09 0)
(2.54651e-09 -1.54279e-09 0)
(-1.08702e-09 -7.39288e-09 0)
(-6.28135e-09 -1.0635e-08 0)
(-1.05351e-08 -9.4185e-09 0)
(-1.34993e-08 -3.77484e-09 0)
(-1.33117e-08 5.94887e-09 0)
(-9.81982e-09 1.30293e-08 0)
(-4.08745e-09 1.82173e-08 0)
(3.40173e-09 1.52525e-08 0)
(6.69612e-09 8.96507e-09 0)
(1.10457e-08 1.26084e-10 0)
(6.26493e-09 -1.00657e-08 0)
(-3.77201e-10 6.20824e-10 0)
(-1.27024e-09 5.67982e-09 0)
(-9.48128e-10 8.0567e-09 0)
(4.04904e-10 8.26127e-09 0)
(1.34383e-09 7.25347e-09 0)
(8.27607e-10 5.81315e-09 0)
(-1.75244e-10 3.88518e-09 0)
(-7.43864e-11 6.78235e-10 0)
(-3.956e-10 -3.42132e-09 0)
(-2.4962e-09 -7.23138e-09 0)
(-6.15311e-09 -8.99667e-09 0)
(-9.01464e-09 -7.47769e-09 0)
(-1.06396e-08 -2.88166e-09 0)
(-1.00464e-08 4.42842e-09 0)
(-7.44538e-09 9.72616e-09 0)
(-3.46657e-09 1.36232e-08 0)
(2.02993e-09 1.13024e-08 0)
(4.08942e-09 6.5752e-09 0)
(7.58004e-09 -4.0584e-10 0)
(3.41063e-09 -7.99275e-09 0)
(2.21733e-10 -5.33754e-10 0)
(-3.60101e-09 4.14117e-10 0)
(-3.17912e-09 6.90579e-10 0)
(-5.74732e-11 1.23053e-09 0)
(1.22799e-09 2.26087e-09 0)
(4.41141e-09 2.86552e-09 0)
(3.57907e-09 2.33669e-09 0)
(2.67554e-09 1.10641e-09 0)
(2.09711e-09 3.09565e-10 0)
(-1.20317e-09 -9.95823e-10 0)
(-6.24555e-09 -2.13045e-09 0)
(-1.03702e-08 -2.53608e-09 0)
(-1.34548e-08 -1.8665e-09 0)
(-1.35345e-08 6.95942e-10 0)
(-1.01549e-08 3.21492e-09 0)
(-4.39089e-09 5.77811e-09 0)
(3.23273e-09 5.66583e-09 0)
(6.53556e-09 3.73646e-09 0)
(1.07653e-08 7.51828e-10 0)
(5.9417e-09 -3.25616e-09 0)
(5.25547e-11 3.9479e-10 0)
(-3.00933e-09 2.91664e-09 0)
(-2.15066e-09 5.13158e-09 0)
(6.31651e-10 4.88397e-09 0)
(2.19549e-09 4.1935e-09 0)
(-5.10423e-10 3.36589e-09 0)
(8.37924e-10 1.87312e-09 0)
(2.50364e-09 -5.42224e-10 0)
(1.09833e-09 -2.64921e-09 0)
(-2.29806e-09 -5.06997e-09 0)
(-6.57982e-09 -5.59784e-09 0)
(-9.95286e-09 -3.76617e-09 0)
(-1.22027e-08 -3.58482e-10 0)
(-1.18075e-08 3.41202e-09 0)
(-8.7745e-09 5.23383e-09 0)
(-3.9084e-09 5.74871e-09 0)
(2.70238e-09 3.88181e-09 0)
(5.25487e-09 1.70109e-09 0)
(9.22851e-09 -1.04027e-09 0)
(4.67429e-09 -3.23919e-09 0)
)
;

boundaryField
{
    sides
    {
        type            calculated;
        value           nonuniform List<vector> 
40
(
(5.25547e-11 0 0)
(-3.00933e-09 0 0)
(-2.15066e-09 0 0)
(6.31651e-10 0 0)
(2.19549e-09 0 0)
(-5.10423e-10 0 0)
(8.37924e-10 0 0)
(2.50364e-09 0 0)
(1.09833e-09 0 0)
(-2.29806e-09 0 0)
(-6.57982e-09 0 0)
(-9.95286e-09 0 0)
(-1.22027e-08 0 0)
(-1.18075e-08 0 0)
(-8.7745e-09 0 0)
(-3.9084e-09 0 0)
(2.70238e-09 0 0)
(5.25487e-09 0 0)
(9.22851e-09 0 0)
(4.67429e-09 0 0)
(-3.91255e-11 0 0)
(2.99529e-09 0 0)
(2.14801e-09 0 0)
(-6.44932e-10 0 0)
(-2.08321e-09 0 0)
(4.54919e-10 0 0)
(-9.1292e-10 0 0)
(-2.41423e-09 0 0)
(-1.08213e-09 0 0)
(2.28983e-09 0 0)
(6.57349e-09 0 0)
(9.94916e-09 0 0)
(1.21962e-08 0 0)
(1.18073e-08 0 0)
(8.7771e-09 0 0)
(3.91396e-09 0 0)
(-2.70389e-09 0 0)
(-5.25623e-09 0 0)
(-9.23743e-09 0 0)
(-4.68767e-09 0 0)
)
;
    }
    inlet
    {
        type            calculated;
        value           uniform (0 0 0);
    }
    outlet
    {
        type            calculated;
        value           nonuniform List<vector> 
20
(
(-4.68767e-09 -3.23365e-09 0)
(-5.94849e-09 -3.25654e-09 0)
(-3.42023e-09 -8.00318e-09 0)
(-6.27907e-09 -1.00623e-08 0)
(-3.03913e-09 -1.21225e-08 0)
(-4.09525e-09 -1.54717e-08 0)
(-1.63467e-09 -1.59728e-08 0)
(-1.6242e-09 -1.85068e-08 0)
(1.76422e-10 -1.78799e-08 0)
(-5.87273e-10 -1.87663e-08 0)
(5.96175e-10 -1.8766e-08 0)
(-1.66592e-10 -1.78807e-08 0)
(1.63286e-09 -1.85095e-08 0)
(1.64407e-09 -1.59605e-08 0)
(4.09053e-09 -1.54727e-08 0)
(3.0405e-09 -1.21044e-08 0)
(6.26493e-09 -1.00657e-08 0)
(3.41063e-09 -7.99275e-09 0)
(5.9417e-09 -3.25616e-09 0)
(4.67429e-09 -3.23919e-09 0)
)
;
    }
    frontAndBack
    {
        type            empty;
    }
}


// ************************************************************************* //
