/*--------------------------------*- C++ -*----------------------------------*\
  =========                 |
  \\      /  F ield         | OpenFOAM: The Open Source CFD Toolbox
   \\    /   O peration     | Website:  https://openfoam.org
    \\  /    A nd           | Version:  7
     \\/     M anipulation  |
\*---------------------------------------------------------------------------*/
FoamFile
{
    version     2.0;
    format      ascii;
    class       volVectorField;
    location    "27";
    object      hU;
}
// * * * * * * * * * * * * * * * * * * * * * * * * * * * * * * * * * * * * * //

dimensions      [0 2 -1 0 0 0 0];

internalField   nonuniform List<vector> 
400
(
(0.001 -8.30408e-09 0)
(0.000999997 -2.33083e-08 0)
(0.000999993 -3.67163e-08 0)
(0.000999994 -4.91229e-08 0)
(0.001 -6.08113e-08 0)
(0.00100001 -7.24373e-08 0)
(0.00100002 -8.36327e-08 0)
(0.00100003 -9.47238e-08 0)
(0.00100004 -1.04198e-07 0)
(0.00100006 -1.13666e-07 0)
(0.00100008 -1.21126e-07 0)
(0.0010001 -1.31841e-07 0)
(0.00100012 -1.40504e-07 0)
(0.00100015 -1.57865e-07 0)
(0.00100017 -1.68779e-07 0)
(0.00100023 -1.95678e-07 0)
(0.00100025 -2.03096e-07 0)
(0.00100038 -2.46184e-07 0)
(0.00100039 -2.43627e-07 0)
(0.00100062 -3.33574e-07 0)
(0.001 4.5871e-09 0)
(0.001 1.33441e-08 0)
(0.001 2.15923e-08 0)
(0.001 2.94258e-08 0)
(0.00100001 3.63718e-08 0)
(0.00100002 4.19145e-08 0)
(0.00100003 4.69011e-08 0)
(0.00100004 5.14328e-08 0)
(0.00100005 5.65442e-08 0)
(0.00100007 6.07283e-08 0)
(0.00100009 6.64813e-08 0)
(0.00100011 6.95408e-08 0)
(0.00100013 7.5495e-08 0)
(0.00100016 7.35829e-08 0)
(0.00100018 7.71787e-08 0)
(0.00100023 6.30238e-08 0)
(0.00100026 6.48575e-08 0)
(0.00100035 2.76571e-08 0)
(0.00100038 3.27513e-08 0)
(0.00100052 -5.9639e-08 0)
(0.001 -2.54661e-09 0)
(0.000999997 -1.05201e-08 0)
(0.000999994 -2.18625e-08 0)
(0.000999994 -3.46328e-08 0)
(0.000999998 -4.73962e-08 0)
(0.001 -6.02025e-08 0)
(0.00100001 -7.24798e-08 0)
(0.00100002 -8.4636e-08 0)
(0.00100004 -9.49742e-08 0)
(0.00100005 -1.05635e-07 0)
(0.00100007 -1.13393e-07 0)
(0.00100009 -1.25572e-07 0)
(0.00100011 -1.35583e-07 0)
(0.00100013 -1.5873e-07 0)
(0.00100016 -1.76876e-07 0)
(0.0010002 -2.18324e-07 0)
(0.00100023 -2.40718e-07 0)
(0.00100031 -3.05921e-07 0)
(0.00100033 -3.19798e-07 0)
(0.00100047 -4.29873e-07 0)
(0.001 1.71253e-09 0)
(0.001 3.41073e-09 0)
(0.000999999 2.52091e-09 0)
(0.001 2.58922e-10 0)
(0.00100001 -2.15041e-09 0)
(0.00100001 -5.01218e-09 0)
(0.00100002 -7.76934e-09 0)
(0.00100003 -1.06891e-08 0)
(0.00100005 -1.16771e-08 0)
(0.00100006 -1.27992e-08 0)
(0.00100008 -1.05551e-08 0)
(0.00100009 -1.3155e-08 0)
(0.00100011 -1.41018e-08 0)
(0.00100013 -3.03656e-08 0)
(0.00100015 -4.34949e-08 0)
(0.00100019 -8.19391e-08 0)
(0.00100022 -1.02871e-07 0)
(0.00100028 -1.66367e-07 0)
(0.00100031 -1.79684e-07 0)
(0.0010004 -2.8718e-07 0)
(0.001 -1.11645e-09 0)
(0.000999999 -5.83673e-09 0)
(0.000999997 -1.3446e-08 0)
(0.000999998 -2.33391e-08 0)
(0.001 -3.48046e-08 0)
(0.00100001 -4.77532e-08 0)
(0.00100001 -6.08345e-08 0)
(0.00100002 -7.3787e-08 0)
(0.00100003 -8.4582e-08 0)
(0.00100004 -9.55537e-08 0)
(0.00100006 -1.03131e-07 0)
(0.00100007 -1.15828e-07 0)
(0.00100009 -1.26683e-07 0)
(0.00100011 -1.53627e-07 0)
(0.00100013 -1.7804e-07 0)
(0.00100016 -2.29258e-07 0)
(0.00100018 -2.63412e-07 0)
(0.00100024 -3.39769e-07 0)
(0.00100025 -3.63742e-07 0)
(0.00100034 -4.78047e-07 0)
(0.001 -3.81557e-10 0)
(0.000999999 -4.28469e-09 0)
(0.000999998 -1.11835e-08 0)
(0.000999999 -1.98674e-08 0)
(0.001 -2.91284e-08 0)
(0.00100001 -3.87891e-08 0)
(0.00100001 -4.79026e-08 0)
(0.00100002 -5.64491e-08 0)
(0.00100003 -6.2184e-08 0)
(0.00100005 -6.73673e-08 0)
(0.00100006 -6.85762e-08 0)
(0.00100007 -7.55687e-08 0)
(0.00100008 -8.21272e-08 0)
(0.0010001 -1.07356e-07 0)
(0.00100011 -1.32119e-07 0)
(0.00100013 -1.84722e-07 0)
(0.00100016 -2.21049e-07 0)
(0.0010002 -2.97121e-07 0)
(0.00100022 -3.21647e-07 0)
(0.00100028 -4.30954e-07 0)
(0.001 -8.60399e-10 0)
(0.000999999 -5.67422e-09 0)
(0.000999999 -1.32135e-08 0)
(0.000999999 -2.30391e-08 0)
(0.001 -3.45932e-08 0)
(0.00100001 -4.77321e-08 0)
(0.00100001 -6.10955e-08 0)
(0.00100002 -7.44338e-08 0)
(0.00100002 -8.53862e-08 0)
(0.00100003 -9.60599e-08 0)
(0.00100004 -1.02633e-07 0)
(0.00100005 -1.14754e-07 0)
(0.00100006 -1.25835e-07 0)
(0.00100008 -1.55565e-07 0)
(0.00100009 -1.84959e-07 0)
(0.00100011 -2.42954e-07 0)
(0.00100012 -2.85081e-07 0)
(0.00100015 -3.67187e-07 0)
(0.00100016 -3.96647e-07 0)
(0.00100021 -5.1048e-07 0)
(0.001 -1.22165e-09 0)
(0.001 -6.73407e-09 0)
(0.000999999 -1.48781e-08 0)
(0.000999999 -2.56895e-08 0)
(0.001 -3.83676e-08 0)
(0.001 -5.20981e-08 0)
(0.00100001 -6.5317e-08 0)
(0.00100001 -7.76943e-08 0)
(0.00100002 -8.68565e-08 0)
(0.00100003 -9.50768e-08 0)
(0.00100003 -9.89617e-08 0)
(0.00100004 -1.09006e-07 0)
(0.00100005 -1.19097e-07 0)
(0.00100005 -1.49537e-07 0)
(0.00100006 -1.80988e-07 0)
(0.00100008 -2.41542e-07 0)
(0.00100009 -2.86556e-07 0)
(0.00100011 -3.6928e-07 0)
(0.00100012 -3.99903e-07 0)
(0.00100015 -5.09792e-07 0)
(0.001 -1.51198e-09 0)
(0.001 -7.59487e-09 0)
(0.000999999 -1.60812e-08 0)
(0.001 -2.71531e-08 0)
(0.001 -4.00474e-08 0)
(0.001 -5.40244e-08 0)
(0.001 -6.78009e-08 0)
(0.00100001 -8.12861e-08 0)
(0.00100001 -9.21151e-08 0)
(0.00100001 -1.02341e-07 0)
(0.00100002 -1.0805e-07 0)
(0.00100002 -1.1958e-07 0)
(0.00100003 -1.30634e-07 0)
(0.00100003 -1.61933e-07 0)
(0.00100004 -1.9434e-07 0)
(0.00100005 -2.56337e-07 0)
(0.00100005 -3.03283e-07 0)
(0.00100007 -3.88362e-07 0)
(0.00100007 -4.20947e-07 0)
(0.00100009 -5.33462e-07 0)
(0.001 -1.66896e-09 0)
(0.001 -8.02761e-09 0)
(0.001 -1.65778e-08 0)
(0.001 -2.78056e-08 0)
(0.001 -4.11724e-08 0)
(0.001 -5.57938e-08 0)
(0.001 -7.0103e-08 0)
(0.001 -8.37669e-08 0)
(0.001 -9.43662e-08 0)
(0.00100001 -1.04042e-07 0)
(0.00100001 -1.09144e-07 0)
(0.00100001 -1.20371e-07 0)
(0.00100001 -1.31636e-07 0)
(0.00100001 -1.63772e-07 0)
(0.00100001 -1.974e-07 0)
(0.00100002 -2.60637e-07 0)
(0.00100002 -3.08742e-07 0)
(0.00100002 -3.94094e-07 0)
(0.00100002 -4.27116e-07 0)
(0.00100003 -5.38152e-07 0)
(0.001 -1.66832e-09 0)
(0.001 -8.02726e-09 0)
(0.001 -1.65781e-08 0)
(0.001 -2.78064e-08 0)
(0.001 -4.11728e-08 0)
(0.000999999 -5.57932e-08 0)
(0.000999999 -7.01019e-08 0)
(0.000999998 -8.3766e-08 0)
(0.000999996 -9.43661e-08 0)
(0.000999995 -1.04043e-07 0)
(0.000999993 -1.09145e-07 0)
(0.000999992 -1.20371e-07 0)
(0.00099999 -1.31636e-07 0)
(0.000999989 -1.63772e-07 0)
(0.000999987 -1.97398e-07 0)
(0.000999985 -2.60635e-07 0)
(0.000999983 -3.08739e-07 0)
(0.000999978 -3.94091e-07 0)
(0.000999976 -4.27114e-07 0)
(0.000999969 -5.38149e-07 0)
(0.001 -1.51048e-09 0)
(0.001 -7.59401e-09 0)
(0.001 -1.60818e-08 0)
(0.001 -2.71549e-08 0)
(0.000999999 -4.00488e-08 0)
(0.000999997 -5.40242e-08 0)
(0.000999995 -6.77995e-08 0)
(0.000999992 -8.12841e-08 0)
(0.000999989 -9.21143e-08 0)
(0.000999986 -1.02339e-07 0)
(0.000999982 -1.08048e-07 0)
(0.000999977 -1.19574e-07 0)
(0.000999973 -1.30628e-07 0)
(0.000999967 -1.61924e-07 0)
(0.000999962 -1.94332e-07 0)
(0.000999953 -2.56322e-07 0)
(0.000999947 -3.03266e-07 0)
(0.000999933 -3.88327e-07 0)
(0.000999928 -4.20909e-07 0)
(0.000999909 -5.33392e-07 0)
(0.001 -1.22014e-09 0)
(0.001 -6.73313e-09 0)
(0.001 -1.48787e-08 0)
(0.001 -2.56911e-08 0)
(0.000999999 -3.83683e-08 0)
(0.000999996 -5.20969e-08 0)
(0.000999993 -6.53154e-08 0)
(0.000999988 -7.76938e-08 0)
(0.000999981 -8.68593e-08 0)
(0.000999974 -9.50797e-08 0)
(0.000999968 -9.89658e-08 0)
(0.000999961 -1.09007e-07 0)
(0.000999955 -1.19099e-07 0)
(0.000999946 -1.4954e-07 0)
(0.000999938 -1.80995e-07 0)
(0.000999924 -2.41549e-07 0)
(0.000999913 -2.86564e-07 0)
(0.00099989 -3.69278e-07 0)
(0.00099988 -3.99899e-07 0)
(0.000999847 -5.09763e-07 0)
(0.000999999 -8.59443e-10 0)
(0.001 -5.67351e-09 0)
(0.001 -1.32147e-08 0)
(0.001 -2.30404e-08 0)
(0.000999998 -3.45924e-08 0)
(0.000999994 -4.77265e-08 0)
(0.00099999 -6.10876e-08 0)
(0.000999985 -7.44251e-08 0)
(0.000999978 -8.53814e-08 0)
(0.000999969 -9.60534e-08 0)
(0.00099996 -1.02629e-07 0)
(0.000999949 -1.14741e-07 0)
(0.000999939 -1.25822e-07 0)
(0.000999924 -1.55541e-07 0)
(0.000999913 -1.84935e-07 0)
(0.000999892 -2.4291e-07 0)
(0.000999879 -2.85032e-07 0)
(0.000999846 -3.67096e-07 0)
(0.000999837 -3.96553e-07 0)
(0.000999787 -5.10319e-07 0)
(0.000999999 -3.81567e-10 0)
(0.001 -4.28541e-09 0)
(0.001 -1.11861e-08 0)
(0.001 -1.98713e-08 0)
(0.000999998 -2.91321e-08 0)
(0.000999992 -3.87902e-08 0)
(0.000999985 -4.79038e-08 0)
(0.000999976 -5.64513e-08 0)
(0.000999966 -6.2191e-08 0)
(0.000999954 -6.73737e-08 0)
(0.000999943 -6.85839e-08 0)
(0.000999931 -7.55729e-08 0)
(0.00099992 -8.21345e-08 0)
(0.000999905 -1.07365e-07 0)
(0.000999891 -1.32133e-07 0)
(0.000999865 -1.84736e-07 0)
(0.000999845 -2.21065e-07 0)
(0.000999803 -2.97118e-07 0)
(0.000999784 -3.21641e-07 0)
(0.000999723 -4.3091e-07 0)
(0.000999999 -1.11478e-09 0)
(0.001 -5.83348e-09 0)
(0.001 -1.34424e-08 0)
(0.001 -2.3335e-08 0)
(0.000999999 -3.47978e-08 0)
(0.000999994 -4.77419e-08 0)
(0.000999988 -6.08222e-08 0)
(0.00099998 -7.37746e-08 0)
(0.00099997 -8.45756e-08 0)
(0.000999957 -9.55472e-08 0)
(0.000999944 -1.0313e-07 0)
(0.000999928 -1.15816e-07 0)
(0.000999913 -1.26675e-07 0)
(0.00099989 -1.53603e-07 0)
(0.000999872 -1.78021e-07 0)
(0.000999838 -2.29212e-07 0)
(0.000999818 -2.63371e-07 0)
(0.000999764 -3.3967e-07 0)
(0.000999749 -3.63653e-07 0)
(0.000999663 -4.77865e-07 0)
(0.000999999 1.71344e-09 0)
(0.001 3.40886e-09 0)
(0.001 2.51574e-09 0)
(0.000999999 2.5086e-10 0)
(0.000999994 -2.15862e-09 0)
(0.000999986 -5.01802e-09 0)
(0.000999978 -7.77367e-09 0)
(0.000999966 -1.06931e-08 0)
(0.000999953 -1.16836e-08 0)
(0.000999937 -1.28024e-08 0)
(0.000999923 -1.0559e-08 0)
(0.000999906 -1.31526e-08 0)
(0.000999891 -1.41042e-08 0)
(0.000999868 -3.03669e-08 0)
(0.000999849 -4.35029e-08 0)
(0.000999812 -8.19381e-08 0)
(0.000999784 -1.0287e-07 0)
(0.000999721 -1.66333e-07 0)
(0.000999695 -1.79646e-07 0)
(0.0009996 -2.87089e-07 0)
(0.000999999 -2.54461e-09 0)
(0.001 -1.05187e-08 0)
(0.00100001 -2.18619e-08 0)
(0.00100001 -3.46327e-08 0)
(0.001 -4.73976e-08 0)
(0.000999995 -6.02e-08 0)
(0.000999988 -7.24769e-08 0)
(0.000999977 -8.4634e-08 0)
(0.000999965 -9.49803e-08 0)
(0.000999948 -1.05641e-07 0)
(0.000999933 -1.13407e-07 0)
(0.000999912 -1.25578e-07 0)
(0.000999895 -1.35597e-07 0)
(0.000999865 -1.58728e-07 0)
(0.000999844 -1.76888e-07 0)
(0.000999796 -2.18311e-07 0)
(0.00099977 -2.4073e-07 0)
(0.000999688 -3.05882e-07 0)
(0.000999669 -3.19791e-07 0)
(0.000999531 -4.29783e-07 0)
(0.000999999 4.58775e-09 0)
(0.000999997 1.3344e-08 0)
(0.000999998 2.15892e-08 0)
(0.000999996 2.94209e-08 0)
(0.00099999 3.63704e-08 0)
(0.000999983 4.19143e-08 0)
(0.000999974 4.69007e-08 0)
(0.000999961 5.14345e-08 0)
(0.000999946 5.65474e-08 0)
(0.000999928 6.07381e-08 0)
(0.000999912 6.64896e-08 0)
(0.000999891 6.9557e-08 0)
(0.000999874 7.55032e-08 0)
(0.000999845 7.35991e-08 0)
(0.000999823 7.71835e-08 0)
(0.000999773 6.30528e-08 0)
(0.000999742 6.48782e-08 0)
(0.000999655 2.77307e-08 0)
(0.000999625 3.28161e-08 0)
(0.000999484 -5.94937e-08 0)
(0.000999999 -8.30474e-09 0)
(0.001 -2.33114e-08 0)
(0.00100001 -3.67254e-08 0)
(0.00100001 -4.91366e-08 0)
(0.001 -6.08233e-08 0)
(0.000999992 -7.24552e-08 0)
(0.000999984 -8.36573e-08 0)
(0.000999971 -9.47528e-08 0)
(0.000999958 -1.0423e-07 0)
(0.000999938 -1.137e-07 0)
(0.000999923 -1.21166e-07 0)
(0.000999899 -1.31881e-07 0)
(0.000999884 -1.4055e-07 0)
(0.000999847 -1.57912e-07 0)
(0.00099983 -1.68835e-07 0)
(0.000999765 -1.95736e-07 0)
(0.000999746 -2.03165e-07 0)
(0.000999624 -2.46261e-07 0)
(0.000999614 -2.4371e-07 0)
(0.000999384 -3.337e-07 0)
)
;

boundaryField
{
    sides
    {
        type            slip;
    }
    inlet
    {
        type            fixedValue;
        value           uniform (0.001 0 0);
    }
    outlet
    {
        type            zeroGradient;
    }
    frontAndBack
    {
        type            empty;
    }
}


// ************************************************************************* //
