/*--------------------------------*- C++ -*----------------------------------*\
  =========                 |
  \\      /  F ield         | OpenFOAM: The Open Source CFD Toolbox
   \\    /   O peration     | Website:  https://openfoam.org
    \\  /    A nd           | Version:  7
     \\/     M anipulation  |
\*---------------------------------------------------------------------------*/
FoamFile
{
    version     2.0;
    format      ascii;
    class       volVectorField;
    location    "27";
    object      hU_0;
}
// * * * * * * * * * * * * * * * * * * * * * * * * * * * * * * * * * * * * * //

dimensions      [0 2 -1 0 0 0 0];

internalField   nonuniform List<vector> 
400
(
(0.001 -8.33234e-09 0)
(0.000999997 -2.35814e-08 0)
(0.000999993 -3.72295e-08 0)
(0.000999994 -4.96282e-08 0)
(0.001 -6.12374e-08 0)
(0.00100001 -7.28009e-08 0)
(0.00100002 -8.3833e-08 0)
(0.00100003 -9.47175e-08 0)
(0.00100004 -1.03955e-07 0)
(0.00100006 -1.13179e-07 0)
(0.00100008 -1.20567e-07 0)
(0.0010001 -1.31443e-07 0)
(0.00100012 -1.40431e-07 0)
(0.00100015 -1.58173e-07 0)
(0.00100017 -1.69287e-07 0)
(0.00100023 -1.96255e-07 0)
(0.00100025 -2.03504e-07 0)
(0.00100038 -2.46381e-07 0)
(0.00100039 -2.43555e-07 0)
(0.00100062 -3.33266e-07 0)
(0.001 4.6507e-09 0)
(0.001 1.33073e-08 0)
(0.001 2.15272e-08 0)
(0.001 2.93126e-08 0)
(0.00100001 3.61639e-08 0)
(0.00100002 4.16246e-08 0)
(0.00100003 4.66681e-08 0)
(0.00100004 5.13048e-08 0)
(0.00100005 5.65064e-08 0)
(0.00100007 6.08119e-08 0)
(0.00100009 6.66788e-08 0)
(0.00100011 6.97898e-08 0)
(0.00100013 7.56968e-08 0)
(0.00100015 7.35427e-08 0)
(0.00100018 7.68833e-08 0)
(0.00100023 6.24587e-08 0)
(0.00100026 6.42777e-08 0)
(0.00100035 2.725e-08 0)
(0.00100038 3.26244e-08 0)
(0.00100052 -5.93438e-08 0)
(0.001 -2.58695e-09 0)
(0.000999997 -1.10595e-08 0)
(0.000999994 -2.26598e-08 0)
(0.000999994 -3.54641e-08 0)
(0.000999998 -4.81373e-08 0)
(0.00100001 -6.0792e-08 0)
(0.00100001 -7.28932e-08 0)
(0.00100002 -8.47286e-08 0)
(0.00100004 -9.46757e-08 0)
(0.00100005 -1.04951e-07 0)
(0.00100007 -1.12507e-07 0)
(0.00100009 -1.24802e-07 0)
(0.0010001 -1.35237e-07 0)
(0.00100013 -1.59102e-07 0)
(0.00100016 -1.77797e-07 0)
(0.0010002 -2.19671e-07 0)
(0.00100023 -2.41884e-07 0)
(0.00100031 -3.06645e-07 0)
(0.00100033 -3.19849e-07 0)
(0.00100047 -4.29123e-07 0)
(0.001 1.68818e-09 0)
(0.001 2.7612e-09 0)
(0.000999999 1.3091e-09 0)
(0.001 -1.05455e-09 0)
(0.00100001 -3.37055e-09 0)
(0.00100001 -6.08779e-09 0)
(0.00100002 -8.61868e-09 0)
(0.00100003 -1.11223e-08 0)
(0.00100005 -1.15799e-08 0)
(0.00100006 -1.21119e-08 0)
(0.00100008 -9.50666e-09 0)
(0.00100009 -1.21812e-08 0)
(0.00100011 -1.36469e-08 0)
(0.00100013 -3.08676e-08 0)
(0.00100015 -4.47281e-08 0)
(0.00100019 -8.37358e-08 0)
(0.00100022 -1.04442e-07 0)
(0.00100028 -1.67345e-07 0)
(0.00100031 -1.79803e-07 0)
(0.0010004 -2.86231e-07 0)
(0.001 -1.15229e-09 0)
(0.000999999 -6.25959e-09 0)
(0.000999997 -1.42512e-08 0)
(0.000999998 -2.4361e-08 0)
(0.001 -3.59283e-08 0)
(0.00100001 -4.88709e-08 0)
(0.00100001 -6.17287e-08 0)
(0.00100002 -7.42293e-08 0)
(0.00100003 -8.44678e-08 0)
(0.00100004 -9.48344e-08 0)
(0.00100006 -1.02028e-07 0)
(0.00100007 -1.14763e-07 0)
(0.00100009 -1.26134e-07 0)
(0.00100011 -1.54145e-07 0)
(0.00100013 -1.7944e-07 0)
(0.00100016 -2.31403e-07 0)
(0.00100018 -2.65349e-07 0)
(0.00100024 -3.41004e-07 0)
(0.00100025 -3.63919e-07 0)
(0.00100034 -4.76902e-07 0)
(0.001 -6.55191e-10 0)
(0.000999999 -5.3224e-09 0)
(0.000999998 -1.27682e-08 0)
(0.000999999 -2.16715e-08 0)
(0.001 -3.09206e-08 0)
(0.00100001 -4.04271e-08 0)
(0.00100001 -4.91987e-08 0)
(0.00100002 -5.71301e-08 0)
(0.00100003 -6.20692e-08 0)
(0.00100005 -6.64022e-08 0)
(0.00100006 -6.7106e-08 0)
(0.00100007 -7.42292e-08 0)
(0.00100008 -8.15762e-08 0)
(0.00100009 -1.08226e-07 0)
(0.00100011 -1.34066e-07 0)
(0.00100013 -1.87488e-07 0)
(0.00100016 -2.23435e-07 0)
(0.0010002 -2.98567e-07 0)
(0.00100022 -3.21745e-07 0)
(0.00100028 -4.29489e-07 0)
(0.001 -1.18784e-09 0)
(0.000999999 -6.72415e-09 0)
(0.000999999 -1.48283e-08 0)
(0.000999999 -2.49937e-08 0)
(0.001 -3.67018e-08 0)
(0.00100001 -4.97817e-08 0)
(0.00100001 -6.28556e-08 0)
(0.00100002 -7.56105e-08 0)
(0.00100002 -8.57704e-08 0)
(0.00100003 -9.5553e-08 0)
(0.00100004 -1.01524e-07 0)
(0.00100005 -1.13636e-07 0)
(0.00100006 -1.25379e-07 0)
(0.00100008 -1.5651e-07 0)
(0.00100009 -1.87029e-07 0)
(0.00100011 -2.4594e-07 0)
(0.00100012 -2.87724e-07 0)
(0.00100015 -3.68832e-07 0)
(0.00100016 -3.9687e-07 0)
(0.00100021 -5.08976e-07 0)
(0.001 -1.66095e-09 0)
(0.001 -7.9213e-09 0)
(0.000999999 -1.66938e-08 0)
(0.000999999 -2.79487e-08 0)
(0.001 -4.07958e-08 0)
(0.001 -5.43979e-08 0)
(0.00100001 -6.72203e-08 0)
(0.00100001 -7.88682e-08 0)
(0.00100002 -8.70774e-08 0)
(0.00100003 -9.42748e-08 0)
(0.00100003 -9.75451e-08 0)
(0.00100004 -1.07703e-07 0)
(0.00100004 -1.18682e-07 0)
(0.00100005 -1.50793e-07 0)
(0.00100006 -1.83529e-07 0)
(0.00100008 -2.45058e-07 0)
(0.00100009 -2.89581e-07 0)
(0.00100011 -3.71132e-07 0)
(0.00100012 -4.00086e-07 0)
(0.00100015 -5.08045e-07 0)
(0.001 -2.03031e-09 0)
(0.001 -8.87242e-09 0)
(0.000999999 -1.80033e-08 0)
(0.001 -2.95715e-08 0)
(0.001 -4.26598e-08 0)
(0.001 -5.65476e-08 0)
(0.001 -6.99755e-08 0)
(0.00100001 -8.27789e-08 0)
(0.00100001 -9.26938e-08 0)
(0.00100001 -1.01871e-07 0)
(0.00100002 -1.06871e-07 0)
(0.00100002 -1.18397e-07 0)
(0.00100003 -1.30229e-07 0)
(0.00100003 -1.63144e-07 0)
(0.00100004 -1.96833e-07 0)
(0.00100005 -2.5987e-07 0)
(0.00100005 -3.06419e-07 0)
(0.00100007 -3.90368e-07 0)
(0.00100007 -4.2132e-07 0)
(0.00100009 -5.3178e-07 0)
(0.001 -2.22419e-09 0)
(0.001 -9.34131e-09 0)
(0.001 -1.85515e-08 0)
(0.001 -3.03324e-08 0)
(0.001 -4.39454e-08 0)
(0.001 -5.84765e-08 0)
(0.001 -7.23838e-08 0)
(0.001 -8.52996e-08 0)
(0.001 -9.49208e-08 0)
(0.00100001 -1.03494e-07 0)
(0.00100001 -1.07891e-07 0)
(0.00100001 -1.1919e-07 0)
(0.00100001 -1.31332e-07 0)
(0.00100001 -1.65154e-07 0)
(0.00100001 -2.00069e-07 0)
(0.00100002 -2.64334e-07 0)
(0.00100002 -3.11985e-07 0)
(0.00100002 -3.96165e-07 0)
(0.00100002 -4.27468e-07 0)
(0.00100003 -5.36381e-07 0)
(0.001 -2.22367e-09 0)
(0.001 -9.34114e-09 0)
(0.001 -1.8552e-08 0)
(0.001 -3.03332e-08 0)
(0.001 -4.39457e-08 0)
(0.000999999 -5.84759e-08 0)
(0.000999999 -7.23829e-08 0)
(0.000999998 -8.52989e-08 0)
(0.000999996 -9.4921e-08 0)
(0.000999995 -1.03495e-07 0)
(0.000999993 -1.07892e-07 0)
(0.000999992 -1.1919e-07 0)
(0.000999991 -1.31332e-07 0)
(0.000999989 -1.65154e-07 0)
(0.000999987 -2.00068e-07 0)
(0.000999985 -2.64331e-07 0)
(0.000999983 -3.11982e-07 0)
(0.000999978 -3.96162e-07 0)
(0.000999976 -4.27465e-07 0)
(0.000999969 -5.36378e-07 0)
(0.001 -2.02906e-09 0)
(0.001 -8.87209e-09 0)
(0.001 -1.80043e-08 0)
(0.001 -2.95734e-08 0)
(0.000999999 -4.26613e-08 0)
(0.000999997 -5.65473e-08 0)
(0.000999995 -6.99743e-08 0)
(0.000999992 -8.27774e-08 0)
(0.000999989 -9.26934e-08 0)
(0.000999986 -1.0187e-07 0)
(0.000999982 -1.06869e-07 0)
(0.000999977 -1.18392e-07 0)
(0.000999973 -1.30224e-07 0)
(0.000999967 -1.63136e-07 0)
(0.000999962 -1.96825e-07 0)
(0.000999953 -2.59856e-07 0)
(0.000999946 -3.06401e-07 0)
(0.000999933 -3.90332e-07 0)
(0.000999928 -4.2128e-07 0)
(0.000999909 -5.3171e-07 0)
(0.001 -1.65963e-09 0)
(0.001 -7.92119e-09 0)
(0.001 -1.66953e-08 0)
(0.001 -2.79509e-08 0)
(0.000999999 -4.07968e-08 0)
(0.000999996 -5.43968e-08 0)
(0.000999992 -6.72191e-08 0)
(0.000999987 -7.88684e-08 0)
(0.000999981 -8.70808e-08 0)
(0.000999974 -9.4278e-08 0)
(0.000999968 -9.75493e-08 0)
(0.000999961 -1.07705e-07 0)
(0.000999955 -1.18685e-07 0)
(0.000999946 -1.50798e-07 0)
(0.000999938 -1.83537e-07 0)
(0.000999924 -2.45065e-07 0)
(0.000999912 -2.89589e-07 0)
(0.00099989 -3.71129e-07 0)
(0.00099988 -4.0008e-07 0)
(0.000999846 -5.08016e-07 0)
(0.000999999 -1.18708e-09 0)
(0.001 -6.72452e-09 0)
(0.001 -1.48308e-08 0)
(0.001 -2.49962e-08 0)
(0.000999998 -3.67012e-08 0)
(0.000999994 -4.97765e-08 0)
(0.00099999 -6.2848e-08 0)
(0.000999985 -7.56027e-08 0)
(0.000999978 -8.57661e-08 0)
(0.000999969 -9.55467e-08 0)
(0.000999961 -1.01519e-07 0)
(0.00099995 -1.13622e-07 0)
(0.000999939 -1.25365e-07 0)
(0.000999925 -1.56486e-07 0)
(0.000999913 -1.87005e-07 0)
(0.000999892 -2.45895e-07 0)
(0.000999879 -2.87673e-07 0)
(0.000999846 -3.68739e-07 0)
(0.000999836 -3.96775e-07 0)
(0.000999787 -5.08816e-07 0)
(0.000999999 -6.55541e-10 0)
(0.001 -5.324e-09 0)
(0.001 -1.27721e-08 0)
(0.001 -2.16764e-08 0)
(0.000999997 -3.09247e-08 0)
(0.000999992 -4.04283e-08 0)
(0.000999985 -4.91998e-08 0)
(0.000999976 -5.71328e-08 0)
(0.000999966 -6.20764e-08 0)
(0.000999954 -6.6408e-08 0)
(0.000999943 -6.71133e-08 0)
(0.000999932 -7.42331e-08 0)
(0.000999921 -8.15837e-08 0)
(0.000999906 -1.08235e-07 0)
(0.000999891 -1.34081e-07 0)
(0.000999865 -1.87502e-07 0)
(0.000999845 -2.23449e-07 0)
(0.000999802 -2.98563e-07 0)
(0.000999783 -3.21737e-07 0)
(0.000999722 -4.29445e-07 0)
(0.000999999 -1.15159e-09 0)
(0.001 -6.25741e-09 0)
(0.001 -1.42492e-08 0)
(0.001 -2.43574e-08 0)
(0.000999999 -3.59217e-08 0)
(0.000999994 -4.88593e-08 0)
(0.000999988 -6.17163e-08 0)
(0.00099998 -7.42172e-08 0)
(0.00099997 -8.44622e-08 0)
(0.000999957 -9.4828e-08 0)
(0.000999945 -1.02026e-07 0)
(0.000999928 -1.14751e-07 0)
(0.000999913 -1.26125e-07 0)
(0.00099989 -1.5412e-07 0)
(0.000999873 -1.79421e-07 0)
(0.000999839 -2.31355e-07 0)
(0.000999818 -2.65306e-07 0)
(0.000999763 -3.40904e-07 0)
(0.000999749 -3.63829e-07 0)
(0.000999663 -4.76721e-07 0)
(0.000999999 1.68752e-09 0)
(0.001 2.75789e-09 0)
(0.001 1.3021e-09 0)
(0.000999999 -1.06247e-09 0)
(0.000999993 -3.3783e-09 0)
(0.000999986 -6.09198e-09 0)
(0.000999977 -8.62205e-09 0)
(0.000999966 -1.11257e-08 0)
(0.000999952 -1.15863e-08 0)
(0.000999937 -1.21147e-08 0)
(0.000999923 -9.51006e-09 0)
(0.000999907 -1.21788e-08 0)
(0.000999892 -1.36502e-08 0)
(0.00099987 -3.08697e-08 0)
(0.00099985 -4.47365e-08 0)
(0.000999813 -8.37346e-08 0)
(0.000999784 -1.0444e-07 0)
(0.000999721 -1.67309e-07 0)
(0.000999694 -1.79763e-07 0)
(0.0009996 -2.8614e-07 0)
(0.000999999 -2.58566e-09 0)
(0.001 -1.10591e-08 0)
(0.00100001 -2.26599e-08 0)
(0.00100001 -3.54639e-08 0)
(0.001 -4.81355e-08 0)
(0.000999995 -6.07865e-08 0)
(0.000999988 -7.28897e-08 0)
(0.000999977 -8.47287e-08 0)
(0.000999965 -9.46822e-08 0)
(0.000999948 -1.04958e-07 0)
(0.000999933 -1.12521e-07 0)
(0.000999913 -1.24808e-07 0)
(0.000999896 -1.3525e-07 0)
(0.000999866 -1.591e-07 0)
(0.000999845 -1.77809e-07 0)
(0.000999796 -2.19657e-07 0)
(0.00099977 -2.41896e-07 0)
(0.000999688 -3.06606e-07 0)
(0.000999668 -3.19841e-07 0)
(0.000999531 -4.29034e-07 0)
(0.000999998 4.65217e-09 0)
(0.000999998 1.3306e-08 0)
(0.000999998 2.15245e-08 0)
(0.000999996 2.93059e-08 0)
(0.00099999 3.6159e-08 0)
(0.000999982 4.16198e-08 0)
(0.000999973 4.66657e-08 0)
(0.00099996 5.13078e-08 0)
(0.000999946 5.65101e-08 0)
(0.000999928 6.08217e-08 0)
(0.000999913 6.66869e-08 0)
(0.000999892 6.98053e-08 0)
(0.000999875 7.57034e-08 0)
(0.000999846 7.35576e-08 0)
(0.000999824 7.68876e-08 0)
(0.000999774 6.24881e-08 0)
(0.000999742 6.42998e-08 0)
(0.000999654 2.7325e-08 0)
(0.000999624 3.26911e-08 0)
(0.000999483 -5.91984e-08 0)
(0.000999999 -8.33223e-09 0)
(0.001 -2.35854e-08 0)
(0.00100001 -3.72383e-08 0)
(0.00100001 -4.96433e-08 0)
(0.001 -6.12554e-08 0)
(0.000999992 -7.28253e-08 0)
(0.000999984 -8.38599e-08 0)
(0.000999971 -9.47434e-08 0)
(0.000999958 -1.03987e-07 0)
(0.000999939 -1.13214e-07 0)
(0.000999924 -1.20607e-07 0)
(0.0009999 -1.31482e-07 0)
(0.000999885 -1.40477e-07 0)
(0.000999848 -1.5822e-07 0)
(0.00099983 -1.69343e-07 0)
(0.000999766 -1.96314e-07 0)
(0.000999745 -2.03574e-07 0)
(0.000999623 -2.46458e-07 0)
(0.000999613 -2.43638e-07 0)
(0.000999383 -3.33391e-07 0)
)
;

boundaryField
{
    sides
    {
        type            slip;
    }
    inlet
    {
        type            fixedValue;
        value           uniform (0.001 0 0);
    }
    outlet
    {
        type            zeroGradient;
    }
    frontAndBack
    {
        type            empty;
    }
}


// ************************************************************************* //
