/*--------------------------------*- C++ -*----------------------------------*\
  =========                 |
  \\      /  F ield         | OpenFOAM: The Open Source CFD Toolbox
   \\    /   O peration     | Website:  https://openfoam.org
    \\  /    A nd           | Version:  7
     \\/     M anipulation  |
\*---------------------------------------------------------------------------*/
FoamFile
{
    version     2.0;
    format      ascii;
    class       surfaceScalarField;
    location    "27";
    object      phi;
}
// * * * * * * * * * * * * * * * * * * * * * * * * * * * * * * * * * * * * * //

dimensions      [0 4 -1 0 0 0 0];

internalField   nonuniform List<scalar> 
760
(
4.99998e-06
1.2871e-11
4.99997e-06
3.21844e-13
4.99997e-06
-1.04811e-11
4.99999e-06
-2.11351e-11
5.00002e-06
-3.15292e-11
5.00006e-06
-3.92791e-11
5.00011e-06
-5.30708e-11
5.00018e-06
-6.86557e-11
5.00025e-06
-7.4242e-11
5.00034e-06
-8.45014e-11
5.00044e-06
-8.81202e-11
5.00054e-06
-1.03475e-10
5.00066e-06
-1.0902e-10
5.00081e-06
-1.48557e-10
5.00098e-06
-1.64095e-10
5.00124e-06
-2.5224e-10
5.0015e-06
-2.65832e-10
5.00195e-06
-4.47718e-10
5.00239e-06
-4.40205e-10
-9.07759e-10
5.00001e-06
-7.35526e-12
5.00001e-06
-8.60091e-12
5.00002e-06
-2.13513e-11
5.00003e-06
-4.21847e-11
5.00006e-06
-6.32581e-11
5.00011e-06
-8.75971e-11
5.00016e-06
-1.1044e-10
5.00023e-06
-1.3358e-10
5.00031e-06
-1.4911e-10
5.0004e-06
-1.67637e-10
5.00049e-06
-1.7269e-10
5.00059e-06
-1.98879e-10
5.00069e-06
-2.10312e-10
5.00083e-06
-2.81775e-10
5.00099e-06
-3.22403e-10
5.00122e-06
-4.7561e-10
5.00149e-06
-5.30332e-10
5.00184e-06
-8.02358e-10
5.00222e-06
-8.15785e-10
-1.29524e-09
4.99998e-06
4.50252e-12
4.99997e-06
-8.50759e-12
4.99997e-06
-2.96697e-11
4.99998e-06
-5.90146e-11
5.00001e-06
-9.02931e-11
5.00004e-06
-1.23729e-10
5.00009e-06
-1.56615e-10
5.00015e-06
-1.90324e-10
5.00022e-06
-2.16094e-10
5.00029e-06
-2.43569e-10
5.00038e-06
-2.56983e-10
5.00048e-06
-2.91467e-10
5.00059e-06
-3.1713e-10
5.00073e-06
-4.08961e-10
5.00089e-06
-4.82577e-10
5.00109e-06
-6.7211e-10
5.00134e-06
-7.76435e-10
5.00163e-06
-1.08802e-09
5.00197e-06
-1.16003e-09
-1.73587e-09
5e-06
-1.44765e-12
5e-06
-1.46812e-11
5e-06
-4.30866e-11
5.00002e-06
-7.9822e-11
5.00005e-06
-1.2025e-10
5.00009e-06
-1.65087e-10
5.00014e-06
-2.09096e-10
5.0002e-06
-2.52407e-10
5.00027e-06
-2.83928e-10
5.00035e-06
-3.15432e-10
5.00043e-06
-3.2874e-10
5.00051e-06
-3.68804e-10
5.0006e-06
-3.99901e-10
5.00071e-06
-5.13677e-10
5.00084e-06
-6.12001e-10
5.00102e-06
-8.44886e-10
5.00123e-06
-9.86978e-10
5.00149e-06
-1.34548e-09
5.00177e-06
-1.43747e-09
-1.96156e-09
4.99999e-06
-2.23327e-12
4.99999e-06
-1.97322e-11
4.99999e-06
-5.23305e-11
5e-06
-9.49364e-11
5.00001e-06
-1.42535e-10
5.00004e-06
-1.94731e-10
5.00008e-06
-2.46343e-10
5.00012e-06
-2.96787e-10
5.00018e-06
-3.36125e-10
5.00024e-06
-3.75486e-10
5.00032e-06
-3.9721e-10
5.0004e-06
-4.45072e-10
5.00049e-06
-4.87026e-10
5.0006e-06
-6.13359e-10
5.00072e-06
-7.32686e-10
5.00087e-06
-9.86304e-10
5.00104e-06
-1.15902e-09
5.00123e-06
-1.53379e-09
5.00145e-06
-1.6534e-09
-2.23621e-09
4.99999e-06
-3.40486e-12
4.99999e-06
-2.55005e-11
4.99999e-06
-6.24814e-11
5e-06
-1.10784e-10
5.00002e-06
-1.65962e-10
5.00005e-06
-2.26652e-10
5.0001e-06
-2.86518e-10
5.00014e-06
-3.44372e-10
5.0002e-06
-3.87953e-10
5.00026e-06
-4.28499e-10
5.00031e-06
-4.48516e-10
5.00037e-06
-4.97803e-10
5.00044e-06
-5.43916e-10
5.00051e-06
-6.8507e-10
5.00061e-06
-8.23845e-10
5.00073e-06
-1.10495e-09
5.00088e-06
-1.30373e-09
5.00105e-06
-1.70356e-09
5.00124e-06
-1.8405e-09
-2.3797e-09
4.99999e-06
-5.32141e-12
4.99999e-06
-3.17818e-11
5e-06
-7.16047e-11
5e-06
-1.23653e-10
5.00002e-06
-1.83291e-10
5.00004e-06
-2.4796e-10
5.00006e-06
-3.11482e-10
5.00009e-06
-3.73231e-10
5.00013e-06
-4.21932e-10
5.00018e-06
-4.68288e-10
5.00023e-06
-4.93741e-10
5.00028e-06
-5.47991e-10
5.00034e-06
-5.99425e-10
5.00041e-06
-7.47679e-10
5.00049e-06
-8.97894e-10
5.00058e-06
-1.19204e-09
5.00069e-06
-1.40859e-09
5.0008e-06
-1.81818e-09
5.00093e-06
-1.96549e-09
-2.53506e-09
5e-06
-7.25006e-12
4.99999e-06
-3.66816e-11
5e-06
-7.8155e-11
5e-06
-1.3218e-10
5.00001e-06
-1.95517e-10
5.00003e-06
-2.6517e-10
5.00005e-06
-3.33901e-10
5.00008e-06
-4.00078e-10
5.00011e-06
-4.51421e-10
5.00014e-06
-4.98602e-10
5.00018e-06
-5.23449e-10
5.00021e-06
-5.78353e-10
5.00025e-06
-6.32164e-10
5.00029e-06
-7.87576e-10
5.00035e-06
-9.48044e-10
5.00041e-06
-1.25541e-09
5.00049e-06
-1.4858e-09
5.00058e-06
-1.90641e-09
5.00068e-06
-2.0662e-09
-2.61661e-09
5e-06
-8.33091e-12
5e-06
-3.98605e-11
5e-06
-8.23822e-11
5e-06
-1.38194e-10
5.00001e-06
-2.04351e-10
5.00002e-06
-2.76241e-10
5.00003e-06
-3.46383e-10
5.00005e-06
-4.13782e-10
5.00006e-06
-4.66415e-10
5.00008e-06
-5.15313e-10
5.0001e-06
-5.41894e-10
5.00013e-06
-5.98791e-10
5.00015e-06
-6.55045e-10
5.00018e-06
-8.14311e-10
5.00021e-06
-9.80026e-10
5.00025e-06
-1.29322e-09
5.0003e-06
-1.53043e-09
5.00035e-06
-1.95526e-09
5.0004e-06
-2.11685e-09
-2.67557e-09
5e-06
-8.77092e-12
5e-06
-4.10311e-11
5e-06
-8.40665e-11
5e-06
-1.40304e-10
5e-06
-2.06777e-10
5.00001e-06
-2.79064e-10
5.00001e-06
-3.50203e-10
5.00001e-06
-4.18823e-10
5.00002e-06
-4.72778e-10
5.00003e-06
-5.22344e-10
5.00004e-06
-5.48781e-10
5.00004e-06
-6.05361e-10
5.00005e-06
-6.61472e-10
5.00006e-06
-8.21502e-10
5.00007e-06
-9.88785e-10
5.00008e-06
-1.30449e-09
5.0001e-06
-1.54489e-09
5.00011e-06
-1.97206e-09
5.00014e-06
-2.13812e-09
-2.69297e-09
5e-06
-8.32446e-12
5e-06
-3.98574e-11
5e-06
-8.23842e-11
5e-06
-1.382e-10
5e-06
-2.04357e-10
4.99999e-06
-2.76241e-10
4.99999e-06
-3.46379e-10
4.99999e-06
-4.13779e-10
4.99998e-06
-4.66416e-10
4.99997e-06
-5.15311e-10
4.99996e-06
-5.41893e-10
4.99996e-06
-5.98779e-10
4.99995e-06
-6.55035e-10
4.99994e-06
-8.14295e-10
4.99993e-06
-9.80015e-10
4.99992e-06
-1.2932e-09
4.9999e-06
-1.53041e-09
4.99989e-06
-1.95519e-09
4.99986e-06
-2.11678e-09
-2.67541e-09
5e-06
-7.24146e-12
5e-06
-3.66765e-11
5e-06
-7.81597e-11
5e-06
-1.32192e-10
4.99999e-06
-1.95524e-10
4.99998e-06
-2.65165e-10
4.99997e-06
-3.3389e-10
4.99995e-06
-4.00067e-10
4.99994e-06
-4.51421e-10
4.99992e-06
-4.98599e-10
4.9999e-06
-5.23449e-10
4.99987e-06
-5.78335e-10
4.99985e-06
-6.32149e-10
4.99982e-06
-7.8755e-10
4.99979e-06
-9.48023e-10
4.99975e-06
-1.25536e-09
4.9997e-06
-1.48575e-09
4.99965e-06
-1.90627e-09
4.9996e-06
-2.06604e-09
-2.61634e-09
5e-06
-5.31507e-12
5.00001e-06
-3.17774e-11
5e-06
-7.16088e-11
5e-06
-1.23662e-10
4.99999e-06
-1.83294e-10
4.99997e-06
-2.4795e-10
4.99995e-06
-3.11466e-10
4.99992e-06
-3.73218e-10
4.99989e-06
-4.21936e-10
4.99986e-06
-4.68287e-10
4.99982e-06
-4.93747e-10
4.99979e-06
-5.47969e-10
4.99975e-06
-5.99406e-10
4.99971e-06
-7.47641e-10
4.99965e-06
-8.97871e-10
4.99959e-06
-1.19197e-09
4.99951e-06
-1.40852e-09
4.99942e-06
-1.81799e-09
4.99932e-06
-1.96529e-09
-2.53462e-09
5.00001e-06
-3.40185e-12
5.00001e-06
-2.54972e-11
5e-06
-6.24853e-11
5e-06
-1.10788e-10
4.99998e-06
-1.65959e-10
4.99996e-06
-2.26629e-10
4.99994e-06
-2.8649e-10
4.99991e-06
-3.44345e-10
4.99987e-06
-3.8795e-10
4.99982e-06
-4.2849e-10
4.99977e-06
-4.48514e-10
4.99972e-06
-4.97772e-10
4.99966e-06
-5.43894e-10
4.99959e-06
-6.85024e-10
4.99951e-06
-8.23815e-10
4.99942e-06
-1.10487e-09
4.99931e-06
-1.30364e-09
4.9992e-06
-1.7033e-09
4.99907e-06
-1.84023e-09
-2.37917e-09
5.00001e-06
-2.23021e-12
5.00001e-06
-1.97294e-11
5.00001e-06
-5.23343e-11
5e-06
-9.49417e-11
4.99998e-06
-1.42536e-10
4.99995e-06
-1.94714e-10
4.9999e-06
-2.46324e-10
4.99986e-06
-2.96769e-10
4.9998e-06
-3.36134e-10
4.99974e-06
-3.75493e-10
4.99969e-06
-3.97231e-10
4.99963e-06
-4.45059e-10
4.99957e-06
-4.87027e-10
4.99949e-06
-6.13323e-10
4.99939e-06
-7.32672e-10
4.99927e-06
-9.86215e-10
4.99912e-06
-1.15894e-09
4.99895e-06
-1.53352e-09
4.99876e-06
-1.65315e-09
-2.23564e-09
5.00001e-06
-1.4381e-12
5.00001e-06
-1.46749e-11
5.00001e-06
-4.30876e-11
5e-06
-7.98268e-11
4.99999e-06
-1.20246e-10
4.99996e-06
-1.65063e-10
4.99992e-06
-2.09067e-10
4.99988e-06
-2.52379e-10
4.99982e-06
-2.83924e-10
4.99976e-06
-3.15419e-10
4.99968e-06
-3.28743e-10
4.9996e-06
-3.68765e-10
4.99951e-06
-3.99887e-10
4.9994e-06
-5.13622e-10
4.99928e-06
-6.11983e-10
4.99913e-06
-8.44783e-10
4.99896e-06
-9.86898e-10
4.99877e-06
-1.34518e-09
4.99855e-06
-1.43718e-09
-1.96091e-09
5e-06
4.50757e-12
5e-06
-8.5081e-12
5e-06
-2.968e-11
4.99998e-06
-5.9036e-11
4.99995e-06
-9.03153e-11
4.99991e-06
-1.23742e-10
4.99986e-06
-1.56624e-10
4.9998e-06
-1.90338e-10
4.99973e-06
-2.16125e-10
4.99965e-06
-2.43593e-10
4.99957e-06
-2.57026e-10
4.99949e-06
-2.91476e-10
4.9994e-06
-3.17165e-10
4.99929e-06
-4.08954e-10
4.99916e-06
-4.82614e-10
4.99898e-06
-6.72054e-10
4.99877e-06
-7.7643e-10
4.99851e-06
-1.08779e-09
4.99823e-06
-1.15988e-09
-1.73537e-09
5.00002e-06
-7.34527e-12
5.00003e-06
-8.5937e-12
5.00003e-06
-2.13588e-11
5.00002e-06
-4.22032e-11
4.99999e-06
-6.32854e-11
4.99996e-06
-8.7606e-11
4.99991e-06
-1.10436e-10
4.99985e-06
-1.33546e-10
4.99978e-06
-1.49116e-10
4.9997e-06
-1.67624e-10
4.99962e-06
-1.72705e-10
4.99952e-06
-1.98846e-10
4.99941e-06
-2.10325e-10
4.99927e-06
-2.81724e-10
4.99911e-06
-3.22429e-10
4.99891e-06
-4.75508e-10
4.99866e-06
-5.30327e-10
4.99837e-06
-8.02091e-10
4.99803e-06
-8.15619e-10
-1.29468e-09
4.99999e-06
1.28661e-11
4.99999e-06
3.11604e-13
4.99998e-06
-1.05165e-11
4.99997e-06
-2.11784e-11
4.99994e-06
-3.20634e-11
4.99989e-06
-3.93572e-11
4.99984e-06
-5.30112e-11
4.99977e-06
-6.88508e-11
4.99969e-06
-7.42993e-11
4.9996e-06
-8.45511e-11
4.99951e-06
-8.81846e-11
4.99941e-06
-1.03525e-10
4.99931e-06
-1.09097e-10
4.99917e-06
-1.48624e-10
4.99901e-06
-1.64205e-10
4.99878e-06
-2.52309e-10
4.99851e-06
-2.65943e-10
4.99816e-06
-4.47729e-10
4.99778e-06
-4.40255e-10
-9.07702e-10
5.00002e-06
5.00003e-06
5.00003e-06
5.00001e-06
4.99998e-06
4.99994e-06
4.99989e-06
4.99982e-06
4.99974e-06
4.99966e-06
4.99956e-06
4.99946e-06
4.99934e-06
4.99919e-06
4.99902e-06
4.99876e-06
4.9985e-06
4.99805e-06
4.99761e-06
)
;

boundaryField
{
    sides
    {
        type            calculated;
        value           uniform 0;
    }
    inlet
    {
        type            calculated;
        value           nonuniform List<scalar> 
20
(
-5e-06
-5e-06
-5e-06
-5e-06
-5e-06
-5e-06
-5e-06
-5e-06
-5e-06
-5e-06
-5e-06
-5e-06
-5e-06
-5e-06
-5e-06
-5e-06
-5e-06
-5e-06
-5e-06
-5e-06
)
;
    }
    outlet
    {
        type            calculated;
        value           nonuniform List<scalar> 
20
(
5.0033e-06
5.00261e-06
5.00241e-06
5.00199e-06
5.00172e-06
5.00138e-06
5.00108e-06
5.00077e-06
5.00046e-06
5.00015e-06
4.99985e-06
4.99954e-06
4.99923e-06
4.99892e-06
4.99862e-06
4.99828e-06
4.99801e-06
4.99759e-06
4.99739e-06
4.9967e-06
)
;
    }
    frontAndBack
    {
        type            empty;
        value           nonuniform 0();
    }
}


// ************************************************************************* //
