/*--------------------------------*- C++ -*----------------------------------*\
  =========                 |
  \\      /  F ield         | OpenFOAM: The Open Source CFD Toolbox
   \\    /   O peration     | Website:  https://openfoam.org
    \\  /    A nd           | Version:  7
     \\/     M anipulation  |
\*---------------------------------------------------------------------------*/
FoamFile
{
    version     2.0;
    format      ascii;
    class       surfaceScalarField;
    location    "27";
    object      phi_0;
}
// * * * * * * * * * * * * * * * * * * * * * * * * * * * * * * * * * * * * * //

dimensions      [0 4 -1 0 0 0 0];

internalField   nonuniform List<scalar> 
760
(
4.99998e-06
1.29081e-11
4.99997e-06
-5.0686e-13
4.99997e-06
-1.20278e-11
4.99999e-06
-2.27702e-11
5.00002e-06
-3.18431e-11
5.00006e-06
-4.70633e-11
5.00011e-06
-5.38221e-11
5.00018e-06
-6.41145e-11
5.00025e-06
-7.34517e-11
5.00034e-06
-8.34182e-11
5.00043e-06
-8.66603e-11
5.00054e-06
-1.02182e-10
5.00065e-06
-1.08439e-10
5.00081e-06
-1.49237e-10
5.00098e-06
-1.65744e-10
5.00123e-06
-2.54697e-10
5.00151e-06
-2.67993e-10
5.00196e-06
-4.49093e-10
5.0024e-06
-4.40366e-10
-9.06316e-10
5.00001e-06
-7.15901e-12
5.00001e-06
-9.95148e-12
5.00002e-06
-2.49102e-11
5.00003e-06
-4.54908e-11
5.00006e-06
-6.63723e-11
5.00011e-06
-9.01506e-11
5.00017e-06
-1.12395e-10
5.00023e-06
-1.34456e-10
5.00031e-06
-1.48256e-10
5.0004e-06
-1.65269e-10
5.00048e-06
-1.69425e-10
5.00058e-06
-1.95909e-10
5.00069e-06
-2.08803e-10
5.00083e-06
-2.8307e-10
5.00099e-06
-3.25958e-10
5.00122e-06
-4.8097e-10
5.00149e-06
-5.35127e-10
5.00185e-06
-8.05382e-10
5.00223e-06
-8.162e-10
-1.29252e-09
4.99998e-06
4.1404e-12
4.99997e-06
-1.05345e-11
4.99997e-06
-3.37175e-11
4.99998e-06
-6.36434e-11
5.00001e-06
-9.46571e-11
5.00004e-06
-1.27486e-10
5.00009e-06
-1.59553e-10
5.00014e-06
-1.91535e-10
5.00021e-06
-2.15329e-10
5.00029e-06
-2.40596e-10
5.00038e-06
-2.52679e-10
5.00048e-06
-2.87487e-10
5.00059e-06
-3.15194e-10
5.00072e-06
-4.1085e-10
5.00089e-06
-4.87472e-10
5.00109e-06
-6.7944e-10
5.00134e-06
-7.82929e-10
5.00163e-06
-1.09216e-09
5.00197e-06
-1.1606e-09
-1.73179e-09
5e-06
-1.38051e-12
5e-06
-1.79113e-11
5e-06
-4.84586e-11
5.00002e-06
-8.57743e-11
5.00005e-06
-1.26203e-10
5.00009e-06
-1.70595e-10
5.00014e-06
-2.13384e-10
5.0002e-06
-2.54403e-10
5.00027e-06
-2.82984e-10
5.00035e-06
-3.11295e-10
5.00042e-06
-3.22739e-10
5.0005e-06
-3.63282e-10
5.00059e-06
-3.97281e-10
5.0007e-06
-5.16451e-10
5.00084e-06
-6.18999e-10
5.00102e-06
-8.55195e-10
5.00123e-06
-9.96048e-10
5.00149e-06
-1.35112e-09
5.00177e-06
-1.43809e-09
-1.95619e-09
4.99999e-06
-2.8317e-12
4.99999e-06
-2.35883e-11
4.99999e-06
-5.86874e-11
5e-06
-1.02347e-10
5.00001e-06
-1.50024e-10
5.00004e-06
-2.01826e-10
5.00008e-06
-2.51992e-10
5.00012e-06
-2.99851e-10
5.00018e-06
-3.36009e-10
5.00024e-06
-3.7187e-10
5.00031e-06
-3.91327e-10
5.0004e-06
-4.3943e-10
5.00049e-06
-4.84371e-10
5.00059e-06
-6.16641e-10
5.00072e-06
-7.40683e-10
5.00086e-06
-9.98158e-10
5.00104e-06
-1.16956e-09
5.00123e-06
-1.54041e-09
5.00145e-06
-1.65422e-09
-2.22981e-09
4.99999e-06
-4.6461e-12
4.99999e-06
-3.03677e-11
4.99999e-06
-7.01285e-11
5e-06
-1.19942e-10
5.00003e-06
-1.75591e-10
5.00006e-06
-2.35796e-10
5.0001e-06
-2.94146e-10
5.00015e-06
-3.48908e-10
5.0002e-06
-3.88313e-10
5.00026e-06
-4.24408e-10
5.00031e-06
-4.41708e-10
5.00037e-06
-4.91469e-10
5.00043e-06
-5.4145e-10
5.00051e-06
-6.89874e-10
5.00061e-06
-8.34256e-10
5.00073e-06
-1.11968e-09
5.00088e-06
-1.31649e-09
5.00105e-06
-1.71129e-09
5.00124e-06
-1.84111e-09
-2.37214e-09
4.99999e-06
-7.31503e-12
4.99999e-06
-3.74605e-11
5e-06
-8.02907e-11
5e-06
-1.34188e-10
5.00002e-06
-1.94542e-10
5.00004e-06
-2.58689e-10
5.00006e-06
-3.20464e-10
5.00009e-06
-3.79042e-10
5.00013e-06
-4.23517e-10
5.00017e-06
-4.65128e-10
5.00022e-06
-4.87491e-10
5.00028e-06
-5.41912e-10
5.00034e-06
-5.97124e-10
5.00041e-06
-7.53007e-10
5.00049e-06
-9.09252e-10
5.00058e-06
-1.20816e-09
5.00069e-06
-1.42269e-09
5.0008e-06
-1.8269e-09
5.00093e-06
-1.96656e-09
-2.52698e-09
5e-06
-9.69439e-12
4.99999e-06
-4.29354e-11
5e-06
-8.75533e-11
5e-06
-1.43957e-10
5.00001e-06
-2.08249e-10
5.00003e-06
-2.77435e-10
5.00005e-06
-3.44384e-10
5.00008e-06
-4.07e-10
5.00011e-06
-4.53589e-10
5.00014e-06
-4.9554e-10
5.00017e-06
-5.17061e-10
5.00021e-06
-5.72217e-10
5.00024e-06
-6.30158e-10
5.00029e-06
-7.9379e-10
5.00034e-06
-9.60698e-10
5.00041e-06
-1.27311e-09
5.00049e-06
-1.50126e-09
5.00058e-06
-1.91608e-09
5.00069e-06
-2.06757e-09
-2.60803e-09
5e-06
-1.11005e-11
5e-06
-4.63909e-11
5e-06
-9.22109e-11
5e-06
-1.50696e-10
5.00001e-06
-2.17978e-10
5.00002e-06
-2.89412e-10
5.00003e-06
-3.57566e-10
5.00005e-06
-4.21298e-10
5.00006e-06
-4.69182e-10
5.00008e-06
-5.12739e-10
5.0001e-06
-5.35828e-10
5.00012e-06
-5.92958e-10
5.00015e-06
-6.53407e-10
5.00018e-06
-8.20944e-10
5.00021e-06
-9.93048e-10
5.00025e-06
-1.31134e-09
5.0003e-06
-1.54635e-09
5.00035e-06
-1.96538e-09
5.0004e-06
-2.11858e-09
-2.66691e-09
5e-06
-1.15681e-11
5e-06
-4.77036e-11
5e-06
-9.40706e-11
5e-06
-1.5305e-10
5e-06
-2.20734e-10
5.00001e-06
-2.92541e-10
5.00001e-06
-3.61742e-10
5.00001e-06
-4.26728e-10
5.00002e-06
-4.75839e-10
5.00003e-06
-5.19842e-10
5.00004e-06
-5.4268e-10
5.00004e-06
-5.99556e-10
5.00005e-06
-6.59961e-10
5.00006e-06
-8.28309e-10
5.00007e-06
-1.00196e-09
5.00008e-06
-1.32284e-09
5.0001e-06
-1.5611e-09
5.00011e-06
-1.98255e-09
5.00014e-06
-2.14007e-09
-2.6842e-09
5e-06
-1.10953e-11
5e-06
-4.63895e-11
5e-06
-9.22138e-11
5e-06
-1.50703e-10
5e-06
-2.17983e-10
4.99999e-06
-2.89412e-10
4.99999e-06
-3.57564e-10
4.99999e-06
-4.21296e-10
4.99998e-06
-4.69185e-10
4.99997e-06
-5.12739e-10
4.99996e-06
-5.35829e-10
4.99996e-06
-5.92948e-10
4.99995e-06
-6.53399e-10
4.99994e-06
-8.20931e-10
4.99993e-06
-9.9304e-10
4.99992e-06
-1.31132e-09
4.9999e-06
-1.54633e-09
4.99989e-06
-1.96531e-09
4.99986e-06
-2.11851e-09
-2.66674e-09
5e-06
-9.68693e-12
5e-06
-4.29336e-11
5e-06
-8.75607e-11
5e-06
-1.4397e-10
4.99999e-06
-2.08256e-10
4.99998e-06
-2.77431e-10
4.99997e-06
-3.44375e-10
4.99995e-06
-4.06992e-10
4.99994e-06
-4.53592e-10
4.99992e-06
-4.95539e-10
4.9999e-06
-5.17063e-10
4.99988e-06
-5.72201e-10
4.99985e-06
-6.30147e-10
4.99982e-06
-7.93768e-10
4.99979e-06
-9.60679e-10
4.99975e-06
-1.27306e-09
4.9997e-06
-1.5012e-09
4.99965e-06
-1.91594e-09
4.9996e-06
-2.06741e-09
-2.60775e-09
5e-06
-7.3093e-12
5.00001e-06
-3.74608e-11
5e-06
-8.02998e-11
5e-06
-1.34203e-10
4.99999e-06
-1.94547e-10
4.99997e-06
-2.5868e-10
4.99995e-06
-3.20451e-10
4.99992e-06
-3.79032e-10
4.99989e-06
-4.23523e-10
4.99986e-06
-4.6513e-10
4.99983e-06
-4.87497e-10
4.99979e-06
-5.41889e-10
4.99976e-06
-5.97108e-10
4.99971e-06
-7.52972e-10
4.99966e-06
-9.09231e-10
4.99959e-06
-1.20809e-09
4.99951e-06
-1.42262e-09
4.99942e-06
-1.82671e-09
4.99931e-06
-1.96636e-09
-2.52654e-09
5.00001e-06
-4.64453e-12
5.00001e-06
-3.03703e-11
5e-06
-7.01399e-11
5e-06
-1.19953e-10
4.99998e-06
-1.75591e-10
4.99996e-06
-2.35776e-10
4.99994e-06
-2.94118e-10
4.99991e-06
-3.48885e-10
4.99987e-06
-3.88311e-10
4.99983e-06
-4.24398e-10
4.99978e-06
-4.41706e-10
4.99972e-06
-4.91436e-10
4.99966e-06
-5.41428e-10
4.99959e-06
-6.89829e-10
4.99951e-06
-8.34224e-10
4.99942e-06
-1.11959e-09
4.99931e-06
-1.31638e-09
4.9992e-06
-1.71103e-09
4.99907e-06
-1.84083e-09
-2.37162e-09
5.00001e-06
-2.83184e-12
5.00001e-06
-2.35915e-11
5.00001e-06
-5.86986e-11
5e-06
-1.02357e-10
4.99997e-06
-1.50026e-10
4.99994e-06
-2.01807e-10
4.9999e-06
-2.51972e-10
4.99985e-06
-2.99834e-10
4.9998e-06
-3.3602e-10
4.99974e-06
-3.71875e-10
4.99969e-06
-3.91346e-10
4.99963e-06
-4.39415e-10
4.99957e-06
-4.8437e-10
4.99949e-06
-6.16602e-10
4.99939e-06
-7.40667e-10
4.99927e-06
-9.98066e-10
4.99912e-06
-1.16947e-09
4.99895e-06
-1.54014e-09
4.99876e-06
-1.65397e-09
-2.22924e-09
5.00001e-06
-1.3775e-12
5.00001e-06
-1.79123e-11
5.00001e-06
-4.84679e-11
5e-06
-8.57795e-11
4.99999e-06
-1.26197e-10
4.99996e-06
-1.70567e-10
4.99992e-06
-2.13353e-10
4.99988e-06
-2.54373e-10
4.99982e-06
-2.82982e-10
4.99976e-06
-3.11282e-10
4.99969e-06
-3.22739e-10
4.9996e-06
-3.63241e-10
4.99951e-06
-3.97267e-10
4.99941e-06
-5.16396e-10
4.99928e-06
-6.1898e-10
4.99914e-06
-8.55089e-10
4.99896e-06
-9.95958e-10
4.99877e-06
-1.35082e-09
4.99855e-06
-1.43779e-09
-1.95553e-09
5e-06
4.13943e-12
5e-06
-1.05405e-11
5e-06
-3.37319e-11
4.99998e-06
-6.36656e-11
4.99995e-06
-9.46724e-11
4.99991e-06
-1.2749e-10
4.99986e-06
-1.59558e-10
4.9998e-06
-1.91547e-10
4.99973e-06
-2.1536e-10
4.99965e-06
-2.40621e-10
4.99958e-06
-2.52721e-10
4.9995e-06
-2.87495e-10
4.99941e-06
-3.15232e-10
4.9993e-06
-4.10844e-10
4.99916e-06
-4.87509e-10
4.99898e-06
-6.79381e-10
4.99877e-06
-7.82918e-10
4.99851e-06
-1.09193e-09
4.99823e-06
-1.16044e-09
-1.7313e-09
5.00002e-06
-7.14798e-12
5.00003e-06
-9.95058e-12
5.00003e-06
-2.49189e-11
5.00002e-06
-4.55089e-11
4.99999e-06
-6.63903e-11
4.99996e-06
-9.01502e-11
4.99991e-06
-1.12388e-10
4.99985e-06
-1.34449e-10
4.99979e-06
-1.48265e-10
4.99971e-06
-1.65257e-10
4.99962e-06
-1.69439e-10
4.99952e-06
-1.95876e-10
4.99941e-06
-2.08819e-10
4.99928e-06
-2.83021e-10
4.99911e-06
-3.25984e-10
4.99891e-06
-4.80866e-10
4.99866e-06
-5.35117e-10
4.99837e-06
-8.05112e-10
4.99802e-06
-8.16028e-10
-1.29197e-09
4.99999e-06
1.29072e-11
4.99999e-06
-5.21908e-13
4.99998e-06
-1.20612e-11
4.99997e-06
-2.28276e-11
4.99994e-06
-3.16651e-11
4.99989e-06
-4.72026e-11
4.99983e-06
-5.39205e-11
4.99977e-06
-6.39112e-11
4.99969e-06
-7.3493e-11
4.9996e-06
-8.34683e-11
4.99952e-06
-8.67251e-11
4.99942e-06
-1.02233e-10
4.99931e-06
-1.0852e-10
4.99917e-06
-1.49308e-10
4.99901e-06
-1.65856e-10
4.99878e-06
-2.54765e-10
4.99851e-06
-2.68101e-10
4.99815e-06
-4.49102e-10
4.99778e-06
-4.4041e-10
-9.06258e-10
5.00002e-06
5.00003e-06
5.00003e-06
5.00001e-06
4.99998e-06
4.99994e-06
4.99989e-06
4.99982e-06
4.99975e-06
4.99966e-06
4.99957e-06
4.99946e-06
4.99935e-06
4.99919e-06
4.99902e-06
4.99876e-06
4.99849e-06
4.99804e-06
4.9976e-06
)
;

boundaryField
{
    sides
    {
        type            calculated;
        value           uniform 0;
    }
    inlet
    {
        type            calculated;
        value           nonuniform List<scalar> 
20
(
-5e-06
-5e-06
-5e-06
-5e-06
-5e-06
-5e-06
-5e-06
-5e-06
-5e-06
-5e-06
-5e-06
-5e-06
-5e-06
-5e-06
-5e-06
-5e-06
-5e-06
-5e-06
-5e-06
-5e-06
)
;
    }
    outlet
    {
        type            calculated;
        value           nonuniform List<scalar> 
20
(
5.0033e-06
5.00261e-06
5.00241e-06
5.002e-06
5.00172e-06
5.00138e-06
5.00108e-06
5.00077e-06
5.00046e-06
5.00015e-06
4.99985e-06
4.99954e-06
4.99923e-06
4.99891e-06
4.99862e-06
4.99828e-06
4.998e-06
4.99759e-06
4.99739e-06
4.9967e-06
)
;
    }
    frontAndBack
    {
        type            empty;
        value           nonuniform 0();
    }
}


// ************************************************************************* //
