/*--------------------------------*- C++ -*----------------------------------*\
  =========                 |
  \\      /  F ield         | OpenFOAM: The Open Source CFD Toolbox
   \\    /   O peration     | Website:  https://openfoam.org
    \\  /    A nd           | Version:  7
     \\/     M anipulation  |
\*---------------------------------------------------------------------------*/
FoamFile
{
    version     2.0;
    format      ascii;
    class       volVectorField;
    location    "43";
    object      ddt0(hU);
}
// * * * * * * * * * * * * * * * * * * * * * * * * * * * * * * * * * * * * * //

dimensions      [0 2 -2 0 0 0 0];

internalField   nonuniform List<vector> 
400
(
(1.43525e-10 -8.22901e-11 0)
(-9.2842e-11 -2.53364e-11 0)
(-1.31728e-09 -6.23972e-10 0)
(-1.47221e-09 -1.27569e-09 0)
(-7.46853e-10 -2.01873e-09 0)
(8.26842e-10 -1.92097e-09 0)
(-4.37873e-09 -4.01629e-09 0)
(2.72106e-09 -1.04033e-09 0)
(2.29058e-09 -7.19512e-10 0)
(9.32256e-10 -1.67383e-10 0)
(5.40872e-10 5.87463e-10 0)
(-9.89763e-13 8.23081e-10 0)
(-7.58745e-10 8.04092e-10 0)
(-1.19574e-09 4.14031e-10 0)
(-1.44554e-09 -4.79576e-11 0)
(-1.81527e-09 -8.44798e-10 0)
(-1.00034e-09 -1.33644e-09 0)
(-4.47181e-10 -1.45943e-09 0)
(9.91018e-10 -1.76338e-09 0)
(1.99745e-09 -2.95947e-10 0)
(2.58384e-10 -3.66469e-10 0)
(-8.54304e-11 -1.14298e-10 0)
(-1.46487e-09 -1.84404e-10 0)
(-1.87207e-09 2.87282e-10 0)
(-1.57862e-09 -2.33251e-10 0)
(-1.23544e-09 4.15747e-11 0)
(3.66723e-09 -1.65118e-09 0)
(-1.10751e-09 4.87164e-10 0)
(1.16564e-09 -4.07949e-10 0)
(1.2356e-09 -5.33356e-10 0)
(1.1168e-09 -6.74548e-11 0)
(3.38733e-10 8.35187e-12 0)
(-4.4035e-10 2.11235e-10 0)
(-1.05338e-09 3.32021e-10 0)
(-1.48442e-09 3.04226e-10 0)
(-1.92955e-09 1.32612e-10 0)
(-1.22939e-09 -2.37438e-10 0)
(-6.93748e-10 -4.06446e-10 0)
(7.01043e-10 -1.23069e-09 0)
(1.8626e-09 -8.29712e-10 0)
(6.26001e-10 -2.91444e-10 0)
(-2.31793e-10 -2.33998e-10 0)
(-1.17035e-09 -7.77397e-10 0)
(-1.23148e-09 -1.58305e-09 0)
(-5.6647e-10 -2.7168e-09 0)
(-5.60444e-10 -3.18798e-09 0)
(4.89547e-10 -2.0863e-09 0)
(1.18647e-09 -1.98815e-09 0)
(-1.28384e-11 -1.36922e-09 0)
(9.21392e-10 2.02015e-10 0)
(5.50739e-10 1.26083e-09 0)
(-3.83772e-10 1.57687e-09 0)
(-8.79414e-10 1.70374e-09 0)
(-1.35679e-09 1.17868e-09 0)
(-1.72228e-09 5.20018e-10 0)
(-1.97471e-09 -7.66669e-10 0)
(-9.51902e-10 -1.96012e-09 0)
(-4.674e-10 -2.52042e-09 0)
(1.08668e-09 -3.98329e-09 0)
(2.15398e-09 -1.39503e-09 0)
(2.62211e-10 -1.24467e-10 0)
(-3.5305e-10 -2.8518e-10 0)
(-1.39444e-09 -7.59546e-10 0)
(-1.77477e-09 -2.26067e-09 0)
(-9.93345e-10 -3.35287e-09 0)
(-5.73563e-10 -4.50236e-09 0)
(6.14826e-10 -4.06017e-09 0)
(5.93656e-10 -3.90563e-09 0)
(1.23345e-09 -2.15992e-09 0)
(1.98719e-09 -1.91573e-10 0)
(9.92003e-10 9.35434e-10 0)
(1.02126e-10 1.54106e-09 0)
(-3.41307e-10 1.89721e-09 0)
(-1.01516e-09 1.30275e-09 0)
(-1.48619e-09 5.82582e-10 0)
(-1.72169e-09 -8.74416e-10 0)
(-1.09681e-09 -2.43923e-09 0)
(-7.34478e-10 -3.09007e-09 0)
(3.80208e-10 -5.07105e-09 0)
(1.53223e-09 -2.04724e-09 0)
(3.28093e-10 -1.14227e-10 0)
(-4.32957e-10 -2.37371e-10 0)
(-1.01027e-09 -3.08532e-10 0)
(-1.00209e-09 -1.40306e-09 0)
(-4.69376e-10 -2.48716e-09 0)
(-3.20135e-10 -3.59894e-09 0)
(-4.66944e-11 -3.56478e-09 0)
(-1.64754e-10 -3.12855e-09 0)
(5.56661e-10 -1.45599e-09 0)
(6.91943e-10 -1.59384e-11 0)
(9.16305e-11 1.05969e-09 0)
(-4.21451e-11 1.82768e-09 0)
(-2.18958e-10 2.19306e-09 0)
(-8.03215e-10 1.4688e-09 0)
(-1.07067e-09 7.41993e-10 0)
(-1.17727e-09 -7.38305e-10 0)
(-7.31576e-10 -2.5365e-09 0)
(-7.31105e-10 -3.37942e-09 0)
(2.95638e-10 -5.74475e-09 0)
(1.27659e-09 -2.43177e-09 0)
(2.83894e-10 7.55827e-11 0)
(-4.71e-10 -8.14993e-11 0)
(-1.39272e-09 -9.22211e-10 0)
(-1.54399e-09 -2.82655e-09 0)
(-9.53118e-10 -4.78745e-09 0)
(-2.67548e-10 -5.87712e-09 0)
(4.67717e-10 -5.81177e-09 0)
(1.01587e-09 -4.43454e-09 0)
(1.69887e-09 -2.15923e-09 0)
(1.43438e-09 -2.24702e-11 0)
(6.7057e-10 1.78986e-09 0)
(2.80721e-10 2.89722e-09 0)
(-4.77532e-10 3.11916e-09 0)
(-1.41478e-09 1.92725e-09 0)
(-1.67685e-09 7.98639e-10 0)
(-1.70422e-09 -1.5565e-09 0)
(-1.04195e-09 -4.01106e-09 0)
(-6.93376e-10 -5.01878e-09 0)
(6.98423e-10 -7.71957e-09 0)
(1.76979e-09 -2.80869e-09 0)
(1.70529e-10 2.71313e-10 0)
(-3.02839e-10 2.85721e-10 0)
(-8.55474e-10 -3.57871e-10 0)
(-7.0459e-10 -1.55202e-09 0)
(-4.0608e-10 -3.33477e-09 0)
(-2.04067e-10 -4.5826e-09 0)
(-1.95342e-10 -4.95134e-09 0)
(2.53297e-11 -3.98066e-09 0)
(4.74827e-10 -2.1661e-09 0)
(3.38747e-10 -3.83028e-10 0)
(3.95973e-10 1.34526e-09 0)
(4.57214e-10 2.30729e-09 0)
(4.13768e-11 2.55653e-09 0)
(-3.00226e-10 1.7205e-09 0)
(-2.78488e-10 9.12232e-10 0)
(-5.08602e-10 -1.2345e-09 0)
(-6.01757e-10 -3.80749e-09 0)
(-6.2988e-10 -4.7662e-09 0)
(-1.96045e-10 -7.67863e-09 0)
(4.37521e-10 -3.20722e-09 0)
(1.51072e-10 5.22541e-10 0)
(-1.85607e-10 6.13232e-10 0)
(-7.49141e-10 -4.42153e-10 0)
(-7.0472e-10 -2.04135e-09 0)
(-5.36595e-10 -4.13595e-09 0)
(-2.27874e-10 -5.54424e-09 0)
(-5.08565e-11 -5.75423e-09 0)
(4.84232e-10 -4.26372e-09 0)
(7.68626e-10 -1.98892e-09 0)
(7.11047e-10 4.57524e-10 0)
(6.74968e-10 2.50567e-09 0)
(2.2032e-10 3.28632e-09 0)
(-4.20809e-10 3.30061e-09 0)
(-6.52535e-10 2.06747e-09 0)
(-7.36008e-10 8.035e-10 0)
(-1.10238e-09 -1.97773e-09 0)
(-7.83424e-10 -4.84415e-09 0)
(-3.44836e-10 -5.907e-09 0)
(6.93529e-10 -9.00726e-09 0)
(1.08915e-09 -3.37973e-09 0)
(1.43179e-10 7.88883e-10 0)
(-1.4258e-10 7.5374e-10 0)
(-5.04373e-10 -3.5936e-10 0)
(-4.08752e-10 -1.95864e-09 0)
(-2.27258e-10 -3.82084e-09 0)
(-8.34535e-11 -5.22339e-09 0)
(1.77824e-11 -5.4014e-09 0)
(2.62539e-10 -4.1043e-09 0)
(3.25142e-10 -2.06424e-09 0)
(2.9689e-10 2.58047e-10 0)
(2.05305e-10 2.1007e-09 0)
(-6.84966e-11 2.90122e-09 0)
(-1.92559e-10 3.24442e-09 0)
(-8.11254e-11 2.22369e-09 0)
(-9.40781e-11 9.54967e-10 0)
(-3.31074e-10 -1.7305e-09 0)
(-2.45318e-10 -4.55509e-09 0)
(5.94212e-11 -5.66061e-09 0)
(2.03092e-10 -9.16772e-09 0)
(1.2173e-10 -3.73849e-09 0)
(6.66395e-11 9.81839e-10 0)
(-6.49914e-11 8.74571e-10 0)
(-1.77378e-10 -1.91299e-10 0)
(-1.14802e-10 -1.81961e-09 0)
(-4.69406e-11 -3.75374e-09 0)
(-3.7342e-11 -5.29269e-09 0)
(-2.91632e-11 -5.49216e-09 0)
(9.62728e-12 -4.1367e-09 0)
(8.66828e-11 -1.90492e-09 0)
(1.28247e-10 5.79458e-10 0)
(1.18053e-10 2.5021e-09 0)
(1.42209e-10 3.30316e-09 0)
(1.22874e-10 3.525e-09 0)
(-4.364e-11 2.23725e-09 0)
(-2.84692e-10 7.57528e-10 0)
(-4.62835e-10 -2.05489e-09 0)
(-2.8806e-10 -4.86369e-09 0)
(-1.2216e-10 -5.99479e-09 0)
(2.10646e-10 -9.59951e-09 0)
(3.00745e-10 -3.81935e-09 0)
(-3.47985e-11 9.75773e-10 0)
(4.37827e-11 9.13752e-10 0)
(1.69297e-10 -1.79501e-10 0)
(1.17914e-10 -1.76865e-09 0)
(8.46554e-11 -3.76819e-09 0)
(4.41251e-11 -5.2795e-09 0)
(7.56719e-11 -5.54182e-09 0)
(-2.67263e-11 -4.16004e-09 0)
(-9.42496e-11 -1.93454e-09 0)
(-1.31295e-10 5.10949e-10 0)
(-2.64273e-10 2.51124e-09 0)
(-1.96111e-10 3.33529e-09 0)
(1.41866e-11 3.4527e-09 0)
(3.43021e-11 2.14828e-09 0)
(8.44779e-11 7.98894e-10 0)
(3.82668e-10 -1.95741e-09 0)
(3.98469e-10 -4.85179e-09 0)
(2.26354e-10 -6.05329e-09 0)
(-2.64933e-10 -9.65875e-09 0)
(-4.41299e-10 -3.8419e-09 0)
(-1.12653e-10 8.25477e-10 0)
(1.76385e-10 7.79152e-10 0)
(5.26431e-10 -3.16356e-10 0)
(3.847e-10 -1.87902e-09 0)
(2.45969e-10 -3.84025e-09 0)
(6.0958e-11 -5.22291e-09 0)
(-8.106e-12 -5.45595e-09 0)
(-2.14885e-10 -4.19713e-09 0)
(-4.12845e-10 -2.07545e-09 0)
(-2.31577e-10 1.26943e-10 0)
(-1.965e-10 2.05695e-09 0)
(-1.07375e-10 3.02521e-09 0)
(1.79825e-10 3.20893e-09 0)
(2.60021e-10 2.04378e-09 0)
(1.70555e-10 9.55367e-10 0)
(2.28451e-10 -1.59372e-09 0)
(1.30951e-10 -4.53235e-09 0)
(-6.77945e-11 -5.74951e-09 0)
(-1.66435e-10 -9.26144e-09 0)
(-1.26596e-10 -3.77426e-09 0)
(-2.03462e-10 6.09026e-10 0)
(2.62078e-10 5.75922e-10 0)
(7.62933e-10 -3.67887e-10 0)
(7.19526e-10 -2.08279e-09 0)
(4.71289e-10 -4.11306e-09 0)
(2.7125e-10 -5.60342e-09 0)
(-4.61963e-11 -5.69583e-09 0)
(-3.63009e-10 -4.39008e-09 0)
(-8.39348e-10 -1.94518e-09 0)
(-7.68387e-10 4.52661e-10 0)
(-4.08987e-10 2.36168e-09 0)
(-2.39081e-10 3.36108e-09 0)
(1.55746e-10 3.43561e-09 0)
(7.06103e-10 1.99358e-09 0)
(9.80392e-10 6.86676e-10 0)
(1.09905e-09 -1.98399e-09 0)
(5.91656e-10 -4.81197e-09 0)
(2.73031e-10 -5.89355e-09 0)
(-5.92871e-10 -9.02375e-09 0)
(-9.89554e-10 -3.39513e-09 0)
(-2.59758e-10 3.15603e-10 0)
(3.21631e-10 2.75581e-10 0)
(8.43636e-10 -3.34527e-10 0)
(7.61813e-10 -1.69721e-09 0)
(3.27527e-10 -3.24288e-09 0)
(2.90549e-10 -4.66215e-09 0)
(8.73578e-11 -4.85484e-09 0)
(1.99164e-11 -4.04579e-09 0)
(-3.38963e-10 -2.20917e-09 0)
(-6.09409e-10 -1.97299e-10 0)
(-2.58391e-10 1.2877e-09 0)
(-1.67695e-10 2.20656e-09 0)
(-2.23654e-10 2.68522e-09 0)
(9.12721e-11 1.81893e-09 0)
(3.984e-10 8.22748e-10 0)
(6.54998e-10 -1.32434e-09 0)
(5.72116e-10 -3.75922e-09 0)
(5.68949e-10 -4.65855e-09 0)
(2.43843e-10 -7.62372e-09 0)
(-3.47532e-10 -3.20169e-09 0)
(-3.21795e-10 4.50877e-11 0)
(3.88767e-10 -2.24201e-11 0)
(1.36797e-09 -1.00939e-09 0)
(1.59911e-09 -2.88263e-09 0)
(9.42166e-10 -4.71679e-09 0)
(3.11082e-10 -5.98149e-09 0)
(-4.62388e-10 -5.77283e-09 0)
(-1.13579e-09 -4.42851e-09 0)
(-1.30136e-09 -2.39019e-09 0)
(-1.53259e-09 9.49216e-11 0)
(-8.77171e-10 1.92066e-09 0)
(3.82948e-12 2.77074e-09 0)
(5.63502e-10 3.11528e-09 0)
(1.16057e-09 2.07851e-09 0)
(1.60096e-09 8.31182e-10 0)
(1.8772e-09 -1.61509e-09 0)
(1.15704e-09 -3.97974e-09 0)
(6.52428e-10 -4.92607e-09 0)
(-7.4416e-10 -7.65796e-09 0)
(-1.73947e-09 -2.78926e-09 0)
(-2.69591e-10 -2.09595e-10 0)
(2.92891e-10 -1.69356e-10 0)
(9.96445e-10 -4.35258e-10 0)
(9.79038e-10 -1.23417e-09 0)
(5.31292e-10 -2.62468e-09 0)
(2.59368e-10 -3.54506e-09 0)
(1.68516e-10 -3.60532e-09 0)
(-2.1613e-10 -2.85536e-09 0)
(-2.03188e-10 -1.73276e-09 0)
(-3.6754e-10 -1.55395e-10 0)
(-3.59904e-10 1.2073e-09 0)
(1.10694e-10 1.78648e-09 0)
(4.6434e-10 2.08641e-09 0)
(6.88104e-10 1.54557e-09 0)
(8.89211e-10 8.45402e-10 0)
(1.2485e-09 -7.4075e-10 0)
(8.66022e-10 -2.55085e-09 0)
(7.15865e-10 -3.3562e-09 0)
(-3.74851e-10 -5.70563e-09 0)
(-1.29143e-09 -2.4134e-09 0)
(-1.42203e-10 -2.81951e-10 0)
(2.89762e-10 -2.63881e-10 0)
(1.4261e-09 -8.31636e-10 0)
(1.6236e-09 -2.00151e-09 0)
(1.17781e-09 -3.62276e-09 0)
(2.57623e-10 -3.98329e-09 0)
(-1.00891e-10 -4.44612e-09 0)
(-1.39734e-09 -3.03974e-09 0)
(-1.48875e-09 -2.08759e-09 0)
(-1.40479e-09 -5.14081e-10 0)
(-1.06471e-09 8.86702e-10 0)
(-2.34574e-10 1.51831e-09 0)
(5.62735e-10 1.75615e-09 0)
(1.08522e-09 1.26452e-09 0)
(1.33577e-09 6.58547e-10 0)
(1.66489e-09 -8.60299e-10 0)
(1.15786e-09 -2.49883e-09 0)
(7.42573e-10 -3.14109e-09 0)
(-4.43338e-10 -5.06929e-09 0)
(-1.56894e-09 -2.02863e-09 0)
(-4.42454e-10 -2.32961e-10 0)
(2.93411e-10 -3.19239e-10 0)
(1.22112e-09 -6.82704e-10 0)
(1.02798e-09 -1.6493e-09 0)
(9.25019e-10 -2.72349e-09 0)
(5.04992e-13 -2.80207e-09 0)
(5.65922e-10 -3.89017e-09 0)
(-9.76984e-10 -1.57375e-09 0)
(-1.5729e-09 -8.20834e-10 0)
(-7.59127e-10 2.02031e-11 0)
(-3.96389e-10 1.0806e-09 0)
(2.64521e-10 1.62658e-09 0)
(1.04268e-09 1.66596e-09 0)
(1.54158e-09 1.07675e-09 0)
(1.66658e-09 5.13726e-10 0)
(1.86254e-09 -7.53233e-10 0)
(9.45217e-10 -2.0226e-09 0)
(4.97166e-10 -2.60929e-09 0)
(-1.10785e-09 -4.01238e-09 0)
(-2.1878e-09 -1.38912e-09 0)
(-3.31922e-10 -1.53817e-10 0)
(1.10841e-10 -2.24432e-10 0)
(1.44916e-09 8.88057e-11 0)
(1.93423e-09 4.61616e-13 0)
(1.42283e-09 1.39594e-10 0)
(4.08394e-10 -8.88687e-10 0)
(-1.48105e-09 5.82001e-10 0)
(4.86783e-09 -1.57848e-09 0)
(-2.43318e-09 -8.56774e-11 0)
(-1.73159e-09 -1.90513e-11 0)
(-8.54089e-10 6.2213e-11 0)
(-2.8514e-10 2.22321e-10 0)
(4.0385e-10 2.44352e-10 0)
(1.13675e-09 1.85136e-10 0)
(1.52399e-09 2.34984e-10 0)
(1.86489e-09 1.52126e-10 0)
(1.19391e-09 -2.61788e-10 0)
(7.26823e-10 -4.82114e-10 0)
(-6.77538e-10 -1.27081e-09 0)
(-1.8704e-09 -8.29821e-10 0)
(-3.1687e-10 -2.11799e-11 0)
(1.87559e-10 -5.12765e-11 0)
(1.28447e-09 -4.57662e-10 0)
(1.69488e-09 -1.38529e-09 0)
(4.08226e-10 -1.763e-09 0)
(7.92229e-10 -2.84209e-09 0)
(6.587e-10 -3.19212e-10 0)
(-5.57104e-09 -2.91462e-09 0)
(1.05697e-10 -7.61382e-10 0)
(-1.13586e-09 3.32612e-10 0)
(-6.72532e-10 7.96289e-10 0)
(-1.94783e-10 9.61992e-10 0)
(4.01649e-10 8.06676e-10 0)
(1.20634e-09 3.27183e-10 0)
(1.62498e-09 -8.72162e-11 0)
(1.83518e-09 -8.28341e-10 0)
(9.46332e-10 -1.33126e-09 0)
(4.60769e-10 -1.48511e-09 0)
(-9.56607e-10 -1.78286e-09 0)
(-1.9867e-09 -2.94732e-10 0)
)
;

boundaryField
{
    sides
    {
        type            calculated;
        value           nonuniform List<vector> 
40
(
(-3.1687e-10 0 0)
(1.87559e-10 0 0)
(1.28447e-09 0 0)
(1.69488e-09 0 0)
(4.08226e-10 0 0)
(7.92229e-10 0 0)
(6.587e-10 0 0)
(-5.57104e-09 0 0)
(1.05697e-10 0 0)
(-1.13586e-09 0 0)
(-6.72532e-10 0 0)
(-1.94783e-10 0 0)
(4.01649e-10 0 0)
(1.20634e-09 0 0)
(1.62498e-09 0 0)
(1.83518e-09 0 0)
(9.46332e-10 0 0)
(4.60769e-10 0 0)
(-9.56607e-10 0 0)
(-1.9867e-09 0 0)
(1.43525e-10 0 0)
(-9.2842e-11 0 0)
(-1.31728e-09 0 0)
(-1.47221e-09 0 0)
(-7.46853e-10 0 0)
(8.26842e-10 0 0)
(-4.37873e-09 0 0)
(2.72106e-09 0 0)
(2.29058e-09 0 0)
(9.32256e-10 0 0)
(5.40872e-10 0 0)
(-9.89763e-13 0 0)
(-7.58745e-10 0 0)
(-1.19574e-09 0 0)
(-1.44554e-09 0 0)
(-1.81527e-09 0 0)
(-1.00034e-09 0 0)
(-4.47181e-10 0 0)
(9.91018e-10 0 0)
(1.99745e-09 0 0)
)
;
    }
    inlet
    {
        type            calculated;
        value           uniform (0 0 0);
    }
    outlet
    {
        type            calculated;
        value           nonuniform List<vector> 
20
(
(1.99745e-09 -2.95947e-10 0)
(1.8626e-09 -8.29712e-10 0)
(2.15398e-09 -1.39503e-09 0)
(1.53223e-09 -2.04724e-09 0)
(1.27659e-09 -2.43177e-09 0)
(1.76979e-09 -2.80869e-09 0)
(4.37521e-10 -3.20722e-09 0)
(1.08915e-09 -3.37973e-09 0)
(1.2173e-10 -3.73849e-09 0)
(3.00745e-10 -3.81935e-09 0)
(-4.41299e-10 -3.8419e-09 0)
(-1.26596e-10 -3.77426e-09 0)
(-9.89554e-10 -3.39513e-09 0)
(-3.47532e-10 -3.20169e-09 0)
(-1.73947e-09 -2.78926e-09 0)
(-1.29143e-09 -2.4134e-09 0)
(-1.56894e-09 -2.02863e-09 0)
(-2.1878e-09 -1.38912e-09 0)
(-1.8704e-09 -8.29821e-10 0)
(-1.9867e-09 -2.94732e-10 0)
)
;
    }
    frontAndBack
    {
        type            empty;
    }
}


// ************************************************************************* //
