/*--------------------------------*- C++ -*----------------------------------*\
  =========                 |
  \\      /  F ield         | OpenFOAM: The Open Source CFD Toolbox
   \\    /   O peration     | Website:  https://openfoam.org
    \\  /    A nd           | Version:  7
     \\/     M anipulation  |
\*---------------------------------------------------------------------------*/
FoamFile
{
    version     2.0;
    format      ascii;
    class       volScalarField;
    location    "43";
    object      ddt0(h);
}
// * * * * * * * * * * * * * * * * * * * * * * * * * * * * * * * * * * * * * //

dimensions      [0 1 -1 0 0 0 0];

internalField   nonuniform List<scalar> 
400
(
3.59155e-09
5.5519e-09
6.45791e-09
8.4807e-09
1.04666e-08
1.10707e-08
-3.24505e-08
4.00082e-08
1.42143e-08
8.27324e-09
8.96077e-09
8.26323e-09
7.04769e-09
6.84347e-09
6.34446e-09
5.29348e-09
4.35159e-09
3.34044e-09
2.02088e-09
6.87908e-10
4.6129e-09
6.48925e-09
7.22028e-09
9.00877e-09
4.26708e-09
1.0108e-08
4.5154e-08
-2.20407e-08
6.32686e-09
7.26716e-09
8.21033e-09
7.44415e-09
6.76574e-09
6.47831e-09
5.78077e-09
4.83863e-09
3.99848e-09
3.00336e-09
1.71034e-09
5.39534e-10
6.50296e-09
6.00377e-09
6.8781e-09
7.39653e-09
8.11625e-09
6.23691e-09
1.13712e-08
1.27546e-08
3.90374e-09
7.36365e-09
7.03142e-09
5.8833e-09
5.99803e-09
5.75477e-09
4.92745e-09
4.23245e-09
3.71202e-09
2.84065e-09
1.57544e-09
5.04979e-10
4.7879e-09
6.62222e-09
7.98892e-09
7.33332e-09
8.84971e-09
5.18838e-09
8.97341e-09
3.52934e-09
5.27502e-09
7.45776e-09
5.5593e-09
4.95818e-09
5.44869e-09
4.87636e-09
3.99843e-09
3.58191e-09
3.1292e-09
2.21191e-09
1.06078e-09
2.81045e-10
6.04997e-09
5.83262e-09
7.57221e-09
5.85608e-09
7.14231e-09
5.21632e-09
6.19054e-09
3.95463e-09
5.3651e-09
4.79698e-09
3.1821e-09
3.81333e-09
4.31401e-09
3.4179e-09
2.96021e-09
3.12865e-09
2.71089e-09
1.70109e-09
8.04556e-10
2.62425e-10
5.70367e-09
5.55993e-09
6.92124e-09
6.04785e-09
5.72932e-09
5.39723e-09
4.9917e-09
3.72016e-09
4.25636e-09
3.16687e-09
2.44782e-09
3.62927e-09
3.50485e-09
2.48141e-09
2.522e-09
2.90138e-09
2.23233e-09
1.16663e-09
5.99206e-10
2.49441e-10
4.79664e-09
5.22738e-09
5.34641e-09
5.49271e-09
4.24606e-09
4.14872e-09
3.20585e-09
2.50349e-09
2.7379e-09
1.39144e-09
2.04441e-09
2.81803e-09
2.04071e-09
1.70577e-09
2.29723e-09
2.47405e-09
1.76393e-09
1.1783e-09
1.0737e-09
5.54364e-10
3.66126e-09
4.5136e-09
3.88518e-09
4.47447e-09
3.32272e-09
3.27916e-09
1.89315e-09
2.10598e-09
1.45864e-09
9.17058e-10
1.78499e-09
1.40857e-09
8.23564e-10
1.6e-09
2.14054e-09
1.54799e-09
9.92836e-10
1.24267e-09
1.64004e-09
8.71713e-10
2.46686e-09
2.86409e-09
2.68884e-09
2.7425e-09
2.22196e-09
1.68701e-09
1.05422e-09
1.11496e-09
6.59442e-10
5.80423e-10
7.43525e-10
3.22782e-10
4.49936e-10
1.38913e-09
1.45372e-09
5.66126e-10
3.8922e-10
1.08611e-09
1.54847e-09
8.06356e-10
1.03588e-09
8.82032e-10
9.05901e-10
8.89335e-10
7.23455e-10
4.83657e-10
3.28829e-10
2.10908e-10
2.4313e-10
9.33913e-11
-6.47047e-11
-2.58472e-11
1.28673e-10
3.30244e-10
2.86296e-10
6.86499e-11
3.05818e-10
6.05741e-10
4.3004e-10
1.09111e-10
-7.45229e-10
-1.08866e-09
-9.33583e-10
-1.13361e-09
-7.60012e-10
-6.81269e-10
-3.42691e-10
-5.39514e-10
-3.15516e-10
-7.13128e-11
-4.27806e-10
-2.62046e-10
-7.64367e-11
-4.93176e-10
-7.08086e-10
-4.24927e-10
-7.22732e-11
-3.12087e-10
-9.48125e-10
-6.1709e-10
-2.58976e-09
-2.81261e-09
-2.52418e-09
-3.01877e-09
-2.04891e-09
-1.84696e-09
-1.04441e-09
-1.01389e-09
-1.08383e-09
-2.43264e-10
-7.16341e-10
-1.02177e-09
-6.45661e-10
-7.95462e-10
-1.0133e-09
-8.69642e-10
-8.1891e-10
-1.18412e-09
-1.57564e-09
-8.51577e-10
-4.10073e-09
-3.95273e-09
-4.27474e-09
-4.00548e-09
-3.57309e-09
-2.77893e-09
-2.38452e-09
-1.47225e-09
-1.83237e-09
-1.06338e-09
-7.28619e-10
-1.4865e-09
-1.69838e-09
-1.43946e-09
-1.34538e-09
-1.38383e-09
-1.4711e-09
-1.48785e-09
-1.23426e-09
-5.21569e-10
-5.04985e-09
-5.1552e-09
-5.59742e-09
-4.41377e-09
-4.9242e-09
-3.52561e-09
-3.74735e-09
-2.18787e-09
-2.23094e-09
-2.52442e-09
-1.45023e-09
-1.71425e-09
-2.45692e-09
-2.41012e-09
-2.11957e-09
-1.81366e-09
-1.53796e-09
-1.26912e-09
-7.41025e-10
-2.18095e-10
-5.5924e-09
-6.18938e-09
-6.42354e-09
-5.82013e-09
-6.214e-09
-4.83132e-09
-4.66929e-09
-4.0244e-09
-2.47765e-09
-3.70201e-09
-3.15933e-09
-2.51206e-09
-2.93997e-09
-3.21159e-09
-3.01566e-09
-2.33882e-09
-1.61059e-09
-1.11934e-09
-5.39296e-10
-1.13213e-10
-5.60187e-09
-6.56748e-09
-6.65738e-09
-7.23613e-09
-6.01233e-09
-5.64668e-09
-5.58556e-09
-5.20232e-09
-3.7053e-09
-3.74993e-09
-4.19337e-09
-3.4525e-09
-3.27362e-09
-3.60388e-09
-3.68019e-09
-3.15588e-09
-2.36406e-09
-1.61639e-09
-8.65639e-10
-2.75928e-10
-4.46233e-09
-6.72246e-09
-7.77292e-09
-9.24057e-09
-6.10864e-09
-9.27399e-09
-5.67213e-09
-8.46932e-09
-5.6897e-09
-5.5274e-09
-6.01554e-09
-5.36217e-09
-4.65646e-09
-4.51121e-09
-4.45303e-09
-4.08566e-09
-3.29772e-09
-2.16884e-09
-1.06931e-09
-3.25883e-10
-6.17014e-09
-5.57377e-09
-7.51944e-09
-8.85563e-09
-6.36859e-09
-1.08506e-08
-4.38845e-09
-1.32652e-08
-9.44002e-09
-6.67328e-09
-6.95503e-09
-6.46618e-09
-5.58081e-09
-5.15977e-09
-4.99222e-09
-4.71296e-09
-4.06264e-09
-2.86559e-09
-1.5616e-09
-5.39359e-10
-4.81376e-09
-5.9883e-09
-7.77001e-09
-7.71084e-09
-9.48255e-09
-1.70553e-09
-2.44698e-08
3.82786e-08
-1.07957e-08
-8.55765e-09
-7.66197e-09
-7.45276e-09
-6.95162e-09
-6.25607e-09
-5.53761e-09
-4.86547e-09
-4.1151e-09
-3.0348e-09
-1.77403e-09
-6.03705e-10
-4.12895e-09
-5.55211e-09
-6.45861e-09
-6.35745e-09
-9.66312e-09
-1.17436e-08
1.52733e-09
-5.00202e-08
-6.90953e-09
-9.21834e-09
-8.59493e-09
-8.76759e-09
-8.20441e-09
-6.94067e-09
-5.77718e-09
-4.90586e-09
-4.16082e-09
-3.25373e-09
-2.11014e-09
-7.86308e-10
)
;

boundaryField
{
    sides
    {
        type            calculated;
        value           nonuniform List<scalar> 
40
(
-4.12895e-09
-5.55211e-09
-6.45861e-09
-6.35745e-09
-9.66312e-09
-1.17436e-08
1.52733e-09
-5.00202e-08
-6.90953e-09
-9.21834e-09
-8.59493e-09
-8.76759e-09
-8.20441e-09
-6.94067e-09
-5.77718e-09
-4.90586e-09
-4.16082e-09
-3.25373e-09
-2.11014e-09
-7.86308e-10
3.59155e-09
5.5519e-09
6.45791e-09
8.4807e-09
1.04666e-08
1.10707e-08
-3.24505e-08
4.00082e-08
1.42143e-08
8.27324e-09
8.96077e-09
8.26323e-09
7.04769e-09
6.84347e-09
6.34446e-09
5.29348e-09
4.35159e-09
3.34044e-09
2.02088e-09
6.87908e-10
)
;
    }
    inlet
    {
        type            calculated;
        value           nonuniform List<scalar> 
20
(
3.59155e-09
4.6129e-09
6.50296e-09
4.7879e-09
6.04997e-09
5.70367e-09
4.79664e-09
3.66126e-09
2.46686e-09
1.03588e-09
-7.45229e-10
-2.58976e-09
-4.10073e-09
-5.04985e-09
-5.5924e-09
-5.60187e-09
-4.46233e-09
-6.17014e-09
-4.81376e-09
-4.12895e-09
)
;
    }
    outlet
    {
        type            calculated;
        value           uniform 0;
    }
    frontAndBack
    {
        type            empty;
    }
}


// ************************************************************************* //
