/*--------------------------------*- C++ -*----------------------------------*\
  =========                 |
  \\      /  F ield         | OpenFOAM: The Open Source CFD Toolbox
   \\    /   O peration     | Website:  https://openfoam.org
    \\  /    A nd           | Version:  7
     \\/     M anipulation  |
\*---------------------------------------------------------------------------*/
FoamFile
{
    version     2.0;
    format      ascii;
    class       surfaceScalarField;
    location    "43";
    object      ddtCorrDdt0(phi);
}
// * * * * * * * * * * * * * * * * * * * * * * * * * * * * * * * * * * * * * //

dimensions      [0 4 -2 0 0 0 0];

internalField   nonuniform List<scalar> 
760
(
-3.12576e-12
-1.14037e-12
-2.80554e-12
-6.45926e-13
-7.44036e-12
-2.25574e-12
-3.37849e-12
-2.80393e-12
-5.97278e-12
-3.68271e-11
1.49691e-12
-3.05402e-10
-1.47947e-11
-2.27586e-10
1.85027e-11
-6.65753e-11
6.84989e-12
-1.43988e-11
2.90665e-12
-9.69392e-13
2.14815e-12
1.13669e-12
-2.02722e-12
1.8138e-12
-5.081e-12
2.10517e-12
-6.55403e-12
1.64012e-12
-8.09145e-12
7.01241e-13
-7.32217e-12
-1.40635e-12
-3.44098e-12
-3.30399e-12
1.24423e-12
-4.00511e-12
7.7247e-12
-6.66409e-12
-2.64123e-12
-2.47157e-12
-2.84756e-12
-4.42423e-12
-1.10462e-12
-7.37803e-12
-3.06958e-12
-8.46762e-12
-4.52201e-12
-4.84247e-12
-1.11967e-11
-1.91088e-12
-6.94668e-12
1.35304e-11
7.49174e-12
-5.2074e-13
-5.62085e-12
4.30899e-12
-5.13154e-12
6.24795e-12
-1.21571e-12
4.06316e-12
3.51357e-12
-3.27777e-13
4.84833e-12
-3.80244e-12
5.48755e-12
-6.34885e-12
4.13263e-12
-8.55044e-12
2.18818e-12
-8.10465e-12
-1.94333e-12
-4.577e-12
-6.27998e-12
-2.52233e-13
-8.12323e-12
6.62004e-12
-1.39846e-11
-5.74069e-12
-3.34352e-13
-5.6699e-11
-5.60784e-12
-1.27331e-12
-3.46687e-12
-3.54674e-12
-6.72717e-12
-8.22942e-12
-5.49276e-13
-1.29957e-11
-4.10443e-12
-1.77723e-11
8.96615e-12
-1.63177e-11
5.13043e-13
-1.21586e-11
1.93167e-12
-1.03069e-11
4.54006e-12
-1.81565e-13
1.76932e-13
4.89439e-12
-3.25228e-12
6.84825e-12
-5.43386e-12
8.20484e-12
-7.87043e-12
5.83598e-12
-9.32511e-12
2.73453e-12
-7.36168e-12
-3.60755e-12
-3.27604e-12
-1.0102e-11
1.2636e-12
-1.30865e-11
8.39574e-12
-2.16745e-11
-8.44154e-12
-2.6173e-12
-7.27687e-13
-6.20603e-12
-1.08964e-12
-5.4562e-12
-2.65444e-12
-7.83657e-12
-9.79506e-12
-3.74e-12
-1.55194e-11
-1.29503e-12
-2.24218e-11
5.71582e-12
-2.03837e-11
2.16284e-12
-1.96652e-11
9.09187e-12
-8.1509e-12
7.72196e-12
7.19897e-13
2.31953e-12
6.20126e-12
-4.03664e-13
9.60634e-12
-3.21382e-12
1.13926e-11
-6.53589e-12
7.70885e-12
-8.04515e-12
3.57993e-12
-6.97801e-12
-4.30717e-12
-4.41332e-12
-1.30998e-11
-1.36684e-12
-1.69966e-11
4.87213e-12
-2.79669e-11
-1.13747e-11
-2.68566e-12
-1.45484e-13
-4.33737e-12
-1.06032e-12
-4.14457e-12
-3.0893e-12
-3.20805e-12
-1.05927e-11
-3.61852e-12
-1.77277e-11
1.04595e-13
-2.25328e-11
-5.67551e-13
-2.32942e-11
7.29445e-13
-1.80815e-11
3.8123e-12
-9.40995e-12
1.63041e-12
-1.02794e-12
-1.54422e-13
5.87595e-12
-1.80091e-13
1.07072e-11
-2.59143e-12
1.25304e-11
-5.12525e-12
8.06209e-12
-5.51573e-12
3.77914e-12
-4.60732e-12
-5.26226e-12
-3.58027e-12
-1.55773e-11
-1.59077e-12
-2.01666e-11
4.20582e-12
-3.30317e-11
-1.30548e-11
-3.41013e-12
1.08347e-12
-4.88075e-12
9.19432e-13
-7.1838e-12
-2.59509e-12
-5.2117e-12
-1.03582e-11
-4.45489e-12
-2.02084e-11
1.15051e-12
-2.61585e-11
3.71956e-12
-2.6697e-11
6.83123e-12
-2.09253e-11
8.32539e-12
-1.02448e-11
4.63906e-12
-4.29438e-13
2.51933e-12
8.49198e-12
1.07685e-13
1.38746e-11
-5.04539e-12
1.48008e-11
-8.1078e-12
9.25999e-12
-8.16805e-12
4.13199e-12
-6.79331e-12
-7.4499e-12
-4.31783e-12
-2.02055e-11
-6.07534e-13
-2.51147e-11
6.29594e-12
-3.88673e-11
-1.50549e-11
-2.75105e-12
2.00392e-12
-2.69968e-12
2.0854e-12
-3.81815e-12
-3.08589e-12
-2.28141e-12
-1.00353e-11
-2.52116e-12
-1.97989e-11
-4.56369e-13
-2.60953e-11
-7.37482e-13
-2.74964e-11
1.86905e-12
-2.10198e-11
1.97449e-12
-1.0751e-11
1.30924e-12
-2.27e-13
2.72873e-12
9.58938e-12
1.54182e-12
1.39588e-11
-1.15504e-12
1.43902e-11
-1.57362e-12
9.34929e-12
-1.6672e-12
4.47504e-12
-2.88913e-12
-7.73775e-12
-3.1445e-12
-2.14624e-11
-2.27266e-12
-2.64617e-11
7.44859e-13
-4.1473e-11
-1.63519e-11
-1.65869e-12
3.14122e-12
-2.61838e-12
3.39024e-12
-3.27164e-12
-2.01896e-12
-3.15715e-12
-9.69317e-12
-2.14901e-12
-1.93786e-11
-5.99458e-13
-2.65792e-11
1.01048e-12
-2.78753e-11
3.72614e-12
-2.10334e-11
3.24975e-12
-1.05142e-11
3.41617e-12
1.56948e-12
2.78489e-12
1.12358e-11
-6.27675e-13
1.50098e-11
-3.04292e-12
1.60857e-11
-3.2686e-12
1.07886e-11
-4.40357e-12
4.57365e-12
-5.0992e-12
-9.21016e-12
-2.80438e-12
-2.35689e-11
9.371e-13
-2.91271e-11
4.57382e-12
-4.56197e-11
-1.78858e-11
-7.0068e-13
4.61757e-12
-2.17994e-12
4.08746e-12
-1.77311e-12
-1.12606e-12
-1.68954e-12
-9.3646e-12
-8.05848e-13
-1.88496e-11
-3.95868e-13
-2.6397e-11
8.60068e-13
-2.71189e-11
1.7026e-12
-2.04467e-11
1.36334e-12
-9.47261e-12
1.33862e-12
2.70968e-12
5.09584e-13
1.19522e-11
-7.83909e-13
1.58294e-11
-7.06417e-13
1.71128e-11
-2.38961e-13
1.09439e-11
-1.08306e-12
3.64276e-12
-1.79377e-12
-1.00536e-11
-4.71836e-13
-2.37161e-11
9.00238e-13
-2.89307e-11
8.74641e-13
-4.65881e-11
-1.87069e-11
-2.42431e-13
5.13748e-12
-7.70321e-13
4.55998e-12
-6.07397e-13
-7.63183e-13
-3.43122e-13
-8.8562e-12
-3.41256e-13
-1.85191e-11
-2.16372e-13
-2.5928e-11
2.33642e-14
-2.69247e-11
3.19537e-13
-2.0235e-11
5.93111e-13
-9.51466e-12
5.90766e-13
2.45753e-12
5.50686e-13
1.21094e-11
7.21718e-13
1.62964e-11
3.25215e-13
1.75405e-11
-9.4421e-13
1.13862e-11
-1.97481e-12
4.37316e-12
-1.8712e-12
-9.61039e-12
-9.76391e-13
-2.39549e-11
4.10918e-13
-3.01163e-11
1.33471e-12
-4.85312e-11
-1.94086e-11
2.79536e-13
4.56182e-12
7.01043e-13
4.51182e-12
5.1113e-13
-1.01929e-12
5.84467e-13
-8.85622e-12
3.7872e-13
-1.89949e-11
3.28572e-13
-2.62767e-11
2.02387e-13
-2.76149e-11
-5.60168e-13
-2.0701e-11
-4.60685e-13
-9.76687e-12
-9.66311e-13
2.03935e-12
-1.43787e-12
1.20105e-11
-2.70948e-13
1.61476e-11
4.26853e-13
1.64353e-11
2.98876e-14
1.00641e-11
9.93544e-13
4.00233e-12
2.23919e-12
-9.14134e-12
1.535e-12
-2.36066e-11
-2.06662e-13
-2.94817e-11
-1.78151e-12
-4.71593e-11
-1.89402e-11
1.2171e-12
3.58589e-12
1.92008e-12
3.24603e-12
2.13094e-12
-1.70663e-12
1.31986e-12
-9.39176e-12
1.17367e-12
-1.94386e-11
-8.83994e-14
-2.67128e-11
-2.75775e-13
-2.79334e-11
-1.99878e-12
-2.17273e-11
-1.5681e-12
-1.03531e-11
-7.802e-13
9.61846e-13
-1.16285e-12
1.06988e-11
8.12368e-14
1.58648e-11
1.41671e-12
1.64363e-11
9.93025e-13
9.91863e-12
8.82364e-13
4.18939e-12
1.17722e-12
-8.82295e-12
1.04552e-13
-2.34718e-11
-7.04414e-13
-2.94227e-11
-7.29329e-13
-4.59718e-11
-1.80477e-11
1.67809e-12
2.43541e-12
2.8176e-12
1.8496e-12
3.6632e-12
-2.6224e-12
2.50676e-12
-1.07625e-11
2.53378e-12
-1.95432e-11
1.9665e-13
-2.6557e-11
-1.0137e-12
-2.68481e-11
-3.08323e-12
-2.1582e-11
-4.29504e-12
-1.05095e-11
-2.58967e-12
3.63477e-13
-1.68617e-12
8.72813e-12
-6.12642e-13
1.37805e-11
2.26118e-12
1.53166e-11
4.49129e-12
9.50451e-12
5.17589e-12
3.75358e-12
4.27667e-12
-8.17333e-12
2.02216e-12
-2.12739e-11
-7.35779e-13
-2.60628e-11
-4.01962e-12
-4.13067e-11
-1.63613e-11
2.01887e-12
1.07807e-12
3.53742e-12
1.07509e-12
3.19914e-12
-2.80128e-12
2.68284e-12
-1.11178e-11
2.13039e-12
-1.94755e-11
1.10836e-12
-2.64748e-11
-5.00113e-13
-2.64194e-11
-3.05324e-13
-2.10243e-11
-2.78082e-12
-1.10047e-11
-2.18314e-12
8.09429e-13
-7.7847e-13
8.86411e-12
-1.33073e-12
1.30751e-11
-4.89255e-13
1.50847e-11
1.5827e-12
1.00407e-11
2.70563e-12
3.99741e-12
2.97879e-12
-7.87188e-12
2.81523e-12
-1.99372e-11
2.24707e-12
-2.44972e-11
-3.97648e-13
-3.85046e-11
-1.49708e-11
2.69051e-12
-5.40479e-13
5.39272e-12
-6.46268e-13
5.95386e-12
-3.87811e-12
6.92491e-12
-1.01705e-11
3.08317e-12
-1.76231e-11
3.41929e-13
-2.34166e-11
-5.31403e-12
-2.30532e-11
-5.60954e-12
-1.78546e-11
-6.86473e-12
-1.10464e-11
-6.5265e-12
-1.24296e-12
-1.95651e-12
6.84537e-12
1.37353e-12
1.02955e-11
4.10829e-12
1.21721e-11
7.07174e-12
8.7414e-12
8.73766e-12
4.24603e-12
7.59581e-12
-5.34922e-12
4.45466e-12
-1.54601e-11
2.53959e-13
-1.98247e-11
-6.36752e-12
-3.27556e-11
-1.29468e-11
2.6644e-12
-1.34996e-12
3.73403e-12
-9.56088e-13
3.59769e-12
-3.1347e-12
4.81336e-12
-8.4063e-12
1.52755e-12
-1.72952e-11
2.07509e-12
-2.07336e-11
-1.23734e-12
-2.07101e-11
-1.3341e-12
-1.68322e-11
-6.00462e-13
-9.38382e-12
-2.2114e-12
-8.05119e-13
-8.0291e-13
6.52561e-12
1.64979e-12
9.65667e-12
2.8614e-12
1.07483e-11
3.94682e-12
7.77037e-12
5.34041e-12
4.10345e-12
5.38915e-12
-4.21595e-12
3.90297e-12
-1.32621e-11
1.14756e-12
-1.7053e-11
-4.4824e-12
-2.78534e-11
-1.12771e-11
3.57108e-12
-5.42843e-11
4.69869e-12
-1.59164e-12
6.85577e-12
-3.20574e-12
6.55476e-12
-7.73936e-12
3.93913e-12
-1.39971e-11
1.64135e-12
-1.28184e-11
-5.08215e-12
-1.93402e-11
-7.59536e-12
-5.83907e-12
-6.34291e-12
-6.89714e-12
-6.32423e-12
-1.46549e-12
-3.71547e-12
4.34235e-12
9.63277e-13
6.9664e-12
4.27413e-12
7.63485e-12
6.00767e-12
5.37332e-12
7.37371e-12
2.91768e-12
7.235e-12
-3.52697e-12
4.70113e-12
-1.04412e-11
1.05859e-12
-1.34502e-11
-5.17501e-12
-2.17248e-11
-8.37388e-12
2.15564e-12
-1.92735e-12
3.85914e-12
-1.68564e-12
6.08993e-12
-1.9226e-12
2.929e-12
-5.75285e-12
5.6455e-12
-8.55917e-12
-2.0864e-12
-1.44985e-11
2.9228e-12
-1.6437e-11
-1.02831e-11
-1.52031e-11
-4.17451e-12
-5.24012e-13
-2.69858e-12
4.54487e-14
-7.7635e-13
3.06896e-12
3.31279e-12
5.10486e-12
6.72495e-12
5.47413e-12
8.11599e-12
3.60929e-12
8.63385e-12
1.98051e-12
7.14233e-12
-1.95249e-12
3.48309e-12
-6.59611e-12
-1.29091e-12
-8.60741e-12
-8.58946e-12
-1.41654e-11
-5.7236e-12
1.97091e-12
-4.39107e-13
4.76846e-12
-8.5113e-13
7.50268e-12
-1.28352e-12
6.76562e-12
-3.64369e-12
1.04521e-11
-1.40404e-11
-1.24859e-11
2.22039e-10
1.88613e-11
3.16015e-10
3.43828e-13
-2.36723e-10
-9.76507e-12
-2.20012e-11
-5.79897e-12
5.01084e-13
-3.04955e-12
1.82339e-12
2.10448e-14
2.68501e-12
4.01149e-12
2.47162e-12
6.83302e-12
1.24762e-12
8.33641e-12
3.66074e-13
7.74395e-12
-1.43895e-12
4.6447e-12
-3.43125e-12
4.80492e-13
-4.32016e-12
-6.59473e-12
-6.83713e-12
-2.65208e-12
1.77398e-12
5.14335e-12
5.09416e-12
7.28906e-12
-1.79565e-12
1.52665e-11
-2.62274e-11
-5.35901e-12
-4.61248e-12
-4.24107e-12
-2.27411e-12
3.6367e-14
4.13273e-12
7.46756e-12
8.60923e-12
6.99983e-12
3.28978e-12
-9.72014e-13
-7.56769e-12
)
;

boundaryField
{
    sides
    {
        type            calculated;
        value           uniform 0;
    }
    inlet
    {
        type            calculated;
        value           uniform 0;
    }
    outlet
    {
        type            calculated;
        value           nonuniform List<scalar> 
20
(
1.00273e-11
9.34718e-12
1.08277e-11
8.02763e-12
6.76285e-12
9.45122e-12
2.47191e-12
5.35756e-12
3.9561e-13
1.10947e-12
-2.13678e-12
-5.94777e-13
-4.86831e-12
-1.88719e-12
-9.09087e-12
-6.63898e-12
-8.0755e-12
-1.09599e-11
-9.46985e-12
-1.0122e-11
)
;
    }
    frontAndBack
    {
        type            empty;
        value           nonuniform 0();
    }
}


// ************************************************************************* //
