/*--------------------------------*- C++ -*----------------------------------*\
  =========                 |
  \\      /  F ield         | OpenFOAM: The Open Source CFD Toolbox
   \\    /   O peration     | Website:  https://openfoam.org
    \\  /    A nd           | Version:  7
     \\/     M anipulation  |
\*---------------------------------------------------------------------------*/
FoamFile
{
    version     2.0;
    format      ascii;
    class       volVectorField;
    location    "43";
    object      hU_0;
}
// * * * * * * * * * * * * * * * * * * * * * * * * * * * * * * * * * * * * * //

dimensions      [0 2 -1 0 0 0 0];

internalField   nonuniform List<vector> 
400
(
(0.001 -8.85508e-09 0)
(0.000999999 -2.42656e-08 0)
(0.001 -3.6859e-08 0)
(0.001 -4.7574e-08 0)
(0.00100001 -5.74007e-08 0)
(0.00100001 -6.73688e-08 0)
(0.00100002 -7.72041e-08 0)
(0.00100003 -8.80349e-08 0)
(0.00100004 -9.87316e-08 0)
(0.00100006 -1.10899e-07 0)
(0.00100007 -1.22174e-07 0)
(0.00100009 -1.36316e-07 0)
(0.00100011 -1.47331e-07 0)
(0.00100015 -1.64582e-07 0)
(0.00100017 -1.73535e-07 0)
(0.00100024 -1.97577e-07 0)
(0.00100026 -2.01293e-07 0)
(0.00100038 -2.43099e-07 0)
(0.00100038 -2.3805e-07 0)
(0.00100061 -3.3036e-07 0)
(0.001 3.94855e-09 0)
(0.001 1.20429e-08 0)
(0.00100001 2.00444e-08 0)
(0.00100001 2.7439e-08 0)
(0.00100002 3.4361e-08 0)
(0.00100003 4.07258e-08 0)
(0.00100003 4.70678e-08 0)
(0.00100004 5.24108e-08 0)
(0.00100005 5.77961e-08 0)
(0.00100007 6.18697e-08 0)
(0.00100008 6.65874e-08 0)
(0.0010001 6.8185e-08 0)
(0.00100012 7.21996e-08 0)
(0.00100015 6.91884e-08 0)
(0.00100018 7.32395e-08 0)
(0.00100023 6.06711e-08 0)
(0.00100026 6.63282e-08 0)
(0.00100035 3.1037e-08 0)
(0.00100037 3.96173e-08 0)
(0.0010005 -5.39872e-08 0)
(0.001 -4.24923e-09 0)
(0.000999999 -1.39581e-08 0)
(0.001 -2.46367e-08 0)
(0.001 -3.55487e-08 0)
(0.00100001 -4.57555e-08 0)
(0.00100001 -5.58031e-08 0)
(0.00100002 -6.55489e-08 0)
(0.00100003 -7.64532e-08 0)
(0.00100004 -8.75904e-08 0)
(0.00100005 -1.0137e-07 0)
(0.00100006 -1.14789e-07 0)
(0.00100008 -1.32816e-07 0)
(0.0010001 -1.47918e-07 0)
(0.00100013 -1.72259e-07 0)
(0.00100016 -1.87706e-07 0)
(0.00100021 -2.23914e-07 0)
(0.00100023 -2.37259e-07 0)
(0.00100031 -2.98496e-07 0)
(0.00100033 -3.04864e-07 0)
(0.00100046 -4.19333e-07 0)
(0.001 -6.23868e-10 0)
(0.001 -1.55367e-09 0)
(0.00100001 -1.87992e-09 0)
(0.00100001 -1.60292e-09 0)
(0.00100002 -5.8996e-10 0)
(0.00100002 2.41874e-10 0)
(0.00100003 1.01487e-09 0)
(0.00100004 2.54012e-10 0)
(0.00100004 -1.14581e-09 0)
(0.00100006 -5.90608e-09 0)
(0.00100007 -1.08168e-08 0)
(0.00100009 -2.10852e-08 0)
(0.0010001 -2.89799e-08 0)
(0.00100013 -4.71155e-08 0)
(0.00100015 -5.68224e-08 0)
(0.00100019 -8.86041e-08 0)
(0.00100022 -9.76859e-08 0)
(0.00100028 -1.56076e-07 0)
(0.0010003 -1.59698e-07 0)
(0.00100039 -2.72479e-07 0)
(0.001 -3.36416e-09 0)
(0.001 -1.05626e-08 0)
(0.001 -1.84853e-08 0)
(0.001 -2.71273e-08 0)
(0.00100001 -3.57644e-08 0)
(0.00100001 -4.46643e-08 0)
(0.00100002 -5.36265e-08 0)
(0.00100002 -6.41865e-08 0)
(0.00100003 -7.55068e-08 0)
(0.00100004 -9.02738e-08 0)
(0.00100005 -1.05326e-07 0)
(0.00100007 -1.26117e-07 0)
(0.00100008 -1.44702e-07 0)
(0.00100011 -1.74007e-07 0)
(0.00100013 -1.94763e-07 0)
(0.00100016 -2.38322e-07 0)
(0.00100018 -2.58319e-07 0)
(0.00100024 -3.28256e-07 0)
(0.00100025 -3.40294e-07 0)
(0.00100033 -4.60647e-07 0)
(0.001 -3.31284e-09 0)
(0.001 -9.8068e-09 0)
(0.001 -1.57505e-08 0)
(0.00100001 -2.09555e-08 0)
(0.00100001 -2.50994e-08 0)
(0.00100001 -2.90484e-08 0)
(0.00100002 -3.30581e-08 0)
(0.00100002 -3.9052e-08 0)
(0.00100003 -4.63922e-08 0)
(0.00100004 -5.78214e-08 0)
(0.00100005 -7.01978e-08 0)
(0.00100006 -8.88533e-08 0)
(0.00100008 -1.05786e-07 0)
(0.0010001 -1.33681e-07 0)
(0.00100011 -1.53235e-07 0)
(0.00100014 -1.95649e-07 0)
(0.00100016 -2.14136e-07 0)
(0.0010002 -2.82411e-07 0)
(0.00100021 -2.92218e-07 0)
(0.00100027 -4.09665e-07 0)
(0.001 -3.70112e-09 0)
(0.001 -1.12313e-08 0)
(0.001 -1.87625e-08 0)
(0.001 -2.64944e-08 0)
(0.00100001 -3.40158e-08 0)
(0.00100001 -4.18222e-08 0)
(0.00100001 -4.9852e-08 0)
(0.00100002 -5.99628e-08 0)
(0.00100002 -7.14817e-08 0)
(0.00100003 -8.71614e-08 0)
(0.00100004 -1.03871e-07 0)
(0.00100005 -1.27102e-07 0)
(0.00100006 -1.48737e-07 0)
(0.00100007 -1.81804e-07 0)
(0.00100009 -2.06508e-07 0)
(0.00100011 -2.54587e-07 0)
(0.00100012 -2.78131e-07 0)
(0.00100015 -3.51848e-07 0)
(0.00100016 -3.65588e-07 0)
(0.00100021 -4.87154e-07 0)
(0.001 -4.07232e-09 0)
(0.001 -1.24531e-08 0)
(0.001 -2.06303e-08 0)
(0.001 -2.86285e-08 0)
(0.001 -3.59143e-08 0)
(0.00100001 -4.31045e-08 0)
(0.00100001 -5.03332e-08 0)
(0.00100001 -5.97211e-08 0)
(0.00100002 -7.07611e-08 0)
(0.00100002 -8.6273e-08 0)
(0.00100003 -1.03191e-07 0)
(0.00100004 -1.26769e-07 0)
(0.00100004 -1.48895e-07 0)
(0.00100005 -1.82283e-07 0)
(0.00100006 -2.07325e-07 0)
(0.00100008 -2.55435e-07 0)
(0.00100009 -2.78875e-07 0)
(0.00100011 -3.52025e-07 0)
(0.00100012 -3.65019e-07 0)
(0.00100015 -4.84639e-07 0)
(0.001 -4.31746e-09 0)
(0.001 -1.31583e-08 0)
(0.001 -2.1605e-08 0)
(0.001 -2.98239e-08 0)
(0.001 -3.74431e-08 0)
(0.001 -4.51578e-08 0)
(0.00100001 -5.30658e-08 0)
(0.00100001 -6.32658e-08 0)
(0.00100001 -7.51792e-08 0)
(0.00100001 -9.16636e-08 0)
(0.00100002 -1.09638e-07 0)
(0.00100002 -1.34491e-07 0)
(0.00100003 -1.58077e-07 0)
(0.00100003 -1.93325e-07 0)
(0.00100004 -2.20219e-07 0)
(0.00100005 -2.70538e-07 0)
(0.00100005 -2.95741e-07 0)
(0.00100007 -3.71001e-07 0)
(0.00100007 -3.85118e-07 0)
(0.00100009 -5.06524e-07 0)
(0.001 -4.43413e-09 0)
(0.001 -1.34979e-08 0)
(0.001 -2.21387e-08 0)
(0.001 -3.05877e-08 0)
(0.001 -3.84562e-08 0)
(0.001 -4.63641e-08 0)
(0.001 -5.44175e-08 0)
(0.001 -6.47956e-08 0)
(0.001 -7.70236e-08 0)
(0.001 -9.3966e-08 0)
(0.00100001 -1.12517e-07 0)
(0.00100001 -1.3794e-07 0)
(0.00100001 -1.62093e-07 0)
(0.00100001 -1.97754e-07 0)
(0.00100001 -2.25018e-07 0)
(0.00100002 -2.75504e-07 0)
(0.00100002 -3.00891e-07 0)
(0.00100002 -3.76102e-07 0)
(0.00100002 -3.90263e-07 0)
(0.00100003 -5.11073e-07 0)
(0.001 -4.43778e-09 0)
(0.001 -1.34968e-08 0)
(0.001 -2.21368e-08 0)
(0.000999999 -3.05848e-08 0)
(0.000999999 -3.84527e-08 0)
(0.000999999 -4.63602e-08 0)
(0.000999998 -5.44143e-08 0)
(0.000999997 -6.47898e-08 0)
(0.000999996 -7.70217e-08 0)
(0.000999995 -9.39609e-08 0)
(0.000999994 -1.12509e-07 0)
(0.000999993 -1.37936e-07 0)
(0.000999991 -1.6209e-07 0)
(0.000999989 -1.97745e-07 0)
(0.000999987 -2.25008e-07 0)
(0.000999984 -2.75498e-07 0)
(0.000999982 -3.00891e-07 0)
(0.000999978 -3.76099e-07 0)
(0.000999976 -3.90254e-07 0)
(0.00099997 -5.11065e-07 0)
(0.001 -4.32361e-09 0)
(0.001 -1.31556e-08 0)
(0.000999999 -2.16038e-08 0)
(0.000999998 -2.98147e-08 0)
(0.000999997 -3.74384e-08 0)
(0.000999996 -4.51472e-08 0)
(0.000999994 -5.30605e-08 0)
(0.000999992 -6.32525e-08 0)
(0.000999989 -7.51716e-08 0)
(0.000999986 -9.16553e-08 0)
(0.000999983 -1.09617e-07 0)
(0.000999978 -1.34474e-07 0)
(0.000999974 -1.58069e-07 0)
(0.000999967 -1.93308e-07 0)
(0.000999962 -2.20196e-07 0)
(0.000999952 -2.70507e-07 0)
(0.000999947 -2.9572e-07 0)
(0.000999934 -3.70962e-07 0)
(0.00099993 -3.85072e-07 0)
(0.000999911 -5.06458e-07 0)
(0.001 -4.07328e-09 0)
(0.001 -1.24543e-08 0)
(0.000999999 -2.06291e-08 0)
(0.000999997 -2.86184e-08 0)
(0.000999995 -3.59139e-08 0)
(0.000999993 -4.30957e-08 0)
(0.00099999 -5.03293e-08 0)
(0.000999987 -5.97137e-08 0)
(0.000999983 -7.07494e-08 0)
(0.000999978 -8.62747e-08 0)
(0.000999972 -1.03182e-07 0)
(0.000999965 -1.26749e-07 0)
(0.000999957 -1.48891e-07 0)
(0.000999946 -1.82289e-07 0)
(0.000999936 -2.07329e-07 0)
(0.000999921 -2.55422e-07 0)
(0.00099991 -2.78867e-07 0)
(0.000999889 -3.52011e-07 0)
(0.000999881 -3.65009e-07 0)
(0.000999852 -4.84623e-07 0)
(0.001 -3.6954e-09 0)
(0.001 -1.12364e-08 0)
(0.000999998 -1.87579e-08 0)
(0.000999996 -2.64968e-08 0)
(0.000999994 -3.40148e-08 0)
(0.000999991 -4.18183e-08 0)
(0.000999987 -4.98406e-08 0)
(0.000999982 -5.9959e-08 0)
(0.000999977 -7.14595e-08 0)
(0.00099997 -8.71488e-08 0)
(0.000999962 -1.03866e-07 0)
(0.000999952 -1.2707e-07 0)
(0.000999942 -1.48703e-07 0)
(0.000999926 -1.81777e-07 0)
(0.000999914 -2.0649e-07 0)
(0.000999892 -2.54533e-07 0)
(0.000999878 -2.78075e-07 0)
(0.000999847 -3.51757e-07 0)
(0.000999839 -3.65511e-07 0)
(0.000999792 -4.87018e-07 0)
(0.001 -3.30306e-09 0)
(0.001 -9.80854e-09 0)
(0.000999998 -1.57515e-08 0)
(0.000999994 -2.09784e-08 0)
(0.000999991 -2.50998e-08 0)
(0.000999986 -2.90643e-08 0)
(0.000999981 -3.30585e-08 0)
(0.000999975 -3.90735e-08 0)
(0.000999969 -4.63978e-08 0)
(0.00099996 -5.78167e-08 0)
(0.000999951 -7.02175e-08 0)
(0.000999937 -8.88645e-08 0)
(0.000999924 -1.05785e-07 0)
(0.000999905 -1.33683e-07 0)
(0.000999887 -1.53257e-07 0)
(0.000999859 -1.95661e-07 0)
(0.00099984 -2.14148e-07 0)
(0.000999801 -2.82405e-07 0)
(0.000999787 -2.9222e-07 0)
(0.000999732 -4.09653e-07 0)
(0.001 -3.35979e-09 0)
(0.001 -1.05569e-08 0)
(0.000999999 -1.8491e-08 0)
(0.000999997 -2.71417e-08 0)
(0.000999994 -3.57526e-08 0)
(0.000999989 -4.46864e-08 0)
(0.000999984 -5.36113e-08 0)
(0.000999977 -6.42044e-08 0)
(0.000999969 -7.55283e-08 0)
(0.000999959 -9.02587e-08 0)
(0.000999947 -1.05323e-07 0)
(0.000999931 -1.26116e-07 0)
(0.000999916 -1.44689e-07 0)
(0.000999892 -1.7397e-07 0)
(0.000999873 -1.94745e-07 0)
(0.000999837 -2.38284e-07 0)
(0.000999817 -2.58299e-07 0)
(0.000999764 -3.28173e-07 0)
(0.000999752 -3.40232e-07 0)
(0.000999671 -4.60497e-07 0)
(0.001 -6.24285e-10 0)
(0.000999998 -1.5479e-09 0)
(0.000999995 -1.90004e-09 0)
(0.00099999 -1.61995e-09 0)
(0.000999985 -6.02694e-10 0)
(0.000999979 2.15957e-10 0)
(0.000999973 1.01894e-09 0)
(0.000999964 2.39218e-10 0)
(0.000999956 -1.22198e-09 0)
(0.000999944 -5.94277e-09 0)
(0.000999932 -1.08358e-08 0)
(0.000999914 -2.11054e-08 0)
(0.000999896 -2.89963e-08 0)
(0.000999869 -4.71082e-08 0)
(0.000999846 -5.68206e-08 0)
(0.000999806 -8.85923e-08 0)
(0.000999779 -9.7685e-08 0)
(0.00099972 -1.56044e-07 0)
(0.000999698 -1.59668e-07 0)
(0.000999612 -2.7242e-07 0)
(0.001 -4.25099e-09 0)
(0.001 -1.39502e-08 0)
(0.001 -2.46325e-08 0)
(0.000999998 -3.55302e-08 0)
(0.000999994 -4.57841e-08 0)
(0.000999989 -5.57698e-08 0)
(0.000999982 -6.55167e-08 0)
(0.000999973 -7.63689e-08 0)
(0.000999964 -8.76058e-08 0)
(0.000999951 -1.01387e-07 0)
(0.000999937 -1.14785e-07 0)
(0.000999917 -1.32812e-07 0)
(0.000999898 -1.47937e-07 0)
(0.000999866 -1.72255e-07 0)
(0.000999842 -1.87712e-07 0)
(0.000999792 -2.23891e-07 0)
(0.000999766 -2.37273e-07 0)
(0.000999687 -2.98461e-07 0)
(0.000999671 -3.04869e-07 0)
(0.00099954 -4.19261e-07 0)
(0.001 3.93544e-09 0)
(0.000999996 1.20371e-08 0)
(0.000999992 2.00629e-08 0)
(0.000999986 2.7483e-08 0)
(0.000999981 3.43602e-08 0)
(0.000999975 4.07694e-08 0)
(0.000999968 4.69494e-08 0)
(0.000999958 5.24e-08 0)
(0.000999949 5.79091e-08 0)
(0.000999935 6.18961e-08 0)
(0.000999921 6.66018e-08 0)
(0.0009999 6.81901e-08 0)
(0.00099988 7.21836e-08 0)
(0.000999847 6.92011e-08 0)
(0.000999821 7.32616e-08 0)
(0.000999768 6.07287e-08 0)
(0.000999738 6.63664e-08 0)
(0.000999654 3.11189e-08 0)
(0.000999628 3.9674e-08 0)
(0.000999496 -5.38648e-08 0)
(0.001 -8.86409e-09 0)
(0.001 -2.42747e-08 0)
(0.001 -3.68587e-08 0)
(0.000999997 -4.75648e-08 0)
(0.000999992 -5.73995e-08 0)
(0.000999985 -6.73816e-08 0)
(0.000999978 -7.73806e-08 0)
(0.000999968 -8.81563e-08 0)
(0.000999958 -9.86866e-08 0)
(0.000999943 -1.10922e-07 0)
(0.00099993 -1.22219e-07 0)
(0.000999905 -1.3637e-07 0)
(0.000999888 -1.47395e-07 0)
(0.000999848 -1.64634e-07 0)
(0.000999828 -1.73586e-07 0)
(0.00099976 -1.97623e-07 0)
(0.000999742 -2.01349e-07 0)
(0.000999623 -2.43165e-07 0)
(0.000999617 -2.38122e-07 0)
(0.000999395 -3.30486e-07 0)
)
;

boundaryField
{
    sides
    {
        type            slip;
    }
    inlet
    {
        type            fixedValue;
        value           uniform (0.001 0 0);
    }
    outlet
    {
        type            zeroGradient;
    }
    frontAndBack
    {
        type            empty;
    }
}


// ************************************************************************* //
