/*--------------------------------*- C++ -*----------------------------------*\
  =========                 |
  \\      /  F ield         | OpenFOAM: The Open Source CFD Toolbox
   \\    /   O peration     | Website:  https://openfoam.org
    \\  /    A nd           | Version:  7
     \\/     M anipulation  |
\*---------------------------------------------------------------------------*/
FoamFile
{
    version     2.0;
    format      ascii;
    class       volVectorField;
    location    "43";
    object      U;
}
// * * * * * * * * * * * * * * * * * * * * * * * * * * * * * * * * * * * * * //

dimensions      [0 1 -1 0 0 0 0];

internalField   nonuniform List<vector> 
400
(
(0.0999932 -8.866e-07 0)
(0.0999931 -2.42706e-06 0)
(0.0999932 -3.69139e-06 0)
(0.0999936 -4.76949e-06 0)
(0.0999941 -5.75949e-06 0)
(0.0999948 -6.75445e-06 0)
(0.0999956 -7.76091e-06 0)
(0.0999967 -8.81309e-06 0)
(0.0999978 -9.8775e-06 0)
(0.0999995 -1.10904e-05 0)
(0.100001 -1.22109e-05 0)
(0.100004 -1.36222e-05 0)
(0.100006 -1.47238e-05 0)
(0.10001 -1.64525e-05 0)
(0.100012 -1.73523e-05 0)
(0.10002 -1.97643e-05 0)
(0.100022 -2.01414e-05 0)
(0.100035 -2.43234e-05 0)
(0.100036 -2.38224e-05 0)
(0.10006 -3.30394e-05 0)
(0.0999944 3.91123e-07 0)
(0.0999948 1.20235e-06 0)
(0.0999953 2.00277e-06 0)
(0.0999959 2.74652e-06 0)
(0.0999965 3.4342e-06 0)
(0.0999971 4.07426e-06 0)
(0.0999979 4.68813e-06 0)
(0.0999989 5.24335e-06 0)
(0.1 5.77964e-06 0)
(0.100002 6.18277e-06 0)
(0.100003 6.65824e-06 0)
(0.100005 6.81934e-06 0)
(0.100008 7.22232e-06 0)
(0.100011 6.92234e-06 0)
(0.100014 7.32748e-06 0)
(0.10002 6.06913e-06 0)
(0.100024 6.63091e-06 0)
(0.100033 3.1002e-06 0)
(0.100036 3.94993e-06 0)
(0.10005 -5.40716e-06 0)
(0.0999949 -4.27921e-07 0)
(0.0999947 -1.39813e-06 0)
(0.0999948 -2.47049e-06 0)
(0.0999951 -3.56896e-06 0)
(0.0999955 -4.60141e-06 0)
(0.0999961 -5.61038e-06 0)
(0.0999968 -6.57606e-06 0)
(0.0999978 -7.66552e-06 0)
(0.0999988 -8.7715e-06 0)
(0.1 -1.01357e-05 0)
(0.100002 -1.14657e-05 0)
(0.100004 -1.32642e-05 0)
(0.100006 -1.47732e-05 0)
(0.10001 -1.72121e-05 0)
(0.100012 -1.87629e-05 0)
(0.100018 -2.23964e-05 0)
(0.100021 -2.37435e-05 0)
(0.100029 -2.98729e-05 0)
(0.100032 -3.05257e-05 0)
(0.100046 -4.19484e-05 0)
(0.0999957 -6.39433e-08 0)
(0.0999958 -1.57699e-07 0)
(0.0999962 -1.94976e-07 0)
(0.0999967 -1.80296e-07 0)
(0.0999973 -9.11071e-08 0)
(0.0999979 -1.84915e-08 0)
(0.0999987 6.26518e-08 0)
(0.0999996 -9.94359e-09 0)
(0.100001 -1.3743e-07 0)
(0.100002 -5.93522e-07 0)
(0.100003 -1.07149e-06 0)
(0.100005 -2.09223e-06 0)
(0.100007 -2.87809e-06 0)
(0.10001 -4.6967e-06 0)
(0.100013 -5.67418e-06 0)
(0.100017 -8.86674e-06 0)
(0.10002 -9.79116e-06 0)
(0.100027 -1.56366e-05 0)
(0.100029 -1.60199e-05 0)
(0.100039 -2.72699e-05 0)
(0.0999963 -3.37292e-07 0)
(0.0999963 -1.0577e-06 0)
(0.0999964 -1.8507e-06 0)
(0.0999967 -2.72434e-06 0)
(0.099997 -3.59882e-06 0)
(0.0999975 -4.50087e-06 0)
(0.099998 -5.39673e-06 0)
(0.0999988 -6.44923e-06 0)
(0.0999997 -7.56641e-06 0)
(0.100001 -9.02703e-06 0)
(0.100002 -1.05208e-05 0)
(0.100004 -1.25928e-05 0)
(0.100006 -1.4447e-05 0)
(0.100008 -1.73838e-05 0)
(0.10001 -1.94665e-05 0)
(0.100014 -2.38371e-05 0)
(0.100017 -2.58551e-05 0)
(0.100022 -3.2857e-05 0)
(0.100024 -3.40861e-05 0)
(0.100033 -4.60908e-05 0)
(0.099997 -3.29979e-07 0)
(0.099997 -9.80397e-07 0)
(0.0999972 -1.58197e-06 0)
(0.0999976 -2.12113e-06 0)
(0.099998 -2.5545e-06 0)
(0.0999985 -2.96217e-06 0)
(0.0999991 -3.36287e-06 0)
(0.0999997 -3.95032e-06 0)
(0.1 -4.66202e-06 0)
(0.100001 -5.78254e-06 0)
(0.100002 -7.00217e-06 0)
(0.100004 -8.85643e-06 0)
(0.100005 -1.05459e-05 0)
(0.100008 -1.33464e-05 0)
(0.10001 -1.5313e-05 0)
(0.100013 -1.95774e-05 0)
(0.100015 -2.14511e-05 0)
(0.100019 -2.82888e-05 0)
(0.100021 -2.92993e-05 0)
(0.100027 -4.09976e-05 0)
(0.0999977 -3.66676e-07 0)
(0.0999977 -1.11929e-06 0)
(0.0999979 -1.87731e-06 0)
(0.0999981 -2.66253e-06 0)
(0.0999983 -3.43171e-06 0)
(0.0999987 -4.2259e-06 0)
(0.0999991 -5.03312e-06 0)
(0.0999996 -6.0362e-06 0)
(0.1 -7.17032e-06 0)
(0.100001 -8.72012e-06 0)
(0.100002 -1.03743e-05 0)
(0.100003 -1.26868e-05 0)
(0.100004 -1.48463e-05 0)
(0.100006 -1.81612e-05 0)
(0.100007 -2.06397e-05 0)
(0.10001 -2.54677e-05 0)
(0.100011 -2.78481e-05 0)
(0.100015 -3.52301e-05 0)
(0.100016 -3.66359e-05 0)
(0.100021 -4.87505e-05 0)
(0.0999984 -4.01363e-07 0)
(0.0999984 -1.23766e-06 0)
(0.0999985 -2.06448e-06 0)
(0.0999986 -2.87998e-06 0)
(0.0999988 -3.62956e-06 0)
(0.0999991 -4.36369e-06 0)
(0.0999994 -5.08994e-06 0)
(0.0999998 -6.01582e-06 0)
(0.1 -7.09733e-06 0)
(0.100001 -8.62435e-06 0)
(0.100001 -1.0295e-05 0)
(0.100002 -1.26433e-05 0)
(0.100003 -1.48546e-05 0)
(0.100004 -1.82057e-05 0)
(0.100005 -2.0722e-05 0)
(0.100007 -2.55592e-05 0)
(0.100008 -2.79326e-05 0)
(0.100011 -3.5259e-05 0)
(0.100012 -3.65924e-05 0)
(0.100015 -4.85012e-05 0)
(0.099999 -4.23432e-07 0)
(0.099999 -1.30604e-06 0)
(0.0999991 -2.16108e-06 0)
(0.0999992 -2.99834e-06 0)
(0.0999993 -3.77935e-06 0)
(0.0999995 -4.56565e-06 0)
(0.0999997 -5.36013e-06 0)
(0.0999999 -6.36853e-06 0)
(0.1 -7.54012e-06 0)
(0.100001 -9.16567e-06 0)
(0.100001 -1.09435e-05 0)
(0.100001 -1.34197e-05 0)
(0.100002 -1.57743e-05 0)
(0.100003 -1.93084e-05 0)
(0.100003 -2.20094e-05 0)
(0.100004 -2.70671e-05 0)
(0.100005 -2.96168e-05 0)
(0.100006 -3.7154e-05 0)
(0.100007 -3.86029e-05 0)
(0.100009 -5.06927e-05 0)
(0.0999997 -4.33244e-07 0)
(0.0999997 -1.33849e-06 0)
(0.0999997 -2.21264e-06 0)
(0.0999997 -3.0732e-06 0)
(0.0999998 -3.87985e-06 0)
(0.0999998 -4.6871e-06 0)
(0.0999999 -5.49652e-06 0)
(0.1 -6.52217e-06 0)
(0.1 -7.72344e-06 0)
(0.1 -9.393e-06 0)
(0.1 -1.12278e-05 0)
(0.1 -1.37611e-05 0)
(0.100001 -1.61734e-05 0)
(0.100001 -1.97509e-05 0)
(0.100001 -2.24909e-05 0)
(0.100001 -2.75671e-05 0)
(0.100002 -3.01352e-05 0)
(0.100002 -3.76673e-05 0)
(0.100002 -3.91211e-05 0)
(0.100003 -5.11482e-05 0)
(0.1 -4.33459e-07 0)
(0.1 -1.33819e-06 0)
(0.1 -2.21238e-06 0)
(0.1 -3.07257e-06 0)
(0.1 -3.87965e-06 0)
(0.1 -4.68672e-06 0)
(0.1 -5.4966e-06 0)
(0.1 -6.52205e-06 0)
(0.0999999 -7.72345e-06 0)
(0.0999998 -9.39317e-06 0)
(0.0999997 -1.12272e-05 0)
(0.0999995 -1.37604e-05 0)
(0.0999994 -1.61735e-05 0)
(0.0999991 -1.9751e-05 0)
(0.0999989 -2.24901e-05 0)
(0.0999986 -2.75659e-05 0)
(0.0999983 -3.01348e-05 0)
(0.0999979 -3.76673e-05 0)
(0.0999977 -3.91209e-05 0)
(0.0999971 -5.11478e-05 0)
(0.100001 -4.23457e-07 0)
(0.100001 -1.30579e-06 0)
(0.100001 -2.1605e-06 0)
(0.100001 -2.99715e-06 0)
(0.100001 -3.77897e-06 0)
(0.100001 -4.56499e-06 0)
(0.1 -5.35998e-06 0)
(0.1 -6.36844e-06 0)
(0.0999998 -7.53968e-06 0)
(0.0999995 -9.1659e-06 0)
(0.0999991 -1.09426e-05 0)
(0.0999986 -1.34175e-05 0)
(0.0999981 -1.57737e-05 0)
(0.0999973 -1.93084e-05 0)
(0.0999967 -2.2008e-05 0)
(0.0999957 -2.70635e-05 0)
(0.099995 -2.96144e-05 0)
(0.0999936 -3.71508e-05 0)
(0.0999932 -3.85995e-05 0)
(0.0999912 -5.06868e-05 0)
(0.100002 -4.0076e-07 0)
(0.100002 -1.23792e-06 0)
(0.100002 -2.06379e-06 0)
(0.100001 -2.87979e-06 0)
(0.100001 -3.62926e-06 0)
(0.100001 -4.36363e-06 0)
(0.100001 -5.08925e-06 0)
(0.1 -6.01624e-06 0)
(0.0999997 -7.09662e-06 0)
(0.0999992 -8.62434e-06 0)
(0.0999986 -1.02956e-05 0)
(0.0999977 -1.26418e-05 0)
(0.0999969 -1.48536e-05 0)
(0.0999957 -1.82066e-05 0)
(0.0999946 -2.07236e-05 0)
(0.0999929 -2.55588e-05 0)
(0.0999917 -2.79322e-05 0)
(0.0999894 -3.52578e-05 0)
(0.0999884 -3.65919e-05 0)
(0.0999853 -4.85e-05 0)
(0.100002 -3.6599e-07 0)
(0.100002 -1.11945e-06 0)
(0.100002 -1.87711e-06 0)
(0.100002 -2.66381e-06 0)
(0.100002 -3.43119e-06 0)
(0.100001 -4.22623e-06 0)
(0.100001 -5.03188e-06 0)
(0.1 -6.03619e-06 0)
(0.0999998 -7.16957e-06 0)
(0.099999 -8.71795e-06 0)
(0.0999981 -1.03738e-05 0)
(0.099997 -1.26851e-05 0)
(0.0999958 -1.48431e-05 0)
(0.0999941 -1.8158e-05 0)
(0.0999927 -2.06386e-05 0)
(0.0999903 -2.54637e-05 0)
(0.0999888 -2.78432e-05 0)
(0.0999854 -3.52207e-05 0)
(0.0999843 -3.66278e-05 0)
(0.0999794 -4.87368e-05 0)
(0.100003 -3.2953e-07 0)
(0.100003 -9.79998e-07 0)
(0.100003 -1.58315e-06 0)
(0.100002 -2.12314e-06 0)
(0.100002 -2.5549e-06 0)
(0.100001 -2.96417e-06 0)
(0.100001 -3.36334e-06 0)
(0.1 -3.95192e-06 0)
(0.0999995 -4.66483e-06 0)
(0.0999986 -5.78258e-06 0)
(0.0999975 -7.00301e-06 0)
(0.099996 -8.85847e-06 0)
(0.0999946 -1.05468e-05 0)
(0.0999924 -1.33462e-05 0)
(0.0999905 -1.53151e-05 0)
(0.0999874 -1.95792e-05 0)
(0.0999852 -2.14525e-05 0)
(0.099981 -2.8288e-05 0)
(0.0999792 -2.9299e-05 0)
(0.0999733 -4.09962e-05 0)
(0.100004 -3.37698e-07 0)
(0.100004 -1.05707e-06 0)
(0.100004 -1.85214e-06 0)
(0.100003 -2.72411e-06 0)
(0.100003 -3.59976e-06 0)
(0.100003 -4.50142e-06 0)
(0.100002 -5.39689e-06 0)
(0.100001 -6.44799e-06 0)
(0.1 -7.56962e-06 0)
(0.0999991 -9.02804e-06 0)
(0.0999978 -1.05204e-05 0)
(0.0999961 -1.25931e-05 0)
(0.0999944 -1.44474e-05 0)
(0.0999917 -1.73808e-05 0)
(0.0999896 -1.94649e-05 0)
(0.0999857 -2.38338e-05 0)
(0.0999833 -2.58536e-05 0)
(0.0999776 -3.28492e-05 0)
(0.0999759 -3.408e-05 0)
(0.0999673 -4.60757e-05 0)
(0.100004 -6.51915e-08 0)
(0.100004 -1.57608e-07 0)
(0.100004 -1.96915e-07 0)
(0.100003 -1.801e-07 0)
(0.100003 -9.40559e-08 0)
(0.100002 -1.6258e-08 0)
(0.100001 5.85477e-08 0)
(0.1 -6.72015e-09 0)
(0.0999994 -1.4133e-07 0)
(0.0999982 -5.99001e-07 0)
(0.0999968 -1.07443e-06 0)
(0.0999948 -2.09439e-06 0)
(0.0999928 -2.88078e-06 0)
(0.0999899 -4.69691e-06 0)
(0.0999873 -5.67405e-06 0)
(0.0999829 -8.86569e-06 0)
(0.0999798 -9.79161e-06 0)
(0.0999734 -1.56341e-05 0)
(0.0999706 -1.60172e-05 0)
(0.0999614 -2.7264e-05 0)
(0.100005 -4.27525e-07 0)
(0.100005 -1.39822e-06 0)
(0.100005 -2.46949e-06 0)
(0.100005 -3.56899e-06 0)
(0.100005 -4.6032e-06 0)
(0.100004 -5.60328e-06 0)
(0.100003 -6.58395e-06 0)
(0.100002 -7.66444e-06 0)
(0.100001 -8.76977e-06 0)
(0.0999997 -1.01383e-05 0)
(0.0999982 -1.14681e-05 0)
(0.0999959 -1.32649e-05 0)
(0.0999938 -1.47762e-05 0)
(0.0999903 -1.72138e-05 0)
(0.0999876 -1.87652e-05 0)
(0.0999821 -2.23955e-05 0)
(0.0999791 -2.37466e-05 0)
(0.0999706 -2.98713e-05 0)
(0.0999683 -3.05272e-05 0)
(0.0999545 -4.19416e-05 0)
(0.100006 3.91857e-07 0)
(0.100005 1.20159e-06 0)
(0.100005 2.00653e-06 0)
(0.100004 2.74799e-06 0)
(0.100004 3.43798e-06 0)
(0.100003 4.06535e-06 0)
(0.100002 4.69739e-06 0)
(0.100001 5.2357e-06 0)
(0.1 5.78887e-06 0)
(0.0999984 6.19036e-06 0)
(0.0999969 6.66179e-06 0)
(0.0999945 6.82233e-06 0)
(0.0999923 7.22239e-06 0)
(0.0999887 6.92337e-06 0)
(0.0999857 7.32935e-06 0)
(0.09998 6.07497e-06 0)
(0.0999764 6.6346e-06 0)
(0.0999674 3.1078e-06 0)
(0.0999641 3.95534e-06 0)
(0.09995 -5.39497e-06 0)
(0.100007 -8.86992e-07 0)
(0.100007 -2.42818e-06 0)
(0.100007 -3.69078e-06 0)
(0.100006 -4.77021e-06 0)
(0.100006 -5.75851e-06 0)
(0.100005 -6.77187e-06 0)
(0.100004 -7.75191e-06 0)
(0.100003 -8.82507e-06 0)
(0.100002 -9.8778e-06 0)
(0.100001 -1.10905e-05 0)
(0.099999 -1.22147e-05 0)
(0.0999963 -1.36277e-05 0)
(0.0999943 -1.47313e-05 0)
(0.09999 -1.64601e-05 0)
(0.0999876 -1.73595e-05 0)
(0.0999804 -1.97707e-05 0)
(0.0999779 -2.01486e-05 0)
(0.0999653 -2.43317e-05 0)
(0.0999637 -2.38307e-05 0)
(0.0999403 -3.30526e-05 0)
)
;

boundaryField
{
    sides
    {
        type            calculated;
        value           nonuniform List<vector> 
40
(
(0.100007 0 0)
(0.100007 0 0)
(0.100007 0 0)
(0.100006 0 0)
(0.100006 0 0)
(0.100005 0 0)
(0.100004 0 0)
(0.100003 0 0)
(0.100002 0 0)
(0.100001 0 0)
(0.099999 0 0)
(0.0999963 0 0)
(0.0999943 0 0)
(0.09999 0 0)
(0.0999876 0 0)
(0.0999804 0 0)
(0.0999779 0 0)
(0.0999653 0 0)
(0.0999637 0 0)
(0.0999403 0 0)
(0.0999932 0 0)
(0.0999931 0 0)
(0.0999932 0 0)
(0.0999936 0 0)
(0.0999941 0 0)
(0.0999948 0 0)
(0.0999956 0 0)
(0.0999967 0 0)
(0.0999978 0 0)
(0.0999995 0 0)
(0.100001 0 0)
(0.100004 0 0)
(0.100006 0 0)
(0.10001 0 0)
(0.100012 0 0)
(0.10002 0 0)
(0.100022 0 0)
(0.100035 0 0)
(0.100036 0 0)
(0.10006 0 0)
)
;
    }
    inlet
    {
        type            calculated;
        value           nonuniform List<vector> 
20
(
(0.0999932 0 0)
(0.0999944 0 0)
(0.0999949 0 0)
(0.0999957 0 0)
(0.0999963 0 0)
(0.099997 0 0)
(0.0999977 0 0)
(0.0999983 0 0)
(0.099999 0 0)
(0.0999997 0 0)
(0.1 0 0)
(0.100001 0 0)
(0.100002 0 0)
(0.100002 0 0)
(0.100003 0 0)
(0.100004 0 0)
(0.100004 0 0)
(0.100005 0 0)
(0.100006 0 0)
(0.100007 0 0)
)
;
    }
    outlet
    {
        type            calculated;
        value           nonuniform List<vector> 
20
(
(0.100061 -3.30397e-05 0)
(0.10005 -5.40718e-06 0)
(0.100046 -4.19486e-05 0)
(0.100039 -2.72699e-05 0)
(0.100033 -4.60909e-05 0)
(0.100027 -4.09976e-05 0)
(0.100021 -4.87505e-05 0)
(0.100015 -4.85013e-05 0)
(0.100009 -5.06928e-05 0)
(0.100003 -5.11482e-05 0)
(0.099997 -5.11478e-05 0)
(0.0999911 -5.06868e-05 0)
(0.0999852 -4.85e-05 0)
(0.0999792 -4.87367e-05 0)
(0.0999732 -4.09961e-05 0)
(0.099967 -4.60756e-05 0)
(0.0999612 -2.72639e-05 0)
(0.099954 -4.19414e-05 0)
(0.0999496 -5.39495e-06 0)
(0.0999395 -3.30523e-05 0)
)
;
    }
    frontAndBack
    {
        type            empty;
    }
}


// ************************************************************************* //
