/*--------------------------------*- C++ -*----------------------------------*\
  =========                 |
  \\      /  F ield         | OpenFOAM: The Open Source CFD Toolbox
   \\    /   O peration     | Website:  https://openfoam.org
    \\  /    A nd           | Version:  7
     \\/     M anipulation  |
\*---------------------------------------------------------------------------*/
FoamFile
{
    version     2.0;
    format      ascii;
    class       volScalarField;
    location    "200";
    object      epsilon;
}
// * * * * * * * * * * * * * * * * * * * * * * * * * * * * * * * * * * * * * //

dimensions      [0 2 -3 0 0 0 0];

internalField   nonuniform List<scalar> 
96800
(
0.000247094
0.000247074
0.000246642
0.000246177
0.000245717
0.000245325
0.000245043
0.000244826
0.000244641
0.000244467
0.00024432
0.000244242
0.000244294
0.000244469
0.000244812
0.000245316
0.000246013
0.000246888
0.000247926
0.000249101
0.000250436
0.000252285
0.000247718
0.000248407
0.000248032
0.000247526
0.000246985
0.000246532
0.000246196
0.000245946
0.000245745
0.000245568
0.000245428
0.000245359
0.000245394
0.000245572
0.0002459
0.000246403
0.000247092
0.000247959
0.000248984
0.000250113
0.000251259
0.000252202
0.000248348
0.000249175
0.000248787
0.000248131
0.000247409
0.000246784
0.000246313
0.000245981
0.000245741
0.000245559
0.000245432
0.000245381
0.000245425
0.000245594
0.000245909
0.000246387
0.000247041
0.000247877
0.000248868
0.000249911
0.000250812
0.000251222
0.000249153
0.000249969
0.000249456
0.000248582
0.000247614
0.000246762
0.000246125
0.000245692
0.000245411
0.00024523
0.00024513
0.000245109
0.000245171
0.000245337
0.000245629
0.000246067
0.000246677
0.000247475
0.000248438
0.000249434
0.000250228
0.00025048
0.000249885
0.000250647
0.000249963
0.000248847
0.00024762
0.000246544
0.000245746
0.000245223
0.000244912
0.000244749
0.000244687
0.000244701
0.00024479
0.000244961
0.00024523
0.000245626
0.000246189
0.000246955
0.000247907
0.000248906
0.000249693
0.000249923
0.000250465
0.000251165
0.000250309
0.000248967
0.000247506
0.000246241
0.000245317
0.00024473
0.000244412
0.000244282
0.000244267
0.000244326
0.000244448
0.00024463
0.000244883
0.000245241
0.000245765
0.000246509
0.000247473
0.000248514
0.000249355
0.000249616
0.000250915
0.000251554
0.000250544
0.000249007
0.000247361
0.000245951
0.000244938
0.000244321
0.00024402
0.000243938
0.000243971
0.000244078
0.000244239
0.000244435
0.000244673
0.000245001
0.000245496
0.000246239
0.000247242
0.000248358
0.000249283
0.000249605
0.000251304
0.000251889
0.000250745
0.000249049
0.000247259
0.000245741
0.000244671
0.000244049
0.000243783
0.000243751
0.000243837
0.000243994
0.000244184
0.000244386
0.000244606
0.000244904
0.000245384
0.00024615
0.000247216
0.000248425
0.000249448
0.000249842
0.000251707
0.000252245
0.00025099
0.00024916
0.000247251
0.000245654
0.00024455
0.000243935
0.000243706
0.000243721
0.000243855
0.00024405
0.000244255
0.000244444
0.000244631
0.000244896
0.000245367
0.000246166
0.000247313
0.00024864
0.000249779
0.000250248
0.000252183
0.000252683
0.000251334
0.000249391
0.000247379
0.000245716
0.000244586
0.000243978
0.000243777
0.000243824
0.000243989
0.000244202
0.000244402
0.000244559
0.0002447
0.000244921
0.000245379
0.000246215
0.000247457
0.000248919
0.00025019
0.000250742
0.000252767
0.000253236
0.000251807
0.000249765
0.000247665
0.000245945
0.00024479
0.000244178
0.000243983
0.000244035
0.000244199
0.0002444
0.000244573
0.000244688
0.000244776
0.000244951
0.000245397
0.000246274
0.000247615
0.000249216
0.000250628
0.000251274
0.00025348
0.000253924
0.000252423
0.000250293
0.000248116
0.00024634
0.000245151
0.000244515
0.000244298
0.000244325
0.00024445
0.000244606
0.000244732
0.000244799
0.000244837
0.000244983
0.000245433
0.000246365
0.000247813
0.000249555
0.00025111
0.000251855
0.000254349
0.000254766
0.000253195
0.000250982
0.000248725
0.000246881
0.000245636
0.000244951
0.000244682
0.000244656
0.00024472
0.000244809
0.000244876
0.00024489
0.000244898
0.000245043
0.000245528
0.000246542
0.000248117
0.000250012
0.000251711
0.000252557
0.000255398
0.000255788
0.000254142
0.000251834
0.000249479
0.000247542
0.000246213
0.000245447
0.000245094
0.000244991
0.000244989
0.00024501
0.000245019
0.000244996
0.000245003
0.000245181
0.000245741
0.000246874
0.000248603
0.000250664
0.000252516
0.000253463
0.000256651
0.000257008
0.000255275
0.000252849
0.000250365
0.000248303
0.00024686
0.000245986
0.000245527
0.000245327
0.000245257
0.00024523
0.000245206
0.00024518
0.000245211
0.00024545
0.000246125
0.00024741
0.000249317
0.000251564
0.000253583
0.000254639
0.000258129
0.000258446
0.000256605
0.000254033
0.000251384
0.000249164
0.000247582
0.000246588
0.000246026
0.000245732
0.000245596
0.000245544
0.000245515
0.000245508
0.00024558
0.000245904
0.000246706
0.000248157
0.00025026
0.000252717
0.000254924
0.000256096
0.000259874
0.000260142
0.000258173
0.000255425
0.00025258
0.000250176
0.000248439
0.000247327
0.000246679
0.000246317
0.000246131
0.000246059
0.000246037
0.000246046
0.000246162
0.000246568
0.000247488
0.000249096
0.000251399
0.000254081
0.000256493
0.000257797
0.00026201
0.00026222
0.000260103
0.000257152
0.000254082
0.000251468
0.000249564
0.000248339
0.000247616
0.000247203
0.000246973
0.000246877
0.000246858
0.000246875
0.000247015
0.000247471
0.000248473
0.000250205
0.000252689
0.00025559
0.000258222
0.000259684
0.000264819
0.000264959
0.000262668
0.000259475
0.000256132
0.000253266
0.000251166
0.000249809
0.000249004
0.000248534
0.000248249
0.000248099
0.000248053
0.000248062
0.000248194
0.00024865
0.000249678
0.000251485
0.000254106
0.000257203
0.000260061
0.000261707
0.000268794
0.000268841
0.000266319
0.000262803
0.000259101
0.000255897
0.000253525
0.000251969
0.000251027
0.000250459
0.000250084
0.000249832
0.000249701
0.000249673
0.000249758
0.000250156
0.000251147
0.000252973
0.000255686
0.000258944
0.000262008
0.000263832
0.000274617
0.000274527
0.000271666
0.000267688
0.00026347
0.00025977
0.000256974
0.000255085
0.000253899
0.000253152
0.000252632
0.000252234
0.000251938
0.000251777
0.000251781
0.000252069
0.000252967
0.000254763
0.000257525
0.00026091
0.00026414
0.000266098
0.000283107
0.000282818
0.000279467
0.000274814
0.000269834
0.000265386
0.000261928
0.000259496
0.000257892
0.000256834
0.000256076
0.000255465
0.00025495
0.00025456
0.000254386
0.000254538
0.000255291
0.000257007
0.000259787
0.000263268
0.00026662
0.00026867
0.000295255
0.000294692
0.000290654
0.000285045
0.000278964
0.000273411
0.000268954
0.000265684
0.000263404
0.00026183
0.000260684
0.000259756
0.000258948
0.000258278
0.000257836
0.000257795
0.000258356
0.000259937
0.000262684
0.000266226
0.000269684
0.000271833
0.000312497
0.000311544
0.000306555
0.000299622
0.000291969
0.000284803
0.000278866
0.000274328
0.000271019
0.000268644
0.000266893
0.000265483
0.000264262
0.000263221
0.000262439
0.000262115
0.000262453
0.00026384
0.000266491
0.000270053
0.00027362
0.0002759
0.000337325
0.00033582
0.000329507
0.000320669
0.000310705
0.000301133
0.000292965
0.000286512
0.000281645
0.000278055
0.000275373
0.000273224
0.000271389
0.000269815
0.000268569
0.000267843
0.000267915
0.000269033
0.000271533
0.000275085
0.000278761
0.000281198
0.000374727
0.000372362
0.000364076
0.000352298
0.000338726
0.000325362
0.000313649
0.000304147
0.000296803
0.000291283
0.00028711
0.000283795
0.000281015
0.000278651
0.000276732
0.000275444
0.00027509
0.000275872
0.00027815
0.000281664
0.00028546
0.000288085
0.000435042
0.000431111
0.000419546
0.000402914
0.000383338
0.000363566
0.000345763
0.000330964
0.000319309
0.000310435
0.000303706
0.000298441
0.00029414
0.000290551
0.000287621
0.000285498
0.000284476
0.000284805
0.000286756
0.000290184
0.000294091
0.000296934
0.00053809
0.000531171
0.000513875
0.000488955
0.000459046
0.000427993
0.000399142
0.00037447
0.000354652
0.000339432
0.00032796
0.000319197
0.000312304
0.00030673
0.000302228
0.000298827
0.000296763
0.000296403
0.000297864
0.000301106
0.000305105
0.000308227
0.000717454
0.000705205
0.000678172
0.000639402
0.000592091
0.000541582
0.000492914
0.000449717
0.000413987
0.000386134
0.000365238
0.000349725
0.000338074
0.000329082
0.000322025
0.000316627
0.000312966
0.00031143
0.00031217
0.000315064
0.000319138
0.000322623
0.0010219
0.00100095
0.000958154
0.000897282
0.000822432
0.000740922
0.000659722
0.000584421
0.000519233
0.000466534
0.000426404
0.000397094
0.000376035
0.000360702
0.000349235
0.000340596
0.00033446
0.000331059
0.000330678
0.000332948
0.000337045
0.000340991
0.00151796
0.00148335
0.00141543
0.00132
0.00120317
0.00107535
0.000945677
0.000821207
0.000707958
0.000610986
0.000533505
0.000475833
0.000435198
0.000407148
0.000387466
0.000373283
0.000363202
0.000356947
0.000354695
0.000355993
0.000360004
0.000364576
0.00230283
0.0022465
0.00213832
0.00198892
0.00180819
0.00161151
0.00141129
0.00121613
0.00103284
0.000867649
0.000726704
0.000615186
0.000534233
0.000479373
0.000443108
0.000418715
0.000402034
0.000391308
0.000386096
0.000385916
0.000389662
0.00039509
0.00352738
0.00343626
0.00326427
0.00303142
0.00275336
0.00245294
0.00214766
0.00184892
0.00156482
0.00130178
0.00106632
0.000866509
0.000710449
0.000600351
0.000528917
0.000483993
0.000455373
0.000437327
0.000427535
0.000425001
0.000428274
0.000434805
0.00542863
0.00528304
0.00501273
0.00465289
0.00422766
0.0037704
0.00330626
0.00285109
0.0024158
0.00200835
0.00163556
0.00130523
0.00102813
0.000816026
0.000671898
0.000583296
0.000530893
0.000499887
0.000482732
0.000476414
0.000478838
0.000486778
0.00838389
0.00815531
0.0077379
0.00718784
0.00654171
0.00584791
0.00514219
0.0044468
0.00377766
0.0031471
0.00256505
0.00204022
0.00158238
0.00120578
0.000926554
0.000746772
0.000643701
0.000587219
0.000557223
0.000544654
0.000545553
0.000555265
0.0130056
0.0126526
0.0120204
0.0111898
0.0102148
0.00916473
0.00808955
0.00702072
0.00598289
0.00499729
0.00408192
0.00325134
0.00251676
0.00188979
0.00138889
0.00103587
0.00082522
0.000714584
0.000659803
0.000636379
0.00063447
0.000646358
0.0202838
0.0197487
0.0188142
0.0175805
0.0161218
0.0145362
0.0128918
0.0112348
0.00960629
0.00804466
0.00658399
0.00525277
0.00407133
0.00305196
0.00220672
0.00156098
0.00113901
0.000911917
0.000805481
0.000761583
0.000754318
0.000768703
0.0318185
0.0310316
0.0297023
0.0279139
0.025757
0.0233665
0.0208377
0.0182424
0.0156532
0.0131412
0.0107716
0.00860048
0.00666989
0.00500379
0.00361016
0.00249951
0.00170468
0.00123976
0.0010222
0.000936774
0.000918341
0.000934962
0.0501466
0.049045
0.0472676
0.0447725
0.0416394
0.0380504
0.0341437
0.0300408
0.0258741
0.0217766
0.0178733
0.0142741
0.0110647
0.00829838
0.00599049
0.00413196
0.00272629
0.00181628
0.0013633
0.00118947
0.00114726
0.00116405
0.0792672
0.0778387
0.0757041
0.0724318
0.0680107
0.0626728
0.0566264
0.0500921
0.0433205
0.0365605
0.0300505
0.0240058
0.0185962
0.013931
0.0100515
0.00693786
0.00453893
0.00286
0.00193372
0.00156742
0.00147261
0.00148552
0.125353
0.123748
0.121727
0.117881
0.111916
0.104092
0.0947318
0.084265
0.0731837
0.0619522
0.0510178
0.0407926
0.031601
0.0236552
0.0170495
0.0117701
0.00770591
0.0047487
0.00293679
0.00215806
0.00194491
0.0019454
0.197838
0.196593
0.195979
0.192408
0.184851
0.173546
0.159036
0.142212
0.124034
0.105347
0.0869675
0.0696544
0.054014
0.0404513
0.029154
0.0201276
0.0132043
0.00811463
0.00474955
0.00312778
0.00265005
0.00261575
0.310909
0.311338
0.315143
0.313722
0.304964
0.288802
0.266308
0.239286
0.209533
0.178548
0.147781
0.118598
0.0921257
0.0691212
0.0499149
0.0345243
0.0227107
0.0140193
0.0080316
0.00479184
0.0037375
0.0036106
0.485326
0.490099
0.50417
0.508843
0.500051
0.477203
0.442413
0.399093
0.350547
0.299479
0.248422
0.19978
0.15557
0.117112
0.0849232
0.0590105
0.0390154
0.0242606
0.0139037
0.00773753
0.00547156
0.00511229
0.750526
0.764714
0.799512
0.81836
0.811588
0.779458
0.725359
0.655767
0.576902
0.493686
0.410374
0.330971
0.258813
0.195919
0.143005
0.100092
0.0666889
0.0418414
0.024229
0.0130234
0.00832498
0.00742052
1.14724
1.17995
1.25365
1.30025
1.2985
1.25204
1.16682
1.0553
0.92877
0.795822
0.663203
0.537157
0.422718
0.322592
0.237628
0.167938
0.113029
0.0716724
0.0420446
0.0224237
0.013125
0.011027
1.73134
1.79772
1.93925
2.03287
2.03847
1.96751
1.83329
1.65743
1.45898
1.25225
1.04736
0.853275
0.676824
0.521338
0.387972
0.277178
0.188712
0.121192
0.0721617
0.03878
0.021267
0.0167286
2.57733
2.69977
2.94938
3.1142
3.12736
3.01633
2.80864
2.53884
2.23702
1.92558
1.61867
1.32806
1.06248
0.826091
0.621068
0.448789
0.309353
0.201364
0.121882
0.0666041
0.0350914
0.025787
3.78151
3.9904
4.4
4.66796
4.69096
4.52069
4.20834
3.80827
3.36429
2.90801
2.45822
2.03077
1.63763
1.2848
0.976235
0.714595
0.499948
0.33046
0.20329
0.113292
0.0585656
0.040222
5.46278
5.79896
6.43782
6.85882
6.90364
6.65382
6.20008
5.62811
4.99515
4.3413
3.69149
3.0686
2.49128
1.97022
1.51268
1.12234
0.798223
0.537392
0.33677
0.191528
0.0986119
0.0633891
7.77531
8.29578
9.26107
9.91015
10.0016
9.65482
9.02263
8.23725
7.36426
6.44744
5.51925
4.61521
3.76767
2.99828
2.32109
1.74169
1.25691
0.861825
0.551963
0.321198
0.166494
0.101269
10.929
11.7151
13.1387
14.1106
14.2938
13.8642
13.0488
12.0312
10.8707
9.60586
8.28352
6.9664
5.71369
4.56611
3.54961
2.67763
1.94903
1.35529
0.88674
0.530208
0.279888
0.163607
15.2192
16.3886
18.455
19.9017
20.3292
19.9333
19.0242
17.798
16.2917
14.5443
12.6411
10.697
8.81358
7.06005
5.48541
4.12643
2.99897
2.09532
1.39161
0.855219
0.465275
0.26575
21.0868
22.8165
25.8473
28.1213
29.1921
29.1183
28.3236
26.9295
24.9622
22.4996
19.7034
16.7716
13.8755
11.1351
8.63898
6.46314
4.65816
3.23416
2.15518
1.35064
0.760329
0.432172
29.2927
31.8591
36.4442
40.2332
42.6295
43.4227
42.9843
41.4345
38.7886
35.2302
31.0343
26.5229
21.9963
17.6791
13.7293
10.2676
7.3722
5.07435
3.35519
2.11603
1.22437
0.702207
41.186
45.026
52.121
58.4765
63.1723
65.6094
65.7335
63.9652
60.2576
55.0029
48.648
41.7017
34.6462
27.8716
21.6728
16.2505
11.7067
8.06382
5.3001
3.32777
1.95516
1.13454
58.9742
64.7625
75.7899
86.1808
94.4431
99.2986
100.162
97.8388
92.3838
84.5137
74.9479
64.4564
53.733
43.3514
33.7935
25.4094
18.3687
12.7156
8.39592
5.27206
3.1162
1.81743
86.1117
94.8407
111.817
128.163
141.401
149.219
150.653
147.053
138.713
126.862
112.654
97.1992
81.4392
66.1213
51.8827
39.2498
28.5259
19.822
13.1471
8.32398
4.97232
2.90243
127.89
140.94
166.544
191.086
210.577
221.467
222.776
216.479
203.27
185.275
164.364
142.092
119.648
97.9025
77.5605
59.2691
43.5199
30.5156
20.3373
12.9615
7.84441
4.58726
192.329
211.557
249.125
284.168
310.8
324.116
323.535
311.424
289.871
262.395
231.898
200.496
169.554
139.912
112.154
86.8615
64.6482
45.9449
30.9684
19.8829
12.0838
7.05184
291.183
318.946
372.276
419.514
452.855
465.738
459.048
435.643
400.627
359.229
315.554
272.355
231.117
192.453
156.555
123.582
93.8731
67.9623
46.5388
30.1636
18.2122
10.536
441.599
480.218
552.307
610.556
646.374
652.292
631.411
589.035
534.04
473.636
413.022
355.437
302.326
253.913
209.827
169.554
132.68
99.1324
69.7638
45.9222
27.4354
15.6941
668.98
718.137
806.093
866.188
892.406
880.449
833.411
762.937
681.104
597.063
516.728
443.349
377.991
320.256
268.973
222.857
180.691
141.259
104.389
71.2761
42.7973
25.5396
1012.72
1063.41
1145.8
1180.39
1173.66
1125.76
1041.47
935.408
822.242
712.586
612.523
524.676
449.222
384.85
329.32
280.43
236.465
195.558
155.486
113.566
73.1072
54.9458
1527.16
1557.76
1568.92
1513.25
1440.74
1342.02
1215.11
1072.39
929.637
798.143
683.086
585.639
504.76
438.329
383.286
336.691
296.794
262.853
233.662
193.066
150.158
158.824
2244.38
2236.32
1986.88
1759.76
1603.92
1460.19
1299.54
1131.4
971.477
829.908
709.916
611.04
531.374
468.307
419.008
380.687
352.491
338.503
345.83
347.269
342.436
469.453
42.1088
131.199
899.304
1516.1
1566.61
1434.24
1299.23
1200.43
1132.41
1083.08
1043.94
1011.37
983.599
957.41
927.983
890.632
842.777
790.582
744.904
710.056
684.629
664.03
645.601
630.598
620.353
614.443
609.679
601.802
589.566
573.876
558.141
544.67
532.91
523.265
518.67
521.668
533.057
550.186
570.634
592.604
614.979
637.479
659.58
680.288
699.297
717.716
736.035
751.905
760.362
759.654
750.694
735.318
714.552
688.529
660.219
632.111
606.067
584.137
567.461
555.055
543.661
528.892
510.291
492.104
477.362
466.212
458.798
453.974
451.976
452.776
456.378
464.832
477.69
493.214
508.791
522
531.48
537.985
543.423
548.533
553.27
557.29
561.497
568.822
582.419
604.338
634.492
670.084
705.535
734.873
748.607
739.676
709.077
679.454
662.381
655.805
653.968
652.302
647.643
638.544
626.151
613.571
601.112
586.879
572.742
566.925
580.195
644.015
815.493
1299.06
2520.36
2411.16
2001.97
1747.85
1579.68
1431.72
1266.32
1094.23
933.762
795.477
681.092
588.846
516.638
462.421
423.241
397.336
386.794
401.256
476.442
583.27
694.698
1060.26
2266.04
1618.37
1317.07
1185.57
1143.28
1129.12
1106.02
1062.98
999.406
924.437
852.512
792.222
742.516
701.086
669.288
647.6
634.097
623.395
609.609
592.745
574.323
554.954
537.779
528.26
529.809
542.176
563.774
589.418
613.69
631.652
640.456
640.265
631.935
617.124
599.844
582.804
569.122
561.656
561.881
568.682
579.61
588.937
591.36
585.542
571.119
553.265
537.355
526.709
522.981
525.234
531.249
538.781
546.678
554.421
560.339
563.229
564.159
564.557
564.84
564.855
564.27
562.65
559.464
552.921
543.194
530.932
517.221
503.438
491.581
483.094
478.218
477.932
482.264
491.145
502.186
514.215
526.073
536.593
542.979
543.424
539.604
532.542
524.466
517.249
512.031
509.39
509.402
511.443
514.374
517.641
522.376
530.656
542.429
558.014
577.808
601.238
627.184
654.884
682.896
708.749
730.587
747.602
759.183
765.902
769.486
780.077
841.284
1054.2
1546.5
2418.82
0.0153517
12.5261
479.768
1274.17
1461.06
1414
1316.95
1231.2
1166.19
1116.7
1075.77
1041.02
1012.77
987.169
956.212
914.558
862.195
808.38
765.573
735.744
713.506
693.952
675.294
660.797
652.685
649.04
644.362
635.557
621.947
604.298
586.724
571.847
558.474
547.324
542.277
545.473
557.345
574.615
595.747
619.258
644.183
670.257
695.902
718.999
738.984
757.586
775.669
791.01
796.973
792.076
780.179
763.972
741.264
712.558
682.127
652.303
624.31
600.626
582.267
567.728
553.985
537.304
517.195
498.487
485.222
476.896
471.26
468.606
468.927
471.177
475.351
485.099
498.904
514.463
529.399
541.711
550.594
556.561
562.321
567.88
572.406
575.218
577.293
582.611
595.004
617.02
647.021
683.308
719.767
747.864
755.382
739.868
706.26
679.305
670.43
671.819
674.689
674.328
669.135
659.25
644.195
629.084
613.905
596.247
577.923
569.18
579.838
636.06
777.517
1079.93
1351.79
1442.8
1439.01
1402.54
1342.5
1242.36
1104.16
952.353
810.3
689.664
591.933
514.878
456.388
415.241
390.232
379.774
383.038
413.141
514.235
667.453
741.39
912.635
1462.46
1429.82
1301.23
1213.17
1183.18
1173.7
1150.72
1097.75
1024.05
944.16
870.563
809.866
761.756
723.762
694.024
672.318
658.222
646.288
631.142
613.518
594.621
574.322
557.042
549.975
554.165
569.592
591.541
616.012
638.602
655.03
662.988
661.962
654.316
639.947
624.359
607.792
593.087
584.819
583.791
587.728
594.912
601.183
601.548
594.044
579.702
561.918
548.52
541.612
540.564
543.058
547.927
554.472
562.88
573.206
581.907
587.685
591.133
594.445
597.635
599.908
600.135
598.505
593.803
585.322
572.762
557.612
541.332
525.332
512.339
503.475
498.489
497.905
501.685
510.104
520.094
531.697
544.84
556.369
562.899
563.796
560.906
554.819
546.67
539.759
535.087
532.792
533.109
535.626
539.622
542.834
547.379
556.216
568.302
582.865
601.486
623.989
649.34
677.377
705.851
731.807
754.263
773.118
787.207
794.874
798.116
808.525
868.098
1076.32
1558.8
2268.3
0.0100229
0.0470156
45.9556
545.272
962.515
1091.58
1091.66
1049.55
1001.81
957.831
918.391
884.593
859.262
840.708
820.755
791.37
749.882
703.439
663.405
632.413
609.324
591.731
577.907
568.548
566.394
568.659
568.86
564.576
554.843
539.784
523.788
509.288
494.362
479.477
468.79
466.125
471.212
483.45
500.793
521.247
543.712
568.173
592.674
613.83
630.445
644.458
657.87
670.97
678.134
675.473
666.468
655.29
638.77
614.992
588.573
562.785
537.65
514.954
496.645
482.231
469.347
454.597
436.793
419.844
407.559
399.535
394.208
391.599
392.047
393.621
396.057
402.176
411.994
423.959
436.49
448.249
457.535
464.641
471.084
476.666
480.647
481.527
479.892
478.48
481.381
491.345
509.187
536.29
569.95
602.728
619.271
610.349
581.364
556.929
549.481
552.76
559.477
563.844
562.9
555.287
541.034
524.897
508.581
490.085
468.894
451.147
448.172
471.695
554.508
711.766
878.061
964.126
1035.04
1072.03
1058.91
985.495
872.871
749.155
634.862
539.292
463.628
405.854
363.86
336.716
324.066
324.993
340.439
380.667
477.114
641.677
739.131
787.751
948.488
1049.17
1034.76
1008.85
999.135
1001.18
993.198
960.038
904.129
839.555
777.058
721.384
674.297
636.243
606.299
585.01
572.835
563.757
550.137
532.071
512.474
492.746
476.616
468.631
468.848
476.217
489.338
506.225
524.375
540.474
552.089
557.531
556.152
549.16
539.195
525.297
509.269
496.313
488.779
486.519
488.57
493.761
497.363
495.51
486.868
473.97
461.792
453.079
447.888
446.31
448.275
454.412
464.373
476.967
489.313
499.668
507.588
514.309
520.377
525.114
526.77
525.342
520.661
512.452
500.413
485.969
470.595
455.143
441.944
432.399
425.701
421.924
421.76
424.999
430.144
437.576
448.457
460.895
470.717
476.304
477.418
474.699
468.511
462.087
457.539
455.381
455.583
459.281
464.357
467.176
468.513
471.822
476.938
483.434
493.755
508.656
526.835
547.869
570.416
591.929
612.115
632.743
654.188
674.235
690.272
708.593
760.077
917.375
1268.81
1737.15
0.0100033
0.0101857
0.459497
52.9398
343.628
578.859
676.117
698.816
690.289
668.161
642.456
618.381
600.195
589.428
581.199
568.411
546.882
518.759
489.84
461.517
436.39
417.909
404.421
395.158
391.954
393.788
396.864
396.556
392.916
383.875
373.11
363.185
352.602
340.324
328.48
320.277
317.144
318.873
325.855
336.043
348.235
362.283
377.378
391.354
402.684
411.776
420.068
429.599
439.031
443.991
443.947
442.276
438.385
429.69
416.611
402.081
386.897
371.508
357.347
345.376
334.948
324.301
312.124
299.669
288.97
279.562
271.459
265.238
261.181
258.477
256.882
257.226
260.517
266.258
273.861
282.707
291.359
298.902
305.574
311.496
316.235
318.472
317.898
315.599
313.366
312.947
316.905
328.854
352.056
384.849
412.962
420.681
410.373
391.454
378.852
375.138
375.213
376.3
375.968
372.976
365.036
354.085
342.368
329.862
315.402
300.427
292.703
306.122
378.457
532.24
716.793
823.283
871.065
866.875
819.405
737.865
640.125
543.125
457.273
386.799
332.233
292.23
264.905
249.065
244.885
251.266
271.458
308.803
381.975
513.681
648.798
712.741
762.574
795.751
790.306
765.18
744.202
735.754
730.829
719.989
694.845
657.217
613.897
570.087
528.863
492.667
462.413
438.821
423.195
413.448
404.04
391.323
374.738
357.592
342.061
329.184
320.026
315.212
315.258
320.226
328.962
339.738
351.059
361.189
367.7
369.981
368.957
363.698
354.09
343.277
334.512
329.321
327.795
329.452
333.555
335.932
334.716
329.473
321.191
312.157
303.672
297.24
294.292
294.918
299.793
307.625
316.656
325.473
332.958
338.829
343.321
346.825
349.293
350.27
350.062
348.338
343.914
336.902
328.069
318.347
309.025
301.214
294.54
288.648
284.242
281.784
281.145
282.988
288.197
296.42
305.622
313.983
320.234
323.179
322.616
320.047
317.813
316.632
316.202
317.99
321.089
322.152
321.739
321.335
321.088
320.72
321.66
325.888
333.018
342.951
355.297
368.87
383.006
398.853
418.068
440.03
461.442
482.238
514.537
594.762
774.705
1028.25
0.00999558
0.0100128
0.0105709
0.358297
26.7861
166.875
304.889
378.286
408.288
413.162
406.656
395.197
384.084
376.464
371.798
366.688
357.478
344.923
331.894
316.265
296.897
279.899
267.311
256.339
248.092
243.672
241.798
240.484
237.979
232.519
225.399
219.081
213.725
207.988
201.413
194.931
189.783
186.742
185.948
187.191
190.254
194.829
201.047
208.127
215.118
221.68
228.166
235.341
243.522
251.051
255.933
258.299
259.566
259.318
256.893
252.891
248.582
243.445
236.864
229.601
222.384
215.085
207.103
198.901
191.598
184.375
176.329
168.582
162.204
157.287
153.301
150.246
148.779
149.057
151.241
154.75
158.752
162.614
166.409
170.343
174.365
177.875
180.001
180.74
180.484
179.522
179.418
183.618
196.653
218.271
241.685
257.004
257.292
247.373
235.901
230.257
227.947
226.271
225.266
224.212
221.336
215.767
208.784
201.492
194.1
189.755
193.679
214.665
279.594
405.702
552.815
633.532
646.527
617.502
563.718
498.837
430.55
365.913
309.033
262.016
225.839
200.238
183.909
175.63
175.028
182.753
200.727
230.014
278.414
360.695
470.17
564.289
624.138
651.77
656.673
644.276
618.494
588.74
564.246
551.01
537.494
511.873
478.214
442.912
409.058
377.661
349.558
325.68
307.305
294.397
284.391
274.647
262.03
247.412
232.079
217.295
204.34
194.171
187.34
183.786
183.247
185.391
190.195
197.174
204.185
209.765
213.887
216.061
215.785
213.494
209.857
206.288
203.713
202.641
203.025
204.286
203.915
202.291
199.65
196.445
191.67
185.122
179.322
175.805
174.353
174.745
177.165
180.707
184.645
188.044
190.771
193.272
195.875
198.513
201.078
203.238
204.564
204.192
201.702
197.32
192.135
186.989
182.03
177.173
172.693
169.028
166.525
165.665
166.684
170.421
175.928
182.283
189.009
195.343
199.74
202.253
204.513
206.305
207.067
207.168
207.064
206.455
205.258
203.976
202.632
200.788
198.661
197.117
197.04
199.024
203.031
208.663
215.462
223.68
234.535
248.454
263.79
278.989
296.022
325.748
392.988
506.547
0.00999289
0.00995859
0.00994973
0.0102079
0.0706769
6.53856
52.6869
133.375
187.277
216.077
227.762
229.367
226.777
222.322
218.706
215.251
210.561
205.237
200.336
194.494
185.37
174.124
163.831
154.761
147.455
142.042
138.464
135.911
133.272
129.224
124.022
119.446
116.176
113.613
111.008
108.002
104.755
101.65
99.0549
97.2786
96.3774
96.4484
97.5775
99.7177
102.508
105.857
109.994
115.072
121.003
127.008
132.001
135.378
137.554
139.019
139.347
139.22
139.784
140.97
141.2
140.154
137.393
133.492
128.636
123.731
119.669
116.04
111.754
106.738
101.578
96.6878
92.3447
88.7739
86.2629
84.5851
83.5662
83.0454
82.9678
83.1002
83.8001
84.8278
86.1638
87.7237
89.2277
90.3594
91.2522
92.0196
93.2701
96.8198
104.158
115.445
128.59
139.45
142.108
138.221
131.281
126.297
124.929
124.307
124.278
124.222
123.608
121.267
117.836
114.201
112.127
115.938
131.625
154.035
188.701
241.248
302.314
339.32
347.895
340.731
324.023
300.147
269.859
236.548
204.248
176.253
154.771
140.418
132.336
129.222
130.313
136.506
148.614
167.565
195.802
239.816
304.796
380.918
449.299
496.601
519.408
520.509
509.61
485.482
454.39
435.307
423.623
403.481
375.938
346.439
318.293
292.53
268.823
247.471
229.581
215.907
205.045
194.936
183.891
171.758
159.535
148.012
137.026
126.776
117.764
110.09
103.268
98.3127
96.9865
99.1127
103.729
108.324
112.566
116.357
119.452
121.668
122.68
122.179
120.773
119.014
117.458
116.109
114.486
112.718
111.416
111.088
110.431
107.813
103.073
97.963
93.8963
91.4844
90.6028
90.7704
91.9164
93.4563
95.0516
96.8439
98.7921
100.735
102.793
105.05
107.415
109.354
109.83
108.633
106.124
103.108
100.042
97.1306
94.4999
92.1898
90.2439
88.9652
88.6533
89.1311
90.7878
93.5419
97.5992
102.553
107.478
112.004
116.786
121.244
124.498
126.468
127.527
127.706
127.41
126.621
125.65
124.518
123.19
121.729
120.379
119.461
119.183
119.527
120.809
122.954
126.7
132.499
139.837
147.993
156.67
167.394
186.569
225.76
0.00999088
0.00993594
0.00987922
0.00984154
0.00981608
0.0132939
0.444793
8.54783
35.5277
70.7813
94.4396
108.139
113.308
113.525
112.855
112.162
110.88
109.055
107.231
105.068
101.395
95.9919
90.2201
85.4591
82.1273
79.5181
77.2584
75.1021
72.6387
69.4348
66.0233
63.3148
61.524
60.2943
59.1152
57.6594
55.8919
53.9372
51.9309
50.0421
48.3831
47.1027
46.3525
46.1635
46.2849
47.1212
48.6007
50.6152
53.0868
56.0113
58.9684
61.6901
63.8865
65.372
66.3214
67.115
68.4699
70.5505
72.7399
74.489
74.9069
73.8973
72.0566
70.1176
68.5087
67.1421
65.7222
64.1055
62.3839
60.3443
58.0971
55.8531
53.7287
51.6925
49.7349
47.9087
46.3337
45.1451
44.2978
43.6168
43.0168
42.5015
42.0787
41.7569
41.7526
42.135
43.3613
46.0252
50.2565
56.1044
62.5308
67.8786
69.5176
67.972
65.3192
63.4987
63.4734
63.9958
64.8123
65.4422
65.2888
64.4058
62.9906
61.5782
62.2275
68.6258
82.4613
100.372
118.484
134.996
152.315
168.618
184.063
197.425
204.192
201.457
188.919
169.858
149.374
131.873
120.046
114.02
111.883
111.588
112.738
115.538
120.351
128.45
141.472
162.039
193.699
236.652
285.149
330.271
361.317
374.261
374.581
367.237
351.235
335.134
320.454
302.651
282.612
262.418
242.857
224.468
207.333
191.38
177.049
165.175
155.458
146.213
136.562
126.966
118.372
110.691
102.572
93.3886
83.9564
74.5548
64.3891
56.0297
52.6851
52.9126
55.3952
58.1025
60.6652
63.0266
65.1769
67.0446
68.426
68.8031
68.3084
66.9881
65.0856
62.9488
60.7997
58.853
57.3863
56.5802
56.073
55.1702
53.1807
50.194
46.9473
44.2893
42.5718
41.6123
41.29
41.4235
42.2248
43.2969
44.5383
45.6703
46.7782
48.0823
49.6082
51.076
52.0113
52.2203
51.4951
50.3122
49.057
47.8667
46.7844
45.7968
44.8659
44.0486
43.4417
43.2529
43.3538
44.1332
45.7848
48.2674
51.3327
54.6061
58.076
62.0242
66.4407
70.6585
74.0563
76.4287
77.8369
78.4322
78.3939
78.0581
77.6241
77.2163
76.7588
76.1127
75.2743
74.3587
73.5261
72.9864
73.1576
74.1139
75.8715
78.2723
81.2361
84.7102
89.2643
97.315
0.00998351
0.00991295
0.0098416
0.00977832
0.00972186
0.00965807
0.00964687
0.0179199
0.316876
3.27607
10.741
23.8317
35.2376
43.5132
48.5292
51.5789
53.4935
54.6671
55.4343
55.3351
54.2101
52.253
50.6167
49.837
49.0943
47.9405
46.4042
44.6293
42.5918
40.3621
38.4324
37.0154
36.0397
35.2914
34.5195
33.5475
32.3761
31.0676
29.6919
28.3321
27.024
25.7928
24.7216
23.9016
23.4994
23.5229
23.6644
23.6531
23.4997
23.5548
23.8899
24.647
25.9263
27.4579
28.9132
30.1588
31.4713
33.0822
34.7049
36.151
37.1463
37.5861
37.7226
37.6653
37.6069
37.4978
37.2683
36.887
36.4812
36.063
35.5706
34.9184
34.0589
32.9561
31.6931
30.4268
29.2692
28.2754
27.3015
26.2864
25.0601
23.4353
21.6215
20.1679
19.3465
19.2153
19.4808
20.492
22.0424
24.3095
27.1135
29.4542
30.3004
30.5547
31.2864
32.8197
34.8173
35.9482
36.4058
36.686
36.6596
36.3212
35.7724
35.4515