/*--------------------------------*- C++ -*----------------------------------*\
  =========                 |
  \\      /  F ield         | OpenFOAM: The Open Source CFD Toolbox
   \\    /   O peration     | Website:  https://openfoam.org
    \\  /    A nd           | Version:  7
     \\/     M anipulation  |
\*---------------------------------------------------------------------------*/
FoamFile
{
    version     2.0;
    format      ascii;
    class       volScalarField;
    location    "200";
    object      k;
}
// * * * * * * * * * * * * * * * * * * * * * * * * * * * * * * * * * * * * * //

dimensions      [0 2 -2 0 0 0 0];

internalField   nonuniform List<scalar> 
96800
(
0.000574048
0.000573926
0.000573312
0.000572617
0.000571946
0.000571395
0.000570991
0.000570679
0.000570412
0.000570164
0.000569955
0.000569844
0.000569911
0.000570166
0.000570659
0.000571385
0.000572363
0.000573569
0.000574969
0.000576499
0.000578114
0.000580052
0.000574731
0.000575256
0.00057466
0.00057389
0.000573105
0.000572458
0.000571979
0.000571622
0.000571333
0.00057108
0.00057088
0.000570781
0.000570834
0.000571093
0.000571571
0.000572289
0.000573252
0.000574446
0.000575837
0.000577334
0.000578787
0.000579901
0.000575525
0.000576162
0.000575483
0.000574482
0.000573433
0.000572542
0.000571877
0.000571408
0.000571066
0.000570804
0.00057062
0.000570546
0.000570614
0.000570866
0.000571322
0.000572
0.000572916
0.000574075
0.000575442
0.000576881
0.000578135
0.000578777
0.00057653
0.000577123
0.000576238
0.000574917
0.000573519
0.000572315
0.000571421
0.000570813
0.000570414
0.000570154
0.000570005
0.000569973
0.000570069
0.000570317
0.000570739
0.00057136
0.000572214
0.00057333
0.000574681
0.000576103
0.000577291
0.000577812
0.000577444
0.000577949
0.000576815
0.00057515
0.000573391
0.00057188
0.000570766
0.000570035
0.000569595
0.000569357
0.000569263
0.000569286
0.000569421
0.000569672
0.000570059
0.000570618
0.000571409
0.000572485
0.000573837
0.00057529
0.000576508
0.000577038
0.000578157
0.000578571
0.000577195
0.000575214
0.000573138
0.00057137
0.000570085
0.00056927
0.000568822
0.000568631
0.000568606
0.000568694
0.000568876
0.000569138
0.000569496
0.00057
0.000570734
0.000571785
0.000573161
0.000574686
0.000575994
0.000576586
0.000578694
0.000579022
0.000577433
0.000575186
0.000572858
0.000570896
0.000569498
0.000568646
0.000568226
0.000568104
0.000568157
0.000568316
0.000568546
0.000568819
0.000569149
0.000569604
0.000570298
0.000571349
0.000572782
0.000574417
0.000575848
0.000576528
0.000579145
0.000579398
0.000577628
0.000575168
0.000572645
0.000570542
0.000569075
0.000568225
0.000567861
0.00056782
0.000567952
0.000568179
0.000568444
0.000568715
0.000569009
0.000569417
0.000570088
0.00057117
0.000572696
0.000574467
0.000576039
0.000576814
0.000579614
0.000579803
0.000577886
0.000575251
0.000572573
0.000570367
0.00056886
0.00056803
0.000567727
0.000567759
0.000567964
0.000568242
0.00056852
0.000568763
0.000569004
0.000569361
0.000570017
0.000571148
0.000572792
0.000574727
0.000576461
0.000577343
0.000580181
0.000580318
0.000578278
0.000575498
0.000572691
0.000570405
0.000568871
0.000568058
0.0005678
0.000567883
0.000568132
0.000568431
0.000568692
0.000568884
0.000569056
0.00056935
0.000569992
0.000571179
0.000572957
0.000575079
0.000576994
0.000577993
0.000580895
0.000580989
0.000578846
0.000575939
0.000573024
0.000570671
0.00056911
0.000568296
0.00056805
0.000568142
0.000568389
0.000568667
0.000568884
0.000569011
0.000569106
0.000569342
0.000569976
0.000571229
0.000573147
0.000575463
0.000577573
0.0005787
0.000581781
0.000581838
0.000579603
0.000576587
0.000573576
0.000571156
0.000569555
0.000568712
0.000568435
0.000568487
0.00056868
0.000568893
0.000569043
0.000569101
0.000569134
0.000569341
0.000569995
0.000571333
0.000573405
0.000575919
0.000578225
0.000579487
0.000582869
0.000582889
0.000580565
0.000577444
0.000574336
0.000571833
0.000570163
0.000569254
0.000568902
0.000568872
0.000568968
0.000569088
0.00056916
0.000569156
0.000569163
0.000569386
0.000570106
0.000571571
0.000573825
0.000576549
0.000579055
0.000580454
0.000584184
0.000584166
0.000581746
0.000578507
0.000575278
0.000572661
0.000570886
0.000569871
0.000569402
0.000569254
0.000569245
0.000569266
0.000569265
0.00056923
0.000569255
0.000569545
0.00057039
0.000572032
0.000574505
0.000577458
0.000580171
0.000581708
0.000585749
0.000585685
0.000583153
0.000579766
0.000576377
0.000573606
0.000571689
0.000570536
0.000569929
0.000569644
0.000569521
0.000569463
0.000569428
0.000569404
0.000569485
0.000569891
0.000570911
0.000572775
0.000575496
0.000578706
0.000581645
0.000583328
0.000587571
0.000587451
0.000584782
0.000581211
0.00057762
0.000574658
0.000572571
0.000571271
0.000570533
0.000570127
0.000569901
0.000569789
0.000569753
0.000569767
0.000569932
0.000570483
0.0005717
0.000573803
0.000576796
0.000580288
0.000583476
0.000585313
0.000589667
0.00058948
0.00058665
0.000582864
0.00057904
0.000575862
0.000573596
0.00057216
0.00057132
0.000570832
0.000570541
0.000570394
0.000570366
0.000570419
0.000570669
0.000571357
0.000572755
0.000575083
0.000578351
0.000582139
0.000585594
0.0005876
0.000592124
0.000591862
0.000588856
0.000584837
0.00058076
0.000577355
0.000574916
0.000573367
0.000572455
0.000571918
0.00057159
0.000571418
0.000571386
0.000571458
0.000571765
0.000572545
0.000574071
0.00057658
0.000580092
0.000584167
0.0005879
0.000590107
0.000595189
0.000594843
0.000591647
0.000587374
0.000583022
0.000579376
0.000576764
0.000575109
0.000574139
0.000573567
0.000573203
0.000572985
0.00057292
0.00057298
0.000573287
0.000574086
0.000575668
0.00057829
0.000581989
0.000586316
0.000590332
0.000592767
0.00059931
0.000598862
0.000595436
0.000590858
0.000586185
0.000582256
0.000579433
0.000577639
0.000576584
0.000575955
0.000575532
0.000575236
0.000575077
0.000575077
0.000575313
0.000576049
0.000577602
0.000580266
0.000584094
0.000588629
0.000592902
0.000595556
0.000605083
0.000604493
0.000600756
0.000595773
0.000590675
0.000586364
0.000583236
0.000581216
0.000580004
0.000579263
0.00057874
0.000578325
0.000578011
0.000577857
0.000577962
0.000578552
0.00058
0.000582644
0.000586552
0.000591256
0.000595738
0.000598559
0.000613108
0.000612325
0.000608155
0.000602615
0.000596926
0.000592073
0.000588491
0.000586116
0.000584635
0.00058369
0.000583003
0.000582416
0.000581899
0.000581519
0.000581426
0.000581806
0.000583077
0.000585645
0.000589599
0.000594441
0.000599084
0.000602023
0.000623866
0.000622838
0.00061809
0.000611801
0.000605314
0.000599717
0.000595512
0.000592638
0.000590755
0.000589496
0.000588557
0.000587736
0.000586966
0.000586321
0.000585961
0.000586105
0.000587148
0.000589587
0.000593537
0.000598481
0.000603272
0.000606342
0.000637726
0.000636379
0.000630873
0.000623617
0.000616082
0.000609519
0.000604522
0.000601026
0.000598653
0.000597002
0.000595745
0.000594627
0.000593554
0.000592595
0.000591913
0.000591792
0.000592587
0.000594846
0.000598732
0.00060374
0.000608688
0.000611928
0.000655139
0.000653385
0.000646876
0.00063831
0.000629362
0.000621531
0.000615564
0.000611389
0.000608541
0.000606534
0.000604971
0.000603535
0.000602115
0.000600783
0.000599731
0.000599283
0.000599802
0.000601821
0.000605597
0.000610645
0.000615753
0.000619195
0.00067758
0.000675218
0.000667257
0.000656712
0.00064563
0.000635932
0.000628636
0.000623687
0.000620457
0.000618266
0.000616543
0.00061488
0.000613132
0.000611396
0.000609904
0.000609035
0.000609221
0.000610927
0.000614541
0.000619612
0.000624896
0.000628575
0.000709909
0.000706411
0.000696033
0.000682161
0.000667384
0.000654312
0.000644527
0.000638161
0.000634392
0.000632176
0.00063058
0.000628954
0.000627051
0.000624969
0.000623005
0.00062162
0.00062135
0.000622655
0.00062604
0.000631105
0.000636567
0.000640517
0.000764025
0.000758361
0.000743862
0.000724215
0.000702612
0.000682704
0.000667178
0.000656895
0.000651124
0.000648371
0.000647024
0.000645824
0.000644165
0.000642
0.00063966
0.000637709
0.000636831
0.000637624
0.000640664
0.000645661
0.000651302
0.000655601
0.000861649
0.000852414
0.000831524
0.000802621
0.000769289
0.000736392
0.000708327
0.000687728
0.000675008
0.000668723
0.000666383
0.000665536
0.000664581
0.000662853
0.000660475
0.000658062
0.000656473
0.000656626
0.000659146
0.000663994
0.00066985
0.000674609
0.00103064
0.00101639
0.000986718
0.000944892
0.000894578
0.000841514
0.000791625
0.000749887
0.000719515
0.000701059
0.000692242
0.000689259
0.000688528
0.000687697
0.00068589
0.000683394
0.000681198
0.000680599
0.00068246
0.000687057
0.000693171
0.000698535
0.00129668
0.00127593
0.00123477
0.00117638
0.00110468
0.00102605
0.00094699
0.000873574
0.000811581
0.000765532
0.000736835
0.000722816
0.000718054
0.000717049
0.000716204
0.000714288
0.000711919
0.000710669
0.000711837
0.000716076
0.000722512
0.000728723
0.0016831
0.00165382
0.00159727
0.00151761
0.00141962
0.00131076
0.00119788
0.00108688
0.000983728
0.000894964
0.000826957
0.000783236
0.000761402
0.000753831
0.000752196
0.00075121
0.000749419
0.000747983
0.000748664
0.000752565
0.00075948
0.000766886
0.00221877
0.00217801
0.00210068
0.00199325
0.00186202
0.00171617
0.00156349
0.00140983
0.00126046
0.00112108
0.000998972
0.000903042
0.000840102
0.000808483
0.000797555
0.000795243
0.000794449
0.000793716
0.000794467
0.000798373
0.000806073
0.000815092
0.00294483
0.00288889
0.00278419
0.00264078
0.002467
0.00227437
0.00207221
0.001867
0.00166384
0.00146746
0.0012836
0.00112087
0.000991431
0.000906253
0.000864296
0.00085057
0.000848474
0.000849111
0.000850933
0.000855621
0.000864667
0.000875895
0.00392094
0.00384543
0.00370592
0.00351664
0.00328864
0.00303632
0.00277096
0.00250007
0.00222931
0.00196355
0.00170779
0.00146862
0.0012567
0.00108857
0.000980134
0.000929811
0.000915843
0.000916108
0.000920059
0.000926811
0.000938211
0.000952555
0.00523557
0.00513497
0.00495223
0.00470545
0.00440893
0.00408048
0.00373347
0.00337661
0.00301682
0.00266021
0.00231269
0.00198057
0.00167211
0.00140107
0.00119013
0.00106127
0.00100847
0.000999095
0.0010045
0.00101499
0.00103047
0.00104934
0.00701775
0.00688533
0.00665056
0.00633332
0.00595117
0.0055256
0.00507195
0.00460049
0.00412022
0.00363974
0.00316743
0.00271162
0.00228091
0.00188595
0.00154537
0.00129187
0.0011524
0.00110764
0.00110858
0.0011241
0.00114624
0.00117166
0.00945585
0.00928479
0.00899143
0.00859103
0.00810318
0.0075531
0.00695825
0.0063312
0.00568443
0.00503065
0.00438263
0.00375303
0.00315402
0.0025972
0.00209664
0.00167976
0.00139383
0.00126368
0.00124142
0.00126003
0.00129216
0.00132665
0.0128145
0.0126003
0.012249
0.0117571
0.011142
0.0104325
0.00964901
0.00880805
0.00792788
0.00702776
0.00612764
0.00524763
0.004407
0.00362285
0.00290977
0.00228704
0.00179747
0.00150812
0.0014183
0.00143126
0.00147691
0.00152386
0.0174622
0.0172067
0.016814
0.0162341
0.0154738
0.0145633
0.0135272
0.0123897
0.0111792
0.00992532
0.00865972
0.00741491
0.00622179
0.00510722
0.00409208
0.00319379
0.00244056
0.00190734
0.00167136
0.00165275
0.00171177
0.00177669
0.0238973
0.0236162
0.0232305
0.0225923
0.0216802
0.0205215
0.0191463
0.0175943
0.0159131
0.0141495
0.0123534
0.0105769
0.00886865
0.00727024
0.00581411
0.00452381
0.00341844
0.0025521
0.00205715
0.00194772
0.00201248
0.00210342
0.03279
0.0325255
0.0322502
0.0316288
0.0305774
0.0291129
0.0272768
0.0251422
0.0227902
0.0202944
0.0177323
0.0151849
0.0127279
0.0104256
0.00832702
0.00646725
0.00486682
0.00355531
0.00266558
0.00235392
0.00240212
0.00252872
0.0450342
0.0448702
0.0448892
0.0444253
0.0432688
0.041421
0.0389541
0.0360012
0.0326968
0.0291545
0.0254925
0.0218353
0.0183014
0.0149903
0.0119717
0.00929388
0.00698563
0.00506389
0.00362316
0.00294244
0.00291943
0.00308606
0.0617911
0.0618763
0.0625203
0.0624007
0.0612051
0.0588725
0.0555391
0.0514315
0.0467703
0.0417362
0.0365094
0.0312791
0.0262277
0.0215017
0.0171942
0.0133672
0.0100589
0.00728555
0.00509785
0.00382495
0.00362389
0.00382094
0.084514
0.0850826
0.0868369
0.0874068
0.0862629
0.0832917
0.0787308
0.0729629
0.0663633
0.0592287
0.0518275
0.044437
0.0373191
0.0306674
0.0245956
0.0191827
0.0144815
0.0105155
0.00730971
0.00517027
0.00459424
0.00479859
0.114989
0.116417
0.120005
0.12178
0.120738
0.116816
0.110451
0.102297
0.0929774
0.0829651
0.072642
0.0623919
0.0525601
0.0433715
0.0349488
0.0273916
0.0207815
0.0151598
0.0105488
0.00720487
0.00595489
0.00610761
0.155431
0.158266
0.164676
0.168218
0.167162
0.161721
0.152738
0.141261
0.128256
0.114441
0.100335
0.0864256
0.0731195
0.0606511
0.0491534
0.0387565
0.0295867
0.0217234
0.0151968
0.0102159
0.00789085
0.00787205
0.208473
0.213397
0.223741
0.229517
0.228115
0.220321
0.207697
0.191787
0.173996
0.155353
0.136513
0.118036
0.100357
0.0837099
0.068262
0.0541956
0.0416783
0.0308375
0.0217468
0.0145802
0.0106582
0.0102556
0.277139
0.284902
0.30028
0.308663
0.306531
0.295375
0.277894
0.256325
0.232557
0.207923
0.183195
0.159011
0.135856
0.113979
0.0935985
0.0749464
0.0581931
0.0434728
0.0309444
0.0208417
0.0146298
0.0134781
0.364672
0.376096
0.39766
0.409203
0.406043
0.390385
0.366687
0.338183
0.30718
0.27522
0.243184
0.211834
0.181779
0.153362
0.126878
0.102571
0.0805503
0.0609155
0.0438736
0.0298087
0.0203669
0.017862
0.474874
0.490929
0.520016
0.535405
0.53092
0.509531
0.478252
0.441667
0.402283
0.361621
0.320626
0.280259
0.24139
0.20461
0.170367
0.138922
0.110282
0.0844896
0.0617504
0.0424944
0.0286086
0.0239355
0.612506
0.634389
0.672388
0.691893
0.685752
0.658104
0.618811
0.573801
0.525305
0.47448
0.42239
0.370459
0.320066
0.272176
0.227472
0.18641
0.149086
0.11548
0.085698
0.0599925
0.0403039
0.0323944
0.783752
0.813
0.861522
0.885855
0.879315
0.847701
0.802389
0.749829
0.691535
0.628363
0.561949
0.494601
0.428406
0.364788
0.304857
0.249659
0.199884
0.155713
0.116973
0.08344
0.056615
0.0441399
0.997339
1.03619
1.09902
1.13301
1.13163
1.10217
1.055
0.995909
0.92592
0.846434
0.760322
0.671212
0.582283
0.495763
0.413451
0.337246
0.268822
0.209119
0.15799
0.114455
0.0789237
0.060418
1.26835
1.32037
1.40596
1.4604
1.47508
1.45587
1.41137
1.34528
1.25936
1.1569
1.0425
0.921633
0.799456
0.679923
0.56603
0.460503
0.365626
0.283034
0.213489
0.155987
0.109246
0.0829796
1.62311
1.69398
1.81598
1.90634
1.95199
1.95077
1.91171
1.83506
1.72561
1.5899
1.43511
1.26928
1.10006
0.933846
0.775869
0.630247
0.499787
0.386139
0.290373
0.212559
0.150508
0.113917
2.10168
2.19978
2.37673
2.52161
2.61272
2.63675
2.60031
2.50422
2.35856
2.17479
1.96409
1.73789
1.50632
1.27793
1.06043
0.86014
0.681115
0.525881
0.395619
0.290228
0.206934
0.155952
2.76018
2.89656
3.15118
3.37046
3.51807
3.56757
3.52398
3.3927
3.19158
2.93944
2.65332
2.34878
2.03855
1.73267
1.4401
1.16912
0.925621
0.713539
0.536351
0.395122
0.284194
0.213394
3.67296
3.86065
4.21757
4.52826
4.73589
4.80124
4.73274
4.54116
4.25559
3.90614
3.51873
3.11404
2.70708
2.30842
1.9266
1.57034
1.2475
0.963272
0.723219
0.533694
0.386931
0.289927
4.93523
5.18863
5.67132
6.0834
6.34461
6.40463
6.27798
5.98406
5.57036
5.08364
4.56193
4.03196
3.5101
3.00556
2.52402
2.07173
1.65663
1.28612
0.96828
0.715092
0.518644
0.386991
6.66062
6.99431
7.62146
8.1315
8.42223
8.43479
8.18783
7.72784
7.12867
6.45694
5.76369
5.0822
4.42957
3.81172
3.22876
2.6804
2.16902
1.70106
1.2897
0.953969
0.686653
0.509614
8.98198
9.40437
10.1777
10.7503
11.009
10.8966
10.4383
9.73161
8.8819
7.97625
7.07674
6.22131
5.42631
4.69309
4.01497
3.3831
2.78947
2.23065
1.71859
1.2799
0.914158
0.683737
12.0545
12.5445
13.4072
13.9398
14.0448
13.6841
12.9105
11.8724
10.7106
9.5316
8.40449
7.36706
6.43175
5.59347
4.83704
4.14485
3.49913
2.88211
2.29119
1.7463
1.27099
1.06031
16.0705
16.5344
17.2833
17.5454
17.3013
16.5377
15.3507
13.9176
12.4082
10.9442
9.59598
8.39555
7.34691
6.43601
5.63687
4.92255
4.2701
3.65508
3.05386
2.44549
2.00463
2.06036
21.211
21.4739
21.6199
21.1421
20.2983
19.0255
17.3816
15.5466
13.7103
12.0008
10.4806
9.16828
8.05622
7.12194
6.33126
5.65028
5.05735
4.54329
4.10408
3.67012
3.66568
4.3443
27.3223
27.2777
25.6086
23.8719
22.3156
20.5685
18.5332
16.383
14.3214
12.4749
10.8804
9.53744
8.42941
7.52756
6.79995
6.21341
5.7582
5.48027
5.47362
5.70548
6.56054
8.58446
0.137704
1.06623
11.3261
20.1031
23.2572
23.6518
22.9417
21.8275
20.6341
19.4703
18.3933
17.4443
16.6342
15.9252
15.2487
14.5395
13.7676
13.002
12.3572
11.8768
11.5421
11.301
11.1214
11.0067
10.9527
10.9398
10.9274
10.872
10.7711
10.6399
10.5202
10.4368
10.3856
10.3762
10.4376
10.6
10.838
11.1035
11.3656
11.6134
11.8532
12.0997
12.3542
12.6025
12.8331
13.0469
13.2351
13.3595
13.3794
13.2977
13.1283
12.9052
12.6391
12.3405
12.0455
11.778
11.5512
11.3769
11.2496
11.1371
10.9866
10.7458
10.4213
10.086
9.79307
9.55409
9.37406
9.24621
9.1733
9.15125
9.18413
9.29998
9.50163
9.76605
10.0494
10.3096
10.5206
10.6898
10.8381
10.9679
11.0721
11.1468
11.2117
11.3164
11.5037
11.7888
12.1635
12.573
12.9374
13.1856
13.2315
13.0118
12.5935
12.2474
12.083
12.0414
12.0299
11.9763
11.8371
11.6097
11.323
11.0395
10.7867
10.5772
10.4863
10.6304
11.3228
12.8874
15.7005
20.9064
29.8737
29.1217
26.3647
24.334
22.5556
20.6471
18.4655
16.2093
14.0953
12.2433
10.6779
9.3847
8.34306
7.52818
6.90866
6.46336
6.20199
6.2416
6.86095
8.02788
9.98233
13.7209
21.5673
18.6475
17.7256
17.8865
18.5586
19.0918
19.1326
18.6682
17.7553
16.6096
15.4673
14.4761
13.6573
12.9985
12.5044
12.1545
11.8959
11.6417
11.3209
10.9477
10.56
10.1918
9.91035
9.80409
9.89628
10.2024
10.6189
11.0367
11.3586
11.5231
11.5315
11.4092
11.1803
10.9001
10.6389
10.4508
10.3871
10.4583
10.6553
10.9123
11.1451
11.2821
11.2845
11.142
10.8967
10.6413
10.4673
10.4257
10.5094
10.6895
10.8877
11.0551
11.1785
11.2573
11.2823
11.2616
11.2067
11.142
11.0847
11.0392
11.004
10.9753
10.9418
10.8861
10.8001
10.6813
10.5347
10.3772
10.2394
10.147
10.1086
10.131
10.2225
10.3595
10.5189
10.6858
10.8438
10.9748
11.0459
11.0415
10.9718
10.8663
10.7578
10.6691
10.6116
10.581
10.5692
10.5614
10.548
10.535
10.5524
10.6213
10.7466
10.9301
11.1702
11.4508
11.7579
12.0859
12.4213
12.7382
13.0107
13.2208
13.3598
13.4379
13.501
13.7676
14.9435
18.0248
23.5394
31.0034
0.00124563
0.201859
7.04695
17.5012
21.8323
22.9973
22.727
21.8198
20.7149
19.5866
18.5104
17.5476
16.7338
16.0282
15.3367
14.5912
13.785
13.0122
12.3975
11.9598
11.6459
11.4054
11.2186
11.1086
11.0836
11.0956
11.0864
11.029
10.9265
10.7762
10.6402
10.5411
10.4752
10.4503
10.5014
10.6524
10.8992
11.1688
11.4395
11.7015
11.9612
12.233
12.5087
12.7659
12.9943
13.2026
13.3896
13.5016
13.4974
13.3748
13.1923
12.9665
12.6825
12.3607
12.0481
11.7671
11.5252
11.338
11.204
11.0793
10.9175
10.6764
10.3432
10.0133
9.74664
9.5459
9.38444
9.27684
9.23066
9.2199
9.25529
9.35999
9.5553
9.80481
10.0697
10.316
10.5204
10.6831
10.8362
10.9711
11.0732
11.1345
11.1746
11.2545
11.4259
11.692
12.0602
12.474
12.8507
13.0877
13.0847
12.8113
12.3664
12.0533
11.9722
12.009
12.0458
12.0096
11.8789
11.6537
11.345
11.0384
10.7539
10.4962
10.3309
10.4041
10.994
12.4353
14.9619
18.7285
21.4146
22.3318
22.3336
21.7805
20.7047
19.0704
17.0375
14.9047
12.9228
11.2138
9.7951
8.64425
7.73894
7.06383
6.60074
6.3224
6.22876
6.43947
7.33372
8.72665
10.093
12.4398
16.8447
17.2648
17.3042
17.6962
18.4658
19.102
19.1941
18.7174
17.76
16.6128
15.4853
14.5066
13.7092
13.0825
12.6034
12.2507
11.9883
11.7277
11.4009
11.0266
10.6369
10.2574
9.96752
9.87167
9.96477
10.2734
10.6802
11.0885
11.4111
11.5779
11.5874
11.476
11.2577
10.9853
10.7345
10.5344
10.4419
10.4877
10.6413
10.8682
11.0721
11.1985
11.1908
11.0503
10.8096
10.5588
10.4059
10.394
10.4914
10.6594
10.8471
11.0173
11.1641
11.2777
11.3406
11.3508
11.3259
11.2924
11.262
11.2351
11.207
11.1697
11.1156
11.0364
10.9245
10.7814
10.6124
10.438
10.2933
10.2031
10.1663
10.1843
10.2675
10.3918
10.5339
10.6922
10.8632
11.002
11.0758
11.0825
11.0316
10.9408
10.8403
10.7619
10.716
10.6965
10.6965
10.7045
10.7002
10.685
10.695
10.7597
10.8695
11.024
11.2391
11.4962
11.7831
12.0999
12.4254
12.7333
13.0091
13.2314
13.3913
13.4848
13.5466
13.7829
14.8796
17.8453
23.2103
29.4769
0.00100209
0.00206717
0.823568
9.2523
15.8439
18.6934
19.4496
19.1788
18.415
17.4808
16.5229
15.6416
14.9069
14.3051
13.7419
13.1266
12.4303
11.7287
11.1351
10.6719
10.328
10.0786
9.90721
9.82023
9.83112
9.90484
9.95047
9.93835
9.86768
9.74014
9.60856
9.49766
9.38548
9.2826
9.24268
9.30174
9.46765
9.68938
9.93799
10.188
10.437
10.6979
10.9577
11.1844
11.3676
11.5252
11.6697
11.7887
11.8179
11.739
11.5919
11.4256
11.2067
10.924
10.6338
10.3714
10.1349
9.94009
9.79691
9.68122
9.54802
9.34781
9.07198
8.78682
8.55174
8.36839
8.22212
8.12237
8.0752
8.04735
8.04353
8.09961
8.22592
8.40458
8.61502
8.83339
9.0284
9.19786
9.35474
9.48977
9.58798
9.63049
9.62264
9.61719
9.67155
9.81117
10.0497
10.391
10.7869
11.1344
11.2584
11.0818
10.687
10.3812
10.2996
10.3511
10.4332
10.4596
10.4054
10.2308
9.95869
9.65849
9.3629
9.06816
8.7998
8.68418
8.89324
9.83611
11.8012
14.5187
16.8341
17.9167
18.5307
18.5422
17.8233
16.4126
14.6173
12.751
11.037
9.57598
8.3822
7.4346
6.71031
6.19709
5.8858
5.7579
5.80886
6.14932
7.04791
8.48469
9.71167
10.8463
12.765
14.0432
14.5069
15.051
15.802
16.5371
16.8762
16.6979
16.0357
15.1318
14.1768
13.2805
12.5008
11.8638
11.3649
11.0037
10.7632
10.5482
10.2606
9.90514
9.52513
9.15532
8.86111
8.7104
8.70973
8.85668
9.1238
9.45073
9.76548
9.99716
10.1123
10.1103
9.99615
9.81013
9.60477
9.38958
9.20829
9.12537
9.15016
9.27124
9.42967
9.56906
9.63069
9.5845
9.42805
9.22506
9.05803
8.97607
8.9782
9.06364
9.20865
9.38334
9.5698
9.7466
9.88336
9.96938
10.01
10.0276
10.0332
10.0312
10.0167
9.97702
9.91376
9.82488
9.70262
9.55694
9.39603
9.22713
9.08092
8.9778
8.91045
8.88218
8.90406
8.96812
9.05156
9.16419
9.31785
9.48291
9.60909
9.67993
9.69243
9.65478
9.58171
9.51537
9.47969
9.4743
9.50051
9.54602
9.56978
9.55513
9.5264
9.52177
9.54488
9.59462
9.70148
9.86714
10.0711
10.3083
10.5642
10.8148
11.0583
11.3083
11.563
11.7934
11.9793
12.2494
13.0994
15.3918
19.5653
24.1009
0.00100055
0.0010148
0.013337
1.21266
7.33462
11.6601
13.6551
14.2599
14.1355
13.6217
12.9646
12.3063
11.7414
11.2993
10.9194
10.517
10.0462
9.53594
9.04966
8.59653
8.20714
7.92193
7.72218
7.59816
7.56675
7.61274
7.68232
7.71155
7.69217
7.61944
7.53008
7.44938
7.35326
7.23185
7.12026
7.06283
7.08094
7.17362
7.30986
7.46567
7.62689
7.79821
7.97516
8.13558
8.2659
8.37421
8.47658
8.59056
8.68753
8.71639
8.68891
8.63781
8.56208
8.43017
8.25819
8.0856
7.92193
7.77107
7.64494
7.54397
7.44448
7.31134
7.12672
6.91811
6.72281
6.53916
6.37198
6.23565
6.1368
6.06297
6.00942
5.98987
6.01573
6.09623
6.22063
6.3787
6.54516
6.70306
6.85109
6.9845
7.09071
7.14938
7.14867
7.12165
7.09673
7.10136
7.17647
7.36836
7.7145
8.15873
8.49158
8.53906
8.34574
8.06819
7.89803
7.8585
7.87401
7.88608
7.8691
7.78731
7.62112
7.40517
7.17631
6.9431
6.70633
6.52061
6.55528
7.21504
9.16891
12.0769
14.7482
15.9938
16.2771
15.8554
14.8405
13.4351
11.8572
10.3084
8.91543
7.73586
6.7834
6.04687
5.50496
5.14162
4.95253
4.92892
5.06186
5.41792
6.15549
7.37772
8.63938
9.58641
10.5374
11.2624
11.6307
11.8775
12.2656
12.7995
13.2397
13.3695
13.1551
12.6246
11.9402
11.2135
10.5155
9.89773
9.38143
8.9789
8.69844
8.49492
8.28346
8.0147
7.68854
7.35768
7.06061
6.8212
6.6604
6.5946
6.63543
6.79133
7.01712
7.25905
7.46491
7.59506
7.62393
7.58119
7.485
7.34216
7.17223
7.02671
6.94835
6.94717
7.01893
7.12423
7.21795
7.24942
7.21137
7.10289
6.96234
6.83387
6.74186
6.70747
6.74306
6.84388
6.9795
7.12862
7.26534
7.3742
7.44667
7.48436
7.49089
7.48995
7.49045
7.48933
7.48364
7.45867
7.40564
7.32417
7.22063
7.10355
6.98982
6.89467
6.8128
6.7416
6.69345
6.67407
6.68166
6.72926
6.82117
6.95476
7.09784
7.22584
7.32377
7.37971
7.38649
7.37796
7.37918
7.4046
7.44576
7.493
7.51461
7.50027
7.45662
7.40755
7.36026
7.3164
7.29906
7.32618
7.40075
7.51285
7.65716
7.81989
7.99606
8.20198
8.45406
8.73428
8.99751
9.26793
9.77457
11.0621
13.5698
16.5023
0.0010002
0.0010037
0.00103253
0.012266
0.791432
4.52905
7.52373
9.05311
9.63822
9.67057
9.41472
9.04191
8.66917
8.35911
8.10606
7.86155
7.57979
7.27649
6.98541
6.67225
6.32754
6.03517
5.81709
5.63482
5.50546
5.44221
5.4265
5.43303
5.42909
5.4037
5.35979
5.31857
5.27288
5.20361
5.1123
5.02188
4.95625
4.92801
4.93485
4.97494
5.02665
5.0947
5.1808
5.27461
5.3651
5.45128
5.54111
5.64562
5.76309
5.86271
5.91588
5.93612
5.93598
5.91993
5.87047
5.81024
5.75886
5.7067
5.64575
5.58118
5.51322
5.42944
5.31547
5.18245
5.05303
4.91568
4.76005
4.60969
4.48414
4.38428
4.29928
4.22931
4.18492
4.17087
4.19497
4.25473
4.33247
4.41803
4.51079
4.60899
4.70398
4.77974
4.81933
4.82214
4.81475
4.79728
4.79942
4.89452
5.14376
5.51605
5.87573
6.07053
6.0379
5.8518
5.66875
5.59227
5.57247
5.56047
5.55154
5.52892
5.46317
5.34557
5.20157
5.0514
4.90681
4.84778
5.00304
5.73147
7.52337
10.0442
12.2725
13.2148
13.1615
12.4936
11.5127
10.3763
9.18344
8.03085
6.98445
6.08688
5.36407
4.81945
4.43557
4.19184
4.08111
4.09675
4.24891
4.55017
5.07116
5.92085
6.97101
7.94204
8.75178
9.32025
9.69535
9.87863
10.0089
10.1734
10.3855
10.5727
10.561
10.2715
9.77873
9.21564
8.64921
8.11215
7.62783
7.21676
6.89903
6.66794
6.47423
6.27047
6.01404
5.72504
5.4277
5.14541
4.90064
4.71443
4.60327
4.5801
4.65801
4.8295
5.03367
5.2113
5.31869
5.3531
5.34825
5.31429
5.24724
5.1613
5.07821
5.0201
4.99641
5.01126
5.05604
5.08131
5.07172
5.03053
4.96866
4.90359
4.82615
4.73828
4.67938
4.6679
4.69965
4.75492
4.82215
4.89168
4.95288
4.99351
5.01305
5.0305
5.05569
5.08761
5.12313
5.15335
5.16951
5.16184
5.12458
5.06076
4.9851
4.91021
4.83757
4.76618
4.70217
4.65331
4.62481
4.62155
4.65949
4.73897
4.84771
4.96963
5.09996
5.22835
5.33125
5.41302
5.49781
5.57931
5.64146
5.67798
5.67947
5.65993
5.61621
5.56289
5.50423
5.43699
5.36815
5.31231
5.28118
5.27818
5.31117
5.3684
5.44597
5.55259
5.70591
5.90623
6.12141
6.33186
6.59251
7.12158
8.27103
9.91368
0.000999758
0.000998495
0.000999473
0.00101394
0.00349448
0.262017
1.95201
4.09984
5.36593
5.97354
6.16303
6.13184
5.99134
5.83118
5.69088
5.55256
5.39385
5.22847
5.07283
4.90287
4.68643
4.44838
4.23585
4.05097
3.90311
3.79572
3.72971
3.69885
3.68916
3.68892
3.68399
3.67172
3.65193
3.61419
3.55514
3.47929
3.39755
3.32156
3.2595
3.2166
3.19034
3.18284
3.19182
3.22286
3.26065
3.30889
3.37395
3.45986
3.56397
3.66886
3.75274
3.8069
3.83981
3.85811
3.85836
3.85744
3.87931
3.91542
3.94508
3.94814
3.93184
3.89055
3.82319
3.74666
3.6787
3.6108
3.52489
3.42492
3.32411
3.2286
3.14031
3.06171
2.99741
2.94342
2.90018
2.86828
2.85236
2.85213
2.87229
2.90974
2.95627
3.00242
3.03737
3.04931
3.05025
3.05731
3.07953
3.1602
3.32655
3.56962
3.83158
4.02376
4.05144
3.96511
3.84223
3.77267
3.76758
3.77487
3.7929
3.80027
3.78966
3.74731
3.68103
3.60684
3.56433
3.66012
4.03502
4.71106
5.85842
7.21995
8.39375
8.94643
8.98224
8.72812
8.29844
7.72306
7.02162
6.26269
5.52511
4.87558
4.35973
3.98886
3.74512
3.60022
3.53541
3.54318
3.64143
3.83347
4.13697
4.62119
5.30437
6.08597
6.8428
7.45324
7.8656
8.09381
8.21657
8.24845
8.25081
8.33753
8.36974
8.2172
7.87752
7.46347
7.0359
6.62119
6.22502
5.86118
5.55311
5.31386
5.11663
4.92232
4.70041
4.45219
4.1986
3.95551
3.72201
3.50541
3.32179
3.19253
3.15671
3.22447
3.39739
3.55944
3.66813
3.72185
3.73915
3.74042
3.7333
3.70873
3.66673
3.60981
3.54841
3.49559
3.45711
3.42522
3.3881
3.34554
3.31002
3.29214
3.27148
3.21902
3.13783
3.06058
3.01057
2.99378
3.00041
3.02816
3.06287
3.09749
3.12946
3.16575
3.20709
3.24907
3.29193
3.33543
3.37751
3.40624
3.40471
3.37949
3.33064
3.27453
3.21979
3.16959
3.12623
3.09021
3.0622
3.04761
3.04828
3.07244
3.12141
3.19599
3.30366
3.43684
3.5761
3.71507
3.86229
3.999
4.10539
4.17671
4.21233
4.21516
4.19816
4.164
4.12182
4.07431
4.02173
3.96524
3.90829
3.85644
3.81443
3.78192
3.76522
3.7682
3.81035
3.89496
4.00742
4.13159
4.26646
4.45763
4.84369
5.55907
0.000999569
0.000996978
0.000994511
0.000993277
0.000993218
0.00116522
0.0234574
0.383872
1.50873
2.55019
3.17534
3.50066
3.64634
3.71319
3.73444
3.72487
3.67941
3.6084
3.52921
3.43902
3.31701
3.16468
3.01233
2.88695
2.79065
2.70912
2.64148
2.59895
2.58934
2.60959
2.63747
2.64174
2.63239
2.59993
2.547
2.47738
2.3976
2.31479
2.23419
2.16078
2.09697
2.0455
2.00851
1.98444
1.97354
1.97707
1.99772
2.03392
2.08473
2.14984
2.2191
2.28421
2.33661
2.373
2.39977
2.42811
2.4748
2.5407
2.60935
2.66597
2.68932
2.68163
2.65546
2.6242
2.59688
2.5712
2.54236
2.51064
2.47961
2.44202
2.39684
2.34453
2.28476
2.21699
2.14437
2.07257
2.00912
1.96125
1.93104
1.91534
1.9118
1.9136
1.91433
1.90798
1.90066
1.90194
1.92289
1.98831
2.09553
2.24455
2.40665
2.53852
2.57995
2.55914
2.52869
2.53112
2.57235
2.61204
2.64748
2.67994
2.69762
2.69454
2.67817
2.65374
2.67788
2.86047
3.20794
3.72253
4.40089
5.06211
5.62716
6.0652
6.39688
6.58649
6.56658
6.31983
5.86465
5.29746
4.72529
4.24268
3.90076
3.68445
3.5505
3.4649
3.40568
3.36659
3.35429
3.38927
3.49916
3.70669
4.05082
4.51988
5.05959
5.58693
5.99324
6.24057
6.38949
6.46852
6.47237
6.47149
6.44456
6.33173
6.14365
5.91416
5.65932
5.39135
5.11757
4.84512
4.58901
4.36908
4.18104
3.99489
3.79455
3.58937
3.39805
3.21863
3.02605
2.81347
2.60596
2.43854
2.37509
2.42312
2.56272
2.6742
2.7378
2.76384
2.76631
2.75953
2.7418
2.71482
2.67743
2.62454
2.55616
2.47803
2.39727
2.31959
2.24734
2.18349
2.13353
2.10116
2.0784
2.05123
2.00751
1.94955
1.89043
1.84589
1.8213
1.8104
1.81084
1.82445
1.85508
1.89852
1.95025
1.99741
2.03769
2.07564
2.11312
2.14404
2.15806
2.15395
2.13323
2.10524
2.07956
2.05786
2.03955
2.02341
2.00839
1.99617
1.9891
1.98949
2.00425
2.04763
2.1235
2.23048
2.359
2.4919
2.62033
2.74887
2.87881
2.99356
3.07696
3.12516
3.1433
3.14172
3.12798
3.10635
3.08075
3.05152
3.01419
2.96517
2.90661
2.84404
2.78382
2.73304
2.70183
2.69304
2.70385
2.73505
2.77696
2.83174
2.92025
3.10384
0.000999171
0.000995678
0.000992191
0.000989163
0.000986518
0.000983369
0.000983249
0.00147201
0.0188889
0.172473
0.565754
1.14125
1.76493
2.20925
2.44836
2.55646
2.59169
2.59344
2.5826
2.54702
2.47538
2.38501
2.31266
2.26686
2.21501
2.14903
2.08289
2.04298
2.04214
2.07759
2.10844
2.11039
2.09089
2.04937
1.99181
1.92144
1.84384
1.76383
1.68487
1.61001
1.54055
1.47726
1.42204
1.37653
1.3435
1.32488
1.31435
1.30741
1.30857
1.32228
1.35383
1.39549
1.44516
1.49863
1.55123
1.60211
1.65981
1.72594
1.78646
1.83525
1.86597