/*--------------------------------*- C++ -*----------------------------------*\
  =========                 |
  \\      /  F ield         | OpenFOAM: The Open Source CFD Toolbox
   \\    /   O peration     | Website:  https://openfoam.org
    \\  /    A nd           | Version:  7
     \\/     M anipulation  |
\*---------------------------------------------------------------------------*/
FoamFile
{
    version     2.0;
    format      ascii;
    class       volScalarField;
    location    "200";
    object      nut;
}
// * * * * * * * * * * * * * * * * * * * * * * * * * * * * * * * * * * * * * //

dimensions      [0 2 -1 0 0 0 0];

internalField   nonuniform List<scalar> 
96800
(
0.000120026
0.000119985
0.000119938
0.000119874
0.000119816
0.000119777
0.000119745
0.00011972
0.000119699
0.00011968
0.000119664
0.000119656
0.000119658
0.00011968
0.000119719
0.000119777
0.000119847
0.000119926
0.000120008
0.000120078
0.000120108
0.000120028
0.000120009
0.000119895
0.000119828
0.000119751
0.000119685
0.000119634
0.000119597
0.000119569
0.000119547
0.000119527
0.000119511
0.000119503
0.000119508
0.00011953
0.000119571
0.000119626
0.000119695
0.000119774
0.000119859
0.000119939
0.000119994
0.000120005
0.000120036
0.000119902
0.000119806
0.000119705
0.000119617
0.000119548
0.000119498
0.000119463
0.000119437
0.000119416
0.0001194
0.000119394
0.000119401
0.000119425
0.000119462
0.000119514
0.000119579
0.000119658
0.00011975
0.000119848
0.000119937
0.000120007
0.000120066
0.00011992
0.000119799
0.000119669
0.000119554
0.000119463
0.000119399
0.000119355
0.000119324
0.000119303
0.00011929
0.000119287
0.000119297
0.00011932
0.000119354
0.000119401
0.000119462
0.000119542
0.00011964
0.000119753
0.000119866
0.000119961
0.000120094
0.000119939
0.000119795
0.000119639
0.000119498
0.000119387
0.000119309
0.000119257
0.000119225
0.000119204
0.000119195
0.000119197
0.000119211
0.000119233
0.000119264
0.000119305
0.000119362
0.000119441
0.000119545
0.000119669
0.000119797
0.000119907
0.000120112
0.000119949
0.000119787
0.000119608
0.000119447
0.000119321
0.000119233
0.000119177
0.000119144
0.000119128
0.000119124
0.000119133
0.000119149
0.00011917
0.000119197
0.000119233
0.000119286
0.000119364
0.000119473
0.000119606
0.000119746
0.000119866
0.000120119
0.00011995
0.000119774
0.000119577
0.0001194
0.000119264
0.000119171
0.000119115
0.000119086
0.000119075
0.00011908
0.000119095
0.000119112
0.000119132
0.000119154
0.000119185
0.000119234
0.000119313
0.000119426
0.000119569
0.00011972
0.000119848
0.000120121
0.000119946
0.000119759
0.00011955
0.000119361
0.000119218
0.000119124
0.000119071
0.000119048
0.000119047
0.00011906
0.000119079
0.000119097
0.000119112
0.000119128
0.000119154
0.000119201
0.000119281
0.000119403
0.000119557
0.00011972
0.000119853
0.000120123
0.000119944
0.000119749
0.000119531
0.000119334
0.000119187
0.000119093
0.000119045
0.00011903
0.000119036
0.000119056
0.000119078
0.000119094
0.000119104
0.000119113
0.000119134
0.000119179
0.000119265
0.000119396
0.000119562
0.000119736
0.000119878
0.000120131
0.000119949
0.000119747
0.000119522
0.000119322
0.000119173
0.00011908
0.000119035
0.000119026
0.000119038
0.000119061
0.000119083
0.000119095
0.000119098
0.000119102
0.000119117
0.000119163
0.000119254
0.000119395
0.000119575
0.000119761
0.000119911
0.000120148
0.000119964
0.000119757
0.000119527
0.000119323
0.000119172
0.00011908
0.000119038
0.00011903
0.000119043
0.000119067
0.000119085
0.000119092
0.000119089
0.000119086
0.0001191
0.000119148
0.000119246
0.000119398
0.000119592
0.000119792
0.000119951
0.000120176
0.00011999
0.000119777
0.000119543
0.000119336
0.000119184
0.000119092
0.000119048
0.000119038
0.000119047
0.000119066
0.00011908
0.000119081
0.000119073
0.000119068
0.000119083
0.000119138
0.000119245
0.000119411
0.000119618
0.000119832
0.00012
0.000120214
0.000120025
0.000119809
0.000119569
0.000119359
0.000119205
0.00011911
0.000119063
0.000119046
0.000119046
0.000119055
0.000119062
0.00011906
0.000119051
0.00011905
0.000119073
0.000119139
0.000119259
0.000119439
0.000119662
0.000119889
0.000120066
0.000120261
0.00012007
0.000119849
0.000119604
0.000119389
0.000119231
0.000119132
0.00011908
0.000119055
0.000119043
0.000119041
0.000119039
0.000119034
0.00011903
0.000119038
0.000119073
0.000119154
0.000119291
0.000119487
0.000119727
0.000119968
0.000120154
0.000120316
0.000120122
0.000119895
0.000119643
0.000119421
0.000119258
0.000119155
0.000119096
0.000119065
0.000119043
0.000119025
0.000119014
0.000119011
0.000119014
0.000119033
0.000119086
0.000119186
0.000119342
0.000119557
0.000119815
0.000120071
0.000120266
0.000120372
0.000120176
0.00011994
0.00011968
0.000119451
0.000119282
0.000119174
0.000119112
0.000119075
0.000119049
0.00011902
0.000118999
0.000118998
0.000119007
0.00011904
0.000119114
0.000119234
0.00011941
0.000119646
0.000119921
0.000120193
0.000120397
0.000120418
0.000120218
0.000119975
0.000119706
0.00011947
0.000119298
0.000119189
0.000119126
0.000119088
0.00011906
0.000119028
0.000119002
0.000119001
0.000119018
0.000119066
0.000119157
0.000119296
0.000119492
0.000119746
0.00012004
0.000120326
0.000120539
0.000120434
0.000120231
0.000119982
0.000119708
0.000119471
0.000119302
0.000119198
0.000119142
0.000119109
0.000119085
0.000119059
0.000119033
0.00011903
0.000119051
0.000119112
0.000119217
0.00011937
0.000119582
0.000119853
0.000120163
0.000120464
0.000120686
0.000120393
0.00012019
0.000119939
0.000119667
0.000119439
0.000119285
0.0001192
0.000119161
0.000119143
0.000119131
0.000119117
0.000119098
0.000119093
0.000119114
0.000119178
0.000119291
0.000119455
0.00011968
0.000119966
0.00012029
0.000120603
0.000120836
0.000120261
0.00012006
0.000119815
0.000119558
0.000119355
0.000119235
0.000119187
0.000119181
0.000119192
0.000119202
0.000119205
0.000119203
0.000119199
0.000119213
0.00011927
0.000119385
0.000119556
0.000119791
0.000120089
0.000120426
0.000120752
0.000120993
0.00011999
0.000119795
0.000119565
0.000119337
0.000119182
0.000119121
0.000119136
0.000119188
0.000119246
0.000119292
0.000119322
0.000119339
0.00011935
0.000119363
0.000119404
0.000119511
0.000119683
0.000119926
0.000120236
0.000120588
0.000120926
0.000121175
0.000119499
0.000119316
0.000119108
0.000118928
0.000118847
0.000118881
0.000118998
0.000119146
0.000119282
0.000119387
0.000119458
0.000119503
0.000119532
0.000119558
0.000119602
0.000119687
0.000119856
0.000120106
0.000120431
0.000120798
0.000121151
0.000121409
0.000118639
0.000118474
0.000118296
0.000118181
0.00011821
0.000118391
0.000118671
0.000118975
0.000119244
0.00011945
0.000119593
0.000119685
0.000119745
0.000119791
0.000119849
0.000119927
0.000120093
0.000120356
0.000120699
0.000121086
0.000121455
0.000121724
0.000117129
0.000116992
0.000116847
0.000116817
0.000117
0.000117401
0.000117943
0.000118511
0.000119013
0.000119403
0.000119681
0.000119866
0.000119985
0.000120071
0.000120152
0.000120251
0.000120419
0.000120701
0.000121067
0.000121477
0.000121866
0.00012215
0.000114515
0.000114413
0.000114293
0.000114353
0.000114735
0.000115454
0.000116405
0.000117418
0.000118337
0.000119075
0.000119616
0.000119986
0.000120229
0.000120396
0.000120531
0.000120678
0.000120854
0.000121163
0.000121559
0.000121998
0.000122412
0.000122711
0.000110268
0.000110196
0.000110062
0.000110175
0.000110755
0.000111866
0.000113396
0.000115105
0.000116734
0.000118107
0.000119157
0.0001199
0.000120399
0.000120733
0.000120978
0.000121197
0.000121427
0.000121762
0.000122198
0.000122673
0.000123116
0.000123434
0.00010426
0.000104176
0.000103926
0.000103945
0.000104571
0.000105981
0.00010813
0.000110744
0.000113435
0.000115864
0.000117834
0.000119295
0.000120308
0.000120986
0.000121452
0.000121812
0.000122143
0.000122515
0.000123008
0.00012353
0.000124008
0.00012435
9.76343e-05
9.74453e-05
9.69101e-05
9.65404e-05
9.67871e-05
9.801e-05
0.000100369
0.000103709
0.000107589
0.000111465
0.000114885
0.000117601
0.00011958
0.000120936
0.000121844
0.000122481
0.000122994
0.000123449
0.000124018
0.000124604
0.000125129
0.000125502
9.31342e-05
9.27317e-05
9.17598e-05
9.06754e-05
8.99566e-05
9.01148e-05
9.16091e-05
9.46534e-05
9.90544e-05
0.000104231
0.000109424
0.000113988
0.000117578
0.000120163
0.000121918
0.000123092
0.000123931
0.0001246
0.000125261
0.000125943
0.000126537
0.000126955
9.35507e-05
9.28856e-05
9.1452e-05
8.95525e-05
8.75747e-05
8.60187e-05
8.5491e-05
8.65982e-05
8.97347e-05
9.4813e-05
0.000101143
0.000107675
0.000113464
0.000118001
0.000121236
0.000123409
0.000124866
0.000125927
0.000126763
0.000127601
0.000128303
0.000128788
9.96896e-05
9.87766e-05
9.69454e-05
9.43556e-05
9.12829e-05
8.81109e-05
8.53474e-05
8.36352e-05
8.37334e-05
8.63253e-05
9.15893e-05
9.88198e-05
0.000106628
0.000113655
0.000119147
0.000123013
0.00012559
0.000127343
0.000128573
0.000129634
0.000130504
0.000131093
0.000110714
0.000109575
0.000107381
0.000104219
0.00010031
9.59516e-05
9.15061e-05
8.74225e-05
8.43252e-05
8.30825e-05
8.46937e-05
8.97472e-05
9.76652e-05
0.000106688
0.00011492
0.000121296
0.000125727
0.000128679
0.000130654
0.00013208
0.000133225
0.00013397
0.000125608
0.000124244
0.000121667
0.000117956
0.00011333
0.000108063
0.000102439
9.67511e-05
9.1377e-05
8.68916e-05
8.42291e-05
8.47003e-05
8.94075e-05
9.79894e-05
0.000108237
0.000117599
0.00012474
0.000129648
0.000132869
0.000134978
0.000136543
0.000137518
0.000143771
0.000142174
0.000139176
0.000134891
0.000129563
0.000123475
0.000116889
0.000110032
0.000103135
9.65015e-05
9.06646e-05
8.66289e-05
8.60438e-05
9.05811e-05
0.000100061
0.000111628
0.000122043
0.000129808
0.000134998
0.0001383
0.000140524
0.000141845
0.000165036
0.000163189
0.000159739
0.000154846
0.000148793
0.000141885
0.000134387
0.000126503
0.000118403
0.00011026
0.000102333
9.51443e-05
8.98248e-05
8.84486e-05
9.33132e-05
0.000104194
0.000117274
0.000128628
0.000136724
0.00014194
0.000145213
0.000147069
0.000189687
0.000187559
0.000183623
0.000178083
0.00017127
0.00016351
0.000155075
0.000146158
0.000136909
0.000127451
0.000117927
0.000108583
9.99838e-05
9.34869e-05
9.17832e-05
9.78564e-05
0.000110918
0.00012572
0.000137634
0.000145697
0.000150627
0.00015332
0.000218519
0.00021605
0.00021158
0.00020534
0.000197712
0.000189039
0.000179589
0.000169545
0.000159048
0.00014821
0.000137141
0.000125983
0.000115006
0.000104887
9.74002e-05
9.62232e-05
0.000104935
0.000121084
0.000137316
0.000149325
0.000156761
0.000160726
0.000252909
0.000250024
0.000244969
0.000237964
0.000229434
0.000219735
0.000209119
0.000197757
0.000185786
0.000173323
0.000160484
0.000147395
0.000134231
0.000121326
0.000109589
0.000101597
0.00010257
0.000115926
0.00013569
0.000152534
0.000163634
0.000169419
0.000294714
0.000291347
0.000285682
0.000277861
0.000268327
0.000257432
0.000245413
0.000232429
0.000218621
0.00020412
0.00018907
0.000173628
0.000157975
0.000142348
0.000127203
0.000113928
0.000106658
0.000112702
0.000132797
0.000154999
0.000171116
0.000179539
0.000346217
0.000342328
0.000336099
0.00032747
0.000316853
0.000304569
0.000290832
0.000275802
0.000259638
0.000242504
0.000224594
0.000206129
0.000187348
0.000168511
0.000149934
0.000132321
0.000118105
0.00011448
0.000130013
0.000156846
0.00017908
0.000191244
0.000410019
0.000405624
0.000399
0.00038969
0.000377986
0.000364119
0.000348269
0.000330629
0.000311413
0.000290849
0.000269212
0.00024682
0.000224004
0.000201101
0.000178442
0.000156485
0.000136482
0.000123442
0.000129688
0.000158209
0.000187416
0.000204685
0.000489123
0.000484307
0.000477637
0.000467936
0.000455221
0.000439541
0.000421051
0.00040005
0.000376878
0.000351864
0.0003254
0.000297933
0.000269927
0.000241833
0.000214054
0.000187021
0.000161442
0.000140194
0.00013464
0.000159437
0.000195965
0.000220013
0.000587077
0.000582006
0.000575466
0.000566183
0.000552514
0.000534669
0.000512818
0.000487482
0.000459199
0.000428447
0.000395776
0.000361812
0.000327212
0.000292586
0.000258419
0.000225171
0.000193385
0.000164621
0.000147101
0.000162613
0.000205237
0.000237394
0.000708046
0.000703086
0.000697763
0.000688711
0.000674222
0.00065368
0.000627497
0.000596524
0.000561613
0.000523483
0.000482905
0.000440757
0.000397956
0.000355291
0.000313315
0.000272516
0.000233402
0.000196909
0.000168223
0.000170173
0.000216014
0.00025702
0.000856512
0.000851972
0.00084884
0.000840211
0.000825192
0.00080104
0.000769092
0.000730629
0.000687063
0.000639523
0.000589092
0.00053696
0.000484306
0.000432035
0.000380718
0.000330872
0.000283018
0.000237846
0.000198476
0.000184732
0.000228184
0.000279277
0.00103729
0.00103374
0.00103388
0.00102652
0.00101039
0.000980917
0.000940973
0.000892464
0.000837702
0.000778426
0.000716096
0.000652226
0.000588172
0.000524804
0.000462604
0.000402097
0.000343879
0.000288587
0.000238199
0.000208347
0.00024316
0.000304456
0.00125584
0.00125399
0.00125856
0.00125279
0.00123371
0.00119634
0.00114526
0.00108356
0.00101473
0.000941274
0.000865066
0.000787841
0.00071094
0.000635038
0.000560467
0.000487721
0.000417482
0.000350448
0.000288031
0.000242208
0.000263502
0.000333395
0.00151765
0.00151807
0.00152758
0.0015224
0.00149752
0.00144835
0.00138231
0.00130391
0.00121801
0.00112803
0.00103617
0.000944169
0.000853136
0.000763429
0.000675244
0.000589018
0.000505369
0.00042503
0.000349218
0.000287255
0.000291344
0.000367084
0.00182799
0.00183071
0.00184435
0.0018369
0.00180272
0.00173694
0.00165154
0.00155273
0.0014468
0.00133799
0.00122871
0.00112056
0.00101434
0.000910035
0.000807655
0.000707432
0.000609622
0.000514705
0.000423928
0.000345071
0.000328909
0.00040648
0.00219095
0.00219528
0.00221069
0.00219721
0.00214936
0.00206138
0.0019518
0.00182887
0.00170012
0.0015703
0.00144182
0.00131612
0.00119373
0.00107439
0.000957789
0.000843657
0.000731563
0.00062145
0.000514418
0.000417539
0.000378585
0.000452987
0.00261025
0.0026147
0.00262794
0.00260332
0.00253649
0.00242014
0.00228152
0.00213133
0.00197777
0.00182542
0.00167633
0.00153168
0.0013919
0.00125668
0.00112544
0.000997278
0.000870858
0.000745469
0.000621744
0.00050598
0.000442421
0.000509157
0.00308945
0.00309177
0.00309691
0.00305334
0.00296095
0.00281149
0.00264113
0.00246296
0.0022846
0.00210932
0.00193845
0.00177302
0.00161364
0.00146015
0.00131195
0.00116797
0.00102635
0.000885567
0.000745397
0.000610928
0.00052234
0.000577272
0.00363252
0.00362979
0.00361961
0.00354877
0.00342304
0.00324451
0.00304583
0.00284313
0.00264183
0.00244327
0.00224828
0.00205821
0.00187414
0.00169636
0.00152484
0.00135945
0.00119902
0.00104146
0.000884904
0.00073268
0.000620007
0.00065983
0.00424539
0.00423515
0.00420572
0.00410839
0.00394805
0.00375468
0.0035367
0.00331476
0.00309105
0.00286586
0.00264056
0.00241762
0.00219919
0.00198654
0.00178085
0.00158377
0.00139623
0.00121694
0.00104236
0.000872912
0.000737321
0.000760183
0.00494269
0.00492492
0.00488157
0.00477094
0.00459371
0.0043931
0.00417076
0.003931
0.00367994
0.00341915
0.00315178
0.00288229
0.00261506
0.00235344
0.00210026
0.00185882
0.001632
0.00142082
0.00122258
0.00103489
0.00087729
0.00088251
0.00575692
0.00573585
0.00569446
0.00559324
0.00542838
0.0052202
0.00500381
0.00473803
0.00444751
0.00413617
0.00381022
0.00347698
0.00314351
0.00281599
0.0024998
0.00219987
0.00192034
0.00166414
0.00143176
0.00122193
0.00104275
0.00102943
0.00674085
0.00672479
0.00670795
0.00664028
0.00650514
0.00630141
0.00607559
0.00576867
0.00541928
0.00503676
0.00463241
0.00421717
0.00380044
0.00339043
0.00299482
0.00262051
0.00227303
0.00195741
0.00167775
0.00143794
0.00123675
0.00120439
0.00796258
0.00796182
0.00799247
0.00797731
0.00787767
0.0076765
0.00741878
0.00704467
0.00660902
0.00612969
0.00562438
0.00510815
0.00459252
0.00408634
0.00359756
0.00313419
0.00270314
0.00231169
0.0019693
0.00168801
0.00146188
0.00141204
0.00949371
0.00951762
0.00961253
0.00965779
0.00958594
0.00936788
0.00904897
0.00857355
0.00801842
0.00741173
0.00677969
0.00614215
0.00551236
0.00489865
0.00430709
0.00374456
0.00321839
0.00273665
0.00231467
0.00197775
0.00171771
0.00164918
0.0113976
0.011453
0.0116197
0.0117209
0.0116566
0.0113902
0.0109638
0.0103486
0.00963394
0.00886415
0.00807688
0.00729741
0.00653994
0.00581082
0.00511224
0.00444716
0.00382067
0.00324019
0.00272475
0.00231465
0.00200346
0.00191136
0.0137122
0.0138043
0.0140428
0.0141853
0.0140973
0.0137483
0.0131438
0.0123375
0.0114161
0.0104454
0.00947481
0.00853513
0.00764072
0.00679454
0.00599306
0.00523222
0.00451053
0.00383188
0.00321667
0.00271536
0.00232998
0.00221846
0.0164422
0.0165754
0.0168797
0.0170358
0.0168755
0.0163826
0.0155306
0.0144701
0.0132948
0.0120891
0.0109128
0.0098004
0.0087655
0.00780682
0.00691427
0.00607526
0.00527812
0.0045174
0.00381027
0.00321048
0.0027414
0.00268092
0.019549
0.0197217
0.0200693
0.0201902
0.0198934
0.0191412
0.018
0.0166275
0.0151584
0.0136948
0.0123028
0.0110176
0.0098496
0.00879243
0.00782878
0.006938
0.00609855
0.00529231
0.00452594
0.00385065
0.00339714
0.0039618
0.0229516
0.0231376
0.0234634
0.0234714
0.022954
0.0218649
0.0203636
0.0186367
0.0168524
0.0151276
0.01353
0.0120906
0.0108141
0.00968689
0.00868361
0.00777676
0.00693989
0.0061484
0.00539823
0.00473941
0.00494709
0.00695332
0.0265143
0.0266418
0.0268133
0.0265847
0.0257382
0.0242747
0.0223772
0.0202844
0.0181979
0.01624
0.0144725
0.0129178
0.0115723
0.0104145
0.00941239
0.00853396
0.00775595
0.00706757
0.00648763
0.0062791
0.00805383
0.0106946
0.0299352
0.029945
0.0297058
0.0291449
0.0279432
0.0260758
0.0237877
0.0213509
0.0190011
0.0168767
0.0150082
0.0133979
0.0120347
0.0108898
0.0099319
0.00912714
0.0084658
0.00798518
0.00779704
0.00843647
0.0113121
0.0141278
4.05286e-05
0.000779851
0.0128381
0.0239906
0.0310739
0.0351034
0.0364593
0.0357202
0.0338384
0.0315011
0.0291664
0.0270795
0.025318
0.0238404
0.0225511
0.021362
0.0202418
0.0192449
0.0184493
0.0178792
0.017513
0.0173095
0.0172425
0.0172902
0.017404
0.0175298
0.017627
0.0176769
0.0177105
0.0177542
0.0178462
0.0179989
0.018216
0.0185181
0.018904
0.0193849
0.0198321
0.0201676
0.0203736
0.020483
0.0205616
0.0206693
0.0208258
0.0210118
0.0211956
0.0213454
0.021419
0.0213628
0.0211882
0.0209498
0.0206632
0.0203844
0.0201207
0.019906
0.0197791
0.0197512
0.0198142
0.0199421
0.0200716
0.0201117
0.0199822
0.0196496
0.0191544
0.0186047
0.0180814
0.0176213
0.0172376
0.0169488
0.0167563
0.0166464
0.0166339
0.016746
0.0170095
0.0174039
0.0178641
0.0183254
0.0187428
0.0191167
0.0194541
0.0197372
0.0199418
0.0200659
0.0201481
0.0202621
0.0204494
0.0206969
0.0209862
0.0212321
0.0213511
0.0212926
0.0210477
0.0206004
0.0201299
0.0198686
0.0198374
0.0198985
0.0199164
0.0197897
0.0194713
0.0189974
0.0184283
0.0178761
0.0174207
0.0171569
0.0172795
0.0179398
0.0198872
0.0232101
0.027205
0.0302812
0.0318683
0.0316555
0.0312487
0.0304906
0.0289855
0.0267979
0.0242338
0.0216103
0.0191494
0.0169595
0.0150663
0.0134611
0.0121257
0.0110303
0.0101495
0.0094624
0.00895003
0.00873802
0.00889202
0.00994431
0.0129095
0.0159807
0.0184743
0.0193378
0.0214702
0.0242865
0.0271133
0.0290534
0.0297871
0.0295069
0.0283894
0.0268585
0.0252563
0.0238067
0.0226083
0.0216899
0.0210258
0.0205311
0.0200854
0.0195665
0.0189215
0.0181977
0.017475
0.0168456
0.0164367
0.0163761
0.0166367
0.0172786
0.0180011
0.0185994
0.0189208
0.0189192
0.0186865
0.0182977
0.0178022
0.0173272
0.0169825
0.0168662
0.0170619
0.0175263
0.0181855
0.0188455
0.0192873
0.0194515
0.01938
0.0190815
0.0187114
0.0184205
0.0183505
0.018573
0.0190068
0.0195798
0.0200825
0.0204151
0.020572
0.0205719
0.0204448
0.0202655
0.0200355
0.0197908
0.0195777
0.0194171
0.0193134
0.0192679
0.0192596
0.0192897
0.019326
0.0193398
0.0193111
0.0192512
0.0191954
0.0191815
0.0192309
0.0193278
0.0195019
0.0196658
0.01983
0.0199853
0.0201168
0.0202019
0.0202239
0.020191
0.0200781
0.0199551
0.0198597
0.0198061
0.0197929
0.019781
0.0197364
0.0196287
0.0194671
0.0192968
0.019185
0.0191332
0.019162
0.0192686
0.0194347
0.0196277
0.0198385
0.0200742
0.0203338
0.0206046
0.0208531
0.0210422
0.0211592
0.0212194
0.0213194
0.0218687
0.0238895
0.0277372
0.0322463
0.0357649
9.09626e-06
0.000292769
0.00931567
0.0216346
0.029361
0.0336624
0.0352989
0.0348028
0.0331161
0.0309187
0.0286653
0.0266206
0.0248839
0.0234218
0.0221386
0.0209515
0.0198359
0.0188506
0.0180687
0.0174969
0.0171078
0.0168708
0.0167737
0.0168072
0.0169395
0.0170714
0.017167
0.0172249
0.0172763
0.0172951
0.0173664
0.0174878
0.0176835
0.0179578
0.0183029
0.0187225
0.0191827
0.0195378
0.0197696
0.0199001
0.0199885
0.0200941
0.0202358
0.0203995
0.0205643
0.0207077
0.0208018
0.0207411
0.0205731
0.020326
0.0200767
0.0198065
0.019529
0.019298
0.0191521
0.0191043
0.0191485
0.0192624
0.0194027
0.0194594
0.0193637
0.019093
0.0186166
0.0181026
0.0176202
0.017197
0.016819
0.0165286
0.0163532
0.0162372
0.0162184
0.0162541
0.0164708
0.0168177
0.017238
0.0176806
0.0180917
0.0184553
0.0187935
0.0190761
0.019279
0.0193978
0.0194676
0.0195665
0.0197471
0.0199397
0.0202318
0.0204944
0.0206493
0.0206131
0.0203989
0.0199654
0.0194878
0.0192483
0.0192415
0.0193198
0.0193558
0.01925
0.0189794
0.0185403
0.0179819
0.017432
0.0169542
0.0166294
0.0166206
0.0171161
0.0187606
0.0218805
0.0259123
0.0292318
0.0305318
0.0311088
0.0311959
0.0304413
0.0287387
0.0263458
0.0236604
0.0209938
0.0185484
0.0164102
0.0145877
0.0130615
0.0118106
0.0108149
0.0100486
0.00947286
0.00911598
0.00903327
0.00941303
0.0102687
0.0123662
0.0152606
0.0174616
0.0187623
0.0207104
0.0232317
0.0259374
0.0279797
0.0288145
0.0287228
0.0277207
0.0263076
0.0247902
0.0233863
0.022205
0.0212827
0.020599
0.0200905
0.0196512
0.0191533
0.0185351
0.0178359
0.017125
0.0164877
0.016052
0.0159471
0.0161264
0.0166766
0.0173546
0.0179638
0.0183513
0.0184178
0.0182267
0.0179057
0.0174322
0.0169716
0.01661
0.0164325
0.0165455
0.016927
0.0174572
0.0180876
0.0185461
0.018774
0.0187368
0.0185002
0.0181409
0.0178567
0.0177669
0.0179523
0.0183256
0.0188306
0.0193263
0.0197021
0.0199286
0.0199697
0.0198911
0.0197312
0.0195301
0.0193066
0.0191001
0.018937
0.0188352
0.0187609
0.0187268
0.0187285
0.0187531
0.0187613
0.0187243
0.0186658
0.0186122
0.0186093
0.0186599
0.0187481
0.0189121
0.0190532
0.0192018
0.0193513
0.0194936
0.0195806
0.0196138
0.0196063
0.0195267
0.0194172
0.0193464
0.0193118
0.0193146
0.0193271
0.0193158
0.0192538
0.0190957
0.0189288
0.0188067
0.0187328
0.0187104
0.0187653
0.0189009
0.0190623
0.0192438
0.0194525
0.0196857
0.0199401
0.0201936
0.0203801
0.0205021
0.0205889
0.0206937
0.0211461
0.0229538
0.0266285
0.0311039
0.0344752
9.01704e-06
8.18002e-06
0.00132832
0.0141296
0.0234726
0.0288115
0.0311872
0.0315415
0.030465
0.028713
0.026754
0.024892
0.0232751
0.0219069
0.0207072
0.0195959
0.0185445
0.0176001
0.016821
0.0162079
0.0157552
0.0154497
0.0152858
0.0152658
0.0153578
0.0155269
0.0156648
0.0157452
0.0157944
0.0158181
0.0158637
0.0159409
0.0160365
0.0161739
0.0164006
0.0167059
0.0171203
0.0174776
0.0177493
0.0179217
0.0180313
0.0181285
0.0182334
0.0183409
0.0184472
0.01855
0.0186303
0.0186411
0.0185356
0.018361
0.0181456
0.0179294
0.0176951
0.0174636
0.017291
0.0172017
0.0171941
0.0172685
0.017393
0.0174923
0.0174814
0.0172996
0.0169579
0.0165508
0.0161496
0.0157751
0.0154342
0.0151624
0.0149696
0.0148071
0.0147021
0.014681
0.0147816
0.0149951
0.0153031
0.0156667
0.0160339
0.016387
0.0167189
0.0170036
0.0172136
0.0173348
0.0173655
0.017397
0.0174882
0.0176319
0.0178512
0.01812
0.0183737
0.0185122
0.018421
0.0181085
0.0176811
0.0174157
0.0173751
0.0174452
0.0175105
0.0174629
0.0173114
0.0169645
0.0164977
0.0159951
0.0155133
0.0151011
0.0148632
0.0150447
0.0158825
0.0184598
0.022604
0.0266538
0.0290468
0.0299658
0.0298586
0.0288639
0.0269999
0.0246004
0.0220305
0.0195326
0.0172688
0.0153033
0.0136392
0.0122571
0.0111376
0.0102649
0.009621
0.00918114
0.00892043
0.0089403
0.00937005
0.0100971
0.0114844
0.0134406
0.0154614
0.0169171
0.0183043
0.0202092
0.0224928
0.0245838
0.0258081
0.0261383
0.0255969
0.0245458
0.0232779
0.0220041
0.0208578
0.0199098
0.0191728
0.0186275
0.0182011
0.0177626
0.0172232
0.0165956
0.0159335
0.0153097
0.0148269
0.014571
0.014562
0.0148245
0.0153104
0.0158792
0.0163677
0.0166426
0.0166697
0.0165007
0.0161702
0.0157722
0.0153982
0.0151053
0.0149849
0.0151004
0.0154166
0.0159008
0.0163798
0.0166903
0.0167835
0.0166851
0.0164314
0.0161596
0.0159905
0.0160044
0.0161976
0.0165658
0.0170251
0.0174385
0.0177493
0.0179251
0.0179666
0.0179018
0.0177664
0.0175958
0.0174103
0.0172463
0.0171423
0.0170531
0.0169889
0.0169529
0.0169314
0.016915
0.0168843
0.0168356
0.0167933
0.0167764
0.0167856
0.0168286
0.0169182
0.0170317
0.0171425
0.0172734
0.0174242
0.01756
0.0176542
0.0177053
0.0177096
0.0176729
0.0176364
0.0176348
0.0176768
0.0177403
0.0178307
0.017857
0.0177498
0.0175888
0.0174333
0.0172941
0.0171918
0.017138
0.0171557
0.0172267
0.017327
0.0174557
0.0176087
0.0177834
0.0179799
0.018189
0.0183941
0.0185658
0.0187104
0.019058
0.0203184
0.0232419
0.0271532
0.0300933
9.00693e-06
9.09931e-06
3.48401e-05
0.00249999
0.01409
0.0211386
0.0248206
0.0261885
0.0260517
0.0249934
0.0235459
0.0220417
0.0206723
0.0194947
0.0184635
0.017513
0.0166094
0.0157762
0.0150471
0.0144112
0.0138916
0.0135152
0.0132705
0.0131488
0.013147
0.0132453
0.013384
0.0134965
0.0135532
0.0136113
0.0136775
0.0137517
0.0138012
0.0138308
0.0138907
0.0140176
0.0142288
0.0145245
0.0147583
0.0149274
0.0150337
0.0151072
0.0151686
0.0152212
0.0152707
0.0153274
0.0153945
0.0154604
0.0154718
0.0154007
0.0153053
0.0151829
0.0150503
0.0148854
0.0147327
0.0146337
0.0145986
0.0146297
0.0147197
0.0148303
0.0148914
0.014835
0.0146452
0.0143739
0.0140764
0.013766
0.0134613
0.0131938
0.0129773
0.0127994
0.0126524
0.0125534
0.0125021
0.0125621
0.0127169
0.012953
0.0132329
0.0135288
0.0138244
0.0140949
0.0143091
0.0144447
0.0144679
0.0144634
0.0144646
0.0145029
0.0146263
0.0148587
0.0152141
0.0155667
0.0157148
0.0155995
0.0152754
0.0149663
0.0148187
0.014816
0.0148716
0.0148741
0.0148232
0.0146331
0.01432
0.0139382
0.0135379
0.0131527
0.0128336
0.0127374
0.0132129
0.0153047
0.0199923
0.0246629
0.0273102
0.0279639
0.0273746
0.0261
0.0241902
0.0220165
0.0197672
0.0176085
0.0156441
0.0139243
0.0124651
0.0112611
0.0102958
0.00955278
0.00901434
0.00870186
0.00849495
0.0085551
0.00892755
0.00953659
0.0103538
0.0116044
0.0131046
0.0143458
0.0154048
0.0165931
0.0181942
0.0200399
0.0215865
0.0223432
0.0224151
0.0218257
0.0209012
0.0198509
0.0188172
0.0178962
0.0171297
0.0165349
0.0160911
0.0157087
0.0152842
0.0147734
0.0141972
0.013625
0.0131167
0.0127211
0.0124755
0.012417
0.0125694
0.0129627
0.0134715
0.0139591
0.014286
0.0143738
0.0142268
0.013981
0.0136663
0.0133398
0.0130749
0.012945
0.0129895
0.0131898
0.0135264
0.0138652
0.0140573
0.0140798
0.013983
0.0137814
0.0135828
0.0134649
0.0134709
0.0136224
0.0139052
0.0142938
0.0146241
0.0148673
0.0150026
0.0150369
0.0149892
0.0148789
0.0147099
0.0145576
0.0144567
0.0144121
0.0143987
0.0143736
0.0143522
0.0143303
0.014303
0.0142657
0.0142292
0.0142035
0.0141824
0.014171
0.0141858
0.0142268
0.0142916
0.0144016
0.0145302
0.0146859
0.0148358
0.0149662
0.0150746
0.0151662
0.0152206
0.0153074
0.0154201
0.0155844
0.0157796
0.0158906
0.0158282
0.0157157
0.0155533
0.0153686
0.0151847
0.0150214
0.0149066
0.0148228
0.0148022
0.0148122
0.014852
0.0149201
0.0150241
0.0151798
0.015386
0.0156032
0.0157896
0.0160305
0.0167117
0.0185173
0.0213921
0.0238358
9.00755e-06
9.05521e-06
9.07684e-06
3.77923e-05
0.00210456
0.0110628
0.0167097
0.0194992
0.0204772
0.0203717
0.0196169
0.0186187
0.0176105
0.0167047
0.0159058
0.0151692
0.0144646
0.0138154
0.0132321
0.0126688
0.0121369
0.0117117
0.011393
0.0111477
0.0109955
0.0109393
0.0109605
0.0110469
0.011147
0.0113023
0.0114706
0.0116206
0.011708
0.0117169
0.0116785
0.0116438
0.0116491
0.0117043
0.0117869
0.0118997
0.0119527
0.0119902
0.0120154
0.0120308
0.0120426
0.0120646
0.0121111
0.012189
0.0122748
0.0123219
0.0123071
0.0122779
0.0122174
0.0121631
0.0120736
0.0120143
0.0120073
0.0120396
0.0121112
0.0122101
0.0123013
0.0123351
0.0122783
0.0121528
0.0119938
0.0117953
0.0115649
0.0113442
0.0111568
0.0109989
0.0108515
0.0107147
0.0105944
0.0105037
0.010472
0.0105283
0.0106413
0.0108029
0.0110045
0.0112236
0.0114212
0.0115595
0.0116129
0.0115789
0.0115598
0.0115376
0.0115545
0.0117421
0.0121088
0.012546
0.0128563
0.012905
0.0127523
0.0124586
0.0122599
0.0122238
0.0122604
0.0122981
0.0123133
0.0122705
0.0121361
0.0119192
0.0116631
0.0113975
0.0111639
0.0111464
0.0116313
0.0137725
0.0182197
0.0223805
0.0245206
0.024808
0.0241138
0.0227498
0.0211608
0.0194252
0.0176291
0.0158631
0.014207
0.0127264
0.0114666
0.0104398
0.00962804
0.0090044
0.00856428
0.00826529
0.00809456
0.00810108
0.00831313
0.00874724
0.00930205
0.0100602
0.0110447
0.0119951
0.0128831
0.0136321
0.0145775
0.0158217
0.0172041
0.018258
0.018676
0.01855
0.0179964
0.0172574
0.0164593
0.0156824
0.0149805
0.0143925
0.0139395
0.0135923
0.0132649
0.0128845
0.0124229
0.0119228
0.0114246
0.0109656
0.0105778
0.0103019
0.01018
0.0102726
0.0106563
0.011323
0.0119898
0.0123961
0.0124689
0.0122947
0.012036
0.0117641
0.0114837
0.0112299
0.0110596
0.0109949
0.0110291
0.0111535
0.0113322
0.0113751
0.0113528
0.0112589
0.0111289
0.0110161
0.0109368
0.0109151
0.0109897
0.0111546
0.011401
0.0116446
0.0118126
0.0119175
0.011957
0.0119343
0.0118559
0.0117841
0.0117442
0.0117349
0.0117476
0.0117603
0.0117574
0.0117439
0.0117179
0.0116816
0.0116408
0.0116045
0.0115706
0.0115395
0.011523
0.0115295
0.0115598
0.0116034
0.0117226
0.0118601
0.0120221
0.0121939
0.012385
0.0125943
0.0128066
0.0130384
0.0133015
0.0135798
0.0138329
0.0140058
0.0140202
0.0139649
0.0138303
0.0136541
0.0134564
0.0132502
0.0130551
0.012885
0.0127394
0.0125981
0.0125043
0.0124305
0.0123886
0.0124053
0.0124935
0.0126362
0.0127846
0.0129335
0.0132136
0.0140124
0.0156669
0.017462
9.00205e-06
9.01024e-06
9.03593e-06
9.06417e-06
1.555e-05
0.00094497
0.00650887
0.0113423
0.0138372
0.0148627
0.0150089
0.0147534
0.0142459
0.0137649
0.0133272
0.0128909
0.0124354
0.0119877
0.0115607
0.0111234
0.0106632
0.010228
0.00985661
0.00954329
0.0092983
0.00912878
0.00904186
0.00905984
0.00919088
0.00947761
0.00984871
0.010158
0.0103317
0.0103475
0.0102471
0.0100877
0.00991748
0.00976833
0.00965314
0.00957239
0.00950475
0.00945319
0.00939658
0.00937463
0.00933456
0.00930869