/*--------------------------------*- C++ -*----------------------------------*\
  =========                 |
  \\      /  F ield         | OpenFOAM: The Open Source CFD Toolbox
   \\    /   O peration     | Website:  https://openfoam.org
    \\  /    A nd           | Version:  7
     \\/     M anipulation  |
\*---------------------------------------------------------------------------*/
FoamFile
{
    version     2.0;
    format      ascii;
    class       volScalarField;
    location    "200";
    object      p;
}
// * * * * * * * * * * * * * * * * * * * * * * * * * * * * * * * * * * * * * //

dimensions      [0 2 -2 0 0 0 0];

internalField   nonuniform List<scalar> 
96800
(
50.186
50.186
50.186
50.1859
50.1859
50.1859
50.1859
50.1858
50.1857
50.1856
50.1855
50.1854
50.1853
50.1853
50.1852
50.1852
50.1852
50.1852
50.1852
50.1851
50.1851
50.1851
50.186
50.186
50.186
50.186
50.1859
50.1859
50.1859
50.1858
50.1857
50.1856
50.1855
50.1854
50.1853
50.1853
50.1852
50.1852
50.1852
50.1852
50.1852
50.1851
50.1851
50.1851
50.186
50.186
50.186
50.186
50.186
50.1859
50.1859
50.1858
50.1857
50.1856
50.1855
50.1854
50.1854
50.1853
50.1852
50.1852
50.1852
50.1852
50.1852
50.1852
50.1852
50.1852
50.186
50.186
50.186
50.186
50.186
50.1859
50.1859
50.1858
50.1858
50.1857
50.1856
50.1855
50.1854
50.1853
50.1853
50.1853
50.1852
50.1852
50.1852
50.1852
50.1852
50.1852
50.186
50.186
50.186
50.186
50.186
50.1859
50.1859
50.1859
50.1858
50.1857
50.1856
50.1855
50.1855
50.1854
50.1853
50.1853
50.1853
50.1853
50.1853
50.1853
50.1853
50.1853
50.186
50.186
50.186
50.186
50.186
50.1859
50.1859
50.1858
50.1858
50.1858
50.1857
50.1856
50.1855
50.1855
50.1854
50.1854
50.1853
50.1853
50.1853
50.1853
50.1853
50.1853
50.186
50.186
50.186
50.186
50.1859
50.1859
50.1859
50.1858
50.1858
50.1858
50.1858
50.1857
50.1856
50.1856
50.1855
50.1854
50.1854
50.1854
50.1854
50.1854
50.1854
50.1854
50.186
50.186
50.186
50.1859
50.1859
50.1859
50.1858
50.1858
50.1858
50.1858
50.1858
50.1858
50.1857
50.1856
50.1856
50.1855
50.1855
50.1855
50.1855
50.1855
50.1855
50.1855
50.1859
50.1859
50.1859
50.1859
50.1859
50.1858
50.1858
50.1858
50.1858
50.1858
50.1858
50.1858
50.1858
50.1857
50.1857
50.1856
50.1856
50.1856
50.1856
50.1856
50.1856
50.1856
50.1858
50.1858
50.1858
50.1858
50.1858
50.1858
50.1858
50.1858
50.1858
50.1858
50.1858
50.1858
50.1858
50.1858
50.1858
50.1858
50.1857
50.1857
50.1857
50.1857
50.1857
50.1857
50.1857
50.1857
50.1857
50.1857
50.1858
50.1858
50.1858
50.1858
50.1858
50.1858
50.1859
50.1859
50.1859
50.1859
50.1859
50.1859
50.1859
50.1859
50.1858
50.1858
50.1858
50.1858
50.1857
50.1857
50.1857
50.1857
50.1857
50.1857
50.1857
50.1858
50.1858
50.1858
50.1859
50.1859
50.186
50.186
50.186
50.186
50.186
50.186
50.186
50.186
50.186
50.186
50.1856
50.1856
50.1856
50.1856
50.1856
50.1857
50.1857
50.1857
50.1858
50.1858
50.1859
50.186
50.186
50.1861
50.1861
50.1861
50.1861
50.1861
50.1861
50.1861
50.1861
50.1861
50.1855
50.1855
50.1855
50.1855
50.1855
50.1856
50.1857
50.1857
50.1858
50.1858
50.1859
50.186
50.1861
50.1862
50.1862
50.1862
50.1862
50.1862
50.1862
50.1862
50.1863
50.1863
50.1854
50.1854
50.1854
50.1854
50.1855
50.1855
50.1856
50.1857
50.1858
50.1859
50.1859
50.186
50.1861
50.1862
50.1863
50.1863
50.1864
50.1864
50.1864
50.1864
50.1864
50.1864
50.1853
50.1853
50.1853
50.1854
50.1854
50.1855
50.1855
50.1857
50.1858
50.1859
50.186
50.1861
50.1862
50.1863
50.1864
50.1864
50.1865
50.1865
50.1865
50.1865
50.1866
50.1866
50.1852
50.1852
50.1853
50.1853
50.1853
50.1854
50.1855
50.1856
50.1857
50.1859
50.186
50.1861
50.1862
50.1863
50.1865
50.1866
50.1866
50.1867
50.1867
50.1867
50.1867
50.1867
50.1852
50.1852
50.1852
50.1852
50.1853
50.1854
50.1855
50.1856
50.1857
50.1859
50.186
50.1861
50.1863
50.1864
50.1865
50.1867
50.1868
50.1869
50.1869
50.1869
50.1869
50.1869
50.1851
50.1851
50.1852
50.1852
50.1853
50.1853
50.1854
50.1856
50.1857
50.1859
50.186
50.1862
50.1863
50.1865
50.1866
50.1868
50.1869
50.187
50.1871
50.1871
50.1871
50.1871
50.1851
50.1851
50.1851
50.1852
50.1852
50.1853
50.1854
50.1855
50.1857
50.1859
50.1861
50.1862
50.1864
50.1866
50.1867
50.1869
50.1871
50.1872
50.1873
50.1873
50.1874
50.1874
50.1851
50.1851
50.1851
50.1851
50.1852
50.1853
50.1854
50.1855
50.1857
50.1859
50.1861
50.1863
50.1865
50.1867
50.1869
50.1871
50.1873
50.1874
50.1875
50.1876
50.1876
50.1876
50.1851
50.185
50.1851
50.1851
50.1852
50.1853
50.1854
50.1855
50.1857
50.1859
50.1862
50.1864
50.1866
50.1868
50.187
50.1873
50.1875
50.1876
50.1878
50.1878
50.1879
50.1879
50.185
50.185
50.185
50.1851
50.1851
50.1853
50.1854
50.1856
50.1858
50.186
50.1862
50.1865
50.1868
50.187
50.1873
50.1875
50.1877
50.1879
50.1881
50.1882
50.1882
50.1883
50.1849
50.1849
50.1849
50.185
50.1851
50.1852
50.1854
50.1856
50.1858
50.1861
50.1863
50.1866
50.1869
50.1872
50.1875
50.1878
50.188
50.1882
50.1884
50.1885
50.1886
50.1886
50.1847
50.1847
50.1848
50.1849
50.185
50.1852
50.1854
50.1856
50.1859
50.1862
50.1865
50.1868
50.1872
50.1875
50.1878
50.1881
50.1884
50.1886
50.1888
50.189
50.189
50.1891
50.1844
50.1845
50.1846
50.1847
50.1849
50.1851
50.1854
50.1856
50.1859
50.1862
50.1866
50.187
50.1874
50.1878
50.1881
50.1885
50.1888
50.189
50.1893
50.1894
50.1896
50.1896
50.1842
50.1842
50.1843
50.1845
50.1847
50.185
50.1853
50.1856
50.186
50.1863
50.1867
50.1872
50.1877
50.1881
50.1885
50.1889
50.1892
50.1895
50.1898
50.19
50.1901
50.1902
50.1839
50.1839
50.1841
50.1843
50.1845
50.1848
50.1852
50.1856
50.186
50.1864
50.1869
50.1874
50.1879
50.1885
50.1889
50.1894
50.1897
50.1901
50.1904
50.1906
50.1908
50.1909
50.1836
50.1836
50.1838
50.184
50.1843
50.1846
50.185
50.1855
50.186
50.1865
50.187
50.1876
50.1882
50.1889
50.1894
50.1899
50.1903
50.1907
50.1911
50.1914
50.1916
50.1917
50.1832
50.1832
50.1834
50.1836
50.184
50.1844
50.1848
50.1854
50.1859
50.1866
50.1872
50.1879
50.1886
50.1893
50.1899
50.1905
50.191
50.1915
50.1919
50.1922
50.1925
50.1926
50.1826
50.1827
50.1829
50.1832
50.1836
50.1841
50.1846
50.1852
50.1859
50.1866
50.1874
50.1882
50.189
50.1897
50.1905
50.1912
50.1918
50.1923
50.1928
50.1932
50.1934
50.1936
50.1819
50.182
50.1822
50.1825
50.183
50.1836
50.1843
50.185
50.1858
50.1867
50.1876
50.1885
50.1894
50.1903
50.1911
50.1919
50.1927
50.1933
50.1938
50.1942
50.1945
50.1947
50.1809
50.181
50.1813
50.1817
50.1823
50.183
50.1838
50.1847
50.1857
50.1867
50.1877
50.1888
50.1898
50.1909
50.1919
50.1928
50.1936
50.1943
50.1949
50.1954
50.1958
50.1959
50.1796
50.1797
50.18
50.1806
50.1813
50.1821
50.1831
50.1842
50.1854
50.1866
50.1879
50.1891
50.1903
50.1915
50.1927
50.1937
50.1947
50.1955
50.1962
50.1968
50.1971
50.1974
50.1779
50.1779
50.1784
50.1791
50.1799
50.181
50.1822
50.1835
50.1849
50.1864
50.1879
50.1894
50.1909
50.1922
50.1936
50.1948
50.1959
50.1969
50.1977
50.1983
50.1987
50.199
50.1755
50.1756
50.1762
50.177
50.1781
50.1794
50.1809
50.1825
50.1842
50.1861
50.1879
50.1897
50.1914
50.193
50.1945
50.196
50.1973
50.1984
50.1993
50.2001
50.2006
50.2008
50.1724
50.1725
50.1732
50.1742
50.1756
50.1773
50.1791
50.1811
50.1832
50.1854
50.1877
50.1898
50.1919
50.1938
50.1956
50.1973
50.1988
50.2002
50.2012
50.2021
50.2027
50.203
50.1683
50.1684
50.1693
50.1706
50.1723
50.1744
50.1767
50.1792
50.1818
50.1845
50.1872
50.1898
50.1923
50.1946
50.1968
50.1988
50.2006
50.2022
50.2034
50.2044
50.2051
50.2054
50.1629
50.1631
50.1642
50.1658
50.168
50.1706
50.1735
50.1766
50.1798
50.1831
50.1864
50.1896
50.1926
50.1955
50.1981
50.2005
50.2027
50.2045
50.206
50.2071
50.2079
50.2083
50.1558
50.156
50.1574
50.1595
50.1623
50.1655
50.1691
50.173
50.1771
50.1811
50.1851
50.189
50.1928
50.1963
50.1995
50.2024
50.2049
50.2072
50.209
50.2103
50.2112
50.2116
50.1464
50.1466
50.1484
50.1512
50.1547
50.1588
50.1634
50.1683
50.1733
50.1783
50.1833
50.1881
50.1927
50.197
50.2009
50.2044
50.2075
50.2102
50.2124
50.2139
50.215
50.2155
50.1339
50.1341
50.1365
50.14
50.1446
50.1499
50.1556
50.1618
50.1681
50.1744
50.1806
50.1866
50.1923
50.1976
50.2024
50.2067
50.2104
50.2136
50.2162
50.2181
50.2193
50.2199
50.1173
50.1175
50.1205
50.1252
50.1311
50.1379
50.1453
50.1531
50.1611
50.169
50.1768
50.1843
50.1914
50.1979
50.2038
50.209
50.2136
50.2174
50.2206
50.2229
50.2243
50.2249
50.095
50.0953
50.0992
50.1053
50.113
50.1217
50.1312
50.1412
50.1514
50.1615
50.1714
50.1808
50.1896
50.1977
50.205
50.2114
50.217
50.2217
50.2255
50.2284
50.23
50.2307
50.0651
50.0654
50.0705
50.0786
50.0886
50.1
50.1123
50.1251
50.1382
50.1511
50.1636
50.1755
50.1865
50.1966
50.2058
50.2137
50.2206
50.2263
50.231
50.2346
50.2365
50.2372
50.0249
50.0252
50.0321
50.0427
50.0558
50.0706
50.0866
50.1032
50.12
50.1365
50.1525
50.1676
50.1815
50.1943
50.2057
50.2156
50.2241
50.2313
50.237
50.2414
50.2438
50.2445
49.9709
49.9713
49.9803
49.9942
50.0115
50.0309
50.0517
50.0733
50.095
50.1164
50.137
50.1562
50.1739
50.19
50.2043
50.2167
50.2273
50.2361
50.2432
50.2486
50.2517
50.2524
49.8986
49.8991
49.9106
49.9291
49.9519
49.9774
50.0047
50.0329
50.0611
50.0889
50.1153
50.1399
50.1625
50.1828
50.2008
50.2164
50.2296
50.2405
50.2493
50.256
50.26
50.2606
49.8023
49.8023
49.8171
49.8416
49.872
49.9058
49.9418
49.9788
50.0157
50.0516
50.0855
50.117
50.1457
50.1714
50.1941
50.2136
50.2301
50.2437
50.2546
50.263
50.2681
50.2687
49.6743
49.6732
49.6924
49.7251
49.7658
49.8107
49.8583
49.907
49.9552
50.0017
50.0453
50.0853
50.1217
50.1541
50.1825
50.2069
50.2275
50.2444
50.258
50.2685
50.275
50.2755
49.5047
49.502
49.5267
49.5704
49.6252
49.6852
49.7483
49.8125
49.8756
49.9356
49.9914
50.0422
50.0879
50.1283
50.1635
50.1939
50.2194
50.2405
50.2574
50.2706
50.2788
50.2793
49.2808
49.2755
49.3074
49.3656
49.4391
49.5197
49.6039
49.6889
49.7714
49.8489
49.9201
49.9841
50.0409
50.0907
50.134
50.1713
50.2028
50.2288
50.2498
50.2662
50.2769
50.2774
48.9865
48.9773
49.0185
49.0955
49.1943
49.3036
49.4169
49.5295
49.6373
49.7373
49.8274
49.9072
49.9768
50.0374
50.0899
50.1349
50.173
50.2047
50.2304
50.2507
50.2643
50.2649
48.5993
48.5858
48.6395
48.742
48.8763
49.0257
49.1786
49.3275
49.4674
49.595
49.7078
49.8058
49.8902
49.963
50.0256
50.0791
50.1242
50.1618
50.1928
50.2174
50.2343
50.235
48.0888
48.0721
48.1434
48.2822
48.4671
48.6711
48.8769
49.0727
49.253
49.4137
49.5527
49.6713
49.7723
49.8586
49.9322
49.9945
50.0471
50.0911
50.1273
50.1564
50.1769
50.1774
47.4151
47.3969
47.4935
47.6843
47.9403
48.2191
48.4945
48.7513
48.9824
49.1829
49.3522
49.4936
49.6121
49.7117
49.7955
49.8664
49.9267
49.9776
50.0196
50.0532
50.0769
50.0766
46.5212
46.5046
46.639
46.9049
47.2599
47.6398
48.0083
48.3451
48.6403
48.8897
49.095
49.262
49.3978
49.5087
49.6003
49.6773
49.7434
49.8004
49.8483
49.8863
49.9124
49.9091
45.3213
45.3136
45.5067
45.8826
46.3758
46.8937
47.3892
47.8317
48.2091
48.5195
48.7679
48.9632
49.1156
49.2345
49.3293
49.4073
49.4738
49.5323
49.5829
49.6236
49.6503
49.6412
43.6901
43.7054
43.9942
44.5342
45.2241
45.9363
46.606
47.1882
47.6707
48.0558
48.3541
48.5793
48.746
48.868
48.9586
49.0289
49.0873
49.1389
49.1846
49.2215
49.2427
49.2213
41.441
41.506
41.9645
42.756
43.7335
44.7232
45.629
46.3928
47.0058
47.4789
47.832
48.0874
48.2658
48.3857
48.4638
48.5149
48.5513
48.5812
48.6072
48.6247
48.6235
48.5752
38.2893
38.4686
39.2566
40.4392
41.8331
43.2128
44.4317
45.4268
46.197
46.7694
47.1796
47.4627
47.6486
47.7608
47.8186
47.8382
47.8344
47.819
47.7979
47.7652
47.7075
47.6032
33.8003
34.2232
35.7391
37.5047
39.4619
41.3698
42.9966
44.2772
45.2288
45.9072
46.3724
46.6771
46.8622
46.9565
46.9809
46.9512
46.8822
46.7884
46.6811
46.5488
46.3728
46.1609
27.3161
28.1759
31.5996
34.0461
36.5918
39.1768
41.3203
42.9335
44.0797
44.8622
45.3758
45.6945
45.8692
45.9321
45.9026
45.7925
45.6134
45.3856
45.1438
44.8412
44.4104
44.0039
17.9045
18.976
23.6587
28.7559
33.1827
36.6336
39.4098
41.3848
42.7196
43.5933
44.1456
44.4719
44.6299
44.6492
44.5398
44.3004
43.9277
43.4442
43.0278
42.4666
41.1762
39.4347
4.23979
0.786096
12.1773
21.5038
28.6187
33.7795
37.3118
39.6318
41.1219
42.0635
42.6427
42.9706
43.1053
43.0692
42.8535
42.4252
41.7202
40.6009
38.6612
35.7397
32.0208
28.4029
-21.3588
-34.9976
-0.304011
15.1068
24.2938
31.028
35.1554
37.6904
39.2597
40.235
40.8265
41.1494
41.2582
41.1621
40.8266
40.1749
39.0665
37.2206
34.0356
28.0207
15.6217
-1.97956
-3.65537
45.0521
31.8459
30.1972
27.2995
26.2039
25.5167
26.2467
27.1052
27.6484
27.8546
27.7986
27.6519
27.41
26.9673
26.5989
26.2029
25.8408
25.7793
25.7776
25.7125
25.6016
25.4764
25.3767
25.3696
25.286
25.1315
24.8544
24.5908
24.2123
24.1929
24.2953
24.4285
24.609
24.7561
24.8819
24.9202
24.9709
25.0361
25.0925
25.1463
25.1494
25.1873
25.2126
25.1186
25.1936
25.317
25.4308
25.4911
25.448
25.4608
25.2068
25.0357
24.803
24.546
24.3887
24.1943
24.0032
23.7697
23.4964
23.189
22.7985
22.4547
22.275
22.5072
22.4939
22.5245
22.4392
22.3729
22.3697
22.2327
22.2709
22.2238
22.1708
22.0077
21.93
21.8575
21.89
22.0034
22.1114
22.2155
22.3173
22.4313
22.6387
22.9044
23.012
23.0966
23.0419
22.7919
22.3588
21.8615
21.0977
20.4783
20.0406
20.4408
20.7302
20.8379
20.7936
20.7108
20.521
20.3529
20.2991
20.2468
20.2154
19.9992
19.7266
18.0512
17.0072
15.0173
5.57889
-172.126
5.16082
0.256333
14.6718
23.1226
29.1865
33.1165
35.567
37.1057
38.0759
38.6678
38.9877
39.0784
38.9327
38.4887
37.6162
36.0829
33.4247
28.3976
17.6946
-8.53887
-70.9965
-282.081
-119.468
-29.7154
-21.0027
-13.6586
-7.42837
-2.901
0.0815556
2.34148
3.9134
5.2727
6.62176
7.81524
8.7024
9.08242
9.19603
9.32172
9.20837
8.91995
8.59334
8.4016
8.23245
8.31103
8.49225
8.67272
8.82807
8.85566
8.84977
8.72054
8.58246
8.39917
8.23598
8.17348
8.12369
8.02888
7.95153
8.02112
8.1075
8.04823
7.9366
7.75449
7.49216
7.215
6.98494
6.66688
6.72833
6.87274
6.99581
6.91978
6.89658
6.81566
6.93821
7.08708
7.21581
7.31786
7.37962
7.44217
7.62421
7.65604
7.70809
7.6041
7.55967
7.49485
7.33471
7.10523
6.89649
6.6549
6.53903
6.49165
6.43924
6.45023
6.43343
6.56164
6.67301
6.78482
6.91117
6.90775
6.76192
6.5905
6.32039
6.07868
5.72918
5.69176
5.77333
5.7075
5.71895
5.77769
5.90323
5.99952
6.19913
6.52694
6.91091
7.2149
7.43308
7.71068
8.03363
8.41774
8.79177
9.20505
9.69529
10.2592
10.9401
11.7437
12.7995
14.0221
15.3089
16.8674
17.5594
11.9456
-4.87883
30.6744
41.1183
36.8615
30.3411
26.815
25.5364
25.3703
25.9343
26.6421
27.1176
27.3283
27.37
27.3219
27.1608
26.7922
26.2977
25.8384
25.5661
25.5671
25.6435
25.6378
25.5378
25.4438
25.4227
25.4554
25.3954
25.1689
24.8389
24.5056
24.2499
24.2265
24.3561
24.5105
24.6592
24.8174
24.9544
25.0273
25.058
25.0832
25.1154
25.1529
25.2032
25.2275
25.2182
25.1912
25.2434
25.3626
25.4855
25.4996
25.4223
25.3566
25.2014
24.9734
24.7289
24.5428
24.4019
24.2486
24.0672
23.8073
23.4417
23.0006
22.5668
22.2628
22.2133
22.359
22.4492
22.4376
22.3646
22.3006
22.2586
22.2645
22.3113
22.3146
22.2442
22.1195
22.0127
21.9481
21.9712
22.0718
22.1808
22.2707
22.3439
22.4445
22.6462
22.8939
23.0732
23.2011
23.2078
23.0016
22.4485
21.5674
20.6399
20.0717
20.0276
20.4163
20.7643
20.899
20.8232
20.6405
20.4279
20.3009
20.3492
20.4077
20.413
20.2599
20.0803
19.6138
20.6483
21.5561
34.5748
-66.4087
-13.5979
2.74097
15.2208
22.6561
27.7049
31.0493
33.226
34.6613
35.6066
36.2036
36.5381
36.6313
36.4585
35.9358
34.908
33.0984
29.9373
24.2122
13.0214
-9.42063
-49.5557
-110.415
-80.9368
-32.9592
-19.7435
-11.499
-5.6797
-2.02657
0.356845
2.17177
3.70012
5.17869
6.62211
7.82075
8.65388
9.12116
9.33174
9.26318
9.01957
8.68815
8.39431
8.19784
8.11065
8.23498
8.52327
8.8511
9.07073
9.11789
8.99219
8.78627
8.55607
8.34427
8.17433
8.053
7.99074
7.9794
8.01304
8.10624
8.22652
8.2451
8.10525
7.84739
7.50361
7.13033
6.81273
6.62638
6.67464
6.86737
7.03444
7.08291
7.03621
6.94591
6.9824
7.08792
7.20606
7.27524
7.31664
7.41862
7.55517
7.63377
7.6646
7.63985
7.60071
7.52159
7.35798
7.12123
6.86755
6.63845
6.4937
6.44434
6.41755
6.42682
6.48371
6.60307
6.73405
6.86085
6.97288
6.98716
6.83408
6.54403
6.22169
5.94619
5.73212
5.64944
5.65188
5.67008
5.69316
5.74117
5.83626
5.96607
6.16604
6.49265
6.87717
7.19621
7.45621
7.73506
8.05175
8.41721
8.82059
9.23969
9.68682
10.2247
10.8911
11.6796
12.5885
13.6061
14.8972
16.9292
20.0977
20.0222
41.2039
34.6714
36.3578
36.2035
30.1547
26.9705
25.8183
25.57
25.8267
26.2157
26.5314
26.7209
26.852
26.9259
26.8095
26.4191
25.8542
25.3492
25.1497
25.2645
25.4528
25.4898
25.4157
25.3557
25.4507
25.5722
25.5493
25.2589
24.8463
24.4356
24.177
24.2243
24.3725
24.5312
24.6922
24.899
25.1077
25.1938
25.1962
25.183
25.1792
25.2205
25.2855
25.3092
25.2802
25.2648
25.3442
25.458
25.5953
25.5185
25.3459
25.2362
25.0894
24.848
24.6023
24.4633
24.3742
24.2654
24.11
23.8384
23.4095
22.8645
22.3282
22.0148
22.0373
22.2366
22.3455
22.3301
22.2892
22.2385
22.2059
22.2615
22.3606
22.4121
22.3642
22.2409
22.123
22.0528
22.0934
22.2069
22.3094
22.3604
22.3745
22.4307
22.6428
22.9354
23.2035
23.4509
23.5829
23.3168
22.5451
21.3389
20.0974
19.5094
19.7598
20.4216
20.9318
21.0728
20.9238
20.6247
20.3478
20.2042
20.2699
20.3678
20.4526
20.4384
20.6925
21.1483
21.5004
21.6014
22.659
-16.3378
7.50971
10.7889
17.6997
22.9046
26.4082
28.9597
30.781
32.0838
33.0078
33.6204
33.9755
34.0879
33.9089
33.3447
32.2351
30.3016
27.0643
21.5968
12.0669
-3.88765
-25.9054
-47.5877
-42.4265
-25.5424
-14.7359
-7.47315
-2.63013
-0.385987
1.09116
2.35191
3.67102
5.10652
6.52828
7.75346
8.65658
9.16391
9.36646
9.29347
8.95939
8.50345
8.12377
7.90183
7.85934
8.08414
8.53501
9.02754
9.34552
9.40136
9.22827
8.91196
8.55942
8.25483
8.0097
7.85386
7.82264
7.8806
7.97885
8.14244
8.30544
8.44163
8.28579
7.95575
7.51278
7.03422
6.63197
6.46113
6.5763
6.86432
7.12327
7.2335
7.17419
7.05602
7.06238
7.14632
7.22768
7.27166
7.32061
7.39775
7.52217
7.6317
7.69783
7.69168
7.65706
7.55287
7.35696
7.0849
6.79833
6.54683
6.3902
6.35332
6.36577
6.42404
6.5342
6.69098
6.83846
6.97138
7.0808
7.08974
6.90035
6.54853
6.18169
5.89002
5.67542
5.57107
5.59369
5.62015
5.65399
5.70234
5.79837
5.9154
6.09736
6.41848
6.81943
7.15173
7.42823
7.71785
8.0283
8.37634
8.76374
9.14899
9.54397
10.0305
10.6429
11.3389
12.0915
12.9779
14.2417
16.2221
19.5798
24.1966
31.8457
33.2073
33.207
32.1863
28.6152
26.9669
26.5229
26.2091
26.2237
26.342
26.4413
26.5714
26.7114
26.7789
26.6183
26.1798
25.5943
25.1124
24.936
25.0189
25.1398
25.2625
25.2926
25.3476
25.5224
25.702
25.6491
25.3351
24.8825
24.4426
24.2167
24.2517
24.3806
24.4945
24.641
24.8691
25.1181
25.2663
25.3098
25.3044
25.2907
25.3217
25.3811
25.3902
25.3526
25.3342
25.4574
25.5942
25.6695
25.524
25.2512
25.0667
24.924
24.7076
24.4657
24.3627
24.3243
24.2375
24.0639
23.7638
23.302
22.7331
22.1823
21.916
22.0011
22.1582
22.2575
22.2485
22.2665
22.2312
22.213
22.2868
22.363
22.4149
22.3795
22.3124
22.2252
22.1798
22.2329
22.3414
22.4232
22.4364
22.3475
22.3982
22.579
22.8706
23.203
23.5784
23.8298
23.4676
22.483
21.0201
19.5465
18.9757
19.4607
20.3992
21.1082
21.2921
21.0983
20.7624
20.4599
20.287
20.3108
20.3839
20.4866
20.6332
20.9584
21.5732
22.1264
22.0682
21.15
5.16803
13.5393
17.3643
20.096
23.0559
25.2794
27.1126
28.5747
29.7144
30.5768
31.1925
31.571
31.6949
31.5014
30.9098
29.7789
27.8667
24.8549
20.1601
12.9002
2.44023
-10.1987
-21.9879
-22.4809
-14.9227
-8.21398
-3.20556
-0.0983977
1.55258
2.33741
3.16433
4.2906
5.56456
6.84122
7.94025
8.76844
9.25425
9.47413
9.42698
9.06658
8.51346
7.98868
7.7168
7.71831
8.03183
8.53492
9.05515
9.36742
9.4778
9.28243
8.93939
8.55403
8.19949
7.91714
7.77853
7.75989
7.83733
7.93005
8.07869
8.27117
8.33897
8.2238
7.90363
7.46273
6.99752
6.6264
6.4764
6.59318
6.87735
7.12434
7.17665
7.14671
7.06532
7.10035
7.21371
7.30868
7.37222
7.41383
7.45467
7.53323
7.67082
7.84406
7.78683
7.67873
7.5258
7.29287
7.00063
6.69769
6.43641
6.28469
6.27751
6.35345
6.46128
6.59941
6.7609
6.91299
7.02771
7.10019
7.07917
6.91087
6.60948
6.28704
5.98276
5.69381
5.51887
5.47911
5.55062
5.62041
5.71628
5.83225
5.95048
6.10612
6.37542
6.7038
7.00767
7.28515
7.59081
7.89206
8.20661
8.5316
8.85123
9.18307
9.5968
10.1096
10.639
11.1215
11.6308
12.3358
13.232
14.2824
17.6326
20.7992
31.3981
31.1514
30.2304
28.33
26.553
26.5342
26.7523
26.8831
26.6872
26.5855
26.6654
26.7735
26.7761
26.5716
26.1332
25.5949
25.1833
24.9985
24.9371
24.89
24.9201
25.1003
25.3289
25.5891
25.7418
25.6486
25.378
24.9421
24.5175
24.3514
24.3728
24.4547
24.5225
24.6211
24.8045
25.0235
25.2026
25.3221
25.3722
25.3863
25.3982
25.4325
25.4214
25.3801
25.3709
25.4702
25.5816
25.6152
25.4192
25.1024
24.8719
24.7327
24.551
24.3333
24.2651
24.285
24.1884
23.9552
23.6101
23.143
22.6279
22.2017
22.0007
22.0647
22.1769
22.196
22.2081
22.2319
22.2138
22.1824
22.2276
22.361
22.4109
22.4366
22.3682
22.329
22.332
22.3752
22.4431
22.4851
22.4938
22.3313
22.3589
22.4978
22.7349
23.1075
23.5126
23.7776
23.3792
22.2863
20.7958
19.0064
18.5131
19.1616
20.3006
21.2525
21.4683
21.2784
20.9593
20.6581
20.4299
20.3947
20.4561
20.5876
20.8578
21.3439
21.8768
21.3579
19.5011
18.9165
13.6635
18.199
20.3011
21.4535
23.0398
24.4691
25.7794
26.9264
27.8902
28.6647
29.2428
29.5975
29.6833
29.439
28.793
27.6432
25.8256
23.1478
19.3177
14.0176
7.2905
0.344718
-3.71959
-5.14877
-4.74243
-2.07523
0.592932
2.17518
2.72731
3.41096
4.21987
5.30074
6.39583
7.40602
8.26744
8.93
9.37909
9.61483
9.61209
9.27261
8.67877
7.9825
7.66821
7.71459
8.0651
8.4998
8.95462
9.16311
9.23362
9.08061
8.78403
8.45778
8.17787
7.98477
7.84709
7.81865
7.87015
7.91665
7.9977
8.10596
8.14443
8.02873
7.75137
7.40863
7.04994
6.79522
6.70509
6.79922
6.96853
7.09406
7.04789
6.92508
6.95982
7.09905
7.27146
7.41767
7.48394
7.53825
7.57639
7.64242
7.71973
7.8341
7.78205
7.66405
7.47176
7.23156
6.93903
6.62303
6.3589
6.22203
6.27909
6.39323
6.53393
6.66799
6.8014
6.92335
7.00962
7.04748
7.0044
6.88433
6.67441
6.42106
6.11437
5.78365
5.52081
5.42243
5.49068
5.60537
5.7524
5.88433
6.01644
6.11346
6.33495
6.57187
6.82384
7.077
7.37343
7.64742
7.93005
8.18512
8.42636
8.68553
9.00672
9.39198
9.74952
9.97905
10.1179
10.2763
10.4314
10.2598
9.40153
7.96193
30.0045
29.796
29.141
28.0949
27.0724
26.5728
26.9366
27.2159
26.9335
26.6853
26.7564
26.8374
26.7878
26.6229
26.2565
25.8292
25.4812
25.1851
24.985
24.779
24.6545
24.8484
25.1538
25.5187
25.5579
25.4799
25.2755
25.0232
24.7063
24.5673
24.5534
24.5933
24.6377
24.6945
24.793
24.9362
25.0941
25.2286
25.3108
25.3446
25.3718
25.3848
25.3677
25.3298
25.3159
25.374
25.429
25.4189
25.2332
24.9096
24.65
24.503
24.3708
24.2362
24.2571
24.2404
24.1117
23.8277
23.453
23.0104
22.5613
22.2691
22.1784
22.222
22.2628
22.2087
22.1082
22.1138
22.149
22.2114
22.2278
22.3936
22.3726
22.4012
22.3968
22.4095
22.4515
22.4689
22.467
22.4552
22.4125
22.394
22.3727
22.4457
22.5643
22.8694
23.2342
23.444
23.0826
22.0448
20.5904
19.0951
18.5704
19.1602
20.2649
21.2261
21.4091
21.2916
21.0619
20.8217
20.5842
20.4751
20.4588
20.5474
20.8156
21.3099
21.7617
20.8664
19.3843
17.6248
17.4085
20.0541
20.8937
21.6648
22.7762
23.8616
24.8734
25.792
26.5992
27.2726
27.7833
28.0738
28.0843
27.7549
27.0306
25.8369
24.1037
21.7429
18.6579
14.798
10.3406
5.98865
2.89388
1.39241
1.32281
2.35322
3.49155
4.04846
4.06734
4.59036
5.32782
6.36708
7.33197
8.12371
8.73265
9.19857
9.52992
9.73471
9.76764
9.5216
9.03002
8.4476
7.99956
7.94294
8.18379
8.46458
8.71045
8.87597
8.88896
8.73552
8.49766
8.28073
8.13636
8.03494
7.94651
7.86506
7.90268
7.91335
7.9385
7.96753
7.95324
7.83943
7.62411
7.40319
7.18024
7.0451
7.01572
7.08541
7.12483
7.1188
6.94777
6.75989
6.82191
7.02253
7.25781
7.45494
7.52478
7.58457
7.66314
7.7438
7.77399
7.74542
7.6867
7.58904
7.43357
7.24166
6.96376
6.67524
6.40414
6.28834
6.34499
6.47235
6.60668
6.70588
6.79962
6.8801
6.94417
6.96827
6.94503
6.86632
6.72951
6.54571
6.29837
5.98678
5.70527
5.54447
5.54259
5.64325
5.81157
5.9301
6.03421
6.12343
6.25702
6.44007
6.6552
6.88149
7.12463
7.36043
7.58846
7.78361
7.95639
8.14459
8.37706
8.64032
8.84804
8.88226
8.74241
8.49509
8.12258
7.53141
6.10272
7.44299
29.0042
28.8545
28.4238
27.8053
27.2009
26.8315
26.7803
26.8696
26.9781
26.6943
26.792
26.8818
26.7816
26.6648
26.3905
26.072
25.7552
25.5218
25.282
25.0093
24.8127
24.8067
24.9895
25.0187
25.1933
25.2206
25.1603
25.0598
24.9185
24.7996
24.7513
24.7429
24.7602
24.7965
24.8501
24.9225
25.0102
25.0962
25.1573
25.1991
25.2248
25.2333
25.2151
25.167
25.15
25.1437
25.1366
25.0875
24.9461
24.7025
24.4884
24.3525
24.261
24.1955
24.2123
24.1134
24.004
23.7588
23.4283
23.0409
22.6954
22.486
22.4316
22.428
22.3887
22.316
22.1352
22.1278
22.1359
22.1691
22.2094
22.2739
22.3356
22.3519
22.3725
22.4056
22.5026
22.4953
22.4536
22.4177
22.3515
22.3146
22.2992
22.3144
22.3675
22.5089
22.7243
22.8482
22.6142
21.8899
20.7726
19.7997
19.3566
19.7275
20.4034
20.8194
21.1636
21.192
21.105
20.934
20.7549
20.5493
20.385
20.3251
20.4589
20.916
21.1874
20.2727
18.901
18.0603
18.357
19.6606
20.6729
21.616
22.5515
23.3816
24.1577
24.8858
25.5629
26.1286
26.5746
26.7911
26.7172
26.2965
25.4837
24.2488
22.5874
20.497
18.0012
15.1582
12.1316
9.26976
7.04804
5.72748
5.252
5.36289
5.57399
5.47647
5.16914
5.35704
6.17419
7.21456
8.10976
8.77328
9.21466
9.52046
9.731
9.86259
9.87595
9.70516
9.33496
8.86091
8.46627
8.37884
8.41662
8.48916
8.55335
8.59699
8.58729
8.3951
8.17234
8.05701
8.05257
8.03503
7.98075
7.90932
7.90951
7.91129
7.91585
7.90583
7.85518
7.74618
7.59023
7.43154
7.3062
7.23983
7.23351
7.27627
7.27619
7.1956
7.01532
6.79737
6.81749
7.00038
7.23164
7.3807
7.49264
7.53697
7.61387
7.64194
7.64628
7.61184
7.56246
7.5083
7.40657
7.28629
7.08239
6.83559
6.59954
6.47808
6.48047
6.5321
6.59681
6.6887
6.77108
6.84753
6.89398
6.91729
6.90429
6.84598
6.73704
6.57206
6.34086
6.08109
5.87439
5.72051
5.71404
5.63385
5.86338
5.91505
5.99509
6.07842
6.18537
6.32624
6.50661
6.69587
6.88641
7.0565
7.2196
7.35347
7.46491
7.59073
7.74167
7.8946
7.96667
7.86292
7.55114
7.06917
6.41519
5.52052
4.36859
2.44029
28.2829
28.1821
27.8975
27.4988
27.0874
26.7647
26.5733
26.4695
26.4012
26.3685
26.6792
26.939
26.8759
26.7105
26.4614
26.1989
25.9697
25.7703
25.5391
25.2641
25.0071
24.8048
24.8437
24.8466
24.971
25.0949
25.1445
25.1604
25.0239
24.9262
24.869
24.8363
24.831
24.8508
24.8809
24.9097
24.9456
24.986
25.0059
25.0362
25.043
25.0298
24.9859
24.9216
24.8857
24.8617
24.8115
24.7367
24.6821
24.5301
24.3985
24.3062
24.242
24.1922
24.1371
24.0344
23.916
23.7187
23.4806
23.2114
22.9489
22.7505
22.6368
22.5676
22.4959
22.4098
22.3297
22.2473
22.2194
22.2194
22.2329
22.2592
22.2839
22.3064
22.3397
22.3757
22.4219
22.4449
22.4136
22.3406
22.2915
22.2287
22.1678
22.0951
22.044
22.0556
22.1296
22.2125
22.1591
21.8721
21.3834
20.8613
20.5661
20.6731
20.9298
21.0661
21.1879
21.2675
21.2547
21.1103
20.8687
20.6063
20.2997
20.0236
20.0008
20.4162
20.7867
19.7357
19.1122
18.9162
19.4245
20.3133
21.0986
21.7396
22.3192
22.8328
23.381
23.944
24.5065
25.0315
25.4255
25.5891
25.4447
24.9445
24.0626
22.8115
21.2301
19.3843
17.3603
15.2457
13.1549
11.2393
9.66531
8.54274
7.85949
7.47539
7.15478
6.69684
6.22065
6.23775
6.93937
7.84444
8.62279
9.21022
9.59913
9.83223
9.95722
10.0066
9.97499
9.83134
9.56003
9.2083
8.8806
8.75279
8.64984
8.54393
8.47492
8.39914
8.31615
8.092
7.88071
7.9033
8.00104
8.04241
8.01543
7.99398
7.96833
7.9559
7.94762
7.92713
7.87174
7.76961
7.65825
7.54299
7.44651
7.38364
7.34987
7.33966
7.33105
7.24728
7.13042
7.03775
6.99294
7.08881
7.23854
7.38337
7.4138
7.42753
7.4167
7.40597
7.39996
7.41616
7.45137
7.46681
7.4368
7.3257
7.14672
6.95212
6.80343
6.73141
6.67797
6.61428
6.57467
6.65686
6.73614
6.80947
6.87681
6.89426
6.87077
6.8237
6.72185
6.52567
6.25634
6.02076
5.85171
5.69552
5.56258
5.57899
5.67341
5.82188
5.92939
6.01695
6.11123
6.21624
6.35983
6.50907
6.66031
6.75808
6.87192
6.92701
6.97489
7.04008
7.11476
7.14817
7.11321
6.91041
6.51457
5.93385
5.19066
4.21078
2.95545
1.3173
27.7546
27.6835
27.4859
27.203
26.8826
26.5658
26.2643
25.9646
25.7041
25.7718
26.6151
27.0092
26.9238
26.7136
26.4653
26.2275
26.0378
25.8413
25.578
25.2675
25.0208
24.6271
24.8395
24.8324
24.9749
25.134
25.2066
25.17
25.0442
24.9451
24.889
24.8585
24.8489
24.8544
24.8719
24.8863
24.8794
24.8971
24.8991
24.9029
24.8967
24.8578
24.7836
24.7184
24.6912
24.6602
24.5773
24.489
24.3214
24.2845
24.2542
24.2449
24.2491
24.2094
24.1492
24.0522
23.9238
23.7034
23.5333
23.3285
23.1383
22.9565
22.8151
22.7057
22.6059
22.5208
22.436
22.3664
22.3255
22.3041
22.2898
22.2817
22.2831
22.2946
22.3277
22.3607
22.4286
22.4103
22.3578
22.3076
22.2523
22.165
22.0448
21.8738
21.7165
21.6173
21.6298
21.7505
21.8661
21.8807
21.7851
21.5969
21.4069
21.397
21.4446
21.4611
21.5163
21.5544
21.4695
21.3153
20.9722
20.6485
20.3014
19.9898
19.9134
20.2503
20.5629
20.4616
20.114
20.3241
20.7823
21.1532
21.4357
21.5969
21.7949
22.0225
22.3915
22.8624
23.4179
23.8627
24.2646
24.4052
24.2222
23.6768
22.7721
21.5554
20.1019
18.51
16.8792
15.2824
13.8065
12.4946
11.3753
10.4458
9.70106
9.07794
8.51845
7.92421
7.38198
7.28277
7.72539
8.4002
9.05289
9.57092
9.91764
10.1124
10.185
10.1749
10.0973
9.94871
9.73545
9.49668
9.24211
9.05767
8.87636
8.57849
8.42359
8.33593
8.18521
7.99609
7.95534
8.05218
8.14072
8.15738
8.12505
8.09575
8.06674
8.04455
8.02404
7.99754
7.92455
7.84844
7.77892
7.68596
7.59279
7.51398
7.4526
7.40951
7.36092
7.30422
7.25454
7.188
7.16019
7.24605
7.3263
7.39077
7.36086
7.33334
7.21112
7.1055
7.09584
7.19593
7.3539
7.41111
7.49439
7.35006
7.14345
6.97459
6.89245
6.87834
6.76796
6.66129
6.51371
6.61565
6.72036
6.81465
6.86852
6.88197
6.85805
6.80443
6.69272
6.48378
6.22786
6.00298
5.83649
5.69289
5.59317
5.59239
5.69133
5.81531
5.91132
5.98428
6.07511
6.10744
6.22037
6.33038
6.44999
6.51995
6.52743
6.55759
6.5754
6.57208
6.552
6.50276
6.37082
6.10726
5.66518
5.06325
4.31107
3.38069
2.23386
0.850468
27.356
27.3049
27.1607
26.9451
26.674
26.3554
25.9588
25.4357
24.7183
24.3623
25.697
26.3946
26.6041
26.5519
26.3716
26.1737
25.9705
25.7459
25.4568
25.1085
24.8714
24.6461
24.7249
24.8897
25.0959
25.188
25.2591
25.1822
25.0544
24.9542
24.8886
24.8533
24.8403
24.8353
24.8438
24.8486
24.8405
24.8388
24.8338
24.8267
24.8093
24.7635
24.6856
24.6171
24.607
24.5151
24.3758
24.2436
24.1837
24.1615
24.1374
24.1228
24.0996
24.1292
24.1229
24.0854
23.9032
23.7073
23.5685
23.4431
23.2589
23.0949
22.9516
22.8269
22.7159
22.6191
22.5336
22.4649
22.4193
22.387
22.3575
22.3331
22.3202
22.3231
22.3487
22.3788
22.3917