/*--------------------------------*- C++ -*----------------------------------*\
  =========                 |
  \\      /  F ield         | OpenFOAM: The Open Source CFD Toolbox
   \\    /   O peration     | Website:  https://openfoam.org
    \\  /    A nd           | Version:  7
     \\/     M anipulation  |
\*---------------------------------------------------------------------------*/
FoamFile
{
    version     2.0;
    format      ascii;
    class       surfaceScalarField;
    location    "200";
    object      phi;
}
// * * * * * * * * * * * * * * * * * * * * * * * * * * * * * * * * * * * * * //

dimensions      [0 3 -1 0 0 0 0];

internalField   nonuniform List<scalar> 
240592
(
2.64181e-11
-4.2693e-13
-2.59912e-11
-5.11692e-11
7.4007e-11
1.78545e-11
-4.06923e-11
-9.27322e-11
1.07516e-10
1.30079e-11
-2.77917e-11
1.24093e-10
6.07095e-12
-1.27399e-11
-1.17424e-10
-1.29293e-10
1.35275e-10
5.95595e-12
-1.19374e-11
-1.42868e-10
1.52063e-10
8.47211e-12
-1.76671e-11
-1.61835e-10
1.71032e-10
8.97148e-12
-1.81686e-11
-1.78598e-10
1.83908e-10
4.92877e-12
-1.02382e-11
-1.86365e-10
1.85121e-10
-1.1333e-13
1.35681e-12
-1.81908e-10
1.7883e-10
-2.31027e-12
5.38785e-12
-1.76749e-10
1.76729e-10
-3.45435e-13
3.65057e-13
-1.7854e-10
1.81544e-10
2.8264e-12
-5.8306e-12
-1.84896e-10
1.87966e-10
2.73739e-12
-5.80662e-12
1.91328e-10
-1.53786e-13
-9.15131e-13
-1.90259e-10
-1.89928e-10
1.86886e-10
-2.71263e-12
5.7542e-12
-1.8266e-10
1.77332e-10
-4.90431e-12
1.02321e-11
-1.71175e-10
1.64097e-10
-6.33903e-12
1.34163e-11
-1.5525e-10
1.43912e-10
-9.49985e-12
2.0838e-11
-1.2998e-10
1.14312e-10
-1.33066e-11
2.89741e-11
-9.79997e-11
8.22804e-11
-1.36862e-11
2.94055e-11
-6.74539e-11
5.37321e-11
-1.22876e-11
2.60093e-11
-3.86612e-11
2.08039e-11
-1.05237e-11
2.8381e-11
4.98777e-11
3.76793e-11
-1.7622e-11
-6.9935e-11
9.11484e-11
-8.75116e-11
1.34012e-10
1.38478e-13
-1.37787e-10
6.31314e-11
-1.7336e-10
2.05563e-10
2.35093e-12
-9.76854e-11
3.18963e-11
-2.30658e-10
2.51571e-10
2.35219e-12
-5.51614e-11
2.76397e-11
-2.71283e-10
2.9215e-10
-1.29901e-12
-4.72075e-11
3.73575e-11
-3.15497e-10
3.40338e-10
-2.44501e-12
-5.97541e-11
3.72451e-11
-3.66233e-10
3.89918e-10
-3.72481e-12
-5.72051e-11
1.94314e-11
-4.10354e-10
4.24691e-10
-2.82489e-12
-3.0944e-11
-1.20973e-12
-4.34307e-10
4.40656e-10
-1.75788e-12
-3.38196e-12
-7.64826e-12
-4.45517e-10
4.47935e-10
-2.86251e-13
5.51632e-12
4.5518e-12
-4.46883e-10
4.43829e-10
5.65978e-12
-7.15727e-12
1.51542e-11
-4.38399e-10
4.34232e-10
5.55652e-12
-1.65439e-11
1.12254e-11
-4.29754e-10
4.25522e-10
1.72411e-12
-8.71787e-12
6.86415e-13
-4.19355e-10
4.10948e-10
2.21232e-12
5.50779e-12
-1.14971e-11
-3.99789e-10
3.87194e-10
2.87341e-12
2.12181e-11
-2.09998e-11
-3.73311e-10
3.59716e-10
7.76408e-13
3.38188e-11
-2.73505e-11
-3.45511e-10
3.30268e-10
3.79975e-13
4.22126e-11
-4.41799e-11
-3.12678e-10
2.92868e-10
-1.04043e-12
6.50306e-11
-6.36677e-11
-2.7154e-10
2.46643e-10
-5.46546e-12
9.40302e-11
-6.47766e-11
-2.17501e-10
1.83528e-10
-1.13548e-12
9.98852e-11
-5.69051e-11
-1.46693e-10
1.08585e-10
3.4306e-12
9.15828e-11
-6.21842e-11
2.66797e-11
6.86426e-12
9.58006e-11
-6.71607e-11
9.00193e-11
3.71199e-11
-1.7604e-11
-1.09535e-10
-8.18119e-11
1.79597e-10
1.22952e-10
-1.48937e-12
-2.19247e-10
1.32132e-10
-1.61135e-10
1.96334e-10
-8.70887e-13
-1.6646e-10
8.34053e-11
-2.28831e-10
2.60044e-10
-2.3168e-13
-1.14387e-10
7.04863e-11
-2.91119e-10
3.20569e-10
-2.99424e-12
-9.69417e-11
8.36185e-11
-3.48145e-10
3.73802e-10
-2.11739e-12
-1.07158e-10
7.72476e-11
-3.9966e-10
4.24132e-10
-4.52819e-12
-9.71914e-11
4.46978e-11
-4.46745e-10
4.65932e-10
-3.20782e-12
-6.06773e-11
1.32382e-11
-4.83343e-10
4.9854e-10
-1.72118e-12
-2.67143e-11
1.72968e-12
-5.11292e-10
5.20205e-10
1.86472e-13
-1.08299e-11
1.00906e-11
-5.23388e-10
5.21599e-10
2.46456e-12
-1.07661e-11
1.35897e-11
-5.14915e-10
5.05751e-10
2.71165e-12
-7.13706e-12
1.18432e-12
-4.93764e-10
4.80381e-10
2.34709e-12
9.85074e-12
-1.5057e-11
-4.63902e-10
4.45533e-10
4.51434e-12
2.89108e-11
-3.2994e-11
-4.25084e-10
4.05939e-10
3.38916e-12
4.875e-11
-4.81908e-11
-3.87766e-10
3.70853e-10
-2.37927e-13
6.53418e-11
-5.89638e-11
-3.53961e-10
3.36084e-10
-1.5848e-12
7.84251e-11
-8.53068e-11
-3.17485e-10
2.97981e-10
-2.25972e-12
1.07071e-10
-1.21662e-10
-2.77803e-10
2.54153e-10
-1.94469e-12
1.47256e-10
-1.34192e-10
-2.25604e-10
1.91505e-10
8.29794e-13
1.6746e-10
-1.2943e-10
-1.52638e-10
1.11389e-10
1.57806e-12
1.69101e-10
-1.29275e-10
2.98418e-11
4.39457e-12
1.65013e-10
-6.99745e-11
1.29168e-10
3.70705e-11
-1.74887e-11
-1.4875e-10
-8.28016e-11
2.58349e-10
1.25789e-10
-3.58e-12
-2.97757e-10
2.01113e-10
-1.67022e-10
2.06226e-10
-2.614e-12
-2.37704e-10
1.47822e-10
-2.44689e-10
2.8171e-10
-1.88316e-12
-1.82959e-10
1.25144e-10
-3.16757e-10
3.48311e-10
-1.37736e-12
-1.55321e-10
1.29002e-10
-3.76483e-10
4.00922e-10
-2.10573e-12
-1.51335e-10
1.15199e-10
-4.23775e-10
4.45687e-10
-3.36379e-12
-1.33747e-10
7.72401e-11
-4.6907e-10
4.92532e-10
-5.07662e-12
-9.5626e-11
4.16295e-11
-5.15604e-10
5.35017e-10
-2.60167e-12
-5.84416e-11
1.99427e-11
-5.50616e-10
5.61367e-10
-5.21433e-13
-3.01719e-11
1.10846e-11
-5.66897e-10
5.67951e-10
5.03026e-13
-1.26419e-11
9.18413e-13
-5.65154e-10
5.58871e-10
1.14816e-12
4.21671e-12
-2.15016e-11
-5.48049e-10
5.33557e-10
2.9963e-12
3.29977e-11
-4.43886e-11
-5.14317e-10
4.92821e-10
4.39312e-12
6.14909e-11
-6.59615e-11
-4.69534e-10
4.47547e-10
3.22183e-12
8.47266e-11
-8.4226e-11
-4.2617e-10
4.05895e-10
2.01941e-13
1.04299e-10
-1.00651e-10
-3.85126e-10
3.62166e-10
-1.61514e-12
1.25225e-10
-1.31701e-10
-3.37394e-10
3.10957e-10
-1.16502e-12
1.59302e-10
-1.7356e-10
-2.8312e-10
2.53853e-10
1.1206e-12
2.01706e-10
-1.99152e-10
-2.23023e-10
1.90444e-10
1.59987e-12
2.30131e-10
-2.07275e-10
-1.54895e-10
1.17197e-10
5.06517e-13
2.44467e-10
-2.02399e-10
3.52525e-11
3.01593e-12
2.41696e-10
-7.75658e-11
1.67843e-10
3.51296e-11
-1.6611e-11
-1.86362e-10
-8.24207e-11
3.35452e-10
1.26979e-10
-7.08575e-12
-3.72925e-10
2.74718e-10
-1.71582e-10
2.15358e-10
-4.67034e-12
-3.13824e-10
2.18363e-10
-2.59515e-10
3.00484e-10
-3.07322e-12
-2.56259e-10
1.86415e-10
-3.37586e-10
3.70578e-10
-3.8051e-13
-2.19027e-10
1.74054e-10
-4.00431e-10
4.26876e-10
-1.99059e-12
-1.98508e-10
1.51732e-10
-4.51119e-10
4.73796e-10
-3.11624e-12
-1.71292e-10
1.13399e-10
-4.98162e-10
5.23305e-10
-5.06349e-12
-1.33479e-10
7.50991e-11
-5.49334e-10
5.71823e-10
-4.30225e-12
-9.3286e-11
4.081e-11
-5.90241e-10
6.03089e-10
-1.71784e-12
-5.19403e-11
1.54343e-11
-6.11504e-10
6.16255e-10
-9.18297e-13
-1.92677e-11
-8.00854e-12
-6.18024e-10
6.16045e-10
-1.01824e-13
1.00889e-11
-4.31526e-11
-6.08836e-10
5.96486e-10
2.70447e-12
5.27973e-11
-7.96175e-11
-5.78945e-10
5.58651e-10
3.99085e-13
9.95118e-11
-1.05795e-10
-5.36129e-10
5.11906e-10
-1.14997e-13
1.30134e-10
-1.26967e-10
-4.86363e-10
4.59665e-10
4.2099e-14
1.53623e-10
-1.53313e-10
-4.30948e-10
3.99904e-10
1.23123e-14
1.84344e-10
-1.90329e-10
-3.67325e-10
3.33764e-10
8.35437e-13
2.23054e-10
-2.31983e-10
-2.98981e-10
2.64253e-10
2.33454e-12
2.64377e-10
-2.62141e-10
-2.29521e-10
1.94724e-10
3.45356e-14
2.96903e-10
-2.81669e-10
-1.58694e-10
1.20736e-10
-7.81924e-13
3.20409e-10
-2.81278e-10
3.64496e-11
4.69915e-12
3.20345e-10
-8.02153e-11
2.0453e-10
3.46392e-11
-1.64749e-11
-2.22694e-10
-8.26019e-11
4.09929e-10
1.2833e-10
-6.61503e-12
-4.49042e-10
3.54251e-10
-1.75842e-10
2.24058e-10
-5.36503e-12
-3.97103e-10
2.95331e-10
-2.72588e-10
3.17151e-10
-4.44188e-12
-3.35453e-10
2.53074e-10
-3.58416e-10
3.96164e-10
-2.33058e-12
-2.88492e-10
2.25836e-10
-4.31791e-10
4.6471e-10
-1.50975e-12
-2.57246e-10
1.93434e-10
-4.94647e-10
5.21272e-10
-9.59284e-13
-2.191e-10
1.55117e-10
-5.46578e-10
5.71988e-10
-1.91812e-12
-1.7861e-10
1.1218e-10
-5.9864e-10
6.22979e-10
-3.94802e-12
-1.32571e-10
6.33367e-11
-6.4334e-10
6.57866e-10
-3.23334e-12
-7.46288e-11
2.34271e-11
-6.68792e-10
6.7626e-10
-3.81752e-12
-2.70772e-11
-1.1233e-11
-6.80942e-10
6.81495e-10
-1.52008e-12
1.21996e-11
-6.1388e-11
-6.77902e-10
6.69918e-10
-2.96294e-13
6.96677e-11
-1.19013e-10
-6.57712e-10
6.4062e-10
-1.4289e-12
1.37533e-10
-1.55857e-10
-6.18487e-10
5.91521e-10
1.33773e-13
1.82689e-10
-1.83815e-10
-5.59876e-10
5.24105e-10
2.01456e-12
2.17571e-10
-2.17943e-10
-4.84803e-10
4.45153e-10
2.58286e-12
2.55009e-10
-2.56321e-10
-4.06143e-10
3.68925e-10
2.10546e-12
2.91433e-10
-2.97252e-10
-3.32695e-10
2.97827e-10
5.28014e-13
3.31592e-10
-3.34259e-10
-2.62993e-10
2.26061e-10
-2.21053e-12
3.73401e-10
-3.62543e-10
-1.85579e-10
1.40362e-10
-7.36635e-13
4.08497e-10
-3.6092e-10
4.01813e-11
7.04292e-12
4.04726e-10
-9.10303e-11
2.41141e-10
3.75223e-11
-1.78857e-11
-2.60778e-10
-8.72264e-11
4.8876e-10
1.3533e-10
-5.23345e-12
-5.31631e-10
4.40593e-10
-1.8529e-10
2.35403e-10
-4.35894e-12
-4.86347e-10
3.7556e-10
-2.85469e-10
3.32679e-10
-4.7056e-12
-4.18065e-10
3.25517e-10
-3.78638e-10
4.22916e-10
-3.74141e-12
-3.66054e-10
2.92476e-10
-4.67366e-10
5.09644e-10
-2.51624e-12
-3.32238e-10
2.49182e-10
-5.47911e-10
5.81087e-10
1.63759e-12
-2.83996e-10
2.04649e-10
-6.09826e-10
6.36462e-10
1.78628e-12
-2.33071e-10
1.52644e-10
-6.61728e-10
6.84547e-10
-2.80437e-12
-1.72659e-10
8.35955e-11
-7.03499e-10
7.16326e-10
-5.1977e-12
-9.12249e-11
2.86369e-11
-7.26693e-10
7.34689e-10
-6.60116e-12
-3.00327e-11
-1.31479e-11
-7.41721e-10
7.44898e-10
-3.84958e-12
1.38204e-11
-7.6226e-11
-7.44618e-10
7.40205e-10
-1.03536e-12
8.16742e-11
-1.54332e-10
-7.31412e-10
7.17292e-10
-2.25234e-13
1.68677e-10
-2.09728e-10
-6.97276e-10
6.70916e-10
4.2581e-13
2.35662e-10
-2.52453e-10
-6.37084e-10
5.97036e-10
4.27125e-12
2.88229e-10
-2.93656e-10
-5.51602e-10
5.05216e-10
4.56672e-12
3.35475e-10
-3.28833e-10
-4.57997e-10
4.12642e-10
2.02566e-12
3.72163e-10
-3.67639e-10
-3.69957e-10
3.3092e-10
-1.10842e-12
4.07785e-10
-4.13502e-10
-2.94224e-10
2.56445e-10
-2.01752e-12
4.53299e-10
-4.57693e-10
-2.1437e-10
1.64975e-10
-7.74213e-13
5.07861e-10
-4.52106e-10
4.79185e-11
8.96194e-12
5.03536e-10
-1.0831e-10
2.81723e-10
4.1851e-11
-1.97542e-11
-3.0382e-10
-9.36311e-11
5.76367e-10
1.4495e-10
-3.24489e-12
-6.24442e-10
5.32381e-10
-1.97383e-10
2.49741e-10
-3.86524e-12
-5.80873e-10
4.60762e-10
-3.03266e-10
3.5585e-10
-6.10591e-12
-5.0724e-10
4.08822e-10
-4.08633e-10
4.59653e-10
-3.76419e-12
-4.56078e-10
3.75158e-10
-5.10043e-10
5.57535e-10
-9.98385e-13
-4.21651e-10
3.22395e-10
-6.00943e-10
6.39948e-10
1.51413e-12
-3.62914e-10
2.62848e-10
-6.73563e-10
7.01964e-10
1.63862e-12
-2.92887e-10
1.90586e-10
-7.25687e-10
7.45633e-10
-2.8778e-12
-2.07655e-10
9.55869e-11
-7.62854e-10
7.75925e-10
-7.37591e-12
-1.01283e-10
2.85133e-11
-7.88605e-10
7.9801e-10
-8.65944e-12
-2.92594e-11
-1.7355e-11
-8.06029e-10
8.09273e-10
-6.41115e-12
2.05222e-11
-8.88724e-11
-8.09865e-10
8.05563e-10
-3.67791e-12
9.68516e-11
-1.81935e-10
-7.96993e-10
7.83499e-10
4.61368e-13
1.94968e-10
-2.59503e-10
-7.65078e-10
7.41523e-10
2.01999e-12
2.81038e-10
-3.22034e-10
-7.11026e-10
6.7462e-10
4.82443e-12
3.53616e-10
-3.78964e-10
-6.30935e-10
5.81694e-10
3.864e-12
4.24341e-10
-4.23091e-10
-5.25869e-10
4.66789e-10
1.04298e-12
4.81128e-10
-4.55411e-10
-4.08203e-10
3.53721e-10
-1.18003e-12
5.11073e-10
-4.95402e-10
-3.04821e-10
2.58898e-10
-1.11963e-12
5.42444e-10
-5.58203e-10
-2.12728e-10
1.62826e-10
-6.99628e-13
6.08805e-10
-5.56484e-10
4.89835e-11
6.48472e-12
6.09333e-10
-1.08317e-10
3.26955e-10
4.53659e-11
-2.11052e-11
-3.51216e-10
-1.00483e-10
6.74492e-10
1.55945e-10
-3.19303e-12
-7.26761e-10
6.31619e-10
-2.13517e-10
2.7214e-10
-3.79287e-12
-6.8645e-10
5.57878e-10
-3.32977e-10
3.94183e-10
-3.96607e-12
-6.15118e-10
5.06916e-10
-4.55682e-10
5.13821e-10
-2.66501e-12
-5.6239e-10
4.70098e-10
-5.67433e-10
6.16302e-10
7.59816e-13
-5.19726e-10
4.04885e-10
-6.614e-10
7.02941e-10
-2.50604e-13
-4.46175e-10
3.23169e-10
-7.39068e-10
7.69122e-10
-1.24874e-12
-3.51974e-10
2.24511e-10
-7.94086e-10
8.14956e-10
-2.65219e-12
-2.42728e-10
1.09606e-10
-8.34914e-10
8.5378e-10
-5.07697e-12
-1.23396e-10
3.12816e-11
-8.71756e-10
8.83868e-10
-6.40031e-12
-3.69936e-11
-2.54433e-11
-8.91419e-10
8.92974e-10
-6.64574e-12
3.05334e-11
-1.06764e-10
-8.90898e-10
8.82912e-10
-3.12753e-12
1.17877e-10
-2.08519e-10
-8.70334e-10
8.53939e-10
4.51844e-13
2.24463e-10
-3.01726e-10
-8.33439e-10
8.08545e-10
1.63309e-12
3.24987e-10
-3.82947e-10
-7.78265e-10
7.43746e-10
2.81995e-12
4.14646e-10
-4.69181e-10
-7.02891e-10
6.5522e-10
2.0916e-12
5.1476e-10
-5.42149e-10
-5.99275e-10
5.36812e-10
8.3793e-13
6.03773e-10
-5.73954e-10
-4.69517e-10
4.00661e-10
5.43003e-13
6.42266e-10
-5.97393e-10
-3.32829e-10
2.68184e-10
6.16525e-13
6.61422e-10
-6.61975e-10
-2.07944e-10
1.52196e-10
-1.95999e-12
7.19682e-10
-6.61643e-10
4.56702e-11
2.63094e-12
7.13166e-10
-9.98242e-11
3.77094e-10
5.22513e-11
-2.43223e-11
-4.05023e-10
-1.15381e-10
7.82885e-10
1.78184e-10
-1.57981e-12
-8.44108e-10
7.45538e-10
-2.42247e-10
3.07845e-10
-1.71479e-12
-8.09421e-10
6.7735e-10
-3.75025e-10
4.43047e-10
-1.57079e-12
-7.43802e-10
6.21553e-10
-5.11265e-10
5.76094e-10
-1.91275e-12
-6.84469e-10
5.71482e-10
-6.35498e-10
6.89564e-10
-1.6655e-13
-6.25381e-10
4.87302e-10
-7.39664e-10
7.8519e-10
-2.51124e-12
-5.30317e-10
3.80528e-10
-8.25398e-10
8.58444e-10
-2.08975e-12
-4.11485e-10
2.62893e-10
-8.85668e-10
9.09225e-10
-6.57673e-13
-2.85792e-10
1.39806e-10
-9.3267e-10
9.5483e-10
-3.43526e-12
-1.58531e-10
4.40211e-11
-9.73855e-10
9.85684e-10
-2.99585e-12
-5.28548e-11
-3.63969e-11
-9.91953e-10
9.92146e-10
-4.39396e-12
4.05973e-11
-1.31428e-10
-9.87708e-10
9.77349e-10
-3.698e-12
1.45484e-10
-2.43258e-10
-9.626e-10
9.4247e-10
-1.26998e-12
2.64658e-10
-3.50517e-10
-9.1634e-10
8.84921e-10
1.9748e-12
3.79961e-10
-4.48904e-10
-8.49279e-10
8.10302e-10
-5.37653e-13
4.88417e-10
-5.60264e-10
-7.66458e-10
7.17633e-10
3.57837e-13
6.0873e-10
-6.63197e-10
-6.64019e-10
6.05833e-10
1.66408e-13
7.21217e-10
-7.11941e-10
-5.41066e-10
4.6959e-10
2.19017e-12
7.81227e-10
-7.32631e-10
-3.92082e-10
3.13209e-10
2.00691e-12
8.09497e-10
-7.83863e-10
-2.37204e-10
1.67756e-10
-9.50106e-13
8.54262e-10
-7.65521e-10
4.72603e-11
4.1173e-12
8.20073e-10
-1.05929e-10
4.35228e-10
6.18987e-11
-2.90297e-11
-4.68096e-10
-1.3738e-10
9.10064e-10
2.11147e-10
-2.16688e-12
-9.81664e-10
8.77208e-10
-2.839e-10
3.56341e-10
9.23894e-13
-9.50572e-10
8.13097e-10
-4.29261e-10
5.03032e-10
-6.39676e-13
-8.86228e-10
7.49283e-10
-5.76982e-10
6.4873e-10
-3.45617e-12
-8.17576e-10
6.81355e-10
-7.17352e-10
7.80205e-10
-3.67462e-12
-7.40534e-10
5.75185e-10
-8.37733e-10
8.89048e-10
-3.33255e-12
-6.23168e-10
4.44772e-10
-9.34439e-10
9.72431e-10
-8.96329e-13
-4.81868e-10
3.11827e-10
-1.00398e-09
1.03184e-09
1.57898e-12
-3.41261e-10
1.78609e-10
-1.05698e-09
1.07867e-09
7.36357e-13
-2.01036e-10
6.1473e-11
-1.09472e-09
1.10511e-09
-5.61992e-13
-7.13003e-11
-4.51728e-11
-1.11072e-09
1.11097e-09
-2.59043e-12
4.75112e-11
-1.59921e-10
-1.10663e-09
1.09685e-09
-2.45444e-12
1.72157e-10
-2.88647e-10
-1.08158e-09
1.05831e-09
-1.59743e-12
3.13516e-10
-4.14222e-10
-1.02688e-09
9.88494e-10
-7.39989e-13
4.5335e-10
-5.34694e-10
-9.45058e-10
8.968e-10
-2.69508e-12
5.85647e-10
-6.62057e-10
-8.44805e-10
7.89132e-10
-1.51707e-12
7.19247e-10
-7.80161e-10
-7.30583e-10
6.68688e-10
8.07917e-13
8.41248e-10
-8.50752e-10
-6.0256e-10
5.30721e-10
7.45875e-13
9.21844e-10
-8.8946e-10
-4.5258e-10
3.70144e-10
5.06954e-13
9.71389e-10
-9.29394e-10
-2.86628e-10
2.05874e-10
1.93488e-12
1.00821e-09
-8.78654e-10
5.72847e-11
8.1663e-12
9.42667e-10
-1.29465e-10
5.03909e-10
7.40171e-11
-3.50318e-11
-5.42894e-10
-1.65407e-10
1.05979e-09
2.52877e-10
-2.88766e-12
-1.14437e-09
1.03049e-09
-3.3695e-10
4.1959e-10
2.407e-12
-1.11554e-09
9.63603e-10
-5.01787e-10
5.83647e-10
1.26232e-13
-1.04559e-09
8.88575e-10
-6.64233e-10
7.42107e-10
-2.8988e-12
-9.6355e-10
8.0158e-10
-8.17076e-10
8.86216e-10
-4.60169e-12
-8.66119e-10
6.73672e-10
-9.49938e-10
1.00744e-09
-2.825e-12
-7.28349e-10
5.2319e-10
-1.05941e-09
1.10519e-09
1.4845e-13
-5.69113e-10
3.74521e-10
-1.14445e-09
1.17823e-09
2.46937e-12
-4.1077e-10
2.25229e-10
-1.20563e-09
1.22741e-09
3.21058e-12
-2.50224e-10
8.2576e-11
-1.24286e-09
1.25326e-09
1.10143e-12
-9.40745e-11
-4.86226e-11
-1.25863e-09
1.25932e-09
-1.4021e-12
4.93357e-11
-1.84363e-10
-1.25613e-09
1.24713e-09
-3.90655e-12
1.97263e-10
-3.40981e-10
-1.23046e-09
1.20286e-09
-3.06092e-12
3.71644e-10
-4.97673e-10
-1.16578e-09
1.11987e-09
-3.82726e-12
5.47417e-10
-6.42095e-10
-1.06768e-09
1.00986e-09
-3.52658e-12
7.03435e-10
-7.80869e-10
-9.49346e-10
8.8576e-10
-2.08222e-12
8.46537e-10
-9.05255e-10
-8.19178e-10
7.49662e-10
4.36763e-13
9.74334e-10
-9.94585e-10
-6.76632e-10
5.99574e-10
1.41217e-13
1.0715e-09
-1.05487e-09
-5.17824e-10
4.32368e-10
-1.00691e-12
1.14134e-09
-1.09085e-09
-3.44224e-10
2.55075e-10
1.341e-12
1.17866e-09
-1.01329e-09
7.31045e-11
1.27616e-11
1.09183e-09
-1.64408e-10
5.85186e-10
8.67572e-11
-4.1051e-11
-6.30892e-10
-1.95084e-10
1.23542e-09
2.9857e-10
-4.75953e-12
-1.33415e-09
1.2074e-09
-3.98729e-10
4.96713e-10
7.94736e-13
-1.30618e-09
1.13382e-09
-5.91545e-10
6.83089e-10
2.02469e-12
-1.22739e-09
1.04311e-09
-7.70473e-10
8.53987e-10
7.69187e-13
-1.12739e-09
9.33846e-10
-9.33964e-10
1.00946e-09
-2.51822e-12
-1.00682e-09
7.86527e-10
-1.08103e-09
1.14675e-09
-2.44133e-12
-8.49809e-10
6.19023e-10
-1.20769e-09
1.26309e-09
-1.38105e-12
-6.73035e-10
4.50598e-10
-1.31225e-09
1.35319e-09
7.29007e-13
-4.92261e-10
2.77857e-10
-1.38491e-09
1.40963e-09
3.13014e-12
-3.05714e-10
1.06838e-10
-1.42795e-09
1.44082e-09
7.41884e-13
-1.20453e-10
-4.98651e-11
-1.44722e-09
1.44713e-09
-7.88722e-13
5.07434e-11
-2.12657e-10
-1.44126e-09
1.42778e-09
-4.49656e-12
2.30636e-10
-4.06988e-10
-1.40566e-09
1.37202e-09
-5.38611e-12
4.46017e-10
-6.02439e-10
-1.32901e-09
1.2763e-09
-4.4166e-12
6.5956e-10
-7.68356e-10
-1.2173e-09
1.1529e-09
-1.98809e-12
8.34746e-10
-9.15257e-10
-1.08531e-09
1.01448e-09
-5.15422e-13
9.86608e-10
-1.04813e-09
-9.39559e-10
8.60024e-10
6.49017e-13
1.12701e-09
-1.15372e-09
-7.75219e-10
6.86085e-10
3.95443e-13
1.24246e-09
-1.23195e-09
-5.93282e-10
4.97393e-10
-6.10761e-14
1.3279e-09
-1.27146e-09
-3.99695e-10
3.00672e-10
3.98296e-13
1.37009e-09
-1.17792e-09
8.88353e-11
1.48643e-11
1.27186e-09
-1.97642e-10
6.80073e-10
1.00048e-10
-4.72268e-11
-7.32894e-10
-2.24172e-10
1.43989e-09
3.43913e-10
-5.43801e-12
-1.55419e-09
1.41228e-09
-4.61661e-10
5.76341e-10
-7.94329e-13
-1.52617e-09
1.32721e-09
-6.85384e-10
7.88212e-10
3.51875e-12
-1.43356e-09
1.21792e-09
-8.8462e-10
9.7731e-10
4.17924e-12
-1.31479e-09
1.08577e-09
-1.06612e-09
1.15262e-09
1.65157e-14
-1.17228e-09
9.18752e-10
-1.23539e-09
1.31323e-09
-1.71689e-12
-9.94876e-10
7.31581e-10
-1.38576e-09
1.45227e-09
-2.32341e-12
-7.95765e-10
5.35999e-10
-1.51149e-09
1.56105e-09
-1.88086e-12
-5.83677e-10
3.34414e-10
-1.60052e-09
1.63101e-09
-5.50924e-13
-3.64356e-10
1.34647e-10
-1.65365e-09
1.66813e-09
-5.4189e-13
-1.48584e-10
-5.31862e-11
-1.67271e-09
1.66732e-09
3.77652e-13
5.81967e-11
-2.537e-10
-1.65261e-09
1.62856e-09
-2.85202e-12
2.80602e-10
-4.89742e-10
-1.59708e-09
1.55736e-09
-5.30933e-12
5.34781e-10
-7.1878e-10
-1.51105e-09
1.45691e-09
-4.08346e-12
7.77006e-10
-9.03519e-10
-1.39621e-09
1.32862e-09
-2.01904e-12
9.73123e-10
-1.06288e-09
-1.25468e-09
1.17384e-09
-6.6266e-13
1.14438e-09
-1.21258e-09
-1.08639e-09
9.91382e-10
1.01815e-12
1.30656e-09
-1.33862e-09
-8.8948e-10
7.82545e-10
2.16487e-12
1.44339e-09
-1.43068e-09
-6.71962e-10
5.60069e-10
1.25751e-12
1.54131e-09
-1.47556e-09
-4.48172e-10
3.36383e-10
-9.65028e-13
1.58831e-09
-1.37279e-09
1.00934e-10
1.26494e-11
1.48137e-09
-2.22168e-10
7.89195e-10
1.12774e-10
-5.27881e-11
-8.49181e-10
-2.50436e-10
1.67677e-09
3.85117e-10
-3.76285e-12
-1.80768e-09
1.64783e-09
-5.18786e-10
6.49672e-10
-4.8285e-13
-1.77824e-09
1.54811e-09
-7.75243e-10
8.95137e-10
2.38629e-12
-1.67039e-09
1.42018e-09
-1.00849e-09
1.11801e-09
3.90636e-12
-1.53361e-09
1.26738e-09
-1.22281e-09
1.3239e-09
2.02922e-12
-1.3705e-09
1.07777e-09
-1.41966e-09
1.51026e-09
-5.6991e-13
-1.16779e-09
8.64505e-10
-1.59539e-09
1.67348e-09
-3.94961e-12
-9.38648e-10
6.34482e-10
-1.74362e-09
1.80269e-09
-4.35923e-12
-6.89199e-10
3.95652e-10
-1.85033e-09
1.88612e-09
-2.5512e-12
-4.28892e-10
1.61365e-10
-1.91129e-09
1.92466e-09
-1.27132e-12
-1.73459e-10
-6.64117e-11
-1.92585e-09
1.9144e-09
-3.12548e-14
7.78924e-11
-3.12126e-10
-1.89154e-09
1.85925e-09
-2.57078e-12
3.46984e-10
-5.8338e-10
-1.82126e-09
1.77781e-09
-6.41772e-12
6.33252e-10
-8.36644e-10
-1.73035e-09
1.67497e-09
-5.22236e-12
8.97253e-10
-1.04547e-09
-1.61141e-09
1.53641e-09
-1.83592e-12
1.12231e-09
-1.23252e-09
-1.45094e-09
1.35572e-09
-1.36042e-12
1.32911e-09
-1.4091e-09
-1.25042e-09
1.13709e-09
1.60244e-12
1.52082e-09
-1.55601e-09
-1.01644e-09
8.91251e-10
3.31842e-12
1.67787e-09
-1.65966e-09
-7.6227e-10
6.31942e-10
2.71126e-12
1.78728e-09
-1.70916e-09
-5.01834e-10
3.7291e-10
-3.02644e-13
1.83838e-09
-1.59675e-09
1.1115e-10
1.21626e-11
1.71764e-09
-2.44207e-10
9.12979e-10
1.28316e-10
-5.99006e-11
-9.81394e-10
-2.81954e-10
1.94786e-09
4.33537e-10
-2.0432e-12
-2.0974e-09
1.91739e-09
-5.83777e-10
7.33167e-10
-1.21519e-12
-2.06557e-09
1.80219e-09
-8.79973e-10
1.02206e-09
-9.73208e-14
-1.94418e-09
1.65743e-09
-1.15867e-09
1.28958e-09
2.23413e-12
-1.79057e-09
1.48252e-09
-1.41379e-09
1.53102e-09
3.28449e-12
-1.60304e-09
1.26499e-09
-1.64077e-09
1.7436e-09
1.44774e-12
-1.36927e-09
1.01768e-09
-1.83998e-09
1.92795e-09
-2.42738e-12
-1.10323e-09
7.47551e-10
-2.0074e-09
2.07459e-09
-2.91028e-12
-8.11832e-10
4.64619e-10
-2.12997e-09
2.17105e-09
-1.75752e-12
-5.03944e-10
1.85354e-10
-2.19805e-09
2.2111e-09
-5.42919e-13
-1.9786e-10
-9.09224e-11
-2.21087e-09
2.19748e-09
-7.29793e-13
1.0504e-10
-3.83421e-10
-2.17197e-09
2.13672e-09
-9.09881e-13
4.19579e-10
-6.84231e-10
-2.09567e-09
2.04852e-09
-3.37417e-12
7.34755e-10
-9.61252e-10
-1.99584e-09
1.93315e-09
-4.55992e-12
1.0285e-09
-1.2062e-09
-1.85888e-09
1.7711e-09
-3.99076e-12
1.29798e-09
-1.43493e-09
-1.67124e-09
1.55886e-09
-2.30225e-12
1.54962e-09
-1.6412e-09
-1.4364e-09
1.30558e-09
4.248e-13
1.77159e-09
-1.80798e-09
-1.16739e-09
1.02443e-09
2.0796e-12
1.94887e-09
-1.9234e-09
-8.75422e-10
7.24408e-10
3.17589e-12
2.07124e-09
-1.97575e-09
-5.71111e-10
4.20144e-10
3.08959e-12
2.12363e-09
-1.84476e-09
1.22393e-10
1.57449e-11
1.97806e-09
-2.71439e-10
1.05524e-09
1.49224e-10
-6.92556e-11
-1.13521e-09
-3.26239e-10
2.25843e-09
5.00011e-10
-1.10712e-12
-2.4311e-09
2.2245e-09
-6.72693e-10
8.45238e-10
-4.34117e-13
-2.39661e-09
2.0973e-09
-1.01656e-09
1.18423e-09
-1.08168e-12
-2.26389e-09
1.93487e-09
-1.34604e-09
1.49976e-09
1.85959e-12
-2.09045e-09
1.73349e-09
-1.64368e-09
1.77888e-09
3.20047e-12
-1.87189e-09
1.48176e-09
-1.90331e-09
2.01955e-09
2.25089e-12
-1.60025e-09
1.19447e-09
-2.12546e-09
2.22152e-09
2.3007e-13
-1.29075e-09
8.80454e-10
-2.30607e-09
2.37979e-09
-1.13625e-12
-9.53033e-10
5.46356e-10
-2.44178e-09
2.48913e-09
-1.06007e-12
-5.92641e-10
2.11404e-10
-2.52083e-09
2.53651e-09
2.43355e-14
-2.27112e-10
-1.19724e-10
-2.53818e-09
2.52669e-09
-1.24219e-12
1.32457e-10
-4.55343e-10
-2.5027e-09
2.46741e-09
1.98339e-13
4.90436e-10
-7.87455e-10
-2.4226e-09
2.36944e-09
-1.80758e-12
8.42424e-10
-1.10283e-09
-2.30627e-09
2.22971e-09
-4.4343e-12
1.18382e-09
-1.39982e-09
-2.13983e-09
2.03578e-09
-5.94426e-12
1.50981e-09
-1.67536e-09
-1.91938e-09
1.79018e-09
-4.77697e-12
1.80933e-09
-1.91314e-09
-1.65163e-09
1.50382e-09
-3.18433e-12
2.06413e-09
-2.10119e-09
-1.34844e-09
1.18469e-09
-2.98375e-13
2.26524e-09
-2.23197e-09
-1.01515e-09
8.39914e-10
4.00464e-13
2.40681e-09
-2.2835e-09
-6.62057e-10
4.85103e-10
2.82064e-12
2.45763e-09
-2.1192e-09
1.38702e-10
2.08974e-11
2.27042e-09
-3.10819e-10
1.22157e-09
1.73693e-10
-8.0782e-11
-1.31448e-09
-3.79353e-10
2.61736e-09
5.80434e-10
-7.28177e-13
-2.81772e-09
2.58348e-09
-7.79938e-10
9.80427e-10
1.67273e-12
-2.78564e-09
2.44561e-09
-1.17957e-09
1.37629e-09
-3.30625e-13
-2.642e-09
2.25887e-09
-1.56513e-09
1.74451e-09
1.79353e-12
-2.44004e-09
2.02101e-09
-1.91088e-09
2.06547e-09
4.42684e-12
-2.18003e-09
1.72666e-09
-2.20781e-09
2.33839e-09
3.75955e-12
-1.86099e-09
1.39336e-09
-2.45558e-09
2.5599e-09
3.82984e-12
-1.50152e-09
1.02973e-09
-2.65114e-09
2.73187e-09
-5.14439e-13
-1.10995e-09
6.41077e-10
-2.80077e-09
2.85683e-09
-4.51128e-12
-6.9263e-10
2.46238e-10
-2.89636e-09
2.91947e-09
-9.39347e-13
-2.68413e-10
-1.42879e-10
-2.92715e-09
2.92059e-09
-1.43544e-12
1.5088e-10
-5.24746e-10
-2.89887e-09
2.86181e-09
1.31871e-12
5.60489e-10
-9.01472e-10
-2.80902e-09
2.74243e-09
9.64858e-13
9.67096e-10
-1.27376e-09
-2.66166e-09
2.56602e-09
-2.61878e-12
1.37202e-09
-1.63008e-09
-2.45834e-09
2.33613e-09
-5.57943e-12
1.75788e-09
-1.9517e-09
-2.20221e-09
2.05644e-09
-4.66839e-12
2.10214e-09
-2.22484e-09
-1.90133e-09
1.73697e-09
-4.86436e-12
2.39406e-09
-2.44178e-09
-1.56451e-09
1.38162e-09
-3.94177e-12
2.62861e-09
-2.59539e-09
-1.19114e-09
9.92842e-10
-2.1418e-12
2.79584e-09
-2.6454e-09
-7.90075e-10
5.85162e-10
1.76089e-12
2.84855e-09
-2.43469e-09
1.68526e-10
2.76119e-11
2.6164e-09
-3.77849e-10
1.41389e-09
1.9864e-10
-9.24235e-11
-1.52011e-09
-4.366e-10
3.0342e-09
6.7072e-10
-1.67456e-12
-3.26664e-09
3.00523e-09
-9.03216e-10
1.13688e-09
3.85196e-12
-3.24275e-09
2.85469e-09
-1.36892e-09
1.59502e-09
4.24414e-12
-3.08504e-09
2.63475e-09
-1.81376e-09
2.02026e-09
1.52698e-12
-2.84277e-09
2.34985e-09
-2.21196e-09
2.38927e-09
3.32566e-12
-2.53048e-09
2.00431e-09
-2.55163e-09
2.70033e-09
3.73214e-12
-2.15674e-09
1.61665e-09
-2.83304e-09
2.951e-09
4.78582e-12
-1.73939e-09
1.19497e-09
-3.05582e-09
3.14707e-09
9.30866e-13
-1.28715e-09
7.48405e-10
-3.22632e-09
3.28971e-09
-2.48716e-12
-8.09308e-10
2.93364e-10
-3.33798e-09
3.36857e-09
-2.07934e-12
-3.21883e-10
-1.56487e-10
-3.38189e-09
3.37686e-09
2.45782e-13
1.61274e-10
-5.98129e-10
-3.35348e-09
3.31019e-09
2.66678e-12
6.38746e-10
-1.03876e-09
-3.24823e-09
3.16659e-09
3.45563e-12
1.11694e-09
-1.47802e-09
-3.06848e-09
2.95651e-09
-4.78008e-13
1.59047e-09
-1.89424e-09
-2.8307e-09
2.69119e-09
-3.84595e-12
2.03759e-09
-2.26176e-09
-2.53872e-09
2.37354e-09
-2.41367e-12
2.42935e-09
-2.57342e-09
-2.20021e-09
2.01656e-09
-5.1311e-12
2.76221e-09
-2.82634e-09
-1.82374e-09
1.62202e-09
-7.80678e-12
3.03586e-09
-3.00859e-09
-1.40864e-09
1.18749e-09
-4.14564e-12
3.23388e-09
-3.06745e-09
-9.58201e-10
7.21487e-10
1.42215e-12
3.30274e-09
-2.81872e-09
2.13639e-10
3.37325e-11
3.04531e-09
-4.7396e-10
1.63349e-09
2.27128e-10
-1.05487e-10
-1.75514e-09
-5.04415e-10
3.51829e-09
7.76923e-10
-2.6629e-12
-3.78813e-09
3.49948e-09
-1.04885e-09
1.32079e-09
2.64372e-12
-3.77407e-09
3.33124e-09
-1.5881e-09
1.84913e-09
1.3856e-12
-3.59366e-09
3.06543e-09
-2.09908e-09
2.33601e-09
1.79918e-12
-3.30416e-09
2.72441e-09
-2.55756e-09
2.76333e-09
1.78111e-12
-2.93196e-09
2.3212e-09
-2.95159e-09
3.12457e-09
2.68063e-12
-2.49686e-09
1.87227e-09
-3.27857e-09
3.41634e-09
3.55965e-12
-2.0136e-09
1.38582e-09
-3.53664e-09
3.64177e-09
1.05305e-13
-1.49106e-09
8.72954e-10
-3.72996e-09
3.79941e-09
4.82801e-14
-9.42447e-10
3.51491e-10
-3.85305e-09
3.88696e-09
-2.48196e-12
-3.82917e-10
-1.67475e-10
-3.90187e-09
3.8956e-09
-5.30975e-13
1.74276e-10
-6.83311e-10
-3.86792e-09
3.82016e-09
1.06038e-13
7.30963e-10
-1.1997e-09
-3.74882e-09
3.6583e-09
3.6462e-12
1.28657e-09
-1.70786e-09
-3.54799e-09
3.42175e-09
2.8409e-12
1.83125e-09
-2.18815e-09
-3.27877e-09
3.11896e-09
1.10157e-12
2.34685e-09
-2.60929e-09
-2.94463e-09
2.75749e-09
-4.41014e-12
2.80084e-09
-2.96431e-09
-2.55841e-09
2.34855e-09
-5.85664e-12
3.18004e-09
-3.25848e-09
-2.12984e-09
1.89722e-09
-1.49659e-12
3.49259e-09
-3.47208e-09
-1.6574e-09
1.40363e-09
1.31347e-12
3.72454e-09
-3.55648e-09
-1.14087e-09
8.66583e-10
-7.39662e-13
3.8315e-09
-3.29665e-09
2.60131e-10
3.8529e-11
3.57301e-09
-5.7502e-10
1.88659e-09
2.66591e-10
-1.23674e-10
-2.0295e-09
-5.95008e-10
4.07815e-09
9.15351e-10
-9.24809e-12
-4.38925e-09
4.06899e-09
-1.22997e-09
1.54214e-09
1.04054e-12
-4.3822e-09
3.87644e-09
-1.84622e-09
2.14411e-09
-6.59449e-13
-4.17367e-09
3.55936e-09
-2.42929e-09
2.70325e-09
-2.73033e-12
-3.83059e-09
3.15588e-09
-2.96116e-09
3.20185e-09
-8.31517e-13
-3.39574e-09
2.68682e-09
-3.42399e-09
3.6254e-09
3.08041e-12
-2.8913e-09
2.16739e-09
-3.80565e-09
3.96653e-09
3.94528e-12
-2.33221e-09
1.60683e-09
-4.10513e-09
4.2244e-09
3.31987e-12
-1.72942e-09
1.01689e-09
-4.32004e-09
4.3988e-09
-9.69682e-13
-1.09469e-09
4.16301e-10
-4.45476e-09
4.49171e-09
-1.81519e-12
-4.51432e-10
-1.82109e-10
-4.50528e-09
4.49578e-09
-1.94965e-14
1.9162e-10
-7.79465e-10
-4.46268e-09
4.40717e-09
2.12358e-12
8.32851e-10
-1.37665e-09
-4.32856e-09
4.22825e-09
2.7122e-12
1.47425e-09
-1.9619e-09
-4.10642e-09
3.9635e-09
2.41225e-12
2.10241e-09
-2.51605e-09
-3.79992e-09
3.61726e-09
2.75948e-12
2.69595e-09
-3.00341e-09
-3.41768e-09
3.20331e-09
-1.84869e-12
3.21963e-09
-3.4117e-09
-2.97489e-09
2.73045e-09
-2.87864e-12
3.65901e-09
-3.74709e-09
-2.47343e-09
2.20237e-09
-3.91549e-12
4.02207e-09
-3.99764e-09
-1.91761e-09
1.6219e-09
-9.45006e-13
4.2943e-09
-4.12791e-09
-1.31442e-09
9.94377e-10
1.06126e-12
4.44689e-09
-3.86971e-09
2.97019e-10
4.36183e-11
4.18422e-09
-6.55151e-10
2.18493e-09
3.1431e-10
-1.44982e-10
-2.35425e-09
-7.04788e-10
4.72288e-09
1.08119e-09
-1.48726e-11
-5.08441e-09
4.71563e-09
-1.44753e-09
1.80443e-09
4.19858e-13
-5.07295e-09
4.48872e-09
-2.15433e-09
2.49058e-09
1.68257e-12
-4.82666e-09
4.11992e-09
-2.81754e-09
3.1297e-09
-3.45405e-12
-4.42862e-09
3.65289e-09
-3.42656e-09
3.706e-09
-2.00135e-12
-3.93033e-09
3.11243e-09
-3.96331e-09
4.19804e-09
3.97183e-12
-3.35113e-09
2.51124e-09
-4.40894e-09
4.59731e-09
4.4143e-12
-2.70403e-09
1.86152e-09
-4.76085e-09
4.89858e-09
6.21015e-12
-2.00546e-09
1.18208e-09
-5.01208e-09
5.10172e-09
4.32586e-12
-1.27605e-09
4.89946e-10
-5.16696e-09
5.20751e-09
2.281e-12
-5.32783e-10
-2.01907e-10
-5.22056e-09
5.20667e-09
9.49836e-13
2.14842e-10
-8.91805e-10
-5.16534e-09
5.0985e-09
2.41385e-12
9.56233e-10
-1.57851e-09
-5.0072e-09
4.89055e-09
3.33238e-12
1.69183e-09
-2.25162e-09
-4.74798e-09
4.58337e-09
3.43631e-12
2.41278e-09
-2.88642e-09
-4.39399e-09
4.18631e-09
6.37462e-13
3.09347e-09
-3.45161e-09
-3.95846e-09
3.71176e-09
-4.6382e-13
3.69877e-09
-3.92771e-09
-3.44793e-09
3.16517e-09
-5.69876e-12
4.21616e-09
-4.31889e-09
-2.86148e-09
2.54232e-09
-4.30024e-12
4.64234e-09
-4.61616e-09