/*--------------------------------*- C++ -*----------------------------------*\
  =========                 |
  \\      /  F ield         | OpenFOAM: The Open Source CFD Toolbox
   \\    /   O peration     | Website:  https://openfoam.org
    \\  /    A nd           | Version:  7
     \\/     M anipulation  |
\*---------------------------------------------------------------------------*/
FoamFile
{
    version     2.0;
    format      ascii;
    class       volVectorField;
    location    "200";
    object      U;
}
// * * * * * * * * * * * * * * * * * * * * * * * * * * * * * * * * * * * * * //

dimensions      [0 1 -1 0 0 0 0];

internalField   nonuniform List<vector> 
96800
(
(4.5915e-05 -6.60337e-08 -4.33327e-05)
(0.000118619 -7.28091e-07 -2.56105e-05)
(0.000187289 -5.05208e-07 -1.70081e-05)
(0.000224697 -2.78434e-07 -7.31061e-06)
(0.000244077 -3.37795e-07 -6.26816e-06)
(0.000271364 -4.04207e-07 -9.87062e-06)
(0.000306679 -3.67859e-07 -1.0108e-05)
(0.000333458 -2.79216e-07 -5.13457e-06)
(0.000341267 -1.36516e-07 2.19041e-06)
(0.00032875 -5.01872e-09 4.21262e-06)
(0.00032174 -5.7609e-08 -7.36994e-08)
(0.000330611 -1.46516e-07 -4.1904e-06)
(0.000344232 -1.75229e-07 -3.70707e-06)
(0.000353572 -1.07201e-08 -9.58546e-07)
(0.000349633 1.3035e-08 3.12651e-06)
(0.000334777 1.26304e-07 6.52385e-06)
(0.000312515 1.48085e-07 8.72845e-06)
(0.000280352 2.27892e-07 1.39577e-05)
(0.000227742 2.74636e-07 1.96394e-05)
(0.000165705 2.5431e-07 1.89831e-05)
(0.000110406 2.70023e-07 1.59047e-05)
(5.78235e-05 2.68038e-07 2.08968e-05)
(2.28238e-05 3.60153e-07 -0.000114609)
(9.54445e-05 -2.6587e-07 -9.72078e-05)
(0.000160739 -2.68457e-07 -6.62117e-05)
(0.000206161 -2.71767e-07 -3.2661e-05)
(0.000239419 -3.94601e-07 -2.72358e-05)
(0.000276501 -3.84392e-07 -3.81952e-05)
(0.000318143 -4.60575e-07 -3.687e-05)
(0.000347769 -4.40041e-07 -1.75114e-05)
(0.000361054 -3.98395e-07 4.65137e-06)
(0.000367063 -3.59949e-07 1.21424e-05)
(0.000367952 -2.62858e-07 1.0314e-06)
(0.000365892 -2.95734e-07 -8.98461e-06)
(0.000361061 -3.33745e-07 -5.45868e-06)
(0.000352022 -1.94173e-07 4.25205e-06)
(0.000337563 -1.46645e-07 1.67948e-05)
(0.000316807 -2.42159e-07 2.82484e-05)
(0.000293567 -3.12298e-07 3.58e-05)
(0.000265205 -3.45868e-07 5.36848e-05)
(0.000225291 -4.71852e-07 7.44716e-05)
(0.000170036 -3.94045e-07 7.69279e-05)
(0.000107455 -3.29559e-07 7.01252e-05)
(4.33998e-05 -5.62614e-08 8.25494e-05)
(2.29041e-05 4.80997e-07 -0.000190089)
(8.8122e-05 -1.18414e-07 -0.000165599)
(0.000151523 -1.76582e-07 -0.000121965)
(0.000209735 -1.81799e-07 -7.8459e-05)
(0.000262753 -2.60011e-07 -6.64577e-05)
(0.000308568 -2.36515e-07 -7.73997e-05)
(0.000350224 -3.12749e-07 -7.00382e-05)
(0.000384461 -2.92404e-07 -3.81782e-05)
(0.000411853 -2.41912e-07 -7.93231e-06)
(0.000433128 -2.04881e-07 5.57911e-06)
(0.000440437 -1.65191e-07 3.09523e-06)
(0.000432662 -1.6064e-07 2.02958e-06)
(0.000414344 -1.53073e-07 1.26562e-05)
(0.000389139 -6.75751e-08 2.72555e-05)
(0.000359954 -9.47614e-08 4.42317e-05)
(0.000331213 -2.0256e-07 5.84403e-05)
(0.000301993 -2.43101e-07 6.84452e-05)
(0.000269651 -2.5301e-07 9.14689e-05)
(0.000232616 -2.39898e-07 0.000124179)
(0.000181276 -1.97637e-07 0.000140163)
(0.000115041 -1.89594e-07 0.000140517)
(4.66407e-05 -4.53806e-08 0.000149503)
(2.33969e-05 5.24504e-07 -0.000264741)
(8.99549e-05 -1.1704e-07 -0.0002307)
(0.00015901 -1.81566e-07 -0.000180562)
(0.000225495 -1.8927e-07 -0.000134453)
(0.000286765 -1.87373e-07 -0.000114469)
(0.000334851 -2.1536e-07 -0.000115329)
(0.000372317 -2.50681e-07 -0.000101193)
(0.000409394 -2.8812e-07 -6.51455e-05)
(0.000446048 -2.1679e-07 -3.06122e-05)
(0.000472407 -1.70231e-07 -7.03223e-06)
(0.00048234 -1.41827e-07 5.86124e-06)
(0.000478538 -1.11617e-07 1.75859e-05)
(0.000462918 -5.12355e-08 3.87782e-05)
(0.000434323 -1.24417e-08 6.14216e-05)
(0.000398598 -4.58793e-08 8.05267e-05)
(0.00036427 -1.29466e-07 9.534e-05)
(0.00032772 -1.79131e-07 0.000110165)
(0.000283947 -1.67959e-07 0.000137408)
(0.000235381 -1.07881e-07 0.000174201)
(0.000182684 -9.88336e-08 0.000199782)
(0.000121767 -9.76261e-08 0.00021049)
(5.39765e-05 -7.1729e-08 0.000221845)
(2.26289e-05 4.92041e-07 -0.000337774)
(8.92522e-05 -1.53718e-07 -0.000295632)
(0.000165201 -2.22153e-07 -0.000244736)
(0.000239509 -2.22177e-07 -0.000195938)
(0.000304456 -1.60961e-07 -0.000166466)
(0.000356498 -2.01565e-07 -0.000153072)
(0.000397931 -2.30924e-07 -0.000131727)
(0.000438791 -2.80257e-07 -9.66452e-05)
(0.000480351 -2.65959e-07 -5.8459e-05)
(0.00051025 -1.99617e-07 -2.23645e-05)
(0.00052409 -1.66433e-07 4.98316e-06)
(0.000526671 -1.25554e-07 2.86038e-05)
(0.000517913 -3.10576e-08 6.29766e-05)
(0.000492531 -1.05728e-07 9.93138e-05)
(0.000454788 -1.2907e-07 0.00012229)
(0.000412585 -1.29114e-07 0.00013892)
(0.00036322 -1.23987e-07 0.000161942)
(0.000306841 -1.01156e-07 0.000195126)
(0.000248045 -5.60306e-08 0.000232837)
(0.000189156 -1.13459e-07 0.000261441)
(0.000125184 -1.28587e-07 0.000278172)
(5.57792e-05 -1.09311e-07 0.000297403)
(2.22724e-05 4.97032e-07 -0.00040812)
(8.9445e-05 -1.1539e-07 -0.000361212)
(0.000171845 -2.41952e-07 -0.000315134)
(0.000253111 -2.67133e-07 -0.00026248)
(0.000323256 -2.22999e-07 -0.000223167)
(0.000385359 -1.81286e-07 -0.000198523)
(0.000438699 -1.60122e-07 -0.000168625)
(0.000484523 -1.95672e-07 -0.000133233)
(0.000528385 -2.66421e-07 -9.09362e-05)
(0.00056085 -2.33765e-07 -4.04717e-05)
(0.000577275 -2.35278e-07 1.15512e-06)
(0.00058371 -1.57747e-07 3.55914e-05)
(0.000580618 -1.13179e-07 8.36122e-05)
(0.000562034 -1.53063e-07 0.000137488)
(0.000524513 -1.20992e-07 0.000170726)
(0.000471161 -7.43258e-08 0.000195313)
(0.000405795 -5.36084e-08 0.000225999)
(0.000339727 -6.16281e-08 0.000259628)
(0.000279143 -9.74295e-08 0.000296486)
(0.000218487 -1.82806e-07 0.000330654)
(0.000144995 -1.76314e-07 0.000354232)
(6.16816e-05 -1.21788e-07 0.000376028)
(2.38045e-05 5.52636e-07 -0.00047972)
(9.57891e-05 -1.3641e-07 -0.000431047)
(0.000182708 -2.37776e-07 -0.000391388)
(0.000266148 -2.90052e-07 -0.000333392)
(0.000343001 -2.61721e-07 -0.000287945)
(0.000419749 -2.11805e-07 -0.000258162)
(0.000488814 -9.15707e-08 -0.000217796)
(0.000543054 -9.55256e-08 -0.00017579)
(0.000587226 -2.2681e-07 -0.000124955)
(0.000616787 -2.72787e-07 -5.52503e-05)
(0.00063109 -3.08188e-07 -2.96687e-07)
(0.000639786 -2.32873e-07 4.03692e-05)
(0.000640068 -1.49879e-07 9.87686e-05)
(0.00062636 -1.29245e-07 0.00016991)
(0.000592521 -1.11227e-07 0.00022203)
(0.000535925 -1.32742e-08 0.000262272)
(0.000461955 -9.79255e-09 0.000299915)
(0.00038253 -7.07926e-08 0.000330597)
(0.000309276 -1.50661e-07 0.000363336)
(0.000244823 -1.7596e-07 0.000402925)
(0.000169078 -1.74915e-07 0.000442655)
(7.33214e-05 -8.38697e-08 0.000469834)
(2.65309e-05 6.3448e-07 -0.000559984)
(0.00010478 -1.90716e-07 -0.000507662)
(0.000195551 -2.52133e-07 -0.000471612)
(0.000284379 -3.32872e-07 -0.000409139)
(0.000372843 -2.56838e-07 -0.000363159)
(0.000460767 -1.78098e-07 -0.00033224)
(0.000538991 -1.0848e-07 -0.00028154)
(0.000601097 -9.82235e-08 -0.000224426)
(0.000644787 -2.19438e-07 -0.000154791)
(0.000672073 -3.29205e-07 -6.36908e-05)
(0.000689425 -3.60935e-07 6.32281e-08)
(0.000699449 -3.1093e-07 4.47605e-05)
(0.000697519 -2.45744e-07 0.000111962)
(0.000682714 -1.2973e-07 0.000196392)
(0.000651893 -7.95889e-08 0.000267913)
(0.000602083 7.69005e-09 0.00032679)
(0.000531395 -2.07553e-08 0.000381858)
(0.000436708 -9.73208e-08 0.000423831)
(0.00033478 -1.54599e-07 0.000449256)
(0.000249129 -1.53189e-07 0.000479899)
(0.000167889 -1.29257e-07 0.000533929)
(7.42088e-05 -1.81009e-07 0.000573262)
(2.90063e-05 6.2009e-07 -0.000648089)
(0.000113399 -2.73627e-07 -0.000592024)
(0.000211671 -2.6287e-07 -0.000559962)
(0.000314924 -2.72385e-07 -0.00049875)
(0.000419735 -2.23904e-07 -0.000451615)
(0.000514453 -1.41073e-07 -0.000414854)
(0.000594618 -1.69297e-07 -0.000351875)
(0.000659463 -1.7179e-07 -0.000274123)
(0.000705219 -2.02755e-07 -0.000183052)
(0.00073977 -2.70044e-07 -7.88093e-05)
(0.000767547 -3.00647e-07 -4.63358e-06)
(0.000777547 -3.20655e-07 5.26214e-05)
(0.000768941 -2.44869e-07 0.000129207)
(0.000746466 -1.45146e-07 0.000222613)
(0.00071135 -1.03083e-07 0.00030896)
(0.000661821 -4.88354e-08 0.00038535)
(0.000594233 -6.44842e-08 0.000467021)
(0.000498944 -9.91629e-08 0.000536336)
(0.000382257 -1.08973e-07 0.000563833)
(0.000264786 -1.12068e-07 0.000579244)
(0.000159703 -1.2231e-07 0.000628243)
(6.84398e-05 -2.88493e-07 0.00067178)
(3.3326e-05 6.4022e-07 -0.00074721)
(0.000128955 -2.51813e-07 -0.000688205)
(0.000239203 -2.05331e-07 -0.000662595)
(0.000356682 -1.99215e-07 -0.00060615)
(0.000474699 -2.0636e-07 -0.000552585)
(0.000578888 -1.65622e-07 -0.00050214)
(0.000666437 -2.2232e-07 -0.000422851)
(0.000736415 -1.95732e-07 -0.000323506)
(0.000787011 -1.52089e-07 -0.000216557)
(0.000828948 -2.40964e-07 -0.000106091)
(0.000860125 -2.26783e-07 -1.57575e-05)
(0.000868322 -2.64543e-07 6.3058e-05)
(0.000856115 -2.51806e-07 0.000153251)
(0.000827973 -1.84676e-07 0.000257039)
(0.000783881 -9.58019e-08 0.000356983)
(0.00072313 -1.57864e-07 0.000449996)
(0.000647041 -1.21625e-07 0.000552012)
(0.000555109 -1.20507e-07 0.000644834)
(0.000443628 -6.7198e-08 0.00069019)
(0.000310323 -8.83293e-08 0.000707737)
(0.000177158 -1.1371e-07 0.00074069)
(7.07609e-05 -2.73339e-07 0.000770112)
(3.92452e-05 7.84844e-07 -0.000863307)
(0.000151478 -1.8354e-07 -0.000801708)
(0.000278969 -1.19286e-07 -0.000780361)
(0.000409854 -1.71195e-07 -0.000726)
(0.000538661 -2.64842e-07 -0.000665069)
(0.000655988 -2.57961e-07 -0.000599196)
(0.000755957 -2.30606e-07 -0.000500092)
(0.000834602 -1.66102e-07 -0.000379862)
(0.0008933 -9.82173e-08 -0.000259492)
(0.000939618 -1.24468e-07 -0.000139728)
(0.000968398 -1.72027e-07 -2.95521e-05)
(0.000974983 -2.25165e-07 7.22051e-05)
(0.000964099 -2.10309e-07 0.000180395)
(0.000934594 -1.7872e-07 0.000301277)
(0.000880822 -1.60368e-07 0.000419633)
(0.000803959 -2.26531e-07 0.000531164)
(0.000711318 -1.93471e-07 0.000646143)
(0.000609762 -1.22848e-07 0.000750749)
(0.000495979 -1.21387e-07 0.000816254)
(0.000359693 -1.35346e-07 0.00085145)
(0.000213653 -6.82087e-08 0.000874316)
(8.63588e-05 -1.94777e-07 0.000882318)
(4.66517e-05 1.03356e-06 -0.00100057)
(0.00018104 -7.81753e-08 -0.00093422)
(0.000330767 -7.21565e-08 -0.000914888)
(0.000479003 -1.66617e-07 -0.000859458)
(0.000620566 -2.61629e-07 -0.000790245)
(0.00074877 -2.85557e-07 -0.000706731)
(0.000858868 -2.29868e-07 -0.000586906)
(0.000949037 -1.49704e-07 -0.000448489)
(0.00102007 -7.44622e-08 -0.000313139)
(0.00107178 -6.74361e-08 -0.000177249)
(0.00110068 -1.39243e-07 -4.45675e-05)
(0.00110824 -1.99707e-07 7.79197e-05)
(0.00109944 -2.62764e-07 0.00020527)
(0.00106671 -2.27194e-07 0.000352796)
(0.00100067 -2.5064e-07 0.000499487)
(0.000907105 -2.51247e-07 0.000630712)
(0.000799542 -2.04624e-07 0.000754613)
(0.000684011 -1.44176e-07 0.00086523)
(0.000556993 -1.52265e-07 0.000946366)
(0.000413828 -1.6452e-07 0.00100085)
(0.000259993 -1.14612e-07 0.00102332)
(0.000109906 -2.62694e-07 0.00102058)
(5.47003e-05 1.28112e-06 -0.00116258)
(0.000214327 -6.82646e-08 -0.00108859)
(0.000391739 -1.09014e-07 -0.00107086)
(0.000561536 -1.13702e-07 -0.00101128)
(0.000718079 -1.56728e-07 -0.000928748)
(0.000858271 -2.45429e-07 -0.00082475)
(0.000980837 -2.41957e-07 -0.000686893)
(0.00108623 -2.04883e-07 -0.00053234)
(0.00117187 -1.25278e-07 -0.000376821)
(0.00123129 -7.10071e-08 -0.000219039)
(0.00126528 -1.52404e-07 -6.31243e-05)
(0.00127614 -1.94024e-07 8.07287e-05)
(0.00126378 -2.89564e-07 0.000232495)
(0.00122025 -3.11957e-07 0.000414924)
(0.00114051 -2.74619e-07 0.000595288)
(0.00103498 -2.00563e-07 0.000744609)
(0.00091673 -1.65667e-07 0.00087605)
(0.000785948 -1.50448e-07 0.000995318)
(0.00063761 -1.61275e-07 0.00109137)
(0.00047495 -1.35464e-07 0.00116174)
(0.000305607 -1.17208e-07 0.00118918)
(0.000132803 -3.90116e-07 0.00118801)
(6.32374e-05 1.50768e-06 -0.00135114)
(0.000247919 -1.19295e-07 -0.0012685)
(0.000453733 -1.53841e-07 -0.00125204)
(0.000647268 -4.54453e-08 -0.00118177)
(0.000822888 -2.47331e-08 -0.00108287)
(0.000982552 -1.63336e-07 -0.000961182)
(0.001126 -2.24382e-07 -0.000806811)
(0.00125187 -2.33518e-07 -0.000633134)
(0.00135327 -2.17595e-07 -0.00045113)
(0.00142318 -1.66829e-07 -0.000266058)
(0.00146376 -1.69905e-07 -8.53287e-05)
(0.00147346 -1.66524e-07 8.6179e-05)
(0.0014472 -2.51303e-07 0.000272204)
(0.00138704 -3.19496e-07 0.000490046)
(0.00130005 -2.65797e-07 0.000699291)
(0.00119201 -1.857e-07 0.000867206)
(0.00106231 -1.66586e-07 0.00101209)
(0.00090788 -1.4927e-07 0.00114717)
(0.00073003 -1.1011e-07 0.00126157)
(0.000538439 -1.02244e-07 0.00134431)
(0.00034474 -1.04024e-07 0.0013755)
(0.000149996 -5.13787e-07 0.00138171)
(7.12978e-05 1.6646e-06 -0.00156675)
(0.000278468 -1.60497e-07 -0.00147604)
(0.000510999 -1.64702e-07 -0.00145941)
(0.000732648 -7.24198e-08 -0.00137453)
(0.000938333 -2.10236e-08 -0.0012597)
(0.0011274 -9.71197e-08 -0.00112277)
(0.00129719 -1.88137e-07 -0.000950514)
(0.00144537 -2.91337e-07 -0.000753814)
(0.00156418 -3.14128e-07 -0.000540732)
(0.00164545 -2.59377e-07 -0.000321068)
(0.0016891 -2.07512e-07 -0.000107124)
(0.00169347 -1.53477e-07 0.000102374)
(0.00165484 -2.30749e-07 0.000328611)
(0.00158418 -3.46639e-07 0.000575013)
(0.00149492 -3.01137e-07 0.000804847)
(0.0013804 -2.0903e-07 0.000997472)
(0.00122848 -1.98785e-07 0.00117097)
(0.00104298 -1.06373e-07 0.00133074)
(0.000833969 -5.20511e-08 0.00146369)
(0.000611305 -6.18045e-08 0.00155529)
(0.000385359 -6.40144e-08 0.0015864)
(0.000164907 -5.31485e-07 0.00159774)
(8.12734e-05 1.84432e-06 -0.00181112)
(0.000314884 -2.84525e-07 -0.00171268)
(0.000577129 -2.17808e-07 -0.00169562)
(0.000834026 -1.48123e-07 -0.00159875)
(0.00107793 -7.83503e-08 -0.00146949)
(0.00130079 -6.35991e-08 -0.00131375)
(0.00149778 -1.15529e-07 -0.00111789)
(0.00166688 -2.4335e-07 -0.000893034)
(0.00180197 -2.81769e-07 -0.000645573)
(0.00189472 -2.45839e-07 -0.000385029)
(0.001942 -1.75248e-07 -0.000127245)
(0.00194326 -1.64333e-07 0.000127759)
(0.00190003 -1.82534e-07 0.000393739)
(0.00182623 -2.50041e-07 0.000664653)
(0.00172993 -2.88053e-07 0.000917773)
(0.0015958 -2.83961e-07 0.00114681)
(0.00141493 -2.3603e-07 0.00135997)
(0.00119841 -1.25178e-07 0.0015482)
(0.000959122 -7.6729e-08 0.00169865)
(0.000701504 -5.98079e-08 0.00179921)
(0.000435683 1.44124e-08 0.00182809)
(0.000182464 -4.37196e-07 0.00183719)
(9.49256e-05 2.05611e-06 -0.00209383)
(0.000364744 -4.01593e-07 -0.00198636)
(0.000666208 -2.3165e-07 -0.00196878)
(0.000966032 -1.88269e-07 -0.00186251)
(0.00125072 -9.85606e-08 -0.00171621)
(0.00150849 -5.70625e-08 -0.00153502)
(0.00173312 -8.62741e-08 -0.00130841)
(0.00192119 -1.65361e-07 -0.00104951)
(0.00206904 -2.12331e-07 -0.000763725)
(0.00217368 -1.93888e-07 -0.000456972)
(0.00222854 -1.54787e-07 -0.000147965)
(0.00223176 -1.97506e-07 0.00015535)
(0.00219028 -1.5489e-07 0.000458729)
(0.00211406 -2.09196e-07 0.000758399)
(0.00200118 -2.96356e-07 0.00104811)
(0.00183843 -3.55977e-07 0.00132397)
(0.00162818 -3.17416e-07 0.00157974)
(0.00138241 -2.44094e-07 0.00179883)
(0.00110991 -1.51786e-07 0.00197088)
(0.000812689 -1.35022e-07 0.00208656)
(0.000501983 -3.20834e-08 0.0021115)
(0.00020719 -4.70933e-07 0.00210573)
(0.000110447 2.41323e-06 -0.00242475)
(0.000423949 -4.13173e-07 -0.00230372)
(0.000773599 -1.8386e-07 -0.00228877)
(0.00112343 -1.91907e-07 -0.00217498)
(0.00145376 -1.19309e-07 -0.00200504)
(0.00174975 -1.90757e-08 -0.00178876)
(0.00200409 -5.13402e-08 -0.00152341)
(0.00221348 -4.94417e-08 -0.00122292)
(0.00237674 -1.72927e-07 -0.000892375)
(0.002495 -2.9069e-07 -0.000537928)
(0.00256247 -1.95885e-07 -0.000176833)
(0.00257559 -2.13504e-07 0.00017728)
(0.00253789 -1.33146e-07 0.000523018)
(0.00244958 -1.45788e-07 0.000864836)
(0.00230747 -2.53613e-07 0.00120616)
(0.00211234 -3.35275e-07 0.00153376)
(0.0018732 -2.95891e-07 0.0018302)
(0.00159894 -3.00275e-07 0.00208163)
(0.00129309 -2.65985e-07 0.00228194)
(0.000957103 -2.13344e-07 0.00241953)
(0.000600957 -1.2414e-07 0.00244241)
(0.000251113 -6.26687e-07 0.00241824)
(0.000126121 2.78696e-06 -0.00280586)
(0.000488677 -3.97365e-07 -0.00267126)
(0.000897235 -1.33639e-07 -0.00266471)
(0.00130378 -7.72903e-08 -0.0025424)
(0.00168477 -1.37087e-07 -0.0023404)
(0.00202233 -7.01352e-08 -0.00207973)
(0.00231109 -5.59024e-08 -0.00176756)
(0.00254954 -1.75295e-08 -0.00141772)
(0.00273695 -1.25493e-07 -0.0010366)
(0.00287364 -2.33809e-07 -0.000632285)
(0.00295493 -2.32706e-07 -0.000217969)
(0.00297622 -1.7014e-07 0.00019101)
(0.00293537 -1.04165e-07 0.000593194)
(0.00282873 -8.07253e-08 0.000994944)
(0.00265862 -1.95614e-07 0.00139473)
(0.0024351 -2.71634e-07 0.00177467)
(0.00216491 -2.09766e-07 0.00211197)
(0.00185702 -2.98634e-07 0.00239703)
(0.00151495 -3.80719e-07 0.00262994)
(0.00113908 -2.83231e-07 0.00279315)
(0.000735854 -1.15335e-07 0.00282458)
(0.000316873 -8.08115e-07 0.00280216)
(0.000144399 3.1554e-06 -0.00324018)
(0.000564634 -3.75713e-07 -0.00309847)
(0.00104174 -1.73726e-07 -0.00310545)
(0.00151174 -1.70967e-07 -0.00296886)
(0.00194918 -1.4479e-07 -0.00272608)
(0.00233675 -1.4328e-07 -0.0024141)
(0.00267042 -9.581e-08 -0.00204927)
(0.00294728 -6.71357e-08 -0.00164393)
(0.00316395 -1.57629e-07 -0.0012054)
(0.00331952 -1.58719e-07 -0.000742425)
(0.00341016 -2.56884e-07 -0.000267887)
(0.00343296 -2.01522e-07 0.000204359)
(0.00338548 -1.68638e-07 0.000674844)
(0.00326472 -7.24575e-08 0.00114552)
(0.00307454 -9.3819e-08 0.00160736)
(0.00282329 -1.32623e-07 0.00204509)
(0.00251579 -2.80787e-07 0.00243204)
(0.00216271 -3.20251e-07 0.00275458)
(0.00177142 -1.99279e-07 0.00302054)
(0.00134444 -1.28486e-07 0.00321124)
(0.000882586 -1.05743e-07 0.00326742)
(0.000385474 -9.09013e-07 0.0032758)
(0.000170423 3.64175e-06 -0.00374504)
(0.000664706 -5.02882e-07 -0.0035954)
(0.00121685 -2.12998e-07 -0.00361482)
(0.00175429 -2.22038e-07 -0.00345807)
(0.00225568 -2.7704e-07 -0.00316998)
(0.00270575 -2.23893e-07 -0.00280273)
(0.00309601 -8.39685e-08 -0.00237811)
(0.00341869 -5.48695e-08 -0.00190764)
(0.00366766 -7.42617e-08 -0.00140067)
(0.00384201 -1.95974e-07 -0.000867036)
(0.00394181 -2.34388e-07 -0.000322114)
(0.0039637 -1.83956e-07 0.000222768)
(0.00390648 -1.05258e-07 0.000767819)
(0.00377162 -1.02192e-07 0.00131226)
(0.00355932 -1.17111e-07 0.00184459)
(0.00327344 -1.02082e-07 0.00234849)
(0.00292249 -2.29272e-07 0.00279456)
(0.00251528 -2.60078e-07 0.00316504)
(0.00205708 -2.98866e-07 0.00346922)
(0.0015557 -1.78704e-07 0.00369249)
(0.00101561 1.93143e-08 0.0037845)
(0.000440781 -8.26701e-07 0.00383419)
(0.000202508 4.24893e-06 -0.00434506)
(0.00078588 -6.06717e-07 -0.00417555)
(0.00142595 -2.02778e-07 -0.00419718)
(0.00204082 -1.24935e-07 -0.00401169)
(0.00261275 -2.6895e-07 -0.00367791)
(0.00313173 -2.39563e-07 -0.00325408)
(0.00358449 -6.38171e-08 -0.00276193)
(0.00395969 -4.67717e-08 -0.00221546)
(0.00425026 3.59236e-09 -0.00162685)
(0.00445365 -5.10556e-08 -0.00101154)
(0.00457016 -1.09307e-07 -0.000383702)
(0.00459365 -1.50182e-07 0.000248105)
(0.00452159 -1.10884e-07 0.000877632)
(0.00436137 -7.91523e-08 0.00150173)
(0.00411523 -8.62497e-08 0.00211363)
(0.00378631 -1.80022e-07 0.00269198)
(0.00338461 -2.09805e-07 0.00320596)
(0.00291477 -3.6725e-07 0.00363903)
(0.00237812 -3.18273e-07 0.00399655)
(0.00178447 -1.63943e-07 0.00426258)
(0.00114793 1.40581e-07 0.00438701)
(0.000491332 -7.59553e-07 0.00446461)
(0.000237535 4.96928e-06 -0.00505297)
(0.000918977 -8.02329e-07 -0.00485155)
(0.0016609 -2.91567e-07 -0.00486635)
(0.002369 -2.36278e-07 -0.00464201)
(0.00302331 -1.28657e-07 -0.00425586)
(0.00361751 -1.64109e-07 -0.00377312)
(0.00413923 -1.35458e-07 -0.00320849)
(0.0045758 -3.37138e-08 -0.00257542)
(0.0049167 -3.63503e-08 -0.00189336)
(0.00515716 5.2728e-08 -0.00118444)
(0.00529723 -7.86809e-08 -0.000457574)
(0.00532767 -7.93072e-08 0.000280358)
(0.00524187 -2.07269e-07 0.001011)
(0.00504866 -1.1403e-07 0.00172694)
(0.00475813 -7.05116e-08 0.00242648)
(0.00437727 -1.52145e-07 0.00308711)
(0.00391275 -2.80516e-07 0.00367853)
(0.00336571 -2.56034e-07 0.00418596)
(0.00274159 -1.0574e-07 0.00461194)
(0.0020518 -1.07569e-07 0.0049327)
(0.00131173 9.23659e-08 0.0050857)
(0.000557613 -6.24385e-07 0.00517591)
(0.000278231 5.87168e-06 -0.00588193)
(0.00107038 -1.14234e-06 -0.00563469)
(0.00192392 -5.26217e-07 -0.00563383)
(0.00273939 -3.51012e-07 -0.00536658)
(0.00349546 -1.35095e-07 -0.00492017)
(0.00418105 -1.6737e-07 -0.0043707)
(0.00478514 -2.15282e-07 -0.00372513)
(0.0052904 -2.41949e-07 -0.00299273)
(0.00568356 -1.48077e-07 -0.00220335)
(0.00596116 -1.50919e-07 -0.00138761)
(0.00612433 -9.87127e-08 -0.000547553)
(0.00616217 -1.18446e-07 0.000313611)
(0.00606763 -1.67159e-07 0.00116501)
(0.00584607 -1.35598e-07 0.0019924)
(0.00550943 -1.34194e-07 0.00279307)
(0.00506854 -1.88528e-07 0.00354735)
(0.00452657 -2.41731e-07 0.00422945)
(0.00388521 -1.16679e-07 0.00482249)
(0.0031591 -2.2293e-07 0.00532424)
(0.00236301 -2.02057e-07 0.00570534)
(0.00151238 2.75482e-07 0.00588984)
(0.000643633 -7.47544e-07 0.0059918)
(0.000322825 6.81053e-06 -0.0068499)
(0.0012381 -1.29928e-06 -0.00654067)
(0.00222278 -5.8337e-07 -0.006516)
(0.00316533 -3.08818e-07 -0.00620588)
(0.00404132 -2.38119e-07 -0.00569292)
(0.00483491 -2.16251e-07 -0.00506214)
(0.005533 -2.57143e-07 -0.00431943)
(0.00611483 -3.43047e-07 -0.00346968)
(0.00656535 -1.67234e-07 -0.00255754)
(0.00688499 -1.68889e-07 -0.00162175)
(0.00707193 -6.71012e-08 -0.000652919)
(0.00711661 -2.43849e-07 0.000346551)
(0.00701579 -2.35564e-07 0.00133703)
(0.00677101 -3.44371e-07 0.00229618)
(0.00638771 -2.01839e-07 0.00321681)
(0.00587928 -1.65858e-07 0.00408216)
(0.00524748 -1.34537e-07 0.00487312)
(0.00449777 -3.10591e-07 0.00556654)
(0.00365285 -2.64764e-07 0.00615003)
(0.00273274 -5.85334e-08 0.00659397)
(0.00175026 3.21067e-07 0.00681449)
(0.000745403 -9.96738e-07 0.00693461)
(0.000368857 7.79141e-06 -0.00796404)
(0.00141729 -1.51439e-06 -0.00758953)
(0.00256036 -4.52994e-07 -0.00754167)
(0.00365371 -2.39709e-07 -0.00718018)
(0.00466418 -3.31061e-07 -0.00658606)
(0.00557468 -2.64024e-07 -0.00585702)
(0.00637386 -3.33727e-07 -0.0049996)
(0.00704327 -2.62122e-07 -0.00401624)
(0.00756822 -1.65282e-07 -0.00296868)
(0.00794545 3.34931e-09 -0.00189566)
(0.00816406 -1.22446e-07 -0.000777222)
(0.00822021 -1.92616e-07 0.0003778)
(0.00811435 -2.45583e-07 0.00152455)
(0.00784302 -2.83772e-07 0.00263702)
(0.00740831 -2.11248e-07 0.00370074)
(0.00682241 -1.29165e-07 0.00470045)
(0.00609034 -1.76166e-07 0.00562053)
(0.00522446 -2.27189e-07 0.00642893)
(0.00424779 -2.15857e-07 0.00710538)
(0.00318097 -2.56091e-07 0.00762163)
(0.00203787 2.60184e-07 0.00788587)
(0.000867955 -7.19681e-07 0.00802933)
(0.000422491 8.83257e-06 -0.00923572)
(0.00162522 -1.70686e-06 -0.00880131)
(0.00294049 -5.56342e-07 -0.00873492)
(0.00419449 -3.07068e-07 -0.00830238)
(0.00534753 -1.96517e-07 -0.00760682)
(0.00638334 -3.69227e-07 -0.00676277)
(0.00729473 -5.21918e-07 -0.00577655)
(0.00806815 -4.35275e-07 -0.00465207)
(0.00869089 -2.44196e-07 -0.00345734)
(0.00914587 8.9861e-09 -0.00222262)
(0.00941266 -1.14057e-07 -0.00092925)
(0.00949074 -9.90992e-08 0.000402711)
(0.00938055 -2.36242e-07 0.00172735)
(0.00907709 -2.65364e-07 0.00301907)
(0.00858601 -3.09836e-07 0.00425278)
(0.00791451 -2.05369e-07 0.00541163)
(0.00707434 -1.71677e-07 0.00648105)
(0.00608106 -8.13851e-08 0.00742328)
(0.00495129 -1.87583e-07 0.00821119)
(0.00370827 -1.47962e-07 0.00881577)
(0.002377 4.92426e-07 0.00913551)
(0.00101259 -1.18782e-06 0.00930616)
(0.000494001 1.03821e-05 -0.0107083)
(0.00188376 -2.15406e-06 -0.0101946)
(0.00336732 -7.82009e-07 -0.0100912)
(0.00476797 -5.32476e-07 -0.00956918)
(0.0060589 -3.36844e-07 -0.00875965)
(0.00722738 -3.39827e-07 -0.00779096)
(0.00826834 -4.67177e-07 -0.00667099)
(0.00917264 -4.8186e-07 -0.00540516)
(0.00991947 -3.15215e-07 -0.00404755)
(0.0104753 -2.16286e-07 -0.00262158)
(0.0108146 -7.641e-09 -0.00112484)
(0.0109318 -6.67739e-08 0.00041116)
(0.0108245 -2.60494e-07 0.00194575)
(0.0104911 -3.89433e-07 0.00344728)
(0.00993961 -2.95549e-07 0.00487931)
(0.00917492 -2.34616e-07 0.00622493)
(0.00821406 -1.24138e-07 0.00746696)
(0.00707419 -3.71096e-08 0.00856678)
(0.00576797 -3.68515e-08 0.00949376)
(0.00432358 3.27881e-08 0.0102059)
(0.00277632 6.3745e-07 0.0105889)
(0.00118622 -1.47351e-06 0.0107959)
(0.000575605 1.21943e-05 -0.0124295)
(0.00216927 -2.41105e-06 -0.0117788)
(0.00381985 -8.02171e-07 -0.011595)
(0.00535787 -5.0014e-07 -0.0109682)
(0.0067779 -5.46405e-07 -0.010044)
(0.00807632 -4.04773e-07 -0.00895427)
(0.00925388 -4.40181e-07 -0.00770732)
(0.0103069 -3.62224e-07 -0.00630168)
(0.0112047 -3.65335e-07 -0.00476525)
(0.0118989 -3.87159e-07 -0.00312135)
(0.0123498 -1.12528e-07 -0.00138986)
(0.0125359 -9.81639e-08 0.000385901)
(0.0124549 -1.64558e-07 0.00216723)
(0.0121101 -3.91731e-07 0.00391563)
(0.0115008 -3.75863e-07 0.00558558)
(0.0106337 -2.30993e-07 0.00715441)
(0.00953344 -1.1347e-07 0.0085981)
(0.0082239 -5.85778e-08 0.00988297)
(0.00672092 -9.82626e-08 0.0109747)
(0.00505117 -4.07454e-08 0.0118185)
(0.00325234 6.81847e-07 0.012281)
(0.0013931 -1.81884e-06 0.0125421)
(0.00065717 1.40566e-05 -0.0144087)
(0.00246381 -2.54307e-06 -0.0135591)
(0.00430959 -7.01123e-07 -0.0132548)
(0.00600431 -4.13061e-07 -0.0125013)
(0.00755066 -4.88629e-07 -0.0114511)
(0.00895826 -4.68316e-07 -0.0102415)
(0.0102422 -2.91246e-07 -0.00888063)
(0.0114197 -2.27512e-07 -0.00734955)
(0.0124734 -3.96591e-07 -0.00564451)
(0.0133467 -4.19809e-07 -0.00377479)
(0.0139675 -3.21687e-07 -0.0017727)
(0.0142813 -1.41178e-07 0.000292215)
(0.0142732 -1.552e-07 0.00236605)
(0.013945 -2.77823e-07 0.00440761)
(0.0132914 -3.50969e-07 0.00636954)
(0.0123216 -2.77054e-07 0.00821024)
(0.0110685 -1.79676e-07 0.00989427)
(0.00956426 -1.92558e-07 0.0113958)
(0.00783316 -1.58981e-07 0.0126807)
(0.00590374 -5.16556e-08 0.0136873)
(0.00381126 6.84354e-07 0.0142569)
(0.0016342 -2.18067e-06 0.014591)
(0.000748338 1.6052e-05 -0.0166553)
(0.0028146 -2.84183e-06 -0.0155748)
(0.00493344 -5.81804e-07 -0.015125)
(0.00684679 -3.10115e-07 -0.0141976)
(0.00854379 -3.0385e-07 -0.0129732)
(0.010047 -4.64638e-07 -0.011615)
(0.0113872 -2.39613e-07 -0.0101356)
(0.0126093 -1.86426e-07 -0.00850522)
(0.0137428 -3.03085e-07 -0.00668078)
(0.0147634 -2.71604e-07 -0.00462059)
(0.0155854 -3.87056e-07 -0.00234108)
(0.016107 -3.35701e-07 5.96017e-05)
(0.0162542 -2.59049e-07 0.00249237)
(0.0159954 -1.22509e-07 0.00489652)
(0.0153276 -2.30807e-07 0.00721645)
(0.0142685 -3.506e-07 0.00939262)
(0.0128557 -2.51905e-07 0.0113745)
(0.0111319 -1.5925e-07 0.0131363)
(0.00913413 -1.67466e-07 0.0146506)
(0.00690243 -4.17751e-08 0.0158531)
(0.00447313 8.01778e-07 0.0165613)
(0.00192342 -2.73883e-06 0.0169955)
(0.000876833 1.86749e-05 -0.0192481)
(0.00331281 -3.28105e-06 -0.0179208)
(0.00580672 -7.42043e-07 -0.0172907)
(0.00802313 -2.32757e-07 -0.0161168)
(0.00993803 -2.367e-07 -0.0146394)
(0.0115794 -3.44664e-07 -0.0130643)
(0.0129802 -1.72543e-07 -0.0114144)
(0.0141892 -1.13396e-07 -0.00966573)
(0.0152728 -2.88638e-07 -0.00775822)
(0.0162807 -3.24176e-07 -0.00559428)
(0.0172046 -2.48592e-07 -0.00311917)
(0.0179413 -4.03033e-07 -0.000396793)
(0.0183262 -4.02359e-07 0.00245717)
(0.0182301 -1.46649e-07 0.00532296)
(0.0176129 -1.99274e-07 0.00809673)
(0.0164965 -2.75017e-07 0.0106942)
(0.0149284 -3.72075e-07 0.0130502)
(0.0129673 -2.07642e-07 0.0151357)
(0.0106699 -6.97241e-08 0.016927)
(0.0080893 -7.97478e-08 0.0183602)
(0.005266 9.92867e-07 0.0192468)
(0.0022725 -3.43592e-06 0.0198254)
(0.00105321 2.23032e-05 -0.0223366)
(0.00398505 -3.86743e-06 -0.0207177)
(0.00695138 -9.56288e-07 -0.019839)
(0.00956268 -3.38257e-07 -0.0183429)
(0.011798 -3.58265e-07 -0.0165314)
(0.013677 -2.09861e-07 -0.0146523)
(0.0152222 -1.19798e-07 -0.0127398)
(0.0164681 -1.07851e-07 -0.0107802)
(0.0174736 -2.0788e-07 -0.00873261)
(0.0183248 -2.67312e-07 -0.00649819)
(0.0191136 -1.72515e-07 -0.00396101)
(0.0198585 -3.72535e-07 -0.00105519)
(0.0204249 -3.64931e-07 0.00218218)
(0.0205703 -2.76602e-07 0.00558475)
(0.0201137 -2.95744e-07 0.00894077)
(0.0190126 -2.6199e-07 0.0120845)
(0.0173186 -2.21987e-07 0.0149195)
(0.0151155 -1.91052e-07 0.0174146)
(0.0124856 -1.26586e-07 0.0195508)
(0.00949955 1.42325e-07 0.0212684)
(0.00620593 1.26794e-06 0.022385)
(0.00268382 -3.96114e-06 0.023162)
(0.0012645 2.66517e-05 -0.0260569)
(0.00479283 -4.27962e-06 -0.0240757)
(0.00833309 -1.04478e-06 -0.0228635)
(0.0114443 -5.33375e-07 -0.0209757)
(0.0141148 -3.81548e-07 -0.0187606)
(0.0163517 -1.13664e-07 -0.0164948)
(0.0181703 -1.07823e-07 -0.0142199)
(0.0195862 -1.95094e-07 -0.0119272)
(0.0206247 -1.93402e-07 -0.00960132)
(0.021345 -3.49681e-07 -0.0071891)
(0.0218589 -3.80118e-07 -0.00458829)
(0.0223011 -2.83146e-07 -0.00165022)
(0.0227275 -2.92221e-07 0.00175786)
(0.0229885 -4.64267e-07 0.00560866)
(0.0227615 -3.01417e-07 0.00963523)
(0.0217935 -3.26412e-07 0.0134879)
(0.0200454 -1.76006e-07 0.016959)
(0.0176117 -1.70913e-07 0.0199911)
(0.0146151 -1.73322e-07 0.0225703)
(0.0111594 2.18264e-07 0.0246493)
(0.00731373 1.5451e-06 0.0260604)
(0.00316938 -4.78314e-06 0.0270972)
(0.00150135 3.15e-05 -0.0305026)
(0.00571193 -4.98208e-06 -0.0280979)
(0.0099523 -1.20649e-06 -0.0264788)
(0.0136918 -6.61292e-07 -0.0241314)
(0.0169202 -3.15198e-07 -0.0214474)
(0.0196438 -1.70416e-07 -0.0187214)
(0.0218747 -2.27039e-07 -0.0159944)
(0.0236105 -3.31965e-07 -0.013254)
(0.0248397 -2.22279e-07 -0.0104972)
(0.0255749 -2.53381e-07 -0.00771675)
(0.025883 -4.79233e-07 -0.00487146)
(0.0259056 -3.87506e-07 -0.00184674)
(0.0258308 -1.60495e-07 0.00155959)
(0.0257773 -1.72049e-07 0.00555927)
(0.0255832 -4.32774e-07 0.0101163)
(0.024804 -2.76836e-07 0.0147893)
(0.0231085 -1.88917e-08 0.0191087)
(0.0204866 -2.28475e-07 0.0228689)
(0.0170991 -2.27956e-07 0.0260338)
(0.013108 2.07953e-07 0.0285785)
(0.008618 1.71509e-06 0.0303648)
(0.00374165 -5.8479e-06 0.0317381)
(0.0017719 3.69531e-05 -0.035767)
(0.00677357 -5.81551e-06 -0.0329037)
(0.0118572 -1.3437e-06 -0.0308257)
(0.0163679 -5.45591e-07 -0.0279481)
(0.0202957 -2.43937e-07 -0.0247273)
(0.0236565 -3.50703e-07 -0.0214699)
(0.0264488 -4.38321e-07 -0.0182053)
(0.0286461 -3.70371e-07 -0.0149098)