/*--------------------------------*- C++ -*----------------------------------*\
  =========                 |
  \\      /  F ield         | OpenFOAM: The Open Source CFD Toolbox
   \\    /   O peration     | Website:  https://openfoam.org
    \\  /    A nd           | Version:  7
     \\/     M anipulation  |
\*---------------------------------------------------------------------------*/
FoamFile
{
    version     2.0;
    format      ascii;
    class       volScalarField;
    location    "28";
    object      ddt0(h);
}
// * * * * * * * * * * * * * * * * * * * * * * * * * * * * * * * * * * * * * //

dimensions      [0 1 -1 0 0 0 0];

internalField   nonuniform List<scalar> 
400
(
-1.13029e-09
-8.51017e-09
-1.62196e-08
-1.88234e-08
-2.1049e-08
-3.41438e-08
-3.31608e-08
-4.32671e-08
-3.40946e-08
-3.25783e-08
-2.92516e-08
-2.48881e-08
-2.02584e-08
-1.58831e-08
-1.29073e-08
-1.07282e-08
-7.88536e-09
-4.95909e-09
-3.25193e-09
-1.50612e-09
-2.28872e-09
-9.95806e-09
-1.79531e-08
-2.17424e-08
-3.07557e-08
-2.75811e-08
-3.46027e-08
-2.79828e-08
-3.65098e-08
-3.36172e-08
-3.01839e-08
-2.61319e-08
-2.15897e-08
-1.70851e-08
-1.33546e-08
-1.02094e-08
-7.40088e-09
-5.13172e-09
-3.3303e-09
-1.21702e-09
-3.39835e-09
-9.13351e-09
-1.84453e-08
-2.57315e-08
-2.71831e-08
-2.99715e-08
-3.38994e-08
-3.54495e-08
-3.33357e-08
-3.04197e-08
-2.70559e-08
-2.3338e-08
-1.92345e-08
-1.51816e-08
-1.14374e-08
-8.29244e-09
-6.50446e-09
-5.27613e-09
-3.17387e-09
-9.6559e-10
-7.84089e-09
-1.60811e-08
-2.37639e-08
-3.21753e-08
-3.51479e-08
-3.70561e-08
-3.77357e-08
-3.6611e-08
-3.39093e-08
-3.03612e-08
-2.69616e-08
-2.31705e-08
-1.87561e-08
-1.42885e-08
-9.99002e-09
-6.43421e-09
-4.56605e-09
-3.05424e-09
-8.7439e-10
1.48082e-10
-8.04828e-09
-1.4839e-08
-1.91767e-08
-2.53507e-08
-2.92957e-08
-3.16759e-08
-3.27638e-08
-3.1447e-08
-2.91904e-08
-2.60764e-08
-2.26362e-08
-1.90352e-08
-1.48606e-08
-1.07452e-08
-7.30095e-09
-4.76241e-09
-3.07351e-09
-1.18627e-09
6.75399e-10
6.50146e-10
-1.31654e-08
-1.40604e-08
-2.83226e-08
-3.17263e-08
-3.26522e-08
-3.25298e-08
-3.22874e-08
-2.96184e-08
-2.68034e-08
-2.37341e-08
-2.01422e-08
-1.62404e-08
-1.21605e-08
-8.32922e-09
-5.32191e-09
-3.09136e-09
-1.0448e-09
1.06599e-09
1.96934e-09
9.39888e-10
-9.5056e-09
-1.83015e-08
-1.9855e-08
-2.28317e-08
-2.44702e-08
-2.53493e-08
-2.51065e-08
-2.37944e-08
-2.14333e-08
-1.83678e-08
-1.49646e-08
-1.13185e-08
-8.00563e-09
-5.13563e-09
-2.88838e-09
-1.13053e-09
5.91625e-10
1.58213e-09
9.54038e-10
9.98992e-11
-9.37864e-09
-1.46908e-08
-1.71165e-08
-1.83594e-08
-1.94142e-08
-1.99549e-08
-1.95083e-08
-1.82022e-08
-1.57545e-08
-1.32488e-08
-1.03221e-08
-7.18107e-09
-4.90733e-09
-3.24828e-09
-1.46281e-09
7.3894e-10
2.51133e-09
2.13235e-09
2.90971e-11
-5.88093e-10
-6.64794e-09
-9.23473e-09
-1.08705e-08
-1.16419e-08
-1.26995e-08
-1.26183e-08
-1.2106e-08
-1.15087e-08
-9.60607e-09
-7.80901e-09
-6.09243e-09
-4.08295e-09
-2.5329e-09
-1.71247e-09
-8.40303e-10
9.32567e-10
2.64731e-09
2.04051e-09
-2.62571e-10
-7.56895e-10
-2.23629e-09
-3.27965e-09
-3.60057e-09
-3.89407e-09
-4.36005e-09
-4.08181e-09
-4.28875e-09
-4.12162e-09
-3.04214e-09
-2.33136e-09
-1.95498e-09
-1.15646e-09
-4.04654e-10
-2.84573e-10
-3.20628e-10
2.07645e-10
8.82838e-10
6.5087e-10
-1.50761e-10
-2.40417e-10
2.16663e-09
3.21952e-09
3.55145e-09
3.86893e-09
4.36411e-09
4.10236e-09
4.31968e-09
4.14926e-09
3.05523e-09
2.33996e-09
1.95141e-09
1.1469e-09
3.99909e-10
2.76873e-10
3.06482e-10
-2.2222e-10
-8.85675e-10
-6.32749e-10
1.74402e-10
2.50934e-10
6.58248e-09
9.19505e-09
1.08307e-08
1.1626e-08
1.26848e-08
1.26262e-08
1.21124e-08
1.15203e-08
9.60937e-09
7.81234e-09
6.09388e-09
4.07185e-09
2.52487e-09
1.70915e-09
8.24866e-10
-9.59518e-10
-2.66466e-09
-2.03804e-09
2.73743e-10
7.63596e-10
9.33931e-09
1.46701e-08
1.70965e-08
1.83436e-08
1.93861e-08
1.99317e-08
1.94823e-08
1.81895e-08
1.57466e-08
1.32284e-08
1.03211e-08
7.17682e-09
4.88833e-09
3.23061e-09
1.44231e-09
-7.67046e-10
-2.53592e-09
-2.15118e-09
-4.23714e-11
5.84096e-10
9.47881e-09
1.83431e-08
1.98599e-08
2.27967e-08
2.4443e-08
2.53014e-08
2.50708e-08
2.37485e-08
2.14147e-08
1.83351e-08
1.49409e-08
1.13124e-08
7.98496e-09
5.10574e-09
2.86299e-09
1.1071e-09
-6.19224e-10
-1.61977e-09
-9.90118e-10
-1.13823e-10
1.31883e-08
1.39375e-08
2.82979e-08
3.16966e-08
3.26558e-08
3.25111e-08
3.22737e-08
2.95848e-08
2.67733e-08
2.37025e-08
2.01017e-08
1.62197e-08
1.21395e-08
8.29775e-09
5.29488e-09
3.0706e-09
1.01944e-09
-1.10074e-09
-2.00004e-09
-9.51052e-10
8.09962e-09
1.47872e-08
1.9117e-08
2.53444e-08
2.93351e-08
3.17035e-08
3.27918e-08
3.14643e-08
2.9183e-08
2.60584e-08
2.25971e-08
1.90062e-08
1.48395e-08
1.07171e-08
7.27659e-09
4.74544e-09
3.0555e-09
1.16845e-09
-6.84762e-10
-6.51613e-10
7.78496e-09
1.60833e-08
2.37418e-08
3.22339e-08
3.51237e-08
3.70945e-08
3.77819e-08
3.66418e-08
3.39445e-08
3.03849e-08
2.69486e-08
2.3145e-08
1.87365e-08
1.42654e-08
9.96763e-09
6.41652e-09
4.54991e-09
3.04647e-09
8.79169e-10
-1.42718e-10
3.32937e-09
9.15128e-09
1.85426e-08
2.58875e-08
2.71149e-08
3.00261e-08
3.3868e-08
3.5595e-08
3.33938e-08
3.04763e-08
2.707e-08
2.33193e-08
1.92122e-08
1.51579e-08
1.14133e-08
8.27102e-09
6.48537e-09
5.26527e-09
3.17521e-09
9.68479e-10
2.27371e-09
9.97139e-09
1.80687e-08
2.18101e-08
3.06008e-08
2.76198e-08
3.44722e-08
2.83167e-08
3.66454e-08
3.36251e-08
3.01916e-08
2.61238e-08
2.15714e-08
1.70618e-08
1.33231e-08
1.01728e-08
7.36455e-09
5.10053e-09
3.30937e-09
1.21015e-09
1.22191e-09
8.59105e-09
1.61217e-08
1.86083e-08
2.12799e-08
3.40231e-08
3.32783e-08
4.27852e-08
3.38905e-08
3.25341e-08
2.92734e-08
2.49072e-08
2.02524e-08
1.58629e-08
1.28716e-08
1.06839e-08
7.84399e-09
4.92124e-09
3.22019e-09
1.49185e-09
)
;

boundaryField
{
    sides
    {
        type            calculated;
        value           nonuniform List<scalar> 
40
(
1.22191e-09
8.59105e-09
1.61217e-08
1.86083e-08
2.12799e-08
3.40231e-08
3.32783e-08
4.27852e-08
3.38905e-08
3.25341e-08
2.92734e-08
2.49072e-08
2.02524e-08
1.58629e-08
1.28716e-08
1.06839e-08
7.84399e-09
4.92124e-09
3.22019e-09
1.49185e-09
-1.13029e-09
-8.51017e-09
-1.62196e-08
-1.88234e-08
-2.1049e-08
-3.41438e-08
-3.31608e-08
-4.32671e-08
-3.40946e-08
-3.25783e-08
-2.92516e-08
-2.48881e-08
-2.02584e-08
-1.58831e-08
-1.29073e-08
-1.07282e-08
-7.88536e-09
-4.95909e-09
-3.25193e-09
-1.50612e-09
)
;
    }
    inlet
    {
        type            calculated;
        value           nonuniform List<scalar> 
20
(
-1.13029e-09
-2.28872e-09
-3.39835e-09
-7.84089e-09
-8.04828e-09
-1.31654e-08
-9.5056e-09
-9.37864e-09
-6.64794e-09
-2.23629e-09
2.16663e-09
6.58248e-09
9.33931e-09
9.47881e-09
1.31883e-08
8.09962e-09
7.78496e-09
3.32937e-09
2.27371e-09
1.22191e-09
)
;
    }
    outlet
    {
        type            calculated;
        value           uniform 0;
    }
    frontAndBack
    {
        type            empty;
    }
}


// ************************************************************************* //
