/*--------------------------------*- C++ -*----------------------------------*\
  =========                 |
  \\      /  F ield         | OpenFOAM: The Open Source CFD Toolbox
   \\    /   O peration     | Website:  https://openfoam.org
    \\  /    A nd           | Version:  7
     \\/     M anipulation  |
\*---------------------------------------------------------------------------*/
FoamFile
{
    version     2.0;
    format      ascii;
    class       volVectorField;
    location    "28";
    object      ddtCorrDdt0(hU);
}
// * * * * * * * * * * * * * * * * * * * * * * * * * * * * * * * * * * * * * //

dimensions      [0 2 -2 0 0 0 0];

internalField   nonuniform List<vector> 
400
(
(-1.00271e-09 -1.12633e-10 0)
(2.7669e-09 2.39094e-10 0)
(7.24025e-09 2.06107e-09 0)
(7.72444e-09 4.56317e-09 0)
(5.98214e-09 6.84598e-09 0)
(4.25704e-09 7.18889e-09 0)
(4.88378e-09 6.74457e-09 0)
(3.00176e-09 5.13651e-09 0)
(1.17334e-09 3.38531e-09 0)
(-9.54227e-10 1.10569e-09 0)
(-7.47498e-10 -1.60543e-09 0)
(9.92221e-10 -3.68292e-09 0)
(3.31729e-09 -4.28172e-09 0)
(6.05733e-09 -2.33695e-09 0)
(7.35025e-09 7.35128e-10 0)
(7.4536e-09 3.80917e-09 0)
(3.09743e-09 5.45283e-09 0)
(-5.12657e-10 5.16452e-09 0)
(-6.79417e-09 4.32298e-09 0)
(-9.33738e-09 3.13252e-10 0)
(-9.01422e-10 -1.24753e-10 0)
(2.84031e-09 -7.75341e-10 0)
(7.48838e-09 -6.44363e-10 0)
(9.36127e-09 -5.40852e-10 0)
(7.55327e-09 5.92006e-10 0)
(6.27914e-09 2.29237e-09 0)
(3.97757e-09 3.95552e-09 0)
(1.93573e-09 4.02686e-09 0)
(-1.69617e-09 3.48273e-09 0)
(-3.13983e-09 2.59426e-09 0)
(-2.36962e-09 1.41751e-09 0)
(-3.67336e-10 1.78425e-10 0)
(2.39428e-09 -1.31003e-09 0)
(5.97314e-09 -1.61111e-09 0)
(8.06605e-09 -6.52696e-10 0)
(8.54422e-09 1.77516e-09 0)
(3.96487e-09 4.86501e-09 0)
(-2.86571e-10 6.32107e-09 0)
(-7.38664e-09 7.3716e-09 0)
(-1.05214e-08 2.388e-09 0)
(-1.1515e-09 3.48528e-10 0)
(2.90387e-09 6.61205e-10 0)
(6.12352e-09 4.36217e-09 0)
(6.40565e-09 8.74804e-09 0)
(6.42031e-09 1.04988e-08 0)
(6.17444e-09 1.06883e-08 0)
(5.42658e-09 1.00083e-08 0)
(4.05051e-09 8.68427e-09 0)
(2.30289e-09 6.27354e-09 0)
(6.02379e-10 2.68709e-09 0)
(3.76512e-10 -1.80153e-09 0)
(1.30196e-09 -5.52405e-09 0)
(2.94641e-09 -7.66466e-09 0)
(5.05871e-09 -5.59955e-09 0)
(5.92719e-09 -9.36889e-10 0)
(5.9018e-09 5.77821e-09 0)
(2.12898e-09 1.1694e-08 0)
(-9.05703e-10 1.33848e-08 0)
(-6.41583e-09 1.36833e-08 0)
(-8.65265e-09 2.92288e-09 0)
(-1.14751e-09 4.02711e-10 0)
(3.84017e-09 2.4288e-10 0)
(8.56343e-09 3.26027e-09 0)
(7.84688e-09 9.17991e-09 0)
(5.45409e-09 1.32144e-08 0)
(3.96491e-09 1.43347e-08 0)
(2.56099e-09 1.38974e-08 0)
(1.34733e-10 1.25442e-08 0)
(-2.38322e-09 9.8744e-09 0)
(-3.60979e-09 5.36591e-09 0)
(-2.73728e-09 -9.11151e-10 0)
(-6.05671e-10 -6.59717e-09 0)
(2.47401e-09 -1.03091e-08 0)
(6.12723e-09 -8.11275e-09 0)
(7.98896e-09 -1.97099e-09 0)
(8.30885e-09 7.05385e-09 0)
(3.80132e-09 1.51331e-08 0)
(-5.02186e-10 1.72374e-08 0)
(-7.7343e-09 1.77156e-08 0)
(-1.10543e-08 3.96417e-09 0)
(-8.28699e-10 8.78403e-10 0)
(2.38415e-09 2.28561e-09 0)
(5.23909e-09 4.93678e-09 0)
(6.38066e-09 7.79289e-09 0)
(6.48281e-09 1.06431e-08 0)
(6.17385e-09 1.24987e-08 0)
(5.45262e-09 1.30665e-08 0)
(4.14748e-09 1.1858e-08 0)
(2.36697e-09 8.79478e-09 0)
(9.92214e-10 3.71833e-09 0)
(5.99273e-10 -2.95579e-09 0)
(5.93645e-10 -8.70625e-09 0)
(9.69013e-10 -1.2725e-08 0)
(2.04205e-09 -1.06254e-08 0)
(2.72367e-09 -4.03549e-09 0)
(3.38305e-09 6.61575e-09 0)
(1.53958e-09 1.67948e-08 0)
(-2.36367e-10 1.99581e-08 0)
(-4.12431e-09 2.13436e-08 0)
(-6.52285e-09 5.07693e-09 0)
(-7.41447e-10 6.1772e-10 0)
(5.06606e-09 3.39713e-09 0)
(6.22529e-09 9.41824e-09 0)
(5.08728e-09 1.58699e-08 0)
(4.16328e-09 1.97971e-08 0)
(3.24361e-09 2.05114e-08 0)
(2.03835e-09 1.92151e-08 0)
(3.85887e-10 1.60849e-08 0)
(-1.73404e-09 1.11284e-08 0)
(-3.08749e-09 3.82985e-09 0)
(-2.3649e-09 -5.6714e-09 0)
(-1.79763e-10 -1.37039e-08 0)
(2.86177e-09 -1.84969e-08 0)
(5.90091e-09 -1.46818e-08 0)
(6.9445e-09 -5.10759e-09 0)
(6.33952e-09 8.85594e-09 0)
(2.04689e-09 2.10924e-08 0)
(-1.49328e-09 2.43199e-08 0)
(-7.02504e-09 2.52023e-08 0)
(-8.7425e-09 5.26501e-09 0)
(-7.79478e-10 -1.3985e-10 0)
(2.12629e-09 2.10832e-09 0)
(4.98882e-09 5.47668e-09 0)
(5.33096e-09 1.04902e-08 0)
(4.6175e-09 1.47086e-08 0)
(3.85077e-09 1.6765e-08 0)
(3.17999e-09 1.69439e-08 0)
(2.33575e-09 1.48503e-08 0)
(1.36277e-09 1.06045e-08 0)
(4.70081e-10 3.85606e-09 0)
(-4.79333e-11 -5.37369e-09 0)
(-2.69064e-10 -1.35179e-08 0)
(-7.49642e-11 -1.90379e-08 0)
(8.8918e-10 -1.60763e-08 0)
(1.70979e-09 -6.9671e-09 0)
(2.32482e-09 7.40194e-09 0)
(9.71114e-10 2.10383e-08 0)
(-3.87527e-10 2.54061e-08 0)
(-2.96522e-09 2.74379e-08 0)
(-4.5034e-09 6.46195e-09 0)
(-3.15036e-10 -1.35062e-11 0)
(2.17123e-09 4.2655e-09 0)
(3.39611e-09 9.50299e-09 0)
(3.92438e-09 1.4223e-08 0)
(3.69776e-09 1.79659e-08 0)
(2.96801e-09 1.93537e-08 0)
(1.99762e-09 1.84488e-08 0)
(7.11793e-10 1.49575e-08 0)
(-6.10561e-10 9.24675e-09 0)
(-1.5501e-09 8.71043e-10 0)
(-1.29756e-09 -9.88592e-09 0)
(-6.70333e-11 -1.88592e-08 0)
(1.555e-09 -2.41654e-08 0)
(3.16957e-09 -1.94095e-08 0)
(3.8113e-09 -7.95344e-09 0)
(3.62634e-09 8.91212e-09 0)
(1.15371e-09 2.41224e-08 0)
(-9.37933e-10 2.88166e-08 0)
(-4.15637e-09 3.04339e-08 0)
(-5.21408e-09 6.44226e-09 0)
(-3.47712e-10 -3.63469e-10 0)
(1.47659e-09 4.02955e-09 0)
(2.39637e-09 9.52433e-09 0)
(2.45414e-09 1.41633e-08 0)
(2.00455e-09 1.7592e-08 0)
(1.47093e-09 1.89166e-08 0)
(1.02455e-09 1.80764e-08 0)
(5.84509e-10 1.48959e-08 0)
(4.04813e-10 9.67304e-09 0)
(1.86329e-10 1.72976e-09 0)
(2.86459e-11 -8.9405e-09 0)
(1.2285e-10 -1.82969e-08 0)
(3.81863e-10 -2.44537e-08 0)
(7.30067e-10 -2.05584e-08 0)
(8.7345e-10 -9.59863e-09 0)
(9.11067e-10 7.27304e-09 0)
(2.41981e-10 2.33396e-08 0)
(-4.85464e-10 2.87938e-08 0)
(-1.68605e-09 3.13747e-08 0)
(-2.16622e-09 7.30904e-09 0)
(-9.51007e-11 -6.48176e-10 0)
(5.09134e-10 4.34526e-09 0)
(8.18678e-10 9.65383e-09 0)
(7.61334e-10 1.40427e-08 0)
(6.20581e-10 1.76606e-08 0)
(6.76828e-10 1.93166e-08 0)
(6.14252e-10 1.84173e-08 0)
(3.80411e-10 1.49147e-08 0)
(7.97099e-11 9.05636e-09 0)
(-3.78614e-10 2.90608e-10 0)
(-6.32563e-10 -1.09066e-08 0)
(-4.0922e-10 -2.02843e-08 0)
(1.21553e-10 -2.61276e-08 0)
(6.48963e-10 -2.14969e-08 0)
(9.12242e-10 -9.62979e-09 0)
(1.10967e-09 8.20541e-09 0)
(6.54419e-10 2.47107e-08 0)
(2.31653e-10 3.00531e-08 0)
(-7.97807e-10 3.21115e-08 0)
(-1.39781e-09 6.97465e-09 0)
(9.37293e-11 -6.47883e-10 0)
(-5.06261e-10 4.34324e-09 0)
(-8.18279e-10 9.65233e-09 0)
(-7.64497e-10 1.40415e-08 0)
(-6.23436e-10 1.76586e-08 0)
(-6.782e-10 1.93129e-08 0)
(-6.13523e-10 1.84133e-08 0)
(-3.78801e-10 1.49106e-08 0)
(-7.93653e-11 9.05432e-09 0)
(3.78769e-10 2.89587e-10 0)
(6.2986e-10 -1.09068e-08 0)
(4.05275e-10 -2.02844e-08 0)
(-1.25571e-10 -2.61284e-08 0)
(-6.52909e-10 -2.14969e-08 0)
(-9.17166e-10 -9.62849e-09 0)
(-1.11295e-09 8.20568e-09 0)
(-6.57113e-10 2.47078e-08 0)
(-2.38829e-10 3.00499e-08 0)
(7.98272e-10 3.21103e-08 0)
(1.40829e-09 6.97542e-09 0)
(3.44048e-10 -3.61918e-10 0)
(-1.47536e-09 4.02575e-09 0)
(-2.39595e-09 9.52179e-09 0)
(-2.4576e-09 1.41603e-08 0)
(-2.01103e-09 1.75895e-08 0)
(-1.47432e-09 1.89103e-08 0)
(-1.02642e-09 1.80684e-08 0)
(-5.83774e-10 1.48864e-08 0)
(-4.03498e-10 9.66786e-09 0)
(-1.84663e-10 1.72605e-09 0)
(-2.81243e-11 -8.94375e-09 0)
(-1.25691e-10 -1.82992e-08 0)
(-3.86116e-10 -2.44548e-08 0)
(-7.32788e-10 -2.05564e-08 0)
(-8.79635e-10 -9.59306e-09 0)
(-9.19401e-10 7.27906e-09 0)
(-2.47503e-10 2.33355e-08 0)
(4.81387e-10 2.87852e-08 0)
(1.6895e-09 3.13604e-08 0)
(2.17451e-09 7.3001e-09 0)
(3.10841e-10 -1.41885e-11 0)
(-2.17343e-09 4.25721e-09 0)
(-3.39682e-09 9.50119e-09 0)
(-3.92853e-09 1.42229e-08 0)
(-3.70438e-09 1.79669e-08 0)
(-2.97527e-09 1.93515e-08 0)
(-2.00507e-09 1.84444e-08 0)
(-7.15767e-10 1.49527e-08 0)
(6.09451e-10 9.24501e-09 0)
(1.54649e-09 8.71639e-10 0)
(1.29753e-09 -9.88798e-09 0)
(6.7833e-11 -1.88631e-08 0)
(-1.55751e-09 -2.41673e-08 0)
(-3.16951e-09 -1.94076e-08 0)
(-3.81329e-09 -7.94856e-09 0)
(-3.63354e-09 8.92049e-09 0)
(-1.16105e-09 2.41215e-08 0)
(9.3233e-10 2.88099e-08 0)
(4.15711e-09 3.04143e-08 0)
(5.21558e-09 6.42616e-09 0)
(7.71462e-10 -1.51477e-10 0)
(-2.12499e-09 2.10828e-09 0)
(-4.98384e-09 5.4723e-09 0)
(-5.33676e-09 1.04953e-08 0)
(-4.62353e-09 1.47143e-08 0)
(-3.85981e-09 1.67699e-08 0)
(-3.18795e-09 1.69446e-08 0)
(-2.34347e-09 1.48537e-08 0)
(-1.36348e-09 1.06095e-08 0)
(-4.72792e-10 3.86471e-09 0)
(4.64848e-11 -5.36691e-09 0)
(2.73453e-10 -1.35196e-08 0)
(7.54037e-11 -1.90407e-08 0)
(-8.91486e-10 -1.6077e-08 0)
(-1.71577e-09 -6.96691e-09 0)
(-2.33554e-09 7.40388e-09 0)
(-9.81906e-10 2.10299e-08 0)
(3.79728e-10 2.53902e-08 0)
(2.96533e-09 2.74058e-08 0)
(4.50558e-09 6.44515e-09 0)
(7.53772e-10 6.03539e-10 0)
(-5.07825e-09 3.39409e-09 0)
(-6.23329e-09 9.4191e-09 0)
(-5.08546e-09 1.58829e-08 0)
(-4.16047e-09 1.9805e-08 0)
(-3.24702e-09 2.05173e-08 0)
(-2.04521e-09 1.92166e-08 0)
(-3.96388e-10 1.60903e-08 0)
(1.72559e-09 1.11374e-08 0)
(3.07995e-09 3.83837e-09 0)
(2.35433e-09 -5.66456e-09 0)
(1.74864e-10 -1.37056e-08 0)
(-2.8654e-09 -1.85e-08 0)
(-5.90319e-09 -1.46786e-08 0)
(-6.94612e-09 -5.10194e-09 0)
(-6.34004e-09 8.86671e-09 0)
(-2.0478e-09 2.10945e-08 0)
(1.4918e-09 2.43161e-08 0)
(7.02811e-09 2.51749e-08 0)
(8.74012e-09 5.23852e-09 0)
(8.38505e-10 8.72497e-10 0)
(-2.38424e-09 2.27266e-09 0)
(-5.2377e-09 4.94096e-09 0)
(-6.38193e-09 7.79475e-09 0)
(-6.48583e-09 1.06379e-08 0)
(-6.17475e-09 1.24899e-08 0)
(-5.45353e-09 1.30559e-08 0)
(-4.14842e-09 1.18539e-08 0)
(-2.37102e-09 8.80045e-09 0)
(-9.98008e-10 3.73034e-09 0)
(-6.09155e-10 -2.94009e-09 0)
(-5.97772e-10 -8.69872e-09 0)
(-9.67431e-10 -1.27248e-08 0)
(-2.04023e-09 -1.0628e-08 0)
(-2.72558e-09 -4.03995e-09 0)
(-3.38802e-09 6.61257e-09 0)
(-1.54742e-09 1.67846e-08 0)
(2.27218e-10 1.99459e-08 0)
(4.11936e-09 2.13144e-08 0)
(6.52143e-09 5.06292e-09 0)
(1.14731e-09 4.01568e-10 0)
(-3.83134e-09 2.46216e-10 0)
(-8.56937e-09 3.26381e-09 0)
(-7.85212e-09 9.1614e-09 0)
(-5.45953e-09 1.32066e-08 0)
(-3.9595e-09 1.43186e-08 0)
(-2.55623e-09 1.38775e-08 0)
(-1.32131e-10 1.25272e-08 0)
(2.38575e-09 9.87083e-09 0)
(3.61154e-09 5.36788e-09 0)
(2.72985e-09 -9.0549e-10 0)
(5.96325e-10 -6.59467e-09 0)
(-2.4804e-09 -1.03068e-08 0)
(-6.12934e-09 -8.10403e-09 0)
(-7.98973e-09 -1.95988e-09 0)
(-8.30385e-09 7.0679e-09 0)
(-3.79353e-09 1.51349e-08 0)
(5.07269e-10 1.72339e-08 0)
(7.73856e-09 1.76887e-08 0)
(1.10472e-08 3.93736e-09 0)
(1.15315e-09 3.45778e-10 0)
(-2.89537e-09 6.57844e-10 0)
(-6.14011e-09 4.35913e-09 0)
(-6.40736e-09 8.73114e-09 0)
(-6.42483e-09 1.05017e-08 0)
(-6.17584e-09 1.06878e-08 0)
(-5.43195e-09 9.99272e-09 0)
(-4.02919e-09 8.64659e-09 0)
(-2.28733e-09 6.27653e-09 0)
(-5.91409e-10 2.69139e-09 0)
(-3.77027e-10 -1.79618e-09 0)
(-1.31061e-09 -5.51994e-09 0)
(-2.95443e-09 -7.66443e-09 0)
(-5.06308e-09 -5.60353e-09 0)
(-5.93118e-09 -9.42684e-10 0)
(-5.90174e-09 5.77411e-09 0)
(-2.12615e-09 1.16856e-08 0)
(9.06514e-10 1.33774e-08 0)
(6.41599e-09 1.36664e-08 0)
(8.64224e-09 2.91533e-09 0)
(9.04294e-10 -1.24813e-10 0)
(-2.83642e-09 -8.01489e-10 0)
(-7.50291e-09 -6.68112e-10 0)
(-9.36569e-09 -5.07298e-10 0)
(-7.55458e-09 6.03886e-10 0)
(-6.29072e-09 2.30439e-09 0)
(-4.03015e-09 3.98671e-09 0)
(-1.89308e-09 4.07318e-09 0)
(1.7439e-09 3.4786e-09 0)
(3.13816e-09 2.57849e-09 0)
(2.37072e-09 1.40181e-09 0)
(3.69887e-10 1.70786e-10 0)
(-2.39272e-09 -1.30874e-09 0)
(-5.96975e-09 -1.60328e-09 0)
(-8.0655e-09 -6.42777e-10 0)
(-8.54251e-09 1.78321e-09 0)
(-3.96545e-09 4.86025e-09 0)
(2.82622e-10 6.31043e-09 0)
(7.37406e-09 7.34726e-09 0)
(1.05006e-08 2.3716e-09 0)
(9.95434e-10 -1.09893e-10 0)
(-2.78606e-09 2.21758e-10 0)
(-7.22522e-09 2.04235e-09 0)
(-7.73009e-09 4.59985e-09 0)
(-5.9763e-09 6.85151e-09 0)
(-4.2491e-09 7.19146e-09 0)
(-4.83558e-09 6.78104e-09 0)
(-3.0806e-09 5.21249e-09 0)
(-1.25135e-09 3.3816e-09 0)
(9.41982e-10 1.09456e-09 0)
(7.53772e-10 -1.61455e-09 0)
(-9.87493e-10 -3.68793e-09 0)
(-3.32324e-09 -4.28472e-09 0)
(-6.06365e-09 -2.33711e-09 0)
(-7.35474e-09 7.35479e-10 0)
(-7.45044e-09 3.8117e-09 0)
(-3.08861e-09 5.45356e-09 0)
(5.20855e-10 5.16556e-09 0)
(6.79951e-09 4.32049e-09 0)
(9.32242e-09 3.06605e-10 0)
)
;

boundaryField
{
    sides
    {
        type            calculated;
        value           nonuniform List<vector> 
40
(
(9.95434e-10 0 0)
(-2.78606e-09 0 0)
(-7.22522e-09 0 0)
(-7.73009e-09 0 0)
(-5.9763e-09 0 0)
(-4.2491e-09 0 0)
(-4.83558e-09 0 0)
(-3.0806e-09 0 0)
(-1.25135e-09 0 0)
(9.41982e-10 0 0)
(7.53772e-10 0 0)
(-9.87493e-10 0 0)
(-3.32324e-09 0 0)
(-6.06365e-09 0 0)
(-7.35474e-09 0 0)
(-7.45044e-09 0 0)
(-3.08861e-09 0 0)
(5.20855e-10 0 0)
(6.79951e-09 0 0)
(9.32242e-09 0 0)
(-1.00271e-09 0 0)
(2.7669e-09 0 0)
(7.24025e-09 0 0)
(7.72444e-09 0 0)
(5.98214e-09 0 0)
(4.25704e-09 0 0)
(4.88378e-09 0 0)
(3.00176e-09 0 0)
(1.17334e-09 0 0)
(-9.54227e-10 0 0)
(-7.47498e-10 0 0)
(9.92221e-10 0 0)
(3.31729e-09 0 0)
(6.05733e-09 0 0)
(7.35025e-09 0 0)
(7.4536e-09 0 0)
(3.09743e-09 0 0)
(-5.12657e-10 0 0)
(-6.79417e-09 0 0)
(-9.33738e-09 0 0)
)
;
    }
    inlet
    {
        type            calculated;
        value           uniform (0 0 0);
    }
    outlet
    {
        type            calculated;
        value           nonuniform List<vector> 
20
(
(-9.33738e-09 3.13252e-10 0)
(-1.05214e-08 2.388e-09 0)
(-8.65265e-09 2.92288e-09 0)
(-1.10543e-08 3.96417e-09 0)
(-6.52285e-09 5.07693e-09 0)
(-8.7425e-09 5.26501e-09 0)
(-4.5034e-09 6.46195e-09 0)
(-5.21408e-09 6.44226e-09 0)
(-2.16622e-09 7.30904e-09 0)
(-1.39781e-09 6.97465e-09 0)
(1.40829e-09 6.97542e-09 0)
(2.17451e-09 7.3001e-09 0)
(5.21558e-09 6.42616e-09 0)
(4.50558e-09 6.44515e-09 0)
(8.74012e-09 5.23852e-09 0)
(6.52143e-09 5.06292e-09 0)
(1.10472e-08 3.93736e-09 0)
(8.64224e-09 2.91533e-09 0)
(1.05006e-08 2.3716e-09 0)
(9.32242e-09 3.06605e-10 0)
)
;
    }
    frontAndBack
    {
        type            empty;
    }
}


// ************************************************************************* //
