/*--------------------------------*- C++ -*----------------------------------*\
  =========                 |
  \\      /  F ield         | OpenFOAM: The Open Source CFD Toolbox
   \\    /   O peration     | Website:  https://openfoam.org
    \\  /    A nd           | Version:  7
     \\/     M anipulation  |
\*---------------------------------------------------------------------------*/
FoamFile
{
    version     2.0;
    format      ascii;
    class       volVectorField;
    location    "28";
    object      hU;
}
// * * * * * * * * * * * * * * * * * * * * * * * * * * * * * * * * * * * * * //

dimensions      [0 2 -1 0 0 0 0];

internalField   nonuniform List<vector> 
400
(
(0.001 -8.34312e-09 0)
(0.001 -2.21594e-08 0)
(0.000999999 -3.32656e-08 0)
(0.000999999 -4.38468e-08 0)
(0.001 -5.51487e-08 0)
(0.00100001 -6.72361e-08 0)
(0.00100002 -7.93813e-08 0)
(0.00100003 -9.18587e-08 0)
(0.00100004 -1.0328e-07 0)
(0.00100006 -1.15261e-07 0)
(0.00100008 -1.24926e-07 0)
(0.00100011 -1.36361e-07 0)
(0.00100012 -1.43899e-07 0)
(0.00100016 -1.58155e-07 0)
(0.00100018 -1.66083e-07 0)
(0.00100024 -1.90695e-07 0)
(0.00100026 -1.97842e-07 0)
(0.00100037 -2.42127e-07 0)
(0.00100038 -2.41389e-07 0)
(0.00100061 -3.34832e-07 0)
(0.001 4.15713e-09 0)
(0.00100001 1.279e-08 0)
(0.00100001 2.1286e-08 0)
(0.00100001 2.92554e-08 0)
(0.00100001 3.71074e-08 0)
(0.00100002 4.4105e-08 0)
(0.00100003 5.00021e-08 0)
(0.00100004 5.44614e-08 0)
(0.00100005 5.89426e-08 0)
(0.00100007 6.20711e-08 0)
(0.00100009 6.64826e-08 0)
(0.00100011 6.83661e-08 0)
(0.00100013 7.346e-08 0)
(0.00100017 7.24146e-08 0)
(0.00100019 7.78973e-08 0)
(0.00100023 6.66778e-08 0)
(0.00100026 7.06558e-08 0)
(0.00100034 3.3505e-08 0)
(0.00100037 3.77242e-08 0)
(0.00100051 -5.9647e-08 0)
(0.001 -2.72158e-09 0)
(0.001 -8.735e-09 0)
(0.000999998 -1.62056e-08 0)
(0.000999998 -2.64441e-08 0)
(0.001 -3.85007e-08 0)
(0.00100001 -5.16471e-08 0)
(0.00100002 -6.47893e-08 0)
(0.00100003 -7.88538e-08 0)
(0.00100004 -9.21609e-08 0)
(0.00100005 -1.06779e-07 0)
(0.00100007 -1.1848e-07 0)
(0.00100009 -1.32709e-07 0)
(0.00100011 -1.42239e-07 0)
(0.00100014 -1.60746e-07 0)
(0.00100016 -1.73222e-07 0)
(0.00100021 -2.08333e-07 0)
(0.00100023 -2.27759e-07 0)
(0.00100031 -2.94136e-07 0)
(0.00100032 -3.11319e-07 0)
(0.00100046 -4.31674e-07 0)
(0.001 1.14111e-09 0)
(0.001 4.69778e-09 0)
(0.00100001 8.8279e-09 0)
(0.00100001 1.12038e-08 0)
(0.00100001 1.06626e-08 0)
(0.00100002 7.76282e-09 0)
(0.00100002 4.09024e-09 0)
(0.00100003 -1.07385e-09 0)
(0.00100005 -5.79385e-09 0)
(0.00100006 -1.22952e-08 0)
(0.00100008 -1.5822e-08 0)
(0.0010001 -2.1884e-08 0)
(0.00100012 -2.28646e-08 0)
(0.00100014 -3.32374e-08 0)
(0.00100016 -3.88604e-08 0)
(0.0010002 -6.88983e-08 0)
(0.00100022 -8.56962e-08 0)
(0.00100028 -1.50789e-07 0)
(0.0010003 -1.68264e-07 0)
(0.00100039 -2.89196e-07 0)
(0.001 -9.60897e-10 0)
(0.001 -3.50326e-09 0)
(0.001 -7.77589e-09 0)
(0.001 -1.45276e-08 0)
(0.001 -2.36272e-08 0)
(0.00100001 -3.53656e-08 0)
(0.00100002 -4.86994e-08 0)
(0.00100002 -6.41159e-08 0)
(0.00100003 -7.91627e-08 0)
(0.00100004 -9.59425e-08 0)
(0.00100006 -1.09522e-07 0)
(0.00100007 -1.25853e-07 0)
(0.00100009 -1.37086e-07 0)
(0.00100011 -1.57845e-07 0)
(0.00100013 -1.73857e-07 0)
(0.00100017 -2.14821e-07 0)
(0.00100018 -2.43325e-07 0)
(0.00100023 -3.20968e-07 0)
(0.00100025 -3.49486e-07 0)
(0.00100033 -4.8015e-07 0)
(0.001 9.00495e-10 0)
(0.001 2.28393e-09 0)
(0.001 2.03321e-09 0)
(0.001 -1.73536e-09 0)
(0.001 -8.97097e-09 0)
(0.00100001 -1.90471e-08 0)
(0.00100002 -3.02866e-08 0)
(0.00100002 -4.31639e-08 0)
(0.00100003 -5.52602e-08 0)
(0.00100004 -6.88461e-08 0)
(0.00100006 -7.85083e-08 0)
(0.00100007 -9.02149e-08 0)
(0.00100009 -9.63987e-08 0)
(0.0010001 -1.12687e-07 0)
(0.00100012 -1.26213e-07 0)
(0.00100014 -1.66167e-07 0)
(0.00100015 -1.96287e-07 0)
(0.00100019 -2.74578e-07 0)
(0.00100021 -3.05251e-07 0)
(0.00100027 -4.34325e-07 0)
(0.001 4.55609e-10 0)
(0.001 3.46105e-10 0)
(0.001 -1.91463e-09 0)
(0.001 -7.08823e-09 0)
(0.001 -1.56731e-08 0)
(0.00100001 -2.7933e-08 0)
(0.00100001 -4.24967e-08 0)
(0.00100002 -5.96351e-08 0)
(0.00100002 -7.66149e-08 0)
(0.00100003 -9.55863e-08 0)
(0.00100004 -1.10912e-07 0)
(0.00100005 -1.28491e-07 0)
(0.00100006 -1.40333e-07 0)
(0.00100008 -1.61875e-07 0)
(0.00100009 -1.80113e-07 0)
(0.00100011 -2.24661e-07 0)
(0.00100012 -2.59393e-07 0)
(0.00100015 -3.43201e-07 0)
(0.00100016 -3.78443e-07 0)
(0.00100021 -5.13361e-07 0)
(0.001 1.07737e-09 0)
(0.001 1.82751e-09 0)
(0.001 -4.19732e-10 0)
(0.001 -6.34353e-09 0)
(0.001 -1.60578e-08 0)
(0.00100001 -2.95801e-08 0)
(0.00100001 -4.51604e-08 0)
(0.00100001 -6.28011e-08 0)
(0.00100002 -7.96329e-08 0)
(0.00100002 -9.78413e-08 0)
(0.00100003 -1.11674e-07 0)
(0.00100004 -1.27279e-07 0)
(0.00100005 -1.37035e-07 0)
(0.00100006 -1.56948e-07 0)
(0.00100007 -1.74986e-07 0)
(0.00100008 -2.20159e-07 0)
(0.00100009 -2.57431e-07 0)
(0.00100011 -3.42546e-07 0)
(0.00100011 -3.8038e-07 0)
(0.00100015 -5.13949e-07 0)
(0.001 1.35565e-09 0)
(0.001 2.11538e-09 0)
(0.001 -4.22582e-10 0)
(0.001 -6.69671e-09 0)
(0.001 -1.67315e-08 0)
(0.001 -3.0549e-08 0)
(0.00100001 -4.65639e-08 0)
(0.00100001 -6.49901e-08 0)
(0.00100001 -8.31164e-08 0)
(0.00100001 -1.03238e-07 0)
(0.00100002 -1.19338e-07 0)
(0.00100002 -1.37289e-07 0)
(0.00100003 -1.49083e-07 0)
(0.00100003 -1.70599e-07 0)
(0.00100004 -1.89821e-07 0)
(0.00100005 -2.36081e-07 0)
(0.00100005 -2.74379e-07 0)
(0.00100007 -3.61293e-07 0)
(0.00100007 -4.00341e-07 0)
(0.00100009 -5.36945e-07 0)
(0.001 1.51122e-09 0)
(0.001 2.4004e-09 0)
(0.001 -2.8047e-10 0)
(0.001 -6.65156e-09 0)
(0.001 -1.68728e-08 0)
(0.001 -3.12141e-08 0)
(0.001 -4.80373e-08 0)
(0.001 -6.72588e-08 0)
(0.001 -8.5926e-08 0)
(0.001 -1.06211e-07 0)
(0.00100001 -1.22081e-07 0)
(0.00100001 -1.39608e-07 0)
(0.00100001 -1.51026e-07 0)
(0.00100001 -1.72434e-07 0)
(0.00100001 -1.92087e-07 0)
(0.00100002 -2.39033e-07 0)
(0.00100002 -2.78606e-07 0)
(0.00100002 -3.66185e-07 0)
(0.00100002 -4.06379e-07 0)
(0.00100003 -5.42341e-07 0)
(0.001 1.51171e-09 0)
(0.001 2.40126e-09 0)
(0.001 -2.79546e-10 0)
(0.001 -6.65125e-09 0)
(0.000999999 -1.68733e-08 0)
(0.000999999 -3.12147e-08 0)
(0.000999998 -4.80374e-08 0)
(0.000999998 -6.72582e-08 0)
(0.000999997 -8.59252e-08 0)
(0.000999995 -1.0621e-07 0)
(0.000999994 -1.22082e-07 0)
(0.000999992 -1.39609e-07 0)
(0.00099999 -1.51027e-07 0)
(0.000999988 -1.72435e-07 0)
(0.000999986 -1.92087e-07 0)
(0.000999984 -2.39032e-07 0)
(0.000999983 -2.78605e-07 0)
(0.000999979 -3.66183e-07 0)
(0.000999978 -4.06376e-07 0)
(0.000999971 -5.42337e-07 0)
(0.001 1.35685e-09 0)
(0.000999999 2.1176e-09 0)
(0.000999999 -4.1996e-10 0)
(0.000999999 -6.69536e-09 0)
(0.000999998 -1.67323e-08 0)
(0.000999997 -3.05508e-08 0)
(0.000999995 -4.65656e-08 0)
(0.000999992 -6.49899e-08 0)
(0.000999989 -8.31156e-08 0)
(0.000999985 -1.03236e-07 0)
(0.000999981 -1.19337e-07 0)
(0.000999976 -1.37286e-07 0)
(0.000999972 -1.49078e-07 0)
(0.000999965 -1.7059e-07 0)
(0.00099996 -1.89812e-07 0)
(0.000999952 -2.36066e-07 0)
(0.000999947 -2.74369e-07 0)
(0.000999934 -3.61266e-07 0)
(0.00099993 -4.00316e-07 0)
(0.000999911 -5.36879e-07 0)
(0.001 1.07861e-09 0)
(0.000999999 1.83071e-09 0)
(0.000999999 -4.15408e-10 0)
(0.000999998 -6.34076e-09 0)
(0.000999997 -1.60574e-08 0)
(0.000999995 -2.95809e-08 0)
(0.000999992 -4.51613e-08 0)
(0.000999988 -6.28009e-08 0)
(0.000999982 -7.96337e-08 0)
(0.000999975 -9.78431e-08 0)
(0.000999968 -1.11678e-07 0)
(0.000999959 -1.27283e-07 0)
(0.000999951 -1.37039e-07 0)
(0.000999941 -1.56951e-07 0)
(0.000999934 -1.74992e-07 0)
(0.000999921 -2.20164e-07 0)
(0.000999913 -2.57445e-07 0)
(0.000999892 -3.42553e-07 0)
(0.000999885 -3.80394e-07 0)
(0.000999852 -5.13931e-07 0)
(0.001 4.56169e-10 0)
(0.000999999 3.50503e-10 0)
(0.000999998 -1.90996e-09 0)
(0.000999998 -7.08379e-09 0)
(0.000999996 -1.56704e-08 0)
(0.000999992 -2.79298e-08 0)
(0.000999988 -4.24918e-08 0)
(0.000999983 -5.96254e-08 0)
(0.000999977 -7.66051e-08 0)
(0.000999968 -9.55749e-08 0)
(0.000999959 -1.10904e-07 0)
(0.000999948 -1.2848e-07 0)
(0.000999937 -1.40321e-07 0)
(0.000999922 -1.61853e-07 0)
(0.00099991 -1.80092e-07 0)
(0.000999889 -2.24622e-07 0)
(0.000999878 -2.5936e-07 0)
(0.000999848 -3.43126e-07 0)
(0.000999841 -3.78372e-07 0)
(0.000999791 -5.13204e-07 0)
(0.000999999 9.00498e-10 0)
(0.000999998 2.28749e-09 0)
(0.000999998 2.03791e-09 0)
(0.000999998 -1.73214e-09 0)
(0.000999995 -8.97263e-09 0)
(0.000999991 -1.9051e-08 0)
(0.000999985 -3.02911e-08 0)
(0.000999977 -4.31662e-08 0)
(0.000999968 -5.5264e-08 0)
(0.000999955 -6.88507e-08 0)
(0.000999942 -7.8516e-08 0)
(0.000999927 -9.02219e-08 0)
(0.000999914 -9.64051e-08 0)
(0.000999896 -1.12691e-07 0)
(0.000999883 -1.26223e-07 0)
(0.00099986 -1.66176e-07 0)
(0.000999845 -1.9631e-07 0)
(0.000999807 -2.74586e-07 0)
(0.000999793 -3.05273e-07 0)
(0.000999731 -4.34299e-07 0)
(0.001 -9.61393e-10 0)
(0.000999999 -3.49896e-09 0)
(0.000999999 -7.76799e-09 0)
(0.000999998 -1.45204e-08 0)
(0.000999995 -2.36225e-08 0)
(0.00099999 -3.536e-08 0)
(0.000999985 -4.86919e-08 0)
(0.000999977 -6.41028e-08 0)
(0.000999968 -7.915e-08 0)
(0.000999956 -9.59277e-08 0)
(0.000999942 -1.09514e-07 0)
(0.000999925 -1.25842e-07 0)
(0.000999909 -1.3708e-07 0)
(0.000999885 -1.57826e-07 0)
(0.000999868 -1.73843e-07 0)
(0.000999834 -2.14782e-07 0)
(0.000999817 -2.433e-07 0)
(0.000999765 -3.20885e-07 0)
(0.000999755 -3.4942e-07 0)
(0.000999669 -4.79969e-07 0)
(0.000999999 1.14034e-09 0)
(0.000999996 4.70062e-09 0)
(0.000999995 8.83084e-09 0)
(0.000999994 1.1202e-08 0)
(0.000999991 1.0656e-08 0)
(0.000999985 7.7541e-09 0)
(0.000999977 4.08128e-09 0)
(0.000999967 -1.07891e-09 0)
(0.000999955 -5.79832e-09 0)
(0.000999939 -1.22974e-08 0)
(0.000999922 -1.58254e-08 0)
(0.000999901 -2.18827e-08 0)
(0.000999883 -2.2862e-08 0)
(0.000999858 -3.32287e-08 0)
(0.000999839 -3.88592e-08 0)
(0.000999805 -6.88906e-08 0)
(0.000999783 -8.57044e-08 0)
(0.000999725 -1.50769e-07 0)
(0.000999705 -1.68256e-07 0)
(0.00099961 -2.89124e-07 0)
(0.001 -2.72008e-09 0)
(0.001 -8.73041e-09 0)
(0.001 -1.61997e-08 0)
(0.001 -2.64411e-08 0)
(0.000999998 -3.8501e-08 0)
(0.000999991 -5.16477e-08 0)
(0.000999984 -6.47906e-08 0)
(0.000999974 -7.88529e-08 0)
(0.000999963 -9.2162e-08 0)
(0.000999946 -1.06779e-07 0)
(0.00099993 -1.1849e-07 0)
(0.000999907 -1.32716e-07 0)
(0.000999888 -1.42256e-07 0)
(0.000999857 -1.6075e-07 0)
(0.000999837 -1.7324e-07 0)
(0.000999791 -2.08325e-07 0)
(0.000999769 -2.27781e-07 0)
(0.000999691 -2.94105e-07 0)
(0.000999676 -3.11325e-07 0)
(0.000999538 -4.31583e-07 0)
(0.000999999 4.15845e-09 0)
(0.000999994 1.27888e-08 0)
(0.000999991 2.12822e-08 0)
(0.000999989 2.92545e-08 0)
(0.000999986 3.71066e-08 0)
(0.00099998 4.41035e-08 0)
(0.000999972 5.00013e-08 0)
(0.000999961 5.44635e-08 0)
(0.000999948 5.89424e-08 0)
(0.000999929 6.20762e-08 0)
(0.000999911 6.64885e-08 0)
(0.000999887 6.83823e-08 0)
(0.000999866 7.34745e-08 0)
(0.000999835 7.24404e-08 0)
(0.000999812 7.79102e-08 0)
(0.000999766 6.67094e-08 0)
(0.00099974 7.06674e-08 0)
(0.000999658 3.35667e-08 0)
(0.000999634 3.77675e-08 0)
(0.000999494 -5.95108e-08 0)
(0.001 -8.34211e-09 0)
(0.000999999 -2.21619e-08 0)
(0.001 -3.32737e-08 0)
(0.001 -4.38552e-08 0)
(0.000999997 -5.51601e-08 0)
(0.000999989 -6.72519e-08 0)
(0.000999981 -7.94011e-08 0)
(0.000999969 -9.18818e-08 0)
(0.000999957 -1.03312e-07 0)
(0.000999938 -1.15296e-07 0)
(0.000999921 -1.24967e-07 0)
(0.000999894 -1.36403e-07 0)
(0.000999876 -1.43946e-07 0)
(0.000999838 -1.58201e-07 0)
(0.000999821 -1.66137e-07 0)
(0.000999759 -1.9075e-07 0)
(0.000999745 -1.9791e-07 0)
(0.000999627 -2.42202e-07 0)
(0.000999623 -2.41476e-07 0)
(0.000999392 -3.34964e-07 0)
)
;

boundaryField
{
    sides
    {
        type            slip;
    }
    inlet
    {
        type            fixedValue;
        value           uniform (0.001 0 0);
    }
    outlet
    {
        type            zeroGradient;
    }
    frontAndBack
    {
        type            empty;
    }
}


// ************************************************************************* //
