/*--------------------------------*- C++ -*----------------------------------*\
  =========                 |
  \\      /  F ield         | OpenFOAM: The Open Source CFD Toolbox
   \\    /   O peration     | Website:  https://openfoam.org
    \\  /    A nd           | Version:  7
     \\/     M anipulation  |
\*---------------------------------------------------------------------------*/
FoamFile
{
    version     2.0;
    format      ascii;
    class       volVectorField;
    location    "28";
    object      hU_0;
}
// * * * * * * * * * * * * * * * * * * * * * * * * * * * * * * * * * * * * * //

dimensions      [0 2 -1 0 0 0 0];

internalField   nonuniform List<vector> 
400
(
(0.001 -8.339e-09 0)
(0.001 -2.2182e-08 0)
(0.000999999 -3.34596e-08 0)
(0.000999999 -4.42993e-08 0)
(0.001 -5.58563e-08 0)
(0.00100001 -6.79545e-08 0)
(0.00100002 -8.00808e-08 0)
(0.00100003 -9.24051e-08 0)
(0.00100004 -1.0365e-07 0)
(0.00100006 -1.15403e-07 0)
(0.00100008 -1.24795e-07 0)
(0.00100011 -1.36012e-07 0)
(0.00100012 -1.43471e-07 0)
(0.00100016 -1.579e-07 0)
(0.00100018 -1.66124e-07 0)
(0.00100024 -1.91045e-07 0)
(0.00100025 -1.98375e-07 0)
(0.00100037 -2.42648e-07 0)
(0.00100038 -2.41842e-07 0)
(0.00100061 -3.34884e-07 0)
(0.001 4.15376e-09 0)
(0.00100001 1.28548e-08 0)
(0.00100001 2.13375e-08 0)
(0.00100001 2.92748e-08 0)
(0.00100001 3.70417e-08 0)
(0.00100002 4.39041e-08 0)
(0.00100003 4.96205e-08 0)
(0.00100004 5.40552e-08 0)
(0.00100005 5.8592e-08 0)
(0.00100007 6.1812e-08 0)
(0.00100009 6.63431e-08 0)
(0.00100011 6.83481e-08 0)
(0.00100013 7.35911e-08 0)
(0.00100017 7.25874e-08 0)
(0.00100019 7.79916e-08 0)
(0.00100023 6.65441e-08 0)
(0.00100026 7.02046e-08 0)
(0.00100034 3.28911e-08 0)
(0.00100037 3.69791e-08 0)
(0.00100051 -5.99101e-08 0)
(0.001 -2.77817e-09 0)
(0.001 -8.81998e-09 0)
(0.000999998 -1.66291e-08 0)
(0.000999998 -2.73295e-08 0)
(0.001 -3.95628e-08 0)
(0.00100001 -5.27439e-08 0)
(0.00100002 -6.5804e-08 0)
(0.00100003 -7.97326e-08 0)
(0.00100004 -9.2803e-08 0)
(0.00100005 -1.07069e-07 0)
(0.00100007 -1.18323e-07 0)
(0.00100009 -1.32169e-07 0)
(0.00100011 -1.41458e-07 0)
(0.00100014 -1.60132e-07 0)
(0.00100016 -1.73047e-07 0)
(0.00100021 -2.08821e-07 0)
(0.00100023 -2.28867e-07 0)
(0.00100031 -2.95446e-07 0)
(0.00100032 -3.12714e-07 0)
(0.00100046 -4.3202e-07 0)
(0.001 1.08364e-09 0)
(0.001 4.65896e-09 0)
(0.001 8.5453e-09 0)
(0.001 1.03537e-08 0)
(0.00100001 9.36479e-09 0)
(0.00100001 6.33009e-09 0)
(0.00100002 2.6987e-09 0)
(0.00100003 -2.32418e-09 0)
(0.00100005 -6.78916e-09 0)
(0.00100006 -1.28587e-08 0)
(0.00100008 -1.57663e-08 0)
(0.0010001 -2.12491e-08 0)
(0.00100012 -2.18221e-08 0)
(0.00100014 -3.23591e-08 0)
(0.00100016 -3.85603e-08 0)
(0.00100019 -6.94894e-08 0)
(0.00100022 -8.71288e-08 0)
(0.00100028 -1.52474e-07 0)
(0.0010003 -1.70071e-07 0)
(0.00100039 -2.89665e-07 0)
(0.001 -1.05708e-09 0)
(0.001 -3.7015e-09 0)
(0.001 -8.25458e-09 0)
(0.001 -1.52692e-08 0)
(0.001 -2.46476e-08 0)
(0.00100001 -3.65727e-08 0)
(0.00100001 -4.99733e-08 0)
(0.00100002 -6.52815e-08 0)
(0.00100003 -8.00395e-08 0)
(0.00100004 -9.63338e-08 0)
(0.00100006 -1.09254e-07 0)
(0.00100007 -1.24998e-07 0)
(0.00100009 -1.35795e-07 0)
(0.00100011 -1.56709e-07 0)
(0.00100013 -1.73339e-07 0)
(0.00100017 -2.15349e-07 0)
(0.00100018 -2.44904e-07 0)
(0.00100023 -3.22916e-07 0)
(0.00100025 -3.5167e-07 0)
(0.00100033 -4.80751e-07 0)
(0.001 8.51849e-10 0)
(0.001 1.9697e-09 0)
(0.001 1.15905e-09 0)
(0.001 -3.24956e-09 0)
(0.001 -1.08936e-08 0)
(0.00100001 -2.10618e-08 0)
(0.00100002 -3.2185e-08 0)
(0.00100002 -4.47676e-08 0)
(0.00100003 -5.63903e-08 0)
(0.00100005 -6.92715e-08 0)
(0.00100006 -7.79943e-08 0)
(0.00100007 -8.8877e-08 0)
(0.00100009 -9.45293e-08 0)
(0.0010001 -1.11125e-07 0)
(0.00100012 -1.25559e-07 0)
(0.00100014 -1.66887e-07 0)
(0.00100015 -1.98282e-07 0)
(0.00100019 -2.7697e-07 0)
(0.00100021 -3.07852e-07 0)
(0.00100027 -4.34972e-07 0)
(0.001 4.98718e-10 0)
(0.001 1.80953e-10 0)
(0.001 -2.36533e-09 0)
(0.001 -8.01563e-09 0)
(0.001 -1.70336e-08 0)
(0.00100001 -2.95256e-08 0)
(0.00100001 -4.41295e-08 0)
(0.00100002 -6.10888e-08 0)
(0.00100002 -7.76726e-08 0)
(0.00100003 -9.59991e-08 0)
(0.00100004 -1.10419e-07 0)
(0.00100005 -1.27171e-07 0)
(0.00100006 -1.38417e-07 0)
(0.00100008 -1.60185e-07 0)
(0.00100009 -1.79279e-07 0)
(0.00100011 -2.2523e-07 0)
(0.00100012 -2.61372e-07 0)
(0.00100015 -3.45696e-07 0)
(0.00100016 -3.81271e-07 0)
(0.00100021 -5.14137e-07 0)
(0.001 1.11288e-09 0)
(0.001 1.50443e-09 0)
(0.001 -1.26637e-09 0)
(0.001 -7.65895e-09 0)
(0.001 -1.77593e-08 0)
(0.001 -3.14441e-08 0)
(0.00100001 -4.69585e-08 0)
(0.00100001 -6.42809e-08 0)
(0.00100002 -8.05705e-08 0)
(0.00100003 -9.79748e-08 0)
(0.00100003 -1.10749e-07 0)
(0.00100004 -1.2544e-07 0)
(0.00100005 -1.34608e-07 0)
(0.00100006 -1.54913e-07 0)
(0.00100007 -1.74037e-07 0)
(0.00100008 -2.20869e-07 0)
(0.00100009 -2.59718e-07 0)
(0.00100011 -3.45387e-07 0)
(0.00100012 -3.83519e-07 0)
(0.00100015 -5.14736e-07 0)
(0.001 1.44372e-09 0)
(0.001 1.8172e-09 0)
(0.001 -1.24538e-09 0)
(0.001 -7.99045e-09 0)
(0.001 -1.8385e-08 0)
(0.001 -3.23564e-08 0)
(0.00100001 -4.83142e-08 0)
(0.00100001 -6.64527e-08 0)
(0.00100001 -8.40893e-08 0)
(0.00100001 -1.03455e-07 0)
(0.00100002 -1.18513e-07 0)
(0.00100002 -1.3552e-07 0)
(0.00100003 -1.46643e-07 0)
(0.00100003 -1.6846e-07 0)
(0.00100004 -1.88715e-07 0)
(0.00100005 -2.36635e-07 0)
(0.00100005 -2.76598e-07 0)
(0.00100007 -3.64134e-07 0)
(0.00100007 -4.03567e-07 0)
(0.00100009 -5.37816e-07 0)
(0.001 1.6338e-09 0)
(0.001 2.08919e-09 0)
(0.001 -1.11531e-09 0)
(0.001 -7.93251e-09 0)
(0.001 -1.85248e-08 0)
(0.001 -3.30557e-08 0)
(0.001 -4.98205e-08 0)
(0.001 -6.87214e-08 0)
(0.001 -8.6843e-08 0)
(0.001 -1.06297e-07 0)
(0.00100001 -1.21068e-07 0)
(0.00100001 -1.37642e-07 0)
(0.00100001 -1.4842e-07 0)
(0.00100001 -1.702e-07 0)
(0.00100001 -1.90972e-07 0)
(0.00100002 -2.39676e-07 0)
(0.00100002 -2.80966e-07 0)
(0.00100002 -3.69159e-07 0)
(0.00100002 -4.09686e-07 0)
(0.00100003 -5.43184e-07 0)
(0.001 1.6343e-09 0)
(0.001 2.09029e-09 0)
(0.001 -1.1142e-09 0)
(0.001 -7.93206e-09 0)
(0.000999999 -1.85252e-08 0)
(0.000999999 -3.3056e-08 0)
(0.000999998 -4.98203e-08 0)
(0.000999998 -6.87205e-08 0)
(0.000999997 -8.68421e-08 0)
(0.000999995 -1.06296e-07 0)
(0.000999994 -1.21069e-07 0)
(0.000999992 -1.37643e-07 0)
(0.00099999 -1.48422e-07 0)
(0.000999988 -1.702e-07 0)
(0.000999986 -1.90972e-07 0)
(0.000999984 -2.39675e-07 0)
(0.000999983 -2.80965e-07 0)
(0.000999979 -3.69157e-07 0)
(0.000999978 -4.09684e-07 0)
(0.000999971 -5.4318e-07 0)
(0.001 1.44496e-09 0)
(0.000999999 1.81991e-09 0)
(0.001 -1.24234e-09 0)
(0.000999999 -7.98882e-09 0)
(0.000999999 -1.83857e-08 0)
(0.000999997 -3.23578e-08 0)
(0.000999995 -4.83153e-08 0)
(0.000999992 -6.64518e-08 0)
(0.000999989 -8.40881e-08 0)
(0.000999985 -1.03453e-07 0)
(0.000999981 -1.18511e-07 0)
(0.000999976 -1.35516e-07 0)
(0.000999972 -1.46639e-07 0)
(0.000999965 -1.68451e-07 0)
(0.00099996 -1.88707e-07 0)
(0.000999952 -2.36621e-07 0)
(0.000999947 -2.76587e-07 0)
(0.000999934 -3.64106e-07 0)
(0.00099993 -4.03541e-07 0)
(0.000999911 -5.37749e-07 0)
(0.001 1.11441e-09 0)
(0.000999999 1.50849e-09 0)
(0.000999999 -1.26167e-09 0)
(0.000999999 -7.65626e-09 0)
(0.000999998 -1.77591e-08 0)
(0.000999995 -3.14449e-08 0)
(0.000999992 -4.69591e-08 0)
(0.000999988 -6.42804e-08 0)
(0.000999982 -8.05713e-08 0)
(0.000999975 -9.79768e-08 0)
(0.000999967 -1.10754e-07 0)
(0.000999959 -1.25444e-07 0)
(0.000999951 -1.34612e-07 0)
(0.000999942 -1.54916e-07 0)
(0.000999934 -1.74043e-07 0)
(0.000999921 -2.20875e-07 0)
(0.000999913 -2.59733e-07 0)
(0.000999892 -3.45393e-07 0)
(0.000999885 -3.83531e-07 0)
(0.000999851 -5.14716e-07 0)
(0.001 5.00511e-10 0)
(0.000999999 1.85405e-10 0)
(0.000999999 -2.36034e-09 0)
(0.000999998 -8.01164e-09 0)
(0.000999996 -1.70314e-08 0)
(0.000999992 -2.95228e-08 0)
(0.000999988 -4.41245e-08 0)
(0.000999983 -6.10795e-08 0)
(0.000999977 -7.76634e-08 0)
(0.000999968 -9.59886e-08 0)
(0.000999959 -1.10412e-07 0)
(0.000999948 -1.2716e-07 0)
(0.000999937 -1.38405e-07 0)
(0.000999922 -1.60163e-07 0)
(0.00099991 -1.79258e-07 0)
(0.00099989 -2.25191e-07 0)
(0.000999878 -2.61338e-07 0)
(0.000999847 -3.4562e-07 0)
(0.00099984 -3.81196e-07 0)
(0.000999791 -5.13978e-07 0)
(0.000999999 8.53299e-10 0)
(0.000999998 1.97362e-09 0)
(0.000999999 1.1636e-09 0)
(0.000999999 -3.24732e-09 0)
(0.000999996 -1.08959e-08 0)
(0.000999991 -2.1066e-08 0)
(0.000999985 -3.21894e-08 0)
(0.000999977 -4.477e-08 0)
(0.000999967 -5.63948e-08 0)
(0.000999955 -6.92768e-08 0)
(0.000999942 -7.80026e-08 0)
(0.000999927 -8.8884e-08 0)
(0.000999914 -9.45355e-08 0)
(0.000999897 -1.1113e-07 0)
(0.000999884 -1.25569e-07 0)
(0.000999861 -1.66897e-07 0)
(0.000999845 -1.98305e-07 0)
(0.000999807 -2.76978e-07 0)
(0.000999792 -3.0787e-07 0)
(0.00099973 -4.34943e-07 0)
(0.000999999 -1.05735e-09 0)
(0.000999999 -3.69578e-09 0)
(0.000999999 -8.24695e-09 0)
(0.000999999 -1.52618e-08 0)
(0.000999996 -2.46426e-08 0)
(0.000999991 -3.65661e-08 0)
(0.000999985 -4.99646e-08 0)
(0.000999978 -6.52676e-08 0)
(0.000999968 -8.00269e-08 0)
(0.000999956 -9.63198e-08 0)
(0.000999942 -1.09247e-07 0)
(0.000999925 -1.24988e-07 0)
(0.000999909 -1.35789e-07 0)
(0.000999886 -1.56689e-07 0)
(0.000999868 -1.73325e-07 0)
(0.000999835 -2.15309e-07 0)
(0.000999817 -2.44878e-07 0)
(0.000999765 -3.22832e-07 0)
(0.000999754 -3.516e-07 0)
(0.000999668 -4.80568e-07 0)
(0.000999999 1.08252e-09 0)
(0.000999996 4.66185e-09 0)
(0.000999996 8.54857e-09 0)
(0.000999995 1.03541e-08 0)
(0.000999992 9.35863e-09 0)
(0.000999985 6.32284e-09 0)
(0.000999977 2.6913e-09 0)
(0.000999967 -2.32725e-09 0)
(0.000999955 -6.79286e-09 0)
(0.000999938 -1.28607e-08 0)
(0.000999921 -1.577e-08 0)
(0.000999901 -2.12478e-08 0)
(0.000999883 -2.18197e-08 0)
(0.000999859 -3.23512e-08 0)
(0.00099984 -3.85603e-08 0)
(0.000999806 -6.94833e-08 0)
(0.000999784 -8.71373e-08 0)
(0.000999725 -1.52453e-07 0)
(0.000999704 -1.70061e-07 0)
(0.000999609 -2.8959e-07 0)
(0.000999999 -2.77624e-09 0)
(0.001 -8.81489e-09 0)
(0.001 -1.66221e-08 0)
(0.001 -2.73251e-08 0)
(0.000999998 -3.95637e-08 0)
(0.000999992 -5.27446e-08 0)
(0.000999985 -6.58053e-08 0)
(0.000999975 -7.97302e-08 0)
(0.000999963 -9.28042e-08 0)
(0.000999946 -1.0707e-07 0)
(0.00099993 -1.18333e-07 0)
(0.000999907 -1.32176e-07 0)
(0.000999888 -1.41475e-07 0)
(0.000999858 -1.60136e-07 0)
(0.000999837 -1.73065e-07 0)
(0.000999791 -2.08813e-07 0)
(0.00099977 -2.28888e-07 0)
(0.000999691 -2.95414e-07 0)
(0.000999676 -3.12718e-07 0)
(0.000999537 -4.31929e-07 0)
(0.000999999 4.15587e-09 0)
(0.000999994 1.28561e-08 0)
(0.000999992 2.1335e-08 0)
(0.00099999 2.92699e-08 0)
(0.000999987 3.70405e-08 0)
(0.000999981 4.39009e-08 0)
(0.000999973 4.96184e-08 0)
(0.000999961 5.40537e-08 0)
(0.000999947 5.8591e-08 0)
(0.000999929 6.18179e-08 0)
(0.00099991 6.63503e-08 0)
(0.000999887 6.83652e-08 0)
(0.000999866 7.36057e-08 0)
(0.000999835 7.26125e-08 0)
(0.000999813 7.80035e-08 0)
(0.000999766 6.65747e-08 0)
(0.000999741 7.02165e-08 0)
(0.000999658 3.29537e-08 0)
(0.000999634 3.70246e-08 0)
(0.000999493 -5.97723e-08 0)
(0.001 -8.3377e-09 0)
(0.001 -2.21828e-08 0)
(0.001 -3.34669e-08 0)
(0.001 -4.43115e-08 0)
(0.000999998 -5.58673e-08 0)
(0.00099999 -6.79711e-08 0)
(0.000999981 -8.01013e-08 0)
(0.00099997 -9.2432e-08 0)
(0.000999957 -1.03683e-07 0)
(0.000999938 -1.15438e-07 0)
(0.000999921 -1.24835e-07 0)
(0.000999894 -1.36053e-07 0)
(0.000999876 -1.43517e-07 0)
(0.000999838 -1.57945e-07 0)
(0.000999821 -1.66178e-07 0)
(0.000999759 -1.911e-07 0)
(0.000999745 -1.98443e-07 0)
(0.000999627 -2.42723e-07 0)
(0.000999622 -2.41929e-07 0)
(0.000999391 -3.35015e-07 0)
)
;

boundaryField
{
    sides
    {
        type            slip;
    }
    inlet
    {
        type            fixedValue;
        value           uniform (0.001 0 0);
    }
    outlet
    {
        type            zeroGradient;
    }
    frontAndBack
    {
        type            empty;
    }
}


// ************************************************************************* //
