/*--------------------------------*- C++ -*----------------------------------*\
  =========                 |
  \\      /  F ield         | OpenFOAM: The Open Source CFD Toolbox
   \\    /   O peration     | Website:  https://openfoam.org
    \\  /    A nd           | Version:  7
     \\/     M anipulation  |
\*---------------------------------------------------------------------------*/
FoamFile
{
    version     2.0;
    format      ascii;
    class       volVectorField;
    location    "28";
    object      U;
}
// * * * * * * * * * * * * * * * * * * * * * * * * * * * * * * * * * * * * * //

dimensions      [0 1 -1 0 0 0 0];

internalField   nonuniform List<vector> 
400
(
(0.0999927 -8.3425e-07 0)
(0.0999927 -2.21578e-06 0)
(0.0999926 -3.32632e-06 0)
(0.0999927 -4.38436e-06 0)
(0.0999931 -5.51447e-06 0)
(0.099994 -6.72313e-06 0)
(0.099995 -7.93759e-06 0)
(0.0999963 -9.18525e-06 0)
(0.0999977 -1.03273e-05 0)
(0.0999999 -1.15253e-05 0)
(0.100002 -1.24918e-05 0)
(0.100005 -1.36353e-05 0)
(0.100007 -1.43892e-05 0)
(0.100011 -1.58147e-05 0)
(0.100013 -1.66075e-05 0)
(0.10002 -1.90687e-05 0)
(0.100022 -1.97835e-05 0)
(0.100034 -2.4212e-05 0)
(0.100036 -2.41385e-05 0)
(0.10006 -3.3483e-05 0)
(0.0999939 4.15687e-07 0)
(0.0999945 1.27892e-06 0)
(0.0999948 2.12847e-06 0)
(0.0999951 2.92537e-06 0)
(0.0999955 3.71053e-06 0)
(0.0999963 4.41024e-06 0)
(0.0999972 4.99993e-06 0)
(0.0999984 5.44585e-06 0)
(0.1 5.89395e-06 0)
(0.100002 6.2068e-06 0)
(0.100004 6.64794e-06 0)
(0.100007 6.8363e-06 0)
(0.100009 7.34568e-06 0)
(0.100013 7.24117e-06 0)
(0.100015 7.78945e-06 0)
(0.10002 6.66757e-06 0)
(0.100023 7.0654e-06 0)
(0.100032 3.35043e-06 0)
(0.100035 3.77238e-06 0)
(0.10005 -5.96467e-06 0)
(0.0999943 -2.72142e-07 0)
(0.0999943 -8.7345e-07 0)
(0.0999941 -1.62047e-06 0)
(0.0999942 -2.64426e-06 0)
(0.0999947 -3.84985e-06 0)
(0.0999955 -5.16443e-06 0)
(0.0999963 -6.47859e-06 0)
(0.0999975 -7.88498e-06 0)
(0.0999988 -9.21564e-06 0)
(0.100001 -1.06774e-05 0)
(0.100002 -1.18475e-05 0)
(0.100005 -1.32704e-05 0)
(0.100007 -1.42234e-05 0)
(0.100011 -1.6074e-05 0)
(0.100013 -1.73216e-05 0)
(0.100018 -2.08327e-05 0)
(0.100021 -2.27754e-05 0)
(0.100029 -2.94131e-05 0)
(0.100031 -3.11316e-05 0)
(0.100046 -4.31672e-05 0)
(0.0999952 1.14106e-07 0)
(0.0999956 4.69755e-07 0)
(0.0999958 8.82748e-07 0)
(0.0999959 1.12032e-06 0)
(0.0999964 1.06621e-06 0)
(0.0999971 7.76247e-07 0)
(0.099998 4.09006e-07 0)
(0.0999991 -1.0738e-07 0)
(0.100001 -5.79362e-07 0)
(0.100002 -1.22948e-06 0)
(0.100004 -1.58214e-06 0)
(0.100006 -2.18833e-06 0)
(0.100009 -2.28638e-06 0)
(0.100011 -3.32364e-06 0)
(0.100014 -3.88594e-06 0)
(0.100017 -6.88968e-06 0)
(0.10002 -8.56947e-06 0)
(0.100026 -1.50787e-05 0)
(0.100029 -1.68262e-05 0)
(0.100039 -2.89195e-05 0)
(0.0999959 -9.60857e-08 0)
(0.099996 -3.50311e-07 0)
(0.099996 -7.77557e-07 0)
(0.0999962 -1.4527e-06 0)
(0.0999965 -2.36263e-06 0)
(0.0999971 -3.53643e-06 0)
(0.0999978 -4.86976e-06 0)
(0.0999987 -6.41135e-06 0)
(0.0999997 -7.916e-06 0)
(0.100001 -9.59393e-06 0)
(0.100003 -1.09518e-05 0)
(0.100005 -1.2585e-05 0)
(0.100006 -1.37082e-05 0)
(0.100009 -1.57841e-05 0)
(0.100011 -1.73853e-05 0)
(0.100015 -2.14817e-05 0)
(0.100017 -2.43321e-05 0)
(0.100022 -3.20964e-05 0)
(0.100024 -3.49484e-05 0)
(0.100033 -4.80148e-05 0)
(0.0999967 9.00465e-08 0)
(0.0999969 2.28385e-07 0)
(0.0999969 2.03314e-07 0)
(0.099997 -1.73531e-07 0)
(0.0999973 -8.97069e-07 0)
(0.0999979 -1.90465e-06 0)
(0.0999986 -3.02857e-06 0)
(0.0999994 -4.31627e-06 0)
(0.100001 -5.52587e-06 0)
(0.100002 -6.88443e-06 0)
(0.100003 -7.85064e-06 0)
(0.100005 -9.02128e-06 0)
(0.100007 -9.63966e-06 0)
(0.100008 -1.12685e-05 0)
(0.10001 -1.26211e-05 0)
(0.100013 -1.66164e-05 0)
(0.100014 -1.96285e-05 0)
(0.100018 -2.74576e-05 0)
(0.10002 -3.0525e-05 0)
(0.100027 -4.34324e-05 0)
(0.0999974 4.55597e-08 0)
(0.0999975 3.46096e-08 0)
(0.0999976 -1.91458e-07 0)
(0.0999977 -7.08805e-07 0)
(0.099998 -1.56727e-06 0)
(0.0999984 -2.79323e-06 0)
(0.0999989 -4.24958e-06 0)
(0.0999995 -5.96338e-06 0)
(0.1 -7.66132e-06 0)
(0.100001 -9.55844e-06 0)
(0.100002 -1.1091e-05 0)
(0.100003 -1.28488e-05 0)
(0.100005 -1.4033e-05 0)
(0.100006 -1.61873e-05 0)
(0.100008 -1.80111e-05 0)
(0.10001 -2.24658e-05 0)
(0.100011 -2.59391e-05 0)
(0.100015 -3.43199e-05 0)
(0.100016 -3.78441e-05 0)
(0.100021 -5.1336e-05 0)
(0.0999981 1.07735e-07 0)
(0.0999982 1.82747e-07 0)
(0.0999983 -4.19724e-08 0)
(0.0999983 -6.34342e-07 0)
(0.0999985 -1.60576e-06 0)
(0.0999988 -2.95796e-06 0)
(0.0999992 -4.51597e-06 0)
(0.0999997 -6.28001e-06 0)
(0.1 -7.96317e-06 0)
(0.100001 -9.78399e-06 0)
(0.100002 -1.11672e-05 0)
(0.100003 -1.27277e-05 0)
(0.100004 -1.37033e-05 0)
(0.100005 -1.56947e-05 0)
(0.100006 -1.74985e-05 0)
(0.100007 -2.20158e-05 0)
(0.100008 -2.57429e-05 0)
(0.10001 -3.42545e-05 0)
(0.100011 -3.80379e-05 0)
(0.100015 -5.13949e-05 0)
(0.0999989 1.35564e-07 0)
(0.0999989 2.11535e-07 0)
(0.099999 -4.22577e-08 0)
(0.099999 -6.69663e-07 0)
(0.0999991 -1.67314e-06 0)
(0.0999993 -3.05487e-06 0)
(0.0999996 -4.65635e-06 0)
(0.0999999 -6.49895e-06 0)
(0.1 -8.31157e-06 0)
(0.100001 -1.03237e-05 0)
(0.100001 -1.19337e-05 0)
(0.100002 -1.37288e-05 0)
(0.100002 -1.49082e-05 0)
(0.100003 -1.70598e-05 0)
(0.100003 -1.8982e-05 0)
(0.100004 -2.3608e-05 0)
(0.100005 -2.74378e-05 0)
(0.100006 -3.61292e-05 0)
(0.100007 -4.00341e-05 0)
(0.100009 -5.36944e-05 0)
(0.0999996 1.51121e-07 0)
(0.0999996 2.4004e-07 0)
(0.0999996 -2.80469e-08 0)
(0.0999997 -6.65154e-07 0)
(0.0999997 -1.68728e-06 0)
(0.0999998 -3.1214e-06 0)
(0.0999999 -4.80372e-06 0)
(0.0999999 -6.72586e-06 0)
(0.1 -8.59257e-06 0)
(0.1 -1.0621e-05 0)
(0.1 -1.22081e-05 0)
(0.100001 -1.39607e-05 0)
(0.100001 -1.51026e-05 0)
(0.100001 -1.72434e-05 0)
(0.100001 -1.92086e-05 0)
(0.100001 -2.39033e-05 0)
(0.100002 -2.78606e-05 0)
(0.100002 -3.66185e-05 0)
(0.100002 -4.06378e-05 0)
(0.100003 -5.4234e-05 0)
(0.1 1.51172e-07 0)
(0.1 2.40127e-07 0)
(0.1 -2.79547e-08 0)
(0.1 -6.65128e-07 0)
(0.1 -1.68734e-06 0)
(0.1 -3.12148e-06 0)
(0.1 -4.80375e-06 0)
(0.1 -6.72584e-06 0)
(0.1 -8.59254e-06 0)
(0.0999998 -1.0621e-05 0)
(0.0999996 -1.22082e-05 0)
(0.0999994 -1.39609e-05 0)
(0.0999992 -1.51027e-05 0)
(0.099999 -1.72435e-05 0)
(0.0999988 -1.92087e-05 0)
(0.0999985 -2.39033e-05 0)
(0.0999984 -2.78606e-05 0)
(0.099998 -3.66183e-05 0)
(0.0999978 -4.06376e-05 0)
(0.0999971 -5.42337e-05 0)
(0.100001 1.35687e-07 0)
(0.100001 2.11762e-07 0)
(0.100001 -4.19965e-08 0)
(0.100001 -6.69544e-07 0)
(0.100001 -1.67324e-06 0)
(0.100001 -3.05511e-06 0)
(0.1 -4.6566e-06 0)
(0.1 -6.49905e-06 0)
(0.0999998 -8.31163e-06 0)
(0.0999993 -1.03237e-05 0)
(0.0999989 -1.19338e-05 0)
(0.0999984 -1.37287e-05 0)
(0.0999979 -1.49079e-05 0)
(0.0999971 -1.70591e-05 0)
(0.0999966 -1.89813e-05 0)
(0.0999956 -2.36067e-05 0)
(0.099995 -2.7437e-05 0)
(0.0999937 -3.61267e-05 0)
(0.0999932 -4.00316e-05 0)
(0.0999911 -5.36879e-05 0)
(0.100002 1.07863e-07 0)
(0.100002 1.83074e-07 0)
(0.100002 -4.15416e-08 0)
(0.100002 -6.34087e-07 0)
(0.100001 -1.60577e-06 0)
(0.100001 -2.95814e-06 0)
(0.100001 -4.5162e-06 0)
(0.1 -6.28019e-06 0)
(0.0999997 -7.96349e-06 0)
(0.0999989 -9.78445e-06 0)
(0.0999981 -1.1168e-05 0)
(0.0999971 -1.27285e-05 0)
(0.0999963 -1.3704e-05 0)
(0.0999952 -1.56953e-05 0)
(0.0999943 -1.74993e-05 0)
(0.0999929 -2.20166e-05 0)
(0.0999919 -2.57447e-05 0)
(0.0999897 -3.42554e-05 0)
(0.0999888 -3.80395e-05 0)
(0.0999852 -5.13931e-05 0)
(0.100003 4.56181e-08 0)
(0.100002 3.50512e-08 0)
(0.100002 -1.91001e-07 0)
(0.100002 -7.08397e-07 0)
(0.100002 -1.56708e-06 0)
(0.100002 -2.79305e-06 0)
(0.100001 -4.24927e-06 0)
(0.1 -5.96268e-06 0)
(0.0999998 -7.66067e-06 0)
(0.0999988 -9.55768e-06 0)
(0.0999978 -1.10906e-05 0)
(0.0999966 -1.28482e-05 0)
(0.0999953 -1.40324e-05 0)
(0.0999936 -1.61855e-05 0)
(0.0999923 -1.80094e-05 0)
(0.09999 -2.24624e-05 0)
(0.0999887 -2.59362e-05 0)
(0.0999854 -3.43129e-05 0)
(0.0999845 -3.78373e-05 0)
(0.0999793 -5.13205e-05 0)
(0.100003 9.00529e-08 0)
(0.100003 2.28756e-07 0)
(0.100003 2.03798e-07 0)
(0.100003 -1.73219e-07 0)
(0.100003 -8.97291e-07 0)
(0.100002 -1.90516e-06 0)
(0.100001 -3.0292e-06 0)
(0.100001 -4.31675e-06 0)
(0.0999995 -5.52655e-06 0)
(0.0999981 -6.88525e-06 0)
(0.0999966 -7.85179e-06 0)
(0.099995 -9.0224e-06 0)
(0.0999935 -9.64072e-06 0)
(0.0999916 -1.12693e-05 0)
(0.09999 -1.26225e-05 0)
(0.0999875 -1.66178e-05 0)
(0.0999857 -1.96313e-05 0)
(0.0999815 -2.74589e-05 0)
(0.0999798 -3.05274e-05 0)
(0.0999732 -4.34299e-05 0)
(0.100004 -9.61434e-08 0)
(0.100004 -3.4991e-07 0)
(0.100004 -7.76831e-07 0)
(0.100004 -1.45209e-06 0)
(0.100003 -2.36234e-06 0)
(0.100003 -3.53614e-06 0)
(0.100002 -4.86937e-06 0)
(0.100001 -6.41051e-06 0)
(0.1 -7.91527e-06 0)
(0.0999989 -9.59308e-06 0)
(0.0999974 -1.09517e-05 0)
(0.0999954 -1.25846e-05 0)
(0.0999936 -1.37083e-05 0)
(0.099991 -1.5783e-05 0)
(0.099989 -1.73847e-05 0)
(0.0999853 -2.14786e-05 0)
(0.0999833 -2.43304e-05 0)
(0.0999777 -3.20889e-05 0)
(0.0999762 -3.49422e-05 0)
(0.0999672 -4.7997e-05 0)
(0.100005 1.14039e-07 0)
(0.100004 4.70084e-07 0)
(0.100004 8.83125e-07 0)
(0.100004 1.12025e-06 0)
(0.100004 1.06565e-06 0)
(0.100003 7.75444e-07 0)
(0.100002 4.08145e-07 0)
(0.100001 -1.07895e-07 0)
(0.0999995 -5.79855e-07 0)
(0.0999977 -1.22979e-06 0)
(0.0999958 -1.5826e-06 0)
(0.0999935 -2.18834e-06 0)
(0.0999915 -2.28627e-06 0)
(0.0999887 -3.32296e-06 0)
(0.0999865 -3.88602e-06 0)
(0.0999827 -6.88922e-06 0)
(0.0999801 -8.5706e-06 0)
(0.0999738 -1.50771e-05 0)
(0.0999713 -1.68258e-05 0)
(0.0999613 -2.89125e-05 0)
(0.100006 -2.72023e-07 0)
(0.100006 -8.73091e-07 0)
(0.100006 -1.62006e-06 0)
(0.100006 -2.64426e-06 0)
(0.100005 -3.85032e-06 0)
(0.100005 -5.16505e-06 0)
(0.100004 -6.4794e-06 0)
(0.100003 -7.88569e-06 0)
(0.100001 -9.21666e-06 0)
(0.0999994 -1.06784e-05 0)
(0.0999975 -1.18495e-05 0)
(0.099995 -1.32722e-05 0)
(0.0999928 -1.42262e-05 0)
(0.0999894 -1.60756e-05 0)
(0.099987 -1.73246e-05 0)
(0.099982 -2.08331e-05 0)
(0.0999793 -2.27786e-05 0)
(0.0999709 -2.9411e-05 0)
(0.0999688 -3.11328e-05 0)
(0.0999543 -4.31585e-05 0)
(0.100006 4.1587e-07 0)
(0.100006 1.27896e-06 0)
(0.100005 2.12834e-06 0)
(0.100005 2.92563e-06 0)
(0.100004 3.71088e-06 0)
(0.100004 4.4106e-06 0)
(0.100003 5.00041e-06 0)
(0.100002 5.44665e-06 0)
(0.1 5.89455e-06 0)
(0.0999979 6.20793e-06 0)
(0.0999959 6.64917e-06 0)
(0.0999932 6.83854e-06 0)
(0.0999909 7.34777e-06 0)
(0.0999874 7.24432e-06 0)
(0.0999848 7.7913e-06 0)
(0.0999797 6.67115e-06 0)
(0.0999766 7.06693e-06 0)
(0.0999677 3.35674e-06 0)
(0.0999647 3.77679e-06 0)
(0.0999498 -5.95111e-06 0)
(0.100007 -8.34272e-07 0)
(0.100007 -2.21635e-06 0)
(0.100007 -3.32761e-06 0)
(0.100007 -4.38583e-06 0)
(0.100007 -5.5164e-06 0)
(0.100006 -6.72567e-06 0)
(0.100005 -7.94066e-06 0)
(0.100004 -9.18879e-06 0)
(0.100002 -1.03319e-05 0)
(0.1 -1.15303e-05 0)
(0.0999982 -1.24974e-05 0)
(0.0999952 -1.36411e-05 0)
(0.0999931 -1.43954e-05 0)
(0.099989 -1.58209e-05 0)
(0.0999868 -1.66145e-05 0)
(0.0999801 -1.90758e-05 0)
(0.0999781 -1.97918e-05 0)
(0.0999656 -2.42209e-05 0)
(0.0999643 -2.41481e-05 0)
(0.09994 -3.34967e-05 0)
)
;

boundaryField
{
    sides
    {
        type            calculated;
        value           nonuniform List<vector> 
40
(
(0.100007 0 0)
(0.100007 0 0)
(0.100007 0 0)
(0.100007 0 0)
(0.100007 0 0)
(0.100006 0 0)
(0.100005 0 0)
(0.100004 0 0)
(0.100002 0 0)
(0.1 0 0)
(0.0999982 0 0)
(0.0999952 0 0)
(0.0999931 0 0)
(0.099989 0 0)
(0.0999868 0 0)
(0.0999801 0 0)
(0.0999781 0 0)
(0.0999656 0 0)
(0.0999643 0 0)
(0.09994 0 0)
(0.0999927 0 0)
(0.0999927 0 0)
(0.0999926 0 0)
(0.0999927 0 0)
(0.0999931 0 0)
(0.099994 0 0)
(0.099995 0 0)
(0.0999963 0 0)
(0.0999977 0 0)
(0.0999999 0 0)
(0.100002 0 0)
(0.100005 0 0)
(0.100007 0 0)
(0.100011 0 0)
(0.100013 0 0)
(0.10002 0 0)
(0.100022 0 0)
(0.100034 0 0)
(0.100036 0 0)
(0.10006 0 0)
)
;
    }
    inlet
    {
        type            calculated;
        value           nonuniform List<vector> 
20
(
(0.0999926 0 0)
(0.0999938 0 0)
(0.0999943 0 0)
(0.0999952 0 0)
(0.0999958 0 0)
(0.0999966 0 0)
(0.0999974 0 0)
(0.0999981 0 0)
(0.0999989 0 0)
(0.0999996 0 0)
(0.1 0 0)
(0.100001 0 0)
(0.100002 0 0)
(0.100003 0 0)
(0.100003 0 0)
(0.100004 0 0)
(0.100005 0 0)
(0.100006 0 0)
(0.100006 0 0)
(0.100007 0 0)
)
;
    }
    outlet
    {
        type            calculated;
        value           nonuniform List<vector> 
20
(
(0.100061 -3.34832e-05 0)
(0.100051 -5.9647e-06 0)
(0.100046 -4.31674e-05 0)
(0.100039 -2.89196e-05 0)
(0.100033 -4.8015e-05 0)
(0.100027 -4.34325e-05 0)
(0.100021 -5.13361e-05 0)
(0.100015 -5.13949e-05 0)
(0.100009 -5.36945e-05 0)
(0.100003 -5.42341e-05 0)
(0.0999971 -5.42337e-05 0)
(0.0999911 -5.36879e-05 0)
(0.0999852 -5.13931e-05 0)
(0.0999791 -5.13204e-05 0)
(0.0999731 -4.34299e-05 0)
(0.0999669 -4.79969e-05 0)
(0.099961 -2.89124e-05 0)
(0.0999538 -4.31583e-05 0)
(0.0999494 -5.95108e-06 0)
(0.0999392 -3.34964e-05 0)
)
;
    }
    frontAndBack
    {
        type            empty;
    }
}


// ************************************************************************* //
