/*--------------------------------*- C++ -*----------------------------------*\
  =========                 |
  \\      /  F ield         | OpenFOAM: The Open Source CFD Toolbox
   \\    /   O peration     | Website:  https://openfoam.org
    \\  /    A nd           | Version:  7
     \\/     M anipulation  |
\*---------------------------------------------------------------------------*/
FoamFile
{
    version     2.0;
    format      ascii;
    class       volScalarField;
    location    "34";
    object      ddt0(h);
}
// * * * * * * * * * * * * * * * * * * * * * * * * * * * * * * * * * * * * * //

dimensions      [0 1 -1 0 0 0 0];

internalField   nonuniform List<scalar> 
400
(
-1.11728e-08
-1.6688e-08
-1.91568e-08
-1.2245e-08
-1.85573e-08
-1.3735e-08
-1.90985e-08
-4.98463e-09
-1.14089e-08
-1.58893e-08
-1.58071e-08
-1.43296e-08
-1.36663e-08
-1.39779e-08
-1.41111e-08
-1.29997e-08
-1.05746e-08
-7.3028e-09
-3.97716e-09
-1.33161e-09
-1.30832e-08
-1.37852e-08
-1.52107e-08
-1.86783e-08
-1.4e-08
-1.84225e-08
-1.12902e-08
-2.25399e-08
-1.86438e-08
-1.59174e-08
-1.59812e-08
-1.60946e-08
-1.60942e-08
-1.58541e-08
-1.51222e-08
-1.34592e-08
-1.09477e-08
-7.77969e-09
-4.502e-09
-1.53187e-09
-1.253e-08
-9.79576e-09
-1.32338e-08
-1.92611e-08
-1.51165e-08
-1.65265e-08
-1.64103e-08
-2.11954e-08
-1.85472e-08
-1.69256e-08
-1.66296e-08
-1.72477e-08
-1.75538e-08
-1.68644e-08
-1.54531e-08
-1.35486e-08
-1.13406e-08
-8.77972e-09
-5.68097e-09
-2.13449e-09
-8.73445e-09
-8.78933e-09
-1.08809e-08
-1.20618e-08
-1.29845e-08
-1.2259e-08
-1.69821e-08
-1.74226e-08
-1.7045e-08
-1.76679e-08
-1.81519e-08
-1.91169e-08
-1.9085e-08
-1.76411e-08
-1.54554e-08
-1.31259e-08
-1.09805e-08
-8.70672e-09
-5.70241e-09
-2.05977e-09
-5.72114e-09
-8.77794e-09
-9.8123e-09
-1.00911e-08
-1.22655e-08
-1.2443e-08
-1.56296e-08
-1.58631e-08
-1.71713e-08
-1.77363e-08
-1.87423e-08
-1.95543e-08
-1.89706e-08
-1.71604e-08
-1.48543e-08
-1.25758e-08
-1.05254e-08
-8.31623e-09
-5.3143e-09
-1.88217e-09
-3.18063e-09
-5.86343e-09
-7.32658e-09
-8.93554e-09
-9.97022e-09
-1.28795e-08
-1.43435e-08
-1.52614e-08
-1.70168e-08
-1.76792e-08
-1.88191e-08
-1.90585e-08
-1.78679e-08
-1.60475e-08
-1.39699e-08
-1.1743e-08
-9.45908e-09
-6.83185e-09
-3.77516e-09
-1.15581e-09
-1.02279e-09
-2.67969e-09
-3.33013e-09
-5.2029e-09
-5.91317e-09
-8.78055e-09
-9.80413e-09
-1.2458e-08
-1.37819e-08
-1.48234e-08
-1.60989e-08
-1.57646e-08
-1.45574e-08
-1.3388e-08
-1.21138e-08
-1.04022e-08
-8.10618e-09
-5.29336e-09
-2.56495e-09
-7.21367e-10
-3.62535e-10
-8.11817e-10
-1.69715e-09
-2.93019e-09
-4.65106e-09
-5.95552e-09
-7.49288e-09
-9.29228e-09
-1.02608e-08
-1.17034e-08
-1.22289e-08
-1.16159e-08
-1.10132e-08
-1.04522e-08
-9.68876e-09
-8.30614e-09
-5.9848e-09
-3.27162e-09
-1.35719e-09
-4.06611e-10
-1.34813e-10
-6.8555e-11
-7.327e-10
-1.4838e-09
-2.57521e-09
-3.18909e-09
-4.37167e-09
-5.46027e-09
-6.45246e-09
-7.64371e-09
-7.59909e-09
-7.41181e-09
-7.45241e-09
-6.99652e-09
-6.42137e-09
-5.5206e-09
-3.6498e-09
-1.57166e-09
-5.80694e-10
-2.5635e-10
2.16158e-10
6.17786e-11
-1.3332e-10
-5.23424e-10
-9.11481e-10
-1.11117e-09
-1.57919e-09
-2.06924e-09
-2.37941e-09
-2.62518e-09
-2.55928e-09
-2.76481e-09
-2.94223e-09
-2.75374e-09
-2.62454e-09
-2.31161e-09
-1.37427e-09
-3.79975e-10
5.50529e-12
1.92663e-11
2.43912e-10
1.1479e-10
1.15822e-10
2.36892e-10
6.56441e-10
7.25308e-10
1.19959e-09
1.6628e-09
1.87387e-09
2.3035e-09
2.17736e-09
2.21651e-09
2.43373e-09
2.16847e-09
1.77018e-09
1.50323e-09
1.07482e-09
5.39346e-10
3.14163e-10
1.49766e-10
5.54009e-11
2.38374e-10
7.05923e-10
1.56702e-09
2.53083e-09
3.3185e-09
4.29314e-09
5.60151e-09
6.39009e-09
7.5315e-09
7.77495e-09
7.48297e-09
7.31978e-09
6.91525e-09
6.34995e-09
5.28854e-09
3.34314e-09
1.3931e-09
5.8514e-10
2.98649e-10
-8.95876e-12
7.64017e-10
1.622e-09
3.28883e-09
4.71356e-09
6.48923e-09
7.75133e-09
9.69807e-09
1.09164e-08
1.17764e-08
1.25366e-08
1.23091e-08
1.15189e-08
1.08758e-08
1.02559e-08
8.66666e-09
5.82037e-09
2.86607e-09
1.07371e-09
3.18843e-10
7.79566e-10
2.27808e-09
3.35813e-09
5.31e-09
6.21903e-09
8.99098e-09
1.03478e-08
1.23912e-08
1.45933e-08
1.53955e-08
1.60829e-08
1.61332e-08
1.51936e-08
1.39917e-08
1.28425e-08
1.10664e-08
8.25713e-09
5.00998e-09
2.22267e-09
5.75474e-10
3.27554e-09
5.43448e-09
7.52747e-09
8.87322e-09
1.03456e-08
1.2422e-08
1.46773e-08
1.46321e-08
1.67852e-08
1.83021e-08
1.88812e-08
1.88892e-08
1.79723e-08
1.63041e-08
1.44314e-08
1.23873e-08
9.90266e-09
6.85284e-09
3.53911e-09
1.0122e-09
6.2528e-09
8.48066e-09
1.01704e-08
9.93289e-09
1.2305e-08
1.14055e-08
1.67611e-08
1.5724e-08
1.58304e-08
1.76371e-08
1.87746e-08
1.91696e-08
1.86134e-08
1.69279e-08
1.48167e-08
1.2884e-08
1.09997e-08
8.56802e-09
5.24747e-09
1.7888e-09
8.68181e-09
9.08455e-09
1.10252e-08
1.15461e-08
1.25766e-08
1.33698e-08
1.47677e-08
1.9931e-08
1.64982e-08
1.68281e-08
1.80828e-08
1.88736e-08
1.86102e-08
1.70967e-08
1.49621e-08
1.29564e-08
1.12046e-08
8.99906e-09
5.80353e-09
2.05525e-09
1.19822e-08
1.07097e-08
1.35371e-08
1.75793e-08
1.57451e-08
1.77312e-08
1.09312e-08
2.14673e-08
1.95784e-08
1.6454e-08
1.6464e-08
1.70848e-08
1.71401e-08
1.62857e-08
1.48125e-08
1.31086e-08
1.13e-08
8.99239e-09
5.88689e-09
2.21021e-09
1.27062e-08
1.41942e-08
1.54192e-08
1.82772e-08
1.53982e-08
1.74398e-08
3.27487e-08
1.78111e-08
1.94936e-08
1.61314e-08
1.58721e-08
1.60582e-08
1.60733e-08
1.58492e-08
1.50136e-08
1.32093e-08
1.07654e-08
7.80943e-09
4.66437e-09
1.62373e-09
1.17948e-08
1.5959e-08
1.81195e-08
1.49065e-08
1.65728e-08
1.35439e-08
3.67214e-09
7.78335e-09
1.09004e-08
1.63885e-08
1.60804e-08
1.48129e-08
1.43536e-08
1.47013e-08
1.45029e-08
1.28364e-08
1.0177e-08
7.10894e-09
4.03981e-09
1.40289e-09
)
;

boundaryField
{
    sides
    {
        type            calculated;
        value           nonuniform List<scalar> 
40
(
1.17948e-08
1.5959e-08
1.81195e-08
1.49065e-08
1.65728e-08
1.35439e-08
3.67214e-09
7.78335e-09
1.09004e-08
1.63885e-08
1.60804e-08
1.48129e-08
1.43536e-08
1.47013e-08
1.45029e-08
1.28364e-08
1.0177e-08
7.10894e-09
4.03981e-09
1.40289e-09
-1.11728e-08
-1.6688e-08
-1.91568e-08
-1.2245e-08
-1.85573e-08
-1.3735e-08
-1.90985e-08
-4.98463e-09
-1.14089e-08
-1.58893e-08
-1.58071e-08
-1.43296e-08
-1.36663e-08
-1.39779e-08
-1.41111e-08
-1.29997e-08
-1.05746e-08
-7.3028e-09
-3.97716e-09
-1.33161e-09
)
;
    }
    inlet
    {
        type            calculated;
        value           nonuniform List<scalar> 
20
(
-1.11728e-08
-1.30832e-08
-1.253e-08
-8.73445e-09
-5.72114e-09
-3.18063e-09
-1.02279e-09
-3.62535e-10
-1.34813e-10
2.16158e-10
2.43912e-10
5.54009e-11
-8.95876e-12
7.79566e-10
3.27554e-09
6.2528e-09
8.68181e-09
1.19822e-08
1.27062e-08
1.17948e-08
)
;
    }
    outlet
    {
        type            calculated;
        value           uniform 0;
    }
    frontAndBack
    {
        type            empty;
    }
}


// ************************************************************************* //
