/*--------------------------------*- C++ -*----------------------------------*\
  =========                 |
  \\      /  F ield         | OpenFOAM: The Open Source CFD Toolbox
   \\    /   O peration     | Website:  https://openfoam.org
    \\  /    A nd           | Version:  7
     \\/     M anipulation  |
\*---------------------------------------------------------------------------*/
FoamFile
{
    version     2.0;
    format      ascii;
    class       volVectorField;
    location    "34";
    object      ddt0(hU);
}
// * * * * * * * * * * * * * * * * * * * * * * * * * * * * * * * * * * * * * //

dimensions      [0 2 -2 0 0 0 0];

internalField   nonuniform List<vector> 
400
(
(-5.85716e-10 4.15096e-11 0)
(7.63154e-10 5.95365e-10 0)
(2.97705e-09 8.67621e-10 0)
(2.92366e-09 2.22e-09 0)
(1.67945e-09 4.47594e-09 0)
(-3.48809e-10 4.14824e-09 0)
(-1.82189e-09 7.28281e-09 0)
(1.58105e-09 4.67961e-09 0)
(-1.26348e-09 5.22302e-10 0)
(-3.47029e-09 -1.51204e-09 0)
(-2.14468e-09 -2.67768e-09 0)
(1.17592e-10 -2.86345e-09 0)
(1.96101e-09 -2.12507e-09 0)
(3.11278e-09 -4.77424e-10 0)
(3.19068e-09 7.6036e-10 0)
(3.43326e-09 1.88605e-09 0)
(1.50878e-09 2.42572e-09 0)
(6.05872e-10 2.36644e-09 0)
(-2.0995e-09 3.30343e-09 0)
(-4.59775e-09 9.10654e-10 0)
(-7.73402e-10 -8.21676e-10 0)
(6.21809e-10 -9.57498e-10 0)
(3.29578e-09 -1.61024e-09 0)
(3.95389e-09 -1.85077e-09 0)
(2.62726e-09 -8.75683e-10 0)
(1.77861e-09 -1.35706e-09 0)
(9.21612e-10 2.26154e-09 0)
(-4.78013e-09 1.98935e-09 0)
(-5.62892e-09 4.799e-10 0)
(-4.33376e-09 1.56401e-10 0)
(-2.5665e-09 3.1337e-11 0)
(-4.89188e-10 -1.60915e-10 0)
(1.47363e-09 -6.16666e-10 0)
(3.14823e-09 -5.0471e-10 0)
(3.6486e-09 -1.86606e-10 0)
(3.97839e-09 6.50252e-10 0)
(1.852e-09 1.90429e-09 0)
(4.5098e-10 1.93704e-09 0)
(-2.32877e-09 3.39104e-09 0)
(-4.8093e-09 1.99402e-09 0)
(-6.51233e-10 -1.32649e-09 0)
(6.49196e-10 -6.1079e-10 0)
(2.00209e-09 5.26345e-10 0)
(2.54097e-09 1.53075e-09 0)
(1.66352e-09 3.14193e-09 0)
(9.15738e-10 5.19586e-09 0)
(7.35312e-10 4.33946e-09 0)
(-1.8081e-09 3.19327e-09 0)
(-2.66595e-09 1.51388e-09 0)
(-2.33214e-09 -1.44378e-09 0)
(-1.08199e-09 -3.72028e-09 0)
(3.27181e-10 -4.39893e-09 0)
(1.68954e-09 -3.85009e-09 0)
(2.82733e-09 -1.45627e-09 0)
(2.94866e-09 6.59404e-10 0)
(3.0314e-09 3.25416e-09 0)
(1.02746e-09 5.48589e-09 0)
(2.48768e-10 5.42572e-09 0)
(-2.36062e-09 8.05264e-09 0)
(-4.78232e-09 3.30982e-09 0)
(-4.56784e-10 -1.28424e-09 0)
(6.60221e-10 -1.14781e-09 0)
(2.74667e-09 2.01035e-11 0)
(3.66063e-09 1.61241e-09 0)
(2.27016e-09 3.70477e-09 0)
(8.35154e-10 6.5972e-09 0)
(-1.03563e-09 6.77681e-09 0)
(-2.84461e-09 5.62175e-09 0)
(-3.91365e-09 3.09507e-09 0)
(-3.87322e-09 -5.80041e-10 0)
(-2.32057e-09 -3.92253e-09 0)
(-6.68255e-10 -5.43466e-09 0)
(9.89105e-10 -5.11548e-09 0)
(2.65657e-09 -2.12444e-09 0)
(3.31831e-09 4.45963e-10 0)
(3.71315e-09 3.56326e-09 0)
(1.61028e-09 6.45292e-09 0)
(1.69891e-10 6.43988e-09 0)
(-2.8301e-09 1.05911e-08 0)
(-5.4369e-09 4.90083e-09 0)
(-2.39304e-10 -9.98703e-10 0)
(-2.59791e-10 -1.28624e-09 0)
(8.69424e-10 -6.49312e-10 0)
(1.56865e-09 4.28361e-10 0)
(1.04514e-09 2.28562e-09 0)
(7.92018e-10 4.97868e-09 0)
(2.91928e-10 6.17634e-09 0)
(-3.96722e-10 5.45663e-09 0)
(-1.3964e-09 2.44386e-09 0)
(-1.47377e-09 -1.39209e-09 0)
(-7.55192e-10 -4.7185e-09 0)
(-5.72596e-11 -6.16386e-09 0)
(7.07618e-10 -5.97905e-09 0)
(1.59603e-09 -2.96878e-09 0)
(1.89179e-09 -2.08151e-10 0)
(2.1842e-09 3.54455e-09 0)
(9.12956e-10 7.37752e-09 0)
(1.32428e-10 7.42294e-09 0)
(-1.70844e-09 1.20429e-08 0)
(-3.7648e-09 5.60654e-09 0)
(-9.80317e-11 -6.83551e-10 0)
(1.6433e-10 -7.81308e-11 0)
(1.75631e-09 1.87905e-09 0)
(2.35874e-09 4.81213e-09 0)
(1.32805e-09 8.73846e-09 0)
(-1.39213e-10 1.18783e-08 0)
(-1.14849e-09 1.27433e-08 0)
(-2.24888e-09 1.00869e-08 0)
(-3.36414e-09 4.68539e-09 0)
(-3.16081e-09 -1.61447e-09 0)
(-1.80789e-09 -6.86176e-09 0)
(-5.15475e-12 -8.86223e-09 0)
(1.91159e-09 -8.07038e-09 0)
(3.24353e-09 -3.58355e-09 0)
(3.3471e-09 1.89881e-10 0)
(3.17743e-09 4.9053e-09 0)
(1.07324e-09 9.30593e-09 0)
(-1.44446e-10 9.34319e-09 0)
(-3.09096e-09 1.52158e-08 0)
(-5.29884e-09 6.71665e-09 0)
(-1.82158e-10 -7.56321e-10 0)
(-4.20062e-10 -1.14454e-09 0)
(7.47099e-10 -1.26876e-10 0)
(1.2292e-09 2.16397e-09 0)
(5.37315e-10 5.90888e-09 0)
(-7.07821e-11 9.46232e-09 0)
(1.61297e-10 1.14603e-08 0)
(-2.60036e-10 1.00688e-08 0)
(-7.85343e-10 5.99802e-09 0)
(-9.57904e-10 3.79222e-10 0)
(-8.48591e-10 -4.80739e-09 0)
(-3.60919e-10 -7.19985e-09 0)
(2.83985e-10 -7.31171e-09 0)
(8.52338e-10 -3.69713e-09 0)
(9.60047e-10 -4.62557e-10 0)
(1.20811e-09 4.13819e-09 0)
(5.61912e-10 8.96508e-09 0)
(1.63304e-10 9.06097e-09 0)
(-7.35853e-10 1.56705e-08 0)
(-2.24728e-09 7.48792e-09 0)
(-1.59339e-10 -3.59555e-10 0)
(-3.39079e-10 -3.93761e-10 0)
(4.26955e-10 9.25412e-10 0)
(1.02427e-09 4.15504e-09 0)
(7.0975e-10 8.8682e-09 0)
(2.35755e-10 1.31388e-08 0)
(-3.27491e-10 1.46285e-08 0)
(-1.22274e-09 1.19631e-08 0)
(-1.72552e-09 6.20157e-09 0)
(-1.65104e-09 -1.10203e-09 0)
(-7.56445e-10 -7.17886e-09 0)
(4.86569e-10 -9.55549e-09 0)
(1.513e-09 -9.08775e-09 0)
(2.07895e-09 -4.30992e-09 0)
(1.9734e-09 -1.03989e-10 0)
(1.81376e-09 5.4302e-09 0)
(5.6195e-10 1.06816e-08 0)
(-1.70997e-10 1.06468e-08 0)
(-1.91642e-09 1.76918e-08 0)
(-3.12518e-09 7.88872e-09 0)
(-1.06789e-10 -8.26705e-11 0)
(-1.81826e-10 -1.44839e-10 0)
(3.12563e-10 1.22142e-09 0)
(5.48803e-10 4.77327e-09 0)
(8.99803e-11 9.59472e-09 0)
(-1.73456e-10 1.38599e-08 0)
(-1.76758e-10 1.55777e-08 0)
(-2.41763e-10 1.35474e-08 0)
(-3.96124e-10 8.21609e-09 0)
(-4.83731e-10 1.10006e-09 0)
(-1.22954e-10 -5.19433e-09 0)
(2.67454e-10 -8.2526e-09 0)
(4.24993e-10 -8.64904e-09 0)
(5.15824e-10 -4.54735e-09 0)
(3.78477e-10 -7.59488e-10 0)
(2.77463e-10 4.6371e-09 0)
(-3.70653e-12 1.02174e-08 0)
(-1.13348e-10 1.04456e-08 0)
(-3.4208e-10 1.82957e-08 0)
(-8.35576e-10 8.69407e-09 0)
(-1.05391e-11 1.20717e-10 0)
(-6.25912e-11 -1.87057e-11 0)
(5.62546e-11 1.26617e-09 0)
(1.2083e-10 4.98621e-09 0)
(9.17525e-11 1.02801e-08 0)
(1.40692e-10 1.49274e-08 0)
(8.35608e-11 1.66531e-08 0)
(-1.41046e-10 1.42655e-08 0)
(-3.42373e-10 8.31944e-09 0)
(-4.06049e-10 7.02116e-10 0)
(-2.62267e-10 -5.90038e-09 0)
(-1.36752e-10 -8.99191e-09 0)
(4.73381e-11 -9.03593e-09 0)
(3.46232e-10 -4.38218e-09 0)
(5.09797e-10 -2.62446e-10 0)
(6.31883e-10 5.37972e-09 0)
(3.81893e-10 1.09668e-08 0)
(2.67722e-10 1.10409e-08 0)
(-4.1108e-10 1.88427e-08 0)
(-8.86698e-10 8.65462e-09 0)
(4.96355e-11 1.43018e-10 0)
(5.86121e-11 9.93554e-13 0)
(-5.80252e-11 1.30536e-09 0)
(-1.14818e-10 5.02349e-09 0)
(-6.4637e-11 1.02902e-08 0)
(-1.33901e-10 1.49115e-08 0)
(-9.28655e-11 1.66228e-08 0)
(1.13676e-10 1.42133e-08 0)
(2.7948e-10 8.28789e-09 0)
(3.7697e-10 6.53394e-10 0)
(2.24448e-10 -5.9611e-09 0)
(5.77405e-11 -9.02286e-09 0)
(-1.13406e-10 -9.05439e-09 0)
(-4.23876e-10 -4.40285e-09 0)
(-6.81444e-10 -2.504e-10 0)
(-8.57618e-10 5.4517e-09 0)
(-5.02578e-10 1.10708e-08 0)
(-2.0426e-10 1.11181e-08 0)
(5.67382e-10 1.88602e-08 0)
(9.98667e-10 8.64732e-09 0)
(1.01625e-10 -2.22014e-11 0)
(2.13274e-10 -1.15458e-10 0)
(-2.97271e-10 1.29899e-09 0)
(-5.35924e-10 4.82497e-09 0)
(-9.47464e-11 9.62478e-09 0)
(1.9125e-10 1.38142e-08 0)
(1.60525e-10 1.55309e-08 0)
(2.66214e-10 1.34362e-08 0)
(3.82148e-10 8.14153e-09 0)
(4.47057e-10 1.03117e-09 0)
(1.5976e-10 -5.31607e-09 0)
(-2.40828e-10 -8.34495e-09 0)
(-4.44008e-10 -8.69182e-09 0)
(-5.14259e-10 -4.57741e-09 0)
(-3.7998e-10 -7.38825e-10 0)
(-3.52216e-10 4.77092e-09 0)
(-1.11621e-10 1.04297e-08 0)
(5.56719e-11 1.06236e-08 0)
(3.8195e-10 1.83514e-08 0)
(9.21196e-10 8.68292e-09 0)
(1.1406e-10 -3.01517e-10 0)
(3.64945e-10 -3.7271e-10 0)
(-4.09675e-10 9.68952e-10 0)
(-1.00479e-09 4.15421e-09 0)
(-7.45903e-10 8.89249e-09 0)
(-2.14595e-10 1.30851e-08 0)
(3.16355e-10 1.46044e-08 0)
(1.24358e-09 1.19042e-08 0)
(1.82181e-09 6.10369e-09 0)
(1.61537e-09 -1.11203e-09 0)
(7.63003e-10 -7.21739e-09 0)
(-3.63072e-10 -9.65089e-09 0)
(-1.41756e-09 -9.15451e-09 0)
(-1.9936e-09 -4.3466e-09 0)
(-1.83849e-09 -1.23197e-10 0)
(-1.72342e-09 5.48202e-09 0)
(-6.19475e-10 1.08232e-08 0)
(2.26964e-11 1.08157e-08 0)
(1.82602e-09 1.7788e-08 0)
(3.14771e-09 7.9027e-09 0)
(1.48789e-10 -7.49227e-10 0)
(3.97222e-10 -1.11493e-09 0)
(-7.44482e-10 -1.36787e-10 0)
(-1.23664e-09 2.13409e-09 0)
(-5.55787e-10 5.87912e-09 0)
(4.58786e-11 9.44618e-09 0)
(-1.21658e-10 1.14513e-08 0)
(1.84475e-10 1.01336e-08 0)
(9.05598e-10 5.93328e-09 0)
(1.05686e-09 3.52792e-10 0)
(7.85017e-10 -4.75154e-09 0)
(3.88576e-10 -7.20623e-09 0)
(-1.69275e-10 -7.36747e-09 0)
(-7.3569e-10 -3.75875e-09 0)
(-7.9542e-10 -5.44372e-10 0)
(-1.02768e-09 4.06258e-09 0)
(-5.10704e-10 8.95077e-09 0)
(-2.77178e-10 9.13338e-09 0)
(5.93602e-10 1.57641e-08 0)
(2.19362e-09 7.52419e-09 0)
(1.17164e-10 -6.95333e-10 0)
(-2.05609e-10 -1.5264e-11 0)
(-1.77039e-09 1.85355e-09 0)
(-2.40029e-09 4.77836e-09 0)
(-1.31533e-09 8.66881e-09 0)
(8.44892e-11 1.19472e-08 0)
(1.22195e-09 1.26981e-08 0)
(2.10829e-09 1.02545e-08 0)
(3.27346e-09 4.76544e-09 0)
(3.30522e-09 -1.66368e-09 0)
(1.81651e-09 -6.82707e-09 0)
(-7.3819e-11 -8.79833e-09 0)
(-1.9191e-09 -8.05983e-09 0)
(-3.20228e-09 -3.61923e-09 0)
(-3.23749e-09 1.02272e-10 0)
(-2.98109e-09 4.77491e-09 0)
(-9.1391e-10 9.18067e-09 0)
(1.49356e-10 9.30314e-09 0)
(2.98615e-09 1.52482e-08 0)
(5.1884e-09 6.73323e-09 0)
(3.26797e-10 -1.07783e-09 0)
(1.96074e-10 -1.29065e-09 0)
(-9.28373e-10 -7.20459e-10 0)
(-1.64155e-09 4.49798e-10 0)
(-9.88282e-10 2.28688e-09 0)
(-9.13113e-10 5.09902e-09 0)
(-1.08055e-10 6.04056e-09 0)
(4.41807e-10 5.44686e-09 0)
(1.08052e-09 2.69124e-09 0)
(1.46017e-09 -1.32424e-09 0)
(8.17593e-10 -4.69868e-09 0)
(-1.52928e-11 -6.0821e-09 0)
(-7.98754e-10 -5.89852e-09 0)
(-1.66193e-09 -2.93273e-09 0)
(-1.89926e-09 -2.32534e-10 0)
(-2.06898e-09 3.44398e-09 0)
(-7.34417e-10 7.22027e-09 0)
(-3.22923e-11 7.2981e-09 0)
(1.67056e-09 1.19888e-08 0)
(3.65446e-09 5.59615e-09 0)
(5.06309e-10 -1.37349e-09 0)
(-6.31837e-10 -1.18308e-09 0)
(-2.75246e-09 -1.02845e-10 0)
(-3.66916e-09 1.71657e-09 0)
(-2.23471e-09 3.81694e-09 0)
(-8.61442e-10 6.50887e-09 0)
(7.06954e-10 7.08494e-09 0)
(3.39516e-09 5.36258e-09 0)
(3.87411e-09 3.22506e-09 0)
(3.64056e-09 -4.18285e-10 0)
(2.33945e-09 -3.8668e-09 0)
(6.50445e-10 -5.36456e-09 0)
(-1.1011e-09 -5.02201e-09 0)
(-2.80072e-09 -2.04481e-09 0)
(-3.44161e-09 4.93923e-10 0)
(-3.72241e-09 3.55287e-09 0)
(-1.492e-09 6.35767e-09 0)
(-3.56934e-11 6.32386e-09 0)
(2.87744e-09 1.05031e-08 0)
(5.38953e-09 4.85634e-09 0)
(6.62386e-10 -1.28334e-09 0)
(-6.07361e-10 -6.32173e-10 0)
(-1.94416e-09 5.59033e-10 0)
(-2.52163e-09 1.51833e-09 0)
(-1.73791e-09 3.23542e-09 0)
(-6.25279e-10 4.79312e-09 0)
(-1.36395e-09 5.81715e-09 0)
(1.68773e-09 3.18766e-09 0)
(3.0265e-09 1.29153e-09 0)
(2.20772e-09 -1.41796e-09 0)
(1.02828e-09 -3.72203e-09 0)
(-3.46862e-10 -4.44591e-09 0)
(-1.78942e-09 -3.87572e-09 0)
(-2.9782e-09 -1.43386e-09 0)
(-3.10664e-09 7.36959e-10 0)
(-3.12161e-09 3.34121e-09 0)
(-9.97692e-10 5.50512e-09 0)
(-1.46522e-10 5.37799e-09 0)
(2.44796e-09 7.97885e-09 0)
(4.80097e-09 3.27237e-09 0)
(7.41401e-10 -6.78176e-10 0)
(-5.86787e-10 -1.0881e-09 0)
(-3.28794e-09 -1.35454e-09 0)
(-3.89398e-09 -1.96585e-09 0)
(-2.8006e-09 -1.07298e-09 0)
(-6.67974e-10 -1.00218e-09 0)
(1.59957e-09 6.18958e-10 0)
(2.8328e-09 2.20961e-09 0)
(5.75885e-09 2.55575e-10 0)
(4.44647e-09 -1.63107e-11 0)
(2.51605e-09 -7.75336e-11 0)
(4.7531e-10 -2.75373e-10 0)
(-1.46594e-09 -6.74012e-10 0)
(-3.13275e-09 -4.57493e-10 0)
(-3.66935e-09 -3.9121e-11 0)
(-4.05024e-09 8.24432e-10 0)
(-1.91275e-09 2.00766e-09 0)
(-4.4191e-10 1.95121e-09 0)
(2.3862e-09 3.35026e-09 0)
(4.85439e-09 1.9632e-09 0)
(4.97036e-10 1.32612e-10 0)
(-8.05068e-10 4.99071e-10 0)
(-3.01928e-09 1.02706e-09 0)
(-2.9389e-09 2.17884e-09 0)
(-1.53519e-09 4.25679e-09 0)
(-9.03619e-10 4.75391e-09 0)
(-3.65746e-11 4.56092e-09 0)
(5.38539e-11 4.76323e-09 0)
(1.04855e-09 5.01828e-10 0)
(3.55984e-09 -1.6187e-09 0)
(2.19316e-09 -2.74085e-09 0)
(-2.9191e-11 -2.90688e-09 0)
(-1.7971e-09 -2.12799e-09 0)
(-2.9304e-09 -4.24915e-10 0)
(-3.11623e-09 8.54778e-10 0)
(-3.52843e-09 1.98205e-09 0)
(-1.6656e-09 2.4819e-09 0)
(-6.82879e-10 2.38198e-09 0)
(2.13782e-09 3.29556e-09 0)
(4.66031e-09 8.97893e-10 0)
)
;

boundaryField
{
    sides
    {
        type            calculated;
        value           nonuniform List<vector> 
40
(
(4.97036e-10 0 0)
(-8.05068e-10 0 0)
(-3.01928e-09 0 0)
(-2.9389e-09 0 0)
(-1.53519e-09 0 0)
(-9.03619e-10 0 0)
(-3.65746e-11 0 0)
(5.38539e-11 0 0)
(1.04855e-09 0 0)
(3.55984e-09 0 0)
(2.19316e-09 0 0)
(-2.9191e-11 0 0)
(-1.7971e-09 0 0)
(-2.9304e-09 0 0)
(-3.11623e-09 0 0)
(-3.52843e-09 0 0)
(-1.6656e-09 0 0)
(-6.82879e-10 0 0)
(2.13782e-09 0 0)
(4.66031e-09 0 0)
(-5.85716e-10 0 0)
(7.63154e-10 0 0)
(2.97705e-09 0 0)
(2.92366e-09 0 0)
(1.67945e-09 0 0)
(-3.48809e-10 0 0)
(-1.82189e-09 0 0)
(1.58105e-09 0 0)
(-1.26348e-09 0 0)
(-3.47029e-09 0 0)
(-2.14468e-09 0 0)
(1.17592e-10 0 0)
(1.96101e-09 0 0)
(3.11278e-09 0 0)
(3.19068e-09 0 0)
(3.43326e-09 0 0)
(1.50878e-09 0 0)
(6.05872e-10 0 0)
(-2.0995e-09 0 0)
(-4.59775e-09 0 0)
)
;
    }
    inlet
    {
        type            calculated;
        value           uniform (0 0 0);
    }
    outlet
    {
        type            calculated;
        value           nonuniform List<vector> 
20
(
(-4.59775e-09 9.10654e-10 0)
(-4.8093e-09 1.99402e-09 0)
(-4.78232e-09 3.30982e-09 0)
(-5.4369e-09 4.90083e-09 0)
(-3.7648e-09 5.60654e-09 0)
(-5.29884e-09 6.71665e-09 0)
(-2.24728e-09 7.48792e-09 0)
(-3.12518e-09 7.88872e-09 0)
(-8.35576e-10 8.69407e-09 0)
(-8.86698e-10 8.65462e-09 0)
(9.98667e-10 8.64732e-09 0)
(9.21196e-10 8.68292e-09 0)
(3.14771e-09 7.9027e-09 0)
(2.19362e-09 7.52419e-09 0)
(5.1884e-09 6.73323e-09 0)
(3.65446e-09 5.59615e-09 0)
(5.38953e-09 4.85634e-09 0)
(4.80097e-09 3.27237e-09 0)
(4.85439e-09 1.9632e-09 0)
(4.66031e-09 8.97893e-10 0)
)
;
    }
    frontAndBack
    {
        type            empty;
    }
}


// ************************************************************************* //
