/*--------------------------------*- C++ -*----------------------------------*\
  =========                 |
  \\      /  F ield         | OpenFOAM: The Open Source CFD Toolbox
   \\    /   O peration     | Website:  https://openfoam.org
    \\  /    A nd           | Version:  7
     \\/     M anipulation  |
\*---------------------------------------------------------------------------*/
FoamFile
{
    version     2.0;
    format      ascii;
    class       surfaceScalarField;
    location    "34";
    object      ddtCorrDdt0(phi);
}
// * * * * * * * * * * * * * * * * * * * * * * * * * * * * * * * * * * * * * //

dimensions      [0 4 -2 0 0 0 0];

internalField   nonuniform List<scalar> 
760
(
3.99033e-12
-1.42066e-12
1.4794e-11
-1.13381e-12
1.20712e-11
-2.5788e-12
4.95972e-12
3.7582e-11
1.60832e-11
4.33655e-11
-1.78108e-11
-3.09366e-10
3.81111e-12
4.90698e-10
3.47789e-12
2.70995e-10
-1.33589e-11
2.75745e-12
-1.44401e-11
-2.42596e-12
-5.49436e-12
-5.21778e-12
5.24317e-12
-5.75589e-12
1.31835e-11
-5.05136e-12
1.62371e-11
-1.61741e-12
1.63258e-11
1.42773e-12
1.26591e-11
5.57955e-12
4.88477e-12
9.49424e-12
-3.36033e-12
9.69612e-12
-1.72018e-11
1.52735e-11
6.95673e-12
5.5946e-12
-5.50401e-12
1.17246e-11
-1.11047e-12
1.54871e-11
-4.9307e-12
1.71261e-11
-1.61202e-14
6.97154e-12
1.10514e-11
1.61485e-11
1.48073e-11
-1.45927e-11
1.53679e-11
-2.92904e-11
8.37793e-12
-2.23348e-11
5.18857e-12
-1.6887e-11
-3.82981e-12
-8.00214e-12
-1.13485e-11
2.235e-12
-1.38064e-11
1.19645e-11
-1.31169e-11
1.73495e-11
-5.47362e-12
1.89111e-11
1.51393e-12
1.49688e-11
1.1133e-11
5.24535e-12
2.05946e-11
-4.05696e-12
2.03677e-11
-1.82886e-11
3.09236e-11
1.38603e-11
5.51283e-12
-1.32691e-11
6.03212e-12
-2.95964e-12
9.9658e-12
3.41026e-13
1.33527e-11
4.11837e-12
3.10522e-12
1.2912e-11
8.78874e-12
2.32312e-11
-5.56429e-12
2.4895e-11
-1.24493e-11
1.78432e-11
-1.1299e-11
1.02995e-11
-7.93827e-12
-3.97928e-12
-2.07673e-12
-1.66216e-11
4.85003e-12
-2.20127e-11
1.14975e-11
-2.05498e-11
1.49248e-11
-8.44738e-12
1.47998e-11
2.39418e-12
1.03848e-11
1.58027e-11
2.77025e-12
2.81354e-11
-4.81667e-12
2.81057e-11
-1.84283e-11
4.48331e-11
2.02032e-11
6.45792e-12
-7.94196e-12
9.33511e-12
-7.24248e-12
1.31584e-11
-6.72614e-13
1.49249e-11
8.3717e-12
8.53121e-12
1.92677e-11
1.22116e-12
3.43325e-11
-1.21381e-11
3.64667e-11
-1.67588e-11
3.10203e-11
-1.89236e-11
1.43514e-11
-1.4863e-11
-6.13235e-12
-7.66272e-12
-2.37002e-11
3.82054e-13
-3.12708e-11
9.37869e-12
-2.95679e-11
1.53407e-11
-1.3414e-11
1.74298e-11
8.40889e-13
1.35971e-11
1.90518e-11
4.07699e-12
3.64603e-11
-5.75278e-12
3.66353e-11
-2.10602e-11
5.86492e-11
2.66746e-11
2.81744e-12
-3.57882e-12
1.82265e-12
-3.84898e-12
4.0925e-12
2.08499e-12
5.76721e-12
1.22191e-11
7.12984e-12
2.53314e-11
2.51752e-12
4.0178e-11
-1.26009e-12
4.59518e-11
-4.79622e-12
3.88974e-11
-6.52075e-12
1.90852e-11
-4.86722e-12
-5.30443e-12
-2.34429e-12
-2.62811e-11
1.3991e-12
-3.50936e-11
6.13345e-12
-3.32377e-11
9.20396e-12
-1.54298e-11
1.0033e-11
1.11339e-14
7.83893e-12
2.01391e-11
2.41961e-12
4.01807e-11
-3.47234e-12
4.02627e-11
-1.43465e-11
6.66863e-11
3.06094e-11
3.62879e-12
-4.29263e-12
5.86334e-12
-4.11984e-12
8.97883e-12
2.92015e-12
7.71214e-12
1.51409e-11
4.86479e-12
3.48029e-11
-3.73095e-12
5.09336e-11
-8.79161e-12
5.88721e-11
-1.4525e-11
4.84526e-11
-1.55178e-11
2.41782e-11
-1.17983e-11
-5.7853e-12
-4.97716e-12
-3.19532e-11
4.59377e-12
-4.25903e-11
1.33363e-11
-4.00108e-11
1.68412e-11
-1.86282e-11
1.60849e-11
-2.35461e-13
1.08197e-11
2.38597e-11
2.06477e-12
4.71425e-11
-7.35289e-12
4.73116e-11
-2.13615e-11
7.78841e-11
3.54112e-11
-1.6391e-13
-2.39118e-12
1.60023e-12
-2.36683e-12
3.46325e-12
4.804e-12
4.17932e-12
1.93807e-11
2.0017e-12
3.99877e-11
5.88308e-13
5.86027e-11
-7.64391e-13
6.62251e-11
-3.27145e-12
5.53431e-11
-3.38649e-12
3.09532e-11
-4.18954e-12
-1.44089e-12
-3.41917e-12
-2.9758e-11
-1.01231e-13
-4.17441e-11
3.31666e-12
-4.10791e-11
4.82766e-12
-2.05174e-11
5.24913e-12
-2.24848e-12
4.54548e-12
2.28377e-11
1.68668e-12
4.81167e-11
-1.42133e-12
4.8349e-11
-7.97348e-12
8.2898e-11
3.83698e-11
-6.33457e-13
-1.06644e-12
1.05223e-12
-8.98577e-13
2.55818e-12
5.59731e-12
4.13883e-12
2.22139e-11
2.65071e-12
4.58244e-11
2.60785e-13
6.77051e-11
-4.58719e-12
7.61932e-11
-7.44128e-12
6.48855e-11
-7.75344e-12
3.71716e-11
-5.96091e-12
8.98455e-13
-7.82745e-13
-3.00993e-11
5.13591e-12
-4.37729e-11
9.28653e-12
-4.39989e-11
1.03174e-11
-2.222e-11
9.31967e-12
-2.40359e-12
6.14679e-12
2.50015e-11
7.14234e-13
5.21569e-11
-5.23637e-12
5.28514e-11
-1.28019e-11
9.01407e-11
4.1561e-11
-2.36511e-13
2.59248e-13
7.72323e-13
-2.73946e-13
1.45566e-12
6.39494e-12
1.21372e-12
2.48606e-11
1.31883e-13
5.06537e-11
-4.57054e-13
7.30004e-11
-1.51575e-12
8.13385e-11
-1.51846e-12
6.97213e-11
-1.95712e-12
4.09202e-11
-1.48047e-12
3.86087e-12
4.94877e-13
-2.82998e-11
1.71916e-12
-4.34351e-11
2.41854e-12
-4.41189e-11
2.38581e-12
-2.17971e-11
1.61851e-12
-1.87159e-12
7.9446e-13
2.5446e-11
-4.34463e-13
5.28935e-11
-1.21554e-12
5.31916e-11
-3.0523e-12
9.21545e-11
4.30401e-11
-3.781e-14
8.77113e-13
6.52035e-14
2.80767e-13
2.37001e-13
6.89985e-12
4.44219e-13
2.55278e-11
7.46263e-13
5.17332e-11
7.15497e-13
7.47318e-11
-3.62687e-13
8.33741e-11
-1.2426e-12
7.1945e-11
-1.84488e-12
4.27017e-11
-1.60106e-12
4.83326e-12
-8.87215e-13
-2.84753e-11
-2.35831e-13
-4.45633e-11
1.04613e-12
-4.53634e-11
2.26169e-12
-2.26215e-11
2.79442e-12
-2.33527e-12
2.47235e-12
2.61059e-11
1.50489e-12
5.4616e-11
-4.12755e-13
5.56832e-11
-3.33693e-12
9.51461e-11
4.37628e-11
9.05022e-14
4.98079e-13
-1.54312e-13
-3.23742e-14
-1.50662e-13
6.80553e-12
-3.89328e-13
2.5241e-11
-5.70363e-13
5.07508e-11
-7.98374e-13
7.28314e-11
3.43275e-13
8.10191e-11
9.61933e-13
6.91785e-11
1.58177e-12
4.05714e-11
1.51084e-12
3.35934e-12
5.61145e-13
-2.89189e-11
-1.66236e-13
-4.37719e-11
-1.33712e-12
-4.43167e-11
-2.81717e-12
-2.2e-11
-3.85492e-12
-1.76097e-12
-3.51979e-12
2.61373e-11
-1.6802e-12
5.39051e-11
1.12639e-12
5.39539e-11
4.06099e-12
9.23236e-11
4.29585e-11
3.1785e-13
-6.78041e-13
-6.81312e-13
-7.77518e-13
-1.30706e-12
6.00811e-12
-1.29082e-12
2.23661e-11
-2.46154e-14
4.60207e-11
4.22921e-13
6.73992e-11
1.49808e-12
7.60162e-11
1.6674e-12
6.42966e-11
1.69957e-12
3.67285e-11
1.48654e-12
6.83641e-13
-2.42745e-13
-3.06975e-11
-1.74779e-12
-4.43907e-11
-2.49612e-12
-4.42795e-11
-2.30558e-12
-2.23589e-11
-1.76856e-12
-2.36437e-12
-1.36614e-12
2.55668e-11
-8.19424e-14
5.32042e-11
1.17868e-12
5.3846e-11
3.41369e-12
9.05453e-11
4.15543e-11
4.84404e-13
-2.20165e-12
-7.25656e-13
-2.25653e-12
-2.6189e-12
4.8632e-12
-4.06792e-12
1.92397e-11
-2.8972e-12
4.00475e-11
8.12571e-15
5.837e-11
4.30597e-12
6.6147e-11
7.98337e-12
5.53447e-11
7.91967e-12
3.04012e-11
5.67294e-12
-1.37706e-12
1.21681e-12
-2.9559e-11
-4.51822e-12
-4.20745e-11
-8.92177e-12
-4.14906e-11
-9.75591e-12
-2.07896e-11
-8.64681e-12
-2.52278e-12
-6.02737e-12
2.2742e-11
-1.31881e-12
4.84378e-11
4.49052e-12
4.90144e-11
1.26542e-11
8.34509e-11
3.85275e-11
-8.79045e-14
-4.35747e-12
-1.37718e-12
-3.92185e-12
-3.78466e-12
2.75548e-12
-3.90678e-12
1.5005e-11
-2.54727e-12
3.44395e-11
-1.68902e-13
5.10542e-11
4.72946e-13
5.89453e-11
3.23449e-12
4.91855e-11
4.33033e-12
2.41748e-11
4.08705e-12
-6.09717e-12
3.20187e-12
-3.159e-11
5.77491e-13
-4.22675e-11
-2.74817e-12
-4.00893e-11
-4.18325e-12
-1.89248e-11
-4.30555e-12
-7.4564e-13
-3.83594e-12
2.323e-11
-1.86498e-12
4.66914e-11
6.03495e-13
4.73664e-11
7.45548e-12
7.8253e-11
3.5585e-11
-3.62882e-12
-3.87027e-12
-5.93458e-12
-3.68258e-12
-9.30169e-12
1.79478e-12
-7.64952e-12
1.20893e-11
-5.11854e-12
2.51853e-11
3.87776e-12
4.11502e-11
8.88753e-12
4.5391e-11
1.33751e-11
4.00595e-11
1.59613e-11
2.01991e-11
1.23474e-11
-5.25932e-12
4.59521e-12
-2.61679e-11
-4.80944e-12
-3.46581e-11
-1.32253e-11
-3.2929e-11
-1.65387e-11
-1.53963e-11
-1.52959e-11
-2.85247e-13
-9.78024e-12
1.94914e-11
-1.59361e-12
3.93704e-11
7.01086e-12
3.97675e-11
2.07602e-11
6.66142e-11
3.06329e-11
-2.51574e-12
-8.59512e-12
-2.32702e-12
-7.31457e-12
-4.48406e-12
-1.1185e-12
-5.95694e-12
8.49798e-12
-6.64526e-12
1.98486e-11
-3.37758e-12
3.433e-11
3.06686e-12
3.53779e-11
3.34534e-12
2.93866e-11
5.59859e-12
1.57143e-11
5.35324e-12
-5.40247e-12
2.25091e-12
-2.36196e-11
-1.87755e-12
-3.09366e-11
-6.51715e-12
-2.9066e-11
-9.46676e-12
-1.30023e-11
-9.79296e-12
1.01736e-12
-6.99215e-12
1.88316e-11
-1.61641e-12
3.58028e-11
3.64435e-12
3.59533e-11
1.39069e-11
5.82172e-11
2.65062e-11
-5.73587e-12
-1.30099e-11
-1.00232e-11
-3.60577e-12
-1.26318e-11
1.89099e-13
-1.52765e-11
4.58525e-12
-7.4993e-12
1.30683e-11
-3.82212e-12
2.17838e-11
1.36909e-11
3.1605e-11
1.85571e-11
1.69899e-11
1.73732e-11
9.23873e-12
1.45627e-11
-3.48839e-12
7.81126e-12
-1.64228e-11
-7.54824e-13
-2.19189e-11
-1.00418e-11
-2.02612e-11
-1.60799e-11
-8.02274e-12
-1.78283e-11
2.84254e-12
-1.32793e-11
1.60524e-11
-3.34058e-12
2.79437e-11
6.28193e-12
2.76466e-11
2.10141e-11
4.43639e-11
1.99692e-11
-4.5208e-12
-5.04037e-12
-7.42764e-12
-1.67529e-12
-8.27318e-12
-4.0233e-12
-1.35697e-11
1.28883e-13
-4.22874e-12
9.9728e-12
-6.66459e-12
1.5244e-11
4.10005e-13
1.95161e-11
1.52632e-11
1.13219e-11
1.12195e-11
3.75028e-12
7.38206e-12
-4.35224e-12
2.0523e-12
-1.15669e-11
-5.14312e-12
-1.41384e-11
-1.21613e-11
-1.33211e-11
-1.57349e-11
-5.40921e-12
-1.5479e-11
1.92269e-12
-1.05508e-11
1.16898e-11
-2.37175e-12
2.09021e-11
5.36531e-12
2.03359e-11
1.8682e-11
3.06597e-11
1.36893e-11
-5.44049e-12
-1.05544e-12
-1.18813e-11
-1.47822e-12
-1.53191e-11
-1.23911e-12
-1.61263e-11
4.51064e-11
-1.06985e-11
7.99004e-11
5.31686e-12
-3.1278e-10
5.09751e-12
1.34473e-10
2.80511e-11
2.71316e-10
2.33507e-11
2.44549e-12
1.67813e-11
-2.93559e-12
7.83813e-12
-5.62983e-12
-2.23533e-12
-6.19805e-12
-1.18927e-11
-5.34982e-12
-1.7321e-11
-1.62156e-12
-1.915e-11
1.79023e-12
-1.53737e-11
6.16827e-12
-5.39623e-12
9.93924e-12
4.26297e-12
9.86604e-12
1.85626e-11
1.52021e-11
6.85601e-12
-5.93996e-12
-1.2618e-11
-1.37239e-11
-5.73945e-12
-1.21587e-11
-3.21428e-12
7.81721e-12
-4.78673e-12
1.37169e-11
1.47206e-11
5.77444e-12
-4.6069e-12
-1.22472e-11
-1.54763e-11
-1.63951e-11
-1.34164e-11
-5.54998e-12
3.27889e-12
1.75075e-11
)
;

boundaryField
{
    sides
    {
        type            calculated;
        value           uniform 0;
    }
    inlet
    {
        type            calculated;
        value           uniform 0;
    }
    outlet
    {
        type            calculated;
        value           nonuniform List<scalar> 
20
(
-2.33858e-11
-2.44939e-11
-2.46082e-11
-2.83349e-11
-1.97711e-11
-2.75722e-11
-1.14276e-11
-1.57362e-11
-4.22983e-12
-4.14933e-12
4.61645e-12
4.72612e-12
1.6043e-11
1.13174e-11
2.70242e-11
1.90981e-11
2.79614e-11
2.46186e-11
2.47255e-11
2.37538e-11
)
;
    }
    frontAndBack
    {
        type            empty;
        value           nonuniform 0();
    }
}


// ************************************************************************* //
