/*--------------------------------*- C++ -*----------------------------------*\
  =========                 |
  \\      /  F ield         | OpenFOAM: The Open Source CFD Toolbox
   \\    /   O peration     | Website:  https://openfoam.org
    \\  /    A nd           | Version:  7
     \\/     M anipulation  |
\*---------------------------------------------------------------------------*/
FoamFile
{
    version     2.0;
    format      ascii;
    class       surfaceScalarField;
    location    "34";
    object      phi_0;
}
// * * * * * * * * * * * * * * * * * * * * * * * * * * * * * * * * * * * * * //

dimensions      [0 4 -1 0 0 0 0];

internalField   nonuniform List<scalar> 
760
(
4.99999e-06
1.20539e-11
4.99999e-06
1.29817e-12
5e-06
-5.43636e-12
5.00002e-06
-1.14896e-11
5.00004e-06
-1.83798e-11
5.00008e-06
-3.08748e-11
5.00012e-06
-4.25975e-11
5.00018e-06
-5.70461e-11
5.00025e-06
-6.79088e-11
5.00034e-06
-8.32176e-11
5.00044e-06
-9.26288e-11
5.00055e-06
-1.12778e-10
5.00068e-06
-1.21392e-10
5.00084e-06
-1.58937e-10
5.00101e-06
-1.6861e-10
5.00126e-06
-2.46754e-10
5.00152e-06
-2.50776e-10
5.00195e-06
-4.28378e-10
5.00236e-06
-4.1785e-10
-9.02312e-10
5.00003e-06
-9.73218e-12
5.00004e-06
-9.14495e-12
5.00005e-06
-1.37362e-11
5.00007e-06
-2.27171e-11
5.00009e-06
-3.74585e-11
5.00012e-06
-5.82243e-11
5.00016e-06
-8.30947e-11
5.00023e-06
-1.12182e-10
5.0003e-06
-1.35858e-10
5.00038e-06
-1.65211e-10
5.00048e-06
-1.83178e-10
5.00059e-06
-2.19881e-10
5.00071e-06
-2.38547e-10
5.00086e-06
-3.05042e-10
5.00103e-06
-3.33102e-10
5.00125e-06
-4.64202e-10
5.0015e-06
-4.97547e-10
5.00183e-06
-7.61457e-10
5.00219e-06
-7.67741e-10
-1.28224e-09
4.99999e-06
2.48005e-12
4.99999e-06
-6.24734e-12
5e-06
-1.74006e-11
5.00001e-06
-3.24724e-11
5.00003e-06
-5.35206e-11
5.00006e-06
-8.33689e-11
5.0001e-06
-1.19134e-10
5.00015e-06
-1.60317e-10
5.00022e-06
-1.97505e-10
5.0003e-06
-2.39443e-10
5.00039e-06
-2.70109e-10
5.00049e-06
-3.18931e-10
5.00061e-06
-3.53691e-10
5.00075e-06
-4.38789e-10
5.00092e-06
-4.95238e-10
5.00111e-06
-6.55012e-10
5.00135e-06
-7.30997e-10
5.00162e-06
-1.03085e-09
5.00195e-06
-1.09391e-09
-1.72036e-09
5.00001e-06
-6.6493e-12
5.00002e-06
-1.46572e-11
5.00003e-06
-2.64819e-11
5.00005e-06
-4.42174e-11
5.00007e-06
-7.02594e-11
5.0001e-06
-1.09309e-10
5.00014e-06
-1.55583e-10
5.00019e-06
-2.0929e-10
5.00026e-06
-2.57075e-10
5.00033e-06
-3.09993e-10
5.00041e-06
-3.48555e-10
5.00051e-06
-4.09101e-10
5.00061e-06
-4.53415e-10
5.00074e-06
-5.57491e-10
5.00088e-06
-6.31261e-10
5.00105e-06
-8.21875e-10
5.00124e-06
-9.23728e-10
5.00148e-06
-1.26646e-09
5.00173e-06
-1.34617e-09
-1.93803e-09
5e-06
-4.02445e-12
5e-06
-1.52147e-11
5.00001e-06
-3.08233e-11
5.00002e-06
-5.29942e-11
5.00004e-06
-8.41035e-11
5.00006e-06
-1.29492e-10
5.00009e-06
-1.8418e-10
5.00013e-06
-2.47493e-10
5.00019e-06
-3.05556e-10
5.00025e-06
-3.67902e-10
5.00032e-06
-4.16651e-10
5.00041e-06
-4.87006e-10
5.0005e-06
-5.44519e-10
5.00061e-06
-6.61617e-10
5.00074e-06
-7.5494e-10
5.00088e-06
-9.61591e-10
5.00105e-06
-1.08831e-09
5.00123e-06
-1.44412e-09
5.00143e-06
-1.54782e-09
-2.20944e-09
5e-06
-6.33264e-12
5.00001e-06
-1.92891e-11
5.00002e-06
-3.62346e-11
5.00003e-06
-6.07307e-11
5.00004e-06
-9.62694e-11
5.00006e-06
-1.48609e-10
5.00009e-06
-2.12037e-10
5.00014e-06
-2.84862e-10
5.00019e-06
-3.51233e-10
5.00024e-06
-4.21162e-10
5.00031e-06
-4.75139e-10
5.00038e-06
-5.51853e-10
5.00045e-06
-6.15564e-10
5.00054e-06
-7.43793e-10
5.00064e-06
-8.49577e-10
5.00075e-06
-1.07355e-09
5.00088e-06
-1.21808e-09
5.00104e-06
-1.5963e-09
5.00121e-06
-1.71719e-09
-2.34913e-09
5e-06
-7.61613e-12
5.00001e-06
-2.27454e-11
5.00001e-06
-4.12154e-11
5.00002e-06
-6.79295e-11
5.00003e-06
-1.06916e-10
5.00005e-06
-1.63307e-10
5.00007e-06
-2.31674e-10
5.0001e-06
-3.09951e-10
5.00013e-06
-3.82638e-10
5.00018e-06
-4.5925e-10
5.00023e-06
-5.202e-10
5.00028e-06
-6.04019e-10
5.00034e-06
-6.75745e-10
5.00042e-06
-8.11999e-10
5.0005e-06
-9.28311e-10
5.00059e-06
-1.16156e-09
5.00069e-06
-1.31875e-09
5.0008e-06
-1.7038e-09
5.00091e-06
-1.83105e-09
-2.50093e-09
5e-06
-8.59887e-12
5e-06
-2.55964e-11
5.00001e-06
-4.49301e-11
5.00001e-06
-7.25225e-11
5.00002e-06
-1.13524e-10
5.00003e-06
-1.73798e-10
5.00005e-06
-2.47385e-10
5.00007e-06
-3.31406e-10
5.0001e-06
-4.0916e-10
5.00014e-06
-4.89857e-10
5.00017e-06
-5.53864e-10
5.00021e-06
-6.41047e-10
5.00026e-06
-7.16394e-10
5.00031e-06
-8.57986e-10
5.00036e-06
-9.81004e-10
5.00042e-06
-1.2221e-09
5.0005e-06
-1.38871e-09
5.00058e-06
-1.78321e-09
5.00067e-06
-1.9224e-09
-2.58062e-09
5e-06
-9.21198e-12
5e-06
-2.72455e-11
5e-06
-4.70358e-11
5.00001e-06
-7.55923e-11
5.00001e-06
-1.18579e-10
5.00002e-06
-1.81246e-10
5.00003e-06
-2.57064e-10
5.00005e-06
-3.4338e-10
5.00006e-06
-4.23539e-10
5.00008e-06
-5.06756e-10
5.0001e-06
-5.73304e-10
5.00013e-06
-6.63202e-10
5.00015e-06
-7.41628e-10
5.00018e-06
-8.86899e-10
5.00022e-06
-1.01442e-09
5.00026e-06
-1.25992e-09
5.0003e-06
-1.43152e-09
5.00035e-06
-1.82963e-09
5.0004e-06
-1.96933e-09
-2.63816e-09
5e-06
-9.42253e-12
5e-06
-2.7839e-11
5e-06
-4.79541e-11
5e-06
-7.68313e-11
5e-06
-1.20092e-10
5.00001e-06
-1.83202e-10
5.00001e-06
-2.59842e-10
5.00001e-06
-3.47316e-10
5.00002e-06
-4.28726e-10
5.00003e-06
-5.13085e-10
5.00004e-06
-5.80562e-10
5.00004e-06
-6.71201e-10
5.00005e-06
-7.5014e-10
5.00006e-06
-8.95925e-10
5.00007e-06
-1.02424e-09
5.00008e-06
-1.27074e-09
5.0001e-06
-1.44441e-09
5.00011e-06
-1.84405e-09
5.00013e-06
-1.98789e-09
-2.65553e-09
5e-06
-9.29343e-12
5e-06
-2.72863e-11
5e-06
-4.70331e-11
5e-06
-7.55356e-11
5e-06
-1.18505e-10
4.99999e-06
-1.81141e-10
4.99999e-06
-2.56959e-10
4.99999e-06
-3.43262e-10
4.99998e-06
-4.23425e-10
4.99997e-06
-5.06656e-10
4.99996e-06
-5.73188e-10
4.99996e-06
-6.63062e-10
4.99995e-06
-7.41489e-10
4.99994e-06
-8.86742e-10
4.99993e-06
-1.01426e-09
4.99992e-06
-1.25977e-09
4.9999e-06
-1.43145e-09
4.99989e-06
-1.82958e-09
4.99987e-06
-1.96932e-09
-2.63804e-09
5e-06
-8.66839e-12
5e-06
-2.5654e-11
5e-06
-4.4933e-11
4.99999e-06
-7.24746e-11
4.99999e-06
-1.13456e-10
4.99998e-06
-1.737e-10
4.99997e-06
-2.47274e-10
4.99995e-06
-3.31295e-10
4.99994e-06
-4.09028e-10
4.99992e-06
-4.89745e-10
4.9999e-06
-5.53761e-10
4.99987e-06
-6.40895e-10
4.99985e-06
-7.16223e-10
4.99982e-06
-8.57793e-10
4.99978e-06
-9.80808e-10
4.99974e-06
-1.2219e-09
4.9997e-06
-1.38859e-09
4.99965e-06
-1.78307e-09
4.9996e-06
-1.92232e-09
-2.58041e-09
5e-06
-7.62035e-12
5e-06
-2.27798e-11
4.99999e-06
-4.12127e-11
4.99999e-06
-6.7933e-11
4.99998e-06
-1.06896e-10
4.99997e-06
-1.63309e-10
4.99995e-06
-2.31642e-10
4.99993e-06
-3.09951e-10
4.9999e-06
-3.82618e-10
4.99986e-06
-4.59202e-10
4.99983e-06
-5.20196e-10
4.99979e-06
-6.03993e-10
4.99974e-06
-6.75684e-10
4.99969e-06
-8.11891e-10
4.99964e-06
-9.28199e-10
4.99958e-06
-1.16139e-09
4.9995e-06
-1.31862e-09
4.99942e-06
-1.70358e-09
4.99933e-06
-1.83093e-09
-2.50057e-09
5e-06
-6.28114e-12
4.99999e-06
-1.92658e-11
4.99999e-06
-3.62177e-11
4.99998e-06
-6.07559e-11
4.99997e-06
-9.63078e-11
4.99995e-06
-1.48689e-10
4.99993e-06
-2.12084e-10
4.9999e-06
-2.84925e-10
4.99987e-06
-3.51348e-10
4.99982e-06
-4.21211e-10
4.99977e-06
-4.75186e-10
4.99972e-06
-5.51909e-10
4.99965e-06
-6.15622e-10
4.99958e-06
-7.43801e-10
4.9995e-06
-8.49576e-10
4.99941e-06
-1.07345e-09
4.99931e-06
-1.21797e-09
4.9992e-06
-1.59602e-09
4.99908e-06
-1.71701e-09
-2.3487e-09
5e-06
-3.97912e-12
4.99999e-06
-1.51535e-11
4.99998e-06
-3.08026e-11
4.99997e-06
-5.30379e-11
4.99996e-06
-8.41786e-11
4.99994e-06
-1.29549e-10
4.99991e-06
-1.84203e-10
4.99986e-06
-2.47486e-10
4.99981e-06
-3.05676e-10
4.99976e-06
-3.68027e-10
4.99969e-06
-4.16748e-10
4.99962e-06
-4.87088e-10
4.99955e-06
-5.44634e-10
4.99946e-06
-6.617e-10
4.99936e-06
-7.5504e-10
4.99925e-06
-9.61574e-10
4.99912e-06
-1.08828e-09
4.99896e-06
-1.44385e-09
4.99879e-06
-1.54766e-09
-2.20895e-09
5e-06
-6.66726e-12
5e-06
-1.46025e-11
4.99999e-06
-2.64812e-11
4.99998e-06
-4.42689e-11
4.99996e-06
-7.02912e-11
4.99994e-06
-1.09206e-10
4.99991e-06
-1.55756e-10
4.99987e-06
-2.09181e-10
4.99981e-06
-2.57018e-10
4.99975e-06
-3.10032e-10
4.99968e-06
-3.48593e-10
4.99959e-06
-4.09095e-10
4.9995e-06
-4.53451e-10
4.99939e-06
-5.57512e-10
4.99926e-06
-6.31341e-10
4.99912e-06
-8.21859e-10
4.99895e-06
-9.23738e-10
4.99877e-06
-1.2662e-09
4.99857e-06
-1.34599e-09
-1.93747e-09
4.99999e-06
2.4445e-12
4.99998e-06
-6.21751e-12
4.99997e-06
-1.74198e-11
4.99995e-06
-3.24672e-11
4.99993e-06
-5.34805e-11
4.9999e-06
-8.3432e-11
4.99986e-06
-1.19088e-10
4.99981e-06
-1.60476e-10
4.99974e-06
-1.97434e-10
4.99967e-06
-2.39397e-10
4.99959e-06
-2.70118e-10
4.99949e-06
-3.18907e-10
4.99939e-06
-3.53698e-10
4.99926e-06
-4.38777e-10
4.99912e-06
-4.95305e-10
4.99895e-06
-6.55006e-10
4.99876e-06
-7.31074e-10
4.99852e-06
-1.03067e-09
4.99827e-06
-1.09385e-09
-1.71994e-09
5.00001e-06
-9.72678e-12
5.00001e-06
-9.17886e-12
5e-06
-1.37234e-11
4.99999e-06
-2.25586e-11
4.99997e-06
-3.74001e-11
4.99994e-06
-5.83578e-11
4.9999e-06
-8.20192e-11
4.99985e-06
-1.12259e-10
4.99978e-06
-1.35849e-10
4.9997e-06
-1.65105e-10
4.99961e-06
-1.83111e-10
4.99951e-06
-2.19766e-10
4.99939e-06
-2.38458e-10
4.99925e-06
-3.04887e-10
4.99908e-06
-3.33052e-10
4.99889e-06
-4.64068e-10
4.99865e-06
-4.97581e-10
4.99838e-06
-7.61227e-10
4.99805e-06
-7.67662e-10
-1.28173e-09
4.99997e-06
1.20988e-11
4.99996e-06
1.19467e-12
4.99995e-06
-5.46044e-12
4.99993e-06
-1.13917e-11
4.99991e-06
-1.85681e-11
4.99988e-06
-3.09576e-11
4.99983e-06
-4.59616e-11
4.99977e-06
-5.70444e-11
4.9997e-06
-6.79418e-11
4.99962e-06
-8.3226e-11
4.99952e-06
-9.26313e-11
4.99941e-06
-1.12741e-10
4.99929e-06
-1.2136e-10
4.99914e-06
-1.58883e-10
4.99897e-06
-1.68621e-10
4.99875e-06
-2.46765e-10
4.9985e-06
-2.50893e-10
4.99817e-06
-4.28411e-10
4.99782e-06
-4.1796e-10
-9.02313e-10
5.00001e-06
5.00001e-06
5e-06
4.99998e-06
4.99996e-06
4.99992e-06
4.99988e-06
4.99982e-06
4.99975e-06
4.99966e-06
4.99956e-06
4.99945e-06
4.99932e-06
4.99916e-06
4.99899e-06
4.99874e-06
4.99848e-06
4.99805e-06
4.99763e-06
)
;

boundaryField
{
    sides
    {
        type            calculated;
        value           uniform 0;
    }
    inlet
    {
        type            calculated;
        value           nonuniform List<scalar> 
20
(
-5e-06
-5e-06
-5e-06
-5e-06
-5e-06
-5e-06
-5e-06
-5e-06
-5e-06
-5e-06
-5e-06
-5e-06
-5e-06
-5e-06
-5e-06
-5e-06
-5e-06
-5e-06
-5e-06
-5e-06
)
;
    }
    outlet
    {
        type            calculated;
        value           nonuniform List<scalar> 
20
(
5.00327e-06
5.00257e-06
5.00239e-06
5.00195e-06
5.0017e-06
5.00135e-06
5.00107e-06
5.00075e-06
5.00045e-06
5.00015e-06
4.99985e-06
4.99955e-06
4.99925e-06
4.99893e-06
4.99865e-06
4.9983e-06
4.99805e-06
4.99761e-06
4.99744e-06
4.99673e-06
)
;
    }
    frontAndBack
    {
        type            empty;
        value           nonuniform 0();
    }
}


// ************************************************************************* //
