/*--------------------------------*- C++ -*----------------------------------*\
  =========                 |
  \\      /  F ield         | OpenFOAM: The Open Source CFD Toolbox
   \\    /   O peration     | Website:  https://openfoam.org
    \\  /    A nd           | Version:  7
     \\/     M anipulation  |
\*---------------------------------------------------------------------------*/
FoamFile
{
    version     2.0;
    format      ascii;
    class       volVectorField;
    location    "34";
    object      U;
}
// * * * * * * * * * * * * * * * * * * * * * * * * * * * * * * * * * * * * * //

dimensions      [0 1 -1 0 0 0 0];

internalField   nonuniform List<vector> 
400
(
(0.0999929 -8.33599e-07 0)
(0.0999929 -2.24843e-06 0)
(0.099993 -3.39684e-06 0)
(0.0999931 -4.42793e-06 0)
(0.0999935 -5.47473e-06 0)
(0.0999943 -6.64605e-06 0)
(0.0999952 -7.84945e-06 0)
(0.0999964 -9.12164e-06 0)
(0.0999977 -1.02689e-05 0)
(0.0999997 -1.14322e-05 0)
(0.100001 -1.23762e-05 0)
(0.100004 -1.35574e-05 0)
(0.100006 -1.44284e-05 0)
(0.100011 -1.60134e-05 0)
(0.100013 -1.68978e-05 0)
(0.10002 -1.93399e-05 0)
(0.100022 -1.99303e-05 0)
(0.100035 -2.42126e-05 0)
(0.100036 -2.40079e-05 0)
(0.10006 -3.33894e-05 0)
(0.0999941 4.1013e-07 0)
(0.0999947 1.26318e-06 0)
(0.0999952 2.06762e-06 0)
(0.0999955 2.83825e-06 0)
(0.0999959 3.6168e-06 0)
(0.0999966 4.30306e-06 0)
(0.0999974 4.92332e-06 0)
(0.0999985 5.38859e-06 0)
(0.0999999 5.85232e-06 0)
(0.100002 6.19422e-06 0)
(0.100004 6.65038e-06 0)
(0.100006 6.82765e-06 0)
(0.100008 7.28812e-06 0)
(0.100012 7.08183e-06 0)
(0.100015 7.53798e-06 0)
(0.10002 6.36615e-06 0)
(0.100024 6.85382e-06 0)
(0.100033 3.27251e-06 0)
(0.100036 3.97037e-06 0)
(0.10005 -5.67235e-06 0)
(0.0999945 -3.01708e-07 0)
(0.0999945 -9.98883e-07 0)
(0.0999945 -1.88007e-06 0)
(0.0999946 -2.89855e-06 0)
(0.099995 -3.99101e-06 0)
(0.0999957 -5.22602e-06 0)
(0.0999964 -6.53964e-06 0)
(0.0999975 -7.94504e-06 0)
(0.0999987 -9.23286e-06 0)
(0.1 -1.06011e-05 0)
(0.100002 -1.171e-05 0)
(0.100005 -1.31777e-05 0)
(0.100007 -1.43103e-05 0)
(0.10001 -1.64454e-05 0)
(0.100013 -1.79058e-05 0)
(0.100018 -2.14754e-05 0)
(0.100021 -2.31951e-05 0)
(0.100029 -2.95243e-05 0)
(0.100032 -3.07577e-05 0)
(0.100046 -4.27178e-05 0)
(0.0999954 8.78865e-08 0)
(0.0999958 3.44555e-07 0)
(0.0999961 6.16283e-07 0)
(0.0999964 8.13368e-07 0)
(0.0999968 8.61069e-07 0)
(0.0999974 6.78832e-07 0)
(0.0999981 3.36946e-07 0)
(0.0999991 -1.5973e-07 0)
(0.1 -5.75005e-07 0)
(0.100002 -1.10667e-06 0)
(0.100004 -1.37347e-06 0)
(0.100006 -2.02543e-06 0)
(0.100008 -2.35807e-06 0)
(0.100011 -3.79114e-06 0)
(0.100013 -4.65167e-06 0)
(0.100017 -7.73374e-06 0)
(0.10002 -9.10197e-06 0)
(0.100027 -1.51731e-05 0)
(0.100029 -1.62551e-05 0)
(0.100039 -2.82689e-05 0)
(0.0999961 -1.94996e-07 0)
(0.0999962 -6.26065e-07 0)
(0.0999962 -1.17667e-06 0)
(0.0999964 -1.86225e-06 0)
(0.0999967 -2.69577e-06 0)
(0.0999972 -3.77995e-06 0)
(0.0999978 -5.055e-06 0)
(0.0999986 -6.52856e-06 0)
(0.0999997 -7.93531e-06 0)
(0.100001 -9.46693e-06 0)
(0.100002 -1.07395e-05 0)
(0.100004 -1.2433e-05 0)
(0.100006 -1.38114e-05 0)
(0.100009 -1.63188e-05 0)
(0.100011 -1.82603e-05 0)
(0.100015 -2.24794e-05 0)
(0.100017 -2.49919e-05 0)
(0.100023 -3.22701e-05 0)
(0.100024 -3.43001e-05 0)
(0.100033 -4.72029e-05 0)
(0.0999968 -7.49048e-08 0)
(0.099997 -2.20809e-07 0)
(0.0999972 -4.19421e-07 0)
(0.0999973 -7.4236e-07 0)
(0.0999976 -1.26367e-06 0)
(0.099998 -2.10437e-06 0)
(0.0999986 -3.15599e-06 0)
(0.0999994 -4.38827e-06 0)
(0.1 -5.48977e-06 0)
(0.100002 -6.64504e-06 0)
(0.100003 -7.4677e-06 0)
(0.100005 -8.70334e-06 0)
(0.100006 -9.67177e-06 0)
(0.100008 -1.18842e-05 0)
(0.10001 -1.36802e-05 0)
(0.100013 -1.78018e-05 0)
(0.100015 -2.03724e-05 0)
(0.100019 -2.75807e-05 0)
(0.100021 -2.96937e-05 0)
(0.100027 -4.25e-05 0)
(0.0999975 -1.46626e-07 0)
(0.0999976 -4.41429e-07 0)
(0.0999977 -8.05563e-07 0)
(0.0999979 -1.31762e-06 0)
(0.0999981 -2.04823e-06 0)
(0.0999985 -3.12612e-06 0)
(0.0999989 -4.46914e-06 0)
(0.0999994 -6.07289e-06 0)
(0.1 -7.62844e-06 0)
(0.100001 -9.31183e-06 0)
(0.100002 -1.06999e-05 0)
(0.100003 -1.25168e-05 0)
(0.100004 -1.40412e-05 0)
(0.100006 -1.6786e-05 0)
(0.100008 -1.9076e-05 0)
(0.10001 -2.36934e-05 0)
(0.100011 -2.67217e-05 0)
(0.100015 -3.44555e-05 0)
(0.100016 -3.69271e-05 0)
(0.100021 -5.0264e-05 0)
(0.0999982 -1.64019e-07 0)
(0.0999983 -4.86576e-07 0)
(0.0999984 -8.51782e-07 0)
(0.0999985 -1.36494e-06 0)
(0.0999986 -2.13524e-06 0)
(0.0999989 -3.2908e-06 0)
(0.0999992 -4.7173e-06 0)
(0.0999996 -6.36099e-06 0)
(0.1 -7.88161e-06 0)
(0.100001 -9.45469e-06 0)
(0.100002 -1.06761e-05 0)
(0.100003 -1.23224e-05 0)
(0.100003 -1.3718e-05 0)
(0.100005 -1.64029e-05 0)
(0.100006 -1.87376e-05 0)
(0.100007 -2.34156e-05 0)
(0.100008 -2.66192e-05 0)
(0.100011 -3.43948e-05 0)
(0.100011 -3.70145e-05 0)
(0.100015 -5.02384e-05 0)
(0.0999989 -1.76971e-07 0)
(0.099999 -5.26046e-07 0)
(0.099999 -9.08464e-07 0)
(0.0999991 -1.44674e-06 0)
(0.0999992 -2.24565e-06 0)
(0.0999993 -3.42205e-06 0)
(0.0999996 -4.8771e-06 0)
(0.0999998 -6.58881e-06 0)
(0.1 -8.23117e-06 0)
(0.100001 -9.97432e-06 0)
(0.100001 -1.13883e-05 0)
(0.100002 -1.32351e-05 0)
(0.100002 -1.48105e-05 0)
(0.100003 -1.7659e-05 0)
(0.100003 -2.01337e-05 0)
(0.100004 -2.49586e-05 0)
(0.100005 -2.829e-05 0)
(0.100006 -3.62525e-05 0)
(0.100007 -3.89718e-05 0)
(0.100009 -5.24762e-05 0)
(0.0999996 -1.8324e-07 0)
(0.0999997 -5.48427e-07 0)
(0.0999997 -9.36817e-07 0)
(0.0999997 -1.47464e-06 0)
(0.0999997 -2.28592e-06 0)
(0.0999998 -3.50444e-06 0)
(0.0999998 -5.02395e-06 0)
(0.0999999 -6.79661e-06 0)
(0.1 -8.47643e-06 0)
(0.1 -1.02274e-05 0)
(0.1 -1.163e-05 0)
(0.100001 -1.34638e-05 0)
(0.100001 -1.50415e-05 0)
(0.100001 -1.79151e-05 0)
(0.100001 -2.04489e-05 0)
(0.100001 -2.53309e-05 0)
(0.100002 -2.87521e-05 0)
(0.100002 -3.67442e-05 0)
(0.100002 -3.95333e-05 0)
(0.100003 -5.29841e-05 0)
(0.1 -1.83633e-07 0)
(0.1 -5.48631e-07 0)
(0.1 -9.36476e-07 0)
(0.1 -1.47396e-06 0)
(0.1 -2.28523e-06 0)
(0.1 -3.50377e-06 0)
(0.1 -5.02331e-06 0)
(0.1 -6.79609e-06 0)
(0.1 -8.47582e-06 0)
(0.0999998 -1.02269e-05 0)
(0.0999997 -1.16297e-05 0)
(0.0999995 -1.34632e-05 0)
(0.0999993 -1.50407e-05 0)
(0.099999 -1.79141e-05 0)
(0.0999988 -2.04476e-05 0)
(0.0999985 -2.53293e-05 0)
(0.0999984 -2.87507e-05 0)
(0.0999979 -3.67432e-05 0)
(0.0999978 -3.95331e-05 0)
(0.0999971 -5.29839e-05 0)
(0.100001 -1.77619e-07 0)
(0.100001 -5.26609e-07 0)
(0.100001 -9.07832e-07 0)
(0.100001 -1.44554e-06 0)
(0.100001 -2.24426e-06 0)
(0.100001 -3.42089e-06 0)
(0.1 -4.87587e-06 0)
(0.1 -6.58792e-06 0)
(0.0999999 -8.23005e-06 0)
(0.0999994 -9.97315e-06 0)
(0.099999 -1.13874e-05 0)
(0.0999985 -1.32334e-05 0)
(0.0999979 -1.48081e-05 0)
(0.0999972 -1.76559e-05 0)
(0.0999966 -2.01302e-05 0)
(0.0999956 -2.4954e-05 0)
(0.099995 -2.82858e-05 0)
(0.0999936 -3.62476e-05 0)
(0.0999931 -3.89688e-05 0)
(0.0999911 -5.24704e-05 0)
(0.100002 -1.64191e-07 0)
(0.100002 -4.87047e-07 0)
(0.100002 -8.51454e-07 0)
(0.100002 -1.3645e-06 0)
(0.100001 -2.13442e-06 0)
(0.100001 -3.29041e-06 0)
(0.100001 -4.7166e-06 0)
(0.1 -6.36069e-06 0)
(0.0999998 -7.88167e-06 0)
(0.0999991 -9.45426e-06 0)
(0.0999983 -1.06762e-05 0)
(0.0999974 -1.23225e-05 0)
(0.0999965 -1.37176e-05 0)
(0.0999954 -1.6402e-05 0)
(0.0999944 -1.87366e-05 0)
(0.0999928 -2.34141e-05 0)
(0.0999917 -2.6618e-05 0)
(0.0999895 -3.43928e-05 0)
(0.0999886 -3.70147e-05 0)
(0.0999852 -5.02371e-05 0)
(0.100002 -1.46172e-07 0)
(0.100002 -4.40998e-07 0)
(0.100002 -8.05316e-07 0)
(0.100002 -1.31786e-06 0)
(0.100002 -2.04862e-06 0)
(0.100002 -3.12655e-06 0)
(0.100001 -4.46923e-06 0)
(0.100001 -6.07246e-06 0)
(0.0999999 -7.62909e-06 0)
(0.099999 -9.31181e-06 0)
(0.099998 -1.06996e-05 0)
(0.0999968 -1.25162e-05 0)
(0.0999955 -1.40407e-05 0)
(0.0999938 -1.67843e-05 0)
(0.0999924 -1.90742e-05 0)
(0.0999901 -2.36893e-05 0)
(0.0999886 -2.67173e-05 0)
(0.0999852 -3.44462e-05 0)
(0.0999843 -3.69192e-05 0)
(0.0999792 -5.02493e-05 0)
(0.100003 -7.36259e-08 0)
(0.100003 -2.19528e-07 0)
(0.100003 -4.19431e-07 0)
(0.100003 -7.43401e-07 0)
(0.100002 -1.26553e-06 0)
(0.100002 -2.10556e-06 0)
(0.100001 -3.158e-06 0)
(0.100001 -4.389e-06 0)
(0.0999996 -5.49187e-06 0)
(0.0999984 -6.64797e-06 0)
(0.0999971 -7.47014e-06 0)
(0.0999955 -8.7055e-06 0)
(0.099994 -9.6745e-06 0)
(0.099992 -1.18871e-05 0)
(0.0999902 -1.36838e-05 0)
(0.0999874 -1.78048e-05 0)
(0.0999854 -2.03756e-05 0)
(0.0999812 -2.75809e-05 0)
(0.0999795 -2.96951e-05 0)
(0.0999732 -4.24981e-05 0)
(0.100004 -1.95135e-07 0)
(0.100004 -6.25282e-07 0)
(0.100004 -1.17704e-06 0)
(0.100004 -1.86242e-06 0)
(0.100003 -2.69613e-06 0)
(0.100003 -3.77923e-06 0)
(0.100002 -5.05584e-06 0)
(0.100001 -6.52791e-06 0)
(0.1 -7.93388e-06 0)
(0.099999 -9.46699e-06 0)
(0.0999975 -1.07403e-05 0)
(0.0999957 -1.24329e-05 0)
(0.0999939 -1.38121e-05 0)
(0.0999913 -1.63187e-05 0)
(0.0999891 -1.82615e-05 0)
(0.0999854 -2.24781e-05 0)
(0.0999831 -2.49916e-05 0)
(0.0999775 -3.22629e-05 0)
(0.0999759 -3.42942e-05 0)
(0.0999671 -4.71861e-05 0)
(0.100005 8.65889e-08 0)
(0.100004 3.44551e-07 0)
(0.100004 6.14839e-07 0)
(0.100004 8.12946e-07 0)
(0.100003 8.61468e-07 0)
(0.100003 6.77833e-07 0)
(0.100002 3.38061e-07 0)
(0.100001 -1.61628e-07 0)
(0.0999996 -5.7451e-07 0)
(0.099998 -1.10633e-06 0)
(0.0999963 -1.37411e-06 0)
(0.0999942 -2.02555e-06 0)
(0.0999921 -2.35843e-06 0)
(0.0999893 -3.79151e-06 0)
(0.0999868 -4.65311e-06 0)
(0.0999827 -7.73458e-06 0)
(0.0999798 -9.10404e-06 0)
(0.0999734 -1.51715e-05 0)
(0.0999708 -1.62548e-05 0)
(0.0999612 -2.82632e-05 0)
(0.100005 -3.01726e-07 0)
(0.100005 -9.99142e-07 0)
(0.100005 -1.8797e-06 0)
(0.100005 -2.89841e-06 0)
(0.100005 -3.98991e-06 0)
(0.100004 -5.22799e-06 0)
(0.100004 -6.53012e-06 0)
(0.100003 -7.94496e-06 0)
(0.100001 -9.23469e-06 0)
(0.0999995 -1.06015e-05 0)
(0.0999977 -1.17115e-05 0)
(0.0999953 -1.31788e-05 0)
(0.0999932 -1.4312e-05 0)
(0.0999898 -1.64455e-05 0)
(0.0999872 -1.79075e-05 0)
(0.099982 -2.14751e-05 0)
(0.0999791 -2.31984e-05 0)
(0.0999706 -2.95226e-05 0)
(0.0999685 -3.07597e-05 0)
(0.0999542 -4.27101e-05 0)
(0.100006 4.11336e-07 0)
(0.100005 1.26147e-06 0)
(0.100005 2.0696e-06 0)
(0.100004 2.83964e-06 0)
(0.100004 3.61526e-06 0)
(0.100003 4.30565e-06 0)
(0.100003 4.91356e-06 0)
(0.100002 5.38977e-06 0)
(0.1 5.85217e-06 0)
(0.0999982 6.19591e-06 0)
(0.0999963 6.65283e-06 0)
(0.0999938 6.83145e-06 0)
(0.0999915 7.29217e-06 0)
(0.099988 7.0875e-06 0)
(0.0999852 7.54253e-06 0)
(0.0999797 6.37195e-06 0)
(0.0999764 6.85653e-06 0)
(0.0999674 3.27924e-06 0)
(0.0999643 3.97452e-06 0)
(0.0999498 -5.65981e-06 0)
(0.100007 -8.32699e-07 0)
(0.100007 -2.25024e-06 0)
(0.100007 -3.39724e-06 0)
(0.100007 -4.42897e-06 0)
(0.100006 -5.4796e-06 0)
(0.100006 -6.6459e-06 0)
(0.100005 -7.87084e-06 0)
(0.100004 -9.12679e-06 0)
(0.100002 -1.02736e-05 0)
(0.1 -1.1437e-05 0)
(0.0999985 -1.23809e-05 0)
(0.0999957 -1.35616e-05 0)
(0.0999937 -1.44329e-05 0)
(0.0999894 -1.6018e-05 0)
(0.0999871 -1.69035e-05 0)
(0.0999801 -1.93463e-05 0)
(0.0999779 -1.99383e-05 0)
(0.0999653 -2.42214e-05 0)
(0.0999639 -2.40175e-05 0)
(0.09994 -3.34032e-05 0)
)
;

boundaryField
{
    sides
    {
        type            calculated;
        value           nonuniform List<vector> 
40
(
(0.100007 0 0)
(0.100007 0 0)
(0.100007 0 0)
(0.100007 0 0)
(0.100006 0 0)
(0.100006 0 0)
(0.100005 0 0)
(0.100004 0 0)
(0.100002 0 0)
(0.1 0 0)
(0.0999985 0 0)
(0.0999957 0 0)
(0.0999937 0 0)
(0.0999894 0 0)
(0.0999871 0 0)
(0.0999801 0 0)
(0.0999779 0 0)
(0.0999653 0 0)
(0.0999639 0 0)
(0.09994 0 0)
(0.0999929 0 0)
(0.0999929 0 0)
(0.099993 0 0)
(0.0999931 0 0)
(0.0999935 0 0)
(0.0999943 0 0)
(0.0999952 0 0)
(0.0999964 0 0)
(0.0999977 0 0)
(0.0999997 0 0)
(0.100001 0 0)
(0.100004 0 0)
(0.100006 0 0)
(0.100011 0 0)
(0.100013 0 0)
(0.10002 0 0)
(0.100022 0 0)
(0.100035 0 0)
(0.100036 0 0)
(0.10006 0 0)
)
;
    }
    inlet
    {
        type            calculated;
        value           nonuniform List<vector> 
20
(
(0.0999929 0 0)
(0.0999941 0 0)
(0.0999946 0 0)
(0.0999954 0 0)
(0.0999961 0 0)
(0.0999968 0 0)
(0.0999975 0 0)
(0.0999982 0 0)
(0.0999989 0 0)
(0.0999996 0 0)
(0.1 0 0)
(0.100001 0 0)
(0.100002 0 0)
(0.100002 0 0)
(0.100003 0 0)
(0.100004 0 0)
(0.100005 0 0)
(0.100005 0 0)
(0.100006 0 0)
(0.100007 0 0)
)
;
    }
    outlet
    {
        type            calculated;
        value           nonuniform List<vector> 
20
(
(0.100061 -3.33896e-05 0)
(0.100051 -5.67237e-06 0)
(0.100046 -4.2718e-05 0)
(0.100039 -2.8269e-05 0)
(0.100033 -4.7203e-05 0)
(0.100027 -4.25001e-05 0)
(0.100021 -5.0264e-05 0)
(0.100015 -5.02385e-05 0)
(0.100009 -5.24762e-05 0)
(0.100003 -5.29841e-05 0)
(0.099997 -5.29839e-05 0)
(0.099991 -5.24704e-05 0)
(0.0999851 -5.0237e-05 0)
(0.0999791 -5.02493e-05 0)
(0.099973 -4.2498e-05 0)
(0.0999668 -4.7186e-05 0)
(0.099961 -2.82632e-05 0)
(0.0999537 -4.27099e-05 0)
(0.0999493 -5.65979e-06 0)
(0.0999391 -3.34029e-05 0)
)
;
    }
    frontAndBack
    {
        type            empty;
    }
}


// ************************************************************************* //
