/*--------------------------------*- C++ -*----------------------------------*\
  =========                 |
  \\      /  F ield         | OpenFOAM: The Open Source CFD Toolbox
   \\    /   O peration     | Website:  https://openfoam.org
    \\  /    A nd           | Version:  7
     \\/     M anipulation  |
\*---------------------------------------------------------------------------*/
FoamFile
{
    version     2.0;
    format      ascii;
    class       surfaceScalarField;
    location    "66";
    object      ddtCorrDdt0(phi);
}
// * * * * * * * * * * * * * * * * * * * * * * * * * * * * * * * * * * * * * //

dimensions      [0 4 -2 0 0 0 0];

internalField   nonuniform List<scalar> 
760
(
4.69793e-13
-6.5021e-13
-7.08814e-13
-6.63579e-13
-1.31347e-12
3.9831e-13
1.95901e-12
7.10334e-13
-3.65807e-12
-5.53245e-13
-1.09098e-12
-9.45569e-11
-7.03761e-12
2.32546e-10
-2.70005e-12
1.82546e-10
2.75535e-12
1.03283e-11
-6.34898e-13
5.6638e-13
-1.78692e-13
6.21267e-13
-3.02444e-13
5.01945e-13
-1.64875e-12
-1.16471e-13
-2.08125e-12
-5.27726e-13
-1.23657e-12
-4.04955e-13
-1.79823e-13
-3.06042e-13
2.56676e-13
-2.07637e-13
4.04915e-13
-2.88963e-13
3.79734e-13
-2.55718e-13
2.69601e-13
-8.19504e-13
-1.22294e-12
1.87468e-13
-8.56105e-13
-1.65927e-13
-9.10538e-13
8.07938e-13
3.4658e-14
-1.30829e-12
-1.67699e-12
1.21268e-11
7.65574e-12
-3.57082e-12
-1.56092e-11
3.48923e-12
3.19793e-12
1.92851e-13
2.22332e-12
-1.01961e-12
1.80427e-13
-6.78858e-13
8.71075e-13
-1.15139e-12
7.22881e-13
-1.70975e-12
-1.97225e-13
-1.5676e-12
-7.81722e-13
-9.47871e-13
-6.93025e-13
-3.74488e-13
-7.77571e-13
-1.99268e-13
-6.92984e-13
5.13571e-15
-6.70593e-13
2.82713e-13
-5.02658e-13
4.69152e-13
4.80958e-13
4.3811e-13
6.29573e-13
-6.62085e-13
8.79233e-14
-1.89439e-12
-2.42966e-12
-1.60088e-12
2.92796e-12
-2.66041e-12
-7.76927e-12
4.74301e-13
7.19475e-12
7.43008e-13
4.5834e-12
3.41146e-12
-2.55115e-12
-5.14783e-13
-3.14229e-13
5.08461e-13
-7.21142e-13
1.06516e-12
-2.06149e-12
3.1213e-13
-1.8128e-12
-4.08085e-13
-8.76116e-13
-8.17156e-13
-3.65045e-13
-9.15512e-13
-2.13462e-13
-1.50586e-12
-2.80925e-13
-1.49466e-12
1.24791e-14
-1.34902e-12
4.69363e-13
-7.3691e-13
9.75281e-13
-2.86734e-13
5.12003e-13
-6.57682e-13
-7.31503e-13
2.67416e-13
-1.97952e-12
-1.91353e-12
-2.71809e-12
3.32747e-12
-2.25742e-12
-3.00857e-12
-3.71614e-12
6.07254e-12
1.87138e-12
-5.82367e-13
-1.61522e-13
-1.74135e-12
-1.37612e-12
4.56694e-13
1.17879e-12
-9.82526e-13
1.28175e-12
-2.11136e-12
5.64063e-14
-1.42729e-12
-3.33377e-13
-5.45259e-13
-8.07688e-13
-4.62436e-13
-1.40592e-12
-6.3026e-13
-2.43584e-12
-6.03925e-13
-2.37775e-12
-2.99783e-13
-1.99285e-12
2.27617e-13
-1.05144e-12
1.16953e-12
-6.94797e-13
-4.18964e-13
-1.09225e-12
-1.10008e-12
1.33331e-13
-1.41273e-12
-4.72584e-13
-2.92019e-12
9.38012e-13
-1.47828e-12
2.04219e-14
-4.02298e-12
1.96917e-12
-1.33015e-12
-3.33259e-12
-3.09429e-12
8.56872e-14
-3.86572e-13
5.18057e-13
1.81139e-12
-1.5706e-12
5.99433e-13
-1.20851e-12
8.35638e-14
-2.9879e-13
8.78536e-14
-1.40158e-13
-8.43242e-13
-5.59138e-13
-2.00179e-12
-7.7264e-13
-3.29368e-12
-5.26385e-13
-2.99516e-12
-7.27024e-14
-2.41744e-12
3.08038e-13
-1.34925e-12
1.36994e-12
-6.07564e-13
-7.85279e-13
-6.17896e-13
-1.27448e-12
-6.08139e-13
-1.31415e-12
1.1003e-12
-2.45516e-12
-6.17447e-13
-2.92433e-12
2.15554e-12
-2.49038e-12
-2.89248e-13
-2.32135e-12
-8.2237e-13
-1.82561e-12
1.94446e-12
1.40321e-12
-9.00745e-13
8.77909e-13
-1.88688e-12
5.10273e-13
-6.05322e-13
1.02048e-12
-5.1944e-13
2.85102e-13
-1.11811e-12
-1.40503e-12
-1.23141e-12
-2.64401e-12
-6.54768e-13
-3.95021e-12
1.46585e-13
-3.43131e-12
8.05491e-13
-2.70586e-12
1.0705e-12
-1.49161e-12
1.6013e-12
-2.01465e-13
-6.35545e-13
2.54453e-13
-1.11277e-12
-5.49015e-13
-2.13317e-12
9.49966e-13
-1.92833e-12
-6.43031e-13
-3.57573e-12
9.72725e-13
-2.51154e-12
-1.32597e-12
-2.7791e-12
9.5317e-13
-7.42125e-13
3.45054e-13
5.72077e-13
-1.05203e-12
4.00414e-13
1.11718e-13
1.48231e-12
5.80979e-13
1.49568e-12
-3.4197e-13
-3.25917e-13
-1.3285e-12
-2.08396e-12
-1.43861e-12
-2.63337e-12
-6.89608e-13
-3.58386e-12
3.75146e-14
-3.19606e-12
2.91154e-13
-2.67838e-12
4.97115e-13
-1.5153e-12
1.75022e-12
1.99924e-13
-2.4365e-13
1.05281e-13
-8.38288e-13
2.95565e-13
-2.36444e-12
-2.01253e-13
-3.11696e-12
2.59541e-13
-3.6948e-12
-8.29769e-14
-3.35709e-12
-3.03963e-13
-2.61529e-12
1.10811e-12
-5.32385e-13
-6.31291e-13
2.03323e-13
1.89015e-13
1.36675e-12
7.01974e-13
1.71019e-12
-6.50974e-13
4.517e-13
-1.11432e-12
-1.07006e-12
-1.17844e-12
-2.37548e-12
-1.22051e-12
-2.67349e-12
-4.28084e-13
-3.37485e-12
4.64357e-13
-2.99701e-12
7.10646e-13
-2.76771e-12
5.81657e-13
-1.5645e-12
1.95626e-12
3.88869e-13
1.87482e-13
-2.48469e-13
-1.24567e-12
4.09105e-13
-2.10219e-12
-3.74196e-13
-3.78491e-12
2.90588e-13
-3.83547e-12
-4.03107e-13
-3.95237e-12
1.86083e-13
-2.59485e-12
2.73303e-13
-8.64348e-13
-3.87464e-13
1.02835e-14
4.76824e-13
1.54692e-12
2.73906e-14
9.46129e-13
-8.63695e-13
-2.98166e-13
-3.58818e-13
-8.43168e-13
4.87041e-14
-2.23879e-12
-3.08115e-13
-3.15187e-12
-4.02152e-13
-3.76974e-12
-8.43119e-14
-2.96295e-12
3.72404e-14
-2.65667e-12
-2.56166e-13
-1.66517e-12
1.91278e-12
-2.76144e-13
-2.33814e-13
3.5382e-14
-1.14821e-12
-2.05021e-13
-2.04746e-12
6.01199e-14
-3.27988e-12
-2.20454e-13
-3.75503e-12
-1.34359e-13
-3.68971e-12
3.1628e-13
-2.64932e-12
-2.6546e-13
-1.11301e-12
2.97692e-13
1.13564e-13
-2.99579e-13
1.22745e-12
-5.07448e-13
1.13515e-12
1.49718e-13
3.46967e-13
9.82784e-14
-6.82129e-13
9.15602e-14
-2.35497e-12
3.62626e-13
-3.35558e-12
1.17164e-13
-4.33294e-12
-2.86314e-13
-3.648e-12
-2.8236e-13
-3.12613e-12
-4.41901e-13
-1.87883e-12
1.90541e-12
-3.96608e-13
-8.06448e-13
2.13505e-13
-8.34285e-13
-3.55047e-13
-2.16994e-12
1.90941e-13
-2.58595e-12
-3.38356e-13
-3.65756e-12
-3.14824e-14
-3.10695e-12
3.76016e-13
-2.54319e-12
-4.76066e-13
-1.14375e-12
4.03805e-13
4.93872e-13
-5.94115e-13
8.90573e-13
-6.45414e-13
1.62875e-12
5.06372e-13
1.312e-12
3.04459e-13
-5.99646e-13
3.37327e-13
-2.38285e-12
9.95797e-13
-3.12294e-12
6.6711e-13
-4.53012e-12
-1.716e-13
-4.22037e-12
-5.29783e-13
-3.4468e-12
-7.64303e-13
-1.96037e-12
1.84046e-12
4.17789e-13
-3.68703e-13
-4.33541e-14
-1.24607e-12
2.74339e-13
-2.10469e-12
-2.78571e-13
-2.72797e-12
6.95889e-14
-3.5802e-12
-4.69248e-13
-3.11091e-12
3.54815e-13
-2.29827e-12
-1.72351e-13
-1.39728e-12
-2.30663e-15
6.26794e-13
4.33753e-13
8.38204e-13
-7.36788e-14
1.14711e-12
-3.31491e-13
1.3716e-12
7.18837e-15
1.72764e-13
4.66825e-13
-1.63874e-12
5.773e-13
-2.89612e-12
3.40145e-13
-4.55794e-12
2.35299e-13
-4.15446e-12
2.48597e-13
-3.33686e-12
-4.52451e-14
-1.96134e-12
1.74331e-12
4.26816e-13
1.41149e-13
5.81532e-14
-1.25672e-12
7.34974e-13
-1.91927e-12
-4.11712e-13
-3.75804e-12
4.40142e-13
-3.17649e-12
-7.08303e-13
-3.52697e-12
-2.82536e-13
-1.67842e-12
3.88492e-13
-1.41401e-12
-8.44111e-13
3.50572e-13
9.1442e-13
1.55314e-12
1.33527e-12
6.26524e-13
-7.40843e-15
7.70904e-14
-1.01342e-13
-1.85765e-14
2.06544e-13
-1.0389e-12
1.30635e-13
-2.20003e-12
2.56645e-13
-3.65731e-12
5.15125e-13
-3.35402e-12
3.07716e-13
-2.88301e-12
-1.002e-14
-1.83344e-12
1.58096e-12
-1.48429e-13
2.85891e-13
3.74279e-13
-9.38022e-13
-1.08905e-13
-2.34023e-12
5.73584e-13
-3.31715e-12
-1.46973e-13
-2.71803e-12
3.25184e-13
-3.79695e-12
-1.21991e-12
-1.41819e-12
1.18187e-12
-7.87827e-13
-5.0134e-13
-7.20883e-13
-3.96427e-13
1.79467e-12
1.30217e-12
1.50809e-12
1.10967e-12
-1.8155e-13
2.63814e-13
-8.92923e-13
-3.43125e-13
-1.49744e-12
-3.397e-13
-1.86166e-12
2.87164e-13
-2.7973e-12
8.10558e-13
-2.66145e-12
7.60123e-13
-2.52496e-12
5.87893e-13
-1.4613e-12
1.64255e-12
-4.47638e-13
-2.59741e-13
1.46288e-13
-9.80729e-13
-4.07468e-13
-2.05081e-12
1.45137e-12
-1.61893e-12
-1.62304e-12
-3.29201e-12
1.28931e-12
-1.80708e-12
-2.67301e-12
-1.9311e-12
-3.12198e-13
1.89217e-12
1.37303e-12
-6.04957e-13
-5.25742e-13
1.36229e-13
5.80749e-13
1.4335e-12
2.26522e-12
4.01724e-13
2.00095e-12
-1.03928e-12
8.05125e-13
-1.84565e-12
3.59448e-14
-1.71673e-12
-2.26158e-13
-2.13713e-12
-1.78622e-13
-1.9756e-12
-2.14033e-13
-1.94462e-12
-1.8486e-13
-1.214e-12
1.36924e-12
-5.81682e-13
-9.58884e-13
-5.13581e-13
-1.10153e-12
6.61245e-14
-1.19065e-12
6.13293e-13
-8.0377e-13
-6.6773e-13
-2.95984e-12
1.2119e-12
3.70916e-13
3.88281e-14
-3.88869e-12
-3.63618e-12
1.89439e-13
1.58452e-12
2.69473e-12
7.34387e-13
3.30882e-13
-3.49297e-13
9.08476e-13
1.11859e-12
9.25758e-13
1.98792e-12
-4.924e-13
1.52463e-12
-1.8025e-12
5.6776e-13
-1.98946e-12
-1.78508e-13
-2.22783e-12
-2.91821e-13
-1.79038e-12
-1.92777e-13
-1.5804e-12
-1.41825e-13
-1.0183e-12
1.06838e-12
5.09963e-13
-1.14212e-12
4.51299e-14
-8.37197e-13
9.78341e-13
-5.14351e-13
-1.72193e-12
-1.27379e-12
2.04319e-12
-1.09347e-12
-3.32064e-12
-2.80908e-12
4.05306e-12
-5.62483e-12
-2.90223e-12
-2.77111e-13
-1.85132e-12
1.01176e-12
1.15829e-12
1.45333e-12
2.68522e-13
8.09173e-13
6.35175e-13
8.14545e-13
1.9885e-12
8.95442e-14
2.4009e-12
-1.14093e-12
1.54e-12
-1.78073e-12
3.02572e-13
-2.11537e-12
-4.12064e-13
-1.55896e-12
-6.72596e-13
-1.24945e-12
-6.43573e-13
-7.15089e-13
9.60716e-13
7.23696e-13
9.49047e-13
9.34002e-13
-2.0453e-13
1.423e-12
-5.0312e-13
-3.22095e-12
-2.36992e-12
3.90996e-12
-3.93514e-13
-8.3876e-12
-5.46946e-12
9.41465e-12
-1.59104e-12
-1.01552e-12
-8.44838e-12
-2.34812e-12
1.11149e-12
3.3027e-13
1.29066e-12
4.46688e-13
6.6069e-13
4.21207e-13
6.89965e-13
1.49969e-12
6.54496e-13
2.18017e-12
-1.54789e-13
1.77523e-12
-1.06272e-12
6.05026e-13
-1.60539e-12
-4.14715e-13
-1.2537e-12
-1.00203e-12
-8.72658e-13
-9.58601e-13
-4.27263e-13
5.85419e-13
-1.41192e-13
5.12522e-13
7.8667e-13
2.63043e-13
8.00062e-13
-1.11332e-12
7.26003e-13
-2.37465e-12
8.18773e-14
-1.08361e-13
-1.10752e-11
-2.9254e-10
2.66343e-11
4.68604e-10
9.86336e-12
-1.09075e-10
-2.22511e-12
-8.62087e-13
-5.36849e-13
3.43811e-14
1.23278e-12
4.24728e-13
1.26589e-12
6.43846e-13
1.1301e-12
7.67167e-13
1.20893e-12
3.01811e-13
1.34172e-12
-4.41751e-13
9.93762e-13
-9.70109e-13
2.62555e-13
-8.07757e-13
-2.94034e-13
-5.16811e-13
-4.83746e-13
-1.47543e-13
4.21319e-13
9.86447e-13
1.16883e-13
-1.74973e-12
2.60134e-12
-5.05329e-12
1.83925e-11
-3.98931e-11
-5.60924e-12
4.11628e-12
1.07719e-12
1.60125e-12
1.25414e-12
6.37579e-14
-8.2687e-14
7.89571e-13
1.18502e-12
7.23487e-13
-2.32966e-14
-4.75837e-13
)
;

boundaryField
{
    sides
    {
        type            calculated;
        value           uniform 0;
    }
    inlet
    {
        type            calculated;
        value           uniform 0;
    }
    outlet
    {
        type            calculated;
        value           nonuniform List<scalar> 
20
(
-5.6685e-14
9.32957e-14
1.78284e-13
2.84595e-13
1.54279e-13
8.32243e-13
5.10339e-13
3.44559e-13
-5.61834e-13
-7.24854e-13
-9.17014e-13
-2.4929e-13
7.61652e-14
7.45022e-13
1.68477e-13
1.74463e-13
-3.1774e-13
-2.92202e-13
-2.3285e-13
-2.11265e-13
)
;
    }
    frontAndBack
    {
        type            empty;
        value           nonuniform 0();
    }
}


// ************************************************************************* //
