/*--------------------------------*- C++ -*----------------------------------*\
  =========                 |
  \\      /  F ield         | OpenFOAM: The Open Source CFD Toolbox
   \\    /   O peration     | Website:  https://openfoam.org
    \\  /    A nd           | Version:  7
     \\/     M anipulation  |
\*---------------------------------------------------------------------------*/
FoamFile
{
    version     2.0;
    format      ascii;
    class       volVectorField;
    location    "66";
    object      ddtCorrDdt0(hU);
}
// * * * * * * * * * * * * * * * * * * * * * * * * * * * * * * * * * * * * * //

dimensions      [0 2 -2 0 0 0 0];

internalField   nonuniform List<vector> 
400
(
(-1.12795e-10 -4.15681e-11 0)
(-1.97041e-11 -1.86382e-10 0)
(-1.01981e-10 -9.86643e-11 0)
(-4.53273e-13 2.75831e-11 0)
(3.99201e-10 -1.08345e-10 0)
(-1.31298e-09 -7.30083e-10 0)
(-9.16713e-10 -1.05643e-09 0)
(-4.42482e-10 -8.2891e-10 0)
(-1.36661e-10 5.86759e-10 0)
(2.78078e-10 2.25698e-10 0)
(-1.39386e-10 1.73583e-10 0)
(-2.25239e-11 9.08626e-11 0)
(-1.95109e-10 -4.85433e-11 0)
(-4.05121e-10 -1.21484e-10 0)
(-3.58102e-10 -1.18028e-10 0)
(-1.48219e-10 -1.40375e-10 0)
(4.56522e-11 -1.0997e-10 0)
(4.97454e-11 -1.0585e-10 0)
(1.28013e-10 -2.39662e-11 0)
(1.91829e-12 1.21734e-10 0)
(-2.33045e-11 -1.21536e-10 0)
(-7.18711e-11 -9.10023e-11 0)
(-7.01836e-11 1.00547e-10 0)
(6.77134e-11 3.16542e-10 0)
(-4.82853e-10 -1.20615e-10 0)
(1.76273e-09 1.65516e-11 0)
(1.31208e-09 -1.5098e-09 0)
(-1.10503e-09 -3.66458e-10 0)
(9.33001e-10 5.72449e-10 0)
(-1.83399e-10 5.60304e-12 0)
(-1.84289e-10 1.14814e-10 0)
(-1.7088e-10 9.39988e-11 0)
(-3.03006e-10 -6.03501e-11 0)
(-3.43574e-10 -9.84002e-11 0)
(-2.60826e-10 -2.21853e-11 0)
(-1.40539e-10 5.76494e-12 0)
(-2.70935e-11 -1.78352e-11 0)
(-3.49474e-11 -6.26832e-11 0)
(6.59389e-11 -1.07651e-10 0)
(1.89954e-11 -7.50823e-12 0)
(2.44509e-10 -5.40668e-11 0)
(8.46455e-11 -1.06846e-10 0)
(-8.47673e-11 -2.67631e-10 0)
(-1.22171e-10 -2.5575e-10 0)
(-1.07345e-10 -5.1097e-10 0)
(-7.12444e-11 4.35675e-10 0)
(-7.31911e-10 -2.00762e-10 0)
(1.85893e-09 8.28458e-10 0)
(-3.2024e-11 1.16279e-10 0)
(-3.35937e-10 7.90389e-11 0)
(-5.19468e-11 2.39287e-10 0)
(-3.02594e-10 1.36245e-10 0)
(-4.22608e-10 -6.06413e-11 0)
(-2.61868e-10 -1.82184e-10 0)
(-1.21831e-10 -1.89426e-10 0)
(-7.14953e-11 -2.58868e-10 0)
(-2.08073e-11 -2.34835e-10 0)
(-6.03227e-11 -2.15563e-10 0)
(1.05713e-10 -1.12518e-10 0)
(3.80651e-11 1.79998e-10 0)
(1.09042e-10 1.32059e-10 0)
(-9.85859e-11 -1.73942e-10 0)
(-1.48132e-10 -4.97356e-10 0)
(-1.33093e-10 -6.11743e-10 0)
(1.47864e-10 -4.7905e-10 0)
(-1.62505e-11 -5.55575e-10 0)
(3.81235e-10 3.67804e-10 0)
(6.46367e-10 1.87558e-10 0)
(-3.46086e-10 -2.40141e-10 0)
(-1.0168e-10 1.7043e-10 0)
(-2.19157e-11 2.17199e-10 0)
(-3.56086e-10 2.93504e-11 0)
(-3.78185e-10 -6.4267e-11 0)
(-1.82252e-10 -1.56935e-10 0)
(-9.33935e-11 -2.38621e-10 0)
(-1.24569e-10 -4.13059e-10 0)
(-1.08853e-10 -4.05286e-10 0)
(-1.09957e-10 -3.50387e-10 0)
(3.26771e-11 -1.8613e-10 0)
(3.63106e-11 2.25462e-10 0)
(-2.88609e-11 3.81925e-11 0)
(-1.91638e-10 -1.38982e-10 0)
(-1.0766e-10 -2.52003e-10 0)
(-9.85562e-11 -4.60586e-10 0)
(2.0552e-10 -2.60803e-10 0)
(-9.37496e-11 -6.64776e-10 0)
(3.61302e-10 1.37787e-11 0)
(-1.80286e-10 -3.40834e-10 0)
(-4.03402e-10 -1.87616e-10 0)
(1.70812e-10 2.70513e-10 0)
(-1.32854e-10 1.51329e-10 0)
(-3.22252e-10 4.36721e-13 0)
(-1.389e-10 -1.32338e-11 0)
(-2.54893e-11 -1.41244e-10 0)
(-6.84978e-11 -3.11612e-10 0)
(-1.51895e-10 -5.33432e-10 0)
(-1.29785e-10 -5.08445e-10 0)
(-7.95669e-11 -4.14888e-10 0)
(7.37791e-11 -2.36512e-10 0)
(2.31289e-11 2.22725e-10 0)
(-6.34896e-11 -1.49091e-10 0)
(-1.46482e-10 -2.93273e-10 0)
(-1.00559e-10 -3.39327e-10 0)
(-2.67825e-11 -5.90754e-10 0)
(1.485e-10 -5.29739e-10 0)
(7.69869e-11 -6.53866e-10 0)
(2.96113e-10 -3.67395e-10 0)
(-2.35588e-10 -4.32446e-10 0)
(1.94523e-10 1.87288e-10 0)
(1.559e-10 3.36026e-10 0)
(-3.62376e-10 1.68212e-10 0)
(-2.54466e-10 1.52792e-10 0)
(-8.81055e-11 4.45006e-11 0)
(-1.72474e-10 -2.54681e-10 0)
(-2.49627e-10 -5.12527e-10 0)
(-2.03218e-10 -7.8326e-10 0)
(-4.81832e-11 -6.81242e-10 0)
(7.77634e-11 -5.37256e-10 0)
(2.75801e-10 -2.67287e-10 0)
(1.42603e-10 3.5007e-10 0)
(-4.59469e-11 -1.43436e-10 0)
(-1.39925e-11 -2.29198e-10 0)
(-3.43847e-11 -3.28879e-10 0)
(7.45074e-11 -4.04872e-10 0)
(-7.19719e-13 -6.2616e-10 0)
(7.9431e-11 -5.03071e-10 0)
(-6.6736e-11 -5.40484e-10 0)
(-6.69386e-11 -3.06499e-10 0)
(2.05572e-10 1.24516e-10 0)
(-1.16016e-10 5.10704e-11 0)
(-1.1656e-10 1.51956e-10 0)
(1.12451e-10 2.34942e-10 0)
(3.70835e-11 -7.54884e-13 0)
(-1.90403e-10 -3.273e-10 0)
(-2.89682e-10 -4.93256e-10 0)
(-2.20572e-10 -7.12332e-10 0)
(-6.86862e-11 -6.39329e-10 0)
(2.43478e-11 -5.27598e-10 0)
(1.23457e-10 -3.22642e-10 0)
(7.8343e-11 2.9646e-10 0)
(-3.34334e-12 -8.65002e-11 0)
(5.82385e-11 -1.85321e-10 0)
(-1.80609e-11 -4.46912e-10 0)
(6.52913e-11 -5.21014e-10 0)
(-4.14027e-11 -7.42328e-10 0)
(7.50023e-11 -5.91692e-10 0)
(-9.95404e-11 -5.24683e-10 0)
(1.2788e-10 -8.95935e-11 0)
(5.28733e-11 1.23351e-10 0)
(-8.94843e-11 2.25044e-10 0)
(1.36752e-10 3.60092e-10 0)
(1.98579e-11 2.06844e-10 0)
(-2.10478e-10 -1.60433e-10 0)
(-2.40006e-10 -4.83672e-10 0)
(-2.44528e-10 -5.69629e-10 0)
(-1.76397e-10 -7.33237e-10 0)
(1.27677e-11 -6.3864e-10 0)
(1.13089e-10 -5.50274e-10 0)
(1.75814e-10 -2.90996e-10 0)
(6.47994e-11 3.9781e-10 0)
(3.70549e-11 -5.18897e-12 0)
(4.30006e-11 -2.04674e-10 0)
(-1.59285e-11 -4.45424e-10 0)
(4.57426e-12 -6.88121e-10 0)
(-1.0616e-11 -7.4721e-10 0)
(1.08653e-11 -7.21052e-10 0)
(-4.78386e-11 -5.18265e-10 0)
(7.56383e-11 -1.49034e-10 0)
(-3.30429e-11 -9.67105e-13 0)
(6.93231e-12 2.73743e-10 0)
(8.52684e-11 2.52102e-10 0)
(-1.01944e-10 8.59459e-12 0)
(-1.47046e-10 -1.78952e-10 0)
(-1.91028e-11 -4.36238e-10 0)
(-1.81964e-11 -5.57289e-10 0)
(-7.69578e-11 -6.95275e-10 0)
(-3.98613e-11 -5.89766e-10 0)
(-2.72107e-12 -5.47988e-10 0)
(-3.03571e-11 -3.47698e-10 0)
(-7.90788e-11 3.65511e-10 0)
(1.53567e-11 -3.89695e-12 0)
(-3.68661e-11 -2.37118e-10 0)
(-1.68166e-12 -4.14854e-10 0)
(-4.50608e-11 -7.04861e-10 0)
(8.14301e-12 -7.6208e-10 0)
(-5.77952e-11 -7.7122e-10 0)
(3.97607e-11 -5.29248e-10 0)
(-1.19544e-11 -1.95528e-10 0)
(5.72739e-12 2.08526e-11 0)
(2.37495e-11 2.91917e-10 0)
(-1.06105e-10 2.12811e-10 0)
(-3.59103e-11 6.01396e-13 0)
(3.88705e-11 -1.55769e-10 0)
(1.18828e-11 -4.66789e-10 0)
(3.71699e-11 -6.64063e-10 0)
(5.76782e-11 -8.21405e-10 0)
(4.5033e-12 -6.62383e-10 0)
(-7.26091e-11 -5.75926e-10 0)
(-9.42492e-11 -3.49577e-10 0)
(-9.66489e-11 3.88447e-10 0)
(-1.57082e-12 -1.03274e-10 0)
(-4.50852e-11 -2.00834e-10 0)
(2.20869e-11 -4.2201e-10 0)
(-5.37894e-11 -5.88686e-10 0)
(1.31334e-11 -7.45219e-10 0)
(-7.32191e-11 -6.8497e-10 0)
(7.48155e-11 -5.22801e-10 0)
(-3.7471e-11 -2.21885e-10 0)
(2.60153e-13 7.11291e-11 0)
(8.24668e-12 2.23312e-10 0)
(-1.70972e-10 2.87406e-10 0)
(-1.33646e-11 1.69949e-10 0)
(1.07786e-10 -1.35486e-10 0)
(5.27909e-11 -4.86267e-10 0)
(1.25564e-10 -6.59634e-10 0)
(1.89716e-10 -8.98565e-10 0)
(7.1967e-11 -7.95133e-10 0)
(-7.38585e-11 -6.59628e-10 0)
(-1.80236e-10 -3.759e-10 0)
(-1.42835e-10 3.86617e-10 0)
(1.48283e-11 -1.17186e-10 0)
(4.46823e-11 -2.11764e-10 0)
(4.30927e-11 -4.32297e-10 0)
(-1.55122e-11 -5.35348e-10 0)
(-1.16894e-11 -7.15132e-10 0)
(-5.28111e-11 -6.08358e-10 0)
(-8.90903e-12 -4.7845e-10 0)
(2.69663e-11 -2.62043e-10 0)
(-4.01759e-11 9.51064e-11 0)
(6.34547e-11 1.48636e-10 0)
(4.38974e-11 2.69101e-10 0)
(-6.15816e-11 2.78214e-10 0)
(-3.54331e-11 -2.77579e-11 0)
(6.19909e-11 -3.82848e-10 0)
(1.03459e-10 -5.80109e-10 0)
(8.54989e-11 -8.96161e-10 0)
(6.41049e-11 -8.42335e-10 0)
(5.59187e-11 -6.89502e-10 0)
(4.97867e-12 -4.09201e-10 0)
(-2.26304e-11 3.47478e-10 0)
(-2.47829e-11 -2.16887e-11 0)
(8.43991e-11 -2.48688e-10 0)
(5.71155e-11 -4.08088e-10 0)
(8.03682e-11 -6.58719e-10 0)
(-3.88199e-11 -6.88271e-10 0)
(1.40511e-11 -6.67932e-10 0)
(-1.52476e-10 -3.82686e-10 0)
(5.48555e-11 -2.46967e-10 0)
(-8.10517e-11 1.49431e-10 0)
(-2.13861e-11 2.85396e-10 0)
(2.85605e-10 2.08507e-10 0)
(1.27951e-10 1.61445e-10 0)
(-3.47191e-11 8.49316e-12 0)
(2.49717e-11 -2.99654e-10 0)
(3.97857e-11 -5.52966e-10 0)
(2.83624e-11 -8.65107e-10 0)
(6.5609e-11 -7.75177e-10 0)
(1.09045e-10 -6.30805e-10 0)
(1.10254e-11 -3.58097e-10 0)
(7.79567e-12 3.66912e-10 0)
(-7.04507e-11 3.97337e-11 0)
(2.98121e-11 -2.11591e-10 0)
(3.71672e-11 -3.99244e-10 0)
(1.11426e-10 -6.77644e-10 0)
(-6.0015e-11 -5.73727e-10 0)
(9.39433e-11 -7.29848e-10 0)
(-1.45659e-10 -3.45062e-10 0)
(1.74283e-11 -2.82773e-10 0)
(9.91922e-11 -1.04774e-10 0)
(-1.59214e-10 2.67917e-10 0)
(1.10609e-10 1.54152e-10 0)
(2.76405e-10 -3.98258e-11 0)
(1.33398e-10 -8.14647e-11 0)
(-1.61251e-11 -2.19574e-10 0)
(-7.50269e-11 -3.64526e-10 0)
(-8.29848e-12 -6.00853e-10 0)
(9.14682e-11 -5.77851e-10 0)
(1.74229e-10 -5.33981e-10 0)
(1.55952e-10 -3.55921e-10 0)
(1.14344e-10 2.83058e-10 0)
(-8.04132e-11 3.67202e-12 0)
(-4.60544e-11 -2.21008e-10 0)
(5.58456e-11 -5.01601e-10 0)
(8.00288e-11 -6.07034e-10 0)
(-3.40895e-11 -6.63459e-10 0)
(-3.63928e-11 -6.25067e-10 0)
(-9.93279e-11 -3.35998e-10 0)
(-4.20386e-10 1.04346e-10 0)
(1.93278e-10 -7.85784e-11 0)
(6.99658e-11 2.73143e-10 0)
(-4.02703e-11 3.49581e-10 0)
(3.1968e-10 4.66771e-11 0)
(4.67765e-10 -1.91898e-10 0)
(2.79216e-10 -3.54476e-10 0)
(8.56702e-11 -3.92583e-10 0)
(-1.40078e-11 -5.43745e-10 0)
(-8.11979e-11 -4.99835e-10 0)
(-2.5952e-11 -4.76656e-10 0)
(-6.51749e-11 -2.64051e-10 0)
(1.65139e-11 3.45379e-10 0)
(-4.84802e-11 -1.09539e-10 0)
(-1.17379e-10 -1.32856e-10 0)
(2.73316e-11 -2.29361e-10 0)
(-3.19454e-11 -1.49472e-10 0)
(1.07977e-10 -5.2564e-10 0)
(-1.22494e-10 -1.22039e-10 0)
(3.53258e-10 -5.1064e-10 0)
(-5.29332e-10 2.25595e-10 0)
(-2.27512e-10 1.39758e-10 0)
(3.27338e-10 5.74786e-12 0)
(-6.81452e-12 2.14288e-10 0)
(6.07335e-11 1.14238e-10 0)
(3.41542e-10 -1.59129e-10 0)
(3.6296e-10 -3.48061e-10 0)
(2.19355e-10 -3.38717e-10 0)
(4.73745e-11 -3.90452e-10 0)
(-8.14542e-11 -3.41688e-10 0)
(-3.72183e-11 -3.26949e-10 0)
(-6.05775e-11 -2.32441e-10 0)
(2.37093e-11 2.02109e-10 0)
(8.77699e-11 -2.81463e-10 0)
(5.19321e-11 -2.93448e-10 0)
(1.21847e-10 -2.3349e-10 0)
(-1.00018e-10 -1.62076e-10 0)
(1.07915e-10 -5.77041e-10 0)
(-3.36436e-10 -1.36892e-10 0)
(2.4555e-10 -1.06569e-09 0)
(1.98005e-10 -9.07078e-12 0)
(-6.98846e-10 4.38534e-10 0)
(-8.38475e-12 1.68555e-10 0)
(1.84751e-10 1.64694e-10 0)
(6.28868e-11 1.4578e-10 0)
(2.69726e-10 -7.60584e-11 0)
(4.63952e-10 -3.14856e-10 0)
(4.15427e-10 -3.84197e-10 0)
(1.99154e-10 -4.42111e-10 0)
(-3.83044e-11 -3.4038e-10 0)
(-1.01552e-10 -2.93744e-10 0)
(-1.89456e-10 -1.82275e-10 0)
(-6.15003e-11 2.11688e-10 0)
(2.13572e-10 1.48566e-12 0)
(1.55649e-10 -1.69008e-10 0)
(1.44727e-10 -1.74283e-10 0)
(-1.17644e-10 -2.78773e-10 0)
(-1.20953e-11 -1.12347e-10 0)
(-3.53273e-10 -6.20665e-10 0)
(6.78429e-11 -1.49082e-09 0)
(9.23203e-10 -4.53677e-11 0)
(-4.55367e-10 3.13371e-10 0)
(-2.27147e-10 2.68313e-10 0)
(1.35253e-10 1.276e-10 0)
(7.24009e-11 1.52655e-10 0)
(1.88902e-10 9.15482e-11 0)
(3.86148e-10 -1.26066e-10 0)
(4.20486e-10 -3.05339e-10 0)
(2.59169e-10 -4.14169e-10 0)
(-4.58658e-12 -3.08063e-10 0)
(-1.19065e-10 -2.1998e-10 0)
(-2.85778e-10 -8.73956e-11 0)
(-7.55691e-11 1.97264e-10 0)
(-7.07251e-11 1.7286e-10 0)
(9.75752e-11 1.20524e-10 0)
(1.63753e-10 -3.98369e-11 0)
(1.70551e-10 -4.60191e-10 0)
(-3.28272e-10 1.04919e-10 0)
(-1.05151e-10 -4.2399e-10 0)
(-4.37169e-10 2.73723e-09 0)
(6.20504e-09 -1.02048e-09 0)
(-4.02853e-10 -5.41115e-10 0)
(-3.70191e-10 1.00459e-10 0)
(1.31555e-10 8.11682e-11 0)
(2.68409e-10 1.79283e-10 0)
(2.42813e-10 2.34942e-10 0)
(2.36588e-10 7.96242e-11 0)
(2.62299e-10 -1.17362e-10 0)
(2.50008e-10 -2.10901e-10 0)
(1.11999e-10 -1.63336e-10 0)
(1.50461e-11 -8.07051e-11 0)
(-1.36131e-10 -4.81978e-11 0)
(-4.49656e-11 3.17187e-11 0)
(-1.48028e-10 -2.14835e-11 0)
(1.38527e-10 -3.64081e-12 0)
(1.18107e-11 -1.64488e-10 0)
(9.21377e-11 -5.05308e-10 0)
(-8.4636e-12 -2.61864e-10 0)
(5.2118e-10 -8.54618e-11 0)
(-4.22876e-10 3.51597e-09 0)
(-7.10193e-09 -9.29813e-10 0)
(1.17548e-09 -4.29214e-10 0)
(5.11429e-10 2.31138e-10 0)
(2.22718e-10 2.2146e-10 0)
(3.23534e-10 1.85731e-10 0)
(1.28135e-10 1.11591e-10 0)
(-2.22761e-11 -4.63632e-11 0)
(7.24665e-11 -1.8009e-10 0)
(2.1984e-10 -2.53388e-10 0)
(1.81719e-10 -1.80847e-10 0)
(9.85095e-11 -1.06609e-10 0)
(-1.1151e-10 1.40804e-11 0)
(-4.3111e-11 1.43543e-10 0)
)
;

boundaryField
{
    sides
    {
        type            calculated;
        value           nonuniform List<vector> 
40
(
(-1.48028e-10 0 0)
(1.38527e-10 0 0)
(1.18107e-11 0 0)
(9.21377e-11 0 0)
(-8.4636e-12 0 0)
(5.2118e-10 0 0)
(-4.22876e-10 0 0)
(-7.10193e-09 0 0)
(1.17548e-09 0 0)
(5.11429e-10 0 0)
(2.22718e-10 0 0)
(3.23534e-10 0 0)
(1.28135e-10 0 0)
(-2.22761e-11 0 0)
(7.24665e-11 0 0)
(2.1984e-10 0 0)
(1.81719e-10 0 0)
(9.85095e-11 0 0)
(-1.1151e-10 0 0)
(-4.3111e-11 0 0)
(-1.12795e-10 0 0)
(-1.97041e-11 0 0)
(-1.01981e-10 0 0)
(-4.53273e-13 0 0)
(3.99201e-10 0 0)
(-1.31298e-09 0 0)
(-9.16713e-10 0 0)
(-4.42482e-10 0 0)
(-1.36661e-10 0 0)
(2.78078e-10 0 0)
(-1.39386e-10 0 0)
(-2.25239e-11 0 0)
(-1.95109e-10 0 0)
(-4.05121e-10 0 0)
(-3.58102e-10 0 0)
(-1.48219e-10 0 0)
(4.56522e-11 0 0)
(4.97454e-11 0 0)
(1.28013e-10 0 0)
(1.91829e-12 0 0)
)
;
    }
    inlet
    {
        type            calculated;
        value           uniform (0 0 0);
    }
    outlet
    {
        type            calculated;
        value           nonuniform List<vector> 
20
(
(1.91829e-12 1.21734e-10 0)
(1.89954e-11 -7.50823e-12 0)
(3.80651e-11 1.79998e-10 0)
(3.63106e-11 2.25462e-10 0)
(2.31289e-11 2.22725e-10 0)
(1.42603e-10 3.5007e-10 0)
(7.8343e-11 2.9646e-10 0)
(6.47994e-11 3.9781e-10 0)
(-7.90788e-11 3.65511e-10 0)
(-9.66489e-11 3.88447e-10 0)
(-1.42835e-10 3.86617e-10 0)
(-2.26304e-11 3.47478e-10 0)
(7.79567e-12 3.66912e-10 0)
(1.14344e-10 2.83058e-10 0)
(1.65139e-11 3.45379e-10 0)
(2.37093e-11 2.02109e-10 0)
(-6.15003e-11 2.11688e-10 0)
(-7.55691e-11 1.97264e-10 0)
(-4.49656e-11 3.17187e-11 0)
(-4.3111e-11 1.43543e-10 0)
)
;
    }
    frontAndBack
    {
        type            empty;
    }
}


// ************************************************************************* //
