/*--------------------------------*- C++ -*----------------------------------*\
  =========                 |
  \\      /  F ield         | OpenFOAM: The Open Source CFD Toolbox
   \\    /   O peration     | Website:  https://openfoam.org
    \\  /    A nd           | Version:  7
     \\/     M anipulation  |
\*---------------------------------------------------------------------------*/
FoamFile
{
    version     2.0;
    format      ascii;
    class       volScalarField;
    location    "300";
    object      epsilon;
}
// * * * * * * * * * * * * * * * * * * * * * * * * * * * * * * * * * * * * * //

dimensions      [0 2 -3 0 0 0 0];

internalField   nonuniform List<scalar> 
120313
(
95.9385
100.417
106.166
108.991
110.073
109.4
105.346
100.231
94.1686
87.2987
80.7187
74.9434
70.5062
66.1219
61.8482
57.7222
53.8822
50.4332
47.261
44.3309
41.744
38.8478
35.632
34.5328
97.1244
98.9548
104.931
107.814
108.476
105.927
102.721
98.2931
92.6605
86.6214
80.9475
75.6539
70.8571
66.4071
61.9551
57.7439
53.7636
50.1047
46.8327
43.7668
41.0323
38.0329
35.4733
35.559
94.842
95.5783
100.653
103.534
104.289
101.41
98.1163
93.7335
88.2457
82.5535
77.1246
72.0701
67.523
63.3364
59.1716
55.2121
51.4351
47.9378
44.7927
41.8357
39.1897
36.2334
34.0851
34.5017
94.4583
94.8348
99.5246
102.32
103.136
100.256
96.7467
92.3335
86.9622
81.4226
76.0677
71.1301
66.663
62.5165
58.416
54.5018
50.752
47.2821
44.1641
41.2199
38.582
35.6029
33.6015
34.0597
94.7323
95.0476
99.6371
102.3
103.115
100.337
96.6278
92.2176
86.9465
81.4806
76.1678
71.2753
66.8268
62.6722
58.5613
54.632
50.867
47.3872
44.2567
41.2935
38.6395
35.6353
33.6424
34.0641
95.8016
96.3581
101.141
103.63
104.327
101.502
97.7672
93.381
88.1038
82.6276
77.2828
72.3797
67.9124
63.7333
59.5748
55.5945
51.7768
48.2558
45.083
42.0771
39.3907
36.3597
34.2495
34.5917
99.0996
100.61
106.077
108.319
108.623
105.567
102.047
97.6065
92.204
86.5178
80.9268
75.906
71.289
66.9881
62.6486
58.4793
54.4781
50.7845
47.4684
44.3363
41.5527
38.4459
35.9606
35.9603
100.077
103.871
109.214
111.232
111.539
109.868
106.199
100.653
94.6393
88.4007
81.9695
76.5071
72.2187
67.9429
63.7248
59.657
55.8301
52.3588
49.1585
46.137
43.5076
40.5131
37.2551
36.0695
6.55296
13.8342
20.9162
28.0553
35
42.2308
51.0095
62.8264
72.2124
79.762
86.8496
91.2197
93.4807
94.378
93.752
91.5251
87.6659
82.7796
77.5644
72.4004
67.3693
62.7251
58.226
53.9692
49.9959
46.2836
42.8477
39.6639
36.7259
34.0665
31.6743
29.5477
27.6321
25.8974
24.3229
23.1664
7.34279
14.6588
21.8861
29.0811
36.0166
43.3403
52.5957
65.2157
74.2545
90.9787
100.867
105.83
107.649
108.191
107.536
103.358
98.7273
92.8557
86.7489
80.7172
74.8623
69.3272
63.9792
58.9438
54.2776
49.9897
46.089
42.5179
39.2796
36.3135
33.6074
31.0329
28.8993
26.4542
25.3394
23.4074
7.95077
15.4417
22.8138
30.134
37.1721
44.5532
53.7553
65.8865
74.671
92.4447
104.939
109.292
111.272
111.57
109.761
106.463
101.342
95.6703
89.2884
83.1175
76.966
71.3204
65.7535
60.577
55.7472
51.324
47.2807
43.617
40.248
37.2417
34.4152
31.7863
29.5555
27.0524
25.7832
23.5513
8.44422
16.1646
23.7054
31.2054
38.3894
45.8169
54.8765
66.5104
74.6893
92.6148
106.118
110.897
112.777
113.273
111.094
107.895
102.306
96.7842
90.2447
84.0263
77.7935
72.0572
66.3947
61.1259
56.1982
51.6827
47.5725
43.8487
40.433
37.3675
34.4696
31.8417
29.4461
26.8673
25.5573
23.2463
8.91706
16.8015
24.4884
32.1393
39.4342
46.8907
55.8733
67.2267
74.8399
92.8293
106.53
111.601
113.351
113.812
111.557
108.228
102.628
97.1023
90.5542
84.3543
78.1224
72.3465
66.6483
61.3384
56.3637
51.806
47.6583
43.893
40.442
37.349
34.4036
31.7801
29.2967
26.6934
25.3273
22.9628
9.19464
17.1567
24.917
32.6452
39.9987
47.476
56.445
67.7386
75.1162
93.0241
106.68
111.655
113.309
113.648
111.245
108.104
102.547
97.0554
90.5628
84.4071
78.2083
72.4313
66.731
61.4114
56.4217
51.8509
47.6907
43.9124
40.4459
37.34
34.3761
31.7458
29.2601
26.6498
25.2565
22.8571
9.14959
17.1017
24.8602
32.6029
39.9873
47.5045
56.5373
67.9786
75.4601
93.269
106.548
111.112
112.713
112.959
110.442
107.561
102.02
96.6763
90.2778
84.186
78.0422
72.2973
66.6276
61.336
56.3681
51.8153
47.6774
43.9165
40.4579
37.3561
34.4041
31.7591
29.359
26.7505
25.3618
22.9573
8.79273
16.65
24.341
32.0425
39.4373
47.0263
56.2365
68.1162
76.1951
93.6209
105.626
109.695
111.345
111.255
108.706
106.101
100.794
95.5996
89.3474
83.3513
77.3194
71.6781
66.1256
60.9489
56.0778
51.6142
47.5294
43.8165
40.3916
37.3294
34.4196
31.7577
29.531
27.0081
25.6766
23.3115
8.27453
15.9511
23.5359
31.1643
38.5577
46.2627
55.8245
68.7497
76.9515
93.3134
102.395
106.473
108.08
108.01
106.497
103.519
98.2245
93.1452
87.125
81.3102
75.5303
70.1163
64.7983
59.806
55.0921
50.7757
46.8102
43.1993
39.9005
36.8606
34.0584
31.4226
29.2793
26.938
25.8311
23.7643
7.61156
15.0597
22.4978
29.9889
37.2907
44.9802
54.6423
67.9991
76.9268
90.0776
97.5326
101.37
102.727
102.932
101.916
99.5568
95.333
90.1604
84.511
79.0238
73.444
68.3717
63.3918
58.6574
54.1948
50.0605
46.2739
42.7961
39.6551
36.5046
33.7525
31.4567
29.3387
27.6123
26.5371
24.4346
6.67538
13.998
21.2882
28.6454
35.831
43.3571
52.6993
65.5086
73.6433
81.9031
87.9807
91.9083
93.7596
94.3581
93.691
91.7175
88.396
83.681
78.5573
73.4223
68.4565
63.8176
59.3504
55.0987
51.1134
47.3714
43.8801
40.6413
37.6881
35.0111
32.606
30.4571
28.517
26.7484
25.1748
23.6954
5.63907
13.0167
20.1061
27.3456
34.514
41.9252
50.6601
62.2575
72.1206
79.6413
86.0052
90.3031
92.6004
93.5669
92.9251
90.7914
87.2102
82.4461
77.34
72.1593
67.2454
62.5468
58.0258
53.751
49.7617
46.0276
42.5693
39.3924
36.4942
33.8642
31.5026
29.395
27.5106
25.8315
24.3174
23.159
137.795
145.122
150.925
150.635
147.111
141.994
136.138
127.014
118.646
109.338
100.495
92.0801
84.1825
76.8841
70.1707
64.0444
58.4957
53.4878
48.9802
44.9299
41.3209
38.0889
35.1495
32.7394
6.37174
12.6061
20.7151
30.5794
41.8682
54.3975
68.1598
82.4959
101.289
133.663
142.287
148.137
148.305
144.802
138.989
133.722
125.201
116.969
107.799
99.464
91.1946
83.4588
76.286
69.7009
63.6787
58.2175
53.2709
48.8309
44.8135
41.2145
37.9584
35.0574
32.41
30.213
27.9757
25.9156
6.98673
13.3759
21.8925
32.1585
43.8222
56.6519
70.469
84.3645
103.123
135.914
143.751
149.274
149.13
146.018
139.414
133.048
124.552
116.492
107.247
99.0405
90.6419
83.1373
75.9911
69.4634
63.5015
58.1167
53.2054
48.8263
44.8135
41.2711
38.0767
35.1377
32.5657
30.0083
28.2571
25.8639
7.70026
14.3445
23.2423
33.9327
45.9908
59.1483
73.1259
86.904
105.313
138.476
146.167
151.608
151.145
147.904
141.184
134.595
125.682
117.64
108.204
99.8582
91.2227
83.7386
76.391
69.9384
63.8318
58.484
53.4784
49.1121
45.0845
41.5268
38.3422
35.371
32.747
30.0695
28.2775
25.8942
8.37897
15.3068
24.5393
35.6085
47.9951
61.4206
75.54
89.1928
107.117
139.943
147.749
152.889
152.599
149.304
142.422
135.701
126.975
118.795
109.162
100.72
91.9468
84.3916
76.9018
70.4
64.1893
58.7986
53.7356
49.3456
45.2818
41.7042
38.4847
35.5014
32.7927
30.0566
28.2243
25.8393
8.96913
16.1238
25.6285
36.9881
49.6281
63.2605
77.4667
90.9581
108.429
140.803
148.433
153.703
153.145
149.943
143.118
136.208
127.579
119.339
109.678
101.227
92.4117
84.807
77.2333
70.6875
64.4047
58.985
53.8863
49.4692
45.3749
41.7783
38.5373
35.5402
32.7534
30.0076
28.0829
25.6849
9.31155
16.5902
26.2482
37.7709
50.5588
64.3058
78.5403
91.9103
109.057
140.979
148.646
153.782
153.203
150.049
143.48
136.308
127.719
119.482
109.85
101.432
92.6252
85.0141
77.4116
70.845
64.5309
59.0907
53.9689
49.5331
45.4177
41.8078
38.5448
35.5353
32.7297
29.9762
28.0346
25.6454
9.30576
16.5724
26.2256
37.7546
50.5532
64.3114
78.5521
91.9111
108.905
140.457
148.181
153.353
152.835
149.756
143.325
136.099
127.54
119.307
109.719
101.35
92.577
84.9835
77.3922
70.835
64.5249
59.0874
53.9631
49.5257
45.4033
41.789
38.5152
35.5129
32.7227
29.9849
28.0492
25.6494
8.94819
16.0765
25.5737
36.9584
49.6381
63.3108
77.545
91.0135
107.996
139.043
146.888
152.16
151.806
148.846
142.586
135.28
126.766
118.617
109.159
100.862
92.166
84.6282
77.1021
70.6006
64.3406
58.94
53.8422
49.4267
45.3152
41.7101
38.4395
35.4513
32.7266
30.0355
28.1241
25.7097
8.34192
15.2273
24.4603
35.5874
48.0591
61.5753
75.7717
89.4058
106.437
136.629
144.578
149.865
149.81
147.085
141.189
133.771
125.39
117.408
108.161
99.9914
91.4232
83.971
76.5757
70.1671
63.9962
58.6548
53.6094
49.2358
45.156
41.5792
38.3054
35.3432
32.705
30.0929
28.2393
25.8302
7.58263
14.1726
23.0649
33.8224
45.9832
59.2522
73.3273
87.0471
103.995
133.579
141.913
147.186
147.35
144.699
138.818
131.894
123.724
116.009
106.963
98.9367
90.5894
83.2713
76.0565
69.7302
63.6832
58.4027
53.4382
49.1092
45.0692
41.5241
38.2287
35.3137
32.7379
30.2117
28.4545
26.0434
6.72234
13.0734
21.5666
31.8638
43.6045
56.5246
70.4464
84.3477
101.77
133.011
142.127
147.936
148.246
145.239
139.03
133.152
124.998
116.904
107.713
99.5056
91.2504
83.6531
76.4555
69.8342
63.7901
58.3247
53.371
48.9393
44.8754
41.3226
38.0369
35.1843
32.5194
30.2751
28.1575
26.1111
6.03871
12.2729
20.3596
30.2486
41.6081
54.2181
68.0858
82.6238
101.62
134.372
144.91
150.84
150.813
146.914
140.97
135.277
126.525
117.938
108.642
100.076
91.622
83.6717
76.2836
69.5519
63.4222
57.9206
52.9695
48.5693
44.5991
41.054
37.8034
34.9938
32.3612
30.1968
28.0108
25.9581
189.844
183.109
175.386
164.737
151.837
138.08
125.657
109.301
99.4713
87.5052
78.2458
70.4321
63.7033
58.0486
53.1056
48.9356
45.2385
42.105
39.2412
36.8175
34.4825
32.4349
30.3786
29.0564
5.87723
12.6417
24.0695
40.7468
61.0331
83.4032
106.719
129.995
163.53
192.517
185.783
178.536
168.826
156.375
143.241
131.894
114.337
104.769
91.517
83.8469
75.2128
68.0429
61.8776
56.5621
51.9613
47.992
44.4365
41.4183
38.4203
36.0414
33.0614
31.5111
28.8651
27.7943
27.2938
25.9961
6.54641
13.7907
26.4362
44.4435
65.8787
89.0681
112.52
135.227
167.701
195.676
188.321
180.87
171.289
159.251
146.426
135.304
117.02
108.069
93.4031
86.6551
77.1571
71.1285
64.5407
58.9859
54.0907
49.9504
45.7439
42.8392
38.9959
37.0862
33.9224
32.344
29.5696
28.0165
26.1742
24.7618
7.42691
15.364
28.9686
47.8603
70.0828
93.7259
116.93
138.694
169.144
196.9
189.194
182.437
172.59
161.089
148.437
137.788
119.543
110.556
95.5693
88.7371
78.0573
72.7411
65.065
60.6271
54.6089
51.2116
46.2756
43.7738
39.7896
37.8508
34.6423
32.8854
30.4437
28.5824
26.8117
25.2155
8.25126
16.7328
31.4002
51.261
73.9423
97.4171
119.96
140.883
169.42
196.978
190.707
181.892
173.633
162.666
149.929
138.538
122.978
113.092
97.5273
90.5409
79.2957
74.1004
65.8202
61.6612
55.2721
52.0201
46.9198
44.4628
40.4204
38.4309
35.1563
33.3711
30.9693
29.0467
27.1941
25.4548
8.91971
18.0353
33.6447
54.0179
76.7932
100.275
122.611
143.139
170.628
197.713
190.595
183.231
173.995
163.562
151.069
139.473
124.859
114.726
99.0583
91.9238
80.4682
75.1612
66.5367
62.4436
55.818
52.6344
47.4509
44.953
40.8502
38.8138
35.5343
33.8371
30.9268
29.3261
26.6337
25.0946
9.34869
18.9218
34.899
55.3683
78.3754
102.177
124.454
144.658
171.429
198.027
191.063
183.7
174.487
164.3
152.065
140.277
126.343
115.963
100.167
92.9127
81.3352
75.9547
67.1689
63.0374
56.2931
53.0684
47.8141
45.2746
41.114
39.054
35.675
33.9683
31.0043
29.3915
26.6274
25.0772
9.36965
18.9613
34.9277
55.3785
78.4062
102.235
124.491
144.637
171.145
197.776
190.91
184.018
175.036
164.846
152.618
140.933
126.739
116.458
100.654
93.3835
81.7709
76.3505
67.51
63.3379
56.5457
53.2858
47.983
45.408
41.204
39.1199
35.6984
33.9678
30.9812
29.3531
26.5879
25.0364
8.9617
18.1479
33.7937
54.1069
76.8442
100.367
122.693
143.125
169.925
196.928
190.406
184.154
175.458
165.068
152.646
141.18
126.138
116.119
100.48
93.2417
81.7038
76.2961
67.4759
63.3127
56.5386
53.2674
47.9482
45.359
41.1305
39.0364
35.6124
33.8662
30.8792
29.2435
26.4935
24.9433
8.30698
16.8331
31.6387
51.5615
74.1823
97.5904
120.079
140.908
168.613
196.245
190.163
183.887
175.536
164.73
151.991
140.539
124.914
115.064
99.6483
92.434
81.0359
75.6852
66.9914
62.8805
56.1851
52.9521
47.6823
45.1101
40.8954
38.8048
35.4031
33.6576
30.7354
29.1067
26.4559
24.8884
7.46718
15.4344
29.1975
48.1833
70.3794
93.9213
116.974
138.571
167.958
195.593
189.444
182.477
173.858
162.378
149.483
138.108
122.236
112.471
97.1608
90.0565
79.0065
73.7353
65.43
61.336
54.948
51.7899
46.7737
44.2855
40.2028
38.1987
34.821
32.919
30.799
28.8466
26.9767
25.3288
6.4914
13.8851
26.7141
44.5848
65.7941
88.8462
112.073
134.647
166.037
193.849
187.436
180.687
171.498
159.356
146.263
134.434
118.783
108.722
93.4985
86.6008
77.2906
70.8918
64.1943
58.6514
53.7523
49.6771
45.738
42.7104
38.9479
37.025
33.8396
32.3406
29.619
28.4623
27.8095
26.2589
5.77879
12.731
24.3934
40.8002
60.73
83.1201
106.332
129.623
162.838
190.822
185.092
178.454
169.006
156.507
143.329
131.247
115.201
104.953
91.7918
83.6031
74.9982
67.832
61.5907
56.2774
51.619
47.6819
44.1429
41.2049
38.2175
35.9229
32.934
31.5034
28.8946
27.8945
27.3579
26.1587
106.862
85.3591
67.6967
53.3932
42.6772
35.1831
30.0205
26.2883
23.1415
20.5161
18.3464
16.5787
15.0631
13.8337
12.7704
11.9206
11.1807
10.5967
10.0815
9.7108
9.35382
9.14492
9.01308
8.52464
92.3445
218.719
259.887
264.149
259.276
252.911
247.168
239.97
216.792
113.97
91.7547
73.3489
57.4646
46.0946
37.258
31.6438
27.7629
24.3297
21.7544
19.5633
17.704
16.1147
14.781
13.6545
12.7155
11.9344
11.2659
10.7477
10.2872
9.99869
9.72478
9.60936
9.34057
8.81424
11.0128
12.4769
90.9668
224.117
274.657
277.426
268.798
260.107
251.465
244.536
221.605
119.362
96.3343
77.6057
61.4654
49.3053
40.1517
33.4934
29.3372
25.7769
23.0855
20.7148
18.8671
17.2523
15.8754
14.6892
13.6963
12.8644
12.1629
11.6238
11.2259
10.9602
10.7838
10.6241
10.5232
10.2435
10.0222
9.75986
112.334
249.57
282.412
280.462
271.813
262.363
252.924
245.561
226.106
125.932
101.821
82.4245
66.0299
52.6778
43.0371
35.703
30.9455
27.0896
24.267
21.753
19.8363
18.1157
16.7463
15.5161
14.5433
13.6918
13.0654
12.599
12.302
12.0561
11.9847
11.8224
11.8325
11.6889
11.4002
10.9424
103.8
238.845
287.328
285.79
275.088
264.659
254.227
245.364
229.325
132.746
107.047
86.6741
69.8012
55.6637
45.4233
37.7401
32.43
28.2305
25.2554
22.619
20.6259
18.837
17.4444
16.1953
15.2193
14.4395
13.8959
13.4474
13.2408
12.9552
12.9192
12.9341
13.0161
12.8547
12.4872
11.9234
95.4004
248.37
294.441
289.909
277.416
266.274
255.665
246.448
231.801
136.651
110.428
89.4207
72.4348
57.9459
47.2813
39.3613
33.6164
29.1739
26.088
23.3338
21.2683
19.4257
17.9832
16.7426
15.7695
15.0258
14.5086
14.0795
13.8852
13.6394
13.6799
13.738
13.8341
13.658
13.2472
12.6053
103.662
262.479
299.479
290.695
278.377
268.009
257.33
247.734
233.4
138.777
112.539
91.3816
74.3182
59.8181
48.7576
40.6131
34.5105
29.8473
26.6784
23.8458
21.7334
19.8441
18.365
17.1176
16.1341
15.3929
14.8621
14.4274
14.2169
13.968
14.009
14.0581
14.1478
13.9299
13.6202
12.7883
105.655
263.951
300.005
290.824
278.373
268.079
257.322
247.785
233.393
138.38
112.333
91.4963
74.622
60.1343
49.0477
40.8711
34.6663
29.9923
26.7878
23.95
21.8262
19.9242
18.4354
17.17
16.1743
15.4155
14.8694
14.4165
14.1768
13.9366
13.8529
13.8755
13.9517
13.7012
13.3548
12.5947
97.1538
253.186
296.795
290.426
277.309
266.156
255.488
246.424
231.701
135.417
110.16
89.9177
73.2867
58.922
48.1335
40.0218
34.11
29.5186
26.3829
23.6044
21.509
19.63
18.1586
16.8717
15.8527
15.0714
14.4941
14.0334
13.7386
13.4739
13.4156
13.2865
13.3144
13.0402
12.716
11.9646
100.011
241.19
290.791
287.59
275.565
264.562
253.877
245.012
229.4
130.328
106.131
86.8325
70.4932
56.4733
46.1505
38.3273
32.8533
28.5142
25.559
22.8911
20.8741
19.0371
17.6004
16.3092
15.2906
14.4575
13.8533
13.3654
13.0443
12.745
12.6158
12.4471
12.3806
12.1413
11.7614
11.2196
117.187
248.12
285.687
283.139
272.476
262.494
252.534
245.488
226.814
123.758
100.507
81.6436
65.5609
52.5236
42.9804
35.5613
30.8491
27.007
24.2202
21.7002
19.7758
18.0242
16.6456
15.397
14.4132
13.5354
12.8871
12.3827
12.0419
11.7415
11.5876
11.3826
11.2965
11.0455
10.8311
10.3517
84.2838
232.037
281.797
277.728
267.419
259.26
250.833
243.885
222.705
116.837
94.3816
76.1182
60.1368
48.447
39.3123
33.1195
29.0343
25.4227
22.7315
20.3782
18.5287
16.9261
15.5243
14.3542
13.363
12.5401
11.8638
11.3036
10.8977
10.6161
10.4365
10.3038
10.2305
9.73297
11.9403
13.4644
78.3836
222.906
267.529
262.018
254.466
249.959
244.711
237.856
217.168
112.384
90.4174
71.946
56.5827
45.4381
36.9976
31.6478
27.7909
24.33
21.7266
19.5264
17.647
16.0678
14.712
13.5892
12.6308
11.8559
11.1864
10.6801
10.2387
9.92964
9.74264
9.63541
9.56208
9.09417
11.3092
12.914
1.506
1.78019
1.87152
1.85242
1.76704
1.65633
1.53659
1.42176
1.31358
1.21744
1.13063
1.05526
0.990284
0.935479
0.88924
0.851566
0.821572
0.798442
0.783046
0.772335
0.7719
0.776958
0.789076
0.722993
0.00993102
0.00936663
0.00891856
0.00848291
0.00818111
0.00785883
0.0116843
0.027196
0.0469639
0.148661
0.456752
1.03732
1.67761
1.69075
1.50397
1.8602
1.99496
1.99488
1.91762
1.79924
1.6724
1.55101
1.43954
1.33861
1.24934
1.17016
1.10126
1.04231
0.992138
0.951503
0.918812
0.894339
0.878528
0.87048
0.870006
0.875988
0.886182
0.876347
0.812687
1.18839
1.42595
0.00993841
0.00935428
0.00890284
0.00845372
0.00816116
0.00785066
0.00841109
0.0154778
0.0353058
0.146545
0.495307
1.18801
1.9485
2.01588
1.77161
2.14594
2.29355
2.29832
2.21315
2.08169
1.93495
1.79712
1.66906
1.55768
1.45575
1.36706
1.28959
1.22306
1.16669
1.12093
1.08481
1.05948
1.04401
1.0374
1.04168
1.05396
1.06929
1.08532
1.10355
1.15853
1.2302
0.00993865
0.00934501
0.0088893
0.00850701
0.00817668
0.00788042
0.00977655
0.0178836
0.0461449
0.207408
0.72285
1.68153
2.72816
2.72405
2.22126
2.62792
2.79404
2.78092
2.66506
2.50023
2.31633
2.14091
1.97988
1.84001
1.71485
1.60766
1.51626
1.43874
1.37489
1.32536
1.28903
1.26723
1.25641
1.25968
1.27388
1.29877
1.33117
1.3711
1.42307
1.47736
1.54594
0.00990902
0.00931403
0.00887944
0.0084895
0.00816338
0.00783928
0.00893779
0.0251356
0.086303
0.35871
1.12738
2.43617
4.03862
3.75154
2.81567
3.20151
3.34193
3.28971
3.13505
2.92753
2.70603
2.4917
2.29238
2.12041
1.96903
1.84186
1.73466
1.64594
1.57505
1.52156
1.4862
1.46605
1.45646
1.46741
1.49235
1.53309
1.58491
1.65038
1.71813
1.78049
1.85779
0.00990835
0.00934081
0.00889962
0.00850634
0.008154
0.0078146
0.0111211
0.0440865
0.121143
0.445661
1.39612
3.1693
5.30541
4.59132
3.22166
3.61735
3.74515
3.67874
3.50134
3.26829
3.01815
2.78235
2.55986
2.36576
2.19555
2.05119
1.92983
1.82974
1.75095
1.69236
1.65488
1.63025
1.6235
1.63908
1.67205
1.72452
1.79133
1.87081
1.9463
2.01284
2.10348
0.00990841
0.0093621
0.00888205
0.00849753
0.00815748
0.00785853
0.0138391
0.0431122
0.111846
0.447691
1.52148
3.56853
5.92866
5.00223
3.40859
3.83292
3.96963
3.9078
3.72429
3.47904
3.21681
2.9615
2.72852
2.5216
2.3412
2.18716
2.05721
1.94975
1.86566
1.80594
1.75635
1.73133
1.72598
1.74059
1.7748
1.82953
1.90012
1.9795
2.05631
2.12328
2.21671
0.00990907
0.00931232
0.00888679
0.00844343
0.00815928
0.00785949
0.0136856
0.0401089
0.105093
0.437031
1.52791
3.56409
5.91111
4.9694
3.31068
3.75268
3.90674
3.8596
3.68579
3.44855
3.18896
2.94227
2.70842
2.50434
2.32469
2.17238
2.04372
1.93728
1.85379
1.7899
1.74882
1.71959
1.71006
1.72375
1.75545
1.80523
1.86871
1.94175
2.00979
2.0729
2.16143
0.00993476
0.00935116
0.00887565
0.00844589
0.00816522
0.00784426
0.0118363
0.041899
0.11223
0.425857
1.36425
3.18384
5.35333
4.49387
2.99522
3.43377
3.60179
3.57007
3.41759
3.20312
2.96654
2.73466
2.52165
2.33079
2.16438
2.02295
1.90326
1.80409
1.72504
1.665
1.62506
1.59956
1.58773
1.59706
1.62117
1.66178
1.71298
1.77376
1.83028
1.88282
1.95792
0.00990801
0.00933284
0.00891567
0.00849404
0.00815549
0.00784345
0.00889795
0.025667
0.0881144
0.362309
1.12311
2.47161
4.16962
3.65798
2.50517
2.93624
3.12299
3.11328
2.99073
2.80849
2.60478
2.40225
2.21856
2.05455
1.91176
1.79017
1.68656
1.60008
1.53029
1.47633
1.43845
1.41546
1.40362
1.40867
1.42584
1.45589
1.49553
1.54243
1.58951
1.62766
1.69599
0.00990902
0.00931454
0.00889317
0.00845051
0.00816524
0.00786284
0.00911093
0.0164811
0.0443999
0.210215
0.745108
1.73755
2.88623
2.70742
2.03035
2.42072
2.58285
2.58069
2.48288
2.33662
2.1677
2.00464
1.85533
1.72716
1.61163
1.51273
1.42786
1.35577
1.29606
1.24881
1.21346
1.19122
1.17934
1.18012
1.19103
1.21317
1.24387
1.28393
1.32189
1.36216
1.41933
0.00996994
0.00935286
0.00890547
0.00848496
0.00816429
0.00784432
0.00921721
0.0222993
0.0515591
0.18938
0.577276
1.31782
2.13464
2.10152
1.65426
2.01776
2.16211
2.16436
2.08725
1.96302
1.82605
1.69266
1.56986
1.46031
1.36436
1.27874
1.20481
1.14099
1.08718
1.04335
1.00849
0.983747
0.966624
0.960198
0.965341
0.980965
1.00493
1.0393
0.96387
1.42804
1.7172
0.00990332
0.00931542
0.00890465
0.00849813
0.00815471
0.00784581
0.0141421
0.0350048
0.0570339
0.162592
0.488043
1.13534
1.84663
1.84479
1.49944
1.82036
1.93892
1.93726
1.86196
1.75142
1.63309
1.51553
1.40599
1.30609
1.21849
1.14058
1.07321
1.0151
0.966456
0.926763
0.89541
0.872091
0.857018
0.849705
0.851141
0.862584
0.882727
0.914746
0.816359
1.26567
1.56289
0.00603203
0.00639876
0.00682725
0.00725411
0.00762934
0.00793523
0.00816332
0.00832207
0.00842004
0.00847185
0.00848802
0.00848227
0.00846489
0.00844612
0.00843014
0.00842917
0.00844963
0.00849825
0.00858521
0.00871929
0.00891356
0.00917618
0.00950106
0.00888309
0.00995186
0.00952175
0.00910357
0.00870878
0.00833943
0.00799562
0.00767534
0.00737737
0.00710033
0.00684306
0.00660317
0.00637728
0.00616617
0.00587585
0.00597972
0.00640743
0.00692275
0.00744852
0.00792431
0.00831724
0.0086231
0.00885106
0.00901663
0.00913172
0.00920821
0.0092579
0.00929283
0.0093217
0.00934954
0.00939746
0.00947029
0.00957801
0.00973476
0.00995189
0.0102407
0.0105987
0.0110018
0.0111215
0.0103461
0.0152339
0.0181605
0.00995182
0.00951754
0.00910376
0.00871092
0.00834267
0.00799934
0.00767924
0.00738171
0.00710449
0.00684507
0.00660123
0.00637198
0.00615888
0.00588842
0.00610811
0.00669823
0.00742105
0.00816415
0.00884769
0.00942696
0.00988974
0.010252
0.0105303
0.0107456
0.0109112
0.0110436
0.011157
0.0112614
0.0113711
0.0115029
0.0116704
0.0118938
0.0121902
0.0125762
0.0130623
0.0136427
0.0142845
0.0149452
0.0157905
0.0176164
0.0203148
0.00994883
0.00951288
0.00909968
0.00870778
0.00833951
0.00799617
0.00767591
0.00737781
0.00710039
0.00684094
0.00659776
0.00637019
0.00616468
0.00588421
0.00637829
0.00731859
0.00844468
0.0095764
0.010609
0.01148
0.0121709
0.0127028
0.0131067
0.0134157
0.0136558
0.0138549
0.0140379
0.0142171
0.0144204
0.0146724
0.0149984
0.0154241
0.0159772
0.0166833
0.0175589
0.0186181
0.019871
0.0213909
0.0234594
0.0261772
0.0291893
0.00994741
0.00951132
0.00909804
0.0087067
0.00833927
0.00799587
0.00767547
0.00737858
0.00710205
0.00684122
0.00659656
0.00637
0.00616664
0.00588442
0.0067829
0.00818941
0.00980644
0.0113846
0.0128184
0.0140169
0.0149682
0.0156905
0.0162234
0.0166206
0.0169245
0.0171796
0.0174204
0.0176705
0.0179686
0.0183454
0.0188394
0.0194834
0.0203151
0.0213792
0.0227158
0.0243892
0.0264541
0.0290044
0.0321872
0.0359775
0.0401943
0.00994858
0.00951237
0.00909865
0.00870663
0.00833895
0.00799635
0.0076773
0.00738062
0.00710337
0.00684303
0.00659948
0.00637288
0.0061684
0.0058848
0.00713247
0.00896294
0.0110219
0.0130263
0.0148547
0.0163878
0.0176053
0.018548
0.019253
0.0197807
0.0201878
0.0205241
0.0208372
0.0211555
0.0215394
0.0220245
0.0226664
0.0235029
0.0245862
0.0259739
0.027737
0.0299673
0.0327588
0.0361699
0.0402183
0.0449358
0.0503837
0.00994785
0.00951163
0.00909802
0.00870624
0.00833864
0.0079962
0.00767672
0.00737828
0.00710057
0.00684235
0.00660065
0.0063741
0.00616475
0.00588445
0.00731742
0.00941037
0.0117552
0.0140492
0.0161528
0.0179163
0.0193215
0.0204095
0.0212343
0.0218579
0.0223467
0.0227517
0.0231264
0.0235028
0.0239506
0.0245183
0.0252457
0.0262096
0.0274403
0.0290065
0.0309908
0.0335173
0.0366306
0.0404145
0.0447819
0.049999
0.055802
0.00994824
0.00951209
0.00909849
0.00870683
0.0083396
0.00799719
0.00767706
0.00737815
0.00710045
0.00684269
0.00660148
0.00637408
0.00615254
0.00588305
0.00724304
0.00924572
0.0115219
0.0137605
0.0158111
0.0175398
0.0189193
0.0199955
0.0208078
0.0214245
0.0219068
0.0223084
0.0226779
0.0230509
0.0234908
0.0240386
0.0247565
0.0256842
0.0268755
0.0283914
0.0303137
0.0327081
0.0356718
0.0391655
0.0432784
0.0481004
0.0536907
0.00994821
0.00951223
0.00909881
0.008707
0.00833925
0.00799649
0.00767704
0.00737922
0.00710123
0.0068421
0.00660074
0.00637527
0.00615591
0.00588432
0.00695535
0.00861601
0.0105294
0.0124228
0.0141654
0.0156346
0.0168082
0.0177174
0.0184042
0.018918
0.0193132
0.0196405
0.01994
0.0202388
0.0205965
0.0210447
0.0216311
0.0223933
0.0233748
0.0246283
0.0261996
0.0281588
0.030546
0.0333657
0.0366731
0.0405352
0.0451707
0.00994808
0.00951188
0.0090982
0.00870627
0.00833845
0.00799519
0.00767535
0.00737844
0.00710112
0.00684007
0.00659604
0.0063712
0.00616452
0.005885
0.00657921
0.00777576
0.00919678
0.0106245
0.0119311
0.0130361
0.0139191
0.0145955
0.0151051
0.0154874
0.0157836
0.0160296
0.0162567
0.0164829
0.0167518
0.0170849
0.0175159
0.0180777
0.0188012
0.0197275
0.0208877
0.022336
0.0241007
0.0261993
0.0285801
0.0313978
0.0347568
0.00994885
0.00951293
0.00909952
0.00870731
0.00833862
0.00799447
0.00767377
0.00737619
0.00709967
0.00684045
0.00659696
0.00636991
0.00616631
0.00588602
0.00625745
0.00702348
0.00794659
0.00888866
0.00975438
0.0104923
0.0110778
0.0115265
0.0118665
0.0121279
0.0123312
0.0124999
0.0126539
0.0128008
0.0129715
0.0131811
0.0134504
0.0138034
0.0142638
0.0148607
0.015619
0.0165762
0.0177668
0.0192268
0.0208873
0.022825
0.0255583
0.00995122
0.00951827
0.00910499
0.00871233
0.00834401
0.00800057
0.00768078
0.00738264
0.00710377
0.0068425
0.00659668
0.00636748
0.00615721
0.00588701
0.00605605
0.00656136
0.00717362
0.0078048
0.00838821
0.00887873
0.00926658
0.00955786
0.00977215
0.00992778
0.0100418
0.0101252
0.0101932
0.0102486
0.0103106
0.010394
0.0105098
0.0106735
0.0109032
0.0112156
0.0116357
0.0121905
0.0129101
0.0138392
0.0128439
0.0198227
0.0239239
0.00995308
0.00952482
0.00910388
0.00870767
0.00833761
0.00799406
0.00767553
0.00737912
0.00710255
0.00684432
0.00660221
0.00637637
0.00616724
0.00587973
0.00596008
0.00634057
0.00680192
0.00727901
0.00771357
0.00807744
0.00836432
0.00857463
0.00872303
0.00882012
0.00888063
0.00891527
0.00893741
0.00894886
0.00896816
0.00900528
0.0090698
0.0091701
0.00932093
0.00953334
0.00982505
0.0102199
0.0107489
0.0114653
0.0106113
0.0156241
0.0192092
0.00559701
0.00547372
0.00522027
0.0050513
0.00490579
0.00476463
0.0046283
0.00449415
0.00436276
0.00423304
0.00410605
0.00398101
0.00385878
0.00373879
0.00362214
0.00350826
0.00339819
0.00329127
0.00318834
0.00308873
0.00299331
0.00290225
0.00281993
0.00274603
0.00994944
0.00951976
0.00910294
0.00870877
0.0083389
0.00799296
0.00766961
0.0073669
0.00708332
0.00681789
0.00657014
0.00633945
0.00612284
0.00587339
0.00561307
0.0054892
0.00520944
0.0050525
0.0049066
0.00476602
0.00462887
0.00449507
0.00436332
0.00423377
0.00410637
0.0039816
0.00385908
0.00373937
0.0036224
0.0035088
0.00339838
0.00329169
0.00318843
0.00308907
0.00299332
0.00290143
0.00281275
0.00272698
0.0026583
0.00261908
0.00254032
0.00994805
0.00951118
0.00909829
0.00870732
0.00833899
0.00799343
0.00766986
0.00736709
0.00708377
0.00681879
0.00657078
0.0063376
0.00611826
0.00588293
0.00563583
0.00545082
0.00520453
0.00505253
0.00490613
0.00476518
0.00462758
0.00449346
0.00436129
0.00423161
0.00410404
0.00397929
0.0038567
0.00373715
0.00362025
0.00350689
0.00339658
0.00329016
0.00318701
0.00308792
0.00299199
0.00290005
0.0028105
0.00272391
0.00264137
0.00256404
0.00249974
0.00994947
0.00951072
0.00909614
0.00870469
0.00833566
0.00798964
0.00766554
0.00736209
0.00707818
0.00681251
0.00656343
0.00632968
0.00611119
0.00589574
0.00565449
0.00537878
0.00521283
0.00505784
0.00491017
0.00476899
0.00463162
0.00449793
0.00436613
0.00423725
0.00411033
0.00398622
0.00386413
0.0037451
0.00362866
0.00351568
0.00340566
0.00329951
0.00319642
0.00309751
0.00300154
0.00290959
0.00282009
0.00273445
0.00265289
0.00257728
0.00251385
0.00995054
0.0095123
0.00909801
0.00870646
0.00833625
0.00798844
0.00766304
0.00735925
0.00707539
0.0068097
0.00656091
0.00632827
0.00611066
0.00589569
0.00566435
0.00536841
0.00520834
0.0050562
0.00491002
0.00476951
0.00463247
0.00449868
0.00436694
0.00423802
0.00411112
0.00398688
0.00386481
0.00374583
0.00362952
0.00351672
0.00340684
0.00330099
0.00319816
0.00309965
0.00300419
0.00291304
0.00282479
0.00274115
0.00266152
0.00258761
0.00252647
0.00995051
0.00951258
0.00909881
0.00870812
0.00833909
0.00799271
0.00766893
0.00736639
0.00708323
0.00681806
0.00656991
0.00633773
0.00612024
0.00587161
0.0055981
0.00537262
0.00521229
0.00505994
0.00491367
0.00477313
0.00463618
0.00450244
0.00437108
0.00424253
0.00411594
0.00399206
0.00387036
0.00375182
0.00363575
0.00352336
0.00341365
0.00330815
0.0032056
0.00310748
0.00301254
0.00292207
0.00283483
0.00275269
0.00267483
0.00260307
0.00254428
0.00995053
0.00951249
0.00909862
0.00870786
0.00833896
0.00799275
0.00766898
0.00736664
0.00708405
0.00681927
0.00657137
0.00633919
0.00612185
0.00587282
0.00557321
0.00537689
0.00521546
0.00506254
0.00491601
0.00477537
0.00463836
0.00450463
0.00437327
0.00424481
0.00411825
0.00399439
0.0038728
0.00375426
0.00363828
0.00352597
0.00341642
0.00331103
0.00320876
0.00311094
0.00301645
0.00292655
0.00284002
0.00275879
0.00268163
0.00261109
0.00255375
0.00995046
0.00951227
0.0090984
0.0087077
0.00833872
0.00799251
0.00766907
0.00736691
0.00708398
0.00681883
0.00657039
0.00633811
0.00612072
0.0058692
0.00557594
0.00537117
0.00521098
0.00505856
0.00491248
0.00477206
0.00463531
0.00450182
0.00437068
0.00424242
0.00411605
0.0039924
0.003871
0.00375262
0.00363686
0.00352464
0.00341523
0.00330993
0.0032077
0.00310994
0.00301541
0.00292555
0.00283888
0.0027573
0.00267964
0.00260819
0.0025503
0.00995078
0.00951246
0.00909843
0.00870753
0.00833833
0.00799176
0.00766724
0.00736357
0.00708013
0.00681575
0.00656848
0.00633676
0.00611901
0.00587838
0.00562909
0.00537147
0.00521068
0.00505828
0.00491192
0.00477152
0.00463459
0.00450099
0.00436963
0.0042411
0.00411459
0.00399067
0.003869
0.00375039
0.00363439
0.00352194
0.00341226
0.00330674
0.00320416
0.00310601
0.00301102
0.00292053
0.00283315
0.0027503