/*--------------------------------*- C++ -*----------------------------------*\
  =========                 |
  \\      /  F ield         | OpenFOAM: The Open Source CFD Toolbox
   \\    /   O peration     | Website:  https://openfoam.org
    \\  /    A nd           | Version:  7
     \\/     M anipulation  |
\*---------------------------------------------------------------------------*/
FoamFile
{
    version     2.0;
    format      ascii;
    class       volScalarField;
    location    "300";
    object      k;
}
// * * * * * * * * * * * * * * * * * * * * * * * * * * * * * * * * * * * * * //

dimensions      [0 2 -2 0 0 0 0];

internalField   nonuniform List<scalar> 
120313
(
1.39472
1.54833
1.62473
1.65933
1.67246
1.66522
1.62697
1.57272
1.50897
1.43603
1.36336
1.29792
1.2472
1.19519
1.14337
1.09226
1.04333
0.998279
0.955838
0.915724
0.877333
0.834318
0.778084
0.704815
1.51177
1.75466
1.85695
1.90267
1.91449
1.88492
1.84856
1.79453
1.72677
1.65173
1.57911
1.51052
1.44662
1.38592
1.32377
1.26327
1.20467
1.14924
1.09837
1.04912
1.00233
0.946727
0.88728
0.773075
1.5024
1.74202
1.84341
1.89319
1.90754
1.8743
1.83494
1.7796
1.71086
1.63704
1.56458
1.49615
1.43321
1.37389
1.31347
1.2544
1.19671
1.14182
1.09093
1.04138
0.993702
0.936229
0.878178
0.765458
1.50276
1.74189
1.84173
1.89201
1.90776
1.87465
1.83152
1.77484
1.707
1.63376
1.56158
1.49409
1.43165
1.37228
1.3121
1.25317
1.19519
1.14001
1.08894
1.03893
0.990573
0.931638
0.874565
0.761471
1.50534
1.74402
1.84269
1.8913
1.90661
1.87433
1.82906
1.77262
1.70603
1.63359
1.56222
1.49554
1.43353
1.37416
1.3139
1.25482
1.19665
1.14134
1.09019
1.03992
0.991347
0.931941
0.875057
0.761424
1.51091
1.74939
1.84745
1.89251
1.90594
1.87323
1.82804
1.7723
1.70663
1.63474
1.56402
1.49818
1.43686
1.37798
1.31786
1.25887
1.20071
1.14555
1.09451
1.04432
0.996127
0.937565
0.880187
0.766255
1.52762
1.76871
1.86502
1.90337
1.91082
1.87565
1.83498
1.78082
1.71608
1.64433
1.57331
1.50864
1.4478
1.38967
1.3295
1.27025
1.21185
1.1564
1.10527
1.05529
1.00806
0.951215
0.892979
0.776932
1.42291
1.57305
1.64581
1.67259
1.67745
1.66064
1.6251
1.56705
1.50536
1.43857
1.36861
1.30753
1.25922
1.20944
1.1594
1.10983
1.0619
1.01737
0.975362
0.934863
0.89636
0.852854
0.796326
0.720218
0.426524
0.859942
1.24672
1.59248
1.89121
2.14931
2.38557
2.60623
2.95505
3.12683
3.37454
3.52083
3.59356
3.62462
3.63005
3.59318
3.50501
3.38181
3.24229
3.09839
2.94831
2.80368
2.65992
2.51752
2.38638
2.2578
2.1357
2.02004
1.91259
1.81351
1.71943
1.63707
1.5598
1.48931
1.43059
1.39075
0.466726
0.897573
1.28632
1.63084
1.92379
2.17173
2.39244
2.57404
2.88839
3.88779
4.31789
4.48837
4.54305
4.54251
4.50972
4.42562
4.30303
4.13734
3.96109
3.77354
3.59048
3.40762
3.22747
3.05306
2.88828
2.73257
2.58759
2.451
2.32447
2.20673
2.0919
1.99542
1.82186
1.71348
1.47902
1.37667
0.498677
0.938154
1.33112
1.6787
1.97347
2.2207
2.43325
2.58296
2.8277
3.81744
4.42773
4.62849
4.68154
4.66801
4.6004
4.52823
4.39348
4.23378
4.05195
3.86102
3.67073
3.4841
3.30025
3.12248
2.95491
2.79593
2.64875
2.51079
2.3823
2.26477
2.14666
2.04033
1.79575
1.66429
1.4508
1.35596
0.525401
0.975292
1.37409
1.72725
2.02708
2.27578
2.47996
2.60059
2.79473
3.77952
4.45727
4.67727
4.73437
4.72407
4.64689
4.56841
4.42365
4.26566
4.08228
3.89224
3.70236
3.5154
3.33096
3.15162
2.98251
2.8214
2.67302
2.53372
2.40343
2.28277
2.16168
2.04872
1.77386
1.6352
1.41849
1.32797
0.549785
1.00676
1.41029
1.76807
2.07171
2.32081
2.5187
2.62322
2.79348
3.77689
4.4743
4.70049
4.75909
4.75022
4.67176
4.58517
4.43833
4.2809
4.0997
3.91161
3.72249
3.53471
3.34955
3.16882
2.99818
2.83573
2.68629
2.54558
2.41346
2.29083
2.16701
2.05205
1.76551
1.62331
1.40284
1.31262
0.564017
1.02425
1.43024
1.79043
2.09608
2.34576
2.54159
2.64022
2.80268
3.78664
4.48256
4.7096
4.76679
4.75705
4.67806
4.58788
4.4427
4.28629
4.10754
3.92139
3.73327
3.54518
3.35961
3.17814
3.00656
2.84341
2.69316
2.55148
2.41813
2.29445
2.16905
2.05422
1.76457
1.62443
1.40021
1.30844
0.562795
1.02233
1.42847
1.78936
2.09638
2.34813
2.54685
2.64939
2.81991
3.81155
4.48359
4.70607
4.75891
4.747
4.6662
4.57707
4.43366
4.27892
4.10262
3.91903
3.73261
3.54526
3.36015
3.17895
3.00737
2.84436
2.6939
2.55192
2.41822
2.29452
2.16888
2.05593
1.77345
1.63386
1.40782
1.31465
0.546394
1.00147
1.40558
1.76556
2.07332
2.32881
2.53639
2.65592
2.86033
3.87471
4.47299
4.67854
4.72439
4.70679
4.62253
4.54042
4.40153
4.25017
4.07773
3.89673
3.71274
3.52792
3.34502
3.16589
2.99583
2.83418
2.6845
2.54353
2.41056
2.28852
2.16387
2.05607
1.80163
1.66771
1.43623
1.33881
0.520722
0.967423
1.36783
1.72561
2.03336
2.29354
2.51552
2.67112
2.9458
3.98424
4.39652
4.56517
4.60464
4.58808
4.5325
4.4436
4.31227
4.16605
3.99848
3.82189
3.64331
3.46584
3.2898
3.11666
2.95069
2.79322
2.6456
2.50717
2.37675
2.25562
2.13611
2.03432
1.85275
1.73743
1.49483
1.38673
0.487389
0.923129
1.31921
1.67372
1.97958
2.24195
2.47644
2.66901
3.01842
4.02138
4.24179
4.37843
4.42109
4.41639
4.37327
4.30692
4.19796
4.05386
3.89396
3.72731
3.55662
3.38939
3.22072
3.05783
2.89475
2.74779
2.60009
2.47148
2.3424
2.22958
2.1192
2.01662
1.90006
1.81984
1.56567
1.43895
0.440162
0.871247
1.26542
1.61893
1.92554
2.19049
2.42967
2.63238
2.96178
3.13782
3.34461
3.47291
3.53397
3.55303
3.54762
3.51287
3.43784
3.3282
3.19834
3.06144
2.92339
2.78447
2.64592
2.50985
2.37851
2.25325
2.13356
2.0202
1.91398
1.8175
1.73018
1.64982
1.57405
1.50484
1.45619
1.41283
0.385856
0.827854
1.22205
1.57736
1.89002
2.16642
2.42409
2.67839
3.0423
3.19531
3.42713
3.56647
3.63767
3.66605
3.66991
3.63393
3.55192
3.43746
3.29906
3.15226
3.00439
2.85617
2.70995
2.56825
2.43179
2.30091
2.17673
2.06002
1.95184
1.85235
1.7619
1.67981
1.60558
1.53948
1.48166
1.43242
5.22048
5.46332
5.63879
5.69063
5.66737
5.59758
5.44195
5.23402
5.00039
4.75907
4.51429
4.27419
4.03989
3.81594
3.60279
3.40266
3.21564
3.04277
2.88127
2.73326
2.59482
2.4723
2.34995
2.26698
0.571024
1.05816
1.56555
2.077
2.56714
3.03008
3.47623
3.90424
4.42063
5.18006
5.40719
5.56628
5.60992
5.58545
5.51865
5.40964
5.20695
4.98586
4.75119
4.50764
4.26815
4.03394
3.81028
3.59797
3.39873
3.21234
3.0398
2.87905
2.7312
2.59404
2.47013
2.35479
2.24515
2.16548
2.04803
1.95084
0.612356
1.10603
1.62724
2.14744
2.64316
3.10835
3.54991
3.96056
4.47644
5.23869
5.42253
5.57011
5.58863
5.53826
5.46332
5.36867
5.18731
4.97209
4.74134
4.49823
4.2583
4.02228
3.798
3.58597
3.38907
3.20447
3.03456
2.87603
2.73204
2.5983
2.4749
2.36247
2.25076
2.14269
2.06391
1.95889
0.662129
1.16915
1.70238
2.23207
2.73528
3.20591
3.64746
4.04597
4.53714
5.29436
5.48341
5.63132
5.63752
5.57345
5.491
5.38165
5.2022
4.99481
4.76392
4.52069
4.28218
4.04772
3.82453
3.6109
3.41327
3.22702
3.05686
2.89819
2.75404
2.61975
2.49403
2.38288
2.26162
2.14066
2.05511
1.95065
0.709031
1.23137
1.77572
2.31417
2.82447
3.30051
3.7425
4.129
4.59254
5.33932
5.53029
5.68336
5.68846
5.62223
5.53482
5.41248
5.22572
5.01896
4.78879
4.54703
4.31093
4.07817
3.85558
3.64094
3.44207
3.2539
3.08273
2.92278
2.77589
2.63962
2.5107
2.39958
2.26973
2.14262
2.0515
1.95032
0.748473
1.28262
1.83602
2.38124
2.89698
3.37707
3.81881
4.19577
4.63914
5.37227
5.56153
5.71488
5.72027
5.65409
5.5632
5.43633
5.24562
5.0394
4.81371
4.57428
4.33844
4.10425
3.88027
3.66399
3.46341
3.27384
3.10159
2.93989
2.79041
2.65241
2.52134
2.40903
2.27442
2.14525
2.05149
1.95732
0.771326
1.31182
1.87011
2.41906
2.93803
3.42054
3.86206
4.23405
4.66604
5.38909
5.57943
5.73066
5.73467
5.66846
5.57409
5.4464
5.25654
5.05172
4.82869
4.5917
4.35625
4.12118
3.89615
3.67863
3.47664
3.28629
3.11269
2.94972
2.79831
2.65899
2.5265
2.41329
2.27679
2.14748
2.05252
1.96097
0.771303
1.31122
1.86953
2.41892
2.93869
3.42228
3.86502
4.23844
4.66914
5.38863
5.58304
5.7321
5.73356
5.66565
5.56783
5.44181
5.25322
5.0505
4.82914
4.59575
4.36184
4.12712
3.90205
3.6843
3.48177
3.29108
3.1166
2.95285
2.80043
2.66033
2.52704
2.41332
2.27815
2.14972
2.05557
1.96282
0.748443
1.28107
1.83468
2.38148
2.89991
3.38346
3.82928
4.21157
4.65279
5.37249
5.57093
5.71512
5.71567
5.64427
5.54319
5.42104
5.23749
5.03791
4.81947
4.58864
4.35624
4.12279
3.89884
3.68212
3.48014
3.28961
3.11494
2.95107
2.79858
2.65831
2.52498
2.41016
2.2809
2.15606
2.06429
1.96675
0.708914
1.22845
1.77363
2.31541
2.83096
3.31356
3.76352
4.16118
4.62426
5.34088
5.53436
5.67016
5.67452
5.60369
5.50357
5.38948
5.21455
5.01905
4.80315
4.57268
4.34074
4.10903
3.88749
3.67318
3.47284
3.28314
3.10888
2.94564
2.79404
2.65418
2.5216
2.40469
2.28595
2.16874
2.08075
1.97749
0.658392
1.16201
1.69663
2.23111
2.74167
3.22143
3.67383
4.0859
4.56848
5.28062
5.47116
5.60754
5.61948
5.55983
5.46825
5.36802
5.20013
4.99948
4.78168
4.54965
4.31856
4.08932
3.86955
3.65832
3.46014
3.27317
3.09999
2.93899
2.78988
2.65177
2.52198
2.40508
2.29083
2.18205
2.0996
1.99127
0.600466
1.09281
1.61613
2.14177
2.64555
3.12081
3.57382
3.99623
4.49205
5.23493
5.45726
5.61371
5.64193
5.60217
5.52623
5.42605
5.23259
5.01818
4.79138
4.55386
4.31549
4.08091
3.85574
3.64216
3.4416
3.25443
3.08016
2.91938
2.77103
2.63462
2.50836
2.39494
2.28019
2.19821
2.08094
1.98103
0.555717
1.044
1.5556
2.07286
2.57074
3.04305
3.49898
3.93764
4.46395
5.20896
5.46573
5.61112
5.65137
5.62676
5.56325
5.44058
5.22922
5.00348
4.76427
4.51972
4.27606
4.03867
3.81102
3.59696
3.39634
3.21096
3.03935
2.88232
2.73674
2.6038
2.48168
2.37373
2.2623
2.18783
2.07758
1.98064
5.51757
5.51427
5.40829
5.19764
4.96528
4.69839
4.34678
4.00562
3.69595
3.44108
3.22136
3.033
2.8637
2.71949
2.58968
2.48035
2.38115
2.29897
2.21698
2.14971
2.07247
2.02311
1.94478
1.92635
0.567067
1.01411
1.56286
2.18297
2.82882
3.46258
4.06354
4.62293
5.17766
5.60391
5.60723
5.54736
5.35849
5.10115
4.84966
4.58111
4.24015
3.95616
3.68214
3.44172
3.23454
3.04921
2.88804
2.74507
2.62186
2.51252
2.4145
2.32296
2.2409
2.1656
2.09776
2.03418
1.94907
1.93035
1.9369
1.89977
0.611817
1.07817
1.65392
2.29729
2.96188
3.60877
4.21318
4.76813
5.32745
5.7288
5.70013
5.64281
5.47176
5.20884
4.92962
4.6866
4.4013
4.12262
3.84695
3.60777
3.39024
3.19055
3.01609
2.86368
2.7308
2.60929
2.50187
2.40495
2.32005
2.2421
2.15998
2.09387
2.00018
1.94286
1.84921
1.78528
0.670345
1.16563
1.76134
2.42164
3.09825
3.75226
4.35565
4.90095
5.44293
5.8142
5.77202
5.71622
5.56609
5.30556
5.01269
4.76106
4.4742
4.22032
3.93926
3.70056
3.4865
3.29386
3.12052
2.96119
2.82032
2.6924
2.5803
2.48023
2.38697
2.30336
2.20497
2.14338
2.04726
1.98473
1.87411
1.80181
0.727039
1.24732
1.86669
2.54536
3.22847
3.87989
4.4752
5.00868
5.52884
5.87322
5.82289
5.77026
5.6345
5.38491
5.08873
4.82363
4.53727
4.28114
4.00053
3.76212
3.55196
3.3624
3.18774
3.02716
2.88432
2.75312
2.64022
2.53634
2.43081
2.34641
2.2405
2.18141
2.08172
2.0124
1.90615
1.83845
0.770319
1.3152
1.95701
2.64577
3.32989
3.98178
4.57457
5.10021
5.60071
5.91713
5.85712
5.80604
5.67557
5.43983
5.14894
4.87724
4.58275
4.33442
4.06913
3.82819
3.61263
3.41516
3.23597
3.07263
2.92704
2.79433
2.68036
2.57127
2.45704
2.37324
2.26356
2.20469
2.10243
2.02672
1.94491
1.87694
0.795819
1.3574
2.00803
2.69919
3.3865
4.04354
4.63568
5.15541
5.6405
5.94349
5.8829
5.83364
5.70819
5.48399
5.1965
4.91824
4.62154
4.37958
4.11347
3.87423
3.65413
3.45199
3.26942
3.10306
2.95443
2.82126
2.70184
2.59228
2.47098
2.3874
2.27577
2.21508
2.11206
2.03366
1.95535
1.88803
0.79673
1.35877
2.00895
2.69978
3.38759
4.04553
4.63811
5.15771
5.63693
5.94596
5.89485
5.85045
5.72852
5.50701
5.2198
4.93343
4.63878
4.39616
4.12493
3.8946
3.67355
3.46971
3.28563
3.11739
2.96681
2.83261
2.70956
2.59922
2.47485
2.39066
2.27715
2.21514
2.10996
2.03171
1.95129
1.88393
0.772261
1.31877
1.96078
2.6487
3.33321
3.98758
4.58257
5.10918
5.59464
5.92674
5.89323
5.85456
5.73341
5.50611
5.21541
4.92456
4.63212
4.39027
4.11685
3.89189
3.67184
3.46884
3.28521
3.11664
2.96524
2.82966
2.70555
2.59423
2.47035
2.38595
2.27063
2.20726
2.10028
2.02722
1.93228
1.86603
0.730172
1.25083
1.87245
2.55284
3.23722
3.89125
4.49027
5.02712
5.52941
5.89199
5.87423
5.83693
5.71271
5.47439
5.17801
4.88967
4.60198
4.36264
4.08822
3.85792
3.64004
3.44242
3.26237
3.09622
2.94644
2.80994
2.68848
2.57645
2.45717
2.37272
2.25737
2.19246
2.0859
2.01803
1.90635
1.8351
0.673382
1.1696
1.76695
2.43032
3.10947
3.76667
4.37405
4.9235
5.44411
5.81722
5.80954
5.76634
5.62419
5.37375
5.08054
4.80844
4.52155
4.26897
3.99673
3.75352
3.54055
3.34786
3.17429
3.01637
2.87364
2.74336
2.62674
2.52292
2.42133
2.33335
2.22928
2.16253
2.05769
1.99479
1.88949
1.81909
0.610866
1.08272
1.66089
2.30451
2.96808
3.61695
4.22416
4.78393
5.31783
5.70063
5.71118
5.6633
5.493
5.23926
4.96623
4.70326
4.39855
4.09136
3.8205
3.58507
3.36655
3.17405
3.00525
2.85735
2.72827
2.61227
2.50579
2.4134
2.32744
2.25227
2.17528
2.10769
2.02576
1.99243
1.98881
1.94404
0.565809
1.02062
1.57556
2.19395
2.83637
3.47351
4.07758
4.64207
5.19065
5.58396
5.61698
5.5608
5.37785
5.12014
4.8706
4.59236
4.23646
3.93758
3.65292
3.41826
3.21181
3.03117
2.8709
2.731
2.60736
2.50159
2.40483
2.31981
2.23824
2.16994
2.10693
2.04941
1.97319
1.96556
1.97446
1.93836
2.35685
2.05933
1.77531
1.54687
1.34719
1.20937
1.09412
1.0003
0.919596
0.854781
0.800948
0.757858
0.720043
0.690711
0.665198
0.646717
0.632357
0.620947
0.619688
0.621352
0.625971
0.633348
0.650333
0.632752
1.72025
2.91501
3.42492
3.7055
3.95277
4.22015
4.49271
4.65697
4.34084
2.4901
2.21448
1.89721
1.64384
1.43784
1.26322
1.14975
1.05527
0.983986
0.916992
0.859062
0.81131
0.770351
0.737166
0.708957
0.688462
0.671082
0.660444
0.660097
0.66185
0.668385
0.676906
0.695245
0.689806
0.677159
0.86636
0.994949
1.76252
3.02911
3.601
3.87504
4.12754
4.36656
4.62518
4.7979
4.52278
2.60662
2.32019
2.02009
1.75043
1.53463
1.35339
1.21695
1.12531
1.05069
0.982544
0.927359
0.877024
0.832761
0.796011
0.76545
0.743892
0.728095
0.722195
0.72386
0.728609
0.739699
0.755099
0.769719
0.789977
0.790309
0.801769
0.810025
1.98012
3.28782
3.73824
3.98062
4.22629
4.46896
4.73207
4.91997
4.69788
2.84368
2.49091
2.1834
1.88443
1.64347
1.45221
1.29737
1.18439
1.10385
1.03281
0.976972
0.926362
0.886363
0.849203
0.822305
0.804979
0.795276
0.794435
0.799118
0.809583
0.822462
0.843478
0.865066
0.895408
0.90185
0.898837
0.894103
1.97923
3.25133
3.83494
4.1029
4.3556
4.58635
4.83612
5.02788
4.86416
2.99127
2.62394
2.31262
1.99139
1.74089
1.53242
1.3766
1.24205
1.14693
1.07156
1.01359
0.963082
0.924987
0.892276
0.871761
0.858086
0.853381
0.854414
0.861159
0.875222
0.890215
0.921038
0.946667
0.984334
0.995665
0.983508
0.970656
1.89351
3.37349
3.95724
4.21147
4.44657
4.68164
4.92875
5.1226
4.98138
3.10724
2.72779
2.39923
2.08124
1.81477
1.60168
1.43189
1.29848
1.1956
1.11508
1.05145
0.998133
0.960903
0.928559
0.910642
0.897423
0.894537
0.89681
0.904243
0.920037
0.938555
0.97353
1.00376
1.04474
1.05215
1.03773
1.02275
1.99245
3.53176
4.03639
4.24794
4.48429
4.74132
4.9875
5.18141
5.04245
3.179
2.79758
2.45943
2.14777
1.86987
1.65061
1.47286
1.33743
1.23126
1.14984
1.08356
1.02809
0.989057
0.95519
0.936614
0.922398
0.918894
0.920747
0.927584
0.942296
0.962304
0.996366
1.0298
1.06262
1.07086
1.05063
1.04106
2.01638
3.55003
4.04231
4.24756
4.48277
4.74196
4.98809
5.18438
5.03267
3.18417
2.79817
2.46476
2.15833
1.87938
1.66022
1.48116
1.34245
1.23543
1.15279
1.08713
1.03165
0.992272
0.958023
0.93879
0.923687
0.919712
0.920523
0.926908
0.939631
0.958167
0.988752
1.02066
1.04824
1.0542
1.03639
1.0258
1.90935
3.42124
3.97996
4.21606
4.44303
4.68113
4.93059
5.12889
4.9673
3.10888
2.73589
2.41974
2.11245
1.84365
1.6293
1.45267
1.31653
1.20889
1.12662
1.06365
1.00961
0.970356
0.93698
0.916348
0.900818
0.896096
0.896225
0.900823
0.911613
0.924568
0.951069
0.975781
1.00159
1.00796
0.993484
0.982036
1.93526
3.27189
3.8649
4.12089
4.36114
4.58788
4.8404
5.03899
4.85593
2.96669
2.61509
2.32513
2.01694
1.76693
1.55783
1.39245
1.25901
1.15664
1.08644
1.02822
0.977336
0.935888
0.901068
0.878512
0.861014
0.854342
0.853396
0.857213
0.864859
0.874376
0.893772
0.911495
0.938162
0.938109
0.932304
0.919641
2.04087
3.28418
3.76625
4.00069
4.23721
4.4773
4.74351
4.93808
4.7156
2.73217
2.43934
2.15199
1.86764
1.63671
1.45005
1.29059
1.17623
1.09411
1.0281
0.972724
0.923316
0.883435
0.847197
0.820035
0.79982
0.789035
0.786713
0.790163
0.796073
0.804372
0.819686
0.83325
0.857017
0.857902
0.862135
0.860227
1.66381
3.09965
3.6661
3.89243
4.1337
4.36594
4.62769
4.80901
4.54216
2.57909
2.28661
1.98277
1.7211
1.51496
1.33385
1.20415
1.10552
1.02665
0.959247
0.905388
0.854478
0.812489
0.776952
0.748338
0.726538
0.709151
0.702695
0.704135
0.708607
0.717828
0.73494
0.748314
0.770999
0.762464
0.946614
1.07245
1.55372
2.96366
3.47965
3.6891
3.92036
4.19456
4.47222
4.65913
4.38973
2.45622
2.17306
1.86362
1.62503
1.42194
1.26083
1.15583
1.05488
0.979673
0.908672
0.851763
0.804235
0.764905
0.73159
0.704523
0.683414
0.667055
0.656746
0.656619
0.658485
0.665967
0.68156
0.695936
0.721662
0.702489
0.905116
1.04314
0.046033
0.0580417
0.065062
0.0687515
0.0698636
0.0696923
0.0685076
0.0668932
0.0650225
0.063256
0.0615775
0.0601569
0.059009
0.0581973
0.0574078
0.0574026
0.0576573
0.0582619
0.0594027
0.0610575
0.0632942
0.0660533
0.0694002
0.0635718
0.000997424
0.000975148
0.000952894
0.000931969
0.000912378
0.000892988
0.000933786
0.00115295
0.00154055
0.00381674
0.0112217
0.0259488
0.0430091
0.045602
0.0455
0.0604369
0.0690038
0.0736171
0.0753714
0.0752102
0.0741353
0.0726617
0.0711446
0.0695866
0.068114
0.0667893
0.0656961
0.0648857
0.064273
0.0641714
0.0644454
0.0652015
0.0665773
0.0685747
0.0711982
0.0744284
0.0780889
0.0796405
0.0742057
0.11632
0.142865
0.000997574
0.000975486
0.000953672
0.000932201
0.000911868
0.000892484
0.000888556
0.000983165
0.00136812
0.0038605
0.0123079
0.02988
0.0504528
0.0546548
0.0537776
0.0697209
0.0796302
0.0849153
0.0870822
0.0870793
0.0858369
0.0843293
0.0826715
0.0811793
0.0796917
0.0783925
0.0772862
0.0764394
0.0759148
0.0758927
0.0763731
0.0775727
0.0795357
0.0822946
0.0858368
0.0901281
0.0947932
0.0996634
0.10468
0.112878
0.123859
0.000997725
0.000975379
0.000953067
0.00093183
0.000912058
0.000893779
0.000910321
0.00103499
0.00160559
0.00523153
0.0176459
0.0415097
0.070779
0.0742998
0.0683789
0.0863728
0.097881
0.103495
0.105451
0.105004
0.103026
0.100558
0.0980501
0.0958128
0.0937618
0.0920902
0.090852
0.0898274
0.0894225
0.0898824
0.0911212
0.093282
0.0963772
0.100513
0.105583
0.111634
0.118561
0.12647
0.134986
0.14406
0.15628
0.000997741
0.000975395
0.000953397
0.000932302
0.000911778
0.000891922
0.000895382
0.00113099
0.00232937
0.00847363
0.0269033
0.0595004
0.104481
0.102536
0.0862863
0.104991
0.117063
0.122036
0.124174
0.122942
0.12035
0.11693
0.113303
0.110117
0.107314
0.105204
0.103646
0.102698
0.102636
0.103486
0.105343
0.108248
0.112314
0.117599
0.124164
0.132314
0.14162
0.152462
0.162659
0.173302
0.187375
0.000997829
0.000975723
0.000953446
0.000932231
0.000912434
0.00089016
0.000924203
0.00141615
0.00301765
0.0104392
0.0330625
0.0773182
0.136642
0.125439
0.0990008
0.11901
0.131594
0.136883
0.139263
0.137762
0.134575
0.130917
0.126869
0.123184
0.119929
0.117456
0.115459
0.114283
0.114243
0.115214
0.117362
0.120733
0.12541
0.131495
0.139064
0.148824
0.159938
0.172265
0.183309
0.196086
0.21067
0.000997784
0.000975831
0.000953785
0.00093233
0.000912326
0.000892149
0.00096473
0.00142867
0.00290493
0.0104896
0.0360481
0.0870492
0.152485
0.136783
0.105064
0.126485
0.139891
0.145977
0.148439
0.146925
0.143587
0.13956
0.135424
0.131541
0.128154
0.125541
0.123316
0.121988
0.121893
0.122851
0.125053
0.128552
0.133335
0.139486
0.147592
0.157446
0.16954
0.181678
0.193937
0.204806
0.223232
0.000997856
0.000975847
0.000953834
0.000932415
0.000912383
0.000892489
0.00096369
0.0013851
0.00278084
0.0103092
0.0361659
0.0867194
0.151896
0.13588
0.102242
0.124064
0.137868
0.144297
0.146976
0.145651
0.142371
0.138596
0.134402
0.130596
0.127222
0.124619
0.122542
0.121069
0.121038
0.121983
0.124141
0.127526
0.1322
0.138278
0.145813
0.15574
0.166517
0.178664
0.189211
0.201643
0.216223
0.000997816
0.000975776
0.00095353
0.000932171
0.000912365
0.000891404
0.000934963
0.00139059
0.00287539
0.00999228
0.0323902
0.0778125
0.137891
0.122798
0.0924779
0.113502
0.127097
0.133682
0.136031
0.135181
0.132399
0.128855
0.125093
0.121478
0.118323
0.115866
0.113967
0.112762
0.112599
0.113405
0.115334
0.118383
0.122625
0.128146
0.134931
0.143282
0.15286
0.163259
0.172466
0.184375
0.197592
0.000997791
0.000975441
0.00095329
0.000932118
0.00091152
0.000891841
0.000894328
0.00113896
0.00237216
0.0085535
0.0267748
0.0603435
0.107741
0.100021
0.0773145
0.0969396
0.110037
0.11646
0.11885
0.118324
0.116125
0.113043
0.109879
0.106962
0.104457
0.102473
0.101004
0.100035
0.0998858
0.100539
0.102146
0.104739
0.108356
0.113025
0.118728
0.125643
0.133584
0.14221
0.150806
0.158428
0.171946
0.000997791
0.000975548
0.000953129
0.000931964
0.000912124
0.000892852
0.000900518
0.00101127
0.00157005
0.00530053
0.0181251
0.0428664
0.0749145
0.0738524
0.0619475
0.0790841
0.0900994
0.0958124
0.0980679
0.0980164
0.0963209
0.0940594
0.091771
0.0898493
0.0880657
0.0866417
0.0855893
0.0845126
0.0844029
0.0848319
0.0859523
0.087921
0.0907489
0.0944668
0.0990497
0.104658
0.111177
0.118747
0.125662
0.133234
0.14371
0.000997391
0.000975309
0.00095361
0.000932435
0.000911728
0.000892018
0.000898486
0.00108104
0.00166599
0.0047967
0.0143185
0.0329645
0.0552386
0.0568543
0.0503969
0.0658079
0.0750614
0.0800918
0.0822579
0.0822483
0.0811052
0.079423
0.0776348
0.0759524
0.0744862
0.0731043
0.0719902
0.0709599
0.0704186
0.0703753
0.0707806
0.0718368
0.0736558
0.0762505
0.0796395
0.0840455
0.0892829
0.0956669
0.0894146
0.13853
0.171944
0.000997732
0.000975562
0.000953306
0.000932094
0.000912699
0.000892154
0.000962929
0.00125841
0.00171062
0.0040866
0.0118775
0.0280635
0.0470509
0.0491913
0.045247
0.0588406
0.0667942
0.071306
0.07268
0.0732123
0.0724479
0.0710182
0.0694483
0.0677866
0.0662828
0.0649328
0.0638555
0.0628074
0.0623061
0.0622554
0.0626172
0.0634496
0.0649101
0.0670055
0.0697989
0.0735239
0.0780931
0.0839387
0.0753753
0.124617
0.15805
0.000757322
0.000767274
0.000782819
0.000800521
0.000818364
0.000835497
0.00085098
0.000864727
0.0008767
0.000887345
0.000897005
0.000906325
0.000915855
0.00092623
0.000937526
0.000951135
0.000967642
0.000987844
0.00101306
0.00104471
0.00108455
0.00113391
0.00119178
0.00114699
0.000997589
0.000974939
0.000952474
0.000930813
0.00091012
0.000890468
0.000871759
0.000853979
0.000837102
0.000821092
0.000805923
0.000791666
0.000778343
0.000765303
0.000756119
0.000768372
0.000787505
0.00080939
0.00083222
0.000854211
0.000874628
0.000893389
0.000910884
0.000927316
0.000942988
0.000958384
0.000974122
0.00099066
0.00100819
0.00102871
0.0010528
0.00108167
0.00111711
0.00116088
0.00121488
0.00127981
0.00135396
0.00140068
0.00134793
0.0019522
0.00233137
0.000997576
0.000974534
0.00095205
0.000930287
0.00090951
0.000889808
0.000871148
0.000853528
0.000836854
0.000821092
0.000806245
0.000792227
0.000779058
0.000762389
0.000760474
0.000780218
0.000808544
0.00084155
0.00087618
0.000910004
0.000941752
0.0009716
0.00099982
0.00102702
0.00105356
0.00108008
0.00110726
0.00113555
0.00116602
0.00120024
0.0012397
0.00128676
0.00134386
0.00141378
0.00149849
0.00159874
0.00171225
0.00183525
0.00198741
0.00226699
0.00266645
0.0009975
0.000974615
0.000952457
0.000930972
0.000910326
0.000890681
0.000871988
0.000854295
0.000837597
0.000821716
0.000806562
0.000792253
0.000778959
0.000760942
0.000771196
0.000806109
0.000853415
0.000906784
0.000961898
0.00101519
0.00106462
0.00111015
0.00115253
0.00119282
0.001232
0.00127138
0.00131242
0.00135559
0.00140331
0.00145821
0.00152314
0.00160131
0.0016969
0.00181392
0.00195592
0.0021265
0.00232923
0.00257533
0.00289923
0.00331894
0.00378808
0.00099722
0.000974204
0.000951924
0.000930378
0.000909741
0.000890115
0.000871505
0.000853986
0.00083737
0.000821344
0.000806126
0.000792111
0.000779067
0.000761012
0.000787085
0.000841486
0.000912282
0.000989211
0.00106871
0.00114474
0.0012153
0.00127944
0.00133787
0.00139251
0.00144518
0.00149825
0.00155378
0.00161336
0.0016805
0.00175842
0.00185138
0.00196401
0.00210235
0.00227246
0.00248153
0.0027401
0.00305803
0.00345127
0.00393695
0.00452151
0.00517664
0.000997393
0.000974372
0.000952053
0.000930471
0.000909833
0.00089026
0.000871709
0.000854177
0.000837518
0.000821584
0.000806418
0.000792338
0.000779183
0.000761068
0.000801009
0.00087409
0.000966493
0.00106659
0.00117052
0.00127006
0.00136213
0.0014468
0.00152419
0.00159621
0.00166525
0.00173396
0.00180497
0.00188031
0.00196546
0.0020641
0.00218244
0.0023268
0.00250419
0.00272275
0.00299355
0.00333183
0.00375306
0.0042692
0.00488269
0.00561265
0.00645115
0.000997279
0.000974253
0.000951957
0.000930399
0.000909752
0.000890186
0.000871624
0.000853949
0.000837255
0.000821541
0.000806583
0.000792216
0.000779108
0.000760936
0.000808771
0.000893307
0.000999899
0.00111603
0.00123682
0.00135236
0.00145923
0.00155739
0.0016476
0.00173174
0.00181267
0.001893
0.00197554
0.00206259
0.0021604
0.00227372
0.00240856
0.00257402
0.00277516
0.00302145
0.00332611
0.00370727
0.00417781
0.00474932
0.00541762
0.00622015
0.00712442
0.00099734
0.000974326
0.000952023
0.000930457
0.000909818
0.000890227
0.000871611
0.000853925
0.000837235
0.000821516
0.000806554
0.000792314
0.000778774
0.000761283
0.000805526
0.00088662
0.00098988
0.00110288
0.00122019
0.00133286
0.00143719
0.0015334
0.0016216
0.00170399
0.00178316
0.00186183
0.00194265
0.00202784
0.00212352
0.00223386
0.0023657
0.00252588
0.00272147
0.0029608
0.00325614
0.00362121
0.00407039
0.00460611
0.00523774
0.00599197
0.00685795
0.000997322
0.000974329
0.000952062
0.000930519
0.000909873
0.000890248
0.000871628
0.00085397
0.0008372
0.000821359
0.000806448
0.000792382
0.000779168
0.000761072
0.000794274
0.000860154
0.000945691
0.00104007
0.00113812
0.00123251
0.00132008
0.0014006
0.00147445
0.00154305
0.00160864
0.00167392
0.00174114
0.00181204
0.00189197
0.00198431
0.00209433
0.00222754
0.00239079
0.00259108
0.00283641
0.00313811
0.00350526
0.00394263
0.00445691
0.00507147
0.00579876
0.000997307
0.000974284
0.000951985
0.000930415
0.000909753
0.000890113
0.000871515
0.000853992
0.000837352
0.000821406
0.000806239
0.000792194
0.000778541
0.000760951
0.000779359
0.000825169
0.000886893
0.000956221
0.00102777
0.00109683
0.00116105
0.00121972
0.00127364
0.00132415
0.00137299
0.00142192
0.00147282
0.00152671
0.00158746
0.00165742
0.00174036
0.00184056
0.00196309
0.00211343
0.00229726
0.00252317
0.00279786
0.00312635
0.00350528
0.00395591
0.00448993
0.000997478
0.000974603
0.000952462
0.000930999
0.000910368
0.000890695
0.000871944
0.000854184
0.000837466
0.000821641
0.000806555
0.000792293
0.000779107
0.000761042
0.000766185
0.000793592
0.000831295
0.000874799
0.000920121
0.000964412
0.00100552
0.00104329
0.00107847
0.00111217
0.00114513
0.00117845
0.00121327
0.0012495
0.00129028
0.00133705
0.00139216
0.00145854
0.00153974
0.00163982
0.00176302
0.00191538
0.00210315
0.00233343
0.00259894
0.00291236
0.00333761
0.000997617
0.000974713
0.000952276
0.000930483
0.000909643
0.0008899
0.000871299
0.000853753
0.000837125
0.000821377
0.000806461
0.000792394
0.000779142
0.000762069
0.000758675
0.000774533
0.000797845
0.000825251
0.000854288
0.000882523
0.000908856
0.000932909
0.000955171
0.000976228
0.000996722
0.00101701
0.00103788
0.00105909
0.00108228
0.00110888
0.00114009
0.00117776
0.00122447
0.00128274
0.00135588
0.0014483
0.00156505
0.00171339
0.00166063
0.00252684
0.00306654
0.000997628
0.000975009
0.000952381
0.000930688
0.000909977
0.000890297
0.000871589
0.000853743
0.000836818
0.000820925
0.000805954
0.000791866
0.000778745
0.000764464
0.000755189
0.000765417
0.000781808
0.00080155
0.000821976
0.000842165
0.000861105
0.00087824
0.000893927
0.000908306
0.000921915
0.00093521
0.000948927
0.00096279
0.000978435
0.000996853
0.00101904
0.00104606
0.00107982
0.00112214
0.00117547
0.00124349
0.00133099
0.00144587
0.00139846
0.00207164
0.00250464
0.000745277
0.000729466
0.00072148
0.000706637
0.000693644
0.000683582
0.000673853
0.000664132
0.000654479
0.000644726
0.000635001
0.000625196
0.000615415
0.000605586
0.000595842
0.000586125
0.000576556
0.00056708
0.000557795
0.000548647
0.000539737
0.000531095
0.000523162
0.000515278
0.000997397
0.000974775
0.000952309
0.000930606
0.000909838
0.00089
0.000871065
0.000853028
0.000835866
0.000819523
0.000803953
0.000789135
0.000775038
0.000760249
0.000744185
0.000729617
0.000722082
0.000702997
0.000692492
0.000682999
0.000673484
0.000664001
0.000654386
0.000644699
0.000634929
0.000625153
0.000615327
0.000605526
0.000595743
0.000586063
0.000576468
0.000567034
0.000557734
0.000548637
0.00053972
0.000531026
0.000522504
0.000514022
0.00050723
0.000503328
0.000495414
0.000997256
0.000974254
0.000952055
0.000930512
0.000909684
0.000889695
0.000870651
0.000852581
0.000835439
0.000819164
0.000803732
0.000789152
0.000775446
0.000759167
0.000741903
0.000732876
0.000717787
0.000703697
0.00069353
0.000683669
0.00067387
0.000664176
0.000654399
0.000644623
0.000634784
0.000624979
0.00061512
0.000605321
0.000595528
0.00058586
0.000576261
0.000566842
0.00055754
0.000548462
0.000539531
0.000530834
0.000522242
0.000513793
0.000505641
0.000497926
0.000491497
0.000997255
0.000974061
0.000951753
0.000930329
0.00090976
0.000890056
0.000871174
0.000853125
0.000835947
0.000819628
0.000804135
0.00078946
0.0007756
0.000758998
0.000741676
0.000733277
0.000714303
0.000703903
0.000693772
0.000683973
0.000674242
0.000664617
0.000654895
0.000645214
0.000635454
0.000625726
0.000615931
0.000606198
0.000596469
0.000586857
0.000577315
0.000567943
0.000558688
0.000549652
0.000540747
0.000532085
0.000523522
0.000515228
0.000507247
0.000499786
0.000493505
0.000997366
0.000974166
0.000951738
0.000930088
0.000909276
0.000889447
0.00087055
0.000852507
0.000835319
0.000818971
0.000803426
0.000788696
0.000774778
0.00076071
0.000745704
0.000725837
0.000714143
0.000703785
0.000693677
0.00068385
0.000674099
0.000664418
0.000654674
0.000644968
0.000635196
0.000625446
0.000615648
0.000605918
0.000596204
0.000586614
0.0005771
0.000567768
0.000558561
0.000549593
0.000540774
0.000532247
0.000523875
0.000515873
0.000508189
0.000501067
0.000495163
0.000997365
0.000974216
0.000951868
0.000930276
0.00090939