/*--------------------------------*- C++ -*----------------------------------*\
  =========                 |
  \\      /  F ield         | OpenFOAM: The Open Source CFD Toolbox
   \\    /   O peration     | Website:  https://openfoam.org
    \\  /    A nd           | Version:  7
     \\/     M anipulation  |
\*---------------------------------------------------------------------------*/
FoamFile
{
    version     2.0;
    format      ascii;
    class       volScalarField;
    location    "300";
    object      nut;
}
// * * * * * * * * * * * * * * * * * * * * * * * * * * * * * * * * * * * * * //

dimensions      [0 2 -1 0 0 0 0];

internalField   nonuniform List<scalar> 
120313
(
0.00182483
0.00214861
0.00223781
0.00227363
0.00228705
0.00228123
0.00226143
0.00222097
0.00217619
0.002126
0.00207247
0.00202305
0.00198557
0.00194434
0.00190236
0.00186016
0.00181819
0.0017784
0.00173984
0.00170242
0.0016595
0.00161264
0.00152917
0.00129467
0.00211781
0.00280021
0.00295759
0.00302199
0.00304098
0.0030187
0.00299399
0.00294864
0.00289613
0.00283462
0.00277245
0.00271433
0.00265806
0.00260319
0.00254558
0.00248732
0.00242935
0.00237237
0.00231841
0.00226332
0.00220364
0.00212096
0.00199739
0.00151264
0.00214197
0.00285754
0.00303852
0.00311566
0.00314015
0.00311773
0.00308849
0.00304083
0.00298521
0.00292162
0.00285656
0.00279538
0.00273787
0.00268223
0.00262402
0.00256496
0.0025059
0.00244771
0.00239126
0.00233299
0.00226769
0.0021772
0.00203631
0.00152843
0.0021517
0.00287949
0.00306735
0.00314866
0.00317598
0.00315479
0.00312052
0.00307045
0.00301564
0.00295034
0.00288517
0.00282451
0.00276714
0.00271102
0.00265241
0.0025933
0.00253315
0.00247377
0.00241648
0.00235671
0.00228892
0.00219407
0.00204865
0.00153218
0.00215284
0.00288009
0.0030671
0.00314691
0.00317279
0.00315117
0.00311598
0.0030666
0.00301274
0.00294766
0.00288375
0.00282424
0.00276762
0.00271169
0.0026531
0.00259395
0.00253363
0.00247409
0.00241696
0.00235699
0.00228909
0.0021935
0.00204846
0.00153179
0.0021446
0.00285843
0.00303713
0.00311052
0.00313373
0.00311136
0.00307623
0.0030273
0.00297529
0.00291082
0.00284869
0.00279097
0.00273605
0.00268139
0.00262374
0.0025655
0.00250603
0.00244751
0.00239149
0.00233272
0.00226714
0.00217583
0.00203582
0.00152763
0.00211935
0.00279843
0.00295113
0.00301014
0.00302522
0.0029993
0.00296964
0.00292417
0.00287454
0.00281266
0.00275283
0.00269859
0.00264631
0.0025946
0.00253927
0.00248325
0.00242615
0.00236987
0.00231621
0.00226062
0.00220099
0.00211811
0.00199571
0.00151072
0.0018208
0.00214406
0.00223214
0.00226356
0.00227045
0.00225902
0.00223812
0.00219575
0.00215503
0.00210692
0.0020566
0.00201116
0.00197605
0.0019376
0.00189845
0.00185819
0.00181777
0.00177914
0.00174171
0.00170486
0.00166204
0.00161583
0.00153193
0.00129428
0.00249858
0.0048109
0.00668803
0.00813532
0.00919719
0.00984489
0.010041
0.00973026
0.0108833
0.011032
0.0118006
0.0122305
0.0124328
0.0125285
0.0126499
0.0126958
0.0126122
0.0124342
0.0121979
0.0119337
0.0116125
0.0112787
0.0109361
0.0105692
0.0102515
0.00991259
0.00958069
0.0092591
0.0089642
0.00868867
0.00840045
0.00816305
0.00792436
0.0077083
0.00757277
0.00751413
0.00266997
0.00494635
0.00680412
0.00823101
0.00924818
0.00979403
0.00979434
0.00914367
0.0101119
0.0149523
0.0166355
0.0171322
0.0172556
0.0171649
0.0170212
0.0170548
0.0168793
0.0165911
0.0162783
0.0158772
0.0154983
0.0150744
0.0146531
0.0142323
0.0138325
0.0134433
0.0130748
0.0127162
0.0123801
0.0120691
0.0117189
0.0115475
0.0103368
0.00998858
0.0077695
0.00728704
0.00281496
0.00512973
0.00699001
0.0084165
0.00942944
0.00996188
0.00991277
0.0091134
0.00963736
0.0141875
0.0168139
0.0176415
0.0177269
0.0175775
0.0173534
0.017334
0.0171423
0.0168625
0.0165491
0.0161419
0.015756
0.0153183
0.0149079
0.0144855
0.0140964
0.013708
0.0133549
0.0130079
0.0126909
0.0123954
0.0120509
0.011787
0.00981961
0.00921494
0.0073472
0.00702623
0.00294215
0.00529597
0.00716844
0.00860443
0.00963324
0.0101737
0.0100866
0.00915157
0.00941159
0.0138814
0.0168497
0.0177545
0.0178874
0.0177316
0.0174935
0.0174089
0.0172149
0.0169204
0.0166198
0.0162266
0.0158583
0.0154353
0.01504
0.0146246
0.0142457
0.013862
0.0135173
0.0131766
0.0128579
0.0125508
0.0122008
0.0118635
0.00961726
0.00895695
0.00708567
0.00682756
0.00305075
0.00542929
0.00730971
0.00875401
0.00979553
0.0103379
0.0102186
0.00921234
0.00938429
0.0138301
0.016913
0.0178182
0.0179832
0.0178436
0.0176079
0.0174829
0.017275
0.0169857
0.0167047
0.0163247
0.0159637
0.0155429
0.0151504
0.0147335
0.0143536
0.0139698
0.0136273
0.0132868
0.0129626
0.0126459
0.0122846
0.0119251
0.00957552
0.00888465
0.00699309
0.00675294
0.00311381
0.00550331
0.00738866
0.00883763
0.00988584
0.0104312
0.0102998
0.00926159
0.00941144
0.0138725
0.0169517
0.0178786
0.018048
0.0179207
0.017705
0.0175237
0.0173227
0.0170367
0.016767
0.0163962
0.0160387
0.0156168
0.0152228
0.0148026
0.014419
0.0140334
0.0136878
0.0133425
0.0130115
0.012689
0.0123175
0.0119633
0.00957736
0.00891144
0.00698643
0.00674105
0.0031156
0.00550032
0.00738719
0.00883852
0.00989141
0.0104461
0.0103256
0.00929316
0.00948409
0.0140187
0.0169804
0.0179391
0.0180836
0.0179539
0.0177434
0.0175293
0.0173413
0.0170447
0.0167797
0.0164195
0.0160671
0.0156464
0.0152513
0.0148284
0.0144406
0.0140525
0.0136991
0.013346
0.0130086
0.0126842
0.0123057
0.0119781
0.00964135
0.00898127
0.00703328
0.0067755
0.00305584
0.00542135
0.00730494
0.00875553
0.00981
0.0103794
0.0102957
0.00932011
0.00966382
0.0144327
0.0170478
0.0179588
0.0180411
0.0179215
0.0176908
0.017487
0.0172988
0.0170059
0.0167494
0.0163958
0.0160451
0.0156277
0.015229
0.0148003
0.014404
0.0140065
0.0136461
0.0132885
0.0129475
0.012627
0.0122433
0.0119803
0.00989226
0.00926805
0.00723023
0.00692005
0.00294925
0.00528061
0.00715442
0.00859946
0.00965072
0.0102335
0.0102017
0.00934024
0.0101492
0.0153105
0.0169895
0.0176164
0.0176558
0.0175405
0.0173611
0.0171669
0.0170386
0.0167699
0.0165154
0.0161679
0.0158166
0.0154184
0.0150321
0.0146176
0.0142233
0.0138291
0.0134571
0.0130958
0.0127418
0.0124226
0.0120578
0.0118533
0.0105515
0.0100854
0.00778547
0.00728282
0.0028088
0.00509273
0.006962
0.00840715
0.00945778
0.0100571
0.0101011
0.00942843
0.0106592
0.0161575
0.0166032
0.0170205
0.0171245
0.017054
0.0168893
0.0167689
0.016637
0.0164045
0.0161478
0.0158225
0.0155011
0.015122
0.014727
0.0143466
0.0139157
0.0135742
0.0131487
0.0128455
0.0124527
0.0122557
0.0119752
0.0116353
0.0110748
0.0107946
0.00831355
0.00762656
0.00261211
0.00488043
0.00676974
0.00823459
0.00931294
0.00996012
0.0100817
0.0095201
0.0107205
0.0108193
0.0114432
0.0118107
0.0119882
0.012041
0.0120898
0.0121091
0.0120332
0.0119134
0.0117194
0.0114886
0.0112358
0.0109342
0.0106163
0.0102896
0.00996134
0.00964598
0.00933648
0.00903779
0.00874806
0.00849154
0.00826281
0.00804319
0.00781941
0.00761947
0.00758079
0.00758159
0.00237622
0.00473857
0.00668482
0.00818867
0.00931497
0.0100752
0.0104393
0.0103705
0.0115501
0.011538
0.0122908
0.012677
0.0128611
0.0129276
0.0130443
0.0130904
0.0130197
0.0128988
0.0126654
0.0123935
0.0120807
0.0117383
0.0113905
0.0110441
0.0106954
0.010352
0.0100174
0.00969558
0.00939526
0.00911899
0.0088687
0.00863957
0.00843341
0.00825733
0.00812505
0.0079738
0.0178005
0.0185107
0.0189607
0.019348
0.0196499
0.0198597
0.0195782
0.0194116
0.018967
0.018643
0.0182506
0.017856
0.0174486
0.0170455
0.0166481
0.0162704
0.0159094
0.0155785
0.0152542
0.0149647
0.0146651
0.0144427
0.0141397
0.0141276
0.00460568
0.00799402
0.0106485
0.0126965
0.0141663
0.0151905
0.0159562
0.0166297
0.0173638
0.0180676
0.0184936
0.0188239
0.0190985
0.0193902
0.019721
0.0196959
0.0194896
0.0191272
0.0188466
0.0183855
0.0179785
0.0175481
0.0171281
0.0167155
0.0163261
0.0159526
0.0156114
0.0152773
0.014981
0.0146942
0.0144669
0.0142353
0.0139976
0.0139688
0.0134938
0.0132167
0.00483033
0.00823107
0.0108856
0.012906
0.0143482
0.0153493
0.0160946
0.0167339
0.0174885
0.0181729
0.0184092
0.0187061
0.0188491
0.0189053
0.0192686
0.0194969
0.0194436
0.0190997
0.0188651
0.0183871
0.0180047
0.0175142
0.017084
0.016661
0.0162787
0.0159021
0.0155768
0.0152467
0.0149903
0.0147223
0.0144777
0.0142956
0.0140003
0.0137696
0.0135673
0.0133526
0.00512416
0.0085763
0.0112222
0.0132142
0.0146411
0.0156387
0.0163739
0.0169531
0.0175925
0.0182178
0.0185137
0.0188252
0.0189245
0.0189021
0.0192203
0.0193662
0.0193795
0.0190865
0.0188767
0.0184191
0.0180913
0.0176091
0.0172328
0.0167787
0.0164266
0.0160254
0.0157259
0.0153925
0.015141
0.0148742
0.0146005
0.0144478
0.0140576
0.0137155
0.0134422
0.0132251
0.00539986
0.00891532
0.0115645
0.0135356
0.0149596
0.0159621
0.0166874
0.017203
0.0177211
0.0183342
0.01863
0.0190141
0.0190845
0.019054
0.0193585
0.019429
0.019356
0.0190842
0.018907
0.0184749
0.0181906
0.0177367
0.0173974
0.0169472
0.0166119
0.0162063
0.0159166
0.0155807
0.0153152
0.0150364
0.0147416
0.0145971
0.0141388
0.0137465
0.0134203
0.0132487
0.00562141
0.00918273
0.0118378
0.013797
0.0152197
0.0162252
0.0169427
0.0174191
0.0178637
0.0184479
0.0187543
0.0191238
0.0192297
0.0191886
0.0194625
0.0195278
0.0194114
0.0191522
0.0190144
0.0186034
0.0183308
0.0178763
0.0175454
0.0170926
0.0167623
0.0163537
0.0160669
0.0157243
0.0154441
0.0151556
0.0148465
0.0146963
0.0142143
0.0138028
0.0134878
0.0134242
0.00575038
0.00933552
0.0119916
0.0139437
0.0153659
0.016375
0.0170918
0.0175545
0.0179674
0.0185405
0.0188482
0.0192197
0.0193193
0.0192726
0.0194895
0.0195858
0.0194709
0.0192229
0.019103
0.0187074
0.0184391
0.0179802
0.0176485
0.0171912
0.0168575
0.0164488
0.0161573
0.0158092
0.015517
0.0152202
0.0149044
0.0147503
0.0142543
0.013846
0.0135246
0.0134951
0.00575362
0.00933707
0.0119945
0.0139481
0.0153746
0.0163902
0.0171154
0.0175908
0.0180165
0.0186062
0.0189318
0.0192832
0.0193583
0.0192912
0.0194667
0.0195828
0.0194736
0.0192418
0.0191293
0.0187556
0.0184961
0.0180386
0.0177065
0.0172466
0.0169089
0.0164978
0.0161997
0.0158451
0.0155454
0.0152423
0.0149223
0.01476
0.0142744
0.0138709
0.0135577
0.0135184
0.0056341
0.00918741
0.011846
0.0138109
0.0152475
0.0162737
0.0170186
0.0175398
0.018041
0.018683
0.0190156
0.0193193
0.0193681
0.0192628
0.0193948
0.0195512
0.0194754
0.0192574
0.0191505
0.0187881
0.0185309
0.0180763
0.0177438
0.0172835
0.0169415
0.0165242
0.0162188
0.0158577
0.0155552
0.0152479
0.0149273
0.014747
0.0143072
0.0139293
0.0136365
0.0135408
0.00542205
0.00891941
0.0115747
0.0135581
0.0150084
0.0160482
0.0168238
0.0174305
0.0180814
0.01879
0.0190667
0.0193077
0.0193446
0.0192142
0.0193077
0.0195423
0.0195171
0.0193102
0.0191966
0.0188201
0.0185487
0.0180963
0.017762
0.0173059
0.0169612
0.0165393
0.0162259
0.0158606
0.0155594
0.0152485
0.0149395
0.014725
0.0143801
0.0140667
0.0137984
0.0136252
0.00514507
0.00857456
0.0112321
0.0132458
0.0147121
0.0157629
0.0165659
0.0172609
0.0180623
0.0187877
0.0189836
0.0192274
0.0192878
0.0192265
0.0193862
0.0196628
0.0196706
0.019391
0.0192385
0.0188296
0.0185286
0.0180738
0.0177185
0.0172737
0.0169201
0.01651
0.0161849
0.0158298
0.015543
0.015241
0.0149739
0.014742
0.014427
0.014184
0.0139433
0.0137027
0.00482724
0.00822129
0.0108997
0.0129566
0.0144459
0.0155074
0.0163173
0.01704
0.0178448
0.0185428
0.0188589
0.0191721
0.0193248
0.0194478
0.0197693
0.0199004
0.0197139
0.0193867
0.0191821
0.0187566
0.0183682
0.0179174
0.0175005
0.017096
0.0167113
0.0163433
0.0159987
0.0156735
0.0153999
0.0151178
0.0148873
0.0146718
0.0143894
0.0143647
0.013841
0.013527
0.00460263
0.00799269
0.0106972
0.0127843
0.014295
0.0153715
0.0161834
0.0168892
0.0176484
0.0181733
0.0185541
0.0187856
0.0190594
0.0193952
0.0197593
0.0196929
0.0194509
0.0191043
0.0188034
0.0183712
0.017961
0.0175445
0.0171353
0.0167419
0.0163691
0.0160206
0.0156956
0.0153945
0.0151142
0.0148628
0.0146623
0.0144916
0.0142337
0.0142661
0.0138686
0.0136014
0.0144325
0.0149454
0.0150096
0.0147592
0.0146135
0.0143883
0.0135328
0.0132117
0.0123594
0.0121786
0.0119361
0.0117548
0.0115861
0.0114663
0.0113657
0.0113147
0.01128
0.0112973
0.0112726
0.0112966
0.0112104
0.0113572
0.0112051
0.011494
0.00492423
0.00732163
0.00913308
0.0105255
0.0118002
0.0129378
0.0139255
0.0147962
0.0147541
0.014681
0.0152312
0.0155128
0.0153069
0.0149765
0.0147774
0.0143205
0.014152
0.013445
0.0133334
0.0127147
0.0125192
0.012298
0.0121316
0.0119901
0.0119064
0.0118384
0.0118075
0.0117255
0.0117633
0.0117111
0.0119793
0.0118184
0.0118447
0.0120659
0.0123706
0.012495
0.00514614
0.00758628
0.00931258
0.0106872
0.0119849
0.0131595
0.0141982
0.0151313
0.0152316
0.015095
0.0155279
0.0158441
0.0157314
0.0153335
0.0149366
0.01461
0.0148985
0.0141543
0.0142598
0.0135184
0.0134068
0.0128804
0.0126852
0.0125124
0.012408
0.0122673
0.0123151
0.012151
0.0124228
0.0121995
0.0123782
0.0121997
0.0121768
0.0121258
0.0117582
0.0115844
0.00544542
0.00795909
0.00963832
0.0110277
0.0123272
0.0135197
0.0146024
0.0155864
0.0157634
0.0154517
0.0158486
0.0161194
0.0161558
0.0157268
0.015235
0.014806
0.0150713
0.0144994
0.0146135
0.013889
0.0140155
0.0134237
0.0134694
0.013017
0.0131092
0.0127395
0.0129488
0.0126477
0.0128875
0.0126152
0.0126311
0.0125729
0.0123906
0.0124035
0.0117899
0.0115876
0.00576551
0.00836815
0.0099874
0.0113751
0.0126865
0.0139074
0.0150255
0.0160261
0.0162385
0.0157608
0.0160012
0.0164748
0.0164559
0.0160436
0.0155444
0.0151155
0.0150662
0.0145858
0.014769
0.014069
0.0143195
0.0137316
0.0138947
0.0133753
0.0135464
0.0131136
0.013371
0.0130215
0.0131567
0.0128935
0.0128508
0.0128335
0.0125937
0.012548
0.0120249
0.0119502
0.00598733
0.00863186
0.010245
0.0116629
0.0129951
0.01423
0.0153608
0.0163554
0.0165455
0.0159378
0.0161994
0.0165578
0.0166619
0.0162829
0.0157944
0.0153498
0.0151382
0.0147382
0.0150437
0.0143483
0.014597
0.013966
0.0141641
0.0136074
0.0138142
0.0133515
0.0136265
0.0132367
0.0133007
0.0130599
0.0129772
0.0129284
0.0128633
0.012606
0.0127824
0.0126346
0.00609705
0.00876381
0.0103985
0.0118427
0.0131694
0.0144016
0.0155403
0.0165358
0.0167029
0.0160547
0.0163023
0.016673
0.0168065
0.0164739
0.0159822
0.0155194
0.0152147
0.0148863
0.0152031
0.0145391
0.0147752
0.0141197
0.0143224
0.0137475
0.0139552
0.0134987
0.0137405
0.0133584
0.0133657
0.0131349
0.0130658
0.0130002
0.0129489
0.0126642
0.012923
0.0127932
0.00609735
0.00876326
0.0103994
0.0118456
0.0131726
0.0144077
0.0155521
0.016553
0.0167095
0.0160884
0.0163817
0.0167402
0.0168733
0.0165575
0.0160673
0.0155427
0.0152806
0.0149355
0.0152141
0.0146183
0.014853
0.0141911
0.0143916
0.0138089
0.0140095
0.013552
0.0137706
0.0133905
0.0133782
0.0131486
0.013073
0.013001
0.0129327
0.0126565
0.0128884
0.0127585
0.00598936
0.00862487
0.0102391
0.0116696
0.0130124
0.0142584
0.0154043
0.0164146
0.0165779
0.0160534
0.016416
0.0167513
0.0168615
0.0165298
0.0160373
0.0154598
0.0153093
0.014939
0.0151808
0.0146202
0.0148514
0.0141941
0.0143953
0.0138079
0.0139964
0.0135285
0.0137398
0.0133535
0.0133535
0.0131249
0.0130297
0.0129474
0.0128567
0.0126477
0.0126836
0.0125639
0.0057763
0.00836524
0.00997347
0.0113753
0.0127142
0.0139642
0.0151119
0.0161416
0.0163196
0.0159209
0.0163312
0.0166748
0.0167325
0.0163735
0.0158764
0.0153111
0.0152587
0.0148868
0.0150953
0.0144916
0.0147156
0.0140916
0.0142985
0.0137211
0.0139065
0.0134201
0.0136427
0.0132437
0.0132874
0.0130572
0.0129541
0.0128535
0.0127407
0.0125923
0.012363
0.0121777
0.00546523
0.0079768
0.00962374
0.0110325
0.0123643
0.0135955
0.0147204
0.0157441
0.0158816
0.0155711
0.0160341
0.0163996
0.0163745
0.0160056
0.0155407
0.0150673
0.0150529
0.014583
0.0147966
0.0140801
0.0142798
0.0136805
0.0138598
0.0133504
0.0135256
0.0130786
0.0132762
0.0129357
0.0131248
0.0128279
0.0128449
0.0127856
0.0123727
0.0124149
0.0119109
0.0117581
0.00517363
0.00759853
0.0092936
0.0107204
0.0120506
0.0132522
0.0143292
0.0152973
0.0153287
0.0150877
0.0156618
0.0159755
0.0158344
0.015503
0.0151761
0.0148092
0.0146591
0.0138568
0.0140501
0.0133572
0.0131973
0.0127901
0.0126621
0.0125283
0.0124629
0.012363
0.0123554
0.0122734
0.0125174
0.0123307
0.0125848
0.0123625
0.0124695
0.0125527
0.0128008
0.0129531
0.00498592
0.00736388
0.00915885
0.0106178
0.0119224
0.0130639
0.0140729
0.0149618
0.0148912
0.0147061
0.0153413
0.0155952
0.0154013
0.0150755
0.0148961
0.0144619
0.0140214
0.0132955
0.0130833
0.0125785
0.0123792
0.0121907
0.0120438
0.0119276
0.0118532
0.011812
0.011791
0.0117543
0.0117976
0.0117968
0.0121311
0.0119989
0.0121273
0.0124652
0.012825
0.0129269
0.00467826
0.00447143
0.00419011
0.00403331
0.00382742
0.00374133
0.00358881
0.00342566
0.00328885
0.00320522
0.00314703
0.00311795
0.00309775
0.00310383
0.00311845
0.0031577
0.00321883
0.00327478
0.00342818
0.00357819
0.00377018
0.00394773
0.00422319
0.00422702
0.00288411
0.00349652
0.00406217
0.00467829
0.00542354
0.00633766
0.00734966
0.00813376
0.00782253
0.00489651
0.00481013
0.00441652
0.00423215
0.0040366
0.00385461
0.00375977
0.00360998
0.00358165
0.00347877
0.00339508
0.00334615
0.00331435
0.00330878
0.0033129
0.00335483
0.00339619
0.00348458
0.00364874
0.00383234
0.00402118
0.00424052
0.00452714
0.00458483
0.00468208
0.00613396
0.00714066
0.00307348
0.00368465
0.0042491
0.00487132
0.00570425
0.00659735
0.00765636
0.0084723
0.00830757
0.00512306
0.00502933
0.00473249
0.00448645
0.00429887
0.00410564
0.00397951
0.00388481
0.0038544
0.00376363
0.00373643
0.00366911
0.00361773
0.00359216
0.00358988
0.0036363
0.00370876
0.00385936
0.004057
0.00425609
0.00449296
0.00475857
0.00501897
0.00533733
0.00548769
0.00577268
0.00605057
0.00314135
0.00389822
0.00445342
0.00508476
0.00591415
0.00685098
0.00796809
0.00887173
0.00878485
0.00577921
0.00548427
0.00520539
0.00484017
0.00461467
0.00441021
0.00424292
0.00407974
0.00404821
0.00395608
0.00394901
0.00389352
0.0039031
0.00387566
0.00392216
0.00401005
0.00415736
0.00434747
0.00456171
0.00479502
0.0050497
0.00534275
0.00569686
0.00609828
0.00626233
0.0063781
0.00657514
0.00339654
0.00398336
0.00460661
0.00530125
0.00620679
0.00715304
0.0082797
0.0092726
0.0092855
0.00606639
0.0057886
0.00555345
0.0051132
0.00490018
0.00465286
0.00451915
0.00428131
0.00419372
0.00409186
0.00408786
0.00404721
0.00408791
0.00410756
0.00422327
0.0043542
0.00453917
0.00472816
0.0049633
0.00520674
0.00550538
0.00590967
0.00623591
0.00669954
0.00694076
0.0069716
0.00711172
0.00338243
0.00412385
0.00478663
0.00550616
0.00641448
0.00740813
0.00855155
0.00958294
0.00963447
0.00635886
0.00606437
0.00579357
0.00538194
0.00511521
0.00488322
0.00468808
0.00451402
0.0044098
0.00428955
0.00426414
0.00421586
0.00427785
0.00431512
0.00445774
0.00459642
0.00479293
0.00498904
0.00522667
0.00548658
0.00581254
0.00623531
0.00660052
0.0071008
0.00729475
0.00731626
0.00746837
0.00344665
0.0042769
0.00489622
0.00558678
0.00650125
0.00754904
0.00869997
0.00975333
0.00980449
0.006554
0.00625899
0.00595735
0.0055863
0.00526055
0.00502907
0.0048073
0.00466479
0.00457127
0.00446023
0.00443138
0.00437696
0.00443664
0.00447127
0.00461234
0.00474608
0.0049369
0.00513384
0.00536735
0.005621
0.00596668
0.00637784
0.0067892
0.00718308
0.00740902
0.0072939
0.00762741
0.00346336
0.00429719
0.00490199
0.00558332
0.00649691
0.00754911
0.0087023
0.00976253
0.00976679
0.00659418
0.00627308
0.00597571
0.00561837
0.00528626
0.00505769
0.00483093
0.00467876
0.00458006
0.00446484
0.00444119
0.00438863
0.00444757
0.00448066
0.00461965
0.00474751
0.00493843
0.00512884
0.00536362
0.00560505
0.00592881
0.00635152
0.00675708
0.00708819
0.00730012
0.00723856
0.0075193
0.00337717
0.00416073
0.00480335
0.00550833
0.00640674
0.00740984
0.00856386
0.00960742
0.00958421
0.00642361
0.00611529
0.00586048
0.00548012
0.00519183
0.00496363
0.00474545
0.00457319
0.00445573
0.00432986
0.00431367
0.00426512
0.00431703
0.00435132
0.00447925
0.00460696
0.00479509
0.00498754
0.00520426
0.00544404
0.00570986
0.00606815
0.00644965
0.00678105
0.0070121
0.00698578
0.00725437
0.00337032
0.00399466
0.00462315
0.00531435
0.00621182
0.00716043
0.00830583
0.00932701
0.00925113
0.00607784
0.00579931
0.00560344
0.00519377
0.00497554
0.00473265
0.00455297
0.00434228
0.00422257
0.00415637
0.00415671
0.00411835
0.00414084
0.00415179
0.00425898
0.00436352
0.00454373
0.00473142
0.00494809
0.00516076
0.00539882
0.00569877
0.00600735
0.00639817
0.00652356
0.00665119
0.00678425
0.00319885
0.00391233
0.00446857
0.0050876
0.00593027
0.00687314
0.00801901
0.00893981
0.00882359
0.00542857
0.00532833
0.00510506
0.00478831
0.00459023
0.00440288
0.00421541
0.00403633
0.00398919
0.0039277
0.00392427
0.00387981
0.00389704
0.00388073
0.00393071
0.00399455
0.00413963
0.00432236
0.00453794
0.00473644
0.00495942
0.00521847
0.00548976
0.00585165
0.00599698
0.0061762
0.00643365
0.00295601
0.00372658
0.00429255
0.0049098
0.0057508
0.00661702
0.00768398
0.0085343
0.00833752
0.00512384
0.00498583
0.00464835
0.00443318
0.00426362
0.00407313
0.00394018
0.00378846
0.00373133
0.00364314
0.00362032
0.0035465
0.00351012
0.0034996
0.00351123
0.00355512
0.00360928
0.00374586
0.00394764
0.00414685
0.00436834
0.00465792
0.00489117
0.00522943
0.00537571
0.00675417
0.00768797
0.00277182
0.00354632
0.00407326
0.00467468
0.0054358
0.006335
0.00735591
0.00821367
0.00798588
0.00483138
0.0047004
0.0043446
0.00420032
0.00400483
0.00386708
0.00379917
0.00360365
0.00355027
0.00342031
0.00334394
0.00329865
0.00327718
0.00327422
0.00328731
0.00332797
0.00337776
0.00347016
0.00363324
0.00381144
0.00401989
0.00429115
0.00452387
0.00490182
0.00488381
0.00651958
0.00758346
0.000126636
0.000170317
0.000203565
0.00022965
0.000248599
0.000263916
0.000274891
0.000283257
0.000289676
0.000295799
0.000301831
0.000308642
0.000316461
0.000325848
0.000333554
0.000348247
0.000364171
0.000382621
0.000405572
0.000434426
0.0004671
0.000505399
0.000549344
0.000503081
9.01588e-06
9.13693e-06
9.16299e-06
9.21512e-06
9.15756e-06
9.13221e-06
6.71635e-06
4.39907e-06
4.54812e-06
8.81926e-06
2.48131e-05
5.84204e-05
9.92368e-05
0.000110696
0.000123887
0.00017672
0.00021481
0.000244502
0.00026662
0.000282949
0.000295769
0.000306364
0.000316447
0.000325567
0.000334223
0.000343093
0.000352722
0.000363531
0.000374738
0.000389507
0.000406818
0.000427814
0.000454087
0.000486196
0.000524395
0.000569143
0.000619295
0.00065138
0.000609809
0.00102468
0.00128822
9.01189e-06
9.15533e-06
9.19416e-06
9.25153e-06
9.1697e-06
9.13139e-06
8.44811e-06
5.62063e-06
4.77138e-06
9.15294e-06
2.75256e-05
6.76366e-05
0.000117574
0.000133363
0.000146919
0.000203869
0.000248822
0.000282361
0.000308383
0.000327836
0.000342705
0.000356142
0.000368538
0.000380762
0.000392629
0.000404579
0.000416863
0.000429961
0.000444569
0.000462449
0.000483914
0.000511172
0.000545333
0.000587541
0.000636585
0.000693644
0.000756312
0.000823678
0.000893672
0.000989819
0.00112234
9.0144e-06
9.16241e-06
9.19649e-06
9.18626e-06
9.15608e-06
9.12332e-06
7.62862e-06
5.39084e-06
5.02794e-06
1.18761e-05
3.87688e-05
9.22221e-05
0.000165265
0.000182391
0.000189447
0.000255496
0.000308608
0.000346652
0.000375522
0.000396892
0.000412416
0.000425089
0.000437018
0.000449023
0.000461389
0.000474762
0.000489934
0.000504752
0.000523443
0.000548605
0.000579719
0.00061799
0.000665365
0.000721813
0.00078759
0.000863589
0.000950377
0.0010499
0.00115238
0.00126428
0.00142186
9.04165e-06
9.19318e-06
9.21306e-06
9.21455e-06
9.16537e-06
9.13313e-06
8.0729e-06
4.58004e-06
5.6584e-06
1.80152e-05
5.77811e-05
0.00013079
0.00024327
0.000252222
0.000237983
0.000309877
0.000369052
0.000407435
0.000442646
0.000464664
0.000481725
0.000493851
0.000504007
0.000514674
0.000526382
0.000540815
0.00055736
0.000576707
0.00060193
0.000633456
0.000672009
0.000719332
0.00077949
0.000848204
0.000929747
0.00102774
0.00113891
0.0012676
0.00138594
0.00151814
0.00170086
9.04384e-06
9.17299e-06
9.19313e-06
9.19489e-06
9.18914e-06
9.12582e-06
6.91243e-06
4.09409e-06
6.76519e-06
2.20074e-05
7.04677e-05
0.000169763
0.000316733
0.000308442
0.000273805
0.000352384
0.000416145
0.000458398
0.000498516
0.000522615
0.000540045
0.000554397
0.000565898
0.000577271
0.000589585
0.000605326
0.000621701
0.000642418
0.000670855
0.000705929
0.000749085
0.000804703
0.000871873
0.000949426
0.00104092
0.0011559
0.00128519
0.0014276
0.00155383
0.0017192
0.00189894
9.04298e-06
9.15417e-06
9.21786e-06
9.20637e-06
9.18304e-06
9.11541e-06
6.05264e-06
4.26096e-06
6.79038e-06
2.21199e-05
7.68675e-05
0.00019111
0.000352971
0.000336623
0.000291457
0.000375656
0.00044368
0.000490769
0.000532469
0.000558433
0.000576827
0.000591903
0.000604931
0.000617573
0.000631343
0.000648531
0.000665279
0.000686906
0.000716749
0.000752134
0.000801343
0.000859054
0.000927027
0.00100602
0.00110464
0.00121946
0.00136147
0.00150069
0.00164617
0.00177796
0.00202324
9.04367e-06
9.2034e-06
9.2139e-06
9.26707e-06
9.18216e-06
9.12124e-06
6.10734e-06
4.30491e-06
6.62247e-06
2.18865e-05
7.70448e-05
0.000189901
0.000351291
0.000334389
0.000284171
0.000369138
0.000437881
0.00048553
0.000527479
0.000553644
0.000572053
0.00058757
0.000600255
0.000612924
0.000626614
0.000643394
0.000661288
0.000680952
0.000711256
0.000748188
0.000793094
0.000851169
0.000919808
0.000998329
0.00109006
0.00120924
0.00133542
0.00147952
0.00160318
0.00176535
0.00194673
9.01957e-06
9.16383e-06
9.21958e-06
9.25952e-06
9.17511e-06
9.11674e-06
6.64685e-06
4.15375e-06
6.63019e-06
2.11013e-05
6.92114e-05
0.000171155
0.000319661
0.000301996
0.000256975
0.000337659
0.00040364
0.000450519
0.000487305
0.000513451
0.000531821
0.000546435
0.000558496
0.000569819
0.000582168
0.00059727
0.000614192
0.000634324
0.000661479
0.000695171
0.000736692
0.000788539
0.000852366
0.000925407
0.00101074
0.00111186
0.00122765
0.0013524
0.00146262
0.00162494
0.00179467
9.04347e-06
9.17552e-06
9.17357e-06
9.20598e-06
9.16906e-06
9.12662e-06
8.08996e-06
4.54869e-06
5.74755e-06
1.81741e-05
5.7448e-05
0.000132594
0.00025056
0.000246143
0.000214747
0.000288041
0.000348939
0.000392083
0.000425072
0.00044866
0.000465933
0.000478751
0.000489783
0.000501167
0.000513669
0.000527922
0.000544397
0.000562867
0.000586782
0.000616209
0.000652817
0.000697525
0.000752828
0.000816173
0.000889771
0.000975868
0.00107388
0.00118005
0.00128771
0.00138785
0.00156892
9.04254e-06
9.19557e-06
9.19367e-06
9.25035e-06
9.17026e-06
9.12477e-06
8.01059e-06
5.58453e-06
4.99675e-06
1.20287e-05
3.96813e-05
9.51785e-05
0.000175002
0.000181308
0.000170105
0.000232529
0.00028287
0.000320147
0.00034861
0.000370043
0.000385199
0.000397202
0.000408538
0.000420669
0.000433102
0.000446617
0.00046174
0.000474133
0.000494689
0.000518636
0.000547939
0.000584029
0.000628471
0.000680575
0.000741352
0.000812583
0.000894334
0.000988422
0.00107512
0.00117286
0.00130959
8.9801e-06
9.1534e-06
9.19025e-06
9.22211e-06
9.16336e-06
9.12923e-06
7.88253e-06
4.71664e-06
4.84489e-06
1.09344e-05
3.19636e-05
7.42127e-05
0.000128648
0.000138431
0.00013818
0.000193166
0.00023453
0.000266741
0.000291758
0.00031015
0.00032421
0.000335402
0.000345538
0.000355532
0.000365988
0.000376138
0.000387142
0.000397179
0.000410503
0.00042722
0.000447092
0.000472121
0.000505125
0.000544963
0.000591315
0.000648065
0.000713911
0.000792545
0.000746519
0.00120945
0.0015495
9.04669e-06
9.19495e-06
9.18524e-06
9.20108e-06
9.19367e-06
9.13029e-06
5.90086e-06
4.07154e-06
4.61763e-06
9.24418e-06
2.60158e-05
6.2431e-05
0.000107894
0.000118051
0.000122883
0.000171175
0.000207091
0.000236214
0.000255331
0.000275436
0.000289257
0.000299515
0.000308733
0.000316633
0.000324504
0.000332696
0.000341944
0.000349748
0.000361511
0.000376381
0.000394101
0.000415469
0.000442463
0.000475549
0.000515155
0.000564024
0.000621786
0.000693212
0.000626354
0.00110427
0.00143848
8.55735e-06
8.28034e-06
8.07828e-06
7.95067e-06
7.9004e-06
7.91721e-06
7.98388e-06
8.08666e-06
8.21544e-06
8.36467e-06
8.5315e-06
8.71562e-06
8.91815e-06
9.14161e-06
9.3837e-06
9.65923e-06
9.9732e-06
1.03345e-05
1.07588e-05
1.12655e-05
1.18765e-05
1.26107e-05
1.34544e-05
1.33291e-05
8.99999e-06
8.98423e-06
8.96885e-06
8.95385e-06
8.9393e-06
8.92538e-06
8.91124e-06
8.89683e-06
8.8822e-06
8.86698e-06
8.85274e-06
8.84487e-06
8.84238e-06
8.97095e-06
8.60482e-06
8.29282e-06
8.0625e-06
7.91568e-06
7.86606e-06
7.89577e-06
7.98411e-06
8.11574e-06
8.2818e-06
8.47511e-06
8.6912e-06
8.92913e-06
9.19012e-06
9.47539e-06
9.78455e-06
1.01349e-05
1.05335e-05
1.09941e-05
1.15374e-05
1.21875e-05
1.29712e-05
1.39084e-05
1.49965e-05
1.58766e-05
1.58053e-05
2.25154e-05
2.69362e-05
8.99979e-06
8.98074e-06
8.96068e-06
8.94154e-06
8.92386e-06
8.90801e-06
8.89423e-06
8.88222e-06
8.87175e-06
8.86439e-06
8.86242e-06
8.86476e-06
8.8691e-06
8.88376e-06
8.52128e-06
8.17927e-06
7.92839e-06
7.80714e-06
7.80907e-06
7.90601e-06
8.07106e-06
8.28725e-06
8.54371e-06
8.83425e-06
9.15565e-06
9.50708e-06
9.88995e-06
1.03053e-05
1.07609e-05
1.12712e-05
1.18518e-05
1.2529e-05
1.33334e-05
1.4304e-05
1.54714e-05
1.68617e-05
1.84719e-05
2.02829e-05
2.25125e-05
2.62558e-05
3.14989e-05
9.00112e-06
8.98661e-06
8.97236e-06
8.95794e-06
8.94325e-06
8.92905e-06
8.91526e-06
8.9029e-06
8.89263e-06
8.88322e-06
8.87404e-06
8.86785e-06
8.85851e-06
8.8564e-06
8.39205e-06
7.99103e-06
7.76212e-06
7.72765e-06
7.84922e-06
8.07959e-06
8.38119e-06
8.73184e-06
9.12128e-06
9.5451e-06
1.00034e-05
1.05001e-05
1.1043e-05
1.16329e-05
1.22906e-05
1.30432e-05
1.39213e-05
1.49622e-05
1.62202e-05
1.77499e-05
1.96087e-05
2.18593e-05
2.45725e-05
2.79047e-05
3.22471e-05
3.78719e-05
4.42444e-05
8.99735e-06
8.98053e-06
8.96393e-06
8.94763e-06
8.93202e-06
8.91803e-06
8.90588e-06
8.89552e-06
8.88574e-06
8.87481e-06
8.86605e-06
8.86492e-06
8.85817e-06
8.85772e-06
8.21997e-06
7.78185e-06
7.63818e-06
7.73572e-06
8.01916e-06
8.41413e-06
8.88056e-06
9.38957e-06
9.92947e-06
1.05001e-05
1.11063e-05
1.17596e-05
1.24727e-05
1.32574e-05
1.41451e-05
1.51691e-05
1.63744e-05
1.78182e-05
1.9581e-05
2.17391e-05
2.4398e-05
2.77063e-05
3.18152e-05
3.69605e-05
4.3339e-05
5.11421e-05
6.00031e-05
8.99941e-06
8.98262e-06
8.96577e-06
8.94949e-06
8.93417e-06
8.92039e-06
8.90793e-06
8.89704e-06
8.88722e-06
8.87765e-06
8.86856e-06
8.86601e-06
8.85827e-06
8.85844e-06
8.09613e-06
7.67193e-06
7.6275e-06
7.85984e-06
8.30113e-06
8.85869e-06
9.48498e-06
1.01569e-05
1.08598e-05
1.15926e-05
1.23627e-05
1.31842e-05
1.40717e-05
1.50411e-05
1.61412e-05
1.74099e-05
1.89123e-05
2.0732e-05
2.29556e-05
2.56874e-05
2.90774e-05