/*--------------------------------*- C++ -*----------------------------------*\
  =========                 |
  \\      /  F ield         | OpenFOAM: The Open Source CFD Toolbox
   \\    /   O peration     | Website:  https://openfoam.org
    \\  /    A nd           | Version:  7
     \\/     M anipulation  |
\*---------------------------------------------------------------------------*/
FoamFile
{
    version     2.0;
    format      ascii;
    class       volScalarField;
    location    "300";
    object      p;
}
// * * * * * * * * * * * * * * * * * * * * * * * * * * * * * * * * * * * * * //

dimensions      [0 2 -2 0 0 0 0];

internalField   nonuniform List<scalar> 
120313
(
-19.1505
-17.77
-16.1412
-14.3824
-12.6126
-10.9498
-9.31341
-7.79064
-6.45279
-5.29105
-4.30848
-3.46475
-2.7557
-2.17123
-1.69523
-1.30952
-0.996658
-0.743435
-0.539168
-0.381419
-0.251637
-0.135753
-0.0329416
0.00828611
-19.135
-17.7835
-16.1593
-14.4362
-12.7353
-11.0103
-9.35264
-7.84845
-6.50647
-5.34605
-4.35341
-3.50266
-2.79243
-2.20836
-1.72817
-1.33976
-1.02663
-0.774723
-0.569631
-0.406671
-0.273498
-0.155919
-0.04382
0.00533229
-19.078
-17.7525
-16.1378
-14.4108
-12.7466
-11.0227
-9.35454
-7.85878
-6.51826
-5.36233
-4.3674
-3.51497
-2.80295
-2.2172
-1.73441
-1.34444
-1.0302
-0.777284
-0.570404
-0.408663
-0.276031
-0.152868
-0.040653
0.00435029
-19.0574
-17.7425
-16.1351
-14.404
-12.7436
-11.027
-9.36505
-7.86752
-6.52824
-5.37279
-4.37692
-3.52414
-2.81075
-2.22326
-1.73919
-1.34853
-1.03379
-0.78074
-0.573636
-0.412544
-0.279521
-0.154995
-0.0428955
0.000946233
-19.0503
-17.7362
-16.1312
-14.3994
-12.739
-11.0289
-9.37292
-7.8747
-6.53598
-5.37985
-4.38305
-3.52952
-2.81495
-2.22589
-1.74101
-1.34982
-1.03465
-0.781254
-0.5739
-0.413111
-0.280271
-0.155791
-0.0434135
-0.00168271
-19.0571
-17.7344
-16.1264
-14.3958
-12.7354
-11.0279
-9.37423
-7.87828
-6.53979
-5.38284
-4.38544
-3.53083
-2.81557
-2.2252
-1.73988
-1.34824
-1.03269
-0.778855
-0.571377
-0.410818
-0.278966
-0.155893
-0.0439359
-0.00251994
-19.1005
-17.754
-16.1406
-14.4172
-12.7321
-11.0138
-9.37183
-7.88022
-6.53892
-5.37862
-4.38099
-3.52734
-2.81214
-2.22121
-1.73673
-1.34533
-1.02993
-0.776378
-0.570079
-0.408903
-0.277412
-0.160385
-0.0494468
-0.00532078
-19.1142
-17.732
-16.1178
-14.3738
-12.6104
-10.9294
-9.33658
-7.83579
-6.49366
-5.33359
-4.34203
-3.49598
-2.7797
-2.1872
-1.70439
-1.31479
-0.999988
-0.74523
-0.540666
-0.384568
-0.255961
-0.140822
-0.0412996
0.00156605
-20.5207
-20.9642
-21.4169
-21.7673
-21.9907
-22.0674
-21.9662
-21.7026
-20.7968
-19.8154
-18.4743
-16.8561
-15.1408
-13.3894
-11.6557
-9.97883
-8.42128
-7.00982
-5.7772
-4.72955
-3.82759
-3.08836
-2.47279
-1.96566
-1.55628
-1.21996
-0.944198
-0.718287
-0.534083
-0.380939
-0.257774
-0.160695
-0.0888014
-0.0278978
0.0395774
0.0302557
-20.4997
-20.9671
-21.4244
-21.7753
-21.9994
-22.0773
-21.9793
-21.7382
-20.8229
-19.5464
-18.2194
-16.5599
-14.8486
-13.1077
-11.3868
-9.72758
-8.18529
-6.82737
-5.6293
-4.60888
-3.74714
-3.03182
-2.44004
-1.94976
-1.5479
-1.22059
-0.956602
-0.740105
-0.562354
-0.414084
-0.292534
-0.184155
-0.14222
-0.107764
0.0842933
-0.0342389
-20.4692
-20.9608
-21.4307
-21.787
-22.0147
-22.0956
-22.0005
-21.7485
-20.8263
-19.5332
-18.2867
-16.605
-14.9018
-13.1652
-11.4243
-9.75165
-8.23401
-6.87014
-5.68203
-4.6665
-3.79552
-3.06756
-2.47445
-1.98072
-1.57535
-1.24429
-0.977349
-0.762068
-0.583676
-0.433388
-0.309836
-0.195378
-0.191222
-0.143209
0.0765152
-0.0701944
-20.444
-20.9522
-21.4353
-21.7987
-22.0301
-22.112
-22.0133
-21.7407
-20.7924
-19.4922
-18.2912
-16.6085
-14.9125
-13.1769
-11.4341
-9.7569
-8.25082
-6.88262
-5.69918
-4.68171
-3.80828
-3.07663
-2.48123
-1.98686
-1.58061
-1.2486
-0.981842
-0.766973
-0.588313
-0.437828
-0.310853
-0.199926
-0.217563
-0.156029
0.0777943
-0.0777228
-20.4278
-20.948
-21.4398
-21.8077
-22.0412
-22.1225
-22.02
-21.7403
-20.7792
-19.4724
-18.2871
-16.6063
-14.9145
-13.1822
-11.4408
-9.76764
-8.26263
-6.89328
-5.71123
-4.69124
-3.8179
-3.08434
-2.4868
-1.9919
-1.58519
-1.25269
-0.98562
-0.770716
-0.592109
-0.44187
-0.314452
-0.203567
-0.229231
-0.159336
0.0773609
-0.0819488
-20.4227
-20.9481
-21.4429
-21.812
-22.0458
-22.1265
-22.0215
-21.738
-20.7691
-19.4617
-18.2772
-16.5982
-14.9091
-13.1801
-11.4435
-9.77473
-8.26998
-6.90099
-5.71871
-4.69736
-3.8234
-3.08871
-2.48969
-1.9939
-1.58663
-1.2536
-0.986257
-0.77118
-0.59254
-0.442464
-0.315024
-0.204274
-0.229441
-0.162988
0.077802
-0.0835858
-20.4293
-20.9513
-21.4435
-21.8106
-22.0433
-22.1235
-22.0189
-21.7371
-20.7701
-19.4622
-18.2637
-16.5868
-14.8982
-13.1716
-11.4404
-9.77514
-8.27164
-6.90372
-5.72017
-4.6988
-3.82396
-3.08916
-2.48971
-1.99282
-1.58489
-1.25142
-0.984007
-0.76872
-0.590122
-0.440181
-0.313571
-0.202899
-0.218829
-0.161305
0.0771976
-0.0840966
-20.4494
-20.9579
-21.4415
-21.8036
-22.0331
-22.1127
-22.0107
-21.7351
-20.7789
-19.4844
-18.2455
-16.5751
-14.8831
-13.1557
-11.4285
-9.77149
-8.26544
-6.90014
-5.71364
-4.69246
-3.81961
-3.08679
-2.48731
-1.98955
-1.58116
-1.24774
-0.979884
-0.764179
-0.586004
-0.437063
-0.314334
-0.200857
-0.19441
-0.15297
0.0768101
-0.0822112
-20.4821
-20.9693
-21.4377
-21.7915
-22.0162
-22.0938
-21.9943
-21.7385
-20.7963
-19.485
-18.1674
-16.5234
-14.8236
-13.0909
-11.3827
-9.75174
-8.22821
-6.86328
-5.67143
-4.64532
-3.77812
-3.05618
-2.45581
-1.95973
-1.55312
-1.22365
-0.95853
-0.742125
-0.565908
-0.419132
-0.298323
-0.191395
-0.150352
-0.123863
0.0804504
-0.0729141
-20.5241
-20.9813
-21.4312
-21.7761
-21.9954
-22.069
-21.9673
-21.7275
-20.8109
-19.483
-18.1002
-16.4855
-14.7846
-13.0518
-11.3509
-9.72276
-8.21009
-6.84443
-5.65098
-4.63074
-3.75756
-3.03119
-2.43222
-1.93598
-1.52931
-1.19759
-0.928597
-0.712631
-0.539611
-0.398405
-0.283725
-0.191822
-0.12764
-0.105936
0.0802036
-0.0629468
-20.5679
-20.9841
-21.4208
-21.762
-21.9796
-22.0514
-21.9452
-21.694
-20.7444
-19.7396
-18.3947
-16.799
-15.0989
-13.3572
-11.6382
-9.98242
-8.44189
-7.04904
-5.80556
-4.74709
-3.8461
-3.09533
-2.47506
-1.96301
-1.54835
-1.2068
-0.927143
-0.698498
-0.515566
-0.372478
-0.258936
-0.165567
-0.0946809
-0.0474964
-0.000989183
-0.0364259
-20.5864
-20.9709
-21.4095
-21.7546
-21.9755
-22.0503
-21.9465
-21.7079
-20.7652
-19.741
-18.4049
-16.8213
-15.1241
-13.3888
-11.6732
-10.0127
-8.4709
-7.07179
-5.82951
-4.77634
-3.86848
-3.12044
-2.49837
-1.98886
-1.5688
-1.22159
-0.937095
-0.707923
-0.526618
-0.38331
-0.268321
-0.174092
-0.100852
-0.0408607
0.0102833
-0.0216734
-19.6304
-18.1846
-16.6831
-14.9829
-13.2421
-11.5201
-9.88458
-8.3822
-7.03974
-5.86407
-4.85108
-3.98603
-3.25932
-2.65463
-2.15278
-1.74077
-1.39804
-1.11483
-0.879112
-0.682242
-0.520049
-0.385995
-0.281363
-0.213915
-20.7523
-21.1108
-21.4983
-21.8304
-22.0719
-22.1876
-22.1184
-21.8553
-21.0249
-19.6473
-18.2516
-16.6891
-14.9922
-13.2528
-11.5364
-9.89956
-8.39277
-7.04553
-5.86321
-4.84974
-3.98196
-3.25238
-2.64483
-2.13993
-1.72523
-1.38219
-1.09869
-0.86473
-0.670988
-0.511438
-0.379963
-0.275363
-0.191377
-0.146681
0.0797586
0.0142705
-20.7461
-21.1127
-21.5039
-21.8374
-22.0808
-22.1963
-22.1258
-21.878
-21.0068
-19.6167
-18.2838
-16.7111
-15.0208
-13.2851
-11.5725
-9.93382
-8.42529
-7.07923
-5.89583
-4.87952
-4.00939
-3.27772
-2.66802
-2.1602
-1.74051
-1.39562
-1.11231
-0.878303
-0.683895
-0.523757
-0.390792
-0.28413
-0.211444
-0.134824
-0.0888107
0.062999
-20.7334
-21.1147
-21.5134
-21.8514
-22.0979
-22.2139
-22.1437
-21.9087
-21.0042
-19.601
-18.3082
-16.7371
-15.0577
-13.3203
-11.5904
-9.95068
-8.4559
-7.10922
-5.93102
-4.91615
-4.0418
-3.30377
-2.69105
-2.18055
-1.75819
-1.41115
-1.12596
-0.891124
-0.694944
-0.533103
-0.401388
-0.295611
-0.238422
-0.153932
-0.101345
0.0986649
-20.7173
-21.1149
-21.5245
-21.8675
-22.1159
-22.2319
-22.1604
-21.9242
-20.9833
-19.5697
-18.3005
-16.7368
-15.0686
-13.3353
-11.5988
-9.9561
-8.46616
-7.12021
-5.94537
-4.93028
-4.05507
-3.31466
-2.70006
-2.18828
-1.76448
-1.41648
-1.13052
-0.894963
-0.698504
-0.537179
-0.406761
-0.302392
-0.257653
-0.165616
-0.114722
0.101122
-20.7059
-21.118
-21.5341
-21.8791
-22.1292
-22.245
-22.1718
-21.9342
-20.9716
-19.5508
-18.2896
-16.7308
-15.0709
-13.3434
-11.6077
-9.96682
-8.47718
-7.13069
-5.95709
-4.94014
-4.0641
-3.3225
-2.70677
-2.19424
-1.7698
-1.42102
-1.13426
-0.898305
-0.701994
-0.541005
-0.411322
-0.307961
-0.268278
-0.173489
-0.123853
0.0980209
-20.7038
-21.1225
-21.5389
-21.8836
-22.1349
-22.2509
-22.1757
-21.9365
-20.9631
-19.5417
-18.2799
-16.7227
-15.0679
-13.3446
-11.6119
-9.97405
-8.48463
-7.13755
-5.96373
-4.94536
-4.06848
-3.32606
-2.70936
-2.19601
-1.77109
-1.42168
-1.13437
-0.898184
-0.702033
-0.54131
-0.411702
-0.308521
-0.269337
-0.175169
-0.127343
0.0956533
-20.7089
-21.1251
-21.5387
-21.8811
-22.1309
-22.2457
-22.1702
-21.9313
-20.959
-19.5418
-18.273
-16.7152
-15.0601
-13.3375
-11.6091
-9.97358
-8.48503
-7.13859
-5.96417
-4.94571
-4.06821
-3.32552
-2.70839
-2.19433
-1.76906
-1.4193
-1.13185
-0.895648
-0.699692
-0.539207
-0.40923
-0.305422
-0.262293
-0.171339
-0.125587
0.0945815
-20.721
-21.1256
-21.5338
-21.8718
-22.117
-22.2301
-22.1551
-21.917
-20.9578
-19.5555
-18.2708
-16.7116
-15.049
-13.3229
-11.5999
-9.96927
-8.48047
-7.13512
-5.95929
-4.94136
-4.06476
-3.3225
-2.70474
-2.19002
-1.76441
-1.41452
-1.12677
-0.890529
-0.694836
-0.534636
-0.404198
-0.299802
-0.245825
-0.161097
-0.120984
0.0930233
-20.7415
-21.1261
-21.5238
-21.8559
-22.0958
-22.2062
-22.1309
-21.8915
-20.951
-19.5598
-18.2536
-16.6946
-15.0186
-13.288
-11.5804
-9.96056
-8.46544
-7.11926
-5.93944
-4.92051
-4.04752
-3.30894
-2.69047
-2.17573
-1.7505
-1.40165
-1.11486
-0.878681
-0.683878
-0.524683
-0.393529
-0.288378
-0.220825
-0.144697
-0.115531
0.0848954
-20.765
-21.1274
-21.5111
-21.8357
-22.0718
-22.1802
-22.1031
-21.862
-20.9505
-19.5584
-18.2325
-16.6736
-14.9893
-13.2573
-11.5556
-9.94072
-8.44917
-7.10162
-5.91851
-4.89928
-4.02484
-3.28692
-2.67098
-2.15818
-1.73402
-1.38514
-1.09864
-0.863428
-0.669723
-0.511955
-0.38376
-0.281787
-0.204914
-0.138172
-0.106926
0.0502962
-20.7824
-21.1266
-21.5
-21.8185
-22.0528
-22.161
-22.0844
-21.8408
-20.9823
-19.554
-18.2173
-16.6626
-14.9733
-13.2408
-11.5395
-9.92164
-8.42922
-7.08323
-5.90034
-4.88022
-4.00783
-3.27482
-2.66177
-2.15264
-1.73105
-1.38271
-1.09591
-0.860444
-0.667491
-0.510325
-0.38115
-0.279202
-0.192566
-0.144004
0.0858489
-0.00406999
-20.7861
-21.1248
-21.4942
-21.8103
-22.0455
-22.1562
-22.0816
-21.8295
-20.9982
-19.5418
-18.2257
-16.6648
-14.97
-13.2358
-11.5314
-9.91024
-8.41735
-7.07298
-5.89294
-4.87849
-4.01126
-3.28215
-2.67198
-2.1647
-1.74399
-1.39488
-1.10585
-0.869285
-0.676883
-0.520896
-0.389743
-0.286899
-0.189773
-0.153121
0.119479
0.0124643
-19.3804
-17.9582
-16.5505
-14.9332
-13.2407
-11.5812
-9.99858
-8.5338
-7.21738
-6.05298
-5.04375
-4.18171
-3.45121
-2.83812
-2.32259
-1.89545
-1.53651
-1.24175
-0.9923
-0.788582
-0.610792
-0.474434
-0.340517
-0.281598
-20.8358
-21.1176
-21.5097
-21.8481
-22.098
-22.2342
-22.1741
-21.8853
-20.9247
-19.4321
-18.0215
-16.5915
-14.9674
-13.2654
-11.5934
-10.0024
-8.53734
-7.22424
-6.06072
-5.04799
-4.18106
-3.44898
-2.83349
-2.31784
-1.88905
-1.53203
-1.23653
-0.990098
-0.785546
-0.614275
-0.474589
-0.359781
-0.258832
-0.213128
0.0559889
0.0193049
-20.8484
-21.1321
-21.5121
-21.8476
-22.1011
-22.2335
-22.17
-21.8971
-20.9231
-19.4196
-18.0271
-16.5914
-14.974
-13.2717
-11.5918
-9.99573
-8.53552
-7.22644
-6.06682
-5.05821
-4.19196
-3.45965
-2.84316
-2.32742
-1.89706
-1.54072
-1.24437
-0.999245
-0.794336
-0.625703
-0.485843
-0.368329
-0.278221
-0.188115
-0.130215
-0.0264749
-20.8626
-21.1434
-21.5226
-21.8642
-22.1208
-22.2466
-22.1773
-21.9097
-20.9194
-19.3962
-18.0342
-16.6026
-14.9911
-13.2895
-11.601
-10.0022
-8.54453
-7.23428
-6.07709
-5.07195
-4.20629
-3.47328
-2.85713
-2.34163
-1.91042
-1.5537
-1.2564
-1.01208
-0.80717
-0.639282
-0.500552
-0.382569
-0.298701
-0.199935
-0.135056
-0.0144477
-20.848
-21.151
-21.5455
-21.8896
-22.1419
-22.2602
-22.1894
-21.9299
-20.9093
-19.3754
-18.0176
-16.5925
-14.9928
-13.299
-11.6104
-10.0116
-8.54967
-7.235
-6.08003
-5.07745
-4.2127
-3.47979
-2.86426
-2.34968
-1.91841
-1.56156
-1.26389
-1.02023
-0.816477
-0.650039
-0.510755
-0.391443
-0.31305
-0.205997
-0.140535
-0.0123285
-20.8382
-21.171
-21.5633
-21.9012
-22.1558
-22.2747
-22.2021
-21.9456
-20.8994
-19.3636
-18.0003
-16.5763
-14.9887
-13.3034
-11.6181
-10.0203
-8.55589
-7.23859
-6.08518
-5.08325
-4.21767
-3.48522
-2.87032
-2.35589
-1.92418
-1.56726
-1.26971
-1.02706
-0.824405
-0.657665
-0.518192
-0.398198
-0.321225
-0.211618
-0.146265
-0.0137081
-20.8455
-21.1884
-21.565
-21.9015
-22.1653
-22.2829
-22.2058
-21.9486
-20.8923
-19.3579
-17.99
-16.5662
-14.9862
-13.3057
-11.6234
-10.0278
-8.5616
-7.24234
-6.08855
-5.08587
-4.21995
-3.4872
-2.87178
-2.35684
-1.92462
-1.56753
-1.27021
-1.02783
-0.82564
-0.658578
-0.519023
-0.398709
-0.321545
-0.213007
-0.14948
-0.0147795
-20.8515
-21.1925
-21.5635
-21.897
-22.1603
-22.2762
-22.1978
-21.9397
-20.8863
-19.3534
-17.9859
-16.5635
-14.9835
-13.3039
-11.6238
-10.0279
-8.56163
-7.24165
-6.08693
-5.08433
-4.21846
-3.48556
-2.87018
-2.35478
-1.92259
-1.56518
-1.268
-1.02527
-0.823119
-0.656176
-0.516625
-0.396292
-0.317266
-0.209628
-0.148199
-0.0158733
-20.8535
-21.1825
-21.5603
-21.8873
-22.1385
-22.2542
-22.1793
-21.9214
-20.8802
-19.3518
-17.9889
-16.5694
-14.981
-13.298
-11.6188
-10.0235
-8.55689
-7.23694
-6.08136
-5.07923
-4.21357
-3.47956
-2.86338
-2.3476
-1.91558
-1.55804
-1.26054
-1.01695
-0.814304
-0.64785
-0.50891
-0.389353
-0.306402
-0.20188
-0.144102
-0.0166119
-20.8662
-21.164
-21.543
-21.8697
-22.112
-22.2248
-22.1526
-21.894
-20.8725
-19.3452
-17.9915
-16.5746
-14.9738
-13.2859
-11.6116
-10.0192
-8.55272
-7.23433
-6.07623
-5.07228
-4.2063
-3.47189
-2.85414
-2.33724
-1.90538
-1.54783
-1.25057
-1.00611
-0.802749
-0.636465
-0.498076
-0.38042
-0.292415
-0.193785
-0.142017
-0.0213011
-20.8833
-21.1569
-21.5181
-21.8389
-22.0845
-22.2006
-22.1296
-21.8669
-20.865
-19.3403
-17.9848
-16.567
-14.959
-13.2671
-11.5977
-10.0116
-8.55144
-7.23523
-6.07462
-5.06581
-4.19668
-3.46131
-2.84277
-2.32508
-1.89312
-1.53526
-1.23775
-0.992667
-0.789034
-0.622343
-0.484737
-0.37124
-0.280629
-0.190177
-0.143388
-0.0325854
-20.8723
-21.1609
-21.5057
-21.8131
-22.0625
-22.1872
-22.1193
-21.8518
-20.8599
-19.325
-17.9749
-16.5596
-14.9477
-13.2537
-11.5929
-10.018
-8.55923
-7.24266
-6.07974
-5.06725
-4.19638
-3.4606
-2.84073
-2.32239
-1.88925
-1.53026
-1.23178
-0.985489
-0.781027
-0.614625
-0.474277
-0.364831
-0.265353
-0.21126
0.0599816
0.0122072
-20.8593
-21.1635
-21.502
-21.8023
-22.0592
-22.193
-22.1234
-21.844
-20.8515
-19.2769
-17.94
-16.5395
-14.9261
-13.2361
-11.5894
-10.0252
-8.56482
-7.24865
-6.08446
-5.07172
-4.20346
-3.46896
-2.84926
-2.33043
-1.89597
-1.53506
-1.23467
-0.987631
-0.781554
-0.61452
-0.471684
-0.361361
-0.257396
-0.22335
0.0878805
0.0358627
-18.6684
-17.1864
-15.988
-14.5527
-13.0014
-11.4804
-10.0168
-8.63199
-7.38339
-6.28612
-5.31803
-4.47108
-3.74401
-3.12895
-2.60265
-2.15744
-1.77543
-1.45563
-1.17838
-0.946653
-0.743165
-0.571529
-0.425605
-0.278501
-20.4932
-20.7634
-21.0873
-21.4077
-21.6211
-21.7524
-21.6731
-21.2534
-20.1631
-18.7292
-17.2401
-16.0241
-14.5843
-13.0265
-11.49
-10.0126
-8.63135
-7.38957
-6.29275
-5.32352
-4.47359
-3.74445
-3.12634
-2.60023
-2.15262
-1.77274
-1.45045
-1.17681
-0.9426
-0.744211
-0.573881
-0.431174
-0.293381
-0.170269
0.0229452
0.0249581
-20.4476
-20.7947
-21.0749
-21.3773
-21.6004
-21.7262
-21.6486
-21.2379
-20.1501
-18.7494
-17.2527
-16.0286
-14.5937
-13.0381
-11.4955
-10.0052
-8.6234
-7.38608
-6.2955
-5.32748
-4.47879
-3.75087
-3.13145
-2.60371
-2.15465
-1.7737
-1.44952
-1.17626
-0.94316
-0.747447
-0.578403
-0.435027
-0.313714
-0.20668
-0.120242
-0.0465042
-20.5312
-20.7397
-21.0532
-21.3893
-21.6299
-21.739
-21.6472
-21.2443
-20.1459
-18.7573
-17.2695
-16.0457
-14.6132
-13.059
-11.516
-10.0143
-8.62518
-7.39196
-6.29969
-5.32748
-4.48017
-3.75667
-3.13817
-2.60944
-2.15883
-1.77772
-1.45406
-1.18214
-0.949967
-0.753588
-0.584326
-0.441155
-0.328624
-0.222448
-0.134424
-0.0482209
-20.4107
-20.7664
-21.0769
-21.4191
-21.6451
-21.7436
-21.6605
-21.2802
-20.1435
-18.7637
-17.2842
-16.056
-14.6234
-13.0736
-11.53
-10.0224
-8.6328
-7.39443
-6.29482
-5.32085
-4.47788
-3.75706
-3.13872
-2.61174
-2.1616
-1.78082
-1.45704
-1.18592
-0.952564
-0.754371
-0.586843
-0.444868
-0.337722
-0.229282
-0.139798
-0.0487331
-20.3646
-20.7819
-21.0878
-21.4102
-21.6519
-21.7595
-21.6815
-21.3022
-20.1341
-18.7632
-17.2887
-16.0615
-14.6264
-13.0788
-11.5364
-10.0248
-8.63788
-7.39602
-6.291
-5.32016
-4.47888
-3.76
-3.14252
-2.61578
-2.16502
-1.78379
-1.46053
-1.18902
-0.954861
-0.756675
-0.590591
-0.448812
-0.342869
-0.232312
-0.143551
-0.0504085
-20.3952
-20.7882
-21.0605
-21.4012
-21.6715
-21.7696
-21.6833
-21.3031
-20.1243
-18.7596
-17.2895
-16.068
-14.6295
-13.0814
-11.5402
-10.0315
-8.64134
-7.39642
-6.28812
-5.31899
-4.4793
-3.76018
-3.1419
-2.61483
-2.16336
-1.78225
-1.45933
-1.18743
-0.953091
-0.754682
-0.58925
-0.447669
-0.341968
-0.230931
-0.14313
-0.0502923
-20.4042
-20.7943
-21.0575
-21.3967
-21.6675
-21.7611
-21.6734
-21.2951
-20.1181
-18.7515
-17.2806
-16.0658
-14.6281
-13.08
-11.5428
-10.0338
-8.64287
-7.39558
-6.28692
-5.31649
-4.47689
-3.75833
-3.14054
-2.61346
-2.16217
-1.78128
-1.4588
-1.18696
-0.952963
-0.754477
-0.588925
-0.447339
-0.339985
-0.229014
-0.14214
-0.0502889
-20.3933
-20.7962
-21.0806
-21.3874
-21.6361
-21.738
-21.6564
-21.2768
-20.1121
-18.7342
-17.2662
-16.055
-14.6201
-13.0717
-11.5366
-10.0318
-8.63513
-7.39109
-6.28489
-5.31344
-4.47197
-3.75139
-3.13343
-2.60667
-2.15617
-1.77556
-1.45329
-1.1819
-0.94871
-0.750129
-0.583892
-0.441928
-0.331782
-0.222022
-0.136395
-0.0480766
-20.4284
-20.7857
-21.0731
-21.3908
-21.6063
-21.702
-21.6217
-21.2443
-20.1086
-18.7099
-17.2503
-16.0373
-14.6067
-13.0599
-11.5295
-10.0327
-8.63118
-7.38982
-6.29004
-5.31677
-4.47176
-3.74935
-3.12991
-2.60209
-2.15232
-1.77159
-1.44944
-1.17784
-0.946194
-0.748735
-0.581132
-0.438293
-0.3236
-0.215318
-0.131857
-0.0476962
-20.5442
-20.765
-21.0486
-21.3587
-21.5878
-21.6842
-21.5949
-21.2
-20.0927
-18.6821
-17.2188
-16.0122
-14.5829
-13.0365
-11.51
-10.0244
-8.63046
-7.3868
-6.29404
-5.32243
-4.47101
-3.74443
-3.12556
-2.59733
-2.14757
-1.7661
-1.44286
-1.17001
-0.939575
-0.743546
-0.577114
-0.43297
-0.314076
-0.200064
-0.124359
-0.0506128
-20.4821
-20.841
-21.055
-21.3291
-21.5636
-21.6749
-21.5924
-21.1877
-20.0883
-18.6481
-17.1997
-16
-14.5705
-13.0219
-11.4975
-10.03
-8.64719
-7.39659
-6.3002
-5.33679
-4.48368
-3.75006
-3.12766
-2.60002
-2.14902
-1.76825
-1.44188
-1.16799
-0.934835
-0.739954
-0.571858
-0.430054
-0.296704
-0.164091
0.045044
0.0121132
-20.5066
-20.8563
-21.0567
-21.3233
-21.5872
-21.7151
-21.6195
-21.202
-20.0762
-18.6047
-17.1546
-15.9669
-14.5398
-12.993
-11.4778
-10.0319
-8.65495
-7.39963
-6.30118
-5.33771
-4.48784
-3.75404
-3.13144
-2.60465
-2.15341
-1.77261
-1.44596
-1.17235
-0.935682
-0.739946
-0.56743
-0.430078
-0.289615
-0.159884
0.0637555
0.0447122
-17.5434
-16.557
-15.426
-14.1195
-12.7438
-11.3846
-10.0622
-8.78665
-7.62936
-6.62496
-5.72127
-4.88795
-4.15587
-3.53093
-2.98727
-2.516
-2.10556
-1.75191
-1.44266
-1.17895
-0.944129
-0.745317
-0.575603
-0.410296
-18.3138
-18.2552
-18.2201
-18.1086
-17.992
-18.8172
-19.6774
-20.1992
-20.6323
-20.8126
-20.8263
-20.5993
-20.033
-18.9781
-17.5306
-16.577
-15.4306
-14.1232
-12.7499
-11.3849
-10.0695
-8.80143
-7.63524
-6.62007
-5.71906
-4.8941
-4.16006
-3.53063
-2.98751
-2.51515
-2.10578
-1.75086
-1.44471
-1.17795
-0.948942
-0.74537
-0.573601
-0.414154
-0.283954
-0.187762
-0.0651481
-18.2732
-18.2715
-18.2356
-18.132
-18.0094
-18.747
-19.6662
-20.211
-20.6255
-20.8045
-20.8109
-20.5858
-20.031
-18.966
-17.5299
-16.5743
-15.4253
-14.1223
-12.7499
-11.3829
-10.0594
-8.79058
-7.62315
-6.62151
-5.72242
-4.88601
-4.15428
-3.52848
-2.98504
-2.5122
-2.10193
-1.74758
-1.44123
-1.17663
-0.946846
-0.746181
-0.57115
-0.4182
-0.277391
-0.159262
-0.073926
-18.2691
-18.2756
-18.2429
-18.1327
-17.9871
-18.7236
-19.6617
-20.2371
-20.6319
-20.8132
-20.8077
-20.5862
-20.0442
-18.972
-17.4975
-16.5666
-15.4357
-14.1384
-12.7646
-11.3957
-10.0536
-8.77473
-7.64012
-6.63862
-5.71678
-4.87851
-4.156
-3.53152
-2.98613
-2.51223
-2.10144
-1.748
-1.44197
-1.17917
-0.948733
-0.751053
-0.573715
-0.423635
-0.28098
-0.160798
-0.0700908
-18.2714
-18.2796
-18.2494
-18.1413
-17.982
-18.6483
-19.6257
-20.2242
-20.6368
-20.7951
-20.8081
-20.5951
-20.0768
-18.9835
-17.4661
-16.562
-15.446
-14.1486
-12.7759
-11.3987
-10.0354
-8.77503
-7.65981
-6.63846
-5.69973
-4.87044
-4.15747
-3.53115
-2.98365
-2.5081
-2.09784
-1.74459
-1.43933
-1.17698
-0.946657
-0.750582
-0.574075
-0.423352
-0.283498
-0.162597
-0.0695999
-18.2752
-18.2844
-18.2573
-18.16
-18.0347
-18.5707
-19.6175
-20.2029
-20.6416
-20.8017
-20.8194
-20.6142
-20.0826
-18.9907
-17.4426
-16.5578
-15.4516
-14.1522
-12.7841
-11.3971
-10.0215
-8.78559
-7.67479
-6.63087
-5.69577
-4.87949
-4.16302
-3.53212
-2.98307
-2.5074
-2.09741
-1.74464
-1.43998
-1.17819
-0.948266
-0.754069
-0.576894
-0.426757
-0.287386
-0.165867
-0.0709872
-18.2786
-18.2886
-18.2632
-18.1684
-18.0437
-18.5617
-19.5978
-20.2294
-20.6343
-20.8327
-20.8265
-20.6194
-20.0827
-18.9958
-17.4354
-16.5521
-15.4508
-14.1526
-12.7878
-11.3908
-10.0251
-8.79144
-7.67248
-6.62756
-5.69405
-4.88096
-4.16145
-3.52939
-2.97977
-2.50421
-2.09416
-1.74156
-1.43702
-1.17523
-0.945608
-0.752034
-0.574318
-0.42517
-0.285689
-0.163852
-0.068769
-18.2812
-18.2916
-18.2669
-18.1725
-18.0467
-18.5761
-19.596
-20.2384
-20.6208
-20.8097
-20.8193
-20.6116
-20.0732
-18.9859
-17.4347
-16.5401
-15.4436
-14.1487
-12.7836
-11.396
-10.0223
-8.78881
-7.67639
-6.629
-5.69351
-4.87923
-4.16166
-3.5305
-2.98071
-2.50535
-2.0952
-1.74289
-1.43811
-1.17635
-0.946776
-0.752339
-0.576016
-0.426466
-0.287087
-0.166222
-0.0710567
-18.2829
-18.2932
-18.2684
-18.1755
-18.0583
-18.5692
-19.6054
-20.2088
-20.6286
-20.7974
-20.8041
-20.5935
-20.0593
-18.9693
-17.4396
-16.5353
-15.434
-14.1403
-12.7736
-11.3887
-10.0325
-8.77831
-7.66273
-6.6351
-5.69158
-4.87144
-4.1573
-3.52805
-2.97864
-2.50292
-2.09265
-1.74027
-1.43497
-1.17335
-0.942826
-0.747599
-0.571558
-0.422712
-0.28342
-0.163757
-0.0699554
-18.2841
-18.2935
-18.2666
-18.1673
-18.0247
-18.6538
-19.6289
-20.2071
-20.6182
-20.7664
-20.7778
-20.5631
-20.0355
-18.9619
-17.4497
-16.5366
-15.42
-14.127
-12.7591
-11.3901
-10.0541
-8.76851
-7.64655
-6.64468
-5.70477
-4.87152
-4.15453
-3.52953
-2.98209
-2.50711
-2.09591
-1.74343
-1.43708
-1.1756
-0.944526
-0.749171
-0.571229
-0.423893
-0.282581
-0.162704
-0.0698858
-18.2861
-18.2932
-18.2644
-18.1648
-18.0259
-18.7412
-19.6645
-20.2178
-20.5992
-20.7663
-20.7656
-20.5402
-20.0083
-18.9326
-17.4645
-16.5295
-15.4026
-14.1087
-12.7408
-11.3796
-10.057
-8.78068
-7.62963
-6.63111
-5.72036
-4.88002
-4.15161
-3.52642
-2.98099
-2.50699
-2.09603
-1.74255
-1.43616
-1.17389
-0.943879
-0.747583
-0.570462
-0.421996
-0.276725
-0.161319
-0.0726461
-18.2964
-18.2907
-18.2593
-18.1663
-18.0726
-18.7328
-19.6725
-20.1943
-20.5945
-20.7682
-20.7685
-20.5389
-19.9783
-18.9068
-17.4772
-16.5385
-15.4062
-14.1064
-12.74
-11.3796
-10.0749
-8.80547
-7.63426
-6.62313
-5.72904
-4.90313
-4.16278
-3.53163
-2.98741
-2.5136
-2.10317
-1.74687
-1.44091
-1.17517
-0.946925
-0.744371
-0.571639
-0.426844
-0.272154
-0.169035
-0.0718702
-18.3638
-18.2779
-18.2473
-18.1364
-18.0139
-18.8386
-19.696
-20.1858
-20.5849
-20.7823
-20.7816
-20.5474
-19.9667
-18.8987
-17.4536
-16.5128
-15.3854
-14.0887
-12.7243
-11.3664
-10.0696
-8.8097
-7.63571
-6.61891
-5.72699
-4.90899
-4.16917
-3.53375
-2.98993
-2.51583
-2.10592
-1.74893
-1.44321
-1.17541
-0.94744
-0.741864
-0.572226
-0.432465
-0.274775
-0.175753
-0.0635378
-17.0809
-16.0389
-14.9354
-13.742
-12.5086
-11.2818
-10.0839
-8.94059
-7.8708
-6.90259
-6.02117
-5.21908
-4.49558
-3.85956
-3.29802
-2.80629
-2.37284
-1.99488
-1.66152
-1.37123
-1.11185
-0.885543
-0.686432
-0.504605
-18.3419
-18.3322
-18.3271
-18.3419
-18.4706
-18.8868
-19.3587
-19.6952
-19.9123
-19.9839
-19.8969
-19.6178
-19.1102
-18.2273
-17.0523
-16.0693
-14.9489
-13.7496
-12.5155
-11.2848
-10.0864
-8.94252
-7.87461
-6.90146
-6.01954
-5.21752
-4.49659
-3.85928
-3.29808
-2.80509
-2.37225
-1.99338
-1.66153
-1.36986
-1.11292
-0.883024
-0.679384
-0.493864
-0.345985
-0.213038
-0.0845132
-18.3372
-18.3345
-18.3306
-18.3454
-18.4708
-18.878
-19.3576
-19.6971
-19.9089
-19.9799
-19.8943
-19.6165
-19.1119
-18.2068
-17.0586
-16.0732
-14.9451
-13.7476
-12.5138
-11.2823
-10.082
-8.9378
-7.87181
-6.89826
-6.01805
-5.2146
-4.49284
-3.85602
-3.29497
-2.8016
-2.36906
-1.99024
-1.65881
-1.36734
-1.10951
-0.878996
-0.670167
-0.490777
-0.337286
-0.198995
-0.0865327
-18.3372
-18.3369
-18.3339
-18.3463
-18.4641
-18.8675
-19.3527
-19.6961
-19.9055
-19.9785
-19.8934
-19.6185
-19.1158
-18.2076
-17.0561
-16.0836
-14.9614
-13.7619
-12.5256
-11.2907
-10.087
-8.93989
-7.87782
-6.9073
-6.02052
-5.21367
-4.4929
-3.85676
-3.2949
-2.80168
-2.36885
-1.99076
-1.65928
-1.36786
-1.10879
-0.875944
-0.670206
-0.495623
-0.340865
-0.201707
-0.0875628
-18.3395
-18.3402
-18.3382
-18.3492
-18.4617
-18.8561
-19.3426
-19.6887
-19.9034
-19.9774
-19.8955
-19.623
-19.1219
-18.2073
-17.056
-16.0949
-14.9738
-13.769
-12.5292
-11.2909
-10.0834
-8.93833
-7.88123
-6.90704
-6.01441
-5.20597
-4.48773
-3.85144
-3.28963
-2.79687
-2.36465
-1.98748
-1.65574
-1.36493
-1.10405
-0.871927
-0.670805
-0.496443
-0.340623
-0.201857
-0.0864837
-18.3426
-18.3437
-18.3428
-18.3554
-18.466
-18.8468
-19.3346
-19.6835
-19.9028
-19.9776
-19.8965
-19.6252
-19.1272
-18.2074
-17.0593
-16.1032
-14.9832
-13.7756
-12.5346
-11.2945
-10.0862
-8.94557
-7.89051
-6.90969
-6.01391
-5.20753
-4.48864
-3.85151
-3.2901
-2.79762
-2.36587
-1.98871
-1.65696
-1.36586
-1.10337
-0.873216
-0.673361
-0.499342
-0.342415
-0.202382
-0.0876811
-18.3455
-18.3468
-18.3468
-18.3596
-18.4676
-18.8427
-19.3294
-19.6838
-19.9024
-19.9785
-19.8967
-19.6254
-19.1253
-18.2028
-17.0589
-16.1026
-14.9833
-13.7761
-12.5353
-11.2937
-10.0859
-8.94842
-7.89045
-6.90751
-6.01015
-5.20431
-4.4848
-3.84758
-3.28621
-2.79396
-2.36214
-1.98522
-1.65335
-1.36202
-1.09973
-0.872299
-0.671587
-0.498834
-0.34128
-0.200329
-0.0884323
-18.3478
-18.3493
-18.3498
-18.3628
-18.4703
-18.8442
-19.3295
-19.6834
-19.9
-19.9751
-19.8923
-19.6201
-19.1186
-18.1922
-17.0551
-16.094
-14.9758
-13.7719
-12.5326
-11.2936
-10.0867
-8.94783
-7.8919
-6.90953
-6.01256
-5.20659
-4.48733
-3.8502
-3.2885
-2.79639
-2.3644
-1.98777
-1.65592
-1.36419
-1.10256
-0.872523
-0.674795
-0.502059
-0.344343
-0.204332
-0.0893516
-18.3493
-18.351
-18.3513
-18.3656
-18.4759
-18.8518
-19.3345
-19.6812
-19.8964
-19.9687
-19.8846
-19.611
-19.1088
-18.1847
-17.0479
-16.0829
-14.9648
-13.763
-12.5255
-11.2885
-10.0835
-8.9425
-7.88442
-6.90858
-6.0119
-5.20508
-4.48636
-3.84929
-3.28692
-2.79443
-2.36219
-1.98566
-1.65365
-1.36335
-1.10162
-0.870947
-0.671248
-0.498592
-0.341676
-0.201692
-0.0867024
-18.3504
-18.3517
-18.3515
-18.3656
-18.4788
-18.8655
-19.344
-19.6823
-19.8911
-19.96
-19.8742
-19.5987
-19.0974
-18.181
-17.0302
-16.0663
-14.9516
-13.7539
-12.5197
-11.2873
-10.0866
-8.94152
-7.87915
-6.91092
-6.01895
-5.21056
-4.491
-3.85474
-3.29199
-2.79906
-2.36614
-1.98917
-1.65703
-1.36713
-1.10646
-0.876221
-0.672503
-0.501656
-0.343559
-0.201917
-0.0876731
-18.3514
-18.3518
-18.3508
-18.3666
-18.4851
-18.8798
-19.3541
-19.6872
-19.8894
-19.9553
-19.8655
-19.5864
-19.0817
-18.1659
-17.0162
-16.0463
-14.9291
-13.735
-12.5052
-11.2776
-10.0815
-8.93691
-7.87258
-6.90305
-6.01995
-5.21472
-4.49207
-3.85519
-3.29267
-2.79947
-2.36589
-1.98839
-1.65574
-1.36646
-1.10745
-0.882154
-0.677571
-0.501106
-0.338165
-0.198701
-0.086507
-18.3543
-18.3515
-18.3496
-18.3678
-18.4941
-18.8907
-19.3594
-19.6868
-19.8897
-19.9552
-19.8631
-19.5789
-19.0681
-18.1579
-17.0115
-16.0454
-14.9282
-13.7343
-12.5068
-11.2807
-10.0886
-8.94597
-7.87783
-6.90341
-6.02437
-5.22334
-4.49985
-3.86064
-3.29795
-2.8044
-2.37011
-1.99201
-1.65845
-1.36954
-1.11027
-0.887397
-0.682008
-0.507948
-0.339547
-0.210056
-0.0936252
-18.3613
-18.3499
-18.3478
-18.3647
-18.4916
-18.8992
-19.3615
-19.6859
-19.8899
-19.9567
-19.8628
-19.576
-19.061
-18.1443
-16.9697
-16.0086
-14.9054
-13.7184
-12.4958
-11.2737
-10.0857
-8.94544
-7.87707
-6.90166
-6.02378
-5.22419
-4.50183
-3.86165
-3.29918
-2.80549
-2.37142
-1.99279
-1.65947
-1.36986
-1.11116
-0.887357
-0.685614
-0.513155
-0.339868
-0.211448
-0.0791939
-16.4698
-15.4949
-14.5076
-13.4389
-12.3271
-11.206
-10.1052
-9.04149
-8.03597
-7.10564
-6.25137
-5.4687
-4.75777
-4.1217
-3.55428
-3.05055
-2.6025
-2.20614
-1.85234
-1.54015
-1.2582
-1.01067
-0.788685
-0.589443
-18.392
-18.3962
-18.415
-18.4696
-18.5988
-18.8276
-19.0869
-19.2882
-19.3906
-19.3697
-19.2076
-18.8887
-18.405
-17.6211
-16.4507
-15.524
-14.5182
-13.443
-12.3299
-11.2092
-10.108
-9.04573
-8.03969
-7.10846
-6.25466
-5.47182
-4.76114
-4.12413
-3.55683
-3.05189
-2.60394
-2.20582
-1.85359
-1.5392
-1.26021
-1.00852
-0.783676
-0.574447
-0.409299
-0.264397
-0.086287
-18.3922
-18.3974
-18.4171
-18.4713
-18.599
-18.8261
-19.0863
-19.2886
-19.39
-19.3684
-19.2066
-18.8882
-18.4063
-17.6054
-16.4603
-15.5268
-14.5139
-13.4409
-12.3295
-11.2085
-10.1063
-9.04301
-8.03673
-7.10566
-6.25108
-5.46765
-4.75634
-4.12027
-3.55255
-3.04849
-2.59981
-2.20304
-1.84987
-1.53706
-1.25678
-1.00659
-0.779663
-0.577157
-0.392775
-0.226014
-0.0867965
-18.3932
-18.3991
-18.419
-18.4724
-18.5979
-18.8228
-19.0837
-19.2875
-19.3891
-19.3675
-19.2062
-18.8885
-18.4074
-17.6047
-16.4574
-15.5314
-14.5241
-13.4536
-12.3422
-11.2199
-10.1161
-9.04919
-8.04393
-7.11365
-6.25592
-5.46971
-4.75872
-4.12276
-3.5548
-3.05013
-2.60135
-2.20402
-1.85115
-1.53741
-1.258
-1.00655
-0.782167
-0.579735
-0.396476
-0.224177
-0.0836446
-18.3951
-18.4013
-18.4214
-18.4738
-18.5969
-18.8193
-19.08
-19.2849
-19.3879
-19.3671
-19.2064
-18.8893
-18.4071
-17.6052
-16.4591
-15.537
-14.5303
-13.4586
-12.3455
-11.222
-10.1143
-9.04622
-8.04285
-7.111
-6.24942
-5.46227
-4.75236
-4.11705
-3.54888
-3.04457
-2.59565
-2.19901
-1.84604
-1.53296
-1.25361
-1.0031
-0.780083
-0.579871
-0.395006