/*--------------------------------*- C++ -*----------------------------------*\
  =========                 |
  \\      /  F ield         | OpenFOAM: The Open Source CFD Toolbox
   \\    /   O peration     | Website:  https://openfoam.org
    \\  /    A nd           | Version:  7
     \\/     M anipulation  |
\*---------------------------------------------------------------------------*/
FoamFile
{
    version     2.0;
    format      ascii;
    class       volVectorField;
    location    "300";
    object      U;
}
// * * * * * * * * * * * * * * * * * * * * * * * * * * * * * * * * * * * * * //

dimensions      [0 1 -1 0 0 0 0];

internalField   nonuniform List<vector> 
120313
(
(-3.01071 -0.0496334 -0.0825142)
(-2.83381 -0.0204287 -0.120678)
(-2.65599 -0.0129054 -0.138365)
(-2.42202 -0.00164532 -0.165052)
(-2.15369 0.00963537 -0.193579)
(-1.87798 0.00930672 -0.226339)
(-1.44195 0.0116389 -0.227305)
(-1.13448 0.0169399 -0.20462)
(-0.765361 0.0186905 -0.218236)
(-0.452291 0.0237693 -0.213271)
(-0.137439 0.0241241 -0.222624)
(0.158913 0.0260426 -0.207816)
(0.451367 0.019721 -0.184757)
(0.725813 0.0177464 -0.165834)
(0.980918 0.0156375 -0.148788)
(1.215 0.0130521 -0.132687)
(1.42883 0.0110732 -0.119266)
(1.62324 0.00976285 -0.11198)
(1.80637 0.00870186 -0.106092)
(1.96729 0.00746561 -0.096529)
(2.13941 0.0103195 -0.0929763)
(2.27049 0.0127709 -0.0856348)
(2.41908 0.00608225 -0.0659253)
(2.4722 0.00595511 -0.0443024)
(-2.93232 -0.0176502 -0.0753003)
(-2.70544 0.000834697 -0.134078)
(-2.5282 0.0104984 -0.155586)
(-2.29839 0.0221004 -0.193107)
(-2.01297 0.0353894 -0.229494)
(-1.61747 0.0148487 -0.229041)
(-1.34232 0.0297474 -0.214688)
(-0.98352 0.0346851 -0.225321)
(-0.66187 0.0362951 -0.225052)
(-0.337979 0.0417068 -0.228502)
(-0.0326141 0.038062 -0.242678)
(0.268854 0.0380213 -0.217257)
(0.541076 0.0343342 -0.182104)
(0.809492 0.0326149 -0.170908)
(1.05595 0.0298325 -0.156318)
(1.28339 0.027098 -0.141587)
(1.4937 0.0249608 -0.126833)
(1.68363 0.023667 -0.113846)
(1.86022 0.022828 -0.109002)
(2.02334 0.0208278 -0.100649)
(2.17048 0.0205551 -0.0980663)
(2.30985 0.0193367 -0.0896979)
(2.4344 0.0163492 -0.0701378)
(2.45439 0.0138884 -0.0752496)
(-2.95517 -0.0235871 -0.0723588)
(-2.73119 -0.010547 -0.132185)
(-2.55339 -0.00322231 -0.157391)
(-2.31693 0.00358548 -0.197531)
(-2.06316 0.0135173 -0.237945)
(-1.64233 0.0188526 -0.234972)
(-1.3879 0.023781 -0.215635)
(-1.00416 0.0257609 -0.235329)
(-0.701842 0.0286492 -0.223871)
(-0.367586 0.0322514 -0.230373)
(-0.066504 0.0306693 -0.243679)
(0.235265 0.0297742 -0.221394)
(0.512558 0.0275252 -0.184326)
(0.781614 0.0252078 -0.170243)
(1.0289 0.0226162 -0.156743)
(1.25741 0.0202302 -0.142675)
(1.47004 0.0179268 -0.127826)
(1.65968 0.0160247 -0.115502)
(1.83859 0.0142397 -0.111564)
(1.99885 0.012329 -0.102004)
(2.15341 0.0127901 -0.100137)
(2.28577 0.0111789 -0.0908485)
(2.40577 0.0100152 -0.0665552)
(2.41443 0.00814234 -0.0820689)
(-2.96673 -0.012128 -0.0708099)
(-2.74367 -0.00597266 -0.130171)
(-2.56784 -0.00126011 -0.155716)
(-2.33068 0.00298138 -0.194803)
(-2.08809 0.00832064 -0.23453)
(-1.67791 0.0182738 -0.237645)
(-1.40269 0.0212785 -0.21657)
(-1.02644 0.0220627 -0.234195)
(-0.724002 0.0237975 -0.222749)
(-0.386687 0.0244464 -0.231308)
(-0.0872485 0.0236173 -0.243355)
(0.214299 0.0227658 -0.224493)
(0.49485 0.021136 -0.186473)
(0.763785 0.0188287 -0.170423)
(1.01158 0.0166764 -0.157156)
(1.24037 0.0147486 -0.142986)
(1.45389 0.0127825 -0.128123)
(1.64336 0.0110605 -0.115421)
(1.82309 0.00932686 -0.111521)
(1.98228 0.00798967 -0.101522)
(2.13776 0.00730374 -0.100359)
(2.26789 0.00670684 -0.0898053)
(2.38708 0.00635262 -0.0645846)
(2.39368 0.00529154 -0.0853698)
(-2.96677 -0.00770764 -0.0698718)
(-2.74506 -0.00694997 -0.128588)
(-2.57073 -0.00413093 -0.153317)
(-2.33485 -0.000686501 -0.191348)
(-2.09252 0.00338972 -0.231126)
(-1.6897 0.0117432 -0.237281)
(-1.40611 0.0140357 -0.214924)
(-1.03633 0.0156473 -0.231021)
(-0.73085 0.0159197 -0.221453)
(-0.393351 0.0154739 -0.230298)
(-0.0936345 0.0150116 -0.242183)
(0.207687 0.0136895 -0.224319)
(0.490032 0.0123722 -0.18689)
(0.758782 0.0103102 -0.170347)
(1.00696 0.00838458 -0.157017)
(1.23599 0.00650607 -0.142785)
(1.4499 0.00462081 -0.127792)
(1.63937 0.00276965 -0.115188)
(1.81961 0.000823521 -0.111486)
(1.9786 -0.000570726 -0.101274)
(2.13455 -0.00177628 -0.100328)
(2.26415 -0.00197107 -0.0889038)
(2.38269 -0.00180309 -0.0643568)
(2.38834 -0.00214677 -0.0855759)
(-2.95327 0.00509335 -0.0705033)
(-2.73284 -0.00146671 -0.128464)
(-2.55867 -0.00211516 -0.151571)
(-2.32415 -0.00194079 -0.18878)
(-2.08195 -0.00281599 -0.227581)
(-1.68003 0.00287545 -0.234254)
(-1.3993 0.00736001 -0.212849)
(-1.03053 0.00872201 -0.229028)
(-0.72426 0.00690801 -0.219899)
(-0.387904 0.00501087 -0.227834)
(-0.0871405 0.00509787 -0.239823)
(0.214082 0.00436363 -0.22084)
(0.49715 0.00388364 -0.185087)
(0.765988 0.00232303 -0.169542)
(1.01465 0.000973833 -0.155844)
(1.24417 -0.000579702 -0.141682)
(1.45833 -0.00213639 -0.126547)
(1.64818 -0.00374849 -0.114659)
(1.82905 -0.00544608 -0.111247)
(1.98876 -0.00627423 -0.101062)
(2.14564 -0.00846056 -0.0997123)
(2.27613 -0.00759078 -0.089092)
(2.39696 -0.00622144 -0.0649814)
(2.40503 -0.00583244 -0.0784079)
(-2.93045 0.00448368 -0.0723139)
(-2.70978 -0.00986605 -0.129068)
(-2.53914 -0.0142293 -0.149)
(-2.31426 -0.0205846 -0.184091)
(-2.05259 -0.0289047 -0.220239)
(-1.63792 -0.00554722 -0.219801)
(-1.38116 -0.00293058 -0.206955)
(-1.01277 -0.00653123 -0.221367)
(-0.704114 -0.00820554 -0.214597)
(-0.37094 -0.0109581 -0.221296)
(-0.0678807 -0.00917172 -0.232573)
(0.23323 -0.0104339 -0.212789)
(0.515342 -0.00923909 -0.179942)
(0.784031 -0.010534 -0.166909)
(1.03281 -0.0113797 -0.152589)
(1.26255 -0.0124594 -0.138491)
(1.47588 -0.0135363 -0.123791)
(1.66665 -0.0152515 -0.111982)
(1.84714 -0.0169757 -0.108453)
(2.00959 -0.0171549 -0.0994311)
(2.16254 -0.0185811 -0.097688)
(2.2986 -0.0185201 -0.0883313)
(2.42591 -0.0147093 -0.0682005)
(2.44465 -0.013626 -0.0716744)
(-3.00506 0.0352299 -0.0800966)
(-2.83415 0.0106328 -0.11586)
(-2.66249 0.0105679 -0.129975)
(-2.43613 0.0055012 -0.153326)
(-2.17349 -0.00169944 -0.17714)
(-1.89582 0.00370592 -0.204188)
(-1.53183 0.00655918 -0.220556)
(-1.1476 0.00466927 -0.198358)
(-0.831895 0.00203524 -0.194352)
(-0.493447 -0.000198705 -0.200719)
(-0.184286 -0.000538629 -0.205237)
(0.114069 -0.00447922 -0.201517)
(0.407597 -0.00204307 -0.178642)
(0.684705 -0.00168832 -0.157799)
(0.943049 -0.00257088 -0.142149)
(1.18192 -0.00445689 -0.126821)
(1.40068 -0.00602282 -0.114755)
(1.60015 -0.00783934 -0.108305)
(1.78747 -0.00925305 -0.103047)
(1.95311 -0.0108292 -0.0943687)
(2.13126 -0.0133293 -0.0910466)
(2.26142 -0.0137262 -0.0833029)
(2.4102 -0.00378991 -0.0636988)
(2.46441 -0.00515606 -0.041082)
(-0.435481 0.0185848 0.524955)
(-0.86558 0.0159176 0.403605)
(-1.2021 0.0120303 0.307707)
(-1.47164 0.00923232 0.252238)
(-1.69309 0.00681512 0.214482)
(-1.87207 0.00443834 0.178635)
(-2.00369 0.00142027 0.136571)
(-2.0885 -0.00616443 0.0874572)
(-2.09823 -0.0154705 0.0340665)
(-2.09002 -0.00943682 -0.0382918)
(-1.95802 -0.000947332 -0.113572)
(-1.75734 -0.00317063 -0.159437)
(-1.51679 -0.000900791 -0.192893)
(-1.24579 0.00121849 -0.22184)
(-0.948734 0.00447367 -0.248099)
(-0.633979 0.00372785 -0.266854)
(-0.308783 0.00148682 -0.28115)
(0.0125736 0.00195132 -0.274496)
(0.328312 0.00340212 -0.267425)
(0.633595 0.00506459 -0.260082)
(0.918577 0.00588574 -0.24787)
(1.19243 0.00465996 -0.230377)
(1.44444 0.00413978 -0.213471)
(1.67777 0.00327298 -0.194992)
(1.89973 0.00242404 -0.178815)
(2.10117 0.00294865 -0.165263)
(2.28681 0.00329253 -0.152293)
(2.45743 0.0051713 -0.139991)
(2.61516 0.00722443 -0.128373)
(2.75868 0.00811562 -0.116637)
(2.88696 0.00783341 -0.104292)
(3.00616 0.00707884 -0.093313)
(3.11451 0.00595182 -0.0834371)
(3.21187 0.010656 -0.0774466)
(3.28933 0.0207831 -0.0720103)
(3.38652 0.0417951 -0.0583046)
(-0.487961 -0.00385611 0.528823)
(-0.919559 0.0234225 0.400715)
(-1.25168 0.02374 0.306646)
(-1.51858 0.0190701 0.252679)
(-1.73845 0.0124396 0.215692)
(-1.91594 0.00379095 0.18016)
(-2.04907 -0.00847464 0.137621)
(-2.15959 -0.0265599 0.0888571)
(-2.18781 -0.0298378 0.0253874)
(-1.6956 -0.0366764 -0.0400274)
(-1.38343 -0.00588321 -0.167922)
(-1.17313 -0.00919796 -0.242171)
(-0.913419 -0.00267467 -0.296134)
(-0.638022 0.00106949 -0.342802)
(-0.342198 0.00166195 -0.386466)
(-0.0318685 0.000153423 -0.403581)
(0.269294 0.00106365 -0.403258)
(0.577502 0.00249668 -0.398918)
(0.871002 0.00370814 -0.387465)
(1.15595 0.00475438 -0.376526)
(1.42793 0.00644791 -0.35978)
(1.68345 0.00603271 -0.337432)
(1.91965 0.00655764 -0.312618)
(2.13723 0.00672893 -0.287505)
(2.33775 0.00571675 -0.263249)
(2.52163 0.00475836 -0.240075)
(2.69005 0.00466041 -0.218691)
(2.84407 0.00537275 -0.19914)
(2.98248 0.00682606 -0.181512)
(3.1126 0.00806313 -0.168701)
(3.21995 0.0111686 -0.152719)
(3.32892 0.00882086 -0.136929)
(3.38211 0.0136358 -0.114765)
(3.39615 0.0285703 -0.0949676)
(3.29505 0.0274755 -0.0950857)
(3.33863 0.0361066 -0.0770197)
(-0.501442 -0.0074284 0.541243)
(-0.948074 0.0254806 0.404447)
(-1.2799 0.0296101 0.307636)
(-1.54241 0.0241801 0.252249)
(-1.7573 0.0143977 0.213658)
(-1.93079 0.00121425 0.175464)
(-2.06428 -0.0157031 0.127802)
(-2.18397 -0.0353546 0.0695356)
(-2.20975 -0.0399487 -0.00187986)
(-1.68709 -0.0240658 -0.0390643)
(-1.24086 -0.00252998 -0.164292)
(-1.02074 -0.00413099 -0.253896)
(-0.749506 0.00271859 -0.323998)
(-0.47276 0.00729858 -0.388757)
(-0.179903 0.00500651 -0.415877)
(0.111749 0.00543642 -0.422369)
(0.416377 0.0113798 -0.426892)
(0.713978 0.0134203 -0.420413)
(1.00372 0.0172145 -0.409902)
(1.28295 0.0193187 -0.397765)
(1.54769 0.0194995 -0.379899)
(1.79461 0.0175775 -0.354946)
(2.02571 0.016415 -0.329952)
(2.23693 0.0152357 -0.303754)
(2.43105 0.013847 -0.278552)
(2.60893 0.0122367 -0.254087)
(2.77124 0.0109191 -0.23114)
(2.9205 0.0102927 -0.210392)
(3.05217 0.0100785 -0.191428)
(3.17705 0.00978278 -0.17663)
(3.26882 0.0104647 -0.160363)
(3.37456 0.00884696 -0.141019)
(3.36358 0.0143213 -0.121023)
(3.3494 0.0196829 -0.101073)
(3.25357 0.0203258 -0.100708)
(3.29443 0.0253826 -0.0763619)
(-0.509815 0.000924868 0.549939)
(-0.966271 0.0267409 0.4104)
(-1.29908 0.0298184 0.3103)
(-1.55863 0.0238885 0.252607)
(-1.77054 0.0133978 0.211898)
(-1.94344 -0.000249251 0.171306)
(-2.08085 -0.0163176 0.1211)
(-2.21026 -0.0331374 0.0607532)
(-2.24155 -0.0363928 -0.00843616)
(-1.70209 -0.028095 -0.0318611)
(-1.20777 -0.0134258 -0.155797)
(-0.980769 -0.0113007 -0.250803)
(-0.70537 -0.00523103 -0.323114)
(-0.431037 3.00977e-05 -0.398276)
(-0.139107 0.00242041 -0.426579)
(0.145458 0.00539815 -0.42909)
(0.450393 0.0101055 -0.432938)
(0.741602 0.0121598 -0.423821)
(1.03051 0.0149134 -0.413495)
(1.30689 0.0158395 -0.400666)
(1.56991 0.0159518 -0.383089)
(1.81527 0.0149387 -0.357836)
(2.04496 0.0137768 -0.332179)
(2.25449 0.0126639 -0.305395)
(2.44659 0.0114811 -0.279895)
(2.62245 0.0100914 -0.254893)
(2.78243 0.00881625 -0.231381)
(2.92966 0.00772186 -0.21003)
(3.05787 0.0068147 -0.190645)
(3.17909 0.0065735 -0.175519)
(3.26551 0.00595119 -0.159059)
(3.36115 0.00616551 -0.133799)
(3.33181 0.0087828 -0.121748)
(3.30664 0.0109349 -0.0987373)
(3.20663 0.0131843 -0.0986853)
(3.24574 0.0156372 -0.07116)
(-0.526943 0.00947048 0.556463)
(-0.986281 0.0243616 0.415145)
(-1.31818 0.024879 0.312904)
(-1.57542 0.019775 0.253607)
(-1.78556 0.0115643 0.211633)
(-1.95821 0.00126293 0.169808)
(-2.0968 -0.0105182 0.118523)
(-2.22817 -0.0232627 0.0567462)
(-2.25797 -0.0255358 -0.01234)
(-1.71065 -0.0209916 -0.0304048)
(-1.20415 -0.0159098 -0.152725)
(-0.975705 -0.0131838 -0.248977)
(-0.701571 -0.00853693 -0.319264)
(-0.430052 -0.00354617 -0.395733)
(-0.140492 0.00125459 -0.426724)
(0.143121 0.00603365 -0.429293)
(0.446505 0.00941597 -0.431847)
(0.736268 0.0111769 -0.42248)
(1.02597 0.0125629 -0.412591)
(1.30169 0.012814 -0.399872)
(1.5648 0.0128161 -0.383144)
(1.80998 0.0122413 -0.358156)
(2.0392 0.0112638 -0.331996)
(2.24831 0.010203 -0.304815)
(2.43971 0.00909059 -0.279001)
(2.61489 0.00780718 -0.253711)
(2.77395 0.00650202 -0.229973)
(2.92024 0.00521809 -0.208464)
(3.04689 0.00410271 -0.188754)
(3.16615 0.00341864 -0.17349)
(3.24984 0.00278045 -0.156248)
(3.34318 0.00275864 -0.13012)
(3.30562 0.00362422 -0.118444)
(3.27679 0.00431131 -0.0938266)
(3.17315 0.00615706 -0.0966395)
(3.2091 0.0071646 -0.0683843)
(-0.538458 0.017913 0.560207)
(-0.997983 0.0176109 0.417494)
(-1.32825 0.015715 0.314283)
(-1.58353 0.0126602 0.254283)
(-1.79207 0.00852995 0.211787)
(-1.96363 0.00336566 0.169381)
(-2.1017 -0.00288255 0.11761)
(-2.23303 -0.0110019 0.0555637)
(-2.26092 -0.0129387 -0.0132455)
(-1.71098 -0.0139492 -0.0309777)
(-1.20754 -0.0159554 -0.152414)
(-0.981781 -0.013359 -0.246912)
(-0.710556 -0.010676 -0.315069)
(-0.440932 -0.00699008 -0.39068)
(-0.152621 -0.00151423 -0.423359)
(0.130711 0.00343641 -0.426347)
(0.433551 0.00627117 -0.428386)
(0.723895 0.00794788 -0.419761)
(1.01451 0.00847737 -0.410323)
(1.29082 0.00851314 -0.398011)
(1.55463 0.00830108 -0.381859)
(1.80042 0.0079994 -0.357288)
(2.02995 0.00731597 -0.331091)
(2.23942 0.00632685 -0.303943)
(2.43106 0.00518868 -0.278103)
(2.60655 0.0039291 -0.25282)
(2.76577 0.00263593 -0.229154)
(2.91219 0.00126106 -0.20776)
(3.03871 -1.72486e-05 -0.187999)
(3.15783 -0.00109627 -0.172842)
(3.24113 -0.00197549 -0.15526)
(3.33451 -0.00212886 -0.129335)
(3.29704 -0.0031346 -0.116923)
(3.26855 -0.00349858 -0.091859)
(3.16073 -0.00245521 -0.0958604)
(3.19456 -0.00167179 -0.0672186)
(-0.534324 0.0252365 0.557977)
(-0.993113 0.00862023 0.41706)
(-1.32245 0.00445259 0.314047)
(-1.57673 0.00388727 0.253969)
(-1.78425 0.00443913 0.211354)
(-1.95472 0.00502075 0.168819)
(-2.09167 0.00495981 0.116869)
(-2.22162 0.00228804 0.0548555)
(-2.248 0.00115023 -0.0142677)
(-1.70216 -0.00349702 -0.0336141)
(-1.21695 -0.0140942 -0.154491)
(-0.997118 -0.0107927 -0.245304)
(-0.729792 -0.0109604 -0.312047)
(-0.461416 -0.00979357 -0.385112)
(-0.173336 -0.00444886 -0.417683)
(0.110557 0.00083424 -0.421561)
(0.413355 0.0027686 -0.423924)
(0.704913 0.00421974 -0.41569)
(0.996418 0.00385003 -0.40639)
(1.2743 0.00361395 -0.394349)
(1.53937 0.00354267 -0.378324)
(1.7866 0.00385413 -0.354245)
(2.01739 0.00353241 -0.328525)
(2.22815 0.00272913 -0.301928)
(2.42118 0.00163776 -0.276503)
(2.59809 0.000538361 -0.251619)
(2.7587 -0.000677536 -0.228375)
(2.90651 -0.0020724 -0.207402)
(3.03448 -0.00345475 -0.187981)
(3.15552 -0.00480099 -0.173285)
(3.24082 -0.00564401 -0.155975)
(3.33648 -0.00579272 -0.131082)
(3.30829 -0.00884045 -0.116938)
(3.28327 -0.0109193 -0.0934216)
(3.17236 -0.0104084 -0.0959101)
(3.20522 -0.0105436 -0.0678599)
(-0.517939 0.0324485 0.550418)
(-0.973654 0.000370078 0.413871)
(-1.30256 -0.00623105 0.31237)
(-1.55708 -0.00471989 0.253024)
(-1.76442 -0.000153219 0.210962)
(-1.93379 0.00569858 0.168998)
(-2.06863 0.0120316 0.117491)
(-2.19553 0.0157768 0.056782)
(-2.21998 0.0169153 -0.0115729)
(-1.68959 0.000172813 -0.0395228)
(-1.25807 -0.0164715 -0.159363)
(-1.04785 -0.0102246 -0.244621)
(-0.787538 -0.0132865 -0.309454)
(-0.51967 -0.0144741 -0.374548)
(-0.230227 -0.00724535 -0.402371)
(0.0564735 -0.000689392 -0.40978)
(0.35989 -0.000755781 -0.413907)
(0.654771 -5.69439e-05 -0.406188)
(0.948083 -0.00153638 -0.39704)
(1.22902 -0.00260529 -0.385215)
(1.49712 -0.00300972 -0.369297)
(1.74761 -0.00181835 -0.346247)
(1.98138 -0.0019617 -0.321821)
(2.19534 -0.00253022 -0.296476)
(2.3917 -0.0034477 -0.272028)
(2.57179 -0.00413196 -0.248074)
(2.73566 -0.00513933 -0.225673)
(2.88643 -0.00662438 -0.205634)
(3.01824 -0.0083158 -0.18695)
(3.14327 -0.0093461 -0.173009)
(3.23408 -0.0113728 -0.155778)
(3.33849 -0.00959284 -0.137471)
(3.32978 -0.0154689 -0.11544)
(3.31624 -0.0202717 -0.0939344)
(3.20594 -0.0184749 -0.0963063)
(3.23943 -0.0186336 -0.0688818)
(-0.503589 0.0383228 0.539988)
(-0.949923 -0.00587116 0.408373)
(-1.27729 -0.0140445 0.310065)
(-1.53358 -0.0111501 0.252541)
(-1.74286 -0.00441603 0.212076)
(-1.91269 0.00425247 0.172019)
(-2.04544 0.0147738 0.122867)
(-2.16679 0.0251125 0.0668801)
(-2.19948 0.0290845 0.00109318)
(-1.71111 0.0183884 -0.0351007)
(-1.40542 -0.00231224 -0.156618)
(-1.20602 0.00397423 -0.22821)
(-0.958247 1.89695e-06 -0.281364)
(-0.692536 -0.00105703 -0.326135)
(-0.404355 0.00277421 -0.361901)
(-0.101933 0.00625795 -0.38323)
(0.202959 0.00709897 -0.383615)
(0.504516 0.00725191 -0.376915)
(0.803622 0.00540936 -0.368997)
(1.09067 0.00435328 -0.358197)
(1.36616 0.00230511 -0.344285)
(1.62607 0.00214531 -0.323896)
(1.86672 0.00142139 -0.300677)
(2.08839 0.00050126 -0.276965)
(2.29239 -0.000696828 -0.253951)
(2.47973 -0.00192652 -0.23162)
(2.65075 -0.00385748 -0.210921)
(2.80725 -0.00594163 -0.192062)
(2.94667 -0.00841402 -0.175049)
(3.07759 -0.00971862 -0.162607)
(3.18344 -0.0126771 -0.146581)
(3.28998 -0.0092085 -0.131003)
(3.33759 -0.0146134 -0.110558)
(3.35159 -0.025609 -0.0864544)
(3.24712 -0.0239448 -0.0970594)
(3.28287 -0.027022 -0.0708401)
(-0.488904 0.0372965 0.525521)
(-0.918081 -0.0118855 0.402846)
(-1.24344 -0.0174162 0.308589)
(-1.50296 -0.0132472 0.253168)
(-1.7158 -0.00667979 0.214932)
(-1.88703 0.00116512 0.178077)
(-2.01616 0.0115614 0.133753)
(-2.12352 0.0241656 0.0857079)
(-2.14633 0.0262956 0.0280162)
(-1.72491 0.0111502 -0.0491629)
(-1.54796 -0.00415691 -0.157981)
(-1.35364 0.00147266 -0.208686)
(-1.11336 -0.00153163 -0.254316)
(-0.845884 -0.00266333 -0.291744)
(-0.554307 -0.00221354 -0.318353)
(-0.247766 -0.00164335 -0.335651)
(0.0612283 0.000961622 -0.345566)
(0.370007 0.00215067 -0.343851)
(0.672757 0.00181702 -0.336501)
(0.965491 0.00185766 -0.327696)
(1.24342 0.00105774 -0.313258)
(1.50493 -0.000158773 -0.293687)
(1.74926 -0.00186379 -0.273454)
(1.97477 -0.00291513 -0.251485)
(2.18252 -0.00378265 -0.23029)
(2.37334 -0.00525565 -0.21029)
(2.54819 -0.00795584 -0.191623)
(2.70877 -0.0110952 -0.173993)
(2.85513 -0.0146147 -0.157449)
(2.98926 -0.0162312 -0.143777)
(3.10891 -0.0180392 -0.131426)
(3.21692 -0.0157358 -0.122286)
(3.31517 -0.0160661 -0.108115)
(3.38252 -0.0272495 -0.0941426)
(3.29103 -0.0257101 -0.0993587)
(3.33108 -0.0302206 -0.078495)
(-0.454657 0.0152418 0.509844)
(-0.861864 -0.0184465 0.402156)
(-1.18924 -0.0151844 0.308755)
(-1.4536 -0.00990681 0.252853)
(-1.67092 -0.00539974 0.214642)
(-1.84626 -0.0016279 0.178682)
(-1.97728 0.00261741 0.137846)
(-2.08245 0.00741681 0.0957818)
(-2.13508 -0.00370624 0.0338415)
(-2.15499 0.00712972 -0.035697)
(-2.02934 0.0101198 -0.105654)
(-1.84307 0.0112297 -0.147037)
(-1.61122 0.0081541 -0.180207)
(-1.34621 0.00581611 -0.207133)
(-1.05387 0.0024363 -0.228541)
(-0.742378 -0.000698037 -0.244612)
(-0.42034 -0.000397004 -0.25786)
(-0.0940801 -0.000474364 -0.264499)
(0.223288 -0.00398694 -0.255829)
(0.531358 -0.00586407 -0.250268)
(0.824833 -0.00696143 -0.241446)
(1.10232 -0.00691703 -0.224509)
(1.36083 -0.00895406 -0.207592)
(1.60138 -0.0101061 -0.189707)
(1.82501 -0.0109563 -0.173943)
(2.03117 -0.0123468 -0.160124)
(2.22137 -0.0147139 -0.146838)
(2.39636 -0.0178703 -0.132423)
(2.55575 -0.020719 -0.117833)
(2.69913 -0.0221653 -0.105696)
(2.82787 -0.0221764 -0.0960771)
(2.94441 -0.0217393 -0.0885359)
(3.05219 -0.021599 -0.0802624)
(3.15255 -0.0250594 -0.0730717)
(3.24624 -0.0191518 -0.0672542)
(3.35025 -0.0284827 -0.0727049)
(-0.362784 -0.040015 0.506781)
(-0.78348 -0.0152184 0.412122)
(-1.1213 -0.00633672 0.31115)
(-1.38752 -0.00264725 0.250321)
(-1.60319 -0.000582259 0.208357)
(-1.77606 0.000693307 0.168477)
(-1.90387 0.00207099 0.122128)
(-1.98316 0.00440413 0.068851)
(-1.9893 -0.00910752 0.0376297)
(-1.98744 0.000943496 -0.0581443)
(-1.85999 0.00628379 -0.125294)
(-1.66523 0.007379 -0.170654)
(-1.42805 0.00752542 -0.204176)
(-1.15839 0.00782047 -0.230975)
(-0.863244 0.0075588 -0.252979)
(-0.551389 0.00736678 -0.268834)
(-0.230234 0.00907683 -0.279674)
(0.0887446 0.0100321 -0.281314)
(0.402935 0.0116108 -0.268917)
(0.707659 0.0121955 -0.259587)
(0.997673 0.0108397 -0.246311)
(1.27303 0.00847865 -0.231056)
(1.52992 0.00569661 -0.215295)
(1.76879 0.00317306 -0.200614)
(1.98902 0.000973786 -0.186979)
(2.19113 -0.00145318 -0.173482)
(2.37582 -0.004054 -0.159348)
(2.54337 -0.00554209 -0.144581)
(2.69503 -0.00599944 -0.130445)
(2.83187 -0.00634774 -0.118493)
(2.95493 -0.0064769 -0.107838)
(3.06616 -0.00684052 -0.0996742)
(3.16728 -0.00698147 -0.0911783)
(3.26181 -0.00896905 -0.0868455)
(3.34039 -0.0100259 -0.0810779)
(3.4152 -0.0171992 -0.0760432)
(0.569369 -0.0123031 -0.264054)
(0.694223 -0.0137654 -0.417331)
(0.936273 -0.0083568 -0.507492)
(1.18437 -0.00439369 -0.576155)
(1.44678 -0.00201449 -0.632002)
(1.70869 -2.23913e-05 -0.671374)
(1.96177 0.000732694 -0.692646)
(2.20731 0.000645465 -0.693765)
(2.44311 0.000567754 -0.677389)
(2.67115 0.000179979 -0.652781)
(2.88592 0.000368183 -0.623691)
(3.08401 0.000385592 -0.588765)
(3.26705 0.000310654 -0.551764)
(3.43507 0.000106382 -0.513447)
(3.58936 -0.000196362 -0.475937)
(3.72904 -0.000759846 -0.439222)
(3.855 -0.00113028 -0.404633)
(3.9687 -0.00150164 -0.371512)
(4.0706 -0.00151329 -0.341296)
(4.16237 -0.00133261 -0.312257)
(4.24497 -0.000850945 -0.287422)
(4.32039 -0.000759373 -0.262872)
(4.38559 0.00122128 -0.243726)
(4.45805 0.00342932 -0.224248)
(-0.199554 -0.00127214 0.829546)
(-0.341967 0.0110808 0.640758)
(-0.458928 0.010928 0.496002)
(-0.546824 0.00906001 0.400523)
(-0.602009 0.00607908 0.327443)
(-0.622205 0.00247311 0.254008)
(-0.604968 -0.00160659 0.168953)
(-0.54564 -0.00594944 0.0688425)
(-0.231692 -0.0172247 -0.0450647)
(0.361136 -0.0196192 -0.226115)
(0.549382 -6.74541e-05 -0.397868)
(0.787276 -0.00393863 -0.483817)
(1.0368 -0.000430567 -0.550417)
(1.30054 0.00383738 -0.605347)
(1.56616 0.00737445 -0.643874)
(1.82711 0.00801192 -0.668962)
(2.07752 0.00735164 -0.672504)
(2.32336 0.00728754 -0.657115)
(2.55596 0.00676803 -0.634925)
(2.77665 0.00726591 -0.608265)
(2.98073 0.00769614 -0.575423)
(3.17006 0.00773633 -0.53986)
(3.34298 0.00730689 -0.502602)
(3.50142 0.00662902 -0.465383)
(3.64564 0.00509439 -0.429288)
(3.7754 0.00383508 -0.394936)
(3.89315 0.00268196 -0.362443)
(3.9979 0.0022432 -0.332395)
(4.09376 0.00223707 -0.304472)
(4.17883 0.00289313 -0.279114)
(4.25754 0.00331592 -0.255303)
(4.32286 0.00464631 -0.233783)
(4.40094 0.00296983 -0.216065)
(4.44571 0.0056221 -0.19648)
(4.35078 0.00771078 -0.187372)
(4.38704 0.0085577 -0.166783)
(-0.232706 -0.0173149 0.847274)
(-0.380222 0.0186076 0.643251)
(-0.495622 0.0246008 0.495125)
(-0.580611 0.0226409 0.400143)
(-0.63322 0.0171855 0.327319)
(-0.652367 0.00995021 0.253829)
(-0.64237 0.00112987 0.170288)
(-0.612721 -0.0133972 0.0755573)
(-0.352699 -0.0354557 -0.0282208)
(0.321096 -0.0344461 -0.221471)
(0.5888 -0.0153629 -0.395958)
(0.841776 -0.0119727 -0.481084)
(1.09944 -0.00482666 -0.549941)
(1.36142 0.00094845 -0.60494)
(1.62327 0.00237319 -0.639247)
(1.88278 0.00227332 -0.659341)
(2.13196 0.00372705 -0.660985)
(2.37647 0.00505518 -0.648021)
(2.60497 0.00627895 -0.624886)
(2.82395 0.00771418 -0.598535)
(3.02444 0.00867093 -0.567964)
(3.20984 0.00860442 -0.533606)
(3.37986 0.00849713 -0.497588)
(3.5347 0.00828171 -0.46089)
(3.67583 0.00735788 -0.425119)
(3.80275 0.00626719 -0.390562)
(3.91781 0.0053908 -0.358563)
(4.02088 0.00477398 -0.328594)
(4.11312 0.00472283 -0.301206)
(4.19546 0.00415142 -0.275655)
(4.26531 0.00631053 -0.253719)
(4.32366 0.00507672 -0.228245)
(4.3671 0.0119359 -0.213111)
(4.40577 0.00878886 -0.190157)
(4.43723 0.0187963 -0.1921)
(4.59179 0.00980741 -0.199005)
(-0.253149 -0.0205785 0.867664)
(-0.412824 0.0214582 0.6529)
(-0.526997 0.0328846 0.498454)
(-0.605885 0.0318424 0.400166)
(-0.651226 0.0253019 0.324055)
(-0.664198 0.016006 0.247174)
(-0.654492 0.00416975 0.161022)
(-0.638463 -0.0139376 0.0638311)
(-0.40028 -0.0320724 -0.035513)
(0.333722 -0.0309183 -0.22812)
(0.665848 -0.0186923 -0.402315)
(0.937791 -0.0148068 -0.486601)
(1.20596 -0.0077253 -0.55965)
(1.46822 -0.0017464 -0.619693)
(1.72322 -0.00163498 -0.652227)
(1.97374 -0.00156416 -0.665635)
(2.2211 0.00224881 -0.666749)
(2.46096 0.00424959 -0.653588)
(2.68516 0.00673568 -0.630791)
(2.89955 0.00890454 -0.604422)
(3.09474 0.00995166 -0.572786)
(3.27573 0.00953571 -0.536512)
(3.44094 0.0090792 -0.500071)
(3.59101 0.00856238 -0.462767)
(3.72659 0.00784251 -0.426253)
(3.84913 0.00683432 -0.390605)
(3.95901 0.00584136 -0.357591)
(4.05793 0.00478548 -0.326779)
(4.14381 0.0043976 -0.299324)
(4.22069 0.00341711 -0.272381)
(4.27731 0.00509458 -0.251065)
(4.32754 0.00378871 -0.221643)
(4.33671 0.00930072 -0.209163)
(4.35935 0.0109657 -0.186704)
(4.37699 0.0149761 -0.19433)
(4.56509 0.0130459 -0.198669)
(-0.270458 -0.0134151 0.884226)
(-0.439758 0.0226056 0.66541)
(-0.552915 0.0331235 0.504802)
(-0.6257 0.0324113 0.401937)
(-0.663941 0.0263482 0.322033)
(-0.671085 0.0171402 0.241904)
(-0.659729 0.00510374 0.153308)
(-0.64842 -0.012195 0.0539975)
(-0.416636 -0.0275856 -0.0416863)
(0.33512 -0.0290846 -0.228074)
(0.699163 -0.0233669 -0.402406)
(0.980194 -0.0203299 -0.485489)
(1.25268 -0.0146573 -0.558727)
(1.5141 -0.00867761 -0.620861)
(1.76533 -0.0058243 -0.655907)
(2.01043 -0.00353165 -0.668936)
(2.25406 8.36931e-05 -0.670301)
(2.48954 0.00218091 -0.65496)
(2.71115 0.00430454 -0.631199)
(2.92263 0.00570753 -0.603909)
(3.11583 0.00659849 -0.571633)
(3.29483 0.00664507 -0.534522)
(3.45761 0.00641117 -0.497352)
(3.60529 0.00601661 -0.459442)
(3.73784 0.00548068 -0.422666)
(3.85749 0.00466656 -0.386493)
(3.96413 0.00379083 -0.352973)
(4.05993 0.00271915 -0.321647)
(4.14125 0.00218233 -0.293922)
(4.21373 0.00160062 -0.266302)
(4.26261 0.00233217 -0.24465)
(4.30567 0.00156469 -0.212921)
(4.29918 0.00523565 -0.20287)
(4.31238 0.00628225 -0.180898)
(4.32606 0.00944359 -0.190437)
(4.52504 0.00777196 -0.193053)
(-0.288315 -0.000921066 0.897223)
(-0.463605 0.0202678 0.675387)
(-0.574636 0.0262082 0.510026)
(-0.642463 0.0257036 0.404179)
(-0.675726 0.0213233 0.321948)
(-0.678976 0.0143617 0.239739)
(-0.665981 0.00536317 0.14952)
(-0.655718 -0.00741896 0.0487807)
(-0.424787 -0.0186191 -0.0464806)
(0.332362 -0.020532 -0.22959)
(0.706662 -0.0201552 -0.402824)
(0.990158 -0.0189495 -0.484632)
(1.26065 -0.0152846 -0.555892)
(1.51903 -0.0107652 -0.617596)
(1.76732 -0.0068904 -0.653801)
(2.00892 -0.00302746 -0.667217)
(2.25143 0.000318414 -0.668878)
(2.48546 0.00228373 -0.653147)
(2.70779 0.00379656 -0.629507)
(2.91863 0.00456265 -0.602403)
(3.11143 0.00508929 -0.570701)
(3.28941 0.00524949 -0.533474)
(3.451 0.00515036 -0.495608)
(3.59756 0.00481498 -0.457116)
(3.72875 0.00434563 -0.419929)
(3.84711 0.00358318 -0.383327)
(3.95227 0.00267431 -0.349417)
(4.04627 0.00166006 -0.317751)
(4.12535 0.000933524 -0.289541)
(4.19548 0.000340452 -0.261615)
(4.24079 0.000211246 -0.239548)
(4.28043 -0.000260069 -0.206999)
(4.26824 0.000883736 -0.197212)
(4.27869 0.00117583 -0.17521)
(4.29091 0.0025814 -0.184497)
(4.4938 0.00162872 -0.187945)
(-0.30073 0.0137426 0.904308)
(-0.478053 0.0149107 0.680029)
(-0.586653 0.0148692 0.512424)
(-0.651353 0.0140662 0.405596)
(-0.681864 0.0121155 0.322241)
(-0.682841 0.00920517 0.238869)
(-0.668507 0.00530761 0.147646)
(-0.658017 -0.00143551 0.0462554)
(-0.427303 -0.00800904 -0.0488708)
(0.327157 -0.0105137 -0.229721)
(0.698946 -0.0136317 -0.401962)
(0.978392 -0.0137407 -0.482594)
(1.24553 -0.0124626 -0.551943)
(1.50159 -0.0105307 -0.613164)
(1.74876 -0.00728857 -0.649884)
(1.98882 -0.00361901 -0.662935)
(2.23253 -0.00081434 -0.664928)
(2.46698 0.00117391 -0.650137)
(2.69069 0.00227104 -0.627122)
(2.90241 0.00281814 -0.600542)
(3.0961 0.00317029 -0.569401)
(3.27463 0.00343893 -0.532484)
(3.43659 0.00347105 -0.494601)
(3.58345 0.0031863 -0.456093)
(3.71484 0.0027209 -0.418827)
(3.83353 0.00201437 -0.382159)
(3.93875 0.00115712 -0.348217)
(4.03267 0.000245043 -0.31658)
(4.11163 -0.000683203 -0.288215)
(4.18161 -0.00138033 -0.260318)
(4.2267 -0.00226245 -0.237982)
(4.26627 -0.0026802 -0.205635)
(4.25421 -0.00372969 -0.195398)
(4.26545 -0.00451147 -0.173681)
(4.27763 -0.00464652 -0.18227)
(4.48175 -0.00467187 -0.18541)
(-0.30001 0.0274883 0.902416)
(-0.47693 0.00820331 0.679459)
(-0.584574 0.00162927 0.511968)
(-0.648391 0.000157862 0.405139)
(-0.678188 0.00109158 0.321712)
(-0.678507 0.00300613 0.238085)
(-0.663616 0.00474914 0.146688)
(-0.652822 0.00442055 0.0449382)
(-0.423537 0.0027439 -0.0504418)
(0.319786 -3.5694e-05 -0.229405)
(0.676417 -0.00616128 -0.40004)
(0.94784 -0.00670928 -0.480075)
(1.21108 -0.00827192 -0.548896)
(1.46584 -0.00965202 -0.609337)
(1.71382 -0.00767534 -0.645568)
(1.95563 -0.00439638 -0.658922)
(2.19971 -0.00240321 -0.661336)
(2.43606 -0.000478488 -0.647151)
(2.6615 0.000288285 -0.624266)
(2.87536 0.000688731 -0.597825)
(3.07089 0.00109868 -0.566987)
(3.25126 0.00166278 -0.530649)
(3.41495 0.00184898 -0.493286)
(3.56364 0.0016374 -0.455316)
(3.69677 0.00115359 -0.418404)
(3.8173 0.000557692 -0.382122)
(3.92423 -0.000236739 -0.348567)
(4.01994 -0.00106187 -0.317336)
(4.10083 -0.00219782 -0.289237)
(4.17298 -0.00296081 -0.261721)
(4.22105 -0.00453172 -0.239453)
(4.26413 -0.00467078 -0.20822)
(4.25727 -0.00792778 -0.197119)
(4.27414 -0.0100198 -0.175627)
(4.28792 -0.0113639 -0.183702)
(4.49221 -0.0105618 -0.186312)
(-0.28763 0.040304 0.890924)
(-0.4609 0.00155026 0.673621)
(-0.569034 -0.0108218 0.508789)
(-0.634328 -0.0125596 0.403)
(-0.665659 -0.00915853 0.320863)
(-0.667285 -0.00323057 0.238542)
(-0.653057 0.00335831 0.14779)
(-0.642188 0.00909251 0.0461743)
(-0.416187 0.0125974 -0.0496919)
(0.302356 0.00706541 -0.228375)
(0.624458 -0.00169798 -0.396294)
(0.883255 -0.00209818 -0.476198)
(1.1411 -0.00646643 -0.545155)
(1.39504 -0.0107072 -0.603816)
(1.64586 -0.00881283 -0.637896)
(1.89191 -0.00489516 -0.652319)
(2.13809 -0.0039171 -0.655103)
(2.37744 -0.00240507 -0.641582)
(2.60591 -0.00212746 -0.618668)
(2.82291 -0.00219404 -0.592342)
(3.02186 -0.00179763 -0.562125)
(3.20599 -0.000836932 -0.527106)
(3.37333 -0.000668604 -0.490999)
(3.52587 -0.000904254 -0.454169)
(3.66274 -0.00147284 -0.418156)
(3.78695 -0.00195536 -0.38278)
(3.89755 -0.00265544 -0.349984)
(3.99698 -0.00343442 -0.319494)
(4.08221 -0.00482465 -0.292011)
(4.15871 -0.00545674 -0.265313)
(4.21353 -0.00790127 -0.243351)