/*--------------------------------*- C++ -*----------------------------------*\
  =========                 |
  \\      /  F ield         | OpenFOAM: The Open Source CFD Toolbox
   \\    /   O peration     | Website:  https://openfoam.org
    \\  /    A nd           | Version:  7
     \\/     M anipulation  |
\*---------------------------------------------------------------------------*/
FoamFile
{
    version     2.0;
    format      ascii;
    class       volVectorField;
    location    "56";
    object      ddtCorrDdt0(hU);
}
// * * * * * * * * * * * * * * * * * * * * * * * * * * * * * * * * * * * * * //

dimensions      [0 2 -2 0 0 0 0];

internalField   nonuniform List<vector> 
400
(
(6.86131e-11 2.05507e-10 0)
(2.93056e-10 1.77313e-10 0)
(-1.61415e-10 6.61966e-11 0)
(-5.11351e-10 3.34719e-10 0)
(-4.4829e-10 3.79709e-10 0)
(1.19607e-09 -2.13123e-10 0)
(-1.71898e-09 -4.75974e-10 0)
(-3.30509e-10 7.52241e-11 0)
(1.13919e-09 3.56727e-11 0)
(1.05146e-09 -4.59444e-10 0)
(5.33297e-10 -2.97955e-10 0)
(2.96631e-10 5.93118e-12 0)
(1.48099e-10 3.09232e-10 0)
(1.15609e-10 4.44561e-10 0)
(1.84582e-10 4.10619e-10 0)
(1.07395e-10 2.76158e-10 0)
(6.4747e-11 -2.52591e-11 0)
(9.17553e-11 -1.67758e-10 0)
(7.70687e-11 -5.10512e-10 0)
(5.97536e-10 -4.39689e-10 0)
(-1.36625e-11 1.66138e-10 0)
(9.08021e-11 5.17979e-11 0)
(-1.15978e-10 -1.24993e-10 0)
(-2.40521e-10 4.05279e-10 0)
(-5.90001e-10 3.46295e-10 0)
(-1.52565e-09 4.4696e-10 0)
(1.20637e-09 -6.36282e-10 0)
(-1.13295e-09 6.25378e-10 0)
(-2.6785e-11 5.34857e-10 0)
(1.0736e-10 -2.67351e-10 0)
(5.6386e-10 -3.26663e-10 0)
(6.48744e-10 -2.20133e-10 0)
(5.57419e-10 1.08922e-11 0)
(3.87565e-10 2.43499e-10 0)
(2.51844e-10 3.24954e-10 0)
(5.67026e-11 3.23717e-10 0)
(-4.16689e-11 1.50489e-10 0)
(3.75195e-12 3.98941e-11 0)
(1.19237e-11 -1.16084e-10 0)
(5.1239e-10 -2.40729e-10 0)
(9.23651e-11 1.14861e-10 0)
(-3.36705e-11 3.68953e-10 0)
(-1.46434e-10 3.54742e-10 0)
(-3.08961e-10 3.51077e-10 0)
(-4.09676e-10 -1.14369e-10 0)
(-3.73761e-10 2.81019e-10 0)
(-6.98285e-10 -8.22404e-10 0)
(1.1604e-09 -5.229e-10 0)
(-2.46992e-10 -7.29651e-10 0)
(-9.8566e-11 -5.44773e-10 0)
(4.41876e-10 -9.37525e-11 0)
(5.26142e-10 2.49888e-10 0)
(5.8665e-10 5.97173e-10 0)
(4.58343e-10 7.69755e-10 0)
(2.45986e-10 7.14218e-10 0)
(-9.95613e-11 5.61013e-10 0)
(-2.48568e-10 5.65267e-11 0)
(-1.98014e-10 -1.34931e-10 0)
(-8.92143e-11 -7.43566e-10 0)
(6.5723e-10 -8.50264e-10 0)
(5.86171e-11 1.57602e-10 0)
(4.24994e-12 5.18649e-10 0)
(-1.22616e-10 6.53899e-10 0)
(-4.43563e-10 4.39152e-10 0)
(-3.46732e-10 3.55308e-10 0)
(-5.68519e-10 -6.00195e-11 0)
(-2.58142e-10 8.09714e-11 0)
(2.28257e-10 -6.09394e-10 0)
(-3.30339e-10 -1.11403e-09 0)
(2.93029e-10 -5.55449e-10 0)
(6.86095e-10 -1.60444e-12 0)
(6.50549e-10 4.37959e-10 0)
(6.77888e-10 8.81085e-10 0)
(5.11369e-10 1.02022e-09 0)
(2.47723e-10 8.60915e-10 0)
(-5.87993e-11 6.60703e-10 0)
(-2.0466e-10 5.64602e-11 0)
(-1.24025e-10 -1.30619e-10 0)
(-2.45946e-11 -8.76075e-10 0)
(4.91242e-10 -1.0871e-09 0)
(-4.31297e-11 9.53121e-11 0)
(-1.14816e-10 3.29706e-10 0)
(-6.98213e-11 5.6423e-10 0)
(-2.66454e-10 4.47122e-10 0)
(-7.18903e-11 5.62431e-10 0)
(-3.63301e-10 -1.61334e-10 0)
(1.75049e-10 3.37341e-11 0)
(-3.57329e-10 -7.47558e-10 0)
(-3.27094e-10 -8.11282e-10 0)
(4.75325e-10 -3.1541e-10 0)
(3.80482e-10 1.04168e-11 0)
(3.78966e-10 4.64697e-10 0)
(4.57713e-10 9.60642e-10 0)
(2.61187e-10 1.10778e-09 0)
(9.74118e-11 9.12272e-10 0)
(-4.73811e-11 7.05619e-10 0)
(-5.27411e-11 8.91783e-11 0)
(6.30097e-11 -8.06597e-11 0)
(1.25598e-10 -8.46448e-10 0)
(5.37106e-10 -1.14647e-09 0)
(-3.7503e-11 1.66294e-10 0)
(-5.45216e-11 5.56366e-10 0)
(-9.64889e-11 8.64199e-10 0)
(-3.18757e-10 7.1291e-10 0)
(-3.80586e-10 4.93618e-10 0)
(-4.27352e-10 -1.66731e-10 0)
(-1.48229e-10 -6.30478e-10 0)
(-4.2499e-10 -1.32063e-09 0)
(3.9443e-10 -9.61213e-10 0)
(6.60254e-10 -6.78928e-10 0)
(5.07394e-10 -1.415e-10 0)
(6.72184e-10 6.51046e-10 0)
(5.38586e-10 1.28692e-09 0)
(9.58003e-11 1.46427e-09 0)
(-1.24248e-10 1.26363e-09 0)
(-2.55553e-10 9.78684e-10 0)
(-2.09098e-10 9.59552e-11 0)
(-4.4046e-11 -1.57979e-10 0)
(7.11485e-11 -1.29625e-09 0)
(5.5137e-10 -1.6077e-09 0)
(-2.91181e-11 1.62061e-10 0)
(9.88551e-12 5.53947e-10 0)
(-7.04086e-11 8.08512e-10 0)
(-1.30831e-10 9.50962e-10 0)
(-2.38299e-10 6.69732e-10 0)
(-7.31219e-11 4.10674e-10 0)
(-1.73095e-10 -2.73835e-10 0)
(-1.31399e-10 -6.55187e-10 0)
(1.54527e-10 -6.35801e-10 0)
(-4.33209e-11 -6.5987e-10 0)
(1.45436e-10 -4.47012e-11 0)
(3.67331e-10 6.61748e-10 0)
(2.13546e-10 1.15652e-09 0)
(4.29656e-11 1.4151e-09 0)
(4.76985e-11 1.38179e-09 0)
(1.00026e-10 1.20527e-09 0)
(1.89563e-10 3.08395e-10 0)
(3.04221e-10 1.70256e-11 0)
(2.43681e-10 -1.09112e-09 0)
(3.11184e-10 -1.56478e-09 0)
(7.72179e-12 1.90876e-10 0)
(6.01398e-11 6.17711e-10 0)
(-5.67899e-11 8.10653e-10 0)
(-1.03582e-10 9.93388e-10 0)
(-2.65953e-10 6.35749e-10 0)
(-1.4991e-10 1.9309e-10 0)
(-2.87208e-10 -5.68779e-10 0)
(-5.5082e-11 -9.15302e-10 0)
(2.95993e-12 -1.06219e-09 0)
(5.43311e-11 -7.48633e-10 0)
(4.12395e-10 1.28271e-10 0)
(3.23184e-10 8.78491e-10 0)
(1.0138e-10 1.51162e-09 0)
(7.62468e-11 1.855e-09 0)
(2.85917e-11 1.79073e-09 0)
(-1.03688e-10 1.51024e-09 0)
(-2.82617e-11 3.70151e-10 0)
(1.00617e-10 -6.82014e-11 0)
(7.41496e-11 -1.42264e-09 0)
(2.56572e-10 -1.84044e-09 0)
(4.47174e-11 2.48366e-10 0)
(4.31724e-11 5.86127e-10 0)
(-4.1302e-11 8.43205e-10 0)
(-1.03875e-10 9.26034e-10 0)
(-1.52798e-10 7.24223e-10 0)
(-1.00091e-10 2.08623e-10 0)
(-1.27948e-10 -4.13113e-10 0)
(-1.21635e-11 -7.98222e-10 0)
(-4.16581e-11 -9.90218e-10 0)
(7.53916e-11 -5.73788e-10 0)
(1.83602e-10 1.33127e-10 0)
(3.57207e-11 7.93602e-10 0)
(4.35444e-11 1.56664e-09 0)
(1.76519e-10 1.94344e-09 0)
(1.38558e-10 1.82792e-09 0)
(3.02066e-11 1.61923e-09 0)
(5.27945e-11 5.40943e-10 0)
(1.2969e-10 6.93132e-11 0)
(9.36962e-11 -1.3769e-09 0)
(6.66591e-11 -1.89605e-09 0)
(1.84859e-11 2.79082e-10 0)
(-3.7001e-11 5.53263e-10 0)
(-4.62197e-13 8.65658e-10 0)
(-3.99582e-11 9.3485e-10 0)
(-4.86092e-12 7.58498e-10 0)
(-5.6962e-11 2.00316e-10 0)
(-1.05442e-11 -4.24874e-10 0)
(-4.40411e-11 -8.70651e-10 0)
(-5.81016e-12 -9.96986e-10 0)
(9.23083e-11 -5.4392e-10 0)
(2.70143e-12 1.99376e-10 0)
(5.74474e-11 9.71056e-10 0)
(1.88716e-10 1.78949e-09 0)
(1.51011e-10 2.07441e-09 0)
(1.17968e-10 1.83385e-09 0)
(8.8727e-11 1.55347e-09 0)
(-2.48306e-11 4.39965e-10 0)
(-1.70222e-10 -3.81242e-11 0)
(-2.25354e-10 -1.53027e-09 0)
(-6.29901e-11 -1.98706e-09 0)
(-7.03146e-12 2.27264e-10 0)
(-6.19283e-11 5.8952e-10 0)
(1.95211e-11 8.47824e-10 0)
(1.24553e-11 9.65697e-10 0)
(8.02388e-11 7.12234e-10 0)
(-5.4654e-12 2.13571e-10 0)
(8.40481e-11 -4.17238e-10 0)
(2.1218e-11 -8.60308e-10 0)
(6.28026e-11 -9.28966e-10 0)
(9.46476e-11 -5.97242e-10 0)
(-1.3354e-10 2.17487e-10 0)
(-9.05176e-11 1.04496e-09 0)
(2.01863e-11 1.72084e-09 0)
(-4.72827e-11 1.97273e-09 0)
(-1.18677e-11 1.78882e-09 0)
(1.29325e-10 1.47218e-09 0)
(6.7431e-11 3.09408e-10 0)
(-8.82956e-11 -1.34302e-10 0)
(-1.00497e-10 -1.54362e-09 0)
(-1.071e-10 -1.97024e-09 0)
(1.05032e-11 1.96236e-10 0)
(6.57882e-12 5.79354e-10 0)
(9.08379e-12 8.38624e-10 0)
(6.1444e-11 9.69281e-10 0)
(1.44859e-10 6.69629e-10 0)
(1.06665e-10 2.28633e-10 0)
(9.9788e-11 -3.63547e-10 0)
(6.16847e-11 -8.14847e-10 0)
(-6.71008e-11 -8.23551e-10 0)
(-3.17391e-11 -6.53839e-10 0)
(-1.49031e-10 1.09987e-10 0)
(-2.71906e-10 9.6937e-10 0)
(-1.59075e-10 1.57194e-09 0)
(-1.1158e-11 1.8111e-09 0)
(2.03274e-11 1.67096e-09 0)
(-4.96268e-12 1.37583e-09 0)
(-7.10134e-11 2.77244e-10 0)
(-1.50781e-10 -9.37636e-11 0)
(-1.52039e-10 -1.40524e-09 0)
(-1.50489e-10 -1.87368e-09 0)
(1.07634e-12 2.0681e-10 0)
(7.05309e-11 5.23146e-10 0)
(7.66545e-12 8.89655e-10 0)
(1.27525e-10 9.32123e-10 0)
(1.56614e-10 7.29139e-10 0)
(2.61585e-10 1.30433e-10 0)
(1.22301e-10 -4.49727e-10 0)
(2.0746e-10 -1.03979e-09 0)
(-1.31641e-10 -9.68784e-10 0)
(-2.827e-10 -6.70506e-10 0)
(-1.78887e-10 2.69792e-11 0)
(-4.15486e-10 9.57851e-10 0)
(-4.78275e-10 1.72596e-09 0)
(-1.85278e-10 1.93706e-09 0)
(-4.14475e-11 1.65129e-09 0)
(3.57948e-11 1.26891e-09 0)
(1.07748e-10 1.97064e-10 0)
(1.3387e-10 -1.51783e-10 0)
(9.49089e-11 -1.46197e-09 0)
(-2.38017e-10 -1.84756e-09 0)
(-1.94582e-11 2.08454e-10 0)
(9.05499e-11 5.11992e-10 0)
(7.80904e-11 8.41676e-10 0)
(2.26031e-10 8.45972e-10 0)
(9.38703e-11 8.69078e-10 0)
(2.26334e-10 2.14434e-10 0)
(9.60469e-12 -1.52282e-10 0)
(1.95379e-10 -7.86446e-10 0)
(1.3288e-10 -9.1909e-10 0)
(-2.71913e-10 -5.0787e-10 0)
(-1.00438e-10 -5.44369e-11 0)
(-1.16117e-10 5.74135e-10 0)
(-3.82423e-10 1.33997e-09 0)
(-3.96911e-10 1.65287e-09 0)
(-3.11652e-10 1.45988e-09 0)
(-2.0082e-10 1.20319e-09 0)
(-6.23268e-11 3.14777e-10 0)
(-2.24372e-11 1.03904e-11 0)
(8.86337e-12 -1.1273e-09 0)
(-1.97643e-10 -1.58486e-09 0)
(-4.62358e-11 2.27703e-10 0)
(2.83496e-11 6.00945e-10 0)
(1.76524e-10 7.44639e-10 0)
(3.82992e-10 7.38613e-10 0)
(3.62895e-10 4.67233e-10 0)
(4.00239e-10 -1.60251e-10 0)
(2.80255e-10 -6.86569e-10 0)
(-9.88777e-11 -9.89749e-10 0)
(1.55862e-10 -1.41792e-09 0)
(-3.80618e-10 -8.55822e-10 0)
(-6.23608e-10 -1.00124e-10 0)
(-3.90531e-10 5.33695e-10 0)
(-3.86608e-10 1.26528e-09 0)
(-3.46312e-10 1.61975e-09 0)
(-1.8382e-10 1.49674e-09 0)
(9.49253e-11 1.20258e-09 0)
(2.19619e-10 2.28163e-10 0)
(2.01812e-10 -1.24861e-10 0)
(1.34833e-10 -1.31239e-09 0)
(-4.2844e-10 -1.62083e-09 0)
(-4.08473e-11 1.50827e-10 0)
(-3.5486e-11 4.13238e-10 0)
(1.66756e-10 4.32416e-10 0)
(2.21925e-10 6.0183e-10 0)
(3.07127e-10 2.64511e-10 0)
(-6.83932e-12 3.54003e-10 0)
(4.35829e-10 -4.49217e-10 0)
(-4.22795e-10 -1.82325e-10 0)
(-1.32585e-10 -5.70415e-10 0)
(1.35964e-10 -6.54323e-10 0)
(-2.29821e-10 -1.18868e-10 0)
(-1.71714e-10 3.12108e-10 0)
(-1.51737e-10 7.47554e-10 0)
(-2.22541e-10 1.04996e-09 0)
(-2.41595e-10 1.07246e-09 0)
(-1.37343e-10 9.5386e-10 0)
(-8.89978e-11 2.56879e-10 0)
(-9.04039e-11 -3.18815e-11 0)
(-6.43291e-11 -8.57408e-10 0)
(-4.79042e-10 -1.16024e-09 0)
(-4.27121e-11 2.26533e-10 0)
(-1.90715e-10 5.7284e-10 0)
(1.3391e-10 5.64658e-10 0)
(3.27567e-10 6.56938e-10 0)
(6.69997e-10 2.3422e-10 0)
(1.87663e-10 2.85756e-10 0)
(6.71484e-10 -7.89386e-10 0)
(4.91726e-10 -5.00269e-10 0)
(-7.88887e-10 -2.79567e-10 0)
(-5.25686e-10 -5.23396e-10 0)
(-5.29447e-10 -2.13874e-10 0)
(-5.26887e-10 2.13351e-10 0)
(-3.63004e-10 5.9808e-10 0)
(-2.16415e-10 8.2197e-10 0)
(-1.46134e-10 8.37373e-10 0)
(-3.46132e-11 7.63372e-10 0)
(8.29231e-12 1.68083e-10 0)
(-5.26651e-11 -9.03133e-11 0)
(-6.47977e-11 -8.9101e-10 0)
(-4.95109e-10 -1.10166e-09 0)
(-2.86615e-11 4.60878e-11 0)
(-2.17539e-10 2.7663e-10 0)
(9.34835e-11 3.95183e-10 0)
(2.72422e-10 3.13279e-10 0)
(5.06855e-10 4.07159e-10 0)
(1.14443e-10 -6.09395e-10 0)
(2.74485e-10 -1.08437e-09 0)
(6.60573e-10 -5.82229e-10 0)
(-5.72744e-10 -4.25098e-10 0)
(-9.30882e-10 -3.19972e-10 0)
(-7.07954e-10 -7.01016e-11 0)
(-5.02937e-10 3.04851e-10 0)
(-2.68893e-10 5.80157e-10 0)
(-5.32982e-11 6.40446e-10 0)
(9.23766e-13 5.45505e-10 0)
(1.28948e-10 4.4777e-10 0)
(1.03802e-10 3.76707e-11 0)
(-7.60193e-12 -1.11253e-10 0)
(-4.78798e-11 -7.24777e-10 0)
(-6.73193e-10 -8.43102e-10 0)
(-7.14114e-11 -1.51116e-10 0)
(-8.98036e-11 3.52239e-11 0)
(1.35631e-10 3.1557e-10 0)
(5.85061e-10 -2.90111e-11 0)
(-1.48188e-10 1.49483e-10 0)
(-7.99562e-10 2.15791e-10 0)
(7.24136e-10 1.7472e-09 0)
(4.87215e-09 -8.19772e-10 0)
(-4.66465e-10 -5.14493e-10 0)
(-8.15554e-10 1.6982e-10 0)
(-6.87396e-10 3.55547e-10 0)
(-6.2052e-10 3.43631e-10 0)
(-5.32573e-10 2.31602e-10 0)
(-3.22516e-10 1.21265e-10 0)
(-1.54473e-10 4.05226e-11 0)
(3.77301e-11 7.30246e-11 0)
(5.69611e-11 4.92135e-11 0)
(-7.28542e-11 7.39302e-11 0)
(-7.87296e-11 -4.44943e-11 0)
(-5.18641e-10 -2.09674e-10 0)
(7.71916e-11 1.69316e-12 0)
(1.38145e-10 2.58736e-10 0)
(6.21041e-11 4.21937e-10 0)
(2.52107e-10 5.84187e-11 0)
(7.36329e-10 -2.85457e-10 0)
(1.95852e-09 4.10497e-10 0)
(-6.6031e-10 1.68234e-09 0)
(-4.88843e-09 -1.40128e-09 0)
(1.09532e-09 -9.03297e-10 0)
(3.39735e-10 -1.00766e-10 0)
(-5.1842e-10 2.67513e-10 0)
(-8.52449e-10 3.89175e-10 0)
(-8.12937e-10 4.11194e-10 0)
(-4.77183e-10 3.41266e-10 0)
(-1.68899e-10 2.39078e-10 0)
(1.32108e-10 1.40913e-10 0)
(1.58053e-10 -7.59858e-11 0)
(-7.03299e-12 -1.41272e-10 0)
(-9.10369e-11 -4.6333e-10 0)
(-6.31571e-10 -4.20665e-10 0)
)
;

boundaryField
{
    sides
    {
        type            calculated;
        value           nonuniform List<vector> 
40
(
(7.71916e-11 0 0)
(1.38145e-10 0 0)
(6.21041e-11 0 0)
(2.52107e-10 0 0)
(7.36329e-10 0 0)
(1.95852e-09 0 0)
(-6.6031e-10 0 0)
(-4.88843e-09 0 0)
(1.09532e-09 0 0)
(3.39735e-10 0 0)
(-5.1842e-10 0 0)
(-8.52449e-10 0 0)
(-8.12937e-10 0 0)
(-4.77183e-10 0 0)
(-1.68899e-10 0 0)
(1.32108e-10 0 0)
(1.58053e-10 0 0)
(-7.03299e-12 0 0)
(-9.10369e-11 0 0)
(-6.31571e-10 0 0)
(6.86131e-11 0 0)
(2.93056e-10 0 0)
(-1.61415e-10 0 0)
(-5.11351e-10 0 0)
(-4.4829e-10 0 0)
(1.19607e-09 0 0)
(-1.71898e-09 0 0)
(-3.30509e-10 0 0)
(1.13919e-09 0 0)
(1.05146e-09 0 0)
(5.33297e-10 0 0)
(2.96631e-10 0 0)
(1.48099e-10 0 0)
(1.15609e-10 0 0)
(1.84582e-10 0 0)
(1.07395e-10 0 0)
(6.4747e-11 0 0)
(9.17553e-11 0 0)
(7.70687e-11 0 0)
(5.97536e-10 0 0)
)
;
    }
    inlet
    {
        type            calculated;
        value           uniform (0 0 0);
    }
    outlet
    {
        type            calculated;
        value           nonuniform List<vector> 
20
(
(5.97536e-10 -4.39689e-10 0)
(5.1239e-10 -2.40729e-10 0)
(6.5723e-10 -8.50264e-10 0)
(4.91242e-10 -1.0871e-09 0)
(5.37106e-10 -1.14647e-09 0)
(5.5137e-10 -1.6077e-09 0)
(3.11184e-10 -1.56478e-09 0)
(2.56572e-10 -1.84044e-09 0)
(6.66591e-11 -1.89605e-09 0)
(-6.29901e-11 -1.98706e-09 0)
(-1.071e-10 -1.97024e-09 0)
(-1.50489e-10 -1.87368e-09 0)
(-2.38017e-10 -1.84756e-09 0)
(-1.97643e-10 -1.58486e-09 0)
(-4.2844e-10 -1.62083e-09 0)
(-4.79042e-10 -1.16024e-09 0)
(-4.95109e-10 -1.10166e-09 0)
(-6.73193e-10 -8.43102e-10 0)
(-5.18641e-10 -2.09674e-10 0)
(-6.31571e-10 -4.20665e-10 0)
)
;
    }
    frontAndBack
    {
        type            empty;
    }
}


// ************************************************************************* //
