/*--------------------------------*- C++ -*----------------------------------*\
  =========                 |
  \\      /  F ield         | OpenFOAM: The Open Source CFD Toolbox
   \\    /   O peration     | Website:  https://openfoam.org
    \\  /    A nd           | Version:  7
     \\/     M anipulation  |
\*---------------------------------------------------------------------------*/
FoamFile
{
    version     2.0;
    format      ascii;
    class       surfaceScalarField;
    location    "56";
    object      ddtCorrDdt0(phi);
}
// * * * * * * * * * * * * * * * * * * * * * * * * * * * * * * * * * * * * * //

dimensions      [0 4 -2 0 0 0 0];

internalField   nonuniform List<scalar> 
760
(
1.11313e-12
1.04068e-12
9.91268e-13
5.04343e-13
-3.60061e-12
2.75727e-13
-1.74177e-12
2.59259e-12
1.68608e-12
-5.253e-12
2.10832e-12
1.01626e-10
-1.07872e-11
2.72302e-10
4.53187e-12
2.74271e-10
6.57679e-12
1.66672e-11
3.228e-12
-7.51463e-13
2.03173e-12
-9.90835e-13
9.55135e-13
-5.59826e-13
5.86617e-13
3.63076e-13
7.47587e-13
1.17263e-12
8.39038e-13
1.46859e-12
4.75682e-13
1.4145e-12
4.37384e-13
4.39027e-13
4.92872e-13
-1.59059e-13
1.55158e-12
-1.34691e-12
-1.61953e-12
-2.41723e-13
6.53893e-13
-6.15528e-13
1.73184e-12
-9.16482e-13
7.75028e-13
7.30966e-14
1.84867e-12
-9.0057e-12
1.33605e-12
2.33255e-12
-4.75186e-13
-1.14143e-12
-1.43978e-11
-2.22379e-12
-1.86395e-12
-4.98038e-13
-2.0391e-12
1.71194e-12
-2.65551e-12
3.1835e-12
-1.03914e-12
3.04654e-12
4.47806e-13
2.36301e-12
1.83613e-12
1.57768e-12
2.66546e-12
8.35716e-13
2.71856e-12
5.76669e-14
2.35202e-12
-1.07373e-13
5.52488e-13
9.15318e-14
-2.38056e-13
1.25756e-12
-2.29881e-12
-2.84117e-12
-6.32778e-13
-1.23941e-11
-1.3327e-12
1.89846e-12
4.79843e-13
1.78213e-12
-3.00286e-12
1.81833e-12
1.76206e-13
3.64602e-13
-7.23065e-12
3.44347e-12
5.2044e-12
-7.89628e-13
1.85528e-12
-1.78627e-12
-2.03364e-12
-3.98103e-12
1.17455e-12
-2.91052e-12
2.40832e-12
-4.62718e-13
2.80634e-12
1.64195e-12
2.72329e-12
3.6141e-12
1.74975e-12
4.39052e-12
4.50331e-13
3.86173e-12
-8.94551e-13
2.98971e-12
-1.2112e-12
3.25416e-13
-6.9092e-13
-5.36416e-13
1.35623e-12
-3.76574e-12
-4.6854e-12
-4.93701e-14
6.18826e-13
-1.30851e-12
2.29552e-12
-2.96217e-13
3.13362e-12
-3.3186e-12
2.44392e-12
5.71537e-13
1.96352e-12
-6.05144e-12
-1.79869e-12
3.01588e-12
4.29153e-13
-1.17977e-12
-3.20394e-12
-6.23236e-13
-6.01479e-12
2.87562e-12
-2.63631e-12
3.19703e-12
1.06784e-13
3.385e-12
2.35521e-12
3.05685e-12
4.90418e-12
1.88201e-12
5.716e-12
5.46901e-13
4.71879e-12
-6.71275e-13
3.5125e-12
-8.90256e-13
2.74449e-13
-3.46414e-13
-6.97295e-13
1.13766e-12
-4.61843e-12
-5.74834e-12
-6.91751e-13
6.32552e-13
-1.18682e-12
2.28573e-12
-3.42522e-13
3.85732e-12
-9.47665e-13
2.86166e-12
-7.26143e-13
3.22318e-12
-1.30528e-12
-1.21312e-12
1.0548e-12
-1.28628e-12
-3.50644e-12
-6.05353e-12
1.2278e-12
-4.07494e-12
2.24319e-12
-1.74857e-12
1.57949e-12
-3.11389e-13
2.32013e-12
2.5503e-12
1.86662e-12
5.42037e-12
7.53736e-13
6.19852e-12
1.20482e-13
5.12269e-12
-2.08552e-13
3.96289e-12
4.01983e-14
4.20336e-13
4.52326e-13
-5.22294e-13
1.5841e-12
-5.16914e-12
-6.79609e-12
-6.39111e-13
7.54463e-13
-5.73337e-13
2.59071e-12
-1.4834e-12
4.25649e-12
-5.39187e-13
4.08508e-12
-3.36676e-12
2.77587e-12
-2.63056e-13
1.05694e-12
-2.09658e-12
-2.45429e-12
-4.15825e-13
-4.79414e-12
3.57803e-12
-3.45292e-12
2.34106e-12
-3.46089e-12
2.84272e-12
-5.8474e-13
3.4023e-12
3.50017e-12
1.60038e-12
6.38651e-12
-3.12699e-13
7.34878e-12
-9.96946e-13
6.63979e-12
-1.02487e-12
5.39074e-12
-5.37247e-13
9.04486e-13
1.99674e-14
-4.73088e-13
1.47474e-12
-6.16601e-12
-8.01357e-12
-5.97583e-13
9.01336e-13
1.50221e-13
2.96673e-12
-1.16711e-12
3.79145e-12
3.30737e-14
4.86865e-12
-1.60529e-12
2.78111e-12
1.14057e-13
1.33851e-12
-1.69697e-12
-2.39908e-12
7.83314e-13
-3.85289e-12
2.63783e-13
-4.44047e-12
-2.26571e-13
-3.86342e-12
1.56412e-12
2.05099e-13
1.63092e-12
3.88264e-12
5.95887e-13
6.43479e-12
4.60344e-14
7.9698e-12
2.59731e-13
7.93972e-12
8.81382e-13
6.86627e-12
1.37463e-12
1.73517e-12
1.34645e-12
-5.24146e-14
1.29411e-12
-6.09818e-12
-8.40732e-12
-1.70123e-13
1.02607e-12
-3.20861e-14
3.12571e-12
-3.08753e-13
4.05698e-12
-1.03821e-12
4.78374e-12
-9.20733e-13
3.64533e-12
-1.11638e-12
1.19752e-12
-1.19126e-12
-2.24434e-12
5.0727e-13
-4.14728e-12
-3.65779e-13
-5.21181e-12
1.19609e-12
-3.22065e-12
2.14282e-12
7.27407e-13
8.52186e-13
4.0213e-12
4.74126e-13
7.52363e-12
3.30903e-13
9.51582e-12
-3.27413e-13
9.26449e-12
-3.27574e-13
8.08312e-12
3.37358e-13
2.43175e-12
5.38645e-13
7.2642e-14
7.42655e-13
-6.97239e-12
-9.33444e-12
2.40502e-13
1.43703e-12
-3.51498e-13
2.74816e-12
-3.16831e-14
4.40165e-12
-8.87385e-13
4.62348e-12
-3.46121e-13
3.86331e-12
-8.4699e-13
9.84808e-13
-3.08845e-13
-2.10727e-12
2.18232e-14
-4.26245e-12
-1.61628e-13
-5.02556e-12
8.51786e-13
-2.60463e-12
5.47011e-13
9.19608e-13
-3.6986e-14
4.54544e-12
6.79972e-13
8.78456e-12
9.78744e-13
1.03402e-11
3.23782e-13
9.16054e-12
7.5318e-14
7.87222e-12
5.56239e-13
2.45799e-12
7.14835e-13
8.45935e-14
3.16511e-13
-7.27687e-12
-9.71021e-12
-1.06157e-13
1.33693e-12
-1.28132e-13
2.8535e-12
-8.93345e-14
4.32567e-12
-5.43232e-14
4.67992e-12
-1.12967e-13
3.61876e-12
-3.58031e-13
9.82804e-13
2.70446e-14
-2.00607e-12
-3.26025e-13
-4.15819e-12
4.30879e-13
-4.65316e-12
2.52895e-13
-2.72164e-12
-5.49653e-14
1.02273e-12
6.92999e-13
4.96504e-12
8.99989e-13
8.76023e-12
6.96817e-13
1.0099e-11
5.45258e-13
9.05489e-12
7.57475e-14
7.68031e-12
-4.76167e-13
2.07166e-12
-8.95878e-13
-2.82081e-13
-7.36788e-13
-7.70701e-12
-9.9516e-12
-1.44055e-13
9.35147e-13
-3.6548e-15
3.09161e-12
-5.8835e-14
4.16824e-12
3.20265e-13
4.9276e-12
1.74006e-13
3.4016e-12
1.1125e-13
1.11839e-12
5.01761e-13
-2.01912e-12
-1.34165e-13
-4.15092e-12
7.11419e-13
-4.3346e-12
-1.39758e-13
-3.0867e-12
-7.9919e-13
1.09756e-12
-1.31892e-14
5.28122e-12
-1.05544e-13
8.18652e-12
-1.671e-13
9.38471e-12
4.3605e-13
8.67888e-12
4.43611e-13
7.05298e-12
-1.09378e-13
1.21859e-12
-4.89688e-13
-8.37329e-13
-5.52067e-13
-7.45158e-12
-9.59203e-12
4.87065e-13
1.03424e-12
-1.65718e-13
2.64717e-12
3.47988e-13
4.18069e-12
2.25675e-13
4.91483e-12
8.87871e-13
3.5408e-12
3.21789e-13
1.27035e-12
6.84996e-13
-1.81409e-12
-2.21498e-13
-4.40375e-12
-2.77175e-13
-4.24726e-12
-2.10002e-13
-3.43698e-12
-1.14019e-12
3.46022e-13
-1.23707e-12
5.0004e-12
-4.79657e-13
8.2628e-12
1.61681e-13
9.25679e-12
1.47284e-13
8.18542e-12
-3.07691e-13
6.50663e-12
-6.47922e-13
1.14872e-12
-7.28609e-13
-5.94048e-13
-6.9108e-13
-7.17729e-12
-9.32684e-12
5.55533e-13
1.04961e-12
1.0058e-13
2.48932e-12
6.54597e-13
4.49969e-12
1.22158e-13
4.08705e-12
1.56148e-12
3.80966e-12
7.68087e-13
6.42383e-13
8.29692e-13
-1.64402e-12
4.72118e-13
-4.84186e-12
-1.61089e-12
-4.58459e-12
-7.94304e-13
-2.88852e-12
-1.21684e-12
-3.79501e-13
-2.60543e-12
3.63995e-12
-1.78488e-12
7.77011e-12
-4.0048e-13
9.07654e-12
2.48896e-14
7.69649e-12
3.1143e-13
6.09622e-12
5.57234e-13
1.34395e-12
5.4667e-13
-2.14452e-13
-2.99249e-13
-6.35838e-12
-8.55245e-12
2.37811e-13
1.04298e-12
1.07607e-12
2.76763e-12
3.07569e-13
3.8925e-12
8.6481e-13
3.84127e-12
6.1434e-13
3.76657e-12
1.1699e-12
-3.96605e-13
-2.5382e-13
-2.07195e-12
1.62129e-12
-5.15988e-12
-8.34302e-13
-6.36677e-12
-1.06158e-12
-3.17535e-12
-8.70344e-14
-1.54328e-13
-1.3458e-12
2.82278e-12
-2.12957e-12
6.74535e-12
-1.81359e-12
8.5283e-12
-1.307e-12
7.65739e-12
-5.66456e-13
6.138e-12
-1.86366e-13
1.36397e-12
-1.38886e-13
-3.40475e-13
-4.12773e-13
-6.24333e-12
-8.07563e-12
5.29552e-14
1.08404e-12
1.37229e-12
2.73002e-12
5.57517e-13
2.91178e-12
2.89762e-12
3.62351e-12
3.09906e-13
1.55055e-12
3.49632e-12
7.15124e-13
-9.23857e-13
-2.35162e-12
4.9964e-13
-1.67525e-12
-8.96741e-14
-5.51524e-12
-3.02497e-12
-4.12462e-12
-2.37526e-12
-5.83674e-13
-1.73311e-12
1.92656e-12
-1.91759e-12
4.67474e-12
-1.48065e-12
6.41576e-12
-3.37805e-13
6.35569e-12
8.92327e-13
5.41676e-12
1.1064e-12
1.28515e-12
7.47233e-13
-2.41837e-13
-6.78327e-13
-5.10901e-12
-6.79649e-12
1.4436e-13
9.76056e-13
6.93227e-13
2.58244e-12
7.60275e-13
2.6305e-12
1.63251e-12
3.10866e-12
-1.73936e-13
1.06568e-12
2.05627e-12
2.1973e-12
3.27416e-13
-3.91568e-12
-2.96887e-12
-1.96649e-12
1.21266e-12
-1.40495e-12
-4.25667e-13
-3.50635e-12
-1.19991e-12
-1.02174e-12
-6.09377e-13
1.51161e-12
-8.87577e-13
3.56922e-12
-1.20845e-12
4.85018e-12
-1.08318e-12
4.99978e-12
-5.91757e-13
4.46562e-12
-4.02404e-13
1.0244e-12
-3.93513e-13
-4.53688e-13
-1.28341e-12
-4.63873e-12
-5.79268e-12
-2.77095e-13
-1.15657e-11
-1.59786e-13
1.70459e-12
1.94554e-12
2.33685e-12
9.22219e-13
2.16653e-12
4.05226e-12
1.33977e-12
-2.72288e-13
7.91102e-13
5.84227e-12
-3.22801e-12
-2.60269e-12
-4.0367e-12
-3.30909e-12
-1.59776e-12
-2.10033e-12
-6.91154e-13
-2.8516e-12
-2.05553e-13
-2.21243e-12
1.20693e-12
-1.3491e-12
2.55761e-12
-8.22628e-13
3.21428e-12
-5.47096e-13
3.13552e-12
-2.02883e-13
2.90275e-12
-1.41767e-13
5.76535e-13
-2.72169e-13
-4.16594e-13
-1.31685e-12
-3.83129e-12
-4.73302e-12
-1.60416e-13
4.23013e-13
-8.37127e-13
1.28973e-12
2.45217e-12
2.46965e-12
-2.33508e-13
1.37724e-12
4.61826e-12
2.32024e-12
-3.66298e-12
-1.00315e-11
6.5898e-12
-2.76634e-12
-7.87719e-13
-6.1209e-12
-4.67055e-12
-1.90873e-12
-3.78887e-12
-3.86803e-13
-3.04051e-12
5.55494e-13
-1.91029e-12
1.51592e-12
-7.19998e-13
2.22706e-12
2.36978e-15
2.23428e-12
3.13791e-13
1.72861e-12
4.80854e-13
1.45207e-12
1.19518e-13
2.04956e-13
-1.46643e-13
-2.21771e-13
-1.64292e-12
-2.22459e-12
-2.79157e-12
-2.17689e-13
-4.0015e-13
3.34227e-13
1.05672e-12
1.62936e-12
1.83808e-12
3.22884e-12
-2.97365e-13
-4.9811e-12
4.54586e-11
-3.50086e-12
3.03181e-10
2.13321e-11
4.12296e-10
7.4505e-12
-2.59528e-11
-3.25907e-12
6.15309e-12
-3.59791e-12
-7.84679e-13
-3.12792e-12
9.13105e-13
-2.95572e-12
1.61908e-12
-2.16706e-12
1.60946e-12
-1.16273e-12
1.1938e-12
-2.4953e-13
6.50038e-13
2.52013e-13
4.34938e-13
-1.59578e-13
-7.14016e-14
-4.71654e-13
-1.46472e-13
-1.38264e-12
-1.15381e-12
-1.49056e-12
1.09933e-12
1.98235e-12
-8.33413e-13
1.45031e-12
6.59343e-12
1.21348e-11
-2.70069e-11
-3.37616e-12
3.72867e-12
-5.11988e-13
-3.61313e-12
-4.44417e-12
-3.31842e-12
-1.57107e-12
-5.31557e-15
8.40222e-13
3.33361e-13
-3.81488e-13
-1.72272e-12
)
;

boundaryField
{
    sides
    {
        type            calculated;
        value           uniform 0;
    }
    inlet
    {
        type            calculated;
        value           uniform 0;
    }
    outlet
    {
        type            calculated;
        value           nonuniform List<scalar> 
20
(
3.04756e-12
2.55232e-12
3.45928e-12
2.51022e-12
2.90098e-12
2.88214e-12
1.64614e-12
1.1627e-12
1.68127e-13
-4.43012e-13
-4.86671e-13
-7.80481e-13
-1.17377e-12
-9.58929e-13
-2.09278e-12
-2.52708e-12
-2.52973e-12
-3.55388e-12
-2.58504e-12
-3.20121e-12
)
;
    }
    frontAndBack
    {
        type            empty;
        value           nonuniform 0();
    }
}


// ************************************************************************* //
