/*--------------------------------*- C++ -*----------------------------------*\
  =========                 |
  \\      /  F ield         | OpenFOAM: The Open Source CFD Toolbox
   \\    /   O peration     | Website:  https://openfoam.org
    \\  /    A nd           | Version:  7
     \\/     M anipulation  |
\*---------------------------------------------------------------------------*/
FoamFile
{
    version     2.0;
    format      ascii;
    class       volVectorField;
    location    "56";
    object      hU;
}
// * * * * * * * * * * * * * * * * * * * * * * * * * * * * * * * * * * * * * //

dimensions      [0 2 -1 0 0 0 0];

internalField   nonuniform List<vector> 
400
(
(0.001 -8.72968e-09 0)
(0.000999999 -2.38792e-08 0)
(0.001 -3.62997e-08 0)
(0.001 -4.71503e-08 0)
(0.00100001 -5.7363e-08 0)
(0.00100001 -6.79737e-08 0)
(0.00100002 -7.84896e-08 0)
(0.00100003 -8.94534e-08 0)
(0.00100004 -9.99381e-08 0)
(0.00100006 -1.11743e-07 0)
(0.00100007 -1.22379e-07 0)
(0.0010001 -1.35901e-07 0)
(0.00100011 -1.46376e-07 0)
(0.00100015 -1.63404e-07 0)
(0.00100017 -1.7239e-07 0)
(0.00100024 -1.96707e-07 0)
(0.00100026 -2.01229e-07 0)
(0.00100038 -2.43417e-07 0)
(0.00100038 -2.39454e-07 0)
(0.00100061 -3.31718e-07 0)
(0.001 4.03097e-09 0)
(0.001 1.21445e-08 0)
(0.00100001 2.02435e-08 0)
(0.00100001 2.79744e-08 0)
(0.00100002 3.51737e-08 0)
(0.00100002 4.15473e-08 0)
(0.00100003 4.75241e-08 0)
(0.00100004 5.2887e-08 0)
(0.00100005 5.82556e-08 0)
(0.00100007 6.21585e-08 0)
(0.00100008 6.68857e-08 0)
(0.0010001 6.85626e-08 0)
(0.00100012 7.27139e-08 0)
(0.00100016 6.98666e-08 0)
(0.00100018 7.3967e-08 0)
(0.00100023 6.15293e-08 0)
(0.00100026 6.6939e-08 0)
(0.00100035 3.15518e-08 0)
(0.00100037 3.95698e-08 0)
(0.00100051 -5.46894e-08 0)
(0.001 -3.9606e-09 0)
(0.000999999 -1.31348e-08 0)
(0.000999999 -2.33743e-08 0)
(0.001 -3.41797e-08 0)
(0.00100001 -4.49031e-08 0)
(0.00100001 -5.56823e-08 0)
(0.00100002 -6.62824e-08 0)
(0.00100003 -7.76842e-08 0)
(0.00100004 -8.89352e-08 0)
(0.00100005 -1.02297e-07 0)
(0.00100006 -1.14846e-07 0)
(0.00100009 -1.31997e-07 0)
(0.0010001 -1.46237e-07 0)
(0.00100014 -1.70089e-07 0)
(0.00100016 -1.85464e-07 0)
(0.00100021 -2.2181e-07 0)
(0.00100023 -2.36468e-07 0)
(0.00100031 -2.98303e-07 0)
(0.00100033 -3.0691e-07 0)
(0.00100046 -4.22109e-07 0)
(0.001 -1.66882e-10 0)
(0.001 -2.23208e-10 0)
(0.001 1.56298e-10 0)
(0.00100001 5.65978e-10 0)
(0.00100001 1.02138e-09 0)
(0.00100002 8.46509e-10 0)
(0.00100003 5.84365e-10 0)
(0.00100004 -1.02459e-09 0)
(0.00100004 -2.66687e-09 0)
(0.00100006 -6.90419e-09 0)
(0.00100007 -1.07761e-08 0)
(0.00100009 -1.99957e-08 0)
(0.00100011 -2.68494e-08 0)
(0.00100013 -4.43653e-08 0)
(0.00100015 -5.39756e-08 0)
(0.00100019 -8.58464e-08 0)
(0.00100022 -9.65306e-08 0)
(0.00100028 -1.55633e-07 0)
(0.0010003 -1.61943e-07 0)
(0.00100039 -2.75853e-07 0)
(0.001 -2.90203e-09 0)
(0.001 -9.3368e-09 0)
(0.001 -1.65918e-08 0)
(0.001 -2.48973e-08 0)
(0.00100001 -3.38183e-08 0)
(0.00100001 -4.36958e-08 0)
(0.00100002 -5.37317e-08 0)
(0.00100002 -6.51806e-08 0)
(0.00100003 -7.67155e-08 0)
(0.00100004 -9.10588e-08 0)
(0.00100005 -1.05152e-07 0)
(0.00100007 -1.24887e-07 0)
(0.00100008 -1.42373e-07 0)
(0.00100011 -1.71009e-07 0)
(0.00100013 -1.9167e-07 0)
(0.00100016 -2.35237e-07 0)
(0.00100018 -2.56902e-07 0)
(0.00100024 -3.27572e-07 0)
(0.00100025 -3.42616e-07 0)
(0.00100033 -4.64445e-07 0)
(0.001 -2.60922e-09 0)
(0.001 -7.85608e-09 0)
(0.001 -1.29219e-08 0)
(0.00100001 -1.80838e-08 0)
(0.00100001 -2.31931e-08 0)
(0.00100001 -2.88545e-08 0)
(0.00100002 -3.45988e-08 0)
(0.00100002 -4.17484e-08 0)
(0.00100003 -4.91645e-08 0)
(0.00100004 -5.97608e-08 0)
(0.00100005 -7.05089e-08 0)
(0.00100006 -8.74348e-08 0)
(0.00100008 -1.02663e-07 0)
(0.0010001 -1.2959e-07 0)
(0.00100011 -1.48991e-07 0)
(0.00100014 -1.91595e-07 0)
(0.00100016 -2.12548e-07 0)
(0.0010002 -2.81924e-07 0)
(0.00100021 -2.95962e-07 0)
(0.00100027 -4.14924e-07 0)
(0.001 -2.94099e-09 0)
(0.001 -9.15473e-09 0)
(0.001 -1.57601e-08 0)
(0.001 -2.31522e-08 0)
(0.00100001 -3.12283e-08 0)
(0.00100001 -4.04069e-08 0)
(0.00100001 -5.01164e-08 0)
(0.00100002 -6.14843e-08 0)
(0.00100002 -7.33473e-08 0)
(0.00100003 -8.85385e-08 0)
(0.00100004 -1.0395e-07 0)
(0.00100005 -1.25731e-07 0)
(0.00100006 -1.45857e-07 0)
(0.00100007 -1.77942e-07 0)
(0.00100009 -2.02393e-07 0)
(0.00100011 -2.50405e-07 0)
(0.00100012 -2.76212e-07 0)
(0.00100015 -3.50949e-07 0)
(0.00100016 -3.68751e-07 0)
(0.00100021 -4.9227e-07 0)
(0.001 -3.25613e-09 0)
(0.001 -1.00902e-08 0)
(0.001 -1.7271e-08 0)
(0.001 -2.50979e-08 0)
(0.001 -3.33532e-08 0)
(0.00100001 -4.24121e-08 0)
(0.00100001 -5.17178e-08 0)
(0.00100001 -6.25162e-08 0)
(0.00100002 -7.37844e-08 0)
(0.00100002 -8.84098e-08 0)
(0.00100003 -1.03453e-07 0)
(0.00100004 -1.25066e-07 0)
(0.00100004 -1.45277e-07 0)
(0.00100005 -1.77567e-07 0)
(0.00100006 -2.02438e-07 0)
(0.00100008 -2.50721e-07 0)
(0.00100009 -2.77004e-07 0)
(0.00100011 -3.51438e-07 0)
(0.00100012 -3.69291e-07 0)
(0.00100015 -4.90796e-07 0)
(0.001 -3.45425e-09 0)
(0.001 -1.06375e-08 0)
(0.001 -1.81126e-08 0)
(0.001 -2.6224e-08 0)
(0.001 -3.47594e-08 0)
(0.001 -4.42287e-08 0)
(0.00100001 -5.41077e-08 0)
(0.00100001 -6.57039e-08 0)
(0.00100001 -7.79366e-08 0)
(0.00100001 -9.36927e-08 0)
(0.00100002 -1.09994e-07 0)
(0.00100002 -1.33028e-07 0)
(0.00100003 -1.54716e-07 0)
(0.00100003 -1.88739e-07 0)
(0.00100004 -2.1531e-07 0)
(0.00100005 -2.65587e-07 0)
(0.00100005 -2.93507e-07 0)
(0.00100007 -3.69988e-07 0)
(0.00100007 -3.88959e-07 0)
(0.00100009 -5.12547e-07 0)
(0.001 -3.54547e-09 0)
(0.001 -1.08936e-08 0)
(0.001 -1.85213e-08 0)
(0.001 -2.68241e-08 0)
(0.001 -3.56131e-08 0)
(0.001 -4.53887e-08 0)
(0.001 -5.55915e-08 0)
(0.001 -6.75065e-08 0)
(0.001 -8.00599e-08 0)
(0.001 -9.61566e-08 0)
(0.00100001 -1.12848e-07 0)
(0.00100001 -1.36285e-07 0)
(0.00100001 -1.58436e-07 0)
(0.00100001 -1.92888e-07 0)
(0.00100001 -2.19925e-07 0)
(0.00100002 -2.70509e-07 0)
(0.00100002 -2.98799e-07 0)
(0.00100002 -3.753e-07 0)
(0.00100002 -3.9452e-07 0)
(0.00100003 -5.17467e-07 0)
(0.001 -3.54614e-09 0)
(0.001 -1.08866e-08 0)
(0.001 -1.85216e-08 0)
(0.000999999 -2.68222e-08 0)
(0.000999999 -3.56198e-08 0)
(0.000999999 -4.53915e-08 0)
(0.000999998 -5.55969e-08 0)
(0.000999997 -6.75097e-08 0)
(0.000999996 -8.00612e-08 0)
(0.000999995 -9.61662e-08 0)
(0.000999994 -1.12851e-07 0)
(0.000999993 -1.36287e-07 0)
(0.000999991 -1.58449e-07 0)
(0.000999989 -1.929e-07 0)
(0.000999987 -2.19934e-07 0)
(0.000999984 -2.7052e-07 0)
(0.000999982 -2.98806e-07 0)
(0.000999978 -3.75291e-07 0)
(0.000999976 -3.94503e-07 0)
(0.00099997 -5.17455e-07 0)
(0.001 -3.45338e-09 0)
(0.001 -1.06302e-08 0)
(0.000999999 -1.81108e-08 0)
(0.000999999 -2.62194e-08 0)
(0.000999997 -3.47691e-08 0)
(0.000999996 -4.42326e-08 0)
(0.000999994 -5.41138e-08 0)
(0.000999992 -6.57096e-08 0)
(0.000999989 -7.79324e-08 0)
(0.000999986 -9.37059e-08 0)
(0.000999983 -1.09998e-07 0)
(0.000999978 -1.33021e-07 0)
(0.000999973 -1.54728e-07 0)
(0.000999967 -1.88754e-07 0)
(0.000999961 -2.15329e-07 0)
(0.000999952 -2.65604e-07 0)
(0.000999946 -2.9351e-07 0)
(0.000999933 -3.6994e-07 0)
(0.00099993 -3.88897e-07 0)
(0.000999911 -5.12472e-07 0)
(0.001 -3.25666e-09 0)
(0.001 -1.00955e-08 0)
(0.000999999 -1.72621e-08 0)
(0.000999998 -2.50974e-08 0)
(0.000999996 -3.33473e-08 0)
(0.000999993 -4.2415e-08 0)
(0.00099999 -5.17105e-08 0)
(0.000999987 -6.25228e-08 0)
(0.000999982 -7.3773e-08 0)
(0.000999977 -8.84032e-08 0)
(0.000999971 -1.03456e-07 0)
(0.000999964 -1.25055e-07 0)
(0.000999956 -1.45269e-07 0)
(0.000999945 -1.77573e-07 0)
(0.000999936 -2.02467e-07 0)
(0.000999921 -2.50755e-07 0)
(0.000999911 -2.77025e-07 0)
(0.000999889 -3.51421e-07 0)
(0.000999882 -3.69268e-07 0)
(0.000999851 -4.90771e-07 0)
(0.001 -2.94606e-09 0)
(0.000999999 -9.16423e-09 0)
(0.000999998 -1.57551e-08 0)
(0.000999996 -2.31571e-08 0)
(0.000999994 -3.12059e-08 0)
(0.000999991 -4.04117e-08 0)
(0.000999987 -5.00949e-08 0)
(0.000999982 -6.14839e-08 0)
(0.000999977 -7.33459e-08 0)
(0.000999969 -8.85024e-08 0)
(0.000999962 -1.03925e-07 0)
(0.000999951 -1.25697e-07 0)
(0.000999941 -1.45808e-07 0)
(0.000999926 -1.77887e-07 0)
(0.000999913 -2.02359e-07 0)
(0.000999891 -2.50361e-07 0)
(0.000999878 -2.76174e-07 0)
(0.000999847 -3.50866e-07 0)
(0.000999839 -3.68672e-07 0)
(0.000999792 -4.92128e-07 0)
(0.001 -2.61097e-09 0)
(0.000999999 -7.86021e-09 0)
(0.000999998 -1.29338e-08 0)
(0.000999995 -1.80903e-08 0)
(0.000999991 -2.31924e-08 0)
(0.000999987 -2.88602e-08 0)
(0.000999982 -3.45986e-08 0)
(0.000999975 -4.17376e-08 0)
(0.000999968 -4.9205e-08 0)
(0.000999959 -5.97711e-08 0)
(0.000999949 -7.05072e-08 0)
(0.000999936 -8.74347e-08 0)
(0.000999923 -1.02652e-07 0)
(0.000999904 -1.29565e-07 0)
(0.000999887 -1.48972e-07 0)
(0.00099986 -1.91578e-07 0)
(0.000999841 -2.12556e-07 0)
(0.000999802 -2.81935e-07 0)
(0.000999787 -2.95983e-07 0)
(0.000999731 -4.14914e-07 0)
(0.001 -2.88884e-09 0)
(0.001 -9.32899e-09 0)
(0.000999999 -1.66061e-08 0)
(0.000999997 -2.48891e-08 0)
(0.000999994 -3.38335e-08 0)
(0.00099999 -4.36577e-08 0)
(0.000999984 -5.37558e-08 0)
(0.000999977 -6.51347e-08 0)
(0.000999969 -7.67163e-08 0)
(0.000999958 -9.10879e-08 0)
(0.000999946 -1.05165e-07 0)
(0.00099993 -1.24886e-07 0)
(0.000999915 -1.42365e-07 0)
(0.000999891 -1.70965e-07 0)
(0.000999872 -1.91621e-07 0)
(0.000999837 -2.35156e-07 0)
(0.000999817 -2.56857e-07 0)
(0.000999764 -3.27499e-07 0)
(0.000999752 -3.42574e-07 0)
(0.00099967 -4.64298e-07 0)
(0.001 -1.41627e-10 0)
(0.000999998 -2.14797e-10 0)
(0.000999995 1.32023e-10 0)
(0.000999991 5.72469e-10 0)
(0.000999986 1.01678e-09 0)
(0.00099998 8.68881e-10 0)
(0.000999973 5.12957e-10 0)
(0.000999965 -1.00249e-09 0)
(0.000999955 -2.63529e-09 0)
(0.000999943 -6.94427e-09 0)
(0.00099993 -1.08315e-08 0)
(0.000999912 -2.00386e-08 0)
(0.000999894 -2.68836e-08 0)
(0.000999868 -4.43709e-08 0)
(0.000999845 -5.39682e-08 0)
(0.000999806 -8.58117e-08 0)
(0.000999779 -9.65086e-08 0)
(0.00099972 -1.55601e-07 0)
(0.000999698 -1.61931e-07 0)
(0.000999611 -2.75799e-07 0)
(0.001 -3.97076e-09 0)
(0.001 -1.31349e-08 0)
(0.001 -2.33685e-08 0)
(0.000999999 -3.41833e-08 0)
(0.000999995 -4.48567e-08 0)
(0.000999989 -5.57214e-08 0)
(0.000999983 -6.63013e-08 0)
(0.000999973 -7.77317e-08 0)
(0.000999963 -8.89248e-08 0)
(0.000999949 -1.02291e-07 0)
(0.000999936 -1.14856e-07 0)
(0.000999915 -1.32004e-07 0)
(0.000999896 -1.46266e-07 0)
(0.000999865 -1.70111e-07 0)
(0.000999841 -1.85499e-07 0)
(0.000999792 -2.21801e-07 0)
(0.000999767 -2.36477e-07 0)
(0.000999687 -2.98258e-07 0)
(0.000999671 -3.06908e-07 0)
(0.000999539 -4.22031e-07 0)
(0.001 3.98573e-09 0)
(0.000999996 1.21415e-08 0)
(0.000999992 2.03091e-08 0)
(0.000999987 2.79718e-08 0)
(0.000999982 3.51125e-08 0)
(0.000999976 4.15012e-08 0)
(0.000999968 4.7659e-08 0)
(0.000999959 5.28086e-08 0)
(0.000999948 5.82535e-08 0)
(0.000999934 6.2264e-08 0)
(0.000999919 6.69719e-08 0)
(0.000999898 6.86044e-08 0)
(0.000999878 7.26985e-08 0)
(0.000999845 6.98414e-08 0)
(0.00099982 7.39382e-08 0)
(0.000999768 6.15504e-08 0)
(0.000999738 6.69669e-08 0)
(0.000999654 3.1643e-08 0)
(0.000999629 3.96412e-08 0)
(0.000999495 -5.45573e-08 0)
(0.001 -8.74988e-09 0)
(0.001 -2.38779e-08 0)
(0.001 -3.62559e-08 0)
(0.000999997 -4.7151e-08 0)
(0.000999993 -5.7471e-08 0)
(0.000999986 -6.79983e-08 0)
(0.000999979 -7.83985e-08 0)
(0.000999968 -8.95043e-08 0)
(0.000999958 -9.99612e-08 0)
(0.000999942 -1.11695e-07 0)
(0.000999928 -1.22359e-07 0)
(0.000999903 -1.35928e-07 0)
(0.000999886 -1.46445e-07 0)
(0.000999847 -1.63483e-07 0)
(0.000999827 -1.72469e-07 0)
(0.00099976 -1.96772e-07 0)
(0.000999742 -2.01291e-07 0)
(0.000999623 -2.43479e-07 0)
(0.000999617 -2.39521e-07 0)
(0.000999393 -3.3184e-07 0)
)
;

boundaryField
{
    sides
    {
        type            slip;
    }
    inlet
    {
        type            fixedValue;
        value           uniform (0.001 0 0);
    }
    outlet
    {
        type            zeroGradient;
    }
    frontAndBack
    {
        type            empty;
    }
}


// ************************************************************************* //
