/*--------------------------------*- C++ -*----------------------------------*\
  =========                 |
  \\      /  F ield         | OpenFOAM: The Open Source CFD Toolbox
   \\    /   O peration     | Website:  https://openfoam.org
    \\  /    A nd           | Version:  7
     \\/     M anipulation  |
\*---------------------------------------------------------------------------*/
FoamFile
{
    version     2.0;
    format      ascii;
    class       volVectorField;
    location    "68";
    object      ddtCorrDdt0(hU);
}
// * * * * * * * * * * * * * * * * * * * * * * * * * * * * * * * * * * * * * //

dimensions      [0 2 -2 0 0 0 0];

internalField   nonuniform List<vector> 
400
(
(2.80281e-11 -2.41607e-11 0)
(-3.78493e-11 4.80774e-11 0)
(-3.81146e-11 3.09608e-11 0)
(-2.99625e-10 -1.13622e-10 0)
(-4.21891e-10 1.91272e-10 0)
(-1.56344e-09 8.73441e-10 0)
(1.3918e-09 3.71021e-10 0)
(-3.24889e-09 -2.42622e-09 0)
(-8.4546e-10 -3.9574e-10 0)
(8.08318e-11 -4.36562e-10 0)
(-3.54995e-10 -1.71581e-10 0)
(-1.04658e-10 9.63468e-11 0)
(1.13751e-10 2.21477e-10 0)
(1.72395e-10 2.29724e-10 0)
(1.65612e-10 1.64561e-10 0)
(7.79691e-11 7.76995e-11 0)
(-2.82179e-13 -2.60273e-11 0)
(-1.99885e-11 -5.32339e-11 0)
(-1.52585e-11 -1.46172e-10 0)
(1.76278e-10 -1.30347e-10 0)
(9.66685e-12 -4.11615e-11 0)
(3.16039e-11 2.8361e-11 0)
(-1.12151e-10 -5.22949e-11 0)
(-9.166e-12 -4.42939e-11 0)
(-1.68366e-10 4.94184e-11 0)
(1.38055e-09 1.0598e-09 0)
(-7.02962e-10 -2.41597e-10 0)
(2.00363e-09 -1.27045e-09 0)
(1.52469e-09 1.44372e-11 0)
(1.25784e-10 -5.29532e-10 0)
(1.94347e-10 -2.44949e-10 0)
(2.80489e-10 6.27073e-11 0)
(2.40494e-10 1.86968e-10 0)
(1.64859e-10 2.15213e-10 0)
(8.82502e-11 1.64449e-10 0)
(3.31668e-12 9.74479e-11 0)
(-3.84667e-11 3.08454e-11 0)
(-2.44777e-11 1.12996e-11 0)
(-2.84817e-12 -3.56386e-11 0)
(1.64501e-10 -7.40495e-11 0)
(-4.49639e-11 -2.76036e-11 0)
(6.41661e-12 3.27955e-11 0)
(-9.25767e-11 3.7035e-11 0)
(9.695e-14 2.02179e-10 0)
(-8.94464e-11 -2.5106e-10 0)
(1.87931e-10 -6.00219e-12 0)
(-1.36391e-09 -8.65097e-10 0)
(9.79549e-10 1.19535e-09 0)
(-1.84491e-10 -5.79924e-11 0)
(-3.01713e-10 -2.58971e-10 0)
(4.5937e-10 2.58413e-11 0)
(4.31867e-10 1.93661e-10 0)
(2.74151e-10 2.96571e-10 0)
(1.38304e-10 3.22514e-10 0)
(1.02507e-11 2.64027e-10 0)
(-9.81145e-11 1.7782e-10 0)
(-9.51692e-11 -2.84132e-12 0)
(-4.21e-11 -7.61393e-11 0)
(1.1916e-11 -2.55491e-10 0)
(2.40694e-10 -2.6515e-10 0)
(1.34061e-11 -1.14083e-11 0)
(3.86041e-11 5.10735e-11 0)
(-1.55466e-11 1.6275e-10 0)
(-1.55461e-10 2.25128e-10 0)
(1.54564e-11 1.2997e-10 0)
(-3.27052e-10 -2.15441e-10 0)
(-8.37607e-11 1.78002e-10 0)
(3.59268e-10 1.55061e-10 0)
(-5.86163e-10 -4.53445e-10 0)
(1.43201e-10 5.6948e-11 0)
(5.17807e-10 2.64974e-10 0)
(3.20648e-10 2.6897e-10 0)
(2.08579e-10 3.41148e-10 0)
(1.12343e-10 3.50863e-10 0)
(-6.4888e-12 2.93165e-10 0)
(-9.71222e-11 2.37518e-10 0)
(-8.54196e-11 1.81841e-11 0)
(-8.41773e-12 -8.17135e-11 0)
(5.17099e-11 -2.97221e-10 0)
(2.12612e-10 -3.35793e-10 0)
(5.76338e-11 5.49785e-11 0)
(2.11005e-11 6.23071e-11 0)
(4.12347e-11 1.59152e-10 0)
(-1.46033e-10 1.10016e-10 0)
(5.55963e-11 3.40383e-10 0)
(-2.91842e-10 -2.53864e-10 0)
(1.85831e-10 2.81507e-10 0)
(-2.66716e-10 -3.13475e-10 0)
(-2.45972e-10 -2.16186e-10 0)
(4.5935e-10 2.06954e-10 0)
(2.44734e-10 1.70236e-10 0)
(3.36235e-11 1.80932e-10 0)
(4.70472e-11 3.21655e-10 0)
(-8.00957e-12 3.65732e-10 0)
(-3.92772e-11 3.30099e-10 0)
(-6.32129e-11 3.04346e-10 0)
(-3.91995e-11 7.80377e-11 0)
(4.4375e-11 -3.86354e-11 0)
(9.39183e-11 -2.61875e-10 0)
(2.04488e-10 -3.37471e-10 0)
(3.0699e-11 1.27709e-10 0)
(-3.38533e-12 1.45086e-10 0)
(-7.68749e-12 2.33509e-10 0)
(-1.34585e-10 9.04675e-11 0)
(-1.13676e-10 1.62162e-10 0)
(-2.32776e-10 -1.48516e-10 0)
(5.94914e-11 -1.23042e-10 0)
(-3.19418e-10 -5.0127e-10 0)
(3.14172e-10 -1.21101e-10 0)
(4.41341e-10 -8.18664e-11 0)
(9.50917e-12 -1.03198e-10 0)
(6.89448e-11 1.62407e-10 0)
(8.75756e-11 4.00524e-10 0)
(-5.81342e-11 4.84669e-10 0)
(-6.07642e-11 4.63874e-10 0)
(-5.76916e-11 4.01297e-10 0)
(-6.59982e-11 9.94857e-11 0)
(-1.91934e-11 -2.22565e-11 0)
(1.12808e-11 -3.6171e-10 0)
(1.28427e-10 -4.63712e-10 0)
(-1.70999e-11 1.05959e-10 0)
(-2.46213e-11 1.92908e-10 0)
(-8.12888e-11 2.11987e-10 0)
(-5.08593e-11 2.474e-10 0)
(-1.47793e-10 7.92645e-11 0)
(-1.93213e-12 1.32323e-10 0)
(-7.20768e-11 -1.29782e-10 0)
(-1.71455e-11 -2.27355e-10 0)
(2.84192e-10 -8.40619e-11 0)
(-1.05151e-10 -3.37271e-10 0)
(-1.1585e-10 -1.46561e-10 0)
(5.99484e-11 1.80535e-10 0)
(-1.58106e-11 3.37466e-10 0)
(-3.87148e-11 4.73618e-10 0)
(7.46727e-11 5.18975e-10 0)
(1.34397e-10 4.46212e-10 0)
(1.10446e-10 1.40896e-10 0)
(7.76358e-11 3.5148e-11 0)
(-1.10543e-11 -3.15584e-10 0)
(-3.42899e-11 -4.70023e-10 0)
(-3.38527e-11 2.14819e-11 0)
(-1.07511e-12 2.2315e-10 0)
(-9.87235e-11 2.23346e-10 0)
(-3.47413e-11 3.40329e-10 0)
(-1.43247e-10 1.3923e-10 0)
(1.02319e-11 1.20845e-10 0)
(-1.51907e-10 -2.04337e-10 0)
(1.10157e-10 -2.24331e-10 0)
(2.45359e-11 -3.90458e-10 0)
(-1.03583e-10 -4.08655e-10 0)
(1.72611e-10 -4.854e-11 0)
(5.09772e-11 2.17066e-10 0)
(-8.20746e-11 4.59025e-10 0)
(6.47565e-11 6.74228e-10 0)
(1.24753e-10 6.61953e-10 0)
(4.80772e-11 4.91107e-10 0)
(3.78782e-11 8.91041e-11 0)
(3.4213e-11 -7.80921e-11 0)
(-6.06175e-11 -5.15053e-10 0)
(-5.8666e-11 -5.99405e-10 0)
(1.53625e-11 1.00118e-11 0)
(3.19423e-11 1.78378e-10 0)
(-3.57635e-11 3.01348e-10 0)
(-3.15325e-11 3.18494e-10 0)
(-3.8663e-11 3.07623e-10 0)
(5.70758e-12 1.45694e-10 0)
(-4.70935e-11 -4.95818e-11 0)
(4.85909e-11 -1.67719e-10 0)
(-9.42151e-11 -4.02937e-10 0)
(-1.38073e-11 -2.4323e-10 0)
(9.84356e-11 -6.02591e-11 0)
(-3.74428e-11 1.33274e-10 0)
(1.51662e-11 5.56931e-10 0)
(1.65662e-10 7.69207e-10 0)
(1.05351e-10 6.258e-10 0)
(-1.02928e-11 4.57222e-10 0)
(-4.04873e-12 9.88549e-11 0)
(3.33687e-11 -1.02966e-10 0)
(1.14229e-11 -5.93806e-10 0)
(-3.40937e-12 -6.62709e-10 0)
(2.83004e-11 8.96225e-11 0)
(1.39563e-11 1.86644e-10 0)
(5.84811e-11 3.30734e-10 0)
(1.40501e-11 2.89836e-10 0)
(6.07405e-11 3.00224e-10 0)
(-7.61545e-12 9.90832e-11 0)
(4.31403e-11 -6.93154e-11 0)
(-8.40085e-11 -2.45106e-10 0)
(-8.43027e-11 -3.85985e-10 0)
(1.27506e-12 -2.08139e-10 0)
(-3.91907e-11 -4.41242e-11 0)
(1.28667e-10 2.0927e-10 0)
(2.20346e-10 6.31618e-10 0)
(3.88095e-11 7.62998e-10 0)
(-7.31193e-11 5.77687e-10 0)
(-4.74531e-11 4.19086e-10 0)
(-5.4093e-11 5.63306e-11 0)
(-9.19241e-11 -1.48123e-10 0)
(-3.65182e-11 -6.33665e-10 0)
(1.00606e-10 -6.80729e-10 0)
(9.06133e-12 1.53026e-10 0)
(-1.48387e-11 3.07734e-10 0)
(7.48349e-11 2.7779e-10 0)
(2.65553e-11 2.67156e-10 0)
(9.13945e-11 1.41729e-10 0)
(-9.57449e-12 2.66783e-11 0)
(8.14869e-11 -1.88671e-10 0)
(-9.16873e-11 -3.22812e-10 0)
(-4.88219e-11 -3.44033e-10 0)
(1.63474e-11 -2.75667e-10 0)
(-1.02048e-10 1.71581e-11 0)
(1.14398e-10 2.85139e-10 0)
(1.85273e-10 4.63718e-10 0)
(-8.06367e-11 5.81908e-10 0)
(-1.73499e-10 5.82676e-10 0)
(-5.73396e-11 4.68345e-10 0)
(-3.57603e-11 3.65664e-11 0)
(-6.82998e-11 -1.45059e-10 0)
(3.38707e-11 -5.38442e-10 0)
(1.47567e-10 -6.13585e-10 0)
(-9.33048e-12 1.8216e-10 0)
(-2.32031e-11 3.11381e-10 0)
(-5.1826e-12 2.50701e-10 0)
(1.11967e-12 2.69162e-10 0)
(6.84182e-11 8.91188e-11 0)
(3.42311e-11 1.40511e-11 0)
(4.62692e-11 -2.03531e-10 0)
(1.99559e-11 -3.53121e-10 0)
(-9.71001e-11 -2.57165e-10 0)
(8.14517e-12 -3.07773e-10 0)
(-2.93195e-11 -4.58425e-12 0)
(-9.34293e-11 3.07794e-10 0)
(3.62119e-12 3.65516e-10 0)
(4.63496e-11 4.48604e-10 0)
(-3.6742e-11 5.48618e-10 0)
(-1.0099e-10 5.02444e-10 0)
(-9.1988e-11 8.92088e-11 0)
(-5.13023e-11 -5.8644e-11 0)
(1.9003e-11 -3.99721e-10 0)
(6.73861e-11 -5.35948e-10 0)
(-5.30767e-11 1.22445e-10 0)
(-4.32135e-11 1.80482e-10 0)
(-7.60666e-11 3.13386e-10 0)
(2.42078e-11 2.68886e-10 0)
(-1.60882e-12 2.58134e-10 0)
(1.1689e-10 1.89282e-11 0)
(-2.24697e-11 -1.02828e-10 0)
(1.94645e-10 -4.01032e-10 0)
(-6.0973e-11 -2.48959e-10 0)
(-1.30381e-10 -1.96287e-10 0)
(5.24322e-11 -5.48179e-11 0)
(-1.7754e-10 2.85502e-10 0)
(-2.36307e-10 5.12212e-10 0)
(1.50939e-11 5.54256e-10 0)
(8.12849e-11 5.24399e-10 0)
(2.43179e-11 4.70793e-10 0)
(2.87729e-11 1.15638e-10 0)
(4.90089e-11 -3.25789e-11 0)
(1.79718e-11 -4.07375e-10 0)
(-9.21134e-11 -5.30121e-10 0)
(-2.92144e-11 -1.6372e-11 0)
(-3.23702e-11 9.9988e-11 0)
(-4.395e-11 3.0687e-10 0)
(7.92501e-11 2.81605e-10 0)
(-6.60523e-11 4.26458e-10 0)
(1.24404e-10 4.52843e-11 0)
(-7.48247e-11 7.33059e-11 0)
(1.74895e-10 -2.44635e-10 0)
(2.16203e-10 -3.23414e-10 0)
(-2.21671e-10 -2.56809e-11 0)
(-6.83545e-11 4.87287e-12 0)
(-2.24893e-11 1.45582e-10 0)
(-1.68909e-10 4.56833e-10 0)
(-9.65241e-11 5.56477e-10 0)
(2.71881e-11 4.73014e-10 0)
(5.53311e-11 4.20268e-10 0)
(2.86541e-11 1.39525e-10 0)
(-2.44593e-11 -2.20638e-12 0)
(-7.33481e-11 -3.52809e-10 0)
(-1.55869e-10 -4.78061e-10 0)
(3.71553e-11 -7.88759e-11 0)
(1.38132e-11 1.16056e-10 0)
(7.80203e-11 2.28682e-10 0)
(1.20559e-10 3.05836e-10 0)
(5.85017e-11 1.69445e-10 0)
(9.5331e-11 -4.75305e-11 0)
(1.41663e-10 -1.9545e-10 0)
(-1.55795e-10 -1.70586e-10 0)
(3.81931e-10 -6.04737e-10 0)
(-2.80994e-11 -2.75621e-10 0)
(-4.04066e-10 6.64284e-11 0)
(-2.11728e-10 2.11223e-10 0)
(-1.45563e-10 4.73722e-10 0)
(-1.01804e-10 6.02583e-10 0)
(5.45072e-11 5.0956e-10 0)
(1.73737e-10 3.72564e-10 0)
(1.28373e-10 4.85766e-11 0)
(4.32831e-11 -8.49104e-11 0)
(-2.75217e-11 -4.43198e-10 0)
(-2.25048e-10 -5.05567e-10 0)
(8.4487e-11 -5.74275e-12 0)
(8.34042e-11 1.16066e-10 0)
(1.63158e-10 9.09366e-11 0)
(2.82558e-11 2.02841e-10 0)
(1.2954e-10 -1.33961e-10 0)
(-1.64524e-10 3.05286e-10 0)
(3.23126e-10 -2.90478e-10 0)
(-3.4528e-10 1.38057e-10 0)
(-4.5144e-11 -1.96919e-10 0)
(3.75103e-10 -3.73534e-10 0)
(-1.04454e-10 -1.28492e-11 0)
(-1.9367e-10 2.09423e-10 0)
(-1.16478e-10 3.57887e-10 0)
(-9.99884e-11 4.59092e-10 0)
(-2.96506e-11 4.04377e-10 0)
(4.46781e-11 2.77141e-10 0)
(3.38326e-11 3.63738e-11 0)
(-1.63169e-12 -4.40941e-11 0)
(-3.33866e-11 -3.02459e-10 0)
(-1.93737e-10 -3.7494e-10 0)
(7.04978e-12 7.12944e-11 0)
(4.81219e-11 1.43388e-10 0)
(1.18345e-10 5.10684e-11 0)
(3.71009e-11 2.58946e-12 0)
(3.74039e-10 -1.81127e-10 0)
(-1.30734e-10 4.44207e-10 0)
(3.68233e-10 -5.3148e-10 0)
(1.05189e-10 1.03005e-10 0)
(-5.11533e-10 5.42139e-11 0)
(4.2244e-11 -3.1288e-10 0)
(3.46922e-11 -1.11142e-10 0)
(-2.02458e-10 1.65544e-10 0)
(-2.15805e-10 3.2332e-10 0)
(-1.49524e-10 4.05997e-10 0)
(-7.95803e-11 3.60806e-10 0)
(1.29229e-11 2.4526e-10 0)
(7.07358e-11 2.31201e-11 0)
(5.5213e-11 -4.96393e-11 0)
(2.16534e-11 -2.95242e-10 0)
(-1.50399e-10 -3.49199e-10 0)
(-8.58201e-11 6.50674e-11 0)
(3.16194e-11 3.82433e-11 0)
(4.35135e-11 8.61379e-11 0)
(1.11775e-10 -7.90294e-11 0)
(3.85602e-10 1.91494e-10 0)
(5.54819e-11 3.81493e-10 0)
(-1.77559e-10 -8.62328e-10 0)
(9.50911e-10 -1.10598e-09 0)
(-8.8085e-10 1.10244e-10 0)
(-2.31498e-10 2.80683e-11 0)
(1.08449e-10 -2.17144e-11 0)
(-9.30227e-11 9.49018e-11 0)
(-1.67283e-10 2.21442e-10 0)
(-1.11948e-10 3.01713e-10 0)
(-7.5405e-11 2.93134e-10 0)
(1.88425e-11 2.22177e-10 0)
(7.79512e-11 3.70382e-11 0)
(5.73232e-11 -5.48376e-11 0)
(2.81599e-11 -2.47532e-10 0)
(-1.89372e-10 -2.62545e-10 0)
(1.8908e-12 1.12132e-10 0)
(1.90688e-11 -1.24855e-10 0)
(-4.0065e-11 -1.06128e-11 0)
(2.00208e-10 1.59263e-10 0)
(4.80906e-10 4.95697e-10 0)
(-1.9349e-09 -1.28956e-09 0)
(-2.18782e-09 1.96593e-09 0)
(-6.589e-12 9.81614e-11 0)
(7.22148e-10 -2.81665e-11 0)
(-4.12383e-10 4.13465e-10 0)
(-1.80008e-10 9.45137e-11 0)
(-1.58206e-10 -6.60371e-12 0)
(-1.67815e-10 3.84754e-11 0)
(-1.18483e-10 1.04164e-10 0)
(-8.85045e-11 1.41483e-10 0)
(-2.34239e-11 1.4737e-10 0)
(1.98966e-11 7.88812e-11 0)
(2.41188e-13 1.29085e-11 0)
(-8.03229e-12 -4.68657e-11 0)
(-1.53785e-10 -7.47583e-11 0)
(-4.95316e-11 8.78541e-11 0)
(-1.59322e-10 -6.27195e-11 0)
(6.95983e-11 -3.18772e-11 0)
(2.19164e-10 1.92208e-10 0)
(-5.29249e-10 1.97353e-10 0)
(2.65353e-09 -1.61751e-09 0)
(2.24316e-09 2.29916e-09 0)
(-4.11441e-10 1.01921e-09 0)
(2.169e-10 -3.2476e-10 0)
(-1.45806e-10 1.33931e-10 0)
(-4.94448e-10 3.9549e-11 0)
(-1.95263e-10 4.69733e-11 0)
(-7.99634e-11 1.24146e-10 0)
(-5.47241e-11 1.55652e-10 0)
(-6.86409e-11 1.42233e-10 0)
(-3.69902e-11 9.952e-11 0)
(-2.57106e-11 -3.71034e-12 0)
(-4.12794e-11 -5.58665e-11 0)
(-3.14884e-11 -1.57461e-10 0)
(-1.84453e-10 -1.33316e-10 0)
)
;

boundaryField
{
    sides
    {
        type            calculated;
        value           nonuniform List<vector> 
40
(
(-4.95316e-11 0 0)
(-1.59322e-10 0 0)
(6.95983e-11 0 0)
(2.19164e-10 0 0)
(-5.29249e-10 0 0)
(2.65353e-09 0 0)
(2.24316e-09 0 0)
(-4.11441e-10 0 0)
(2.169e-10 0 0)
(-1.45806e-10 0 0)
(-4.94448e-10 0 0)
(-1.95263e-10 0 0)
(-7.99634e-11 0 0)
(-5.47241e-11 0 0)
(-6.86409e-11 0 0)
(-3.69902e-11 0 0)
(-2.57106e-11 0 0)
(-4.12794e-11 0 0)
(-3.14884e-11 0 0)
(-1.84453e-10 0 0)
(2.80281e-11 0 0)
(-3.78493e-11 0 0)
(-3.81146e-11 0 0)
(-2.99625e-10 0 0)
(-4.21891e-10 0 0)
(-1.56344e-09 0 0)
(1.3918e-09 0 0)
(-3.24889e-09 0 0)
(-8.4546e-10 0 0)
(8.08318e-11 0 0)
(-3.54995e-10 0 0)
(-1.04658e-10 0 0)
(1.13751e-10 0 0)
(1.72395e-10 0 0)
(1.65612e-10 0 0)
(7.79691e-11 0 0)
(-2.82179e-13 0 0)
(-1.99885e-11 0 0)
(-1.52585e-11 0 0)
(1.76278e-10 0 0)
)
;
    }
    inlet
    {
        type            calculated;
        value           uniform (0 0 0);
    }
    outlet
    {
        type            calculated;
        value           nonuniform List<vector> 
20
(
(1.76278e-10 -1.30347e-10 0)
(1.64501e-10 -7.40495e-11 0)
(2.40694e-10 -2.6515e-10 0)
(2.12612e-10 -3.35793e-10 0)
(2.04488e-10 -3.37471e-10 0)
(1.28427e-10 -4.63712e-10 0)
(-3.42899e-11 -4.70023e-10 0)
(-5.8666e-11 -5.99405e-10 0)
(-3.40937e-12 -6.62709e-10 0)
(1.00606e-10 -6.80729e-10 0)
(1.47567e-10 -6.13585e-10 0)
(6.73861e-11 -5.35948e-10 0)
(-9.21134e-11 -5.30121e-10 0)
(-1.55869e-10 -4.78061e-10 0)
(-2.25048e-10 -5.05567e-10 0)
(-1.93737e-10 -3.7494e-10 0)
(-1.50399e-10 -3.49199e-10 0)
(-1.89372e-10 -2.62545e-10 0)
(-1.53785e-10 -7.47583e-11 0)
(-1.84453e-10 -1.33316e-10 0)
)
;
    }
    frontAndBack
    {
        type            empty;
    }
}


// ************************************************************************* //
