/*--------------------------------*- C++ -*----------------------------------*\
  =========                 |
  \\      /  F ield         | OpenFOAM: The Open Source CFD Toolbox
   \\    /   O peration     | Website:  https://openfoam.org
    \\  /    A nd           | Version:  7
     \\/     M anipulation  |
\*---------------------------------------------------------------------------*/
FoamFile
{
    version     2.0;
    format      ascii;
    class       volVectorField;
    location    "68";
    object      hU_0;
}
// * * * * * * * * * * * * * * * * * * * * * * * * * * * * * * * * * * * * * //

dimensions      [0 2 -1 0 0 0 0];

internalField   nonuniform List<vector> 
400
(
(0.001 -8.75126e-09 0)
(0.000999999 -2.38012e-08 0)
(0.001 -3.60817e-08 0)
(0.001 -4.68617e-08 0)
(0.00100001 -5.70933e-08 0)
(0.00100001 -6.74403e-08 0)
(0.00100002 -7.8325e-08 0)
(0.00100003 -8.93258e-08 0)
(0.00100004 -9.99617e-08 0)
(0.00100006 -1.11847e-07 0)
(0.00100007 -1.22535e-07 0)
(0.0010001 -1.36063e-07 0)
(0.00100011 -1.46483e-07 0)
(0.00100015 -1.63384e-07 0)
(0.00100017 -1.72265e-07 0)
(0.00100024 -1.96451e-07 0)
(0.00100026 -2.00943e-07 0)
(0.00100038 -2.4315e-07 0)
(0.00100038 -2.39238e-07 0)
(0.00100061 -3.31787e-07 0)
(0.001 3.95458e-09 0)
(0.001 1.20984e-08 0)
(0.00100001 2.02467e-08 0)
(0.00100001 2.79526e-08 0)
(0.00100002 3.51176e-08 0)
(0.00100002 4.17059e-08 0)
(0.00100003 4.75522e-08 0)
(0.00100004 5.29697e-08 0)
(0.00100005 5.83001e-08 0)
(0.00100007 6.22553e-08 0)
(0.00100008 6.69712e-08 0)
(0.0010001 6.85984e-08 0)
(0.00100012 7.27049e-08 0)
(0.00100016 6.9867e-08 0)
(0.00100018 7.39941e-08 0)
(0.00100023 6.1613e-08 0)
(0.00100026 6.70835e-08 0)
(0.00100035 3.16998e-08 0)
(0.00100037 3.97861e-08 0)
(0.00100051 -5.45966e-08 0)
(0.001 -3.99598e-09 0)
(0.000999999 -1.30943e-08 0)
(0.001 -2.31934e-08 0)
(0.001 -3.38562e-08 0)
(0.00100001 -4.44354e-08 0)
(0.00100001 -5.5316e-08 0)
(0.00100002 -6.57924e-08 0)
(0.00100003 -7.74332e-08 0)
(0.00100004 -8.89053e-08 0)
(0.00100005 -1.02449e-07 0)
(0.00100006 -1.15125e-07 0)
(0.00100009 -1.32283e-07 0)
(0.0010001 -1.46432e-07 0)
(0.00100014 -1.70065e-07 0)
(0.00100016 -1.85266e-07 0)
(0.00100021 -2.2138e-07 0)
(0.00100023 -2.35944e-07 0)
(0.00100031 -2.97803e-07 0)
(0.00100033 -3.06389e-07 0)
(0.00100046 -4.22107e-07 0)
(0.001 -1.66345e-10 0)
(0.001 -1.40023e-10 0)
(0.00100001 4.12201e-10 0)
(0.00100001 1.02084e-09 0)
(0.00100001 1.65706e-09 0)
(0.00100002 1.5149e-09 0)
(0.00100003 1.24404e-09 0)
(0.00100004 -5.82745e-10 0)
(0.00100004 -2.4534e-09 0)
(0.00100006 -6.99937e-09 0)
(0.00100007 -1.10907e-08 0)
(0.00100009 -2.03432e-08 0)
(0.00100011 -2.70942e-08 0)
(0.00100013 -4.43334e-08 0)
(0.00100016 -5.37182e-08 0)
(0.00100019 -8.52841e-08 0)
(0.00100022 -9.58282e-08 0)
(0.00100028 -1.54973e-07 0)
(0.0010003 -1.61242e-07 0)
(0.00100039 -2.75809e-07 0)
(0.001 -2.91607e-09 0)
(0.001 -9.30926e-09 0)
(0.001 -1.64498e-08 0)
(0.001 -2.45925e-08 0)
(0.00100001 -3.33404e-08 0)
(0.00100001 -4.3079e-08 0)
(0.00100002 -5.31561e-08 0)
(0.00100002 -6.47554e-08 0)
(0.00100003 -7.65253e-08 0)
(0.00100004 -9.11836e-08 0)
(0.00100005 -1.05485e-07 0)
(0.00100007 -1.25251e-07 0)
(0.00100009 -1.42638e-07 0)
(0.00100011 -1.70983e-07 0)
(0.00100013 -1.91399e-07 0)
(0.00100016 -2.34645e-07 0)
(0.00100018 -2.56157e-07 0)
(0.00100024 -3.26889e-07 0)
(0.00100025 -3.41861e-07 0)
(0.00100033 -4.6437e-07 0)
(0.001 -2.6024e-09 0)
(0.001 -7.68193e-09 0)
(0.001 -1.24953e-08 0)
(0.00100001 -1.73597e-08 0)
(0.00100001 -2.22339e-08 0)
(0.00100001 -2.77689e-08 0)
(0.00100002 -3.36514e-08 0)
(0.00100002 -4.11085e-08 0)
(0.00100003 -4.89869e-08 0)
(0.00100004 -6.00327e-08 0)
(0.00100005 -7.10422e-08 0)
(0.00100006 -8.79902e-08 0)
(0.00100008 -1.03041e-07 0)
(0.0010001 -1.29534e-07 0)
(0.00100011 -1.4859e-07 0)
(0.00100014 -1.90743e-07 0)
(0.00100016 -2.11523e-07 0)
(0.0010002 -2.80976e-07 0)
(0.00100021 -2.94965e-07 0)
(0.00100027 -4.14908e-07 0)
(0.001 -2.93319e-09 0)
(0.001 -9.00653e-09 0)
(0.001 -1.54135e-08 0)
(0.001 -2.2555e-08 0)
(0.00100001 -3.03819e-08 0)
(0.00100001 -3.941e-08 0)
(0.00100001 -4.91621e-08 0)
(0.00100002 -6.07757e-08 0)
(0.00100002 -7.3043e-08 0)
(0.00100003 -8.86274e-08 0)
(0.00100004 -1.04316e-07 0)
(0.00100005 -1.26174e-07 0)
(0.00100006 -1.46188e-07 0)
(0.00100007 -1.77899e-07 0)
(0.00100009 -2.02052e-07 0)
(0.00100011 -2.49643e-07 0)
(0.00100012 -2.75233e-07 0)
(0.00100015 -3.50018e-07 0)
(0.00100016 -3.67688e-07 0)
(0.00100021 -4.92151e-07 0)
(0.001 -3.22577e-09 0)
(0.001 -9.89937e-09 0)
(0.001 -1.68319e-08 0)
(0.001 -2.43499e-08 0)
(0.001 -3.2295e-08 0)
(0.00100001 -4.12226e-08 0)
(0.00100001 -5.06303e-08 0)
(0.00100001 -6.1799e-08 0)
(0.00100002 -7.35637e-08 0)
(0.00100002 -8.86705e-08 0)
(0.00100003 -1.04038e-07 0)
(0.00100004 -1.25692e-07 0)
(0.00100004 -1.45711e-07 0)
(0.00100005 -1.77519e-07 0)
(0.00100006 -2.0202e-07 0)
(0.00100008 -2.49809e-07 0)
(0.00100009 -2.75864e-07 0)
(0.00100011 -3.50349e-07 0)
(0.00100012 -3.68106e-07 0)
(0.00100015 -4.90738e-07 0)
(0.001 -3.39373e-09 0)
(0.001 -1.04064e-08 0)
(0.001 -1.76294e-08 0)
(0.001 -2.54289e-08 0)
(0.001 -3.36662e-08 0)
(0.001 -4.30039e-08 0)
(0.00100001 -5.2971e-08 0)
(0.00100001 -6.4915e-08 0)
(0.00100001 -7.76066e-08 0)
(0.00100001 -9.3851e-08 0)
(0.00100002 -1.10496e-07 0)
(0.00100002 -1.336e-07 0)
(0.00100003 -1.55157e-07 0)
(0.00100003 -1.88749e-07 0)
(0.00100004 -2.14965e-07 0)
(0.00100005 -2.6474e-07 0)
(0.00100005 -2.92391e-07 0)
(0.00100007 -3.68885e-07 0)
(0.00100007 -3.87693e-07 0)
(0.00100009 -5.12412e-07 0)
(0.001 -3.47303e-09 0)
(0.001 -1.06442e-08 0)
(0.001 -1.80256e-08 0)
(0.001 -2.60047e-08 0)
(0.001 -3.44779e-08 0)
(0.001 -4.40973e-08 0)
(0.001 -5.43953e-08 0)
(0.001 -6.66864e-08 0)
(0.001 -7.9747e-08 0)
(0.001 -9.63736e-08 0)
(0.00100001 -1.13418e-07 0)
(0.00100001 -1.36912e-07 0)
(0.00100001 -1.58902e-07 0)
(0.00100001 -1.92879e-07 0)
(0.00100001 -2.19524e-07 0)
(0.00100002 -2.69579e-07 0)
(0.00100002 -2.97618e-07 0)
(0.00100002 -3.74163e-07 0)
(0.00100002 -3.93253e-07 0)
(0.00100003 -5.17375e-07 0)
(0.001 -3.47889e-09 0)
(0.001 -1.06398e-08 0)
(0.001 -1.80273e-08 0)
(0.000999999 -2.60048e-08 0)
(0.000999999 -3.4486e-08 0)
(0.000999999 -4.4101e-08 0)
(0.000999998 -5.44044e-08 0)
(0.000999997 -6.66827e-08 0)
(0.000999996 -7.97499e-08 0)
(0.000999995 -9.63779e-08 0)
(0.000999994 -1.13418e-07 0)
(0.000999993 -1.36923e-07 0)
(0.000999991 -1.58913e-07 0)
(0.000999989 -1.92876e-07 0)
(0.000999987 -2.19516e-07 0)
(0.000999984 -2.69569e-07 0)
(0.000999982 -2.97607e-07 0)
(0.000999978 -3.74157e-07 0)
(0.000999976 -3.93254e-07 0)
(0.00099997 -5.17375e-07 0)
(0.001 -3.39906e-09 0)
(0.001 -1.04005e-08 0)
(0.000999999 -1.76378e-08 0)
(0.000999998 -2.54301e-08 0)
(0.000999997 -3.36872e-08 0)
(0.000999996 -4.30094e-08 0)
(0.000999994 -5.29876e-08 0)
(0.000999992 -6.49038e-08 0)
(0.000999989 -7.76027e-08 0)
(0.000999986 -9.38597e-08 0)
(0.000999983 -1.10495e-07 0)
(0.000999978 -1.33611e-07 0)
(0.000999973 -1.55175e-07 0)
(0.000999967 -1.88746e-07 0)
(0.000999961 -2.14949e-07 0)
(0.000999952 -2.64701e-07 0)
(0.000999946 -2.9235e-07 0)
(0.000999934 -3.68846e-07 0)
(0.00099993 -3.87675e-07 0)
(0.000999911 -5.12364e-07 0)
(0.001 -3.21658e-09 0)
(0.001 -9.90123e-09 0)
(0.000999999 -1.68402e-08 0)
(0.000999998 -2.43581e-08 0)
(0.000999996 -3.23128e-08 0)
(0.000999993 -4.12234e-08 0)
(0.000999991 -5.06327e-08 0)
(0.000999987 -6.17904e-08 0)
(0.000999983 -7.35385e-08 0)
(0.000999977 -8.86746e-08 0)
(0.000999971 -1.0405e-07 0)
(0.000999964 -1.25695e-07 0)
(0.000999956 -1.45724e-07 0)
(0.000999945 -1.77538e-07 0)
(0.000999936 -2.02031e-07 0)
(0.000999921 -2.49794e-07 0)
(0.000999911 -2.75848e-07 0)
(0.000999889 -3.50343e-07 0)
(0.000999882 -3.68122e-07 0)
(0.000999852 -4.90735e-07 0)
(0.001 -2.91859e-09 0)
(0.000999999 -9.01009e-09 0)
(0.000999998 -1.54114e-08 0)
(0.000999996 -2.25683e-08 0)
(0.000999994 -3.03693e-08 0)
(0.000999991 -3.94112e-08 0)
(0.000999987 -4.91391e-08 0)
(0.000999982 -6.07796e-08 0)
(0.000999977 -7.30057e-08 0)
(0.000999969 -8.85907e-08 0)
(0.000999962 -1.04313e-07 0)
(0.000999951 -1.26154e-07 0)
(0.000999941 -1.46164e-07 0)
(0.000999925 -1.77878e-07 0)
(0.000999913 -2.02036e-07 0)
(0.000999891 -2.49595e-07 0)
(0.000999878 -2.75186e-07 0)
(0.000999847 -3.49933e-07 0)
(0.000999839 -3.67613e-07 0)
(0.000999792 -4.92011e-07 0)
(0.001 -2.59874e-09 0)
(0.000999999 -7.68204e-09 0)
(0.000999997 -1.24893e-08 0)
(0.000999995 -1.73614e-08 0)
(0.000999991 -2.22068e-08 0)
(0.000999987 -2.77923e-08 0)
(0.000999982 -3.36373e-08 0)
(0.000999975 -4.11348e-08 0)
(0.000999968 -4.90081e-08 0)
(0.000999959 -6.00045e-08 0)
(0.000999949 -7.10345e-08 0)
(0.000999936 -8.79934e-08 0)
(0.000999922 -1.03043e-07 0)
(0.000999903 -1.29536e-07 0)
(0.000999887 -1.48607e-07 0)
(0.000999859 -1.9076e-07 0)
(0.000999841 -2.11546e-07 0)
(0.000999802 -2.80969e-07 0)
(0.000999787 -2.94955e-07 0)
(0.000999731 -4.14884e-07 0)
(0.001 -2.93901e-09 0)
(0.001 -9.30931e-09 0)
(0.000999999 -1.64367e-08 0)
(0.000999997 -2.45606e-08 0)
(0.000999994 -3.33277e-08 0)
(0.00099999 -4.30779e-08 0)
(0.000999984 -5.31544e-08 0)
(0.000999977 -6.47391e-08 0)
(0.000999969 -7.65737e-08 0)
(0.000999958 -9.11805e-08 0)
(0.000999946 -1.05452e-07 0)
(0.00099993 -1.25221e-07 0)
(0.000999915 -1.42615e-07 0)
(0.000999891 -1.70942e-07 0)
(0.000999872 -1.91376e-07 0)
(0.000999837 -2.34605e-07 0)
(0.000999817 -2.56137e-07 0)
(0.000999764 -3.26799e-07 0)
(0.000999752 -3.41781e-07 0)
(0.00099967 -4.64202e-07 0)
(0.001 -2.11149e-10 0)
(0.000999998 -1.48795e-10 0)
(0.000999995 4.26947e-10 0)
(0.000999991 1.05049e-09 0)
(0.000999986 1.62482e-09 0)
(0.00099998 1.56794e-09 0)
(0.000999973 1.15969e-09 0)
(0.000999965 -5.64465e-10 0)
(0.000999955 -2.51419e-09 0)
(0.000999943 -7.05285e-09 0)
(0.00099993 -1.10935e-08 0)
(0.000999912 -2.0332e-08 0)
(0.000999894 -2.70911e-08 0)
(0.000999868 -4.43209e-08 0)
(0.000999845 -5.37135e-08 0)
(0.000999806 -8.52704e-08 0)
(0.000999779 -9.58281e-08 0)
(0.00099972 -1.54941e-07 0)
(0.000999698 -1.61213e-07 0)
(0.000999611 -2.75745e-07 0)
(0.001 -3.98381e-09 0)
(0.001 -1.30888e-08 0)
(0.001 -2.31956e-08 0)
(0.000999998 -3.38736e-08 0)
(0.000999995 -4.44867e-08 0)
(0.000999989 -5.52149e-08 0)
(0.000999983 -6.5981e-08 0)
(0.000999973 -7.74677e-08 0)
(0.000999963 -8.88869e-08 0)
(0.00099995 -1.02468e-07 0)
(0.000999936 -1.15145e-07 0)
(0.000999915 -1.32286e-07 0)
(0.000999896 -1.46445e-07 0)
(0.000999864 -1.70063e-07 0)
(0.000999841 -1.85278e-07 0)
(0.000999791 -2.21362e-07 0)
(0.000999767 -2.35961e-07 0)
(0.000999687 -2.97775e-07 0)
(0.000999671 -3.06402e-07 0)
(0.000999539 -4.22034e-07 0)
(0.001 4.01523e-09 0)
(0.000999996 1.21054e-08 0)
(0.000999991 2.01988e-08 0)
(0.000999987 2.78965e-08 0)
(0.000999982 3.51673e-08 0)
(0.000999976 4.15553e-08 0)
(0.000999969 4.78236e-08 0)
(0.000999959 5.29771e-08 0)
(0.000999948 5.84035e-08 0)
(0.000999934 6.22721e-08 0)
(0.000999919 6.69303e-08 0)
(0.000999897 6.85787e-08 0)
(0.000999878 7.26959e-08 0)
(0.000999845 6.98804e-08 0)
(0.000999819 7.40056e-08 0)
(0.000999768 6.16581e-08 0)
(0.000999738 6.71104e-08 0)
(0.000999654 3.17685e-08 0)
(0.000999629 3.98289e-08 0)
(0.000999495 -5.44774e-08 0)
(0.001 -8.72537e-09 0)
(0.001 -2.38045e-08 0)
(0.001 -3.61195e-08 0)
(0.000999997 -4.68944e-08 0)
(0.000999993 -5.70265e-08 0)
(0.000999986 -6.76605e-08 0)
(0.000999979 -7.79573e-08 0)
(0.000999968 -8.93052e-08 0)
(0.000999958 -9.99355e-08 0)
(0.000999942 -1.1188e-07 0)
(0.000999928 -1.22609e-07 0)
(0.000999903 -1.36126e-07 0)
(0.000999886 -1.4654e-07 0)
(0.000999846 -1.63435e-07 0)
(0.000999826 -1.72322e-07 0)
(0.00099976 -1.96505e-07 0)
(0.000999742 -2.01006e-07 0)
(0.000999623 -2.43223e-07 0)
(0.000999618 -2.3932e-07 0)
(0.000999394 -3.31918e-07 0)
)
;

boundaryField
{
    sides
    {
        type            slip;
    }
    inlet
    {
        type            fixedValue;
        value           uniform (0.001 0 0);
    }
    outlet
    {
        type            zeroGradient;
    }
    frontAndBack
    {
        type            empty;
    }
}


// ************************************************************************* //
