/*--------------------------------*- C++ -*----------------------------------*\
  =========                 |
  \\      /  F ield         | OpenFOAM: The Open Source CFD Toolbox
   \\    /   O peration     | Website:  https://openfoam.org
    \\  /    A nd           | Version:  7
     \\/     M anipulation  |
\*---------------------------------------------------------------------------*/
FoamFile
{
    version     2.0;
    format      ascii;
    class       surfaceScalarField;
    location    "68";
    object      phi;
}
// * * * * * * * * * * * * * * * * * * * * * * * * * * * * * * * * * * * * * //

dimensions      [0 4 -1 0 0 0 0];

internalField   nonuniform List<scalar> 
760
(
4.99999e-06
9.88264e-12
4.99999e-06
-4.46009e-12
5.00001e-06
-1.3062e-11
5.00003e-06
-1.98756e-11
5.00005e-06
-2.6826e-11
5.00009e-06
-3.30298e-11
5.00013e-06
-4.72797e-11
5.00018e-06
-6.2598e-11
5.00025e-06
-6.33194e-11
5.00032e-06
-7.82878e-11
5.00041e-06
-8.99987e-11
5.00053e-06
-1.13744e-10
5.00065e-06
-1.2667e-10
5.00082e-06
-1.67796e-10
5.001e-06
-1.78237e-10
5.00126e-06
-2.57275e-10
5.00151e-06
-2.56669e-10
5.00195e-06
-4.32161e-10
5.00236e-06
-4.14503e-10
-8.9155e-10
5.00002e-06
-1.19346e-11
5.00004e-06
-1.92261e-11
5.00005e-06
-2.96467e-11
5.00007e-06
-4.2377e-11
5.0001e-06
-5.53562e-11
5.00014e-06
-6.96242e-11
5.00018e-06
-8.589e-11
5.00023e-06
-1.04939e-10
5.00029e-06
-1.23887e-10
5.00037e-06
-1.53195e-10
5.00045e-06
-1.76679e-10
5.00056e-06
-2.21562e-10
5.00068e-06
-2.49889e-10
5.00084e-06
-3.24096e-10
5.00102e-06
-3.54268e-10
5.00125e-06
-4.86901e-10
5.0015e-06
-5.102e-10
5.00184e-06
-7.68745e-10
5.00218e-06
-7.60695e-10
-1.26199e-09
4.99999e-06
-4.79683e-12
4.99999e-06
-2.06703e-11
5e-06
-3.82136e-11
5.00002e-06
-5.75513e-11
5.00004e-06
-7.77898e-11
5.00007e-06
-1.00511e-10
5.00011e-06
-1.24098e-10
5.00016e-06
-1.52906e-10
5.00021e-06
-1.82965e-10
5.00029e-06
-2.23636e-10
5.00037e-06
-2.61703e-10
5.00047e-06
-3.22574e-10
5.00059e-06
-3.71389e-10
5.00074e-06
-4.67547e-10
5.00091e-06
-5.26296e-10
5.00111e-06
-6.87966e-10
5.00135e-06
-7.49385e-10
5.00162e-06
-1.04249e-09
5.00195e-06
-1.08447e-09
-1.68948e-09
5.00001e-06
-1.26882e-11
5.00002e-06
-3.36931e-11
5.00004e-06
-5.51257e-11
5.00006e-06
-7.88102e-11
5.00008e-06
-1.03499e-10
5.00012e-06
-1.32443e-10
5.00015e-06
-1.61754e-10
5.0002e-06
-1.99137e-10
5.00025e-06
-2.36755e-10
5.00032e-06
-2.8844e-10
5.00039e-06
-3.375e-10
5.00048e-06
-4.1431e-10
5.00059e-06
-4.77592e-10
5.00072e-06
-5.96419e-10
5.00087e-06
-6.7345e-10
5.00104e-06
-8.66553e-10
5.00124e-06
-9.48771e-10
5.00148e-06
-1.28172e-09
5.00173e-06
-1.33314e-09
-1.89804e-09
5e-06
-1.17371e-11
5e-06
-3.69286e-11
5.00001e-06
-6.29788e-11
5.00002e-06
-9.15814e-11
5.00004e-06
-1.2178e-10
5.00006e-06
-1.56657e-10
5.0001e-06
-1.93254e-10
5.00013e-06
-2.37912e-10
5.00018e-06
-2.84149e-10
5.00024e-06
-3.45196e-10
5.00031e-06
-4.05889e-10
5.00039e-06
-4.94564e-10
5.00048e-06
-5.7329e-10
5.00059e-06
-7.07187e-10
5.00072e-06
-8.04167e-10
5.00087e-06
-1.01419e-09
5.00104e-06
-1.11861e-09
5.00122e-06
-1.46358e-09
5.00142e-06
-1.53484e-09
-2.16283e-09
5e-06
-1.39645e-11
5.00001e-06
-4.363e-11
5.00002e-06
-7.39143e-11
5.00003e-06
-1.06613e-10
5.00005e-06
-1.41119e-10
5.00008e-06
-1.80403e-10
5.00011e-06
-2.22165e-10
5.00014e-06
-2.72575e-10
5.00018e-06
-3.25174e-10
5.00023e-06
-3.94227e-10
5.00029e-06
-4.6313e-10
5.00036e-06
-5.62433e-10
5.00043e-06
-6.51928e-10
5.00053e-06
-7.99862e-10
5.00063e-06
-9.09445e-10
5.00075e-06
-1.1364e-09
5.00089e-06
-1.25368e-09
5.00104e-06
-1.61828e-09
5.00121e-06
-1.69961e-09
-2.29351e-09
5e-06
-1.57943e-11
5.00001e-06
-4.81384e-11
5.00001e-06
-8.13189e-11
5.00002e-06
-1.16694e-10
5.00004e-06
-1.54502e-10
5.00005e-06
-1.97553e-10
5.00008e-06
-2.43707e-10
5.0001e-06
-2.98902e-10
5.00013e-06
-3.57297e-10
5.00017e-06
-4.32467e-10
5.00022e-06
-5.08532e-10
5.00027e-06
-6.15685e-10
5.00033e-06
-7.14445e-10
5.0004e-06
-8.71837e-10
5.00049e-06
-9.92521e-10
5.00058e-06
-1.22976e-09
5.00069e-06
-1.35826e-09
5.0008e-06
-1.72908e-09
5.00091e-06
-1.8147e-09
-2.44213e-09
5e-06
-1.68648e-11
5e-06
-5.12068e-11
5.00001e-06
-8.63829e-11
5.00002e-06
-1.243e-10
5.00003e-06
-1.64694e-10
5.00004e-06
-2.10755e-10
5.00006e-06
-2.60058e-10
5.00008e-06
-3.18861e-10
5.0001e-06
-3.81191e-10
5.00013e-06
-4.60727e-10
5.00016e-06
-5.41797e-10
5.0002e-06
-6.54764e-10
5.00025e-06
-7.59634e-10
5.0003e-06
-9.24132e-10
5.00036e-06
-1.05183e-09
5.00042e-06
-1.29674e-09
5.0005e-06
-1.4316e-09
5.00058e-06
-1.81008e-09
5.00067e-06
-1.90322e-09
-2.51623e-09
5e-06
-1.74061e-11
5e-06
-5.30832e-11
5.00001e-06
-8.95738e-11
5.00001e-06
-1.29125e-10
5.00002e-06
-1.71134e-10
5.00002e-06
-2.18912e-10
5.00003e-06
-2.69989e-10
5.00005e-06
-3.30885e-10
5.00006e-06
-3.95511e-10
5.00008e-06
-4.77708e-10
5.0001e-06
-5.61859e-10
5.00012e-06
-6.78213e-10
5.00015e-06
-7.86792e-10
5.00018e-06
-9.55426e-10
5.00022e-06
-1.08739e-09
5.00026e-06
-1.33656e-09
5.0003e-06
-1.47545e-09
5.00035e-06
-1.85725e-09
5.00039e-06
-1.95066e-09
-2.57221e-09
5e-06
-1.75739e-11
5e-06
-5.36635e-11
5e-06
-9.06953e-11
5e-06
-1.30782e-10
5.00001e-06
-1.73386e-10
5.00001e-06
-2.21692e-10
5.00001e-06
-2.73386e-10
5.00002e-06
-3.34943e-10
5.00002e-06
-4.00328e-10
5.00003e-06
-4.83439e-10
5.00003e-06
-5.68568e-10
5.00004e-06
-6.86026e-10
5.00005e-06
-7.95933e-10
5.00006e-06
-9.65884e-10
5.00007e-06
-1.09925e-09
5.00009e-06
-1.34975e-09
5.0001e-06
-1.49002e-09
5.00012e-06
-1.87265e-09
5.00013e-06
-1.96791e-09
-2.58847e-09
5e-06
-1.73747e-11
5e-06
-5.29717e-11
5e-06
-8.96075e-11
5e-06
-1.29164e-10
4.99999e-06
-1.71311e-10
4.99999e-06
-2.19027e-10
4.99999e-06
-2.70136e-10
4.99998e-06
-3.30947e-10
4.99998e-06
-3.955e-10
4.99997e-06
-4.77773e-10
4.99997e-06
-5.61846e-10
4.99996e-06
-6.78222e-10
4.99995e-06
-7.86964e-10
4.99994e-06
-9.5556e-10
4.99993e-06
-1.08736e-09
4.99991e-06
-1.33643e-09
4.9999e-06
-1.47536e-09
4.99988e-06
-1.85717e-09
4.99987e-06
-1.95058e-09
-2.57205e-09
5e-06
-1.67708e-11
5e-06
-5.11832e-11
4.99999e-06
-8.64096e-11
4.99999e-06
-1.24358e-10
4.99998e-06
-1.64819e-10
4.99998e-06
-2.1084e-10
4.99997e-06
-2.60119e-10
4.99995e-06
-3.18901e-10
4.99994e-06
-3.81082e-10
4.99992e-06
-4.60717e-10
4.9999e-06
-5.41803e-10
4.99988e-06
-6.54719e-10
4.99985e-06
-7.59708e-10
4.99982e-06
-9.24257e-10
4.99978e-06
-1.05186e-09
4.99974e-06
-1.29659e-09
4.9997e-06
-1.43144e-09
4.99965e-06
-1.8099e-09
4.99961e-06
-1.90308e-09
-2.51601e-09
5e-06
-1.5751e-11
5e-06
-4.81896e-11
4.99999e-06
-8.12884e-11
4.99998e-06
-1.16764e-10
4.99997e-06
-1.54394e-10
4.99996e-06
-1.97559e-10
4.99994e-06
-2.43576e-10
4.99992e-06
-2.98895e-10
4.9999e-06
-3.57168e-10
4.99987e-06
-4.32266e-10
4.99984e-06
-5.08512e-10
4.9998e-06
-6.15658e-10
4.99975e-06
-7.14385e-10
4.9997e-06
-8.71825e-10
4.99964e-06
-9.92559e-10
4.99958e-06
-1.22965e-09
4.9995e-06
-1.35814e-09
4.99942e-06
-1.72888e-09
4.99933e-06
-1.81458e-09
-2.44179e-09
5e-06
-1.40185e-11
4.99999e-06
-4.36712e-11
4.99999e-06
-7.39083e-11
4.99998e-06
-1.06543e-10
4.99996e-06
-1.40914e-10
4.99995e-06
-1.80416e-10
4.99992e-06
-2.22064e-10
4.9999e-06
-2.72549e-10
4.99987e-06
-3.25301e-10
4.99983e-06
-3.94055e-10
4.99978e-06
-4.62979e-10
4.99973e-06
-5.62361e-10
4.99967e-06
-6.51832e-10
4.9996e-06
-7.99746e-10
4.99951e-06
-9.09421e-10
4.99942e-06
-1.13632e-09
4.99931e-06
-1.25362e-09
4.9992e-06
-1.61806e-09
4.99909e-06
-1.69942e-09
-2.29311e-09
5e-06
-1.18573e-11
4.99999e-06
-3.69378e-11
4.99998e-06
-6.29438e-11
4.99997e-06
-9.14063e-11
4.99995e-06
-1.21863e-10
4.99992e-06
-1.56564e-10
4.99989e-06
-1.93354e-10
4.99986e-06
-2.37775e-10
4.99982e-06
-2.84396e-10
4.99977e-06
-3.45388e-10
4.99971e-06
-4.05844e-10
4.99964e-06
-4.94468e-10
4.99957e-06
-5.73213e-10
4.99947e-06
-7.07046e-10
4.99937e-06
-8.04119e-10
4.99925e-06
-1.01414e-09
4.99911e-06
-1.11862e-09
4.99896e-06
-1.46334e-09
4.99879e-06
-1.53465e-09
-2.16237e-09
5e-06
-1.28078e-11
5e-06
-3.36805e-11
4.99999e-06
-5.50806e-11
4.99998e-06
-7.87709e-11
4.99996e-06
-1.03724e-10
4.99994e-06
-1.32067e-10
4.9999e-06
-1.62177e-10
4.99987e-06
-1.99079e-10
4.99982e-06
-2.36768e-10
4.99976e-06
-2.88716e-10
4.99969e-06
-3.37633e-10
4.99961e-06
-4.14267e-10
4.99952e-06
-4.77533e-10
4.99941e-06
-5.96262e-10
4.99928e-06
-6.73361e-10
4.99913e-06
-8.66432e-10
4.99896e-06
-9.48737e-10
4.99878e-06
-1.28143e-09
4.99858e-06
-1.3329e-09
-1.89751e-09
4.99999e-06
-4.78604e-12
4.99998e-06
-2.06509e-11
4.99996e-06
-3.82462e-11
4.99994e-06
-5.77203e-11
4.99992e-06
-7.77461e-11
4.99988e-06
-1.00429e-10
4.99985e-06
-1.24389e-10
4.9998e-06
-1.53328e-10
4.99975e-06
-1.82858e-10
4.99968e-06
-2.23761e-10
4.99961e-06
-2.61898e-10
4.99952e-06
-3.22657e-10
4.99941e-06
-3.71448e-10
4.99928e-06
-4.67499e-10
4.99913e-06
-5.2628e-10
4.99896e-06
-6.87855e-10
4.99876e-06
-7.49386e-10
4.99852e-06
-1.04228e-09
4.99827e-06
-1.08438e-09
-1.68909e-09
5.00001e-06
-1.16981e-11
5.00001e-06
-1.92153e-11
5e-06
-2.97897e-11
4.99998e-06
-4.25734e-11
4.99996e-06
-5.49466e-11
4.99993e-06
-7.02495e-11
4.99989e-06
-8.43828e-11
4.99984e-06
-1.0571e-10
4.99978e-06
-1.23812e-10
4.99971e-06
-1.52976e-10
4.99963e-06
-1.76688e-10
4.99953e-06
-2.21609e-10
4.99941e-06
-2.49982e-10
4.99926e-06
-3.24078e-10
4.99909e-06
-3.54276e-10
4.99889e-06
-4.86729e-10
4.99865e-06
-5.10178e-10
4.99838e-06
-7.68506e-10
4.99805e-06
-7.6062e-10
-1.26153e-09
4.99998e-06
1.00903e-11
4.99996e-06
-4.52779e-12
4.99995e-06
-1.32e-11
4.99993e-06
-1.98145e-11
4.9999e-06
-2.70776e-11
4.99986e-06
-3.80222e-11
4.99982e-06
-3.42656e-11
4.99977e-06
-5.41747e-11
4.99971e-06
-6.28479e-11
4.99963e-06
-7.8029e-11
4.99955e-06
-8.99826e-11
4.99944e-06
-1.13861e-10
4.99932e-06
-1.2685e-10
4.99916e-06
-1.67928e-10
4.99898e-06
-1.78354e-10
4.99875e-06
-2.5729e-10
4.9985e-06
-2.56745e-10
4.99816e-06
-4.32179e-10
4.99782e-06
-4.14601e-10
-8.91568e-10
5.00001e-06
5.00001e-06
4.99999e-06
4.99997e-06
4.99995e-06
4.99991e-06
4.99987e-06
4.99982e-06
4.99975e-06
4.99968e-06
4.99959e-06
4.99947e-06
4.99935e-06
4.99918e-06
4.999e-06
4.99874e-06
4.99848e-06
4.99805e-06
4.99764e-06
)
;

boundaryField
{
    sides
    {
        type            calculated;
        value           uniform 0;
    }
    inlet
    {
        type            calculated;
        value           nonuniform List<scalar> 
20
(
-5e-06
-5e-06
-5e-06
-5e-06
-5e-06
-5e-06
-5e-06
-5e-06
-5e-06
-5e-06
-5e-06
-5e-06
-5e-06
-5e-06
-5e-06
-5e-06
-5e-06
-5e-06
-5e-06
-5e-06
)
;
    }
    outlet
    {
        type            calculated;
        value           nonuniform List<scalar> 
20
(
5.00325e-06
5.00255e-06
5.00237e-06
5.00194e-06
5.00169e-06
5.00134e-06
5.00106e-06
5.00074e-06
5.00045e-06
5.00015e-06
4.99985e-06
4.99955e-06
4.99926e-06
4.99894e-06
4.99866e-06
4.99831e-06
4.99806e-06
4.99763e-06
4.99745e-06
4.99675e-06
)
;
    }
    frontAndBack
    {
        type            empty;
        value           nonuniform 0();
    }
}


// ************************************************************************* //
