/*--------------------------------*- C++ -*----------------------------------*\
  =========                 |
  \\      /  F ield         | OpenFOAM: The Open Source CFD Toolbox
   \\    /   O peration     | Website:  https://openfoam.org
    \\  /    A nd           | Version:  7
     \\/     M anipulation  |
\*---------------------------------------------------------------------------*/
FoamFile
{
    version     2.0;
    format      ascii;
    class       volVectorField;
    location    "68";
    object      U;
}
// * * * * * * * * * * * * * * * * * * * * * * * * * * * * * * * * * * * * * //

dimensions      [0 1 -1 0 0 0 0];

internalField   nonuniform List<vector> 
400
(
(0.0999931 -8.7499e-07 0)
(0.099993 -2.37962e-06 0)
(0.0999931 -3.60793e-06 0)
(0.0999934 -4.68683e-06 0)
(0.0999939 -5.70458e-06 0)
(0.0999947 -6.74724e-06 0)
(0.0999955 -7.82134e-06 0)
(0.0999966 -8.94737e-06 0)
(0.0999978 -1.00011e-05 0)
(0.0999996 -1.11882e-05 0)
(0.100001 -1.22552e-05 0)
(0.100004 -1.36053e-05 0)
(0.100006 -1.46457e-05 0)
(0.10001 -1.63354e-05 0)
(0.100013 -1.7224e-05 0)
(0.10002 -1.96432e-05 0)
(0.100022 -2.00936e-05 0)
(0.100035 -2.43147e-05 0)
(0.100036 -2.39248e-05 0)
(0.10006 -3.31798e-05 0)
(0.0999943 3.95745e-07 0)
(0.0999947 1.20993e-06 0)
(0.0999952 2.02391e-06 0)
(0.0999957 2.79401e-06 0)
(0.0999963 3.51494e-06 0)
(0.099997 4.17043e-06 0)
(0.0999978 4.76151e-06 0)
(0.0999988 5.28609e-06 0)
(0.1 5.82927e-06 0)
(0.100002 6.22128e-06 0)
(0.100003 6.69354e-06 0)
(0.100006 6.85915e-06 0)
(0.100008 7.27142e-06 0)
(0.100012 6.98823e-06 0)
(0.100014 7.40078e-06 0)
(0.10002 6.16237e-06 0)
(0.100024 6.70877e-06 0)
(0.100033 3.17007e-06 0)
(0.100036 3.97806e-06 0)
(0.10005 -5.46049e-06 0)
(0.0999948 -3.99632e-07 0)
(0.0999947 -1.309e-06 0)
(0.0999947 -2.31855e-06 0)
(0.0999949 -3.38405e-06 0)
(0.0999953 -4.44573e-06 0)
(0.0999959 -5.52703e-06 0)
(0.0999967 -6.58815e-06 0)
(0.0999977 -7.7381e-06 0)
(0.0999988 -8.88859e-06 0)
(0.1 -1.02466e-05 0)
(0.100002 -1.15123e-05 0)
(0.100004 -1.32261e-05 0)
(0.100006 -1.46398e-05 0)
(0.10001 -1.70027e-05 0)
(0.100013 -1.85232e-05 0)
(0.100018 -2.21352e-05 0)
(0.100021 -2.35935e-05 0)
(0.100029 -2.97804e-05 0)
(0.100032 -3.06412e-05 0)
(0.100046 -4.22132e-05 0)
(0.0999956 -1.71146e-08 0)
(0.0999958 -1.34215e-08 0)
(0.0999962 4.28377e-08 0)
(0.0999966 1.04953e-07 0)
(0.0999972 1.6579e-07 0)
(0.0999978 1.53179e-07 0)
(0.0999986 1.22229e-07 0)
(0.0999995 -5.54444e-08 0)
(0.100001 -2.48831e-07 0)
(0.100002 -7.00874e-07 0)
(0.100003 -1.10677e-06 0)
(0.100005 -2.03127e-06 0)
(0.100007 -2.70572e-06 0)
(0.10001 -4.42937e-06 0)
(0.100013 -5.36835e-06 0)
(0.100017 -8.52556e-06 0)
(0.10002 -9.5823e-06 0)
(0.100027 -1.54978e-05 0)
(0.100029 -1.61269e-05 0)
(0.100039 -2.75842e-05 0)
(0.0999963 -2.913e-07 0)
(0.0999963 -9.3008e-07 0)
(0.0999964 -1.64345e-06 0)
(0.0999966 -2.45711e-06 0)
(0.0999969 -3.33136e-06 0)
(0.0999974 -4.30875e-06 0)
(0.099998 -5.31375e-06 0)
(0.0999988 -6.47609e-06 0)
(0.0999997 -7.65531e-06 0)
(0.100001 -9.11716e-06 0)
(0.100002 -1.0546e-05 0)
(0.100004 -1.25225e-05 0)
(0.100006 -1.426e-05 0)
(0.100008 -1.70938e-05 0)
(0.100011 -1.91359e-05 0)
(0.100014 -2.3461e-05 0)
(0.100017 -2.56146e-05 0)
(0.100022 -3.26888e-05 0)
(0.100024 -3.41882e-05 0)
(0.100033 -4.64401e-05 0)
(0.099997 -2.59025e-07 0)
(0.099997 -7.6656e-07 0)
(0.0999972 -1.24706e-06 0)
(0.0999975 -1.73466e-06 0)
(0.0999979 -2.22096e-06 0)
(0.0999984 -2.77849e-06 0)
(0.099999 -3.36553e-06 0)
(0.0999997 -4.11512e-06 0)
(0.1 -4.90103e-06 0)
(0.100002 -6.00341e-06 0)
(0.100003 -7.10435e-06 0)
(0.100004 -8.79729e-06 0)
(0.100006 -1.02999e-05 0)
(0.100008 -1.29481e-05 0)
(0.10001 -1.4854e-05 0)
(0.100013 -1.90702e-05 0)
(0.100015 -2.11511e-05 0)
(0.100019 -2.80974e-05 0)
(0.100021 -2.94995e-05 0)
(0.100027 -4.14952e-05 0)
(0.0999976 -2.92126e-07 0)
(0.0999977 -8.9886e-07 0)
(0.0999978 -1.53877e-06 0)
(0.099998 -2.25338e-06 0)
(0.0999983 -3.03627e-06 0)
(0.0999986 -3.94001e-06 0)
(0.0999991 -4.91627e-06 0)
(0.0999996 -6.08001e-06 0)
(0.1 -7.30487e-06 0)
(0.100001 -8.86467e-06 0)
(0.100002 -1.04331e-05 0)
(0.100003 -1.26158e-05 0)
(0.100004 -1.4615e-05 0)
(0.100006 -1.7785e-05 0)
(0.100007 -2.02001e-05 0)
(0.10001 -2.49596e-05 0)
(0.100011 -2.75215e-05 0)
(0.100015 -3.50011e-05 0)
(0.100016 -3.67716e-05 0)
(0.100021 -4.92197e-05 0)
(0.0999983 -3.22115e-07 0)
(0.0999984 -9.87918e-07 0)
(0.0999984 -1.68064e-06 0)
(0.0999986 -2.43167e-06 0)
(0.0999988 -3.22786e-06 0)
(0.099999 -4.12094e-06 0)
(0.0999994 -5.06447e-06 0)
(0.0999998 -6.1822e-06 0)
(0.1 -7.35928e-06 0)
(0.100001 -8.87087e-06 0)
(0.100002 -1.04049e-05 0)
(0.100002 -1.25671e-05 0)
(0.100003 -1.45665e-05 0)
(0.100004 -1.77455e-05 0)
(0.100005 -2.01955e-05 0)
(0.100007 -2.49754e-05 0)
(0.100008 -2.75847e-05 0)
(0.100011 -3.50352e-05 0)
(0.100012 -3.68155e-05 0)
(0.100015 -4.90797e-05 0)
(0.099999 -3.39284e-07 0)
(0.099999 -1.03855e-06 0)
(0.0999991 -1.76009e-06 0)
(0.0999992 -2.53934e-06 0)
(0.0999993 -3.36389e-06 0)
(0.0999994 -4.2986e-06 0)
(0.0999996 -5.29779e-06 0)
(0.0999999 -6.49289e-06 0)
(0.1 -7.76418e-06 0)
(0.100001 -9.38802e-06 0)
(0.100001 -1.10502e-05 0)
(0.100001 -1.33588e-05 0)
(0.100002 -1.55109e-05 0)
(0.100003 -1.88676e-05 0)
(0.100003 -2.14899e-05 0)
(0.100004 -2.64686e-05 0)
(0.100005 -2.92373e-05 0)
(0.100006 -3.6889e-05 0)
(0.100007 -3.87748e-05 0)
(0.100009 -5.12478e-05 0)
(0.0999997 -3.46582e-07 0)
(0.0999997 -1.06211e-06 0)
(0.0999997 -1.79943e-06 0)
(0.0999997 -2.59726e-06 0)
(0.0999998 -3.44494e-06 0)
(0.0999998 -4.40831e-06 0)
(0.0999999 -5.44031e-06 0)
(0.1 -6.67074e-06 0)
(0.1 -7.97843e-06 0)
(0.1 -9.63984e-06 0)
(0.1 -1.13421e-05 0)
(0.1 -1.36894e-05 0)
(0.100001 -1.58847e-05 0)
(0.100001 -1.92802e-05 0)
(0.100001 -2.1946e-05 0)
(0.100001 -2.69531e-05 0)
(0.100002 -2.97607e-05 0)
(0.100002 -3.74174e-05 0)
(0.100002 -3.93312e-05 0)
(0.100003 -5.17443e-05 0)
(0.1 -3.46283e-07 0)
(0.1 -1.06111e-06 0)
(0.1 -1.79981e-06 0)
(0.1 -2.59767e-06 0)
(0.1 -3.4467e-06 0)
(0.1 -4.40944e-06 0)
(0.1 -5.44178e-06 0)
(0.1 -6.67136e-06 0)
(0.0999999 -7.97832e-06 0)
(0.0999998 -9.64055e-06 0)
(0.0999997 -1.1342e-05 0)
(0.0999995 -1.36896e-05 0)
(0.0999993 -1.58865e-05 0)
(0.0999991 -1.92816e-05 0)
(0.0999989 -2.19457e-05 0)
(0.0999986 -2.69519e-05 0)
(0.0999983 -2.97599e-05 0)
(0.0999979 -3.74168e-05 0)
(0.0999977 -3.93305e-05 0)
(0.0999971 -5.17436e-05 0)
(0.100001 -3.38071e-07 0)
(0.100001 -1.03737e-06 0)
(0.100001 -1.76079e-06 0)
(0.100001 -2.54037e-06 0)
(0.100001 -3.36694e-06 0)
(0.100001 -4.30066e-06 0)
(0.1 -5.29997e-06 0)
(0.1 -6.49399e-06 0)
(0.0999998 -7.76304e-06 0)
(0.0999995 -9.38871e-06 0)
(0.0999991 -1.10502e-05 0)
(0.0999986 -1.33584e-05 0)
(0.099998 -1.55134e-05 0)
(0.0999973 -1.887e-05 0)
(0.0999967 -2.14897e-05 0)
(0.0999957 -2.64652e-05 0)
(0.099995 -2.92341e-05 0)
(0.0999936 -3.68851e-05 0)
(0.0999931 -3.87713e-05 0)
(0.0999912 -5.12417e-05 0)
(0.100002 -3.20751e-07 0)
(0.100002 -9.88206e-07 0)
(0.100002 -1.68067e-06 0)
(0.100001 -2.43297e-06 0)
(0.100001 -3.22817e-06 0)
(0.100001 -4.1221e-06 0)
(0.100001 -5.06407e-06 0)
(0.1 -6.18291e-06 0)
(0.0999997 -7.35728e-06 0)
(0.0999991 -8.8694e-06 0)
(0.0999985 -1.04056e-05 0)
(0.0999976 -1.25674e-05 0)
(0.0999968 -1.45677e-05 0)
(0.0999956 -1.77481e-05 0)
(0.0999945 -2.01979e-05 0)
(0.0999929 -2.4975e-05 0)
(0.0999917 -2.7584e-05 0)
(0.0999894 -3.50346e-05 0)
(0.0999885 -3.68159e-05 0)
(0.0999852 -4.90787e-05 0)
(0.100002 -2.92233e-07 0)
(0.100002 -8.99658e-07 0)
(0.100002 -1.53834e-06 0)
(0.100002 -2.25345e-06 0)
(0.100002 -3.0333e-06 0)
(0.100001 -3.94013e-06 0)
(0.100001 -4.91386e-06 0)
(0.1 -6.07953e-06 0)
(0.0999998 -7.30448e-06 0)
(0.099999 -8.86045e-06 0)
(0.0999981 -1.0431e-05 0)
(0.0999969 -1.26142e-05 0)
(0.0999958 -1.46126e-05 0)
(0.0999941 -1.77825e-05 0)
(0.0999926 -2.0199e-05 0)
(0.0999903 -2.49556e-05 0)
(0.0999887 -2.75175e-05 0)
(0.0999853 -3.49932e-05 0)
(0.0999843 -3.67646e-05 0)
(0.0999793 -4.92059e-05 0)
(0.100003 -2.60502e-07 0)
(0.100003 -7.66953e-07 0)
(0.100003 -1.24684e-06 0)
(0.100002 -1.73286e-06 0)
(0.100002 -2.21987e-06 0)
(0.100002 -2.77846e-06 0)
(0.100001 -3.3662e-06 0)
(0.1 -4.11462e-06 0)
(0.0999995 -4.90564e-06 0)
(0.0999985 -6.00439e-06 0)
(0.0999973 -7.10347e-06 0)
(0.0999959 -8.79731e-06 0)
(0.0999944 -1.03e-05 0)
(0.0999923 -1.2948e-05 0)
(0.0999904 -1.48557e-05 0)
(0.0999874 -1.90723e-05 0)
(0.0999853 -2.11539e-05 0)
(0.0999811 -2.80978e-05 0)
(0.0999793 -2.95e-05 0)
(0.0999733 -4.14936e-05 0)
(0.100004 -2.93396e-07 0)
(0.100004 -9.29868e-07 0)
(0.100004 -1.6428e-06 0)
(0.100003 -2.45475e-06 0)
(0.100003 -3.33358e-06 0)
(0.100003 -4.30477e-06 0)
(0.100002 -5.31793e-06 0)
(0.100001 -6.4736e-06 0)
(0.1 -7.65779e-06 0)
(0.0999991 -9.12142e-06 0)
(0.0999978 -1.05464e-05 0)
(0.099996 -1.25206e-05 0)
(0.0999943 -1.42583e-05 0)
(0.0999916 -1.70901e-05 0)
(0.0999895 -1.91339e-05 0)
(0.0999856 -2.34578e-05 0)
(0.0999833 -2.56133e-05 0)
(0.0999776 -3.26807e-05 0)
(0.0999759 -3.41814e-05 0)
(0.0999673 -4.64241e-05 0)
(0.100004 -1.96103e-08 0)
(0.100004 -1.35205e-08 0)
(0.100004 4.3106e-08 0)
(0.100003 1.04472e-07 0)
(0.100003 1.62781e-07 0)
(0.100002 1.58922e-07 0)
(0.100001 1.14494e-07 0)
(0.1 -5.8161e-08 0)
(0.0999994 -2.50171e-07 0)
(0.0999981 -7.07003e-07 0)
(0.0999966 -1.11068e-06 0)
(0.0999946 -2.03201e-06 0)
(0.0999926 -2.706e-06 0)
(0.0999897 -4.42815e-06 0)
(0.0999871 -5.3678e-06 0)
(0.0999828 -8.52446e-06 0)
(0.0999798 -9.58243e-06 0)
(0.0999734 -1.54947e-05 0)
(0.0999707 -1.61244e-05 0)
(0.0999614 -2.75781e-05 0)
(0.100005 -3.98039e-07 0)
(0.100005 -1.30859e-06 0)
(0.100005 -2.31877e-06 0)
(0.100005 -3.38775e-06 0)
(0.100005 -4.44574e-06 0)
(0.100004 -5.5213e-06 0)
(0.100003 -6.59392e-06 0)
(0.100002 -7.75392e-06 0)
(0.100001 -8.88968e-06 0)
(0.0999996 -1.02467e-05 0)
(0.0999981 -1.15149e-05 0)
(0.0999957 -1.32283e-05 0)
(0.0999936 -1.4643e-05 0)
(0.0999901 -1.7004e-05 0)
(0.0999875 -1.85255e-05 0)
(0.0999821 -2.21345e-05 0)
(0.0999791 -2.35962e-05 0)
(0.0999706 -2.97784e-05 0)
(0.0999683 -3.06428e-05 0)
(0.0999544 -4.22062e-05 0)
(0.100006 4.01322e-07 0)
(0.100005 1.20949e-06 0)
(0.100005 2.02082e-06 0)
(0.100004 2.79271e-06 0)
(0.100004 3.51889e-06 0)
(0.100003 4.14875e-06 0)
(0.100002 4.78472e-06 0)
(0.100001 5.30017e-06 0)
(0.1 5.83819e-06 0)
(0.0999984 6.23073e-06 0)
(0.0999967 6.69506e-06 0)
(0.0999943 6.85837e-06 0)
(0.0999921 7.27017e-06 0)
(0.0999885 6.98927e-06 0)
(0.0999856 7.4022e-06 0)
(0.0999799 6.16746e-06 0)
(0.0999764 6.71207e-06 0)
(0.0999674 3.17719e-06 0)
(0.0999641 3.98265e-06 0)
(0.09995 -5.44842e-06 0)
(0.100007 -8.7239e-07 0)
(0.100007 -2.38111e-06 0)
(0.100007 -3.61176e-06 0)
(0.100007 -4.68718e-06 0)
(0.100006 -5.70398e-06 0)
(0.100005 -6.77509e-06 0)
(0.100005 -7.80067e-06 0)
(0.100003 -8.92597e-06 0)
(0.100002 -9.99778e-06 0)
(0.1 -1.1188e-05 0)
(0.0999989 -1.22609e-05 0)
(0.0999961 -1.36128e-05 0)
(0.0999941 -1.46537e-05 0)
(0.0999898 -1.63429e-05 0)
(0.0999874 -1.72316e-05 0)
(0.0999803 -1.96503e-05 0)
(0.0999779 -2.01013e-05 0)
(0.0999653 -2.43235e-05 0)
(0.0999638 -2.39339e-05 0)
(0.0999402 -3.31934e-05 0)
)
;

boundaryField
{
    sides
    {
        type            calculated;
        value           nonuniform List<vector> 
40
(
(0.100007 0 0)
(0.100007 0 0)
(0.100007 0 0)
(0.100007 0 0)
(0.100006 0 0)
(0.100005 0 0)
(0.100005 0 0)
(0.100003 0 0)
(0.100002 0 0)
(0.1 0 0)
(0.0999989 0 0)
(0.0999961 0 0)
(0.0999941 0 0)
(0.0999898 0 0)
(0.0999874 0 0)
(0.0999803 0 0)
(0.0999779 0 0)
(0.0999653 0 0)
(0.0999638 0 0)
(0.0999402 0 0)
(0.0999931 0 0)
(0.099993 0 0)
(0.0999931 0 0)
(0.0999934 0 0)
(0.0999939 0 0)
(0.0999947 0 0)
(0.0999955 0 0)
(0.0999966 0 0)
(0.0999978 0 0)
(0.0999996 0 0)
(0.100001 0 0)
(0.100004 0 0)
(0.100006 0 0)
(0.10001 0 0)
(0.100013 0 0)
(0.10002 0 0)
(0.100022 0 0)
(0.100035 0 0)
(0.100036 0 0)
(0.10006 0 0)
)
;
    }
    inlet
    {
        type            calculated;
        value           nonuniform List<vector> 
20
(
(0.0999931 0 0)
(0.0999943 0 0)
(0.0999948 0 0)
(0.0999956 0 0)
(0.0999963 0 0)
(0.0999969 0 0)
(0.0999976 0 0)
(0.0999983 0 0)
(0.099999 0 0)
(0.0999997 0 0)
(0.1 0 0)
(0.100001 0 0)
(0.100002 0 0)
(0.100002 0 0)
(0.100003 0 0)
(0.100004 0 0)
(0.100004 0 0)
(0.100005 0 0)
(0.100006 0 0)
(0.100007 0 0)
)
;
    }
    outlet
    {
        type            calculated;
        value           nonuniform List<vector> 
20
(
(0.100061 -3.31801e-05 0)
(0.100051 -5.46051e-06 0)
(0.100046 -4.22134e-05 0)
(0.100039 -2.75842e-05 0)
(0.100033 -4.64403e-05 0)
(0.100027 -4.14953e-05 0)
(0.100021 -4.92197e-05 0)
(0.100015 -4.90798e-05 0)
(0.100009 -5.12478e-05 0)
(0.100003 -5.17443e-05 0)
(0.099997 -5.17436e-05 0)
(0.0999911 -5.12417e-05 0)
(0.0999852 -4.90787e-05 0)
(0.0999792 -4.92058e-05 0)
(0.0999731 -4.14935e-05 0)
(0.099967 -4.6424e-05 0)
(0.0999611 -2.75781e-05 0)
(0.0999539 -4.2206e-05 0)
(0.0999495 -5.4484e-06 0)
(0.0999394 -3.31931e-05 0)
)
;
    }
    frontAndBack
    {
        type            empty;
    }
}


// ************************************************************************* //
