/*--------------------------------*- C++ -*----------------------------------*\
  =========                 |
  \\      /  F ield         | OpenFOAM: The Open Source CFD Toolbox
   \\    /   O peration     | Website:  https://openfoam.org
    \\  /    A nd           | Version:  7
     \\/     M anipulation  |
\*---------------------------------------------------------------------------*/
FoamFile
{
    version     2.0;
    format      ascii;
    class       volScalarField;
    location    "150";
    object      epsilon;
}
// * * * * * * * * * * * * * * * * * * * * * * * * * * * * * * * * * * * * * //

dimensions      [0 2 -3 0 0 0 0];

internalField   nonuniform List<scalar> 
96800
(
0.000309493
0.000309399
0.000308688
0.000308028
0.000307561
0.00030732
0.000307234
0.000307141
0.000306967
0.000306703
0.000306402
0.000306171
0.000306125
0.000306319
0.000306825
0.000307577
0.00030856
0.000309738
0.000311161
0.000312887
0.000314974
0.00031787
0.000310617
0.000311547
0.000310851
0.000310057
0.0003094
0.000309014
0.000308817
0.000308656
0.000308451
0.00030818
0.000307892
0.000307686
0.000307643
0.000307841
0.000308308
0.000309044
0.000310004
0.000311169
0.000312589
0.000314285
0.000316136
0.000317709
0.000311948
0.000313042
0.000312172
0.000310969
0.000309876
0.000309107
0.000308643
0.000308342
0.000308083
0.000307822
0.000307577
0.000307417
0.00030741
0.000307598
0.000308022
0.000308683
0.00030956
0.000310669
0.000312069
0.000313722
0.000315318
0.000316158
0.00031353
0.000314549
0.000313328
0.000311607
0.00030998
0.000308763
0.00030799
0.000307528
0.000307221
0.000306985
0.000306808
0.000306724
0.000306768
0.000306961
0.000307327
0.000307876
0.000308629
0.000309651
0.000311032
0.000312701
0.000314252
0.000314947
0.000314856
0.000315741
0.00031414
0.000311919
0.000309798
0.000308188
0.000307156
0.000306567
0.000306238
0.000306051
0.00030596
0.00030596
0.000306065
0.000306281
0.000306601
0.000307037
0.000307651
0.000308572
0.000309941
0.000311674
0.000313306
0.000314048
0.000315781
0.000316535
0.000314597
0.000311961
0.000309454
0.000307559
0.00030636
0.000305708
0.000305402
0.000305293
0.00030529
0.000305377
0.000305559
0.000305812
0.000306108
0.000306454
0.000306946
0.000307783
0.000309162
0.000310999
0.000312783
0.000313634
0.000316416
0.00031705
0.000314825
0.000311857
0.000309065
0.000306984
0.0003057
0.000305049
0.000304812
0.000304801
0.000304897
0.000305084
0.000305342
0.000305629
0.000305912
0.000306194
0.000306607
0.00030741
0.000308842
0.00031083
0.000312809
0.000313803
0.000316966
0.000317488
0.000315008
0.000311767
0.00030875
0.000306541
0.000305221
0.000304608
0.000304468
0.000304566
0.000304785
0.00030508
0.000305398
0.000305694
0.000305941
0.000306167
0.000306538
0.000307367
0.000308908
0.00031109
0.000313295
0.000314456
0.00031759
0.000318011
0.000315297
0.000311804
0.000308598
0.00030629
0.000304957
0.000304399
0.000304351
0.000304563
0.000304909
0.000305299
0.000305651
0.000305912
0.000306075
0.000306219
0.000306553
0.000307432
0.000309137
0.000311567
0.000314031
0.000315373
0.000318342
0.000318677
0.000315751
0.000312024
0.000308651
0.000306263
0.00030493
0.00030442
0.000304444
0.000304754
0.000305195
0.000305642
0.000305987
0.000306173
0.000306209
0.000306231
0.000306512
0.000307441
0.000309324
0.000312022
0.000314761
0.000316284
0.000319209
0.000319474
0.000316369
0.000312451
0.000308944
0.000306495
0.000305161
0.00030468
0.000304737
0.000305085
0.000305557
0.000306
0.000306294
0.000306373
0.000306245
0.000306136
0.000306372
0.000307354
0.000309407
0.00031235
0.000315351
0.000317055
0.000320178
0.000320387
0.000317143
0.000313082
0.000309476
0.000306983
0.000305641
0.00030516
0.000305201
0.000305505
0.000305918
0.000306285
0.000306494
0.000306448
0.000306189
0.00030599
0.000306216
0.000307268
0.000309474
0.000312639
0.000315881
0.000317767
0.000321284
0.000321447
0.000318093
0.000313914
0.000310218
0.00030768
0.000306314
0.000305798
0.000305768
0.000305956
0.000306226
0.000306457
0.000306555
0.000306404
0.000306095
0.0003059
0.000306167
0.000307317
0.000309683
0.000313077
0.000316562
0.000318621
0.000322623
0.000322743
0.000319277
0.00031496
0.000311143
0.000308521
0.000307088
0.000306483
0.00030634
0.00030638
0.000306469
0.000306539
0.000306513
0.000306326
0.000306055
0.000305943
0.000306311
0.000307613
0.000310193
0.000313849
0.000317597
0.000319836
0.00032429
0.000324356
0.000320737
0.000316222
0.000312214
0.000309431
0.000307861
0.00030712
0.000306822
0.000306699
0.000306623
0.000306566
0.00030649
0.000306336
0.000306162
0.000306184
0.000306718
0.000308242
0.000311088
0.000315051
0.000319098
0.000321544
0.000326301
0.000326293
0.000322458
0.000317664
0.000313373
0.000310345
0.000308578
0.000307682
0.000307233
0.00030696
0.000306774
0.000306669
0.000306613
0.000306534
0.000306488
0.000306658
0.000307399
0.000309177
0.000312336
0.000316663
0.000321063
0.000323744
0.000328563
0.000328457
0.00032436
0.000319225
0.000314584
0.000311263
0.000309285
0.00030825
0.00030771
0.000307371
0.000307148
0.000307047
0.000307019
0.000307007
0.000307063
0.000307376
0.000308313
0.000310343
0.000313836
0.000318569
0.00032337
0.000326313
0.000331017
0.000330798
0.00032642
0.000320929
0.000315923
0.000312307
0.000310146
0.000309022
0.000308463
0.000308136
0.000307925
0.00030783
0.000307816
0.000307829
0.000307933
0.000308346
0.000309425
0.000311664
0.000315462
0.000320592
0.000325817
0.000329072
0.000333901
0.000333568
0.000328903
0.000323038
0.00031766
0.000313758
0.000311442
0.000310274
0.000309742
0.000309456
0.000309243
0.000309117
0.000309084
0.000309093
0.000309199
0.000309623
0.000310747
0.000313099
0.000317117
0.000322583
0.000328227
0.000331848
0.000337919
0.000337455
0.000332437
0.000326102
0.000320268
0.000316022
0.000313509
0.000312273
0.000311746
0.000311473
0.000311224
0.000310997
0.000310872
0.000310836
0.000310897
0.000311237
0.000312303
0.000314666
0.000318803
0.000324516
0.000330533
0.000334499
0.000344119
0.00034344
0.000337892
0.000330868
0.000324366
0.000319578
0.000316685
0.000315236
0.000314604
0.000314272
0.00031395
0.00031359
0.000313262
0.000313055
0.000313016
0.000313233
0.000314151
0.000316446
0.000320633
0.000326531
0.000332832
0.000337036
0.000353585
0.000352589
0.000346248
0.000338179
0.000330624
0.000324937
0.000321355
0.000319426
0.000318486
0.000317964
0.000317506
0.000316984
0.000316426
0.000315933
0.000315657
0.000315721
0.000316444
0.000318612
0.000322815
0.000328882
0.000335396
0.000339747
0.000367402
0.000365981
0.000358521
0.000348954
0.000339807
0.00033272
0.000328039
0.000325282
0.000323734
0.000322797
0.000322074
0.000321327
0.000320513
0.000319727
0.000319123
0.000318949
0.000319464
0.000321457
0.000325634
0.000331847
0.000338597
0.000343131
0.00038688
0.000384863
0.000375876
0.000364273
0.00035289
0.000343751
0.000337415
0.000333385
0.000330875
0.000329251
0.00032807
0.000326976
0.000325835
0.000324721
0.000323772
0.000323285
0.000323592
0.000325372
0.000329478
0.000335814
0.000342852
0.000347674
0.000413816
0.000411048
0.000400086
0.00038571
0.000371227
0.000359171
0.000350433
0.000344551
0.00034066
0.000338043
0.000336153
0.000334514
0.000332908
0.000331378
0.000330027
0.00032916
0.000329242
0.000330759
0.00033475
0.000341221
0.0003486
0.000353777
0.000451446
0.000447766
0.000434276
0.00041608
0.000397215
0.000380973
0.000368747
0.000360168
0.000354262
0.000350179
0.000347194
0.000344692
0.000342388
0.000340262
0.000338382
0.000337055
0.000336771
0.000337973
0.000341798
0.000348423
0.000356212
0.000361801
0.000506923
0.000501864
0.000484856
0.000461216
0.000435937
0.000413373
0.000395708
0.000382867
0.000373746
0.000367271
0.000362486
0.000358577
0.000355158
0.000352114
0.000349461
0.000347477
0.00034664
0.000347441
0.000351026
0.000357767
0.000365971
0.00037204
0.000595355
0.000587757
0.000565364
0.000533533
0.000498243
0.000465342
0.000438336
0.000417888
0.000402962
0.000392184
0.00038419
0.000377854
0.000372573
0.000368034
0.000364172
0.000361181
0.000359456
0.000359714
0.000362895
0.000369658
0.000378258
0.00038493
0.000744775
0.000732851
0.000702185
0.000657525
0.000605855
0.000555099
0.000510983
0.000475898
0.000449557
0.000430378
0.000416275
0.000405456
0.000396848
0.000389755
0.000383916
0.000379311
0.000376228
0.000375534
0.000378042
0.000384705
0.000393753
0.000401154
0.00099993
0.000981363
0.000938356
0.000873851
0.000796165
0.000715769
0.000641313
0.000578375
0.00052914
0.000492691
0.000466165
0.000446573
0.000431725
0.000420077
0.00041081
0.000403516
0.000398295
0.000395983
0.000397487
0.00040382
0.000413364
0.000421648
0.00142368
0.00139512
0.0013332
0.00123842
0.00112195
0.000997285
0.000875331
0.000764823
0.000672382
0.00060083
0.000548382
0.000510796
0.000483724
0.000463634
0.00044825
0.000436356
0.000427643
0.000422713
0.00042271
0.00042828
0.000438313
0.000447864
0.00210342
0.00205833
0.00196533
0.00182368
0.00164988
0.00146227
0.00127371
0.00109387
0.000931923
0.000796447
0.000692043
0.000616915
0.000564696
0.000528119
0.000501579
0.000481734
0.000467211
0.000458106
0.000455514
0.000459818
0.000470364
0.000481695
0.00316754
0.00309431
0.00295023
0.00273595
0.00247574
0.00219565
0.00191261
0.00163737
0.00137886
0.00114659
0.000951631
0.000802486
0.000697871
0.000627522
0.000579622
0.000545693
0.000521411
0.000505479
0.000498516
0.000500878
0.000511868
0.000525445
0.00480773
0.00469001
0.00446681
0.00414251
0.00375241
0.00333382
0.00291062
0.00249705
0.00210316
0.00173747
0.00141024
0.00113648
0.000930073
0.000789691
0.000698475
0.000638132
0.000597035
0.00056988
0.000555661
0.000554776
0.000565714
0.00058216
0.00731334
0.00713059
0.0067919
0.00630547
0.00572345
0.00509912
0.00446625
0.00384459
0.00324825
0.00268845
0.00217516
0.001721
0.00134626
0.00107085
0.000890303
0.0007773
0.000705375
0.000659127
0.000632883
0.000626016
0.00063601
0.000656001
0.0111332
0.0108582
0.0103575
0.00963852
0.00877835
0.00785226
0.00690663
0.00596922
0.00506193
0.00420353
0.00340971
0.00269402
0.00207288
0.00157311
0.00121951
0.000998629
0.000866323
0.000785686
0.000738923
0.000721141
0.000728651
0.000752923
0.0169708
0.0165663
0.0158484
0.0148056
0.0135496
0.0121847
0.010772
0.00935203
0.00796159
0.00663377
0.00539707
0.00427492
0.0032857
0.00244963
0.00180224
0.00137015
0.0011157
0.000969872
0.000887313
0.000850424
0.000852347
0.000881257
0.0259482
0.0253737
0.0243894
0.0229115
0.0210975
0.019091
0.0169731
0.0148061
0.0126546
0.0105771
0.00862632
0.00684653
0.00527045
0.00391993
0.00281994
0.00201697
0.00152086
0.00124691
0.00109996
0.00103071
0.00102123
0.00105267
0.0398509
0.0390812
0.037823
0.0357927
0.0331999
0.0302469
0.0270506
0.0237135
0.0203474
0.0170569
0.013938
0.0110747
0.00853116
0.00634796
0.00454432
0.00314809
0.00220853
0.0016805
0.00141194
0.00128678
0.00125585
0.00128488
0.0615158
0.0605775
0.0591577
0.0565014
0.0528567
0.0485155
0.0436589
0.0384671
0.0331392
0.0278592
0.0228025
0.0181302
0.0139666
0.0103896
0.00743161
0.00509479
0.00340763
0.00239192
0.00188291
0.00165535
0.00158578
0.00160619
0.0953142
0.0943888
0.0932388
0.0900637
0.0850958
0.078759
0.0713278
0.0631559
0.0546212
0.046047
0.0377551
0.0300482
0.0231534
0.017215
0.0123017
0.00840942
0.00550265
0.00360867
0.00262269
0.00219587
0.00205587
0.00206077
0.147916
0.147584
0.147831
0.144712
0.138252
0.129054
0.117565
0.104561
0.090771
0.0767497
0.0630732
0.0502804
0.0387798
0.0288446
0.0206035
0.0140647
0.00913144
0.00573416
0.00383458
0.00301171
0.00273818
0.00271599
0.229449
0.23107
0.235458
0.23359
0.225671
0.212285
0.194381
0.173622
0.151298
0.128324
0.10571
0.0844028
0.0651766
0.0485542
0.0347339
0.0237244
0.0153767
0.00945885
0.00588662
0.00428091
0.00374918
0.00367585
0.354956
0.361207
0.375
0.376951
0.367994
0.348581
0.320772
0.287636
0.251409
0.213716
0.176313
0.1409
0.108951
0.0813756
0.0584244
0.0400672
0.0260535
0.0159554
0.00945402
0.00631924
0.00527694
0.00510064
0.546233
0.562095
0.594425
0.606021
0.596848
0.56892
0.525447
0.471987
0.412954
0.351436
0.290293
0.232432
0.180346
0.135348
0.0977332
0.0674658
0.0441565
0.0271225
0.0156997
0.00970989
0.00763955
0.00724509
0.833641
0.868019
0.934985
0.966796
0.958562
0.916689
0.846996
0.760194
0.664798
0.566153
0.468518
0.37662
0.294184
0.222664
0.162277
0.113085
0.0747273
0.0462065
0.0265087
0.0154207
0.0113557
0.0105079
1.25908
1.32745
1.45577
1.52286
1.51337
1.44533
1.33331
1.19454
1.04363
0.889626
0.738633
0.597534
0.470939
0.360084
0.265278
0.186872
0.124915
0.0782342
0.045064
0.0250864
0.017241
0.0155216
1.87993
2.00517
2.2311
2.34763
2.32892
2.21602
2.0396
1.82369
1.59278
1.36158
1.13736
0.92829
0.739169
0.570999
0.425259
0.30319
0.205162
0.130248
0.0761456
0.0415678
0.0266736
0.0231872
2.7699
2.9812
3.34538
3.52493
3.48652
3.30327
3.03259
2.70968
2.37082
2.03581
1.7121
1.40958
1.13382
0.885663
0.668376
0.484389
0.333743
0.215214
0.127662
0.0696338
0.0420715
0.0348227
4.01347
4.3464
4.89272
5.15831
5.09212
4.80515
4.40439
3.94252
3.46338
2.99021
2.5316
2.10074
1.70536
1.3476
1.03262
0.762554
0.536912
0.354317
0.214072
0.11761
0.0677315
0.0527653
5.7069
6.20563
6.98514
7.37076
7.27109
6.83665
6.2651
5.63357
4.98337
4.33604
3.69987
3.09302
2.53
2.01938
1.56926
1.18021
0.848333
0.574184
0.356873
0.198848
0.110481
0.0812605
7.96129
8.68238
9.74658
10.2633
10.1143
9.50203
8.74436
7.94325
7.11074
6.25122
5.37617
4.52196
3.72139
2.99276
2.34678
1.78622
1.30658
0.905143
0.581001
0.334186
0.182443
0.126673
10.8997
11.9141
13.2921
13.9226
13.76
13.066
12.2171
11.3073
10.2912
9.15729
7.94452
6.72814
5.56623
4.48894
3.5191
2.6762
1.96774
1.38597
0.915161
0.549072
0.303827
0.199024
14.6414
16.0424
17.8068
18.6996
18.7744
18.3043
17.5816
16.6457
15.4046
13.8697
12.1405
10.3504
8.5958
6.93204
5.40822
4.07632
2.97208
2.09639
1.41018
0.878079
0.501578
0.316793
19.3892
21.3198
23.7662
25.4165
26.329
26.5093
26.2036
25.3055
23.726
21.5617
18.9884
16.2305
13.4818
10.8633
8.46573
6.37002
4.6197
3.22432
2.16737
1.38529
0.818228
0.507699
25.6431
28.369
32.1299
35.3654
37.9731
39.5918
39.9378
39.0938
36.9764
33.8112
29.8837
25.5668
21.1904
17.0067
13.209
9.92801
7.22595
5.06397
3.38751
2.17888
1.32282
0.808704
34.3763
38.3902
44.5267
50.577
56.0937
59.9619
61.2706
60.2741
57.2277
52.475
46.4996
39.878
33.0829
26.5146
20.5327
15.3626
11.1208
7.82458
5.31054
3.46367
2.1475
1.2911
47.3118
53.4188
63.5688
74.1469
83.9528
90.686
92.9533
91.4977
86.8831
79.7283
70.8092
60.9522
50.8281
40.9679
31.8541
23.8647
17.2019
11.9703
8.13115
5.45673
3.51121
2.12265
67.4819
76.8344
93.2379
110.349
125.683
135.619
138.697
136.214
128.884
117.958
104.741
90.3921
75.7898
61.5758
48.2947
36.4617
26.466
18.3978
12.3653
8.41648
5.61269
3.65506
100.029
114.161
139.565
165.294
187.265
200.507
203.545
198.417
186.054
169.063
149.6
129.228
108.932
89.332
70.8984
54.1511
39.6824
27.814
18.7042
12.778
8.67921
6.41024
153.264
174.152
211.806
248.16
277.404
292.605
292.804
281.189
260.207
234.007
205.737
177.516
150.4
124.803
100.859
78.7363
58.8194
41.7204
28.2092
19.2515
13.3495
11.1556
240.709
270.557
323.886
371.524
405.997
418.271
410.303
385.975
351.471
312.201
272.228
234.14
198.948
166.764
137.33
110.269
85.3087
62.499
43.0874
29.4881
21.261
19.9757
384.955
424.567
494.328
548.441
579.887
580.425
554.555
509.553
455.367
398.887
344.652
295.196
251.265
212.522
178.105
147.11
118.643
91.6471
66.7326
46.9925
37.2272
39.212
625.312
668.616
742.947
784.984
794.786
769.819
713.707
639.477
559.832
482.865
413.158
352.639
301.289
257.935
220.57
187.587
158.016
130.179
103.734
78.8026
75.175
86.178
1026.6
1051.01
1079.39
1062.91
1025.97
958.412
863.042
754.18
646.974
550.024
466.931
398.06
342.117
297.138
260.174
228.798
202.135
180.117
163.658
145.019
165.728
214.108
1650.94
1635.96
1457.77
1311.39
1209.13
1097.36
963.583
823.512
694.772
584.853
494.514
422.139
365.398
321.755
288.394
262.871
245.069
239.97
255.242
280.166
356.499
511.878
2741.23
2931.33
2191.77
1689.31
1358.15
1157.66
1049.69
996.142
970.437
954.965
941.097
927.177
913.052
893.789
862.443
815.865
756.845
699.068
657.678
633.53
619.075
606.494
594.245
584.251
577.247
572.505
564.478
550.412
532.046
512.579
497.43
487.316
480.226
478.485
486.439
506.642
531.636
555.573
575.979
591.773
604.238
616.153
629.251
644.001
661.434
682.6
705.105
721.541
723.629
714.086
694.359
669.848
641.398
612.046
586.289
564.582
547.723
536.797
530.313
525.245
516.895
501.24
480.618
462.602
450.067
442.487
437.935
436.104
438.31
443.331
452.884
467.792
485.877
502.856
514.569
519.576
520.138
520.856
524.35
530.74
538.798
546.504
555.635
572.851
602.426
642.701
688.048
729.595
757.686
767.191
757.163
715.612
666.525
637.585
630.738
634.375
638.156
636.179
626.168
609.555
591.045
576.646
565.205
555.654
554.209
568.98
613.797
703.08
870.976
1235.04
2013.05
1891.22
1563.46
1379.83
1253.85
1125.52
976.766
824.349
688.373
575.923
485.569
414.553
360.59
321.551
294.352
277.485
272.771
290.111
364.255
472.743
639.42
929.91
1558.59
1117.22
966.182
942.577
976.858
1008.04
998.91
951.255
873.955
787.734
713.312
660.437
626.334
607.885
600.444
598.379
596.993
589.188
570.765
548.677
526.486
505.643
492.517
495.053
516.535
552.475
591.722
624.89
644.518
647.781
639.248
619.346
592.746
565.269
542.762
528.176
526.134
537.587
560.311
586.006
604.848
609.511
599.838
574.062
540.318
509.827
491.509
487.994
497.418
512.852
524.752
530.709
532.737
532.844
530.797
526.116
521.096
516.809
513.074
509.184
504.87
500.161
495.054
488.223
479.308
469.027
458.056
448.113
441.839
440.678
444.195
453.354
467.204
481.854
494.957
505.611
512.304
513.751
510.644
501.119
488.828
477.465
469.581
466.677
468.585
473.427
478.678
481.651
482.448
484.292
491.926
509.486
534.52
564.894
597.577
627.943
654.19
677.852
698.87
715.782
727.534
731.862
729.631
719.855
704.879
696.738
738.364
921.03
1315.62
1953.24
262.164
1674.06
1796.16
1560.61
1338.87
1190.21
1101.23
1051.89
1025.75
1008.51
991.102
973.997
958.897
939.827
904.103
849.676
783.549
725.378
691
673.779
661.517
647.288
632.103
621.794
616.216
611.812
602.989
587.408
566.92
544.472
527.349
515.415
506.188
503.372
510.891
533.091
559.758
585.79
609.704
630.054
648.094
665.705
682.835
699.323
717.127
738.522
761.053
776.812
773.812
757.632
736.1
710.123
676.873
642.281
612.622
587.02
566.494
553.23
545.707
538.797
528.418
511.973
489.494
471.907
462.493
458.949
456.375
457.404
462.508
468.798
479.201
495.94
514.477
531.36
541.99
545.342
544.722
544.902
548.336
554.034
560.618
566.139
572.946
588.261
620.315
662.221
710.687
756.13
788.061
793.641
773.912
723.502
672.177
650.275
653.243
662.691
668.722
666.259
656.12
639.067
619.014
602.729
587.189
571.571
563.824
574.26
618.909
706.142
858.188
1093.07
1203.3
1222.55
1219.87
1195.63
1136.4
1030.81
890.16
743.917
615.401
511.815
430.573
368.027
321.859
290.829
273.279
266.585
270.706
299.517
391.513
528.557
641.03
785.044
1077.23
1042.34
1005.81
1002.23
1041.77
1078.45
1066.16
1001.71
910.955
818.48
741.181
686.845
653.561
636.318
628.268
625.932
624.041
615.283
597.485
577.083
555.366
532.294
518.564
522.244
546.102
583.143
622.525
656.974
679.062
682.424
673.909
654.106
626.3
598.986
576.63
559.028
553.689
561.426
581.073
604.129
620.761
624.459
613.43
588.37
554.118
525.269
511.224
511.62
521.644
537.833
549.281
555.502
560.512
564.092
564.443
561.934
559.767
559.027
558.435
556.852
553.711
547.926
540.026
529.54
516.332
502.506
488.249
475.51
468.614
467.081
469.653
478.39
493.664
509.065
522.377
534.623
545.013
547.213
543.12
534.275
522.42
510.163
501.264
498.467
499.861
504.583
511.078
515.747
517.596
518.941
526.712
545.366
569.614
598.28
631.142
662.564
690.822
717.635
740.628
758.452
771.338
777.879
776.587
767.186
748.345
739.073
781.573
967.516
1361.41
1886.97
5.73501
326.195
896.946
1036.65
1013.07
955.501
902.367
860.919
829.983
805.862
783.542
763.772
750.597
739.872
720.824
686.327
637.143
587.538
551.805
529.355
517.032
508.407
499.773
495.882
496.029
496.709
493.389
485.498
472.4
454.993
439.425
425.438
411.162
400.496
398.379
408.174
426.914
449.652
473.51
495.493
516.451
537.06
555.063
568.552
579.736
592.296
606.753
620.369
621.031
609.98
594.377
576.189
549.259
516.901
488.475
464.272
442.984
427.845
418.876
413.047
406.29
394.207
377.069
362.015
352.724
349.35
348.479
351.532
357.707
362.256
368.207
378.551
391.318
404.355
415.093
421.737
423.777
424.562
426.58
428.649
430.794
430.986
429.963
433.018
446.576
470.22
503.017
540.875
577.761
601.968
598.327
563.122
519.382
496.429
494.711
502.371
511.433
515.95
513.01
500.687
482.282
464.443
446.978
427.844
410.348
406.936
424.998
479.238
589.435
738.496
853.866
902.275
958.467
981.903
948.689
852.905
725.886
598.698
490.186
404.933
340.046
291.569
256.871
234.801
225.155
226.507
239.007
273.204
356.818
499.774
614.099
675.742
765.668
803.041
798.092
805.741
832.815
870.03
876.516
839.434
771.344
697.077
629.106
573.476
532.678
506.896
492.759
489.097
492.175
489.714
475.835
456.638
437.246
417.931
405.591
403.889
412.325
430.945
456.299
485.259
511.039
527.266
531.695
525.629
509.445
490.031
470.589
449.631
433.883
428.425
431.667
442.565
455.885
466.201
467.44
457.251
436.694
413.977
398.239
391.388
391.791
400.676
412.527
423.744
434.255
443.912
451.062
454.94
457.263
460.548
464.723
466.49
464.96
459.323
450.165
437.931
423.383
409.003
394.918
381.304
372
367.376
365.443
367.895
376.59
386.851
396.482
406.831
419.065
428.575
431.231
428.92
422.039
411.615
401.381
395.42
394.002
396.986
404.344
412.707
417.556
417.287
417.718
423.513
433.39
447.786
469.275
493.764
517.191
539.777
559.862
575.275
588.687
602.34
614.476
621.82
621.313
623.411
661.678
809.185
1106.53
1460.26
0.0122312
15.3123
224.163
465.481
555.37
570.672
560.691
543.982
525.088
505.173
486.758
471.52
463.439
461.671
457.982
445.988
423.194
394.22
366.101
339.971
321.644
311.942
304.711
300.377
300.522
304.22
306.742
306.379
302.655
294.746
286.755
278.373
266.996
254.658
245.369
242.353
245.911
255.461
267.857
280.725
293.448
306.381
318.249
327.14
333.038
337.892
343.336
351.723
359.575
361.233
359.452
356.185
348.638
333.857
316.82
301.133
286.443
273.84
264.709
258.837
254
247.421
237.753
227.221
218.084
210.975
206.816
204.805
204.423
205.853
208.014
211.667
216.849
223.616
231.417
239.386
245.471
249.67
252.868
255.102
255.549
254.837
252.244
249.08
248.136
252.595
263.529
283.359
316.419
353.878
373.355
367.495
344.188
320.901
308.657
304.219
303.203
303.814
303.152
298.657
288.56
276.678
265.422
254.111
242.048
233.751
241.492
294.763
416.124
597.319
778.496
857.141
869.957
835.543
755.065
647.034
533.835
432.62
350.327
287.081
240.346
206.854
183.683
169.903
166.466
171.326
186.391
215.2
274.559
384.056
509.727
591.584
646.138
645.526
626.047
602.493
589.169
593.955
601.455
592.528
560.74
515.8
467.935
422.672
383.358
353.03
331.413
318.42
313.672
311.922
306.61
294.061
278.883
265.633
253.322
243.198
236.77
236.596
243.853
258.543
276.873
294.619
308.453
315.359
314.577
309.284
300.562
287.42
272.993
262.001
256.755
256.79
262.365
270.353
277.107
277.789
272.896
261.631
248.66
237.659
230.441
229.247
234.105
241.398
249.507
257.293
264.139
269.285
272.283
273.699
275.006
276.295
276.497
276.443
275.021
270.931
264.128
255.736
247.052
238.369
230.889
225.406
220.9
217.563
216.609
218.746
222.608
227.77
234.859
243.648
251.091
255.713
256.91
255.239
250.628
246.636
245.063
246.165
250.568
255.948
259.31
258.984
257.554
256.004
255.314
256.03
261.235
270.228
281.31
293.751
306.807
318.926
330.105
342.581
357.404
372.133
382.586
390.262
409.014
477.614
633.274
831.055
0.0100167
0.0311119
10.8872
105.34
220.86
279.004
300.425
304.281
300.302
290.061
277.672
266.614
259.565
257.768
257.729
255.725
248.26
238.931
229.451
213.267
196.412
187.34
178.897
169.348
162.475
159.14
158.611
159.5
159.326
157.203
154.336
151.647
147.64
141.655
134.826
129.213
126.142
126.053
128.245
131.469
135.345
140.175
145.737
150.999
155.51
159.636
163.886
169.362
176.275
181.919
184.216
185.232
185.616
183.775
179.136
174.445
169.72
163.997
157.825
152.745
148.712
144.652
139.179
133.371
127.972
121.595
115.413
111.098
108.88
107.769
106.494
105.614
105.745
107.043
109.641
113.285
116.843
119.886
122.622
125.203
127.201
128.176
127.755
126.547
124.567
122.973
124.398
133.236
151.759
177.298
199.007
205.437
198.366
183.566
173.659
169.298
165.415
162.593
160.858
158.883
154.33
147.734
141.304
135.488
130.751
133.478
153.056
207.127
312.761
466.839
620.621
676.899
656.135
591.158
508.78
423.72
346.253
281.083
228.471
187.688
157.839
137.039
123.183
115.251
114.23
119.493
132.195
152.775
188.439
252.289
346.048
443.425
516.073
541.541
543.153
529.722
503.191
470.633
450.118
441.506
421.865
388.04
350.658
315.11
282.751
254.353
230.84
212.854
201.294
194.669
189.409
181.386
169.877
156.861
142.792
129.66
119.155
113.463
113.845
120.486
130.914
142.174
152.31
159.475
162.671
162.873
162.023
159.365
154.931
149.338
144.314
141.093
140.149
141.574
144.47
145.537
144.394
141.605
138.348
134.509
128.603
123.527
122.485
123.292
124.949
126.825
128.931
131.175
132.976
134.076
134.881
136.15
138.168
140.361
142.157
143.382
143.266
141.213
137.434
133.082
128.708
124.75
120.96
117.429
114.613
113
113.2
115.325
118.842
124.275
130.672
137.3
143.745
148.726
151.358
153.752
156.717
159.259
160.748
161.213
160.679
158.691
155.925
153.12
150.03
146.432
143.351
141.99
142.561
145.566
150.169
155.773
161.796
168.744
177.783
188.023
197.185
204.107
211.179
229.577
285.339
378.136
0.00999398
0.00995955
0.0198157
2.32051
27.0278
82.8769
120.106
140.627
148.522
147.809
143.211
137.41
132.344
130.248
129.996
129.144
127.168
125.425
124.138
119.472
110.811
102.812
95.4403
88.059
81.7734
77.9098
77.0987
77.8883
78.9414
78.5516
77.2616
75.725
73.7557
71.1071
67.7996
64.2288
60.9658
58.3725
56.8288
56.1812
56.233
56.6209
57.6307
58.9908
60.6662
63.0756
66.4635
70.9007
75.607
79.6279
82.3482
83.8906
85.2533
86.18
85.8265
86.2113
87.734
88.7279
88.3061
86.8314
84.887
82.2126
78.8095
75.8629
73.7385
71.2668
68.211
65.1193
62.2287
59.6157
57.5579
55.9035
54.3729
52.982
51.9009
51.5659
51.7536
52.6053
53.5941
54.5167
55.3353
55.931
55.7066
55.2563
54.6053
54.4197
55.638
60.2199
68.131
79.4898
91.6414
98.4672
96.9484
91.1479
86.0111
84.9176
83.5229
82.0723
80.6239
79.0808
76.6864
73.6807
70.7992
68.4418
69.5964
82.3118
109.266
143.862
191.637
250.068
306.446
326.621
316.837
292.643
264.426
233.918
201.995
171.177
143.711
121.195
104.574
93.4704
86.6532
83.2453
83.1403
86.3574
94.043
105.953
123.928
153.82
203.413
272.557
345.885
394.673
416.657
420.799
412.799
385.134
355.307
343.735
328.176
301.165
270.652
241.228
214.973
191.57
170.813
153.336
140.092
130.785
122.8
114.155
103.535
91.8159
80.4054
69.0137
59.2855
54.2764
54.3755
58.3708
64.023
69.7093
74.4485
77.6767
79.4315
80.0999
80.1453
80.0836
79.8637
79.0487
77.397
75.1274
72.8197
71.0891
69.6792
67.6922
65.3979
64.0113
64.0315
64.7543
64.1293
61.5653
58.535
56.3322
55.3642
55.2445
55.326
55.9557
56.8271
57.7237
59.0024
60.4446
61.7839
63.2712
64.8495
66.5527
68.187
68.7476
67.642
65.4697
62.9728
60.641
58.6156
56.9166
55.5475
54.3812
53.9367
54.2097
55.3444
57.309
60.5461
65.4847
71.9972
78.7788
84.9099
91.0752
96.9533
101.042
102.912
103.301
102.729
101.026
98.5659
95.8856
93.1551
90.2136
87.0306
83.6295
80.5326
78.2226
76.7686
76.2993
76.5623
78.207
81.2882
85.6208
90.4194
94.8876
98.7085
103.109
114.672
144.692
0.00998597
0.00992372
0.00986202
0.0104216
0.128775
3.09446
14.1674
35.4572
49.8822
56.728
60.0362
61.0988
60.5879
60.0206
59.9736
59.8849
59.5355
58.937
58.6936
57.1461
53.7628
49.2996
45.3386
42.4397
40.2662
39.5619
40.1391
41.4293
42.2604
42.1044
41.2183
39.8826
38.2994
36.4723
34.379
32.1476
29.996
28.0457
26.3743
24.9967
23.9123
22.9682
21.8319
20.8704
20.7887
21.0944
22.1913
24.013
26.4846
29.1105
31.6445
33.76
35.1376
36.2037
37.2497
38.6781
40.8728
43.046
44.9916
45.992
45.7125
44.7213
43.5486
42.553
41.7926
41.2123
40.6374
40.3714
39.8638
38.8685
37.5364
35.9697
33.9153
31.2759
28.4013
26.0612
24.7553
24.2164
24.006
23.8205
23.6927
23.4475
22.8821
22.2189
21.7363
21.8424
22.8085
25.2846
29.3901
34.7344
39.8453
42.8736
42.8424
42.035
41.2104
41.317
41.3847
41.3169
41.0648
40.6785
39.7787
38.5982
37.3652
36.7512
39.4261
50.8261
71.326
94.569
113.466
127.368
138.473
146.881
155.1
161.666
162.182
155.302
140.809
122.875
105.442
91.4877
82.8377
78.496
76.4255
75.4439
75.022
75.1032
76.2079
79.7855
86.4337
97.9979
117.694
149.306
193.525
237.895
268.152
283.658
288.665
283.318
268.571
254.926
238.515
219.553
200.397
181.488
163.236
146.509
131.239
117.549
106.065
97.0928
88.8935
79.8546
69.9302
59.7837
49.9489
40.5425
33.4274
30.7313
31.5491
34.6512
38.0428
40.7769
42.4702
43.2098
43.2572
42.9152
42.3021
41.6045
40.9861
40.3575
39.4229
38.0373
36.2509
34.2055
31.9418
29.217
26.5109
24.9057
24.7348
24.8699
25.2084
25.2648
24.6793
23.6742
22.676
22.0027
21.5815
21.5129
21.781
22.7616
23.9125
25.07
25.9022
26.5422
27.2369
28.1139
29.0063
29.6503
29.8853
29.4765
28.8012
28.2228
27.7963
27.5097
27.2491
26.9196
26.5797
26.532
26.62
27.357
29.1757
32.1905
36.1135
40.5145
45.0249
49.1133
53.0998
57.2721
60.9907
63.5534
64.8287
65.0545
64.5359
63.2874
61.5698
59.5449
57.3984
55.0978
52.4881
49.6442
46.8776
44.4109
42.4214
41.2614
41.1446
41.3448
42.1308
43.1922
44.2878
45.1977
46.441
49.8545
0.00998314
0.00992
0.00983993
0.00976946
0.00970126
0.0106902
0.0580965
0.859223
6.28554
16.151
22.9745
27.0222
29.1074
30.0192
30.4765
30.8312
31.1625
31.634
31.9229
31.3297
29.9737
28.7436
28.0657
26.9617
25.862
25.5021
25.9754
26.7735
27.1169
26.9027
26.124
24.9525
23.6112
22.1933
20.67
19.1149
17.64
16.2882
15.1091
14.0969
13.1231
11.8346
10.1821
9.02842
8.81543
8.9062
9.26499
9.81937
10.646
11.6442
12.8691
14.3926
16.1173
17.8739
19.2997
20.6236
22.1674
23.4547
24.4772
25.2078
25.6267
25.9502
26.1338
26.1897
26.2855
26.382
26.2477
26.0581
25.8321
25.4811
24.8765
23.9786
22.6764
20.7769
18.1972
15.6132
13.8642
12.882
12.3475
11.9339
11.4824
10.9151
10.3366
9.86894
9.54474
9.57773
10.0505
10.9928
12.6209
15.1325
17.6382
19.0764
20.0185
21.5773
23.31
25.3292
25.994
25.8165
25.7017
25.7384
25.4932
24.8843
24.1645
23.9859
25.9878
30.9473