/*--------------------------------*- C++ -*----------------------------------*\
  =========                 |
  \\      /  F ield         | OpenFOAM: The Open Source CFD Toolbox
   \\    /   O peration     | Website:  https://openfoam.org
    \\  /    A nd           | Version:  7
     \\/     M anipulation  |
\*---------------------------------------------------------------------------*/
FoamFile
{
    version     2.0;
    format      ascii;
    class       volScalarField;
    location    "150";
    object      k;
}
// * * * * * * * * * * * * * * * * * * * * * * * * * * * * * * * * * * * * * //

dimensions      [0 2 -2 0 0 0 0];

internalField   nonuniform List<scalar> 
96800
(
0.000629623
0.000629395
0.000628545
0.000627746
0.000627173
0.000626881
0.000626773
0.00062665
0.000626427
0.000626097
0.000625728
0.000625451
0.000625398
0.00062565
0.000626275
0.000627208
0.000628403
0.00062981
0.000631469
0.000633418
0.000635631
0.000638308
0.000630744
0.00063133
0.000630419
0.000629422
0.000628622
0.000628155
0.000627914
0.000627714
0.000627458
0.000627126
0.000626776
0.000626523
0.000626473
0.000626725
0.000627313
0.00062822
0.000629381
0.000630769
0.000632433
0.000634381
0.000636437
0.000638079
0.000632286
0.000632958
0.000631754
0.000630233
0.000628893
0.000627963
0.000627402
0.000627033
0.000626713
0.000626393
0.000626094
0.000625899
0.000625892
0.000626134
0.000626665
0.000627474
0.000628532
0.000629858
0.000631523
0.000633488
0.000635408
0.000636515
0.000634096
0.000634638
0.000632971
0.000630805
0.000628815
0.000627348
0.000626417
0.000625856
0.000625478
0.000625185
0.000624965
0.000624863
0.000624923
0.000625172
0.000625629
0.000626298
0.000627203
0.000628428
0.000630092
0.000632127
0.000634088
0.000635141
0.000635593
0.00063596
0.00063382
0.000631046
0.000628464
0.000626529
0.000625292
0.000624581
0.000624177
0.000623939
0.000623823
0.000623827
0.000623965
0.000624242
0.000624637
0.000625164
0.000625898
0.000627004
0.000628663
0.000630801
0.000632901
0.000634052
0.000636605
0.000636806
0.00063426
0.00063099
0.000627957
0.00062569
0.00062426
0.000623478
0.000623101
0.000622959
0.000622955
0.000623068
0.000623302
0.000623618
0.000623976
0.000624386
0.00062497
0.000625976
0.000627651
0.000629922
0.000632216
0.000633516
0.000637256
0.000637311
0.000634428
0.00063077
0.00062741
0.000624933
0.000623412
0.000622639
0.000622352
0.000622335
0.000622459
0.000622696
0.000623017
0.000623366
0.000623697
0.000624021
0.000624505
0.00062547
0.000627212
0.000629665
0.000632197
0.000633662
0.000637796
0.000637719
0.000634541
0.000630567
0.00062695
0.000624336
0.000622787
0.000622072
0.000621912
0.000622045
0.000622325
0.000622689
0.000623073
0.000623419
0.000623696
0.000623946
0.000624376
0.000625371
0.000627244
0.000629932
0.000632735
0.000634401
0.000638423
0.000638226
0.000634778
0.00063052
0.00062669
0.00062397
0.000622421
0.000621785
0.000621753
0.00062204
0.000622479
0.000622951
0.000623363
0.000623652
0.00062382
0.000623966
0.00062435
0.000625406
0.000627476
0.000630457
0.000633566
0.000635449
0.000639206
0.000638907
0.000635217
0.000630699
0.000626687
0.000623886
0.000622349
0.000621782
0.000621849
0.000622264
0.000622818
0.000623353
0.000623743
0.000623927
0.000623935
0.000623931
0.000624252
0.000625368
0.000627652
0.000630952
0.000634387
0.000636487
0.00064013
0.000639747
0.000635854
0.000631125
0.000626972
0.000624113
0.000622583
0.000622056
0.000622171
0.000622638
0.000623229
0.000623754
0.000624073
0.000624118
0.000623933
0.000623777
0.000624047
0.000625223
0.000627705
0.0006313
0.000635049
0.000637367
0.000641174
0.000640724
0.000636675
0.000631791
0.000627537
0.00062464
0.000623107
0.000622581
0.000622673
0.00062309
0.00062361
0.000624042
0.000624251
0.000624152
0.000623817
0.000623561
0.000623816
0.000625082
0.000627753
0.00063162
0.00063566
0.000638193
0.000642371
0.000641865
0.000637696
0.000632689
0.000628346
0.000625408
0.000623851
0.00062328
0.000623277
0.000623545
0.000623894
0.00062416
0.000624235
0.000624031
0.000623647
0.000623397
0.000623712
0.000625119
0.000627998
0.000632142
0.000636474
0.000639213
0.000643823
0.000643266
0.000638976
0.000633825
0.00062936
0.000626339
0.000624709
0.00062403
0.000623876
0.000623948
0.00062407
0.000624147
0.000624089
0.000623855
0.000623528
0.000623394
0.000623863
0.000625475
0.000628624
0.000633083
0.000637723
0.000640673
0.000645635
0.000645013
0.000640555
0.000635193
0.000630527
0.000627336
0.000625556
0.000624721
0.000624381
0.000624244
0.000624153
0.000624068
0.000623957
0.000623774
0.000623579
0.000623632
0.000624339
0.000626236
0.000629711
0.000634535
0.000639522
0.000642708
0.000647822
0.000647108
0.000642409
0.00063674
0.000631768
0.000628315
0.000626322
0.000625314
0.000624805
0.000624485
0.00062424
0.000624079
0.000623995
0.00062391
0.000623885
0.000624158
0.000625143
0.000627359
0.00063121
0.000636454
0.000641842
0.000645295
0.000650256
0.000649422
0.000644425
0.000638378
0.000633027
0.000629262
0.00062705
0.000625895
0.000625282
0.000624878
0.000624571
0.000624395
0.000624351
0.000624355
0.000624485
0.000624979
0.000626222
0.000628747
0.000632987
0.000638688
0.000644519
0.000648262
0.000652807
0.000651838
0.000646527
0.000640095
0.000634362
0.000630301
0.000627913
0.000626677
0.000626047
0.000625652
0.000625351
0.000625184
0.000625167
0.000625222
0.000625451
0.000626091
0.00062752
0.000630297
0.000634883
0.00064102
0.00064731
0.00065139
0.000655622
0.000654525
0.000648915
0.000642108
0.000636024
0.000631715
0.000629213
0.000627963
0.000627381
0.000627045
0.000626772
0.000626593
0.00062656
0.000626612
0.000626852
0.000627524
0.000629026
0.000631944
0.000636778
0.000643277
0.000650013
0.000654479
0.000659314
0.000658081
0.000652141
0.000644919
0.000638461
0.000633904
0.000631293
0.000630043
0.000629513
0.000629233
0.000628965
0.000628718
0.00062859
0.000628572
0.000628724
0.000629303
0.000630758
0.000633707
0.00063868
0.000645448
0.000652576
0.000657405
0.000664822
0.000663379
0.000656979
0.000649194
0.000642234
0.000637308
0.00063447
0.000633126
0.000632575
0.000632301
0.000632006
0.000631651
0.000631324
0.000631114
0.000631113
0.000631501
0.000632796
0.000635692
0.000640742
0.000647723
0.000655156
0.000660234
0.000673026
0.000671289
0.00066423
0.000655625
0.000647891
0.000642345
0.00063906
0.00063742
0.000636689
0.000636308
0.000635935
0.000635451
0.000634898
0.000634394
0.000634123
0.000634284
0.000635352
0.000638136
0.000643241
0.000650434
0.000658111
0.000663353
0.000684639
0.000682525
0.000674569
0.000664831
0.00065595
0.000649451
0.000645446
0.000643266
0.000642124
0.00064145
0.00064089
0.000640232
0.000639454
0.000638671
0.000638073
0.000637968
0.000638786
0.000641414
0.000646543
0.000653942
0.000661903
0.000667355
0.000700275
0.000697653
0.000688511
0.000677302
0.000666894
0.000659066
0.000654036
0.000651063
0.000649291
0.000648141
0.00064726
0.000646346
0.000645306
0.000644246
0.000643344
0.000642959
0.000643543
0.000645987
0.000651106
0.000658697
0.000667001
0.000672774
0.000720375
0.000717154
0.000706534
0.000693412
0.000681036
0.000671504
0.000665171
0.000661218
0.000658683
0.00065695
0.000655624
0.000654344
0.000652969
0.000651597
0.000650379
0.0006497
0.000650059
0.000652292
0.000657366
0.000665162
0.000673857
0.00068001
0.000745372
0.000741498
0.000729059
0.000713445
0.000698538
0.000686921
0.000679118
0.000674149
0.000670843
0.000668492
0.000666626
0.000664848
0.000663032
0.000661259
0.000659667
0.00065864
0.000658734
0.000660687
0.000665674
0.000673689
0.000682827
0.0006894
0.000776885
0.000772066
0.00075715
0.000738165
0.000719895
0.000705625
0.000696136
0.000690232
0.000686312
0.000683408
0.000680961
0.000678571
0.000676171
0.000673855
0.000671766
0.000670289
0.000669979
0.000671575
0.000676423
0.000684615
0.000694189
0.000701239
0.000820445
0.000813839
0.000795113
0.000771081
0.000747596
0.000729096
0.000716971
0.000709853
0.000705478
0.000702275
0.000699369
0.000696348
0.000693243
0.000690192
0.000687414
0.000685286
0.000684371
0.000685489
0.000690067
0.000698364
0.00070836
0.000716009
0.000889584
0.000880011
0.000855534
0.000823305
0.000790385
0.000763174
0.000744753
0.00073429
0.000728818
0.000725537
0.000722573
0.000719134
0.000715306
0.000711345
0.000707639
0.000704573
0.00070274
0.000703173
0.000707243
0.000715584
0.00072609
0.000734472
0.00100834
0.000994652
0.000962475
0.000917908
0.000868947
0.000824406
0.000790628
0.000769537
0.00075881
0.000754036
0.000751109
0.000747752
0.000743496
0.000738617
0.000733718
0.000729337
0.000726223
0.00072564
0.000728928
0.000737207
0.000748334
0.000757627
0.00120624
0.00118743
0.00114587
0.00108547
0.0010147
0.000943726
0.000881593
0.000834959
0.000806194
0.000792187
0.00078635
0.000782846
0.000778753
0.000773374
0.000767208
0.000761127
0.000756255
0.000754172
0.000756439
0.000764443
0.000776282
0.000786879
0.00151082
0.00148512
0.0014315
0.00135202
0.00125592
0.00115389
0.00105508
0.000967971
0.000900571
0.000857475
0.000835804
0.000826766
0.00082192
0.000816587
0.000809598
0.000801717
0.000794627
0.000790472
0.000791349
0.000798809
0.000811513
0.000823897
0.00194943
0.00191381
0.00184336
0.00173964
0.00161342
0.00147656
0.00133801
0.0012051
0.00108584
0.000989805
0.000925042
0.000890936
0.000876625
0.000869444
0.000862089
0.000852859
0.000843393
0.00083662
0.000835608
0.000842231
0.000855943
0.000870509
0.00255573
0.00250658
0.00241309
0.00227746
0.00211292
0.00193359
0.00174942
0.00156714
0.00139282
0.00123399
0.00110178
0.00100889
0.00095854
0.000937226
0.000926565
0.000916235
0.00090479
0.00089515
0.000891606
0.000896988
0.000911714
0.000928985
0.00337407
0.003308
0.00318487
0.00300785
0.00279393
0.00256056
0.00231955
0.00207818
0.00184189
0.00161615
0.00140875
0.00123312
0.00110749
0.00103907
0.00100987
0.000994833
0.000981494
0.000969124
0.000962467
0.000966082
0.000981696
0.00100225
0.00446463
0.00437816
0.00421877
0.00399001
0.00371397
0.0034122
0.00309878
0.00278214
0.00246851
0.00216334
0.00187265
0.00160565
0.00137942
0.00121863
0.00113274
0.00109642
0.00107748
0.00106219
0.00105209
0.00105344
0.00106969
0.00109425
0.00590963
0.00579869
0.00559727
0.00530662
0.00495493
0.00456827
0.00416277
0.00374854
0.00333385
0.00292581
0.00253125
0.00215808
0.0018183
0.00153443
0.00133907
0.0012405
0.00120017
0.00117891
0.0011653
0.00116412
0.00118071
0.00121002
0.00782757
0.00768873
0.00744283
0.00708146
0.00663954
0.00614801
0.00562491
0.00508283
0.0045334
0.00398684
0.00345293
0.00294153
0.00246378
0.00203622
0.00169041
0.00146831
0.0013664
0.00132665
0.00130842
0.00130543
0.00132227
0.00135595
0.0103927
0.0102248
0.00993851
0.00950051
0.00895199
0.00832966
0.00765457
0.00694299
0.00621135
0.00547464
0.00474769
0.00404536
0.00338246
0.0027751
0.00224704
0.00184388
0.00161209
0.0015195
0.00148956
0.00148591
0.00150421
0.001541
0.0138635
0.0136699
0.0133584
0.0128446
0.0121731
0.0113873
0.010513
0.00957276
0.00859046
0.00758798
0.00658812
0.00561489
0.00469098
0.00383725
0.00307569
0.00244157
0.00200042
0.00178696
0.00172121
0.00171543
0.001738
0.00177842
0.0186005
0.0183963
0.0181
0.0175277
0.0167223
0.0157339
0.0145932
0.0133367
0.0120023
0.0106223
0.00923245
0.00787107
0.00657265
0.00536707
0.00428162
0.00334658
0.00261786
0.00218412
0.00202673
0.00200801
0.00203795
0.0020864
0.0250949
0.0249209
0.0247288
0.0241495
0.0232105
0.0219668
0.0204584
0.0187548
0.0169197
0.0150006
0.0130523
0.0111328
0.00929427
0.00758201
0.00603295
0.00468064
0.00356892
0.00279712
0.00244796
0.00238542
0.0024247
0.00248889
0.0340166
0.0339597
0.0340307
0.0335464
0.0324834
0.0309035
0.02888
0.0265459
0.024
0.0213098
0.0185578
0.015831
0.013213
0.0107756
0.00856626
0.00662424
0.00498963
0.00374541
0.00305541
0.00288126
0.00292699
0.0030177
0.0462549
0.0464649
0.0471046
0.046843
0.0456733
0.0436516
0.0409183
0.0376918
0.0341239
0.0303198
0.0264041
0.0225125
0.0187831
0.0153225
0.0121885
0.00942509
0.0070703
0.00518783
0.00396767
0.00355127
0.00358476
0.00371487
0.0629605
0.0636756
0.0653375
0.0655292
0.0643128
0.0617103
0.057962
0.0534198
0.0483554
0.0429523
0.037391
0.0318788
0.0266207
0.0217514
0.0173378
0.0134354
0.0100823
0.00732767
0.00535278
0.00449135
0.0044606
0.00463858
0.0855849
0.0871909
0.0905589
0.0916588
0.0903867
0.0868781
0.0815743
0.0750732
0.06786
0.0602298
0.0524266
0.0447548
0.0374841
0.03075
0.0246149
0.0191522
0.0144194
0.0104543
0.0074237
0.00582945
0.00563694
0.00586598
0.115966
0.11907
0.125139
0.127627
0.126054
0.12099
0.11337
0.104079
0.0938933
0.083274
0.0725452
0.0621076
0.0522544
0.043091
0.0346819
0.0271245
0.0205241
0.0149334
0.0104737
0.00775388
0.00721513
0.00750006
0.15641
0.161785
0.171681
0.175795
0.173311
0.165777
0.154872
0.14177
0.127667
0.11327
0.0989357
0.0850895
0.0719864
0.059691
0.0483266
0.0380419
0.0289653
0.0211958
0.0148628
0.0105552
0.00934501
0.00965255
0.209597
0.218053
0.232715
0.238446
0.234277
0.223099
0.207674
0.189642
0.170661
0.15162
0.132856
0.114803
0.0976881
0.0815343
0.066539
0.0529018
0.0407108
0.0300358
0.0211417
0.014657
0.0122788
0.0124559
0.278222
0.290561
0.310693
0.318115
0.311514
0.295179
0.273792
0.249688
0.224793
0.200084
0.175881
0.152656
0.130637
0.109855
0.0905557
0.0728862
0.0568722
0.0425413
0.030201
0.0206858
0.0164195
0.0161811
0.365071
0.382121
0.408294
0.417515
0.407526
0.384008
0.354953
0.323641
0.291928
0.260661
0.23004
0.200544
0.172508
0.146122
0.12167
0.0991811
0.0784828
0.0596781
0.0430651
0.0294436
0.0222716
0.021253
0.473162
0.495808
0.528033
0.537794
0.522611
0.489974
0.452129
0.413365
0.374655
0.336161
0.297954
0.260808
0.225425
0.19215
0.161224
0.132697
0.106358
0.0821802
0.0605257
0.0419456
0.0306592
0.028147
0.605645
0.634728
0.671489
0.67874
0.657296
0.61676
0.571962
0.527226
0.481829
0.435187
0.387757
0.340995
0.295976
0.253119
0.212829
0.175606
0.141674
0.110916
0.0832933
0.0590952
0.0427
0.0375274
0.765297
0.801694
0.841736
0.846641
0.82281
0.78031
0.733192
0.684337
0.631623
0.574626
0.514827
0.45458
0.395488
0.338302
0.283901
0.233538
0.188203
0.148169
0.112981
0.0820606
0.0595291
0.0505782
0.957068
1.00228
1.04916
1.05932
1.04246
1.00654
0.962497
0.910158
0.847572
0.775769
0.697393
0.616195
0.535438
0.457085
0.382866
0.314624
0.25326
0.199093
0.152693
0.113088
0.0828958
0.0686851
1.19353
1.25111
1.31491
1.34461
1.34722
1.32849
1.29196
1.23462
1.15726
1.06334
0.957147
0.844615
0.731032
0.620635
0.517184
0.42372
0.341573
0.269695
0.207501
0.155452
0.115346
0.0933188
1.49754
1.57485
1.67249
1.74081
1.78202
1.78738
1.75854
1.6902
1.58887
1.46159
1.31581
1.16023
1.00178
0.846636
0.701196
0.570339
0.456874
0.361441
0.281244
0.214258
0.161514
0.128027
1.90617
2.01503
2.17145
2.30229
2.39776
2.43073
2.40098
2.31
2.17025
1.99456
1.79476
1.58264
1.36722
1.1557
0.955426
0.773484
0.614605
0.481705
0.375465
0.292715
0.227606
0.182714
2.47877
2.63433
2.87958
3.0955
3.25193
3.30606
3.2642
3.13243
2.93166
2.6845
2.41003
2.12387
1.83689
1.55653
1.28952
1.04396
0.827727
0.644371
0.498601
0.394426
0.318716
0.277565
3.30443
3.52339
3.88646
4.20275
4.41883
4.48059
4.40325
4.19572
3.89594
3.54272
3.16597
2.78555
2.41243
2.05238
1.70942
1.38981
1.10319
0.85729
0.660498
0.526068
0.443429
0.432001
4.50345
4.80261
5.3079
5.72977
5.99151
6.02619
5.85802
5.5163
5.06607
4.56423
4.05222
3.55521
3.08362
2.63933
2.22067
1.82743
1.46402
1.14077
0.877395
0.700761
0.624708
0.6651
6.23274
6.62433
7.28567
7.79326
8.05
7.98581
7.63432
7.08024
6.4183
5.72176
5.04122
4.40546
3.82282
3.29038
2.80054
2.34508
1.91829
1.52112
1.18047
0.95166
0.912606
1.04943
8.69873
9.17069
9.95869
10.4667
10.6016
10.3137
9.66953
8.81205
7.87232
6.93881
6.0653
5.27791
4.58052
3.96406
3.41308
2.91235
2.44775
2.00597
1.60982
1.34941
1.4483
1.76363
12.1897
12.6535
13.4045
13.699
13.5148
12.8335
11.7788
10.5359
9.26749
8.07203
7.00106
6.07225
5.28033
4.60623
4.02138
3.50245
3.03422
2.59758
2.21807
2.05291
2.53703
3.10991
17.08
17.3029
17.5284
17.1853
16.4229
15.2057
13.6597
11.994
10.3924
8.95461
7.71946
6.68716
5.83846
5.14502
4.56766
4.0746
3.65361
3.30973
3.12508
3.34472
4.51116
5.65846
23.4999
23.2911
21.7332
20.1735
18.6829
16.9209
14.907
12.8703
11.0134
9.41925
8.09506
7.01901
6.16001
5.48413
4.9536
4.53591
4.23009
4.11175
4.36409
5.43388
7.45054
9.74061
22.7898
29.1976
28.8015
27.4241
25.3022
23.0829
21.151
19.5786
18.3335
17.3384
16.5291
15.8788
15.3475
14.8304
14.2204
13.4701
12.6202
11.8477
11.3357
11.0885
10.99
10.9189
10.8343
10.7535
10.6988
10.6672
10.6173
10.5229
10.3878
10.2424
10.1477
10.1133
10.1286
10.2181
10.4229
10.7217
11.0253
11.2732
11.4724
11.6444
11.816
12.0108
12.2229
12.4297
12.6307
12.8404
13.0337
13.1324
13.0915
12.9202
12.6749
12.4063
12.1223
11.8511
11.6307
11.4528
11.3126
11.2134
11.127
11.002
10.7774
10.4217
9.99039
9.61117
9.33724
9.16121
9.0502
8.98386
8.9769
9.03167
9.1917
9.47671
9.84077
10.1931
10.462
10.6324
10.7353
10.826
10.9322
11.0401
11.1296
11.1955
11.2906
11.5081
11.8787
12.3665
12.8785
13.2976
13.5305
13.559
13.3426
12.8139
12.2647
11.9959
11.9694
11.9965
11.9556
11.7732
11.4628
11.0728
10.7125
10.4838
10.4003
10.4593
10.7637
11.4632
12.6963
14.5823
17.2737
21.3924
27.4513
26.1648
23.3116
21.2756
19.4102
17.3623
15.1214
12.922
10.9734
9.34564
8.01928
6.9589
6.13351
5.5132
5.06236
4.75479
4.61121
4.75751
5.62132
7.52187
10.3698
13.7767
19.219
16.8979
16.7882
17.6113
18.5769
19.0236
18.7103
17.7243
16.3286
14.8582
13.6205
12.758
12.2219
11.9184
11.7371
11.5744
11.3724
11.054
10.6143
10.172
9.79093
9.51736
9.45238
9.65584
10.1398
10.7173
11.2245
11.5544
11.6545
11.5734
11.3209
10.9634
10.5855
10.2901
10.1579
10.2046
10.4371
10.7876
11.1627
11.4752
11.6473
11.6388
11.425
11.0457
10.6247
10.3278
10.264
10.4148
10.7088
10.983
11.1358
11.1746
11.1572
11.096
10.9826
10.8359
10.6991
10.5938
10.5236
10.4861
10.4759
10.4817
10.4781
10.4421
10.3509
10.2178
10.0599
9.91292
9.8249
9.80988
9.86635
10.0103
10.2123
10.423
10.6112
10.7694
10.874
10.8979
10.8386
10.6907
10.5099
10.3467
10.2413
10.1987
10.1978
10.2048
10.1982
10.1717
10.1224
10.0982
10.1697
10.3837
10.6936
11.0597
11.4461
11.8125
12.1519
12.485
12.8004
13.0643
13.2552
13.3316
13.2839
13.1063
12.8925
12.947
14.0655
17.3661
22.861
29.6368
3.02545
19.7177
25.066
25.6828
24.6432
23.0548
21.4074
19.9233
18.6814
17.6541
16.7844
16.0807
15.5262
14.9948
14.3522
13.5465
12.6487
11.8835
11.434
11.2356
11.1519
11.0652
10.9687
10.908
10.8903
10.8718
10.8054
10.6946
10.5441
10.3731
10.2591
10.2103
10.1989
10.2706
10.4624
10.7856
11.1128
11.3791
11.6015
11.8057
12.018
12.262
12.508
12.7288
12.9271
13.1318
13.3158
13.3933
13.295
13.0721
12.814
12.5346
12.2036
11.8835
11.6259
11.425
11.2586
11.1455
11.0529
10.9228
10.698
10.3484
9.90825
9.54374
9.30875
9.17446
9.08391
9.04921
9.06904
9.12823
9.2705
9.5497
9.90478
10.2506
10.5094
10.6587
10.7493
10.8363
10.9435
11.0451
11.1203
11.1601
11.2211
11.4179
11.7767
12.2703
12.8065
13.2624
13.515
13.5214
13.2306
12.6346
12.0725
11.8829
11.9587
12.0555
12.038
11.8724
11.5826
11.18
10.7989
10.5305
10.381
10.3399
10.5016
11.1221
12.34
14.2234
16.7938
19.7679
20.8495
20.9078
20.5458
19.7022
18.2882
16.3677
14.1705
12.0214
10.1501
8.61982
7.39465
6.42942
5.69497
5.17433
4.84369
4.6621
4.63656
4.91477
5.95684
7.8441
10.0587
12.2701
15.4175
15.9469
16.705
17.7151
18.7693
19.3396
19.0594
17.9634
16.4865
14.9889
13.7338
12.8479
12.3046
11.9997
11.8081
11.65
11.4593
11.1509
10.712
10.2874
9.90262
9.59348
9.51235
9.70398
10.2143
10.8118
11.3308
11.6896
11.7967
11.7126
11.4835
11.1146
10.7203
10.412
10.2613
10.2617
10.427
10.7455
11.0983
11.3817
11.548
11.5321
11.3295
10.9634
10.5384
10.2563
10.2344
10.412
10.7188
11.013
11.1633
11.2257
11.2456
11.2261
11.1505
11.0369
10.9328
10.8631
10.8211
10.8036
10.795
10.7825
10.7497
10.6731
10.5442
10.3835
10.1981
10.0236
9.93189
9.91343
9.95724
10.0906
10.292
10.5032
10.6837
10.8561
11.0016
11.0477
10.9886
10.8622
10.7044
10.5371
10.4236
10.3902
10.3903
10.403
10.4098
10.3942
10.3507
10.3177
10.3777
10.5698
10.8505
11.1763
11.5432
11.9002
12.2388
12.5826
12.9064
13.163
13.3653
13.4773
13.4544
13.2959
13.0562
13.0629
14.1061
17.3312
22.7226
28.5126
0.130142
5.95174
15.2846
19.0045
19.8506
19.4214
18.4017
17.2264
16.1036
15.1137
14.257
13.5594
13.0469
12.6344
12.1754
11.5755
10.8433
10.1466
9.64955
9.35292
9.2198
9.15991
9.1165
9.13517
9.22311
9.28462
9.27165
9.21105
9.09644
8.93981
8.81134
8.70211
8.59172
8.53269
8.5865
8.78746
9.05013
9.31857
9.57152
9.80216
10.0407
10.2976
10.5365
10.72
10.8602
10.9925
11.1226
11.2124
11.169
10.9932
10.7918
10.5763
10.2804
9.94461
9.67051
9.44938
9.25409
9.11645
9.02672
8.94007
8.79726
8.54352
8.20149
7.88913
7.66785
7.542
7.47352
7.46137
7.48592
7.5093
7.57957
7.74915
7.99799
8.27488
8.51995
8.69946
8.80852
8.89153
8.97222
9.03537
9.06609
9.05647
9.021
9.0542
9.22683
9.52967
9.93264
10.3705
10.7738
11.0162
10.9329
10.4755
9.95696
9.71643
9.73244
9.83952
9.89678
9.8624
9.697
9.3882
9.02547
8.70872
8.45583
8.25939
8.18837
8.42068
9.23488
10.8107
13.1329
15.554
17.033
17.3638
17.5072
17.1466
15.9794
14.2169
12.2132
10.2984
8.66116
7.34236
6.30524
5.50354
4.90777
4.50528
4.28568
4.21866
4.2931
4.65675
5.61353
7.34925
9.20495
10.6105
12.0717
13.0084
13.6797
14.5662
15.4995
16.242
16.3275
15.6828
14.5578
13.3195
12.1764
11.2439
10.5673
10.1321
9.86641
9.72666
9.63784
9.44105
9.08229
8.68379
8.3157
8.00769
7.86786
7.9338
8.23228
8.66014
9.09867
9.46913
9.70065
9.76646
9.69448
9.48169
9.1852
8.90266
8.68554
8.52701
8.48832
8.59926
8.79323
8.99849
9.17452
9.27118
9.23995
9.0499
8.75515
8.481
8.35574
8.38716
8.5506
8.7819
8.9894
9.14656
9.2656
9.34874
9.38007
9.36414
9.33159
9.31662
9.31797
9.32338
9.30993
9.26676
9.19728
9.08911
8.93942
8.77259
8.58977
8.40422
8.27692
8.21401
8.19248
8.23797
8.36334
8.50818
8.64645
8.80285
8.98944
9.13724
9.1899
9.16807
9.08253
8.95074
8.8279
8.76377
8.74974
8.77048
8.81962
8.85781
8.84881
8.79293
8.75274
8.78414
8.88286
9.04378
9.28759
9.56456
9.83791
10.1193
10.3888
10.6153
10.824
11.0247
11.1773
11.2336
11.1924
11.2497
12.007
14.5212
18.8075
23.1
0.00108441
0.398508
5.54738
10.5686
12.7976
13.3734
13.1514
12.5602
11.8301
11.0812
10.4044
9.84628
9.45602
9.20508
8.96308
8.6323
8.18763
7.69726
7.24866
6.85679
6.60289
6.49102
6.43164
6.43243
6.54151
6.67816
6.75082
6.75073
6.70062
6.59952
6.505
6.40733
6.27087
6.12714
6.03543
6.03595
6.13153
6.27806
6.44165
6.59695
6.75178
6.92032
7.08453
7.21415
7.30317
7.37129
7.43903
7.53424
7.60866
7.60349
7.55792
7.50199
7.39632
7.21109
7.01583
6.84922
6.69647
6.56621
6.47144
6.40209
6.31911
6.18029
5.97463
5.75062
5.54998
5.38586
5.2755
5.2033
5.15522
5.13749
5.1358
5.18716
5.30302
5.47463
5.66957
5.854
5.99272
6.09061
6.16657
6.22143
6.23218
6.21719
6.16511
6.10791
6.09004
6.15769
6.3289
6.63891
7.12895
7.63634
7.86506
7.75018
7.41195
7.09883
6.95692
6.92523
6.91909
6.89847
6.83228
6.67257
6.43549
6.18529
5.96467
5.7737
5.62166
5.63888
6.20511
7.9653
10.6104
13.4989
15.6191
16.0843
15.7363
14.7398
13.2671
11.5287
9.77994
8.20739
6.89008
5.83436
5.01584
4.40061
3.95669
3.66868
3.5336
3.53349
3.6616
3.98991
4.70948
6.02982
7.68576
9.06755
10.1292
10.5815
10.8107
11.0789
11.4851
11.9995
12.2876
12.1527
11.5794
10.7604
9.88359
9.05989
8.35671
7.81911
7.4338
7.18513
7.04712
6.92856
6.73136
6.43554
6.12412
5.86762
5.66415
5.54637
5.56441
5.75995
6.04998
6.34468
6.59042
6.75691
6.82431
6.80003
6.68807
6.5293
6.35847
6.17052
6.01276
5.93749
5.95733
6.05516
6.18286
6.30812
6.38462
6.36836
6.26226
6.08268
5.91206
5.80538
5.78068
5.86428
6.0146
6.16153
6.29368
6.40019
6.47628
6.50878
6.50755
6.49775
6.48598
6.4805
6.47763
6.47524
6.46355
6.42593
6.35223
6.24871
6.12898
5.99965
5.88609
5.80217
5.73221
5.68305
5.67377
5.71155
5.7763
5.87164
6.01008
6.18231
6.33485
6.44338
6.50091
6.49827
6.46218
6.43439
6.43758
6.46834
6.50487
6.531
6.5221
6.46846
6.38692
6.31399
6.25905
6.23699
6.27252
6.37221
6.50174
6.66034
6.83873
7.01508
7.18869
7.38511
7.60436
7.79656
7.90655
7.99429
8.33509
9.62212
12.2265
15.0985
0.00100126
0.00175371
0.390603
3.44943
6.3872
7.82801
8.30567
8.2866
8.00655
7.58447
7.13951
6.7458
6.45135
6.27605
6.15078
5.98604
5.75641
5.52052
5.29134
4.97798
4.68628
4.53792
4.42172
4.3293
4.32945
4.4162
4.49668
4.51693
4.50099
4.44275
4.36971
4.30149
4.21536
4.1035
3.98619
3.89677
3.85299
3.8549
3.89346
3.93596
3.98343
4.04952
4.13365
4.21883
4.29628
4.36962
4.44554
4.54231
4.65653
4.73989
4.77027
4.78266
4.7833
4.75738
4.69954
4.65021
4.60596
4.54559
4.47591
4.41549
4.36044
4.28965
4.18119
4.06202
3.94393
3.79961
3.65461
3.5409
3.46277
3.40339
3.34332
3.30301
3.30914
3.37899
3.48811
3.60048
3.6855
3.74323
3.78805
3.83046
3.85181
3.84962
3.84103
3.8134
3.77038
3.73483
3.77003
3.97141
4.34752
4.8043
5.14898
5.22332
5.08792
4.84329
4.69879
4.65003
4.60323
4.5643
4.53037
4.4721
4.35467
4.19699
4.04113
3.899
3.80442
3.94229
4.76434
6.53645
8.86226
11.2842
13.0288
13.2515
12.5501
11.3542
9.99378
8.6189
7.33757
6.20862
5.24875
4.46499
3.85887
3.41448
3.1036
2.90437
2.81291
2.83159
2.9533
3.19789
3.6545
4.48416
5.71126
7.06452
8.17946
8.77869
9.09833
9.23734
9.27532
9.29128
9.36754
9.38126
9.12609
8.5603
7.8972
7.24371
6.64077
6.11442
5.68127
5.34908
5.12568
4.97538
4.83134
4.62821
4.37213
4.10453
3.84185
3.63546
3.5557
3.62434
3.84904
4.08172
4.27716
4.42001
4.49788
4.50111
4.4668
4.38831
4.29544
4.18958
4.0808
3.98238
3.91857
3.89706
3.91675
3.98095
4.04706
4.05828
4.03694
3.98237
3.92561
3.86976
3.79112
3.74051
3.76703
3.82627
3.88211
3.93399
3.9836
4.02594
4.03995
4.03791
4.03625
4.04356
4.0672
4.09442
4.12195
4.14631
4.14732
4.12378
4.0693
4.0002
3.92666
3.85763
3.78853
3.72307
3.67155
3.64096
3.64276
3.69495
3.79015
3.93621
4.10678
4.2846
4.45967
4.60516
4.70467
4.79792
4.89147
4.94567
4.9465
4.92511
4.87433
4.79029
4.68998
4.58884
4.48299
4.37185
4.27406
4.20599
4.17854
4.18763
4.24273
4.31819
4.40787
4.52175
4.6749
4.84149
4.97623
5.06657
5.18057
5.57367
6.70755
8.36102
0.000999844
0.00099924
0.00145117
0.109644
1.2254
3.07358
4.1401
4.64793
4.79652
4.74604
4.59265
4.40639
4.22639
4.10221
4.01715
3.91473
3.79485
3.68651
3.5845
3.43017
3.22375
3.05244
2.91769
2.83751
2.84769
2.94676
3.04153
3.07863
3.07282
3.02683
2.94808
2.86452
2.77685
2.68308
2.58378
2.48582
2.39878
2.32779
2.27864
2.24763
2.22753
2.22211
2.23157
2.25699
2.29376
2.35066
2.43096
2.534
2.64137
2.7337
2.80116
2.84764
2.8908
2.92015
2.92731
2.95049
2.99894
3.03901
3.05037
3.03872
3.01635
2.97451
2.91635
2.87045
2.83556
2.77797
2.69408
2.59902
2.49904
2.40056
2.31564
2.25048
2.21354
2.20946
2.23379
2.25815
2.26928
2.27062
2.27077
2.26862
2.2639
2.25478
2.24061
2.2221
2.2034
2.1972
2.23885
2.38742
2.62408
2.91696
3.18509
3.30845
3.26842
3.15014
3.06189
3.05422
3.04086
3.03319
3.02832
3.0118
2.96387
2.88643
2.79581
2.70782
2.72784
3.11174
4.09679
5.35092
6.57797
7.61136
8.2979
8.33307
7.9452
7.38312
6.76896
6.10104
5.38686
4.67891
4.03061
3.48448
3.06464
2.77005
2.57589
2.45477
2.38865
2.38409
2.44155
2.57051
2.79343
3.19886
3.89414
4.8781
5.9351
6.70788
7.17146
7.42698
7.48855
7.38044
7.25386
7.2537
7.12391
6.74816
6.27483
5.78734
5.3269
4.89777
4.50506
4.16523
3.90083
3.70678
3.53249
3.33707
3.10157
2.85328
2.63346
2.46438
2.41571
2.50431
2.69144
2.86426
2.99321
3.06897
3.0874
3.06911
3.01644
2.94463
2.86745
2.7893
2.71974
2.65502
2.58735
2.52214
2.46935
2.43887
2.42853
2.41006
2.38776
2.37483
2.37939
2.39679
2.37991
2.32353
2.26407
2.22719
2.22393
2.2439
2.28369
2.33271
2.37663
2.40206
2.42602
2.44737
2.45937
2.47663
2.50075
2.53293
2.56809
2.57743
2.5591
2.52076
2.47444
2.4291
2.38758
2.35108
2.32038
2.29373
2.28066
2.29242
2.34312
2.43132
2.56014
2.73325
2.93866
3.14254
3.32774
3.50852
3.6659
3.75906
3.7808
3.77189
3.73495
3.67022
3.58427
3.48695
3.38169
3.26841
3.15081
3.03191
2.92364
2.83496
2.77025
2.72796
2.71245
2.72178
2.77301
2.8505
2.93337
3.00346
3.05886
3.14455
3.43062
4.11017
0.000999356
0.000996413
0.000993697
0.00102574
0.00848777
0.178968
0.760456
1.61005
2.1344
2.51708
2.73218
2.78548
2.75537
2.69744
2.643
2.57869
2.50158
2.42503
2.35616
2.26798
2.14954
2.02563
1.95395
1.96454
2.0766
2.21496
2.30072
2.32782
2.31559
2.25816
2.1707
2.07312
1.9744
1.87658
1.77891
1.68337
1.59399
1.51247
1.44011
1.37663
1.32341
1.2825
1.25031
1.23759
1.24182
1.26837
1.31107
1.36882
1.44314
1.52657
1.61712
1.70243
1.76821
1.82284
1.86778
1.91699
1.984
2.04461
2.09359
2.10937
2.09943
2.07972
2.06435
2.0624
2.0654
2.06085
2.0414
2.01377
1.96686
1.89837
1.81951
1.74049
1.6684
1.61269
1.57297
1.54188
1.51646
1.49162
1.46439
1.43605
1.41313
1.39112
1.36322
1.33752
1.32548
1.33362
1.39341
1.51428
1.68939
1.8845
2.04363
2.12152
2.11633
2.10557
2.10455
2.13614
2.1719
2.21423
2.25525
2.27001
2.25344
2.20356
2.13459
2.07826
2.15652
2.54884
3.34112
4.22676
4.82117
5.11882
5.27326
5.37213
5.46104
5.46209
5.3234
4.98855
4.50153
3.9572
3.4486
3.04598
2.77326
2.60195
2.49435
2.41809
2.35066
2.28838
2.24119
2.23174
2.27293
2.40662
2.68149
3.16358
3.85335
4.55536
5.08226
5.42568
5.62504
5.64655
5.5787
5.50491
5.35662
5.13398
4.87401
4.58662
4.28284
3.97983
3.68255
3.40106
3.1549
2.95495
2.76831
2.56473
2.34767
2.14276
1.98868
1.91595
1.93553
2.04708
2.18888
2.3139
2.39258
2.41138
2.39244
2.3355
2.25558
2.16597
2.07293
1.98337
1.90303
1.82999
1.75664
1.67972
1.60094
1.5252
1.46165
1.41573
1.3899
1.3836
1.38668
1.39858
1.39671
1.38215
1.35361
1.31523
1.28935
1.28952
1.31701
1.36819
1.42304
1.47555
1.51342
1.53955
1.54687
1.54827
1.55813
1.57774
1.60258
1.62013
1.62641
1.61962
1.60662
1.59726
1.59
1.58405
1.57635
1.5663
1.55962
1.56362
1.5938
1.65717
1.7588
1.89065
2.03516
2.18401
2.33071
2.45906
2.57688
2.68983
2.77962
2.83665
2.86323
2.86196
2.83411
2.7749
2.68959
2.58748
2.48065
2.37282
2.26257
2.15317
2.05291
1.96642
1.89623
1.84935
1.82568
1.81424
1.81309
1.81635
1.81837
1.82068
1.8425
1.94097
0.000999455
0.000996028
0.000992224
0.00098886
0.000985413
0.00105509
0.0045771
0.0699313
0.768809
1.48942
1.86497
2.01598
2.04566
2.0308
1.99082
1.94067
1.89125
1.85223
1.81092
1.74704
1.67088
1.63355
1.65044
1.72153
1.84149
1.92805
1.96591
1.96837
1.93695
1.86946
1.77984
1.68027
1.58098
1.48547
1.39155
1.30086
1.21642
1.13874
1.06907
1.0061
0.948515
0.904066
0.88588
0.889295
0.909552
0.932497
0.950366
0.972848
1.00842
1.05674
1.12025
1.19965
1.28707
1.37155
1.4334
1.48347
1.53263
1.56113
1.57372
1.57367