/*--------------------------------*- C++ -*----------------------------------*\
  =========                 |
  \\      /  F ield         | OpenFOAM: The Open Source CFD Toolbox
   \\    /   O peration     | Website:  https://openfoam.org
    \\  /    A nd           | Version:  7
     \\/     M anipulation  |
\*---------------------------------------------------------------------------*/
FoamFile
{
    version     2.0;
    format      ascii;
    class       volScalarField;
    location    "150";
    object      nut;
}
// * * * * * * * * * * * * * * * * * * * * * * * * * * * * * * * * * * * * * //

dimensions      [0 2 -1 0 0 0 0];

internalField   nonuniform List<scalar> 
96800
(
0.00011528
0.000115231
0.000115185
0.000115138
0.000115103
0.000115086
0.000115078
0.000115068
0.000115051
0.000115029
0.000115007
0.000114991
0.000114989
0.000115009
0.000115049
0.00011511
0.000115181
0.000115257
0.000115335
0.000115408
0.000115446
0.000115359
0.000115272
0.000115142
0.000115066
0.000114997
0.000114948
0.000114921
0.000114906
0.000114892
0.000114875
0.000114854
0.000114833
0.000114818
0.000114815
0.000114834
0.000114875
0.000114933
0.000115001
0.000115077
0.000115159
0.000115244
0.000115313
0.000115335
0.000115342
0.000115183
0.000115065
0.000114955
0.00011487
0.000114816
0.000114783
0.00011476
0.00011474
0.000114719
0.000114701
0.000114689
0.000114689
0.000114708
0.000114744
0.000114795
0.000114856
0.000114929
0.000115019
0.000115126
0.000115239
0.000115334
0.000115418
0.000115241
0.000115083
0.000114928
0.000114803
0.000114719
0.000114666
0.000114632
0.000114608
0.000114589
0.000114574
0.000114568
0.000114574
0.000114593
0.000114624
0.000114664
0.000114715
0.000114784
0.00011488
0.000115006
0.00011515
0.000115278
0.000115476
0.000115284
0.000115094
0.000114901
0.000114743
0.000114633
0.000114564
0.000114524
0.000114498
0.000114481
0.000114473
0.000114474
0.000114485
0.000114506
0.000114532
0.000114562
0.000114602
0.000114664
0.000114762
0.000114902
0.000115066
0.000115212
0.000115504
0.000115301
0.000115086
0.000114865
0.000114685
0.00011456
0.000114483
0.00011444
0.000114416
0.000114405
0.000114405
0.000114414
0.000114431
0.000114452
0.000114473
0.000114494
0.000114525
0.000114581
0.000114682
0.000114831
0.000115009
0.000115169
0.000115508
0.000115297
0.000115064
0.000114823
0.000114629
0.000114497
0.000114419
0.000114379
0.000114362
0.00011436
0.00011437
0.000114387
0.000114408
0.000114428
0.000114444
0.000114458
0.000114481
0.000114535
0.000114639
0.000114799
0.000114992
0.00011516
0.000115503
0.000115285
0.000115038
0.000114782
0.000114578
0.000114443
0.000114369
0.000114336
0.00011433
0.000114342
0.000114362
0.000114386
0.000114407
0.000114424
0.000114433
0.00011444
0.000114459
0.000114515
0.000114627
0.000114801
0.000115009
0.000115189
0.000115503
0.000115279
0.000115018
0.000114752
0.000114539
0.000114403
0.000114333
0.000114309
0.000114315
0.000114341
0.000114373
0.0001144
0.000114419
0.000114428
0.000114428
0.000114428
0.000114444
0.000114503
0.000114627
0.000114816
0.000115041
0.000115234
0.000115513
0.000115284
0.000115012
0.000114736
0.000114518
0.000114382
0.000114317
0.0001143
0.000114316
0.000114352
0.00011439
0.000114419
0.000114433
0.000114431
0.00011442
0.000114411
0.000114423
0.000114486
0.000114622
0.000114828
0.000115072
0.000115277
0.000115532
0.000115299
0.000115017
0.000114734
0.000114514
0.000114379
0.000114316
0.000114303
0.000114324
0.000114365
0.000114405
0.000114432
0.000114439
0.000114426
0.000114406
0.00011439
0.0001144
0.000114465
0.00011461
0.000114834
0.000115097
0.000115315
0.000115559
0.000115321
0.000115033
0.000114745
0.000114523
0.00011439
0.000114329
0.000114316
0.000114334
0.000114373
0.00011441
0.000114431
0.00011443
0.00011441
0.000114384
0.000114365
0.000114374
0.000114446
0.000114603
0.000114845
0.000115125
0.000115356
0.000115591
0.000115351
0.000115058
0.000114766
0.000114544
0.000114412
0.000114351
0.000114334
0.000114344
0.000114372
0.000114399
0.00011441
0.000114401
0.000114383
0.000114357
0.000114338
0.000114354
0.000114441
0.000114615
0.000114874
0.000115171
0.000115414
0.000115633
0.000115389
0.000115091
0.000114796
0.000114573
0.00011444
0.000114376
0.000114353
0.00011435
0.000114361
0.000114373
0.000114375
0.000114364
0.000114347
0.000114328
0.000114321
0.000114356
0.000114461
0.000114655
0.000114933
0.000115247
0.000115502
0.000115687
0.00011544
0.000115135
0.000114832
0.000114603
0.000114467
0.000114399
0.000114368
0.000114355
0.000114351
0.000114346
0.000114336
0.000114323
0.000114314
0.000114307
0.000114318
0.000114378
0.000114506
0.000114721
0.00011502
0.000115353
0.000115619
0.000115754
0.000115502
0.000115184
0.000114868
0.000114629
0.000114486
0.000114412
0.000114377
0.000114357
0.000114342
0.000114321
0.000114301
0.000114292
0.00011429
0.000114298
0.000114335
0.000114419
0.000114569
0.000114807
0.000115128
0.00011548
0.000115759
0.000115822
0.000115563
0.000115228
0.000114895
0.000114644
0.000114493
0.000114416
0.000114378
0.000114355
0.000114333
0.000114303
0.000114276
0.000114271
0.000114277
0.000114304
0.000114368
0.000114474
0.000114644
0.000114902
0.000115244
0.000115615
0.000115907
0.000115867
0.0001156
0.00011525
0.0001149
0.00011464
0.000114487
0.000114413
0.000114378
0.000114355
0.000114332
0.0001143
0.000114274
0.000114273
0.000114288
0.000114333
0.000114414
0.000114536
0.000114722
0.000114996
0.000115354
0.000115743
0.000116047
0.00011586
0.000115587
0.000115226
0.00011487
0.000114611
0.00011447
0.000114409
0.000114384
0.000114368
0.000114351
0.000114331
0.000114312
0.000114312
0.000114328
0.000114376
0.000114464
0.000114597
0.000114794
0.00011508
0.000115451
0.000115854
0.00011617
0.000115775
0.000115501
0.000115137
0.000114789
0.000114551
0.000114438
0.000114408
0.000114406
0.000114407
0.000114405
0.000114399
0.000114393
0.000114392
0.000114399
0.000114432
0.000114517
0.000114655
0.00011486
0.000115156
0.000115539
0.000115955
0.000116282
0.000115596
0.000115323
0.000114966
0.00011464
0.000114444
0.000114384
0.000114403
0.000114442
0.000114473
0.000114494
0.000114505
0.000114508
0.000114509
0.000114508
0.000114522
0.000114584
0.000114718
0.000114931
0.000115239
0.000115637
0.000116066
0.000116402
0.000115296
0.000115025
0.000114681
0.000114395
0.000114265
0.000114283
0.000114377
0.000114478
0.000114553
0.000114604
0.000114635
0.000114649
0.000114651
0.000114648
0.00011465
0.000114685
0.000114808
0.000115029
0.000115355
0.000115774
0.000116221
0.000116567
0.000114822
0.000114557
0.00011423
0.000113998
0.00011396
0.000114092
0.000114297
0.000114489
0.000114628
0.00011472
0.000114777
0.000114808
0.000114819
0.00011482
0.000114822
0.000114847
0.000114956
0.000115185
0.000115533
0.00011598
0.000116452
0.000116814
0.000114078
0.000113819
0.000113506
0.000113339
0.000113427
0.000113725
0.000114099
0.000114431
0.000114672
0.00011483
0.00011493
0.000114989
0.000115021
0.000115037
0.000115051
0.000115086
0.000115186
0.000115428
0.000115803
0.000116282
0.000116786
0.000117168
0.000112863
0.000112609
0.000112293
0.000112193
0.000112446
0.000112989
0.000113633
0.000114203
0.000114624
0.000114904
0.000115084
0.000115197
0.000115266
0.000115313
0.000115353
0.000115415
0.000115514
0.000115775
0.000116181
0.000116698
0.000117233
0.000117637
0.00011076
0.000110512
0.000110155
0.0001101
0.00011056
0.000111471
0.000112565
0.000113566
0.00011433
0.000114854
0.000115195
0.000115413
0.000115556
0.000115657
0.00011574
0.000115835
0.000115965
0.000116239
0.00011668
0.000117234
0.000117803
0.000118227
0.000107155
0.000106897
0.000106413
0.000106327
0.000106994
0.000108405
0.000110219
0.000111991
0.000113425
0.00011445
0.000115132
0.000115572
0.00011586
0.000116062
0.00011622
0.00011637
0.000116543
0.000116829
0.000117311
0.000117906
0.000118509
0.000118956
0.000101757
0.00010142
0.00010064
0.000100295
0.000100957
0.000102811
0.000105545
0.000108523
0.000111159
0.000113179
0.00011458
0.000115497
0.000116092
0.000116492
0.000116781
0.00011702
0.000117268
0.000117567
0.000118098
0.000118743
0.000119388
0.000119867
9.56293e-05
9.51049e-05
9.38136e-05
9.27795e-05
9.28007e-05
9.4432e-05
9.76924e-05
0.000101968
0.00010634
0.000110081
0.000112882
0.000114794
0.000116038
0.000116845
0.00011739
0.000117788
0.000118135
0.0001185
0.00011908
0.000119794
0.000120504
0.000121027
9.15141e-05
9.07308e-05
8.88492e-05
8.67767e-05
8.53544e-05
8.54578e-05
8.77236e-05
9.21494e-05
9.79349e-05
0.000103861
0.00010892
0.000112685
0.000115237
0.000116883
0.00011794
0.000118642
0.000119173
0.000119676
0.000120306
0.000121125
0.000121927
0.000122519
9.19805e-05
9.09585e-05
8.86376e-05
8.56264e-05
8.25936e-05
8.0374e-05
7.9911e-05
8.20374e-05
8.69973e-05
9.4004e-05
0.000101483
0.000107981
0.000112835
0.000116104
0.000118181
0.000119486
0.000120364
0.000121098
0.000121828
0.000122802
0.000123736
0.000124426
9.7665e-05
9.64387e-05
9.38406e-05
9.02111e-05
8.60433e-05
8.19486e-05
7.86575e-05
7.70907e-05
7.83247e-05
8.30861e-05
9.08487e-05
9.97201e-05
0.000107668
0.000113636
0.000117609
0.000120082
0.000121634
0.000122758
0.000123731
0.000124894
0.000126008
0.000126828
0.000107978
0.000106531
0.000103659
9.95523e-05
9.46304e-05
8.93674e-05
8.42438e-05
7.98257e-05
7.69582e-05
7.69015e-05
8.09276e-05
8.90222e-05
9.91048e-05
0.000108417
0.000115399
0.000119963
0.000122778
0.000124622
0.000126058
0.00012746
0.000128817
0.000129796
0.000122273
0.000120568
0.000117326
0.000112689
0.000107077
0.000100932
9.46332e-05
8.85178e-05
8.30152e-05
7.88766e-05
7.74709e-05
8.06064e-05
8.8909e-05
0.000100109
0.000110622
0.000118398
0.000123406
0.000126547
0.000128759
0.000130526
0.00013224
0.000133419
0.000140099
0.000138117
0.000134411
0.000129133
0.000122749
0.000115722
0.00010842
0.000101102
9.39988e-05
8.74391e-05
8.2114e-05
7.95184e-05
8.19966e-05
9.07401e-05
0.000103094
0.000114592
0.000122913
0.000128242
0.000131732
0.000134179
0.000136374
0.000137813
0.000161137
0.00015888
0.000154653
0.000148655
0.000141419
0.00013345
0.000125129
0.000116704
0.000108342
0.000100202
9.2563e-05
8.61274e-05
8.26152e-05
8.49625e-05
9.46931e-05
0.000108341
0.00012061
0.000129239
0.00013482
0.000138497
0.00014133
0.000143127
0.000185208
0.000182674
0.000177914
0.00017118
0.000163076
0.000154146
0.000144781
0.000135226
0.000125642
0.000116138
0.000106845
9.80501e-05
9.05622e-05
8.65041e-05
8.95432e-05
0.000101081
0.000116193
0.000128969
0.000137735
0.000143417
0.000147202
0.000149528
0.000212515
0.000209685
0.000204418
0.000196986
0.000188056
0.00017819
0.00016777
0.00015704
0.000146165
0.000135249
0.000124392
0.000113742
0.000103657
9.51943e-05
9.11982e-05
9.62003e-05
0.000110487
0.000127034
0.000140074
0.000148804
0.000154085
0.000157195
0.000243927
0.000240762
0.000235033
0.000226956
0.000217242
0.000206451
0.000194943
0.000182954
0.000170649
0.000158144
0.000145548
0.000132992
0.000120698
0.000109186
9.99993e-05
9.71984e-05
0.000105905
0.000123653
0.000141429
0.000154427
0.000162151
0.000166336
0.000281191
0.000277625
0.000271482
0.0002628
0.000252315
0.000240549
0.000227835
0.000214401
0.000200416
0.000186006
0.00017131
0.000156503
0.000141801
0.000127551
0.000114563
0.000105306
0.00010569
0.00012015
0.000141605
0.000159992
0.000171434
0.00017722
0.00032669
0.000322687
0.00031623
0.000307003
0.000295752
0.000282887
0.000268709
0.00025347
0.000237362
0.000220536
0.00020319
0.000185563
0.000167923
0.000150595
0.000134119
0.000119861
0.000112089
0.000118973
0.000140957
0.00016526
0.000181816
0.000190112
0.000383175
0.000378732
0.00037229
0.000362706
0.000350703
0.000336513
0.000320409
0.000302761
0.000283845
0.000263865
0.000243092
0.000221848
0.000200478
0.000179369
0.000158987
0.000140192
0.000125538
0.000122799
0.000140648
0.000170044
0.00019324
0.00020527
0.000453878
0.000449186
0.000442661
0.000433592
0.000420814
0.000404893
0.000386175
0.000365284
0.000342634
0.000318487
0.000293211
0.00026724
0.000241077
0.000215226
0.000190139
0.000166464
0.000145719
0.000133476
0.00014273
0.000174531
0.00020566
0.000222965
0.000542479
0.000537944
0.000532522
0.000523899
0.000510185
0.000491971
0.000469764
0.000444522
0.00041685
0.000387133
0.000355878
0.000323727
0.000291438
0.000259663
0.000228848
0.000199538
0.000172684
0.000151812
0.000149864
0.000179616
0.00021917
0.000243503
0.000653133
0.0006492
0.000646355
0.000637712
0.000623696
0.00060243
0.000575441
0.000544148
0.000509601
0.000472464
0.000433451
0.000393507
0.000353651
0.000314604
0.000276813
0.0002408
0.00020719
0.000178174
0.000164252
0.000186974
0.000234402
0.000267281
0.000790784
0.000788235
0.000789405
0.000782088
0.000767064
0.000741039
0.000707078
0.000667249
0.00062342
0.000576675
0.000527982
0.000478651
0.000429851
0.000382193
0.000336032
0.000291928
0.000250415
0.000212877
0.000187109
0.000198333
0.000251835
0.00029472
0.000961282
0.00096123
0.000968133
0.000962651
0.000944945
0.000911547
0.000867572
0.000816155
0.000760263
0.000701542
0.000641256
0.000580991
0.000521823
0.0004641
0.000408081
0.000354341
0.000303496
0.000256544
0.000219085
0.000215696
0.00027175
0.000326163
0.00117119
0.00117481
0.00118897
0.00118475
0.00116075
0.00111614
0.00105838
0.000991878
0.000920976
0.000848063
0.00077455
0.000701957
0.000630957
0.000561597
0.000494268
0.000429589
0.000368045
0.000310436
0.000261095
0.000241221
0.000294659
0.000361641
0.00142741
0.00143542
0.00145696
0.00145168
0.0014168
0.00135611
0.00127995
0.00119452
0.00110563
0.0010163
0.000927839
0.000841507
0.000757501
0.000675546
0.000596176
0.000519983
0.00044694
0.000377269
0.000315108
0.000277658
0.000322528
0.000400987
0.00173582
0.00174818
0.00177564
0.00176565
0.00171514
0.00163195
0.00153179
0.00142319
0.00131313
0.00120494
0.00109973
0.000998381
0.000900652
0.000805977
0.000714719
0.000626993
0.000542175
0.000459698
0.000383465
0.000327451
0.000358238
0.000446592
0.00210183
0.00211767
0.0021479
0.0021285
0.00205567
0.00194124
0.00180991
0.00167335
0.00153911
0.00141026
0.00128725
0.00117025
0.00105862
0.000951598
0.000849012
0.000750136
0.00065347
0.00055824
0.000467714
0.000392375
0.000404073
0.000500267
0.00253092
0.00254818
0.00257462
0.00253623
0.00243031
0.0022739
0.00210396
0.00193603
0.00177661
0.00162695
0.00148616
0.00135381
0.00122897
0.00111033
0.000996844
0.000887216
0.000779194
0.000671521
0.000567474
0.000473836
0.0004637
0.000562889
0.00302876
0.00304338
0.00305301
0.00297804
0.00282583
0.00262019
0.00240994
0.00221247
0.00203032
0.00186135
0.00170331
0.0015554
0.00141642
0.00128454
0.00115844
0.00103705
0.000918022
0.000798876
0.000682284
0.000572423
0.000540097
0.000636847
0.00360013
0.00360571
0.00358102
0.00344991
0.00324546
0.00299381
0.00275181
0.00253209
0.00233081
0.00214263
0.00196484
0.00179684
0.00163766
0.0014859
0.00134128
0.00120418
0.00107259
0.000942504
0.000814664
0.000690205
0.000635863
0.000726765
0.00425176
0.00424072
0.00416838
0.00397356
0.00371476
0.00343958
0.00318185
0.00294619
0.00272503
0.00251203
0.0023052
0.00210546
0.00191387
0.00173092
0.00155837
0.00139857
0.00124957
0.00110642
0.000968158
0.000830866
0.000755846
0.000836298
0.0049996
0.00496584
0.00484313
0.00460101
0.00430173
0.00401192
0.00376144
0.00350912
0.00325972
0.00300972
0.00275908
0.00251121
0.00226974
0.00203843
0.00182248
0.00162757
0.00145317
0.00129269
0.00114393
0.000998166
0.000905207
0.00096915
0.0058714
0.00581436
0.0056539
0.00539251
0.0050951
0.00479516
0.00454252
0.00426566
0.0039702
0.00366388
0.00335106
0.00303808
0.00273011
0.00243305
0.00215514
0.00190565
0.00168927
0.00150264
0.00134051
0.00119283
0.00109328
0.00114257
0.0069119
0.00684087
0.00667571
0.00643386
0.00616336
0.00586375
0.00558155
0.00524876
0.00487897
0.00449083
0.00409417
0.00369841
0.00330989
0.00293417
0.00257912
0.00225626
0.00197632
0.00174462
0.00156038
0.00141319
0.00132786
0.00141549
0.00819459
0.00812883
0.00800402
0.00781512
0.0075727
0.00725346
0.00691396
0.00648312
0.00600167
0.00549846
0.00499079
0.00449127
0.00400682
0.00354117
0.00309886
0.00269015
0.00232985
0.00203119
0.00180944
0.00166358
0.00162884
0.00189705
0.00982455
0.00978696
0.00974036
0.00961727
0.00938425
0.00901121
0.00857291
0.00798502
0.00734221
0.0066814
0.00603011
0.0054039
0.00480838
0.00424376
0.00370939
0.00321033
0.00276025
0.00237812
0.00209916
0.00194924
0.00203897
0.00262022
0.0119095
0.0119198
0.0119716
0.0119066
0.0116467
0.0111698
0.0105479
0.00973955
0.00887698
0.00801218
0.00718317
0.00640821
0.00569007
0.00502349
0.00440046
0.00381725
0.00327956
0.00280731
0.00245608
0.00229571
0.00263106
0.00356882
0.0145247
0.0145971
0.0147499
0.0147128
0.0143652
0.0137222
0.0127843
0.011689
0.0105486
0.00943772
0.00840195
0.00746018
0.00661104
0.00584294
0.00513997
0.00448856
0.00388221
0.00333193
0.00291071
0.00276413
0.00352554
0.00496193
0.0176907
0.0178279
0.0180564
0.0179777
0.017444
0.016494
0.0151743
0.0137154
0.0122486
0.0108633
0.00960653
0.00849288
0.0075152
0.00665454
0.0058865
0.00518902
0.004545
0.00395158
0.00349509
0.00348739
0.00507107
0.00713902
0.0213859
0.0215521
0.0217663
0.021516
0.0206828
0.0192549
0.0174953
0.015623
0.0138073
0.0121446
0.0106771
0.00941047
0.00832878
0.00740328
0.00659851
0.0058855
0.00524367
0.00466489
0.00426849
0.00481327
0.00770585
0.0101005
0.0255751
0.0256374
0.0256183
0.0250069
0.0236595
0.021712
0.0194577
0.017167
0.015024
0.0131206
0.0114859
0.0101106
0.00896735
0.00801785
0.00721713
0.00653073
0.00594353
0.00547359
0.00537066
0.00694282
0.0110515
0.0134588
0.0301054
0.0298436
0.0291608
0.0279301
0.0259813
0.0234823
0.0207554
0.0181029
0.0157125
0.013653
0.0119263
0.0105036
0.00934628
0.00841263
0.0076577
0.00704414
0.00657134
0.00634071
0.00671549
0.00948523
0.0140139
0.016682
0.0170522
0.0261742
0.0340626
0.0400679
0.0424239
0.0414229
0.0383568
0.0346325
0.0311721
0.0283318
0.0261279
0.0244745
0.0232179
0.0221469
0.0211026
0.0200156
0.0189394
0.0180712
0.0175844
0.0174671
0.0175589
0.0176919
0.0177778
0.0178133
0.0178464
0.0178881
0.017973
0.0181062
0.0182532
0.0184199
0.0186314
0.0188892
0.0192265
0.0196388
0.0200997
0.0204206
0.0205782
0.0205872
0.0205657
0.0206214
0.0207959
0.0210718
0.0213683
0.0215914
0.0217075
0.0217386
0.0216831
0.0215114
0.0213159
0.0210394
0.0208233
0.0206801
0.0206199
0.0206526
0.0207653
0.0209092
0.0210283
0.0210819
0.0210121
0.0207405
0.0202242
0.0195016
0.0186899
0.0179716
0.0174342
0.0170705
0.0168325
0.0166563
0.0165468
0.0165596
0.0167899
0.0172784
0.017938
0.0185957
0.0191438
0.0195819
0.0199412
0.0202517
0.0205133
0.0206685
0.0206908
0.0206412
0.0206484
0.0208069
0.0210803
0.0214155
0.0216949
0.0218126
0.0217459
0.0215673
0.0211609
0.0206504
0.0203113
0.0203129
0.0204426
0.0204176
0.0201585
0.019609
0.0188856
0.0181027
0.0174743
0.0171543
0.0172236
0.0177191
0.0188144
0.0207853
0.0236357
0.0272199
0.0308322
0.0333487
0.0336909
0.0325787
0.0312825
0.0295244
0.0270431
0.0241047
0.0210687
0.0182302
0.0157434
0.0136488
0.0119196
0.0105134
0.00938961
0.00850745
0.00783577
0.00733272
0.00701576
0.00702165
0.00780751
0.0107713
0.0151356
0.0183693
0.0213292
0.0230023
0.0262539
0.0296147
0.031795
0.0323111
0.0315411
0.0297225
0.0274568
0.0252229
0.0234072
0.0221808
0.0214643
0.0210308
0.0206487
0.0201495
0.0194975
0.0186651
0.0177652
0.0169721
0.0163872
0.0161225
0.0163269
0.01695
0.0179143
0.0187113
0.0191628
0.019228
0.0189667
0.0186096
0.0180442
0.0174664
0.0170138
0.0168587
0.0171097
0.0177443
0.0186341
0.0194823
0.0200149
0.0202236
0.0201859
0.0200021
0.0195847
0.0191279
0.0188029
0.0188293
0.0192907
0.0200046
0.0207493
0.0211686
0.0212684
0.0211763
0.0210301
0.0207958
0.0204513
0.0200858
0.0197707
0.0195441
0.0194263
0.0194356
0.0195635
0.0197695
0.0199596
0.0201001
0.020118
0.0200336
0.0198843
0.0197359
0.0196623
0.0196539
0.0197234
0.019893
0.0200903
0.0202914
0.0204742
0.0206446
0.0207728
0.0208055
0.0207048
0.0205265
0.0203367
0.0201792
0.0201022
0.0200594
0.0199743
0.0197969
0.0195546
0.019333
0.0191143
0.0189507
0.0189217
0.0190465
0.0192543
0.0194879
0.0197318
0.0199988
0.0203153
0.0206958
0.0211004
0.0214601
0.021735
0.0218562
0.0217666
0.0214761
0.0212229
0.0216527
0.0241148
0.0294697
0.0357522
0.0404715
0.00314232
0.0209018
0.0314823
0.0380393
0.0408223
0.0401919
0.0374535
0.0339622
0.0306212
0.0278134
0.0255819
0.0238944
0.0226257
0.0215316
0.0205051
0.0194377
0.0183768
0.0175213
0.0170278
0.0168622
0.0169198
0.0170242
0.0171304
0.017222
0.0173216
0.0173871
0.0174267
0.0175239
0.0176498
0.0177864
0.0179622
0.0182037
0.0184942
0.0188601
0.019283
0.0196394
0.0198559
0.0198939
0.019868
0.0199088
0.0200572
0.0203275
0.0206207
0.0208516
0.0209723
0.021015
0.0209682
0.0207826
0.020558
0.020299
0.020076
0.0199126
0.0198022
0.0197882
0.0198567
0.0200127
0.020138
0.0202087
0.020148
0.0199288
0.0194926
0.0188252
0.0180505
0.0173709
0.0168624
0.0165059
0.016273
0.0161125
0.0160046
0.0159967
0.016141
0.0165498
0.017162
0.0177972
0.0183404
0.0187493
0.0190909
0.0193948
0.0196565
0.0198175
0.0198521
0.0197995
0.0197789
0.0199454
0.0201223
0.0204622
0.0207694
0.0209358
0.0208601
0.0207329
0.0203567
0.0198575
0.0195143
0.019543
0.0197032
0.0197379
0.019503
0.0190405
0.0184021
0.0176027
0.0169551
0.0165583
0.0165175
0.0168346
0.0176038
0.0193869
0.0221433
0.0257843
0.0295771
0.0321748
0.0325132
0.0321803
0.031144
0.0292196
0.0264882
0.0233903
0.0203023
0.0174833
0.015067
0.0130655
0.0114296
0.010109
0.00906902
0.0082854
0.00772659
0.00733789
0.00714721
0.00725816
0.00815696
0.010477
0.0142052
0.0172603
0.0198592
0.0219576
0.0249702
0.0281814
0.0304344
0.031213
0.0306645
0.028992
0.0268535
0.0247042
0.0229035
0.0216297
0.0208492
0.020366
0.0199737
0.0195151
0.0189385
0.0181879
0.0172846
0.0165049
0.0158914
0.0155612
0.0157042
0.0162281
0.0171942
0.0180413
0.0185614
0.0187195
0.018444
0.0180922
0.0176113
0.0169973
0.0165147
0.016289
0.0164342
0.0169529
0.0176723
0.0185098
0.0190777
0.0192987
0.0193343
0.019167
0.0188322
0.0183859
0.0180381
0.0180237
0.0184397
0.0190706
0.0198225
0.0202957
0.0204191
0.0204166
0.020306
0.0201071
0.019825
0.0195096
0.0192175
0.0189985
0.0188717
0.0188641
0.0189412
0.0190967
0.0192586
0.019361
0.0193794
0.0193103
0.0191708
0.0190163
0.0189448
0.0189364
0.0189996
0.0191555
0.0193111
0.0195034
0.0196653
0.01984
0.0199871
0.020074
0.0200092
0.0198752
0.01974
0.0195873
0.0195078
0.019492
0.0194377
0.0193032
0.0190828
0.0188532
0.0186292
0.0184625
0.0184022
0.0184367
0.0186021
0.0187903
0.0190006
0.0192364
0.0195145
0.0198554
0.0202419
0.0205599
0.0208427
0.0210154
0.020979
0.0207386
0.0205011
0.0207795
0.0229133
0.027941
0.0341324
0.0387749
0.000265791
0.00977355
0.0234414
0.0313561
0.0350065
0.035528
0.0337736
0.0310221
0.0281203
0.0255106
0.0233472
0.0216651
0.0204102
0.0194177
0.0185088
0.0175707
0.0166085
0.0157705
0.015187
0.0148727
0.0147968
0.014853
0.0149667
0.015146
0.0154344
0.0156196
0.0156807
0.015728
0.0157643
0.0158086
0.0159016
0.0160198
0.0161581
0.0163612
0.0166563
0.0170264
0.0172668
0.0173806
0.0174131
0.0174521
0.0175687
0.01777
0.0180007
0.0181912
0.0183099
0.0183609
0.0183502
0.0182386
0.0180782
0.0178311
0.0176345
0.0174722
0.0173174
0.0172191
0.0172305
0.0173092
0.0173989
0.0174826
0.0175072
0.017415
0.0171436
0.0166645
0.0160549
0.015473
0.0150022
0.0146539
0.014425
0.0142533
0.0140996
0.0140096
0.0140423
0.0142766
0.0147121
0.0152406
0.0157388
0.0161505
0.0164783
0.0167593
0.0169841
0.0171409
0.0171717
0.0171276
0.0170341
0.0170387
0.0171574
0.0173819
0.0176518
0.0178955
0.0180813
0.0181439
0.0179792
0.0175383
0.0171794
0.0171159
0.0172319
0.0173447
0.0172362
0.0169668
0.0164965
0.0158431
0.0152013
0.0146967
0.0143969
0.01435
0.0147057
0.0156824
0.01806
0.0219481
0.0263347
0.0294835
0.0305798
0.0300742
0.0287806
0.0269483
0.0242236
0.021328
0.0184941
0.0159432
0.0137732
0.011982
0.0105222
0.00934943
0.00843908
0.00778013
0.00734178
0.00707149
0.00694023
0.00714366
0.00794817
0.00972645
0.0124179
0.0149946
0.0171292
0.0189651
0.021103
0.0236996
0.0259616
0.027289
0.0273729
0.0263696
0.0247279
0.0229053
0.0212109
0.0198411
0.0188672
0.0182275
0.0177798
0.017409
0.0169857
0.016381
0.0156019
0.0148624
0.0142336
0.0138087
0.0137362
0.0140263
0.0147926
0.0156628
0.0163286
0.0166299
0.0165726
0.0162812
0.0159085
0.0153934
0.0149047
0.0145566
0.0144276
0.0145539
0.0149456
0.0155342
0.0161209
0.0164667
0.016617
0.0165936
0.0164383
0.0161204
0.0157977
0.0156373
0.0157786
0.0161758
0.016795
0.0173231
0.0176299
0.0177687
0.0177928
0.0177195
0.0175557
0.017347
0.0171391
0.0169623
0.0168148
0.0167705
0.0167772
0.016826
0.0169118
0.0169777
0.0169874
0.0169345
0.016815
0.0166712
0.0165744
0.0165288
0.0165293
0.016602
0.016716
0.0168412
0.0169705
0.0171425
0.0173551
0.0175326
0.017626
0.0176369
0.0175916
0.0175174
0.0174743
0.017481
0.0174878
0.0174387
0.0173138
0.0171101
0.0168771
0.0166753
0.0165062
0.0163974
0.0163859
0.0164388
0.0165433
0.0166745
0.0168421
0.0170736
0.0173498
0.0176292
0.0179116
0.0181606
0.0182984
0.0182648
0.0181459
0.0182706
0.0196095
0.0234529
0.0287703
0.0328879
8.65289e-06
0.000933415
0.0123553
0.0215963
0.026541
0.0282059
0.0277629
0.0261007
0.0239874
0.0218765
0.0200154
0.0185049
0.0173647
0.0165183
0.0157874
0.0150374
0.0142567
0.0135262
0.0129168
0.0124464
0.0121993
0.0121561
0.0122179
0.0123973
0.0128151
0.0131938
0.0133716
0.0133871
0.0133513
0.013299
0.0132809
0.013273
0.0132554
0.0132679
0.013361
0.0135296
0.0137595
0.0138858
0.0139423
0.0139524
0.0139813
0.014068
0.0141937
0.0143179
0.0144136
0.0144728
0.0145063
0.0145251
0.01449
0.0144039
0.0143023
0.0142206
0.0141221
0.0140179
0.0139826
0.0140206
0.0140895
0.0141701
0.0142389
0.0142515
0.0141488
0.0138939
0.0135126
0.0130986
0.0127117
0.0123743
0.0121111
0.0118977
0.0117006
0.0115395
0.0114121
0.0114406
0.0116716
0.0120628
0.0125011
0.0128839
0.0131671
0.013372
0.0135343
0.0136555
0.0136788
0.0136511
0.0135614
0.01348
0.0134522
0.0135099
0.0136795
0.0139991
0.0144555
0.0148306
0.0149116
0.0147101
0.0143652
0.0141334
0.0141124
0.0141881
0.0142105
0.0140974
0.0138584
0.013417
0.0129173
0.0124448
0.0120636
0.0118067
0.0117509
0.0122426
0.0143496
0.0193719
0.0243493
0.0274558
0.0282032
0.0271639
0.0256183
0.0234022
0.0209803
0.0184874
0.0161253
0.0140135
0.012196
0.0106715
0.0094209
0.00842567
0.00767075
0.00712955
0.00675076
0.00655884
0.00647381
0.00665773
0.00727032
0.00852032
0.0104299
0.0125085
0.0142912
0.0156109
0.0168014
0.0183351
0.0201498
0.0218179
0.0225928
0.0224327
0.0215205
0.020203
0.0187883
0.0174777
0.0163949
0.0155864
0.015007
0.0145919
0.0142492
0.0138511
0.0133003
0.0126758
0.0121034
0.011665
0.0113983
0.0113841
0.0117694
0.0126204
0.0135089
0.0140129
0.0141185
0.0139469
0.0135885
0.0131965
0.0127973
0.0124056
0.0121063
0.0119226
0.011919
0.01211
0.0124402
0.0128504
0.0131134
0.0132468
0.0132393
0.0131396
0.0129333
0.0127275
0.0126507
0.0127629
0.0130509
0.0135011
0.0139074
0.0141542
0.0142879
0.0143285
0.014291
0.0141589
0.0139977
0.0138834
0.0137673
0.01368
0.0136579
0.0136505
0.0136716
0.0137169
0.0137493
0.0137414
0.0136846
0.0135908
0.0135049
0.0134418
0.0133872
0.0133604
0.0133755
0.0134218
0.0134896
0.0136227
0.0138419
0.0141182
0.0143842
0.0146122
0.0148051
0.0148899
0.0149958
0.0151078
0.0152198
0.0152969
0.0151983
0.0149986
0.0147638
0.0145403
0.0142547
0.0140153
0.0138097
0.0136742
0.0135549
0.0135236
0.0135244
0.0135911
0.0137192
0.0138873
0.0140893
0.0143282
0.0145616
0.0147011
0.0147058
0.0147382
0.0152871
0.0174464
0.0212448
0.0246878
9.00765e-06
8.89681e-06
0.00126124
0.0101658
0.0166245
0.0197667
0.020666
0.0203105
0.0192121
0.0178485
0.0165214
0.0153613
0.0144311
0.0137526
0.0132111
0.012611
0.0120127
0.0114797
0.0109821
0.0104574
0.0100631
0.00989295
0.00983607
0.00996087
0.010383
0.0110296
0.0114735
0.0115125
0.0114438
0.0113001
0.0111348
0.0109811
0.010832
0.0106984
0.0106068
0.0105766
0.010592
0.01061
0.0106384
0.0106053
0.0105515
0.0105288
0.0105521
0.0106085
0.0106824
0.0107646
0.010853
0.0109643
0.0110707
0.0111148
0.0111173
0.0111138
0.0110938
0.0110839
0.0110961
0.0111566
0.01125
0.0113393
0.0114243
0.0114877
0.0115068
0.0114489
0.011305
0.0111344
0.0109393
0.0106857
0.0104152
0.010157
0.00991158
0.00967324
0.00944656
0.00929697
0.00931993
0.00959975
0.00998734
0.0102989
0.0104625
0.0105188
0.0105319
0.0105471
0.0104974
0.0104057
0.0103935
0.0103423
0.010271
0.0102088
0.010283
0.0106539
0.0112091
0.0117165
0.0119899
0.0119525
0.0117451
0.0115009
0.0114424
0.0114948
0.011529
0.0115316
0.0114833
0.0113289
0.0110586
0.0107309
0.0104014
0.0100983
0.00996267
0.0104793
0.0133474
0.0185648
0.0226005
0.0245481
0.0246164
0.0233479
0.0216046
0.0196271
0.0176674
0.0157785
0.0139944
0.0123424
0.0108523
0.00955975
0.00849081
0.00765677
0.00703761
0.0065872
0.00623411
0.00603894
0.00593804
0.00602446
0.00637865
0.00717308
0.00848341
0.0101295
0.0116676
0.0128077
0.0137165
0.0144973
0.0153875
0.0165086
0.0175456
0.0179403
0.017768
0.0169959
0.0160068
0.0149866
0.014037
0.0132287
0.0125841
0.0120982
0.0117467
0.0114445
0.0110912
0.0106283
0.0101273
0.00966616
0.00930292
0.00917393
0.00954949
0.0104195
0.011712
0.0124449
0.0125767
0.0123672
0.0119545
0.0114338
0.0110389
0.0106411
0.010249
0.00991264
0.00967373
0.00955778
0.00957612
0.00968745
0.00985154
0.0100747
0.0102033
0.0101848
0.0101578
0.0100797
0.0100249
0.0100198
0.0100583
0.010194
0.010427
0.0106871
0.0108554
0.0109826
0.0110773
0.0111205
0.0110464
0.0109447
0.0108705
0.0108082
0.0107752
0.0107493
0.0107567
0.0107912
0.0108052
0.0108383
0.010844
0.0108215
0.0107816
0.010736
0.0106793
0.0106236
0.0105854
0.0105583
0.0105501
0.0106546
0.0108789
0.0112206
0.0116161
0.0120335
0.0124525
0.0128335
0.0131612
0.0134749
0.0137406
0.0138226
0.0136992
0.0135418
0.013308
0.0130141
0.0126961
0.012377
0.0120559
0.0117473
0.0114689
0.0112129
0.0110227
0.0108423
0.0107883
0.0107734
0.0108077
0.010905
0.0110636
0.0112199
0.0113024
0.0113191
0.0114379
0.0121786
0.0141909
0.0166385
9.0026e-06
9.02282e-06
9.5647e-06
0.000466259
0.00500021
0.0102588
0.012844
0.0138258
0.0139413
0.0137153
0.0132554
0.0127172
0.0121472
0.0116281
0.0111724
0.01068
0.0101918
0.00975194
0.00931523
0.00886354
0.00844076
0.00815627
0.00802767
0.00822893
0.00892513
0.0100309
0.0107989
0.0109518
0.010765
0.010497
0.0101241
0.00975231
0.00940917
0.00911165
0.00886192
0.00865866
0.00849446
0.00835453
0.00822292