/*--------------------------------*- C++ -*----------------------------------*\
  =========                 |
  \\      /  F ield         | OpenFOAM: The Open Source CFD Toolbox
   \\    /   O peration     | Website:  https://openfoam.org
    \\  /    A nd           | Version:  7
     \\/     M anipulation  |
\*---------------------------------------------------------------------------*/
FoamFile
{
    version     2.0;
    format      ascii;
    class       volScalarField;
    location    "150";
    object      p;
}
// * * * * * * * * * * * * * * * * * * * * * * * * * * * * * * * * * * * * * //

dimensions      [0 2 -2 0 0 0 0];

internalField   nonuniform List<scalar> 
96800
(
51.1284
51.1284
51.1283
51.1283
51.1283
51.1283
51.1283
51.1283
51.1283
51.1283
51.1283
51.1283
51.1283
51.1283
51.1283
51.1283
51.1283
51.1283
51.1283
51.1283
51.1283
51.1283
51.1284
51.1284
51.1284
51.1283
51.1283
51.1283
51.1283
51.1283
51.1283
51.1283
51.1283
51.1283
51.1283
51.1283
51.1283
51.1283
51.1283
51.1283
51.1283
51.1283
51.1283
51.1283
51.1284
51.1284
51.1284
51.1284
51.1283
51.1283
51.1283
51.1283
51.1283
51.1284
51.1284
51.1283
51.1283
51.1283
51.1283
51.1283
51.1284
51.1284
51.1284
51.1284
51.1284
51.1284
51.1284
51.1284
51.1284
51.1284
51.1284
51.1284
51.1284
51.1284
51.1284
51.1284
51.1284
51.1284
51.1284
51.1284
51.1284
51.1284
51.1284
51.1284
51.1284
51.1284
51.1285
51.1285
51.1284
51.1285
51.1285
51.1285
51.1285
51.1285
51.1285
51.1285
51.1285
51.1285
51.1285
51.1285
51.1285
51.1285
51.1285
51.1285
51.1285
51.1285
51.1285
51.1285
51.1285
51.1286
51.1285
51.1285
51.1285
51.1286
51.1286
51.1286
51.1286
51.1286
51.1286
51.1286
51.1286
51.1286
51.1286
51.1286
51.1286
51.1286
51.1286
51.1286
51.1286
51.1286
51.1286
51.1287
51.1286
51.1286
51.1286
51.1286
51.1287
51.1287
51.1287
51.1287
51.1287
51.1287
51.1287
51.1287
51.1287
51.1287
51.1287
51.1287
51.1287
51.1287
51.1287
51.1288
51.1288
51.1288
51.1287
51.1287
51.1287
51.1287
51.1288
51.1288
51.1288
51.1288
51.1288
51.1288
51.1288
51.1288
51.1288
51.1288
51.1288
51.1288
51.1288
51.1289
51.1289
51.1289
51.1289
51.1289
51.1288
51.1288
51.1288
51.1288
51.1289
51.1289
51.1289
51.1289
51.1289
51.1289
51.1289
51.1289
51.1289
51.129
51.129
51.129
51.129
51.129
51.129
51.1291
51.1291
51.1291
51.1289
51.1289
51.1289
51.129
51.129
51.129
51.129
51.129
51.129
51.129
51.129
51.1291
51.1291
51.1291
51.1291
51.1292
51.1292
51.1292
51.1292
51.1292
51.1292
51.1292
51.129
51.129
51.129
51.1291
51.1291
51.1291
51.1291
51.1291
51.1292
51.1292
51.1292
51.1292
51.1292
51.1293
51.1293
51.1294
51.1294
51.1294
51.1294
51.1294
51.1294
51.1294
51.1291
51.1291
51.1292
51.1292
51.1292
51.1292
51.1292
51.1293
51.1293
51.1293
51.1293
51.1294
51.1294
51.1294
51.1295
51.1295
51.1296
51.1296
51.1296
51.1296
51.1296
51.1296
51.1292
51.1292
51.1293
51.1293
51.1293
51.1293
51.1294
51.1294
51.1294
51.1295
51.1295
51.1296
51.1296
51.1296
51.1297
51.1297
51.1298
51.1298
51.1298
51.1298
51.1298
51.1298
51.1293
51.1293
51.1294
51.1294
51.1294
51.1294
51.1295
51.1295
51.1296
51.1296
51.1297
51.1298
51.1298
51.1298
51.1299
51.1299
51.1299
51.13
51.13
51.13
51.13
51.13
51.1294
51.1294
51.1295
51.1295
51.1295
51.1296
51.1296
51.1297
51.1297
51.1298
51.1299
51.1299
51.13
51.13
51.1301
51.1301
51.1302
51.1302
51.1302
51.1302
51.1303
51.1303
51.1295
51.1295
51.1296
51.1296
51.1296
51.1297
51.1297
51.1298
51.1299
51.13
51.1301
51.1301
51.1302
51.1303
51.1303
51.1303
51.1304
51.1304
51.1304
51.1305
51.1305
51.1305
51.1296
51.1296
51.1297
51.1297
51.1297
51.1298
51.1299
51.1299
51.13
51.1301
51.1302
51.1303
51.1304
51.1305
51.1305
51.1306
51.1306
51.1307
51.1307
51.1307
51.1307
51.1308
51.1298
51.1298
51.1298
51.1298
51.1299
51.1299
51.13
51.1301
51.1302
51.1303
51.1304
51.1305
51.1306
51.1307
51.1307
51.1308
51.1309
51.1309
51.131
51.131
51.131
51.131
51.1299
51.1299
51.1299
51.1299
51.13
51.1301
51.1301
51.1302
51.1303
51.1304
51.1305
51.1307
51.1308
51.1309
51.131
51.1311
51.1311
51.1312
51.1312
51.1313
51.1313
51.1313
51.13
51.13
51.13
51.13
51.1301
51.1302
51.1303
51.1304
51.1305
51.1306
51.1307
51.1308
51.131
51.1311
51.1312
51.1313
51.1314
51.1315
51.1315
51.1316
51.1316
51.1316
51.13
51.13
51.1301
51.1301
51.1302
51.1303
51.1304
51.1305
51.1306
51.1307
51.1309
51.131
51.1312
51.1313
51.1315
51.1316
51.1317
51.1317
51.1318
51.1319
51.1319
51.1319
51.1301
51.1301
51.1302
51.1302
51.1303
51.1304
51.1305
51.1306
51.1308
51.1309
51.131
51.1312
51.1314
51.1316
51.1317
51.1318
51.132
51.132
51.1321
51.1322
51.1322
51.1322
51.1301
51.1301
51.1302
51.1302
51.1303
51.1305
51.1306
51.1307
51.1309
51.1311
51.1312
51.1314
51.1316
51.1318
51.132
51.1321
51.1322
51.1323
51.1324
51.1325
51.1325
51.1325
51.1301
51.1301
51.1302
51.1303
51.1304
51.1305
51.1307
51.1308
51.131
51.1312
51.1314
51.1316
51.1318
51.132
51.1322
51.1324
51.1326
51.1327
51.1328
51.1328
51.1329
51.1329
51.13
51.1301
51.1301
51.1302
51.1304
51.1305
51.1307
51.1309
51.1311
51.1313
51.1316
51.1318
51.132
51.1323
51.1325
51.1327
51.1329
51.133
51.1331
51.1332
51.1333
51.1333
51.1299
51.13
51.13
51.1301
51.1303
51.1305
51.1307
51.1309
51.1312
51.1314
51.1317
51.132
51.1323
51.1325
51.1328
51.133
51.1332
51.1334
51.1335
51.1336
51.1337
51.1338
51.1298
51.1298
51.1299
51.13
51.1302
51.1304
51.1306
51.1309
51.1312
51.1315
51.1318
51.1322
51.1325
51.1328
51.1331
51.1334
51.1336
51.1338
51.134
51.1341
51.1342
51.1343
51.1296
51.1296
51.1297
51.1299
51.13
51.1303
51.1306
51.1309
51.1312
51.1316
51.1319
51.1323
51.1327
51.1331
51.1334
51.1337
51.134
51.1343
51.1345
51.1346
51.1347
51.1348
51.1293
51.1293
51.1295
51.1296
51.1299
51.1301
51.1304
51.1308
51.1312
51.1316
51.1321
51.1325
51.1329
51.1334
51.1338
51.1341
51.1345
51.1348
51.135
51.1352
51.1353
51.1354
51.129
51.129
51.1292
51.1294
51.1296
51.1299
51.1303
51.1307
51.1311
51.1316
51.1321
51.1327
51.1332
51.1337
51.1341
51.1346
51.135
51.1353
51.1356
51.1358
51.136
51.136
51.1286
51.1286
51.1288
51.129
51.1293
51.1297
51.1301
51.1306
51.1311
51.1316
51.1322
51.1328
51.1334
51.134
51.1345
51.135
51.1355
51.1359
51.1362
51.1365
51.1367
51.1367
51.128
51.1281
51.1282
51.1285
51.1289
51.1293
51.1298
51.1304
51.131
51.1316
51.1323
51.133
51.1336
51.1343
51.135
51.1356
51.1361
51.1366
51.1369
51.1373
51.1375
51.1375
51.1273
51.1273
51.1275
51.1279
51.1283
51.1288
51.1294
51.1301
51.1308
51.1316
51.1323
51.1331
51.1339
51.1347
51.1354
51.1361
51.1368
51.1373
51.1377
51.1381
51.1383
51.1384
51.1263
51.1263
51.1266
51.127
51.1275
51.1282
51.1289
51.1297
51.1306
51.1315
51.1324
51.1333
51.1342
51.1351
51.1359
51.1367
51.1375
51.1381
51.1386
51.139
51.1393
51.1394
51.125
51.125
51.1253
51.1258
51.1265
51.1273
51.1282
51.1291
51.1302
51.1312
51.1323
51.1334
51.1344
51.1355
51.1365
51.1374
51.1382
51.139
51.1396
51.1401
51.1404
51.1405
51.1232
51.1232
51.1236
51.1242
51.125
51.126
51.1271
51.1283
51.1296
51.1309
51.1322
51.1335
51.1347
51.1359
51.1371
51.1382
51.1391
51.14
51.1407
51.1412
51.1416
51.1418
51.1208
51.1208
51.1213
51.1221
51.1231
51.1243
51.1257
51.1272
51.1288
51.1304
51.132
51.1335
51.135
51.1364
51.1378
51.139
51.1401
51.1411
51.1419
51.1425
51.1429
51.1431
51.1176
51.1176
51.1183
51.1193
51.1206
51.1221
51.1238
51.1257
51.1276
51.1296
51.1316
51.1335
51.1353
51.1369
51.1385
51.1399
51.1412
51.1423
51.1432
51.1439
51.1444
51.1446
51.1134
51.1134
51.1143
51.1155
51.1172
51.1191
51.1213
51.1236
51.126
51.1285
51.1309
51.1332
51.1354
51.1374
51.1393
51.1409
51.1424
51.1437
51.1447
51.1455
51.146
51.1463
51.1079
51.1079
51.109
51.1106
51.1127
51.1151
51.1179
51.1208
51.1238
51.1268
51.1298
51.1326
51.1353
51.1378
51.14
51.142
51.1437
51.1452
51.1464
51.1473
51.1479
51.1482
51.1006
51.1006
51.102
51.1041
51.1068
51.1099
51.1133
51.117
51.1207
51.1244
51.1281
51.1316
51.1349
51.1379
51.1406
51.1431
51.1451
51.1469
51.1483
51.1492
51.1499
51.1503
51.0909
51.091
51.0928
51.0955
51.099
51.1029
51.1072
51.1118
51.1164
51.1211
51.1256
51.13
51.134
51.1377
51.1411
51.144
51.1466
51.1487
51.1503
51.1515
51.1522
51.1525
51.0781
51.0782
51.0805
51.0841
51.0885
51.0935
51.099
51.1047
51.1106
51.1165
51.1221
51.1275
51.1325
51.1371
51.1412
51.1448
51.1479
51.1505
51.1525
51.1538
51.1547
51.155
51.0608
51.061
51.0641
51.0688
51.0744
51.0809
51.0879
51.0951
51.1026
51.1099
51.117
51.1238
51.13
51.1357
51.1408
51.1452
51.1491
51.1522
51.1547
51.1563
51.1572
51.1576
51.0377
51.0378
51.042
51.0481
51.0555
51.0638
51.0727
51.082
51.0915
51.1008
51.1098
51.1182
51.126
51.1332
51.1395
51.145
51.1498
51.1537
51.1568
51.1588
51.1597
51.16
51.0065
51.0066
51.012
51.0201
51.0298
51.0406
51.0522
51.0641
51.0761
51.088
51.0994
51.1101
51.12
51.129
51.1369
51.1438
51.1496
51.1545
51.1583
51.1609
51.162
51.1622
50.9643
50.9644
50.9715
50.9823
50.9951
51.0092
51.0241
51.0394
51.0549
51.0701
51.0847
51.0984
51.111
51.1223
51.1323
51.1409
51.1482
51.1542
51.1591
51.1623
51.1636
51.1635
50.9072
50.9072
50.9165
50.931
50.9478
50.9662
50.9857
51.0056
51.0257
51.0455
51.0643
51.0818
51.0978
51.1121
51.1247
51.1355
51.1446
51.1522
51.1582
51.1623
51.1639
51.1634
50.8302
50.8298
50.8418
50.8611
50.8836
50.9079
50.9335
50.9598
50.986
51.0116
51.0358
51.0582
51.0787
51.0969
51.1128
51.1265
51.1379
51.1472
51.1546
51.16
51.1618
51.1608
50.7265
50.7251
50.7405
50.7665
50.7969
50.8292
50.8632
50.8981
50.9326
50.9657
50.9969
51.0257
51.0517
51.0748
51.0948
51.1119
51.1262
51.1377
51.1468
51.1535
51.1558
51.1541
50.5871
50.5838
50.6035
50.6389
50.6802
50.7234
50.769
50.8154
50.8609
50.9041
50.9443
50.981
51.0139
51.0428
51.0678
51.0891
51.1067
51.1209
51.1322
51.1404
51.1435
51.1407
50.4001
50.394
50.4193
50.467
50.523
50.5813
50.6427
50.7049
50.7652
50.8219
50.8737
50.9202
50.9613
50.9971
51.0281
51.0543
51.0759
51.0933
51.107
51.1172
51.1213
51.1171
50.1513
50.1403
50.1725
50.2356
50.3118
50.3923
50.4762
50.5602
50.6404
50.7146
50.7811
50.8396
50.8904
50.9342
50.9715
51.003
51.0289
51.0498
51.0662
51.0786
51.0836
51.0775
49.8203
49.8029
49.844
49.9279
50.0332
50.1466
50.2624
50.3756
50.4816
50.5776
50.6617
50.7341
50.796
50.8487
50.8931
50.9299
50.9599
50.984
51.0028
51.0169
51.0226
51.0139
49.3788
49.3552
49.4098
49.5251
49.6731
49.8324
49.9914
50.1425
50.2808
50.4027
50.5066
50.5943
50.6687
50.7313
50.7833
50.8258
50.8599
50.8865
50.9067
50.9217
50.9271
50.9142
48.7913
48.7619
48.8376
48.9995
49.2099
49.4324
49.6484
49.8491
50.0274
50.1796
50.3056
50.4096
50.4962
50.568
50.6268
50.6748
50.7135
50.7432
50.7644
50.7785
50.7807
50.7603
48.0091
47.9758
48.0839
48.314
48.6128
48.9212
49.2135
49.4787
49.7067
49.8953
50.0472
50.1688
50.2664
50.3449
50.4082
50.4595
50.5009
50.5329
50.555
50.5667
50.5617
50.5268
46.9578
46.927
47.085
47.4149
47.8361
48.2603
48.6572
49.0079
49.2998
49.5347
49.7182
49.8591
49.9664
50.0476
50.1107
50.1607
50.2
50.2298
50.2492
50.2563
50.239
50.1784
45.5291
45.5082
45.7443
46.2217
46.8151
47.4028
47.9465
48.4113
48.7864
49.0792
49.2998
49.4607
49.5745
49.6529
49.7077
49.7481
49.7792
49.8017
49.813
49.8094
49.7693
49.6625
43.5575
43.5543
43.9209
44.6235
45.472
46.2993
47.0465
47.6604
48.1409
48.5035
48.7664
48.9485
49.0672
49.1386
49.1771
49.1964
49.2063
49.2093
49.2007
49.1718
49.0821
48.8895
40.7823
40.8164
41.425
42.489
43.7257
44.9007
45.9198
46.7266
47.338
47.7819
48.0903
48.294
48.4173
48.4795
48.4965
48.4829
48.4513
48.4081
48.3506
48.2645
48.0728
47.7353
36.7711
36.9016
38.0194
39.6819
41.4939
43.1579
44.5328
45.5863
46.3541
46.8889
47.2442
47.4661
47.588
47.6324
47.6161
47.5514
47.4499
47.3202
47.1636
46.9593
46.5708
46.0133
30.8729
31.1446
33.5494
36.1631
38.744
41.0415
42.8681
44.2159
45.1584
45.789
46.1906
46.4272
46.5404
46.5551
46.4852
46.3371
46.1153
45.827
45.4807
45.0418
44.2262
43.409
22.1153
22.1677
27.3269
31.9305
35.5805
38.54
40.9118
42.586
43.7076
44.4312
44.8782
45.1313
45.2362
45.2129
45.0641
44.7835
44.3583
43.7744
43.0386
42.166
39.7333
37.5521
9.12588
7.24291
16.838
25.2431
31.3715
35.6109
38.6684
40.6798
41.9675
42.7774
43.271
43.5424
43.637
43.5664
43.3147
42.8486
42.1112
41.0048
39.322
35.984
30.873
26.3032
-1.09068
-24.3362
1.51785
17.5942
26.4924
32.5286
36.229
38.5009
39.918
40.8011
41.3348
41.6201
41.7013
41.5782
41.2088
40.5184
39.373
37.5246
34.3183
27.5656
13.4368
-4.46175
-62.5538
21.8778
29.2752
25.9366
25.146
25.687
25.5387
26.5764
27.0477
27.2166
27.0424
26.6151
26.3834
26.1377
25.5594
25.1175
24.7664
24.3839
24.5291
24.4071
24.3352
24.2067
23.9456
24.1233
24.0663
24.0716
23.9052
23.6064
23.3831
23.0519
23.2347
23.425
23.6515
23.8632
24.0118
24.1372
24.2104
24.19
24.2751
24.2793
24.1712
24.1437
24.1211
24.1891
24.0204
24.138
24.3042
24.4369
24.4273
24.3955
24.4419
24.1941
23.9676
23.4995
23.3328
23.1339
22.9187
22.7413
22.467
22.1377
21.7966
21.4741
20.976
21.1244
21.3694
21.2283
21.2104
21.0482
20.9133
20.8416
20.6917
20.6418
20.5457
20.4356
20.2641
20.2911
20.2202
20.3198
20.4575
20.5267
20.6341
20.794
20.9208
21.1942
21.4308
21.5931
21.8122
21.7205
21.5029
21.0421
20.6128
19.8911
19.1599
19.3367
19.7587
20.0074
20.0058
19.8667
19.754
19.5443
19.2941
19.2282
19.1627
18.9286
18.5257
18.0695
15.8713
14.192
12.1138
2.09693
-177.441
0.438149
2.68908
15.7602
24.2102
29.9963
33.7351
36.0655
37.5381
38.4677
39.0318
39.3315
39.4058
39.2409
38.7649
37.8466
36.2576
33.499
28.2319
16.3438
-11.5628
-74.0829
-278.252
-129.142
-26.7886
-18.0103
-10.2192
-3.80432
0.350641
3.10782
5.04363
6.23035
7.43814
8.586
9.57997
10.1321
10.2844
10.2431
10.1436
9.92638
9.49712
9.13445
8.83194
8.7046
8.77797
8.93338
9.22739
9.49561
9.68436
9.84878
9.85109
9.6074
9.57266
9.371
9.16189
8.94653
8.70545
8.45012
8.50072
8.68701
8.67004
8.55042
8.2714
7.9174
7.57161
7.23593
6.94373
7.07915
7.28343
7.3113
7.39084
7.36724
7.48452
7.71381
7.84659
7.97057
8.09105
7.75001
7.87796
7.97804
7.89969
7.8551
7.66411
7.56913
7.49285
7.2643
7.01565
6.76257
6.54816
6.50381
6.38934
6.36583
6.25697
6.24795
6.36594
6.42937
6.52884
6.63722
6.59589
6.38357
6.13089
5.81931
5.59301
5.28224
5.43756
5.54421
5.64935
5.64686
5.73392
5.81869
5.88288
6.05947
6.37044
6.70787
6.82173
6.91533
7.15313
7.43474
7.7972
8.04697
8.39591
8.80949
9.32972
9.97751
10.713
11.6306
12.8212
13.9135
15.2985
15.659
10.0773
-5.8769
44.1098
36.7595
25.6996
23.3209
23.2058
23.9586
24.6748
25.4453
26.1076
26.3748
26.3555
26.2391
26.1066
25.8617
25.3677
24.7653
24.2953
24.14
24.3426
24.505
24.3773
24.1613
24.0115
24.1119
24.266
24.1801
23.9406
23.6303
23.3466
23.1833
23.3112
23.5347
23.7331
23.9089
24.0804
24.233
24.2908
24.3148
24.3262
24.2939
24.2592
24.2397
24.1706
24.0971
24.0483
24.1516
24.3312
24.4659
24.4321
24.3985
24.3862
24.194
23.8651
23.5425
23.3573
23.1661
22.9739
22.7825
22.4631
22.0235
21.5289
21.0834
20.8261
20.9522
21.2148
21.2455
21.1184
20.9808
20.8752
20.7971
20.8034
20.8174
20.7281
20.569
20.4269
20.3513
20.32
20.3972
20.5206
20.6068
20.6698
20.7403
20.8747
21.1742
21.4973
21.723
21.9181
21.9112
21.6753
21.0952
20.1725
19.3145
18.9619
19.2949
19.7781
20.0214
19.9968
19.7867
19.5436
19.3363
19.266
19.3724
19.4361
19.3357
19.1255
18.7738
17.9555
17.822
19.1871
32.1245
-75.4085
-21.8246
2.77131
14.5215
22.552
27.7777
31.1845
33.3902
34.8499
35.8057
36.4009
36.7281
36.8119
36.6228
36.0667
34.9769
33.0681
29.7281
23.6401
11.549
-12.1232
-53.3352
-113.845
-88.3039
-24.8753
-15.5087
-7.9281
-2.57093
0.750437
2.87532
4.47182
5.82654
7.20408
8.53282
9.53889
10.1176
10.3045
10.2677
10.0195
9.60215
9.17038
8.88371
8.70381
8.66114
8.83327
9.15268
9.48974
9.71898
9.8279
9.85962
9.78112
9.59991
9.45015
9.25596
9.05563
8.90447
8.79034
8.69843
8.77797
8.89952
8.83744
8.64026
8.29791
7.86546
7.41793
7.07225
6.95044
7.10993
7.38854
7.55659
7.5971
7.51042
7.5165
7.69101
7.85311
7.90966
7.85
7.77479
7.82501
7.92771
7.91401
7.8411
7.74918
7.66373
7.54762
7.3057
7.00017
6.71388
6.50482
6.41514
6.37477
6.31617
6.26409
6.31922
6.4338
6.52497
6.62836
6.73516
6.69612
6.41414
6.02993
5.68016
5.42938
5.30515
5.36801
5.47582
5.5497
5.60591
5.67604
5.74818
5.81726
6.00046
6.35212
6.69443
6.8677
7.00609
7.22325
7.48085
7.80131
8.14469
8.46406
8.82213
9.30423
9.9189
10.647
11.4847
12.4453
13.6096
15.6801
17.3616
17.2631
40.7973
36.9667
35.289
29.0901
26.1463
24.3085
23.5853
23.7768
24.4014
24.9852
25.3398
25.5088
25.6586
25.7095
25.4824
24.9076
24.1963
23.7146
23.7532
24.1204
24.4633
24.3348
24.1262
24.0195
24.1894
24.3868
24.272
23.9654
23.6116
23.313
23.1979
23.3975
23.6097
23.7687
23.9632
24.2284
24.4278
24.4503
24.4006
24.3911
24.3681
24.3814
24.377
24.2808
24.1477
24.1251
24.2536
24.4394
24.5297
24.3574
24.2298
24.2207
24.0958
23.7382
23.4655
23.3302
23.1678
23.0078
22.7841
22.4183
21.889
21.2739
20.7276
20.5458
20.7206
21.0586
21.133
21.0279
20.9259
20.8471
20.7791
20.8957
20.9938
20.935
20.7713
20.5925
20.4529
20.4222
20.5343
20.6652
20.7263
20.7134
20.6865
20.7861
21.147
21.5544
21.9049
22.2984
22.3232
21.8674
21.0202
19.7172
18.6752
18.59
19.2967
19.9988
20.2291
20.0834
19.7323
19.3284
19.1044
19.1763
19.3687
19.5416
19.5732
19.6055
19.7802
19.8261
20.9456
19.8009
14.9824
-21.886
0.38816
8.36088
15.7412
21.8042
25.8383
28.6506
30.6203
32.0165
32.9871
33.6206
33.9855
34.0906
33.8941
33.2922
32.0987
30.0271
26.5786
20.7292
10.5965
-5.9274
-28.1336
-49.0376
-41.8762
-21.3534
-10.7737
-3.94888
-0.484468
1.68125
2.9276
4.15986
5.52307
6.99367
8.41835
9.50107
10.1416
10.3565
10.295
9.96824
9.38149
8.84321
8.5487
8.43533
8.51345
8.92335
9.50469
9.94445
10.1295
10.108
9.97009
9.76681
9.52868
9.2698
9.01512
8.84201
8.80023
8.80295
8.82012
8.99399
9.19417
9.05047
8.75277
8.29056
7.75321
7.19747
6.83446
6.80492
7.10775
7.61118
8.06879
7.96342
7.69344
7.5313
7.70825
7.84708
7.88076
7.79958
7.68982
7.74113
7.86756
7.94385
7.88595
7.83086
7.76845
7.58475
7.28674
6.92936
6.60867
6.35876
6.24423
6.29845
6.28555
6.30149
6.41693
6.57067
6.67019
6.77533
6.88909
6.80845
6.44844
5.98222
5.59937
5.33563
5.21973
5.25691
5.41211
5.49823
5.56341
5.61811
5.69757
5.74083
5.91976
6.31118
6.70057
6.87695
7.04089
7.25944
7.49401
7.79042
8.13821
8.41015
8.70678
9.14755
9.68827
10.2533
10.8503
11.6432
12.9679
15.1907
18.3369
22.3327
29.4897
32.5406
31.3951
28.52
26.7542
25.4165
24.5412
24.228
24.4232
24.699
24.9702
25.2074
25.4223
25.5111
25.2231
24.5987
23.8947
23.4877
23.6649
23.8896
24.0265
24.2199
24.1153
24.2076
24.4473
24.4929
24.3095
23.9747
23.6312
23.3483
23.317
23.491
23.6024
23.7049
23.9007
24.2103
24.4905
24.5658
24.5577
24.5084
24.472
24.5105
24.4984
24.3635
24.2168
24.23
24.3421
24.5467
24.5085
24.2331
24.0384
24.042
23.9612
23.5658
23.3222
23.2298
23.1035
22.9335
22.6885
22.2969
21.7513
21.1779
20.6303
20.4826
20.6848
20.9018
21.0254
21.0318
21.0205
20.948
20.885
20.9638
21.065
20.9735
20.8338
20.6697
20.579
20.559
20.6699
20.7924
20.8097
20.747
20.6158
20.674
20.9524
21.4275
21.8581
22.3717
22.5356
22.0157
20.7519
19.1734
18.088
18.2722
19.2649
20.1828
20.47
20.2831
19.9532
19.401
19.2102
19.2313
19.3865
19.5582
19.7149
19.9858
20.5428
21.0712
20.9674
19.6089
18.5668
1.4744
10.1364
14.0776
17.8264
21.5848
24.3274
26.4671
28.123
29.3861
30.3207
30.9729
31.3666
31.4816
31.2659
30.628
29.411
27.3571
24.1308
19.1035
11.4459
0.847935
-11.3131
-21.7175
-20.5933
-12.0347
-5.42336
-0.700676
2.2268
3.07724
3.69126
4.81484
6.05057
7.31755
8.50995
9.48107
10.1488
10.4254
10.4413
10.1364
9.46947
8.76535
8.32076
8.25604
8.53486
9.1026
9.76737
10.1761
10.311
10.2306
10.0131
9.78335
9.50886
9.2214
8.87913
8.7305
8.7275
8.74585
8.76344
8.96741
9.00202
8.98948
8.669
8.18655
7.65839
7.15158
6.82643
6.82802
7.11519
7.53685
7.82795
7.67979
7.922
7.86248
7.89745
7.98669
7.99141
7.9305
7.80286
7.78619
7.84991
8.05239
7.93665
7.90332
7.75939
7.52334
7.18319
6.8104
6.47931
6.23636
6.1452
6.21984
6.29888
6.37581
6.51565
6.67432
6.7597
6.83257
6.84032
6.75109
6.4226
6.01878
5.70049
5.40109
5.21463
5.17622
5.31733
5.44111
5.56293
5.6608
5.75087
5.79702
5.89679
6.18332
6.46836
6.71229
6.91808
7.16117
7.39093
7.64338
7.84767
8.10394
8.3613
8.72776
9.16993
9.52356
9.79722
10.1828
10.9383
12.0937
13.0041
15.8118
19.8884
29.7676
29.1541
27.3914
26.2345
25.7672
25.444
25.198
24.9981
24.8466
24.9704
25.1728
25.362
25.3885
25.0961
24.5269
23.9359
23.6537
23.6536
23.6029
23.5437
23.8941
24.145
24.4167
24.6022
24.5534
24.3456
24.0116
23.7529
23.5424
23.5163
23.6052
23.6439
23.6915
23.823
24.0685
24.404
24.556
24.6584
24.6454
24.6062
24.5983
24.5349
24.3731
24.2206
24.2363
24.3567
24.4817
24.4302
24.1148
23.8605
23.8229
23.7911
23.5024
23.2797
23.0716
23.0649
22.8192
22.4975
22.0966
21.591
21.0063
20.6981
20.6478
20.7569
20.8451
20.8528
20.9137
21.018
20.9462
20.9427
20.9462
20.9698
20.9662
20.8677
20.7702
20.7435
20.7423
20.7922
20.8475
20.8329
20.776
20.6017
20.5758
20.7481
21.1328
21.7038
22.172
22.2587
21.6146
20.3284
18.645
17.605
18.0753
19.1176
20.1958
20.5801
20.3299
19.9693
19.6798
19.3912
19.3638
19.4267
19.5793
19.8169
20.3194
21.0752
20.6076
18.7002
16.2615
16.2051
11.444
15.4043
18.0751
19.7955
21.6447
23.3849
24.9329
26.2565
27.3437
28.1963
28.8133
29.1716
29.2334
28.9494
28.2449
27.0135
25.0756
22.2251
18.1594
12.6168
5.87769
-0.636001
-4.22413
-4.3463
-2.95361
0.0325682
2.53033
3.86025
4.53782
5.05066
6.07097
7.11624
8.06687
8.90899
9.64167
10.1613
10.4689
10.5716
10.3632
9.74263
8.8615
8.19987
8.22239
8.72319
9.32092
9.86934
10.0946
10.1492
10.0982
10.0064
9.8086
9.53506
9.24228
8.97575
8.78478
8.72265
8.71468
8.68341
8.76364
8.82568
8.75798
8.45872
8.06362
7.63871
7.30836
7.11685
7.1277
7.27158
7.52132
7.53622
7.55651
7.77487
7.8627
8.06843
8.10408
8.08269
8.05399
8.03408
7.94567
7.74412
7.96671
8.04558
7.89377
7.68586
7.43201
7.08566
6.70365
6.36798
6.18463
6.16932
6.25672
6.35532
6.44473
6.54833
6.65558
6.74667
6.80306
6.73647
6.66993
6.40622
6.14446
5.8665
5.56507
5.3323
5.08715
5.22698
5.40423
5.58068
5.70561
5.85104
5.88655
5.88668
6.08153
6.2879
6.47803
6.69761
6.94455
7.14334
7.32359
7.52343
7.66623
7.86898
8.17688
8.52284
8.69295
8.6847
8.71848
8.92075
9.18852
9.103
8.66232
5.31766
28.1451
27.8148
26.9263
25.9515
25.4969
25.7464
25.6741
25.3646
24.9997
25.0538
25.1697
25.2837
25.2968
25.1012
24.7065
24.2664
23.9929
23.8235
23.5067
23.2166
23.5449
24.0115
24.5102
24.5124
24.4084
24.2441
24.1042
23.8906
23.7908
23.7431
23.7694
23.7747
23.7989
23.8559
24.0075
24.2316
24.422
24.5643
24.63
24.6113
24.5837
24.4814
24.3005
24.1497
24.1019
24.1488
24.2157
24.1736
23.9163
23.6795
23.6404
23.4761
23.4209
23.2475
23.2623
22.9598
22.682
22.3085
21.9129
21.4531
21.1017
20.9033
20.886
20.8857
20.8641
20.7518
20.7053
20.9007
20.9265
21.0001
21.0337
20.9629
20.9072
20.8429
20.815
20.8532
20.8459
20.8318
20.8342
20.803
20.6923
20.6266
20.5721
20.5478
20.8604
21.2618
21.655
21.698
21.2091
20.2103
18.8371
17.9954
18.2389
19.0905
19.8254
20.3409
20.1939
20.0085
19.8534
19.6034
19.4694
19.4553
19.4758
19.733
20.3253
21.1617
20.2685
18.0167
16.1884
15.1408
15.2843
17.9475
19.1836
20.1431
21.4045
22.7089
23.9138
24.9918
25.916
26.6613
27.1956
27.4692
27.4339
27.0405
26.2308
24.9504
23.1184
20.6483
17.4453
13.4907
9.07979
5.09891
2.66609
2.061
2.6472
3.90738
4.92798
5.30954
5.46166
6.21058
7.32661
8.25462
8.96614
9.50071
9.84632
10.1715
10.451
10.6159
10.4655
9.92332
9.07933
8.59378
8.62355
9.08684
9.61193
9.9483
9.99795
9.92335
9.89541
9.88049
9.78288
9.57769
9.31136
9.04258
8.82624
8.72001
8.65583
8.60221
8.59051
8.5818
8.48904
8.24663
7.98426
7.73566
7.56529
7.48191
7.49514
7.52603
7.59212
7.53062
7.43632
7.59592
7.86286
8.12519
8.20887
8.13779
8.0744
8.02919
7.93494
7.82101
7.85483
7.87656
7.807
7.64061
7.4323
7.12584
6.74586
6.40504
6.25778
6.28241
6.36648
6.44432
6.49656
6.55414
6.61332
6.64358
6.73344
6.66636
6.57525
6.44009
6.25916
6.04736
5.77395
5.43684
5.2832
5.31639
5.43354
5.61992
5.72921
5.78982
5.85187
5.87928
5.97702
6.12381
6.2787
6.44528
6.6386
6.83669
6.9879
7.10053
7.20262
7.36261
7.58271
7.83172
7.86467
7.70561
7.48847
7.27927
7.03757
6.48281
5.53267
6.27008
27.1656
26.9809
26.4896
25.9233
25.526
25.4898
25.5711
25.3979
25.2752
25.1764
25.1995
25.2663
25.2963
25.1188
24.8667
24.5743
24.3449
24.1789
23.9654
23.7248
23.7587
24.0043
23.9729
24.237
24.2247
24.1532
24.1168
24.0096
23.9741
23.9234
23.9062
23.9089
23.9278
23.9645
24.0409
24.1582
24.287
24.4046
24.4713
24.485
24.4836
24.3411
24.0931
23.9107
23.7973
23.7778
23.8225
23.7986
23.7063
23.6087
23.5681
23.495
23.4429
23.3655
23.0663
22.7789
22.6092
22.2864
21.9475
21.5417
21.2814
21.1856
21.1367
21.0449
20.9765
20.8068
20.7786
20.7955
20.8164
20.8685
20.9082
20.966
20.8738
20.8555
20.841
20.9284
20.8978
20.8662
20.8397
20.7576
20.6883
20.5749
20.4456
20.4319
20.5021
20.6894
20.9034
21.0076
20.8254
20.2934
19.7023
19.0625
19.1274
19.6135
20.0825
19.9792
19.9593
19.9807
19.9434
19.8176
19.5813
19.4024
19.2722
19.3361
19.7776
20.4291
19.5265
17.2402
15.4936
14.9086
16.1123
17.5424
18.8412
20.0191
21.1246
22.1587
23.1098
23.9866
24.7617
25.4032
25.8497
26.0338
25.8939
25.3799
24.4592
23.1256
21.3756
19.2408
16.7387
13.9432
11.0258
8.43501
6.72778
6.06436
6.10907
6.45003
6.64556
6.5422
6.54225
7.25941
8.27155
9.08552
9.67018
10.0127
10.1782
10.3547
10.4805
10.5428
10.4319
10.0951
9.56857
9.1901
9.2889
9.65232
10.0614
10.2118
10.0288
9.84363
9.80646
9.82312
9.74805
9.55435
9.3025
9.04355
8.83093
8.68795
8.60376
8.54587
8.50813
8.45313
8.34886
8.18568
8.0074
7.87251
7.78376
7.72391
7.70695
7.67762
7.69603
7.67123
7.62808
7.75553
7.95169
8.14805
8.19352
8.10597
8.02191
7.94696
7.84002
7.76308
7.67698
7.68953
7.71198
7.61202
7.42976
7.15141
6.89049
6.65943
6.48815
6.46755
6.45235
6.43538
6.50152
6.57835
6.58964
6.63079
6.62843
6.59628
6.51221
6.3891
6.21964
6.01406
5.81773
5.62644
5.51596
5.50346
5.48089
5.73222
5.76791
5.78921
5.8099
5.85343
5.90205
5.98913
6.09882
6.22893
6.35753
6.49406
6.60228
6.67676
6.74199
6.86661
7.00634
7.1023
7.05641
6.82504
6.47533
6.03058
5.4567
4.7278
3.65025
2.39239
26.5447
26.428
26.1096
25.7012
25.3101
25.0214
24.8517
24.9713
25.1978
25.0425
25.2277
25.3489
25.2881
25.1287
24.9429
24.7692
24.6418
24.5118
24.3115
24.107
23.9743
24.1432
24.1259
24.2414
24.216
24.051
24.0556
24.0504
24.0327
24.0057
23.9882
23.9829
23.9937
24.0196
24.0487
24.1107
24.1991
24.2511
24.3218
24.3567
24.3379
24.1923
23.8762
23.6547
23.5577
23.5046
23.5502
23.5929
23.5806
23.5605
23.5738
23.5294
23.4357
23.2299
22.9174
22.6991
22.5636
22.2915
22.001
21.7213
21.4994
21.3692
21.2758
21.1671
21.0884
20.9699
20.8922
20.8653
20.8583
20.8553
20.8718
20.8973
20.8924
20.9118
20.8984
20.8864
20.816
20.8372
20.7918
20.7699
20.6209
20.4336
20.2389
20.1332
20.1312
20.1986
20.3698
20.5698
20.6406
20.5939
20.4059
20.0721
20.0625
20.2706
20.3852
20.242
20.1968
20.1694
20.0208
19.7937
19.547
19.3023
19.0263
18.8452
18.9882
19.3227
18.5243
16.81
15.5285
15.5248
16.6269
17.9595
19.0944
20.0161
20.7833
21.5228
22.2543
22.9795
23.6675
24.1991
24.5883
24.6848
24.4396
23.8115
22.7982
21.4389
19.8025
17.983
16.0554
14.0895
12.1598
10.4589
9.20334
8.51268
8.24183
8.11055
7.9347
7.67433
7.71422
8.21513
8.92622
9.53723
10.0116
10.3136
10.451
10.506
10.5059
10.4609
10.3392
10.0987
9.78316
9.59004
9.72358
10.0718
10.3869
10.2904
9.93582
9.77552
9.78951
9.81104
9.71488
9.51138
9.26769
9.0192
8.8265
8.6846
8.59563
8.54356
8.5162
8.44701
8.37155
8.26995
8.1531
8.05652
7.99075
7.92344
7.81898
7.7662
7.78723
7.85731
7.97504
8.09593
8.18005
8.23277
8.22107
8.0665
7.9906
7.88749
7.73921
7.63565
7.57211
7.59686
7.67222
7.53909
7.40045
7.14395
6.90781
6.74839
6.77555
6.64972
6.53089
6.44514
6.45594
6.51425
6.56436
6.58984
6.58424
6.509
6.40964
6.30803
6.13126
5.93032
5.78102
5.67196
5.58846
5.54748
5.53338
5.59068
5.65578
5.68849
5.74686
5.62743
5.82652
5.86831
5.94837
6.05366
6.10564
6.19285
6.22078
6.25618
6.3306
6.37557
6.42884
6.45083
6.28628
6.01853
5.62599
5.09208
4.44174
3.59479
2.5023
1.13103
26.1442
26.0618
25.8201
25.463
25.0101
24.4628
23.8823
24.2922
24.8377
25.0483
25.1953
25.3863
25.3407
25.167
25.0071
24.8956
24.7778
24.6187
24.3889
24.1528
23.69
24.2249
24.3013
24.3205
24.1405
23.9214
23.9432
23.9544
23.9847
23.995
23.9933
23.9879
23.9901
24.0075
24.0274
24.0403
24.117
24.1767
24.2339
24.2679
24.3259
24.0942
23.7816
23.5586
23.5326
23.6199
23.5704
23.4524
23.4622
23.456
23.4633
23.4323
23.3154
23.1699
22.8856
22.7093
22.4843
22.3092
22.0881
21.8573
21.6568
21.5066
21.3896
21.2726
21.1752
21.0803
21.0125
20.9768
20.9553
20.9351
20.928
20.9407
20.9528
20.981
20.9249
20.9124
20.863
20.8622
20.8078
20.7194
20.5355
20.3329
20.1182
19.9636
19.9044
19.9639
20.1638
20.4127
20.5829
20.723
20.7146
20.5646
20.5738
20.7351
20.8753
20.835
20.658
20.3875
20.167
19.7799
19.5152
19.1908
18.8964
18.5711
18.4779
18.4112
18.0302
17.1149
16.6644
16.9821
17.8134
18.6469
19.2618
19.7467
20.1636
20.6555
21.2219
21.8416
22.5116
22.98
23.3287
23.3709
23.0561
22.3572
21.3199
20.0115
18.535
17.0183
15.54
14.1383
12.8539
11.7221
10.7797
10.0637
9.55241
9.16943
8.96762
8.86341
8.85613
9.04349
9.42587
9.88196
10.2644
10.5235
10.6381
10.6303
10.5484
10.416
10.2307
9.99546
9.78577
9.70011
9.82365
10.1198
10.1591
10.0758
9.82841
9.7402
9.78122
9.8027
9.68551
9.47415
9.23603
8.99766
8.82403
8.69994
8.6201
8.57011
8.53058
8.47787
8.48284
8.40652
8.31854
8.2399
8.18317
8.12736
8.04391
8.00281
8.0029
8.07806
8.19544
8.31022
8.40025
8.37572
8.26421
8.107
7.98707
7.79958
7.64808
7.52754
7.48293
7.51625
7.60385
7.57099
7.38258
7.09806
6.91523
6.78337
6.76753
6.6562
6.47706
6.53533
6.43278
6.52235
6.54309
6.5553
6.52584
6.44431
6.33007
6.21817
6.06316
5.91244
5.81007
5.70624
5.63766
5.58612
5.52534
5.52757
5.56496
5.60741
5.637
5.65637
5.6625
5.73554
5.79273
5.87201
5.92476
5.91185
5.94083
5.95822
5.96248
5.94187
5.85238
5.80316
5.62926
5.34706
4.95165
4.43013
3.73591
2.90288
1.8861
0.725482
25.9041
25.8387
25.6376
25.303
24.7904
24.0496
23.0776
23.7751
24.6096
24.9909
25.1645
25.2515
25.213
25.1933
25.0989
24.9311
24.7588
24.5414
24.3088
23.983
23.7111
23.8316
24.0259
24.1002
23.8595
23.7697
23.7709
23.8248
23.8926
23.9248
23.9326
23.9346
23.9369
23.9505
23.9715
24.0004
24.0519
24.1142
24.1929
24.2737
24.3544
24.1535
23.7586
23.5497
23.5237
23.6374
23.5745
23.4949
23.4106
23.3807
23.3417
23.2585
23.1113
23.0749
22.9351
22.7493
22.5139
22.3773
22.1516
21.9572
21.7823
21.6304
21.5043
21.3868
21.2833
21.1929
21.1312
21.1039
21.0884
21.0721
21.0615
21.0697
21.0852
21.0935
21.0606
20.9882
20.9351
20.896
20.8502
20.7452
20.5734