/*--------------------------------*- C++ -*----------------------------------*\
  =========                 |
  \\      /  F ield         | OpenFOAM: The Open Source CFD Toolbox
   \\    /   O peration     | Website:  https://openfoam.org
    \\  /    A nd           | Version:  7
     \\/     M anipulation  |
\*---------------------------------------------------------------------------*/
FoamFile
{
    version     2.0;
    format      ascii;
    class       surfaceScalarField;
    location    "150";
    object      phi;
}
// * * * * * * * * * * * * * * * * * * * * * * * * * * * * * * * * * * * * * //

dimensions      [0 3 -1 0 0 0 0];

internalField   nonuniform List<scalar> 
240592
(
2.9998e-11
-2.1757e-13
-2.97804e-11
-6.1362e-11
9.19163e-11
2.40969e-11
-5.46512e-11
-1.18052e-10
1.37994e-10
1.72379e-11
-3.7179e-11
1.56748e-10
5.76729e-12
-1.24657e-11
-1.50049e-10
-1.62133e-10
1.69518e-10
6.33005e-12
-1.37151e-11
-1.7943e-10
1.91473e-10
1.00805e-11
-2.21229e-11
-2.04099e-10
2.15873e-10
1.08436e-11
-2.2617e-11
-2.2568e-10
2.32687e-10
6.52896e-12
-1.35364e-11
-2.35784e-10
2.33721e-10
-1.4584e-12
3.52138e-12
-2.28376e-10
2.23194e-10
-3.33915e-12
8.52107e-12
-2.20807e-10
2.22183e-10
1.82933e-12
-3.20555e-12
-2.26553e-10
2.32558e-10
7.11778e-12
-1.31233e-11
-2.38379e-10
2.42619e-10
4.99629e-12
-9.23634e-12
2.46611e-10
1.02088e-12
-2.44674e-12
-2.45185e-10
-2.45805e-10
2.41895e-10
-2.17536e-12
6.08595e-12
-2.35369e-10
2.27447e-10
-6.05296e-12
1.39752e-11
-2.18992e-10
2.1008e-10
-7.26695e-12
1.61789e-11
-1.98786e-10
1.83133e-10
-1.26766e-11
2.83292e-11
-1.62618e-10
1.39967e-10
-1.91505e-11
4.18021e-11
-1.17712e-10
9.75354e-11
-1.63711e-11
3.65479e-11
-7.96428e-11
6.39386e-11
-1.13757e-11
2.70802e-11
-4.67012e-11
2.53495e-11
-1.16647e-11
3.30166e-11
5.88888e-11
4.55012e-11
-2.10185e-11
-8.33716e-11
1.18209e-10
-1.09438e-10
1.66664e-10
-2.34419e-12
-1.7309e-10
8.15473e-11
-2.17143e-10
2.61002e-10
-1.67956e-14
-1.25389e-10
3.53556e-11
-2.9708e-10
3.26399e-10
2.92196e-12
-6.7597e-11
3.68185e-11
-3.51784e-10
3.78298e-10
2.15885e-12
-6.54908e-11
5.45582e-11
-4.07876e-10
4.41225e-10
2.78751e-12
-9.06938e-11
5.33734e-11
-4.73885e-10
5.01583e-10
3.53699e-12
-8.46082e-11
3.09693e-11
-5.22016e-10
5.3702e-10
1.4913e-12
-4.74634e-11
-1.10126e-12
-5.47431e-10
5.55884e-10
1.80116e-12
-9.15262e-12
-1.13114e-11
-5.62608e-10
5.6811e-10
1.95385e-12
3.85558e-12
1.00216e-11
-5.72191e-10
5.75276e-10
9.71429e-13
-1.40779e-11
2.62152e-11
-5.75434e-10
5.72797e-10
3.27659e-12
-2.68536e-11
1.70846e-11
-5.66725e-10
5.59272e-10
3.9054e-12
-1.35369e-11
3.25295e-12
-5.49112e-10
5.37868e-10
4.08169e-12
3.90887e-12
-1.37423e-11
-5.23663e-10
5.07259e-10
3.28441e-12
2.68615e-11
-2.93106e-11
-4.87935e-10
4.67847e-10
2.80691e-12
4.65921e-11
-3.44529e-11
-4.47569e-10
4.27569e-10
5.99906e-13
5.38532e-11
-5.67079e-11
-4.05306e-10
3.79486e-10
1.80117e-12
8.07277e-11
-8.3115e-11
-3.4765e-10
3.1059e-10
3.49627e-12
1.1668e-10
-7.72179e-11
-2.66786e-10
2.20517e-10
3.68881e-12
1.19799e-10
-6.12762e-11
-1.73487e-10
1.27592e-10
2.02107e-12
1.0515e-10
-7.44443e-11
3.21367e-11
5.16748e-12
1.16191e-10
-7.90505e-11
1.07727e-10
4.68438e-11
-2.22175e-11
-1.32353e-10
-1.05177e-10
2.20963e-10
1.5639e-10
-2.99908e-12
-2.69177e-10
1.6903e-10
-2.03405e-10
2.48691e-10
8.7772e-14
-2.14403e-10
1.09703e-10
-2.92976e-10
3.36551e-10
3.38464e-12
-1.56662e-10
1.01257e-10
-3.76453e-10
4.13445e-10
3.62624e-12
-1.41875e-10
1.27932e-10
-4.48095e-10
4.82581e-10
1.30634e-12
-1.63723e-10
1.1727e-10
-5.14615e-10
5.42905e-10
3.54293e-12
-1.49102e-10
6.79007e-11
-5.6635e-10
5.87089e-10
3.65363e-12
-9.22931e-11
2.67857e-11
-6.0469e-10
6.23406e-10
2.32534e-12
-4.78269e-11
1.0077e-11
-6.41386e-10
6.54732e-10
2.18199e-12
-2.56048e-11
1.73735e-11
-6.6178e-10
6.64363e-10
2.69429e-13
-2.02258e-11
2.05926e-11
-6.61152e-10
6.52128e-10
-6.23352e-14
-1.15058e-11
1.63497e-12
-6.38872e-10
6.22294e-10
4.7862e-13
1.44645e-11
-1.82566e-11
-6.01932e-10
5.79336e-10
3.851e-12
3.70026e-11
-4.4097e-11
-5.55e-10
5.31789e-10
2.92228e-12
6.43863e-11
-6.57714e-11
-5.09037e-10
4.86558e-10
1.35553e-12
8.68946e-11
-7.4615e-11
-4.62744e-10
4.37232e-10
2.12948e-12
9.7998e-11
-1.03012e-10
-4.09439e-10
3.82142e-10
2.82556e-12
1.27483e-10
-1.47089e-10
-3.54353e-10
3.22874e-10
1.12019e-12
1.77448e-10
-1.6402e-10
-2.8453e-10
2.39775e-10
1.83019e-12
2.06944e-10
-1.54552e-10
-1.89192e-10
1.34514e-10
2.90735e-12
2.06323e-10
-1.56138e-10
3.2999e-11
3.61426e-12
1.99893e-10
-8.03678e-11
1.57694e-10
4.85562e-11
-2.29684e-11
-1.83282e-10
-1.05267e-10
3.20666e-10
1.59264e-10
2.62927e-13
-3.74926e-10
2.61429e-10
-2.09989e-10
2.59676e-10
-1.79438e-13
-3.10937e-10
2.05193e-10
-3.09603e-10
3.5836e-10
8.64294e-13
-2.54813e-10
1.85803e-10
-4.04055e-10
4.46752e-10
1.64797e-12
-2.30149e-10
1.98385e-10
-4.84021e-10
5.15341e-10
2.03834e-12
-2.31742e-10
1.79806e-10
-5.40668e-10
5.65607e-10
3.67636e-12
-2.08421e-10
1.20358e-10
-5.91353e-10
6.17571e-10
3.84252e-12
-1.50417e-10
7.26315e-11
-6.41377e-10
6.64563e-10
3.06175e-12
-9.88786e-11
4.18715e-11
-6.83989e-10
6.98057e-10
9.41498e-13
-5.68801e-11
2.22863e-11
-7.06813e-10
7.1114e-10
-1.75506e-12
-2.48577e-11
2.62895e-12
-7.11088e-10
7.06233e-10
-3.28235e-13
2.55473e-12
-2.96207e-11
-6.95669e-10
6.78888e-10
4.25877e-12
4.21434e-11
-5.66147e-11
-6.55886e-10
6.30241e-10
4.00274e-12
7.82574e-11
-8.50301e-11
-6.02188e-10
5.75966e-10
3.68255e-12
1.0757e-10
-1.08051e-10
-5.51304e-10
5.27097e-10
1.84988e-12
1.30408e-10
-1.24004e-10
-4.99616e-10
4.67935e-10
2.102e-12
1.53582e-10
-1.56433e-10
-4.31872e-10
3.94624e-10
1.2966e-12
1.92384e-10
-2.08463e-10
-3.56877e-10
3.19046e-10
1.68854e-12
2.44606e-10
-2.45765e-10
-2.80361e-10
2.40643e-10
8.48386e-13
2.84634e-10
-2.5565e-10
-1.97596e-10
1.51394e-10
1.14451e-12
3.00707e-10
-2.47195e-10
4.63009e-11
7.24197e-12
2.94403e-10
-1.00751e-10
2.08657e-10
4.66885e-11
-2.18107e-11
-2.33535e-10
-9.98929e-11
4.31114e-10
1.5445e-10
2.41822e-12
-4.88089e-10
3.65184e-10
-2.09174e-10
2.65202e-10
2.17239e-12
-4.23384e-10
3.07442e-10
-3.20934e-10
3.74237e-10
6.91342e-13
-3.61436e-10
2.75691e-10
-4.23293e-10
4.68413e-10
8.11671e-13
-3.21622e-10
2.6568e-10
-5.08644e-10
5.43541e-10
6.62867e-13
-3.01239e-10
2.37471e-10
-5.73971e-10
6.0275e-10
9.99149e-13
-2.67249e-10
1.82561e-10
-6.31033e-10
6.60502e-10
2.61167e-12
-2.14641e-10
1.26167e-10
-6.89453e-10
7.15603e-10
1.3377e-12
-1.53655e-10
7.18264e-11
-7.36104e-10
7.52396e-10
-7.90485e-13
-8.73277e-11
2.88679e-11
-7.65064e-10
7.72361e-10
-1.1914e-12
-3.49724e-11
-3.4136e-12
-7.7426e-10
7.72563e-10
2.24558e-12
2.86547e-12
-5.10724e-11
-7.65422e-10
7.52287e-10
4.03596e-12
6.01718e-11
-1.0003e-10
-7.31478e-10
7.05603e-10
2.57484e-12
1.23331e-10
-1.31423e-10
-6.76493e-10
6.48173e-10
1.12216e-12
1.58622e-10
-1.55363e-10
-6.19679e-10
5.88699e-10
1.34406e-12
1.84999e-10
-1.85759e-10
-5.52616e-10
5.11838e-10
3.58927e-12
2.22948e-10
-2.32185e-10
-4.6713e-10
4.22339e-10
1.94877e-12
2.75028e-10
-2.85929e-10
-3.77879e-10
3.33747e-10
-1.8986e-13
3.30252e-10
-3.26121e-10
-2.89139e-10
2.4277e-10
8.23598e-13
3.71667e-10
-3.44661e-10
-1.95177e-10
1.48237e-10
-6.09812e-13
3.92212e-10
-3.42132e-10
4.54367e-11
6.14465e-12
3.89934e-10
-9.9384e-11
2.58143e-10
4.50462e-11
-2.06286e-11
-2.82561e-10
-9.76415e-11
5.47611e-10
1.54359e-10
2.17858e-12
-6.06507e-10
4.85183e-10
-2.14246e-10
2.768e-10
1.59708e-12
-5.49333e-10
4.16674e-10
-3.38339e-10
3.96026e-10
-4.93044e-13
-4.73867e-10
3.68756e-10
-4.49162e-10
4.98808e-10
-1.1384e-12
-4.17263e-10
3.39879e-10
-5.45515e-10
5.89496e-10
-1.04701e-12
-3.82813e-10
2.99302e-10
-6.30312e-10
6.65981e-10
-1.17456e-12
-3.33795e-10
2.47823e-10
-6.9746e-10
7.29398e-10
4.11431e-13
-2.80172e-10
1.81765e-10
-7.62347e-10
7.92158e-10
-9.23257e-13
-2.10652e-10
1.03506e-10
-8.15884e-10
8.33428e-10
-1.21906e-12
-1.1983e-10
4.21168e-11
-8.45422e-10
8.51674e-10
8.8695e-13
-4.9255e-11
-1.40743e-12
-8.53166e-10
8.5243e-10
2.47262e-12
-3.29385e-13
-6.75483e-11
-8.48742e-10
8.41256e-10
2.39755e-12
7.26369e-11
-1.45465e-10
-8.26622e-10
8.05129e-10
1.94954e-12
1.65008e-10
-1.87469e-10
-7.76981e-10
7.44013e-10
2.30386e-12
2.18134e-10
-2.18692e-10
-7.04811e-10
6.60811e-10
3.42315e-12
2.59269e-10
-2.64649e-10
-6.12037e-10
5.62224e-10
3.36709e-12
3.11096e-10
-3.1796e-10
-5.13788e-10
4.69638e-10
1.88033e-12
3.6023e-10
-3.7385e-10
-4.27218e-10
3.84468e-10
1.04985e-12
4.15551e-10
-4.20535e-10
-3.38921e-10
2.89002e-10
-5.33463e-13
4.70987e-10
-4.46199e-10
-2.33317e-10
1.71914e-10
-1.9021e-13
5.07793e-10
-4.37179e-10
4.69673e-11
8.23338e-12
4.90267e-10
-1.08289e-10
3.07165e-10
4.72204e-11
-2.14296e-11
-3.32956e-10
-1.05679e-10
6.66068e-10
1.67409e-10
-5.66357e-13
-7.27232e-10
6.15076e-10
-2.32291e-10
2.9726e-10
1.74593e-14
-6.80062e-10
5.30876e-10
-3.58894e-10
4.16744e-10
-1.91101e-12
-5.86815e-10
4.67305e-10
-4.7416e-10
5.31449e-10
-2.8652e-12
-5.21728e-10
4.31501e-10
-5.89001e-10
6.45352e-10
-1.49019e-12
-4.86362e-10
3.70741e-10
-6.99043e-10
7.46116e-10
-3.4928e-12
-4.14322e-10
3.12567e-10
-7.87268e-10
8.24064e-10
-1.46005e-12
-3.47903e-10
2.4118e-10
-8.57685e-10
8.86532e-10
1.01352e-12
-2.7104e-10
1.35164e-10
-9.07578e-10
9.18793e-10
9.86641e-13
-1.47366e-10
5.55917e-11
-9.22281e-10
9.24692e-10
3.00493e-12
-6.10071e-11
2.70988e-12
-9.2786e-10
9.29981e-10
4.58669e-13
-5.28866e-12
-7.68532e-11
-9.29236e-10
9.25664e-10
-2.30057e-12
8.2726e-11
-1.8216e-10
-9.17571e-10
9.01441e-10
-1.22475e-13
1.98412e-10
-2.4978e-10
-8.75531e-10
8.40835e-10
3.58833e-12
2.80888e-10
-3.0485e-10
-7.97031e-10
7.47014e-10
3.90554e-12
3.50962e-10
-3.60244e-10
-6.91862e-10
6.36156e-10
2.48947e-12
4.13462e-10
-4.04826e-10
-5.80992e-10
5.27796e-10
-1.33802e-13
4.58157e-10
-4.5849e-10
-4.7657e-10
4.27807e-10
6.21616e-13
5.06632e-10
-5.20514e-10
-3.81331e-10
3.34529e-10
2.69073e-13
5.67047e-10
-5.73541e-10
-2.79615e-10
2.11546e-10
1.95955e-12
6.3965e-10
-5.51433e-10
5.90197e-11
9.16364e-12
6.17823e-10
-1.34573e-10
3.60708e-10
5.38162e-11
-2.48663e-11
-3.89658e-10
-1.2121e-10
7.91403e-10
1.88526e-10
-1.06212e-12
-8.57655e-10
7.44184e-10
-2.55732e-10
3.21752e-10
-5.4864e-13
-8.09655e-10
6.43907e-10
-3.85658e-10
4.48445e-10
-9.29937e-13
-7.05764e-10
5.79792e-10
-5.12397e-10
5.77747e-10
-2.48106e-12
-6.4266e-10
5.44992e-10
-6.44273e-10
7.08321e-10
-3.26464e-12
-6.05776e-10
4.63998e-10
-7.68698e-10
8.24251e-10
-2.47961e-12
-5.17071e-10
3.86149e-10
-8.74744e-10
9.16692e-10
-2.0612e-12
-4.26036e-10
2.97811e-10
-9.49138e-10
9.73243e-10
8.00732e-13
-3.22716e-10
1.57067e-10
-9.89433e-10
9.9856e-10
2.59845e-12
-1.68791e-10
6.77413e-11
-1.00291e-09
1.00787e-09
2.26443e-12
-7.49684e-11
7.9514e-12
-1.01211e-09
1.013e-09
-6.50559e-13
-8.18906e-12
-9.00949e-11
-1.00981e-09
1.00354e-09
-2.113e-12
9.84792e-11
-2.14116e-10
-9.9474e-10
9.80173e-10
-1.24231e-12
2.29925e-10
-3.09175e-10
-9.57998e-10
9.28426e-10
1.68675e-12
3.3706e-10
-3.92231e-10
-8.9175e-10
8.49589e-10
3.86878e-12
4.30524e-10
-4.68798e-10
-7.99829e-10
7.4165e-10
1.38777e-12
5.2559e-10
-5.23348e-10
-6.72273e-10
5.94723e-10
5.73921e-13
6.00325e-10
-5.63172e-10
-5.17075e-10
4.47255e-10
-8.0995e-14
6.33074e-10
-6.12413e-10
-3.87157e-10
3.33155e-10
2.05766e-12
6.64358e-10
-7.04404e-10
-2.76755e-10
2.12122e-10
1.67134e-12
7.67365e-10
-6.86934e-10
6.18173e-11
9.30732e-12
7.54419e-10
-1.3861e-10
4.19514e-10
5.80715e-11
-2.68783e-11
-4.50707e-10
-1.32581e-10
9.26764e-10
2.05131e-10
-9.40764e-13
-9.98372e-10
8.79332e-10
-2.76951e-10
3.50564e-10
8.35953e-13
-9.5378e-10
7.75038e-10
-4.26669e-10
5.04602e-10
-3.23937e-13
-8.52646e-10
7.10621e-10
-5.82158e-10
6.5675e-10
-1.82304e-12
-7.83389e-10
6.67161e-10
-7.26987e-10
7.91493e-10
-1.88319e-12
-7.29783e-10
5.69562e-10
-8.51866e-10
9.08128e-10
-2.86802e-12
-6.22956e-10
4.64907e-10
-9.59294e-10
1.00088e-09
-2.18601e-12
-5.04309e-10
3.4826e-10
-1.03312e-09
1.05918e-09
3.47113e-13
-3.74665e-10
1.87004e-10
-1.08264e-09
1.10552e-09
1.33422e-12
-2.11215e-10
8.50204e-11
-1.12431e-09
1.13509e-09
2.55217e-12
-9.83457e-11
5.17413e-12
-1.13642e-09
1.13132e-09
6.15439e-13
-6.92971e-13
-1.09941e-10
-1.12182e-09
1.10822e-09
-8.98363e-13
1.24439e-10
-2.47403e-10
-1.09112e-09
1.07073e-09
-2.59175e-13
2.68048e-10
-3.65081e-10
-1.04577e-09
1.01554e-09
-2.03582e-13
3.95522e-10
-4.66627e-10
-9.80302e-10
9.40507e-10
6.71447e-13
5.05752e-10
-5.814e-10
-8.93809e-10
8.37607e-10
6.35055e-13
6.36968e-10
-6.82145e-10
-7.68909e-10
6.88468e-10
1.67981e-12
7.60907e-10
-7.14991e-10
-5.99636e-10
5.09828e-10
1.86432e-12
8.02935e-10
-7.28552e-10
-4.22579e-10
3.40443e-10
1.57044e-12
8.09118e-10
-8.29536e-10
-2.63715e-10
1.94137e-10
3.77714e-13
8.98736e-10
-8.17123e-10
5.82708e-11
7.48931e-12
8.7918e-10
-1.27817e-10
4.83882e-10
6.6929e-11
-3.10929e-11
-5.19718e-10
-1.52082e-10
1.07295e-09
2.34661e-10
-2.23863e-12
-1.15329e-09
1.03357e-09
-3.1606e-10
3.98934e-10
1.98041e-12
-1.11842e-09
9.36685e-10
-4.85121e-10
5.73977e-10
-6.06869e-13
-1.02493e-09
8.59656e-10
-6.61898e-10
7.44588e-10
-1.69798e-12
-9.40647e-10
7.93748e-10
-8.2136e-10
8.92024e-10
-1.86061e-12
-8.62551e-10
6.78197e-10
-9.57506e-10
1.0164e-09
-4.08071e-13
-7.3668e-10
5.45208e-10
-1.06767e-09
1.11119e-09
-2.15835e-13
-5.88507e-10
4.03645e-10
-1.14863e-09
1.18163e-09
-8.00279e-13
-4.35847e-10
2.40631e-10
-1.21217e-09
1.24077e-09
1.87045e-12
-2.71096e-10
1.14791e-10
-1.26357e-09
1.27674e-09
1.77463e-12
-1.29738e-10
-3.03221e-12
-1.27834e-09
1.27181e-09
3.25672e-12
6.30641e-12
-1.40637e-10
-1.2578e-09
1.23791e-09
3.81112e-12
1.56713e-10
-2.93036e-10
-1.21315e-09
1.18524e-09
5.12649e-13
3.2043e-10
-4.30304e-10
-1.15389e-09
1.11697e-09
-1.7855e-12
4.6901e-10
-5.51209e-10
-1.07432e-09
1.0257e-09
-2.94877e-12
6.02776e-10
-6.94067e-10
-9.71664e-10
9.1186e-10
-9.54441e-13
7.54826e-10
-8.33821e-10
-8.46964e-10
7.76032e-10
8.9157e-13
9.03862e-10
-8.91956e-10
-6.96409e-10
6.06959e-10
1.52173e-12
9.79884e-10
-9.03632e-10
-5.09697e-10
4.07755e-10
-4.51921e-13
1.00603e-09
-9.79596e-10
-3.07165e-10
2.15442e-10
2.503e-13
1.07107e-09
-9.43371e-10
5.87583e-11
8.43738e-12
1.01028e-09
-1.34103e-10
5.58489e-10
7.78344e-11
-3.59013e-11
-6.00422e-10
-1.76479e-10
1.24034e-09
2.73332e-10
-3.11523e-12
-1.33408e-09
1.20846e-09
-3.68792e-10
4.63824e-10
2.91461e-14
-1.30353e-09
1.11587e-09
-5.59358e-10
6.55508e-10
-1.37688e-12
-1.21064e-09
1.02601e-09
-7.50984e-10
8.43009e-10
-1.88428e-12
-1.11615e-09
9.37162e-10
-9.30737e-10
1.01232e-09
-1.16894e-12
-1.01758e-09
7.98927e-10
-1.08598e-09
1.15043e-09
9.72371e-13
-8.64343e-10
6.34303e-10
-1.20615e-09
1.25538e-09
5.83972e-14
-6.83583e-10
4.70184e-10
-1.29943e-09
1.33875e-09
-7.70295e-13
-5.0873e-10
3.00056e-10
-1.37379e-09
1.40402e-09
-1.67168e-12
-3.28609e-10
1.42408e-10
-1.42659e-09
1.43886e-09
-1.87024e-14
-1.54658e-10
-7.64698e-12
-1.44076e-09
1.43522e-09
4.13303e-12
9.05659e-12
-1.69654e-10
-1.42208e-09
1.40329e-09
6.33898e-12
1.82108e-10
-3.47588e-10
-1.37589e-09
1.34284e-09
3.52888e-12
3.77117e-10
-5.13164e-10
-1.30368e-09
1.25679e-09
-2.62433e-12
5.62669e-10
-6.61871e-10
-1.20224e-09
1.14025e-09
-3.68654e-12
7.27551e-10
-8.21909e-10
-1.07421e-09
1.00333e-09
-2.74089e-12
8.95537e-10
-9.74868e-10
-9.29255e-10
8.52385e-10
2.97277e-13
1.05144e-09
-1.06608e-09
-7.69856e-10
6.7994e-10
9.13176e-13
1.15508e-09
-1.11316e-09
-5.8152e-10
4.76084e-10
-3.39359e-12
1.22199e-09
-1.17139e-09
-3.68928e-10
2.64366e-10
-1.25932e-12
1.27721e-09
-1.08279e-09
7.20839e-11
1.1756e-11
1.16438e-09
-1.65426e-10
6.45869e-10
9.24968e-11
-4.26197e-11
-6.95746e-10
-2.08573e-10
1.43519e-09
3.21783e-10
-3.32815e-12
-1.54507e-09
1.40553e-09
-4.33439e-10
5.43928e-10
-6.22519e-13
-1.5154e-09
1.31144e-09
-6.53362e-10
7.61709e-10
-5.20906e-13
-1.41927e-09
1.21138e-09
-8.67958e-10
9.69348e-10
-3.64759e-13
-1.31241e-09
1.10166e-09
-1.06352e-09
1.14996e-09
7.75655e-13
-1.18888e-09
9.33038e-10
-1.22802e-09
1.29911e-09
2.28865e-12
-1.00642e-09
7.38185e-10
-1.36434e-09
1.42475e-09
5.41709e-13
-7.99133e-10
5.52071e-10
-1.47907e-09
1.52635e-09
-5.70588e-13
-5.98781e-10
3.58591e-10
-1.56601e-09
1.59674e-09
5.54957e-13
-3.89873e-10
1.67e-10
-1.61843e-09
1.63132e-09
-2.80618e-13
-1.79604e-10
-1.00526e-11
-1.63515e-09
1.63191e-09
3.2408e-12
1.00544e-11
-1.9335e-10
-1.62236e-09
1.60677e-09
3.52573e-12
2.05409e-10
-4.08275e-10
-1.57995e-09
1.54158e-09
3.46925e-12
4.43178e-10
-6.17025e-10
-1.49068e-09
1.42944e-09
7.68431e-13
6.77494e-10
-7.99487e-10
-1.35967e-09
1.2851e-09
-2.39805e-12
8.76457e-10
-9.7534e-10
-1.20802e-09
1.12774e-09
-2.87848e-12
1.0585e-09
-1.13402e-09
-1.04402e-09
9.5639e-10
-9.11546e-14
1.22175e-09
-1.24747e-09
-8.65352e-10
7.68419e-10
-2.6986e-13
1.34467e-09
-1.33061e-09
-6.63996e-10
5.53783e-10
-4.68943e-13
1.44129e-09
-1.38645e-09
-4.40758e-10
3.2598e-10
2.52697e-13
1.50098e-09
-1.25483e-09
9.31641e-11
1.60062e-11
1.35562e-09
-2.09961e-10
7.49886e-10
1.0735e-10
-4.92699e-11
-8.07966e-10
-2.42098e-10
1.66373e-09
3.762e-10
-4.86749e-12
-1.79296e-09
1.63311e-09
-5.09278e-10
6.39722e-10
-2.82386e-12
-1.76073e-09
1.53355e-09
-7.67364e-10
8.89765e-10
-9.09093e-13
-1.65504e-09
1.41846e-09
-1.00649e-09
1.1162e-09
1.21773e-12
-1.52939e-09
1.28023e-09
-1.21799e-09
1.31162e-09
2.27551e-12
-1.37614e-09
1.08562e-09
-1.39808e-09
1.48014e-09
1.08165e-12
-1.16877e-09
8.65893e-10
-1.5582e-09
1.63111e-09
-1.64039e-12
-9.37165e-10
6.4823e-10
-1.69669e-09
1.7519e-09
-1.93539e-12
-7.01506e-10
4.2269e-10
-1.79577e-09
1.82897e-09
1.62289e-12
-4.57519e-10
1.94474e-10
-1.85322e-09
1.86912e-09
1.98984e-12
-2.12364e-10
-7.58759e-12
-1.87702e-09
1.87818e-09
7.83532e-14
6.34782e-12
-2.18351e-10
-1.8704e-09
1.85143e-09
8.59364e-13
2.36464e-10
-4.83122e-10
-1.8195e-09
1.77272e-09
4.29131e-13
5.29479e-10
-7.43911e-10
-1.71029e-09
1.63611e-09
3.29504e-12
8.14799e-10
-9.57325e-10
-1.55429e-09
1.46905e-09
2.39102e-12
1.04017e-09
-1.14552e-09
-1.38244e-09
1.29366e-09
-1.61727e-12
1.23591e-09
-1.31578e-09
-1.20072e-09
1.10146e-09
-1.64592e-12
1.41668e-09
-1.44944e-09
-9.95684e-10
8.82314e-10
-1.69255e-13
1.56298e-09
-1.55766e-09
-7.62681e-10
6.38546e-10
1.22395e-12
1.68057e-09
-1.62276e-09
-5.11777e-10
3.83561e-10
7.49915e-13
1.75022e-09
-1.46784e-09
1.13713e-10
1.48752e-11
1.59077e-09
-2.5152e-10
8.70603e-10
1.24578e-10
-5.71299e-11
-9.38051e-10
-2.80343e-10
1.93443e-09
4.36867e-10
-3.70768e-12
-2.08725e-09
1.90016e-09
-5.91955e-10
7.42992e-10
5.10493e-13
-2.05171e-09
1.78444e-09
-8.86583e-10
1.02237e-09
1.50969e-12
-1.92174e-09
1.64678e-09
-1.14968e-09
1.27156e-09
2.77899e-12
-1.77144e-09
1.48059e-09
-1.38714e-09
1.4971e-09
3.79125e-12
-1.59434e-09
1.25941e-09
-1.60058e-09
1.69997e-09
6.60605e-13
-1.35945e-09
1.01377e-09
-1.794e-09
1.88032e-09
-2.92441e-12
-1.09716e-09
7.57705e-10
-1.95681e-09
2.02079e-09
-3.62204e-12
-8.18055e-10
4.94743e-10
-2.07178e-09
2.11141e-09
-1.04015e-12
-5.3333e-10
2.33075e-10
-2.13894e-09
2.15766e-09
1.63953e-12
-2.53434e-10
-7.77013e-12
-2.16745e-09
2.16455e-09
-1.7291e-12
1.24015e-11
-2.62761e-10
-2.1468e-09
2.11483e-09
-3.37762e-12
2.9811e-10
-5.81495e-10
-2.07054e-09
2.01433e-09
-1.76133e-12
6.39465e-10
-8.87636e-10
-1.94703e-09
1.87136e-09
2.17488e-12
9.61139e-10
-1.12456e-09
-1.78929e-09
1.70151e-09
7.32281e-13
1.21161e-09
-1.3317e-09
-1.60585e-09
1.50161e-09
8.43167e-13
1.43509e-09
-1.52706e-09
-1.38997e-09
1.2707e-09
-2.21781e-12
1.64855e-09
-1.68797e-09
-1.14221e-09
1.00599e-09
-9.58503e-13
1.82515e-09
-1.81266e-09
-8.6389e-10
7.18937e-10
1.38095e-12
1.95623e-09
-1.88408e-09
-5.73396e-10
4.29157e-10
6.21879e-13
2.0277e-09
-1.72101e-09
1.2809e-10
1.79759e-11
1.85823e-09
-2.83289e-10
1.00953e-09
1.39878e-10
-6.43859e-11
-1.08503e-09
-3.15414e-10
2.25007e-09
4.92063e-10
-3.88371e-12
-2.42283e-09
2.21302e-09
-6.67529e-10
8.37757e-10
4.64267e-13
-2.38371e-09
2.06824e-09
-1.00107e-09
1.15586e-09
2.78548e-12
-2.22581e-09
1.9063e-09
-1.3033e-09
1.44691e-09
2.96099e-12
-2.05286e-09
1.71777e-09
-1.58561e-09
1.71824e-09
8.88076e-14
-1.85049e-09
1.46806e-09
-1.84337e-09
1.96121e-09
-1.23563e-12
-1.58466e-09
1.18619e-09
-2.07187e-09
2.17146e-09
-2.6807e-12
-1.28311e-09
8.83675e-10
-2.25866e-09
2.33152e-09
5.91998e-13
-9.57128e-10
5.74208e-10
-2.39138e-09
2.43525e-09
1.64345e-12
-6.19724e-10
2.71708e-10
-2.46665e-09
2.48547e-09
-1.66147e-12
-2.88871e-10
-2.28247e-11
-2.49101e-09
2.481e-09
-3.72157e-12
3.65637e-11
-3.4069e-10
-2.45557e-09
2.41459e-09
-3.76846e-12
3.85438e-10
-7.01334e-10
-2.36229e-09
2.30113e-09
2.82883e-13
7.62204e-10
-1.03326e-09
-2.23435e-09
2.16017e-09
-1.02815e-13
1.10754e-09
-1.30209e-09
-2.07549e-09
1.97843e-09
-4.5284e-13
1.3996e-09
-1.54809e-09
-1.86501e-09
1.73822e-09
1.78444e-12
1.67309e-09
-1.78099e-09
-1.60067e-09
1.45472e-09
2.09465e-12
1.92486e-09
-1.97154e-09
-1.30173e-09
1.14257e-09
2.66085e-12
2.12805e-09
-2.10915e-09
-9.78819e-10
8.11872e-10
2.42186e-12
2.27367e-09
-2.18249e-09
-6.43912e-10
4.78081e-10
-3.49538e-13
2.34867e-09
-2.00418e-09
1.4062e-10
1.72571e-11
2.15795e-09
-3.11653e-10
1.16517e-09
1.59779e-10
-7.37765e-11
-1.25117e-09
-3.58951e-10
2.60703e-09
5.58215e-10
-3.26464e-12
-2.80303e-09
2.56519e-09
-7.53831e-10
9.46226e-10
1.02413e-12
-2.75861e-09
2.3967e-09
-1.13279e-09
1.31511e-09
1.64464e-12
-2.58065e-09
2.21293e-09
-1.49263e-09
1.66405e-09
8.60261e-13
-2.38521e-09
1.99354e-09
-1.82801e-09
1.98352e-09
-1.2953e-12
-2.14775e-09
1.70907e-09
-2.13038e-09
2.26708e-09
-3.11744e-12
-1.84264e-09
1.38755e-09
-2.39139e-09
2.50208e-09
9.77286e-13
-1.49921e-09
1.03664e-09
-2.59913e-09
2.68301e-09
9.13179e-13
-1.12144e-09
6.68954e-10
-2.75054e-09
2.80219e-09
-6.18735e-14
-7.20539e-10
3.06181e-10
-2.8376e-09
2.85668e-09
-2.36106e-12
-3.22895e-10
-5.29196e-11
-2.8593e-09
2.84546e-09
-5.20764e-12
7.19685e-11
-4.33366e-10
-2.81716e-09
2.77316e-09
-4.05665e-12
4.81422e-10
-8.25044e-10
-2.71901e-09
2.65747e-09
-4.20512e-12
8.90782e-10
-1.18683e-09
-2.58621e-09
2.50262e-09
-1.70159e-12
1.27212e-09
-1.50711e-09
-2.40403e-09
2.28574e-09
-2.81478e-13
1.62567e-09
-1.8097e-09
-2.15058e-09
2.00119e-09
8.76316e-13
1.95821e-09
-2.08098e-09
-1.84015e-09
1.67115e-09
1.72733e-12
2.24825e-09
-2.29662e-09
-1.49529e-09
1.31376e-09
1.02326e-12
2.47712e-09
-2.4509e-09
-1.12439e-09
9.29761e-10
2.27535e-12
2.64325e-09
-2.52701e-09
-7.33236e-10
5.38542e-10
8.10214e-13
2.7209e-09
-2.31949e-09
1.54889e-10
2.02913e-11
2.49046e-09
-3.46158e-10
1.34402e-09
1.87623e-10
-8.66376e-11
-1.44501e-09
-4.19952e-10
3.01439e-09
6.47078e-10
-1.48441e-12
-3.24003e-09
2.96727e-09
-8.72015e-10
1.09471e-09
1.91596e-12
-3.19188e-09
2.78086e-09
-1.31229e-09
1.5259e-09
2.95859e-12
-2.99743e-09
2.57221e-09
-1.73323e-09
1.93282e-09
1.52159e-12
-2.77332e-09
2.31407e-09
-2.12157e-09
2.3e-09
-2.92016e-13
-2.49221e-09
1.98647e-09
-2.46763e-09
2.62162e-09
-3.32839e-13
-2.14013e-09
1.61943e-09
-2.75892e-09
2.88057e-09
5.06697e-12
-1.74615e-09
1.21367e-09
-2.98607e-09
3.07773e-09
3.92622e-12
-1.30926e-09
7.76464e-10
-3.15355e-09
3.21516e-09
-2.3704e-12
-8.35711e-10
3.39057e-10
-3.25729e-09
3.27859e-09
-2.14721e-12
-3.58209e-10
-9.23874e-11
-3.28134e-09
3.26514e-09
-8.41712e-13
1.09427e-10
-5.28302e-10
-3.2345e-09
3.19241e-09
-2.94269e-12
5.73339e-10
-9.55853e-10
-3.1404e-09
3.07514e-09
-1.78896e-12
1.02289e-09
-1.36577e-09
-2.99516e-09
2.89457e-09
-1.56313e-12
1.46793e-09
-1.75526e-09
-2.77269e-09
2.63169e-09
1.34512e-12
1.89492e-09
-2.1175e-09
-2.47412e-09
2.30345e-09
1.35533e-12
2.28682e-09
-2.42669e-09
-2.12071e-09
1.92862e-09
-2.72288e-13
2.61906e-09
-2.67081e-09
-1.72805e-09
1.51911e-09
-9.59676e-13
2.88071e-09
-2.85281e-09
-1.30031e-09
1.07296e-09
1.60715e-13
3.08e-09
-2.93227e-09
-8.41616e-10
6.11364e-10
1.45089e-12
3.16107e-09
-2.67124e-09
1.71014e-10
2.60773e-11
2.86284e-09
-3.88692e-10
1.55435e-09
2.19485e-10
-1.01499e-10
-1.67234e-09
-4.88239e-10
3.47949e-09
7.49929e-10
-4.73138e-12
-3.73645e-09
3.43372e-09
-1.00828e-09
1.26657e-09
2.85516e-12
-3.69486e-09
3.23155e-09
-1.52288e-09
1.77321e-09
2.58769e-12
-3.48447e-09
2.98905e-09
-2.01643e-09
2.24815e-09
4.79997e-13
-3.22126e-09
2.6827e-09
-2.46572e-09
2.66883e-09
1.09339e-12
-2.8869e-09
2.30303e-09
-2.85679e-09
3.02864e-09
1.84245e-12
-2.47671e-09
1.87887e-09
-3.18308e-09
3.31929e-09
3.36295e-12
-2.01844e-09
1.40858e-09
-3.43644e-09
3.5363e-09
3.99815e-12
-1.51244e-09
8.97596e-10
-3.62318e-09
3.69209e-09
-2.78695e-13
-9.66222e-10
3.81489e-10
-3.74492e-09
3.77493e-09
-1.36024e-12
-4.10144e-10
-1.24413e-10
-3.7832e-09
3.77322e-09
-6.88369e-13
1.35076e-10
-6.18046e-10
-3.74606e-09
3.70166e-09
-1.44665e-12
6.6389e-10
-1.10012e-09
-3.64111e-09
3.55909e-09
-2.76781e-12
1.18491e-09
-1.58163e-09
-3.45643e-09
3.33139e-09
-2.24203e-12
1.70892e-09
-2.04552e-09
-3.18444e-09
3.01959e-09
8.43603e-13
2.20953e-09
-2.46647e-09
-2.84011e-09
2.64883e-09
1.50772e-13
2.65759e-09
-2.82292e-09
-2.44601e-09
2.23129e-09
-3.20947e-13
3.03795e-09
-3.1058e-09
-2.00622e-09
1.76897e-09
-1.40947e-12
3.34446e-09
-3.32345e-09
-1.52119e-09
1.2637e-09
-1.9834e-12
3.58293e-09
-3.40885e-09
-9.98642e-10
7.32305e-10
-9.52998e-13
3.67615e-09
-3.07311e-09
2.07821e-10
2.65366e-11
3.30663e-09
-4.67879e-10
1.79829e-09
2.46877e-10
-1.13258e-10
-1.93191e-09
-5.54997e-10
4.01231e-09
8.61425e-10
-1.03654e-11
-4.30838e-09
3.97691e-09
-1.16507e-09
1.46776e-09
9.53442e-13
-4.28054e-09
3.75815e-09
-1.76512e-09
2.05702e-09
1.37779e-12
-4.05142e-09
3.47005e-09
-2.33624e-09
2.60137e-09
8.33095e-13
-3.73601e-09
3.10465e-09
-2.84981e-09
3.07999e-09
4.45814e-13
-3.33527e-09
2.66055e-09
-3.29148e-09
3.4863e-09
8.25911e-13
-2.85619e-09
2.16726e-09
-3.66243e-09
3.82042e-09
-4.43993e-13
-2.32481e-09
1.62249e-09
-3.95899e-09
4.0786e-09
-1.74338e-12
-1.74035e-09
1.03954e-09
-4.1775e-09
4.25886e-09
-3.50274e-12
-1.1174e-09
4.4327e-10
-4.31823e-09
4.35619e-09
2.80785e-14
-4.8126e-10
-1.40509e-10
-4.37089e-09
4.36332e-09
1.33386e-12
1.46743e-10
-7.14572e-10
-4.33267e-09
4.27858e-09
2.9682e-13
7.68371e-10
-1.28019e-09
-4.19881e-09
4.09725e-09
-4.12503e-12
1.38588e-09
-1.84717e-09
-3.97256e-09
3.82902e-09
-1.69626e-12
1.99241e-09
-2.38406e-09
-3.66558e-09
3.48041e-09
1.99264e-12
2.56724e-09
-2.86026e-09
-3.27694e-09
3.0596e-09
9.49469e-14
3.07751e-09
-3.26775e-09
-2.83065e-09
2.59056e-09
-3.63629e-12
3.51147e-09
-3.59851e-09
-2.3383e-09
2.07285e-09
-4.00878e-12
3.86797e-09
-3.85811e-09
-1.79686e-09
1.5097e-09
-3.27166e-12
4.14854e-09
-3.9613e-09
-1.2151e-09
9.10245e-10
4.08349e-13
4.26575e-09
-3.56701e-09
2.67948e-10
3.71191e-11
3.85765e-09
-5.95706e-10
2.07328e-09
2.78123e-10
-1.27397e-10
-2.224e-09
-6.31565e-10
4.62869e-09
9.86838e-10
-8.39072e-12
-4.97557e-09
4.60944e-09
-1.34413e-09
1.69799e-09
-9.7686e-13
-4.96232e-09
4.36716e-09
-2.04587e-09
2.38232e-09
8.33163e-13
-4.70443e-09
4.02044e-09
-2.70352e-09
3.00648e-09
3.13516e-13
-4.3237e-09
3.58226e-09
-3.28987e-09
3.55367e-09
1.61464e-12
-3.84768e-09
3.06715e-09
-3.79845e-09
4.02407e-09
6.57013e-13
-3.29342e-09
2.49395e-09
-4.23002e-09
4.41518e-09
-3.39924e-12
-2.67571e-09
1.8681e-09
-4.57795e-09
4.71775e-09
-2.91979e-12
-2.00498e-09
1.20342e-09
-4.83201e-09
4.92038e-09
1.92003e-12
-1.29371e-09
5.21727e-10
-4.98311e-09
5.02392e-09
1.20476e-13
-5.6265e-10
-1.54042e-10
-5.04141e-09
5.03091e-09
2.70394e-12
1.61843e-10
-8.2503e-10
-4.99412e-09
4.93093e-09
8.14635e-13
8.87408e-10
-1.49566e-09
-4.8409e-09
4.72354e-09
2.37549e-12
1.61065e-09
-2.14716e-09
-4.58626e-09
4.42509e-09
-1.87972e-12
2.31021e-09
-2.763e-09
-4.24293e-09
4.03767e-09
-4.983e-12
2.97324e-09
-3.31038e-09
-3.80864e-09
3.55864e-09
4.03684e-13
3.55997e-09
-3.77158e-09
-3.29382e-09
3.01539e-09
-1.90613e-12
4.05191e-09
-4.15539e-09
-2.72555e-09
2.42407e-09
-4.38443e-12
4.46125e-09
-4.45647e-09
-2.11226e-09
1.78967e-09
-2.79485e-12
4.78185e-09
-4.59261e-09
-1.4541e-09
1.10278e-09
-1.89525e-14
4.94394e-09
-4.17861e-09
3.27934e-10
5.07661e-11
4.52936e-09
-7.29449e-10
2.38685e-09
3.29269e-10
-1.51001e-10
-2.56511e-09
-7.42933e-10
5.3481e-09
1.15557e-09
-9.59108e-12
-5.75115e-09
5.34056e-09
-1.56564e-09
1.97118e-09
2.28509e-13
-5.74633e-09
5.06303e-09
-2.36957e-09
2.75518e-09
-2.82707e-12
-5.44581e-09
4.64995e-09
-3.12454e-09
3.47449e-09
-6.43636e-13
-4.99926e-09
4.13393e-09
-3.80296e-09
4.11304e-09
-1.83563e-13
-4.44382e-09
3.53781e-09
-4.40098e-09
4.6656e-09
-1.29581e-12
-3.80113e-09
2.87044e-09
-4.9064e-09
5.11971e-09
-9.48973e-13
-3.0828e-09
2.1515e-09
-5.30642e-09
5.4628e-09
1.21238e-12
-2.3091e-09
1.38781e-09
-5.59046e-09
5.68684e-09
5.68908e-12
-1.48987e-09
6.06399e-10
-5.75745e-09
5.80055e-09
2.40342e-12
-6.519e-10
-1.7229e-10
-5.81428e-09
5.80086e-09
-2.39467e-13
1.85954e-10
-9.52409e-10
-5.75746e-09
5.68603e-09
1.88558e-12
1.02195e-09
-1.73175e-09
-5.58609e-09
5.45836e-09
2.18358e-12
1.8573e-09
-2.48288e-09
-5.3013e-09
5.11937e-09
-3.4798e-12
2.66829e-09
-3.1971e-09
-4.91076e-09
4.67586e-09
-2.97376e-12
3.43498e-09
-3.82891e-09
-4.41744e-09
4.13525e-09
-3.0699e-12
4.11417e-09
-4.35388e-09
-3.83021e-09
3.50568e-09
-6.79396e-13
4.67909e-09
-4.79089e-09
-3.16319e-09
2.80754e-09
-2.58323e-12
5.14913e-09
-5.13423e-09
-2.44229e-09
2.06451e-09
-6.82533e-12
5.51883e-09
-5.32545e-09
-1.67265e-09
1.26252e-09
-1.96001e-12
5.73754e-09
-4.9068e-09
3.71618e-10
5.68096e-11
5.3054e-09
-8.2703e-10
2.76033e-09
3.93227e-10
-1.80435e-10
-2.97312e-09
-8.8058e-10
6.18643e-09
1.36331e-09
-1.3642e-11
-6.65552e-09
6.17779e-09
-1.83761e-09
2.30373e-09
-2.96855e-12
-6.64095e-09
5.85157e-09
-2.75813e-09
3.19573e-09
-4.30198e-12
-6.28487e-09
5.37436e-09
-3.61522e-09
4.01529e-09
2.5633e-12
-5.77699e-09
4.77837e-09
-4.3982e-09
4.75917e-09
-8.14036e-13
-5.13853e-09
4.08501e-09
-5.09454e-09
5.40154e-09
8.34753e-13
-4.39286e-09
3.31163e-09
-5.67956e-09
5.9272e-09
-1.22943e-12
-3.55803e-09
2.47728e-09
-6.1429e-09
6.3248e-09
5.56834e-13
-2.65974e-09
1.60003e-09
-6.47339e-09
6.59109e-09
1.4724e-12
-1.7192e-09
7.00675e-10
-6.6747e-09
6.72392e-09
4.53226e-12
-7.54424e-10
-2.0233e-10
-6.7373e-09
6.71616e-09
8.03779e-13
2.22667e-10
-1.10126e-09
-6.66069e-09
6.57326e-09
-1.8097e-12
1.1905e-09
-1.99402e-09
-6.45535e-09
6.3069e-09
-3.90204e-12
2.14638e-09
-2.86817e-09
-6.12621e-09
5.91368e-09
-2.2979e-12
3.08299e-09
-3.69127e-09
-5.67231e-09
5.4031e-09
-4.37956e-12
3.96487e-09
-4.41711e-09
-5.10762e-09
4.78674e-09
-4.6785e-12
4.74267e-09
-5.02862e-09
-4.43893e-09
4.0634e-09
1.91597e-12
5.40224e-09
-5.53831e-09
-3.66565e-09
3.24592e-09
-1.67228e-13
5.95821e-09
-5.93794e-09
-2.80944e-09
2.35618e-09
-1.8074e-12
6.393e-09
-6.18145e-09
-1.8906e-09