/*--------------------------------*- C++ -*----------------------------------*\
  =========                 |
  \\      /  F ield         | OpenFOAM: The Open Source CFD Toolbox
   \\    /   O peration     | Website:  https://openfoam.org
    \\  /    A nd           | Version:  7
     \\/     M anipulation  |
\*---------------------------------------------------------------------------*/
FoamFile
{
    version     2.0;
    format      ascii;
    class       volVectorField;
    location    "150";
    object      U;
}
// * * * * * * * * * * * * * * * * * * * * * * * * * * * * * * * * * * * * * //

dimensions      [0 1 -1 0 0 0 0];

internalField   nonuniform List<vector> 
96800
(
(5.09202e-05 -9.09989e-08 -4.87069e-05)
(0.000144919 -7.95891e-07 -3.48865e-05)
(0.000240885 -5.75054e-07 -2.27351e-05)
(0.000285647 -1.91559e-07 -7.04445e-06)
(0.000306201 -2.40827e-07 -8.21172e-06)
(0.000342893 -2.36302e-07 -1.32466e-05)
(0.000390164 -3.07591e-07 -1.4221e-05)
(0.000427262 -2.82677e-07 -8.34176e-06)
(0.000438644 -3.6379e-08 3.19426e-06)
(0.000418797 4.43603e-08 6.48021e-06)
(0.000409366 -1.30683e-07 -1.0883e-06)
(0.000425938 -2.31585e-07 -8.11681e-06)
(0.000448052 -1.61318e-07 -6.05809e-06)
(0.000458439 -4.3509e-08 -1.88784e-06)
(0.000456043 3.28978e-08 3.67641e-06)
(0.000431864 1.18626e-07 9.03733e-06)
(0.000400332 4.63771e-08 1.08905e-05)
(0.000357694 2.68431e-07 1.86193e-05)
(0.000281681 4.62283e-07 2.73214e-05)
(0.000198472 3.54e-07 2.32828e-05)
(0.000132125 1.75355e-07 1.77775e-05)
(7.0927e-05 3.57719e-07 2.49696e-05)
(2.81823e-05 5.2089e-07 -0.000138477)
(0.000121658 -1.901e-07 -0.000130021)
(0.000205066 -2.58342e-07 -9.0476e-05)
(0.000266889 -1.57453e-07 -4.18981e-05)
(0.000312615 -3.26898e-07 -4.1595e-05)
(0.000363722 -3.06417e-07 -6.15849e-05)
(0.000421019 -2.2407e-07 -5.88947e-05)
(0.00045872 -3.64738e-07 -3.32969e-05)
(0.000476998 -3.3454e-07 -1.44154e-07)
(0.000488809 -2.87127e-07 1.15936e-05)
(0.000494805 -4.26925e-07 -6.85536e-06)
(0.000494335 -3.04224e-07 -2.19571e-05)
(0.00048595 -2.54311e-07 -1.32014e-05)
(0.000471304 -2.34074e-07 -3.92766e-07)
(0.000449102 -1.94695e-07 1.78451e-05)
(0.000416711 -3.03526e-07 3.44632e-05)
(0.000380707 -4.59651e-07 3.98241e-05)
(0.000341006 -3.9776e-07 6.32064e-05)
(0.000287079 -4.4814e-07 9.23636e-05)
(0.000211716 -5.10816e-07 8.95933e-05)
(0.000132519 -5.15144e-07 7.46734e-05)
(5.05635e-05 -2.53518e-08 9.41619e-05)
(2.95284e-05 5.65627e-07 -0.000232068)
(0.000116265 -9.39023e-08 -0.00021482)
(0.000195338 -1.17321e-07 -0.00016764)
(0.000271696 -8.92609e-08 -0.000114356)
(0.000342971 -1.00086e-07 -0.000103422)
(0.000403514 -1.44902e-07 -0.000125409)
(0.000459476 -4.92743e-08 -0.000113978)
(0.000502739 -1.56891e-08 -6.63078e-05)
(0.000536963 -8.77173e-08 -2.82403e-05)
(0.000567061 -1.05806e-07 -1.10932e-05)
(0.00057885 -1.82343e-07 -1.17248e-05)
(0.000570863 -2.05493e-07 -9.14501e-06)
(0.000547755 -1.53818e-07 9.26909e-06)
(0.00051574 -6.13902e-08 2.67626e-05)
(0.000476599 -9.39932e-08 5.03381e-05)
(0.000437015 -1.43166e-07 6.9672e-05)
(0.000394434 -1.21318e-07 7.74374e-05)
(0.000347298 -1.0849e-07 0.000103334)
(0.000298221 -1.83134e-07 0.0001461)
(0.000231302 -1.37853e-07 0.000167894)
(0.000144606 -8.32085e-08 0.000161891)
(5.09969e-05 6.55276e-08 0.000170377)
(3.03766e-05 5.96534e-07 -0.000329946)
(0.000119391 -1.36032e-07 -0.000304292)
(0.000206559 -9.43223e-08 -0.000249885)
(0.000291454 -9.05192e-08 -0.000199507)
(0.000372704 -3.87689e-08 -0.000177867)
(0.000437099 -4.23474e-08 -0.00018318)
(0.00048264 -3.16321e-08 -0.000163979)
(0.000528469 7.05611e-09 -0.000111731)
(0.000573978 -1.27167e-09 -6.88558e-05)
(0.000607929 -8.04052e-08 -3.76711e-05)
(0.000620687 -1.67632e-07 -1.58043e-05)
(0.00061803 -1.20755e-07 3.86176e-06)
(0.00060078 2.74761e-08 3.56249e-05)
(0.000564781 3.06745e-08 6.39971e-05)
(0.000518025 -1.73666e-08 8.91416e-05)
(0.00047473 -5.43116e-08 0.000108351)
(0.000426951 -1.63936e-08 0.000125062)
(0.000365195 -4.97261e-08 0.00015669)
(0.000298259 -5.91823e-08 0.000203252)
(0.000231076 -6.43024e-08 0.000238208)
(0.00015476 -2.13902e-08 0.000247948)
(6.78015e-05 5.05424e-08 0.000257299)
(2.92053e-05 5.86772e-07 -0.000426558)
(0.000115335 -1.74497e-07 -0.000399098)
(0.000210736 -3.71283e-08 -0.000342275)
(0.000307017 -4.90038e-08 -0.000289063)
(0.000392608 -4.83832e-08 -0.000256174)
(0.000461616 -7.40067e-08 -0.000241019)
(0.000513926 -9.45086e-08 -0.000213443)
(0.000564908 -3.47591e-08 -0.000166969)
(0.000616774 -5.0979e-08 -0.000116007)
(0.000653698 -1.28764e-07 -6.49831e-05)
(0.000672003 -1.11286e-07 -2.4576e-05)
(0.000675919 -2.11581e-08 6.88072e-06)
(0.000665917 1.95266e-08 5.46782e-05)
(0.000632497 7.34453e-10 0.000104221)
(0.000582149 -7.99747e-08 0.000132757)
(0.000531853 -5.82804e-08 0.000153437)
(0.000469943 3.14707e-08 0.000183546)
(0.000393783 -4.24026e-08 0.000227674)
(0.000314478 -7.78027e-08 0.000275894)
(0.00023542 -5.8826e-08 0.000310366)
(0.000150687 -8.39871e-08 0.00032358)
(6.63556e-05 3.2418e-08 0.000347062)
(2.8588e-05 5.45124e-07 -0.000520093)
(0.000114015 -1.92589e-07 -0.000497272)
(0.000219791 -7.07672e-08 -0.00044737)
(0.000326636 -1.06364e-07 -0.000385152)
(0.000417531 -9.9063e-08 -0.000338082)
(0.00049837 -1.18258e-07 -0.000309871)
(0.000566855 -1.20699e-07 -0.000270785)
(0.00062366 -6.89289e-08 -0.000226128)
(0.000680838 -1.48333e-07 -0.00016826)
(0.000722879 -1.21139e-07 -9.60785e-05)
(0.000742778 -5.23692e-08 -3.82802e-05)
(0.000747507 -4.01454e-08 4.87453e-06)
(0.000742009 3.78648e-09 6.78139e-05)
(0.000718028 -1.55863e-08 0.000142114)
(0.000669297 -2.80599e-08 0.000181663)
(0.000602121 -1.0399e-08 0.000213337)
(0.000517904 -1.26337e-08 0.000258385)
(0.000433683 -4.60986e-08 0.000304112)
(0.000358684 -2.81317e-08 0.000351798)
(0.000278122 -9.31124e-08 0.000395238)
(0.000177819 -9.19594e-08 0.000416846)
(6.96817e-05 7.34105e-08 0.000437255)
(3.03238e-05 5.50654e-07 -0.000614604)
(0.000123195 -2.88309e-07 -0.000599696)
(0.000237138 -1.25373e-07 -0.000562065)
(0.000345221 -1.68566e-07 -0.000487575)
(0.00044174 -1.63067e-07 -0.00043007)
(0.000541933 -1.42259e-07 -0.000398223)
(0.000632983 -1.67445e-07 -0.000339758)
(0.000703406 -1.02784e-07 -0.000286345)
(0.000763092 -5.2241e-08 -0.000224167)
(0.000800434 -3.22401e-08 -0.000124634)
(0.000809513 -1.32729e-08 -5.03104e-05)
(0.000816704 -6.93757e-08 -5.81657e-07)
(0.000815456 -1.30932e-07 7.48275e-05)
(0.000799031 -8.28829e-08 0.000173001)
(0.000756073 4.79972e-08 0.000238238)
(0.000681707 1.61867e-08 0.00029352)
(0.000586651 -6.0966e-08 0.000345136)
(0.000488222 -1.03838e-07 0.000382036)
(0.00039731 -7.21898e-08 0.000427255)
(0.000315275 -5.64632e-08 0.000480918)
(0.000217427 1.27508e-08 0.000530236)
(8.77698e-05 -2.62036e-08 0.000550835)
(3.46146e-05 6.17016e-07 -0.000722114)
(0.000139314 -2.86888e-07 -0.00071335)
(0.000257041 -1.47471e-07 -0.000676919)
(0.000369568 -9.79398e-08 -0.000590264)
(0.000479709 -1.63579e-07 -0.000535098)
(0.000593453 -1.44084e-07 -0.000504578)
(0.000698038 -1.41928e-07 -0.000429917)
(0.000783266 -1.40063e-07 -0.000355392)
(0.00084095 -1.53704e-08 -0.000271915)
(0.000870309 7.25724e-09 -0.000141486)
(0.000882532 -8.8899e-09 -6.16303e-05)
(0.00089201 -5.65576e-08 -7.37497e-06)
(0.00088669 -1.53585e-07 8.38602e-05)
(0.000868317 -1.55127e-07 0.000198476)
(0.000830386 7.87264e-09 0.000289582)
(0.000768977 3.44023e-08 0.000367995)
(0.000682434 -8.9805e-08 0.000442004)
(0.000558974 -7.05066e-08 0.000495769)
(0.000421354 -1.04107e-07 0.000526286)
(0.000314694 -1.26381e-08 0.000561024)
(0.000216405 4.34757e-08 0.000643816)
(9.17932e-05 -7.12401e-08 0.000681255)
(3.72458e-05 7.00571e-07 -0.000838075)
(0.000150327 -1.78121e-07 -0.000835767)
(0.000277659 -1.18276e-07 -0.000801361)
(0.000411621 -8.54236e-08 -0.000714389)
(0.000546293 -1.49455e-07 -0.000656799)
(0.000666401 -1.02983e-07 -0.000615402)
(0.000772043 -1.40381e-07 -0.000525782)
(0.000858668 -1.34347e-07 -0.000426652)
(0.000915103 -5.8854e-08 -0.000316116)
(0.000956987 -5.8597e-08 -0.000172845)
(0.000992449 1.84966e-08 -8.04632e-05)
(0.000999187 -2.39944e-08 -4.50215e-06)
(0.000983239 -9.30208e-08 0.000100535)
(0.000953267 -1.09337e-07 0.0002264)
(0.000908903 -1.08317e-07 0.000337771)
(0.000847399 -5.94041e-08 0.000431971)
(0.000764584 -9.267e-08 0.000540348)
(0.000642927 -4.92547e-08 0.000638817)
(0.000487322 -1.53357e-08 0.000668615)
(0.0003335 -3.28053e-08 0.000674751)
(0.000199621 -1.57253e-08 0.000753567)
(8.52789e-05 -9.0598e-08 0.000799856)
(4.28293e-05 8.30679e-07 -0.000967126)
(0.000170871 -1.80254e-07 -0.000968471)
(0.000315592 -4.46459e-08 -0.000942582)
(0.000468034 -1.00434e-07 -0.000863845)
(0.000619971 -1.41171e-07 -0.000793327)
(0.0007522 -1.37531e-07 -0.000729605)
(0.000866287 -6.16683e-08 -0.000624282)
(0.000956997 -6.62347e-08 -0.00050002)
(0.00102084 -1.10082e-07 -0.000368421)
(0.00107399 -3.40543e-08 -0.000223837)
(0.0011151 -1.9527e-08 -0.000106427)
(0.00112158 4.16697e-08 3.03393e-06)
(0.00110131 5.09809e-08 0.00012753)
(0.00106061 -8.13043e-08 0.000267026)
(0.00100384 -1.48489e-07 0.00039495)
(0.000926768 -1.5983e-07 0.000507591)
(0.00082947 -1.19796e-07 0.000638199)
(0.000713994 -7.12964e-08 0.000765969)
(0.000575225 -4.27441e-09 0.0008244)
(0.000404025 -8.61606e-08 0.000838701)
(0.000226244 -7.10828e-08 0.000891527)
(8.58676e-05 -6.87961e-08 0.000917201)
(4.99395e-05 9.23204e-07 -0.00111729)
(0.000198949 -2.73158e-07 -0.0011203)
(0.000367253 -7.81337e-08 -0.00110052)
(0.000535913 -1.16606e-07 -0.00102593)
(0.000701535 -1.20778e-07 -0.000946011)
(0.000854106 -1.32831e-07 -0.00086379)
(0.000983202 -4.61328e-08 -0.000734401)
(0.00108254 -7.17388e-08 -0.000580732)
(0.00115805 -1.16602e-07 -0.000431106)
(0.001219 -1.42644e-07 -0.00027689)
(0.00125737 -8.36107e-08 -0.000130326)
(0.00126269 5.90519e-08 8.19359e-06)
(0.00124528 1.21544e-07 0.000154376)
(0.00120341 4.39784e-08 0.000316002)
(0.00113325 -1.5908e-07 0.000469122)
(0.00103416 -1.77863e-07 0.000607506)
(0.000914904 -1.22114e-07 0.000752795)
(0.000783219 -9.44136e-08 0.000889272)
(0.000639576 -5.09519e-08 0.000976263)
(0.000466476 -1.37003e-07 0.00102431)
(0.000274844 -1.57846e-07 0.00106335)
(0.000106072 -1.09249e-07 0.00105173)
(5.95529e-05 1.1388e-06 -0.00129327)
(0.000235752 -3.06466e-07 -0.00129811)
(0.00043005 -9.53655e-08 -0.00128011)
(0.000622388 -9.64862e-08 -0.00120424)
(0.000808474 -6.86368e-08 -0.00111574)
(0.000974495 -3.48165e-08 -0.00101342)
(0.00111284 -8.79594e-09 -0.000856938)
(0.00122825 -8.86384e-08 -0.00067759)
(0.00132094 -1.14868e-07 -0.000507127)
(0.00138955 -7.04093e-08 -0.000331047)
(0.00142826 -7.49809e-08 -0.000152846)
(0.00143541 1.55066e-08 1.05588e-05)
(0.00142208 4.21726e-08 0.000177437)
(0.00137895 7.86364e-08 0.000372964)
(0.00129123 -5.56646e-08 0.000563619)
(0.00116756 -1.23859e-07 0.000730967)
(0.0010295 -1.14173e-07 0.000890041)
(0.00088089 -8.24998e-08 0.00103163)
(0.000719463 -9.98631e-08 0.00113554)
(0.000536226 -6.00437e-08 0.00121264)
(0.0003347 -7.7553e-08 0.00125186)
(0.000137681 -1.01307e-07 0.00122187)
(6.88842e-05 1.36014e-06 -0.00150284)
(0.00027529 -3.46589e-07 -0.00150741)
(0.000505362 -2.06101e-07 -0.00148971)
(0.000727859 -9.52644e-08 -0.0014079)
(0.000934456 -2.07264e-08 -0.00130285)
(0.00111521 2.66079e-09 -0.00117293)
(0.0012691 -5.25123e-08 -0.000994049)
(0.00140568 -1.20993e-07 -0.000794903)
(0.00151713 -1.39868e-07 -0.000595628)
(0.00159361 -2.46594e-08 -0.000388857)
(0.00163817 5.9808e-09 -0.000179003)
(0.0016534 -6.95255e-08 8.14613e-06)
(0.00163921 -4.49313e-08 0.000201634)
(0.00158274 -3.25873e-08 0.000444891)
(0.00147571 6.37699e-08 0.000681646)
(0.00133391 1.00403e-08 0.000872943)
(0.00118017 -1.14307e-07 0.00104126)
(0.00101459 -1.00971e-07 0.00119432)
(0.000827086 -8.39472e-08 0.00131667)
(0.0006161 -3.71434e-08 0.00141429)
(0.000393202 6.94915e-08 0.00146196)
(0.00016839 -3.16486e-07 0.00143242)
(7.98077e-05 1.58454e-06 -0.00174461)
(0.000318015 -3.38334e-07 -0.0017546)
(0.000587509 -1.11812e-07 -0.00173598)
(0.000839853 -2.16529e-08 -0.00163581)
(0.00106653 1.55404e-08 -0.00150826)
(0.00127258 1.17263e-08 -0.00135579)
(0.00145663 -5.45999e-08 -0.00115462)
(0.00161983 -1.30546e-07 -0.000931661)
(0.00175124 -1.62955e-07 -0.000696848)
(0.00184145 -7.42532e-08 -0.000454872)
(0.00189382 -3.04063e-08 -0.000214599)
(0.0019101 -1.12323e-07 8.63753e-06)
(0.00187717 -1.76433e-07 0.000246207)
(0.00179623 -1.17122e-07 0.000536489)
(0.00168031 4.34788e-08 0.000812077)
(0.00153904 -4.03811e-08 0.00102362)
(0.00136975 -4.04207e-08 0.00120904)
(0.00117298 -9.44737e-08 0.00138669)
(0.000946427 -9.93838e-08 0.00153503)
(0.00069608 -1.78758e-08 0.00164587)
(0.00044199 1.10612e-07 0.00169583)
(0.000190421 -4.51459e-07 0.00167743)
(8.94304e-05 1.75664e-06 -0.00202098)
(0.000356729 -3.93136e-07 -0.00203773)
(0.000662907 -9.48573e-08 -0.00201781)
(0.000949785 9.54718e-09 -0.00189247)
(0.0012128 7.29544e-09 -0.00174402)
(0.00145827 -5.81588e-08 -0.00157188)
(0.00167874 -1.06943e-07 -0.00134612)
(0.00186948 -1.57093e-07 -0.00109183)
(0.00202232 -2.54855e-08 -0.000815781)
(0.00212828 1.74809e-08 -0.000530223)
(0.00218533 -1.09537e-07 -0.000250004)
(0.00219342 -1.87916e-07 2.3634e-05)
(0.00214413 -1.71923e-07 0.00031702)
(0.00204988 -4.27894e-08 0.000640979)
(0.00193323 -7.49678e-08 0.000939016)
(0.00178577 -9.50625e-08 0.00118228)
(0.00158721 -1.13911e-08 0.00140865)
(0.00134618 2.80931e-08 0.0016204)
(0.00107684 1.85049e-09 0.00179336)
(0.000789033 2.18251e-08 0.00191501)
(0.000495644 4.49411e-08 0.00196335)
(0.000208904 -4.16052e-07 0.00194882)
(0.000101535 2.04162e-06 -0.0023299)
(0.000404991 -3.98191e-07 -0.00235672)
(0.000748908 -8.90462e-08 -0.00233448)
(0.0010787 -5.5167e-08 -0.00219213)
(0.00139283 -5.30076e-08 -0.00202565)
(0.0016822 -7.14894e-08 -0.00182526)
(0.00193856 -1.68429e-07 -0.00156762)
(0.00215508 -3.94696e-08 -0.00127733)
(0.00232909 -1.9654e-08 -0.00095617)
(0.00245075 -5.33292e-08 -0.00061668)
(0.00251378 -9.8747e-08 -0.000282314)
(0.00251682 -2.32742e-07 4.86181e-05)
(0.00246118 -1.97139e-07 0.000396736)
(0.00236464 -1.82044e-07 0.00075014)
(0.00223985 -1.14616e-07 0.00107546)
(0.00206443 -7.68046e-08 0.00136971)
(0.0018281 -3.69332e-08 0.00164934)
(0.00154668 -2.66949e-08 0.00189524)
(0.00123761 -3.10731e-08 0.00208982)
(0.000905854 5.53731e-09 0.00222657)
(0.000560552 6.93759e-08 0.00227365)
(0.000230405 -2.78409e-07 0.00225139)
(0.000119326 2.40417e-06 -0.00268764)
(0.000471411 -4.08533e-07 -0.00272139)
(0.000865225 -4.94535e-08 -0.00269748)
(0.00125093 1.06629e-08 -0.00254289)
(0.00161795 -1.69869e-08 -0.00235364)
(0.00195085 -6.28386e-08 -0.00211764)
(0.00224207 -8.67181e-08 -0.0018206)
(0.00248456 7.39532e-08 -0.00148643)
(0.00267496 4.71004e-08 -0.00111561)
(0.00281098 -1.13381e-07 -0.000714943)
(0.00288404 -9.20434e-08 -0.000314329)
(0.00288652 -9.4417e-08 7.9439e-05)
(0.00283146 -1.4797e-07 0.000475845)
(0.00273662 -1.21855e-07 0.000862456)
(0.00259256 -1.13684e-07 0.00123648)
(0.0023787 -2.68663e-09 0.00159467)
(0.00210437 -9.59601e-09 0.0019282)
(0.00178452 -8.77695e-08 0.00220987)
(0.00143101 -9.89251e-08 0.00243148)
(0.00104629 -5.53524e-08 0.002594)
(0.000638717 9.83991e-08 0.00263987)
(0.000255938 -2.23253e-07 0.0025898)
(0.000140333 2.85863e-06 -0.00310922)
(0.000546873 -4.51658e-07 -0.00313716)
(0.000999739 -4.98958e-08 -0.00311923)
(0.00145261 1.36784e-08 -0.00295281)
(0.00188131 -2.81067e-08 -0.00273252)
(0.00226452 -6.20481e-08 -0.00245252)
(0.0025933 -1.44014e-08 -0.00210587)
(0.00286595 2.76568e-08 -0.00171736)
(0.00307532 3.55317e-08 -0.00128861)
(0.00322601 -5.62535e-08 -0.000826424)
(0.00331486 -8.1739e-08 -0.00035627)
(0.00333126 -6.9076e-08 0.000103585)
(0.00328358 -9.52461e-08 0.000551985)
(0.00317277 -1.38117e-07 0.00099157)
(0.00298831 -1.5402e-07 0.00143544)
(0.00273055 -3.90746e-08 0.00186047)
(0.00241813 -4.10123e-08 0.00224369)
(0.00206192 -7.0507e-08 0.00256749)
(0.00166361 -1.1343e-07 0.00282513)
(0.00122663 -8.86119e-08 0.00302012)
(0.000761193 -4.76887e-09 0.00306995)
(0.000309181 -6.73422e-07 0.00298258)
(0.000158178 3.22469e-06 -0.00359483)
(0.000624503 -5.99605e-07 -0.00361518)
(0.00115688 -1.13272e-07 -0.00361013)
(0.00168426 -1.8497e-08 -0.00343079)
(0.00217782 -8.88465e-09 -0.00316808)
(0.00261423 -4.59168e-08 -0.00283297)
(0.00298765 -9.96264e-09 -0.00242772)
(0.00329867 -9.77374e-08 -0.00197665)
(0.00354238 -1.27629e-07 -0.00148212)
(0.00371801 -1.52694e-07 -0.00095656)
(0.00382228 -6.36455e-08 -0.000416451)
(0.00384991 -1.62211e-08 0.000115113)
(0.0037972 -4.81605e-08 0.00063807)
(0.00365748 -1.74206e-07 0.00115828)
(0.00343612 -1.19327e-07 0.00167607)
(0.00314635 -1.2708e-08 0.00216566)
(0.00279199 -5.68762e-08 0.00259908)
(0.00238977 -1.74242e-07 0.00296698)
(0.00194386 -1.83463e-07 0.00326886)
(0.00145473 -1.28333e-07 0.00349995)
(0.000934674 -4.18932e-09 0.00356213)
(0.000397269 -9.6969e-07 0.00346738)
(0.00017793 3.55162e-06 -0.00414024)
(0.000712861 -6.41619e-07 -0.00417254)
(0.00133834 -1.6449e-07 -0.00418346)
(0.00195072 -2.62052e-08 -0.00398293)
(0.00251661 -3.94729e-08 -0.00366643)
(0.00301587 -1.6431e-08 -0.00326614)
(0.00344828 -1.84822e-08 -0.00279684)
(0.00380985 -1.62729e-07 -0.00227523)
(0.0040942 -1.43336e-07 -0.00170869)
(0.00429586 -1.47461e-08 -0.00110741)
(0.00440941 -7.32204e-08 -0.000487551)
(0.00443831 3.26966e-09 0.000127034)
(0.00437514 -3.38012e-08 0.000739866)
(0.00421714 -3.3727e-09 0.00135186)
(0.00397099 -9.88515e-08 0.00194561)
(0.00364744 -1.98661e-07 0.00250882)
(0.00324447 -6.91431e-08 0.00300716)
(0.00277981 -1.20028e-07 0.00342113)
(0.00226856 -1.89188e-07 0.0037681)
(0.00171555 -1.6429e-07 0.00403523)
(0.00112426 -1.48571e-08 0.00412742)
(0.000486323 -1.07661e-06 0.00406734)
(0.000210847 4.24463e-06 -0.00476874)
(0.000837945 -7.99611e-07 -0.00482171)
(0.00155794 -1.50886e-07 -0.00484666)
(0.00225715 -1.4455e-07 -0.00461532)
(0.00290583 -7.38223e-08 -0.00423937)
(0.00348803 -4.28076e-08 -0.00376988)
(0.00399573 -1.03586e-07 -0.00322795)
(0.00441712 -6.74106e-08 -0.00262181)
(0.00474251 -1.26979e-08 -0.00196787)
(0.0049669 1.00324e-07 -0.00127438)
(0.00509217 -1.39145e-08 -0.000563979)
(0.00511845 -6.49266e-08 0.000144564)
(0.0050432 1.69439e-08 0.000854615)
(0.00486925 -1.8978e-08 0.00156352)
(0.00459417 -1.63464e-07 0.00224884)
(0.00422304 -1.4505e-07 0.00289864)
(0.00376525 -1.52134e-07 0.00347472)
(0.00323063 -9.24376e-08 0.00394888)
(0.0026303 -1.36242e-07 0.00434302)
(0.00198269 -2.68247e-07 0.00464829)
(0.00128873 -9.24249e-08 0.00478718)
(0.000550519 -1.25018e-06 0.00477347)
(0.000252332 5.03755e-06 -0.00552295)
(0.000993201 -1.06689e-06 -0.00557849)
(0.00182484 -2.52617e-07 -0.00560474)
(0.0026217 -2.10797e-07 -0.00533252)
(0.0033593 5.60579e-09 -0.00490058)
(0.00403306 -2.47911e-08 -0.00435888)
(0.00462349 -2.91312e-08 -0.00372895)
(0.00511296 -8.04212e-08 -0.00302467)
(0.00549073 -3.41235e-08 -0.00226367)
(0.00575346 3.93211e-10 -0.00146529)
(0.00590211 5.05214e-08 -0.000648323)
(0.00592824 8.27993e-09 0.000174758)
(0.00583205 -8.60212e-08 0.000992679)
(0.00562466 -1.57867e-07 0.00180359)
(0.00530612 -1.18118e-07 0.002597)
(0.0048776 -2.01889e-07 0.00334454)
(0.00435488 -1.67208e-07 0.00400537)
(0.00374292 -9.31659e-09 0.00455957)
(0.00304363 -7.42753e-08 0.00502333)
(0.00227379 -6.33861e-08 0.00537955)
(0.00144948 -8.62374e-09 0.00555678)
(0.000607465 -1.09305e-06 0.00556285)
(0.000294611 4.18043e-06 -0.00640979)
(0.00115824 -1.03725e-06 -0.00646098)
(0.00212235 -2.41228e-07 -0.00648107)
(0.00304003 -7.2736e-08 -0.00615227)
(0.00388314 -5.96382e-08 -0.00565374)
(0.00465176 -1.02042e-07 -0.00503678)
(0.00533245 -8.87586e-08 -0.00430903)
(0.00590211 -9.21517e-09 -0.0034928)
(0.00634493 -6.80324e-08 -0.00261151)
(0.0066572 -1.35237e-07 -0.00169386)
(0.00683804 -5.0833e-08 -0.000749012)
(0.00687343 -2.84379e-08 0.000215007)
(0.00675921 -3.7384e-08 0.00116545)
(0.00650609 -7.98854e-08 0.00209427)
(0.00612759 -5.04083e-08 0.00300223)
(0.00563123 -1.09846e-07 0.00385663)
(0.00502726 -4.08118e-08 0.00461556)
(0.00431669 -7.77787e-08 0.00526432)
(0.00350999 1.08395e-08 0.00581508)
(0.00261729 1.78585e-08 0.0062415)
(0.00165935 1.58093e-07 0.00645357)
(0.000688895 -1.11926e-06 0.00645182)
(0.000345523 6.9822e-06 -0.00744588)
(0.0013537 -1.1141e-06 -0.00748191)
(0.00245634 -2.56631e-07 -0.00748839)
(0.00351019 6.60439e-08 -0.00709747)
(0.00448895 -1.6688e-07 -0.00651836)
(0.0053779 -1.92207e-07 -0.00581397)
(0.00616498 -1.02233e-07 -0.00498096)
(0.00682135 3.72541e-08 -0.00403708)
(0.00732956 -2.27168e-08 -0.00301616)
(0.00768974 -1.45497e-07 -0.00196149)
(0.00790067 -1.30526e-07 -0.00086994)
(0.00794628 -5.14112e-08 0.000256788)
(0.00781894 -2.5531e-08 0.0013665)
(0.00752703 -1.17502e-07 0.00243929)
(0.00708628 -1.22305e-07 0.00347735)
(0.00651151 -7.50696e-08 0.00445058)
(0.00580756 -8.5929e-08 0.00532645)
(0.00497631 -1.09292e-07 0.00608425)
(0.00403859 2.7264e-08 0.00672661)
(0.00301104 3.15187e-08 0.00722949)
(0.00191484 3.88756e-07 0.00748371)
(0.000798976 -1.28562e-06 0.00747694)
(0.000403779 7.94622e-06 -0.0086633)
(0.00157396 -1.42913e-06 -0.00865864)
(0.00284129 -2.1079e-07 -0.00863882)
(0.00405846 -1.30014e-07 -0.00819331)
(0.005198 -1.53981e-07 -0.00752424)
(0.00623013 -1.02531e-07 -0.00671496)
(0.00713815 -6.10252e-08 -0.00575727)
(0.00788994 5.43332e-08 -0.0046581)
(0.00846669 -6.37275e-09 -0.00347599)
(0.00887966 -1.0046e-07 -0.00226691)
(0.00912032 -1.34207e-07 -0.00100811)
(0.00917292 -5.78904e-08 0.000299279)
(0.00903414 -7.24918e-08 0.00158805)
(0.00870866 -7.04629e-08 0.00283128)
(0.00820465 -1.44512e-07 0.00402406)
(0.00754261 -8.85836e-08 0.00513952)
(0.00672211 -9.64023e-08 0.00615672)
(0.00575142 6.20037e-08 0.00704207)
(0.00465915 1.0034e-07 0.00778527)
(0.00347393 1.41413e-07 0.00836484)
(0.00220988 3.48287e-07 0.00866557)
(0.000924115 -1.39407e-06 0.00866103)
(0.000459832 9.3508e-06 -0.0100658)
(0.00180405 -1.60476e-06 -0.0100222)
(0.00329021 -3.2586e-07 -0.00997591)
(0.00471053 -1.43473e-07 -0.00946291)
(0.00602649 -4.50206e-08 -0.00868854)
(0.00721161 -5.64181e-08 -0.00775338)
(0.00824809 -1.14076e-08 -0.00664804)
(0.00910886 -9.50098e-08 -0.00536766)
(0.00977747 -1.24164e-07 -0.00400592)
(0.0102588 -2.10431e-08 -0.00261873)
(0.0105338 -1.8796e-08 -0.00116336)
(0.010595 -2.59484e-08 0.000344683)
(0.0104443 -8.10013e-09 0.00183178)
(0.010079 -9.97507e-08 0.00327516)
(0.00950332 -1.15068e-07 0.00465197)
(0.00873588 -3.76801e-08 0.00593827)
(0.00778399 -1.02841e-07 0.00712341)
(0.0066649 4.76983e-08 0.00815298)
(0.00540625 1.03005e-07 0.00900649)
(0.00403795 1.92266e-07 0.00967577)
(0.00257053 5.30054e-07 0.010037)
(0.00107517 -1.60801e-06 0.0100329)
(0.000524219 1.05529e-05 -0.0116589)
(0.002074 -1.80424e-06 -0.0116092)
(0.00381598 -3.75819e-07 -0.011548)
(0.00546677 -2.12583e-07 -0.0109348)
(0.00697904 5.64818e-09 -0.0100273)
(0.0083325 2.54878e-08 -0.00894058)
(0.00951006 -1.34142e-07 -0.00766091)
(0.0104954 -2.64621e-07 -0.00618569)
(0.0112805 -7.95962e-08 -0.00462982)
(0.0118446 -2.38702e-08 -0.00302839)
(0.0121638 8.41253e-08 -0.00134172)
(0.0122402 7.62377e-08 0.000389991)
(0.0120739 -5.73442e-08 0.00210386)
(0.0116567 1.63081e-08 0.00378)
(0.0109997 1.22658e-07 0.00537377)
(0.0101153 9.32378e-08 0.00686269)
(0.00902108 -2.13488e-08 0.00823613)
(0.00773782 -9.68816e-08 0.00943019)
(0.00628469 3.84222e-08 0.0104194)
(0.0046914 1.37929e-07 0.0111987)
(0.00298692 5.81623e-07 0.0116351)
(0.00124844 -1.96038e-06 0.0116301)
(0.000623306 1.25212e-05 -0.0135142)
(0.00244841 -2.17381e-06 -0.0134569)
(0.00444976 -3.47449e-07 -0.013362)
(0.00632864 -1.67302e-07 -0.0126219)
(0.00804993 -1.43483e-07 -0.0115584)
(0.00959494 -4.38569e-08 -0.010294)
(0.0109413 -1.27e-07 -0.00881576)
(0.0120839 -2.07496e-07 -0.00713927)
(0.0130047 6.73977e-09 -0.00536282)
(0.0136589 6.57213e-09 -0.00350435)
(0.0140331 -1.9883e-08 -0.00155451)
(0.0141309 -8.1465e-10 0.000433388)
(0.0139449 -2.61509e-08 0.00241616)
(0.0134666 -2.89424e-08 0.00435713)
(0.0127167 2.17974e-08 0.00619711)
(0.0117036 3.74076e-08 0.00792215)
(0.0104479 -2.06024e-08 0.00951001)
(0.00897249 -1.31476e-07 0.0109023)
(0.00729402 -3.38463e-08 0.0120632)
(0.00544578 2.16006e-08 0.0129703)
(0.0034738 6.17659e-07 0.0134844)
(0.00146069 -2.34879e-06 0.0134876)
(0.000744214 1.5184e-05 -0.0157341)
(0.00288809 -2.50093e-06 -0.0155996)
(0.00516463 -4.54849e-07 -0.0154183)
(0.00728732 -1.59731e-07 -0.0145338)
(0.00924112 -1.60799e-07 -0.0133018)
(0.0110083 -5.41408e-08 -0.011843)
(0.0125608 -4.00234e-08 -0.0101531)
(0.0138891 9.72216e-08 -0.00825487)
(0.0149593 -4.56147e-08 -0.00621423)
(0.0157255 -9.30772e-08 -0.00405919)
(0.0161708 -1.01402e-07 -0.00180976)
(0.0162898 -1.77292e-07 0.000476421)
(0.0160866 5.14182e-09 0.00276683)
(0.015558 -7.54529e-08 0.00500924)
(0.0147056 -8.88048e-08 0.00713995)
(0.0135407 -7.98768e-08 0.00914175)
(0.0120937 -1.34522e-08 0.010974)
(0.0103937 -2.1969e-08 0.0125935)
(0.00846614 -4.08374e-08 0.0139567)
(0.00633997 1.63463e-07 0.0150203)
(0.00405473 8.69558e-07 0.015626)
(0.00171052 -2.74216e-06 0.0156571)
(0.000864325 1.77974e-05 -0.0183452)
(0.00333023 -3.03813e-06 -0.0180598)
(0.00592144 -6.60793e-07 -0.0177469)
(0.00832903 -2.30785e-07 -0.0166989)
(0.0105449 -2.1461e-07 -0.0152844)
(0.012557 -1.30908e-07 -0.0136178)
(0.0143426 3.8948e-08 -0.0117018)
(0.0158816 -4.27146e-08 -0.00955137)
(0.017136 -2.30398e-07 -0.00721281)
(0.018061 -1.04428e-07 -0.00472476)
(0.0186093 -1.79453e-07 -0.00212131)
(0.0187664 -1.91224e-07 0.000517919)
(0.0185473 -1.05998e-07 0.00314958)
(0.0179631 -3.93715e-08 0.00573722)
(0.0170004 -7.07789e-08 0.00821991)
(0.0156681 -1.63518e-07 0.0105449)
(0.0140033 9.85302e-08 0.0126602)
(0.0120449 1.05301e-07 0.0145366)
(0.00982606 -8.51575e-08 0.0161303)
(0.00737513 2.40388e-07 0.0173891)
(0.00472639 9.04199e-07 0.018117)
(0.00199206 -2.95268e-06 0.0181885)
(0.000976872 2.01878e-05 -0.0213254)
(0.00377862 -3.47141e-06 -0.0208699)
(0.00676344 -7.31833e-07 -0.020406)
(0.00951413 -2.31853e-07 -0.0191524)
(0.0120116 -4.19422e-08 -0.0175225)
(0.0142682 -1.67592e-07 -0.0156321)
(0.0162826 -1.52218e-07 -0.0134793)
(0.0180466 -2.03865e-07 -0.011062)
(0.0195263 -2.81288e-07 -0.00840715)
(0.0206509 -1.88953e-07 -0.00554266)
(0.0213475 -1.34649e-07 -0.00252301)
(0.0215935 -2.08661e-07 0.000533053)
(0.0213877 -2.83989e-07 0.00356947)
(0.0207363 -8.35222e-09 0.00655655)
(0.0196479 -4.48797e-08 0.00944382)
(0.0181336 -1.12894e-07 0.0121497)
(0.0162243 -6.57224e-08 0.0146035)
(0.0139672 -3.82078e-08 0.0167799)
(0.0114017 4.32945e-08 0.0186388)
(0.00857141 1.97735e-07 0.0201242)
(0.00551605 8.96455e-07 0.0210082)
(0.00233573 -3.57958e-06 0.0211418)
(0.00112171 2.31346e-05 -0.0247082)
(0.00436005 -3.74567e-06 -0.0241082)
(0.00782201 -7.33381e-07 -0.023471)
(0.0109727 -1.92361e-07 -0.0219354)
(0.0137844 -3.74724e-09 -0.0200242)
(0.0162894 -2.56223e-07 -0.017873)
(0.0185109 -3.77735e-07 -0.0154648)
(0.0204595 -3.06663e-07 -0.0127859)
(0.0221296 -2.08684e-07 -0.00982214)
(0.0234641 -1.86636e-07 -0.00656165)
(0.0243757 -6.90667e-08 -0.00308018)
(0.0247836 -1.32142e-07 0.000466196)
(0.0246391 -2.26339e-07 0.00400376)
(0.0239409 -5.23087e-08 0.00747919)
(0.0227138 1.97796e-09 0.0108321)
(0.0209889 6.66641e-09 0.0139813)
(0.0188048 -1.39261e-07 0.0168396)
(0.0162088 -9.44127e-08 0.0193707)
(0.0132488 1.05908e-07 0.0215348)
(0.00998474 6.42627e-08 0.023275)
(0.00645616 9.73706e-07 0.0243526)
(0.00274935 -4.70106e-06 0.0246023)
(0.00132485 2.72888e-05 -0.0286582)
(0.00513962 -4.01239e-06 -0.027883)
(0.00915007 -6.28606e-07 -0.0270069)
(0.0127686 -1.09552e-07 -0.0251081)
(0.0159767 -2.35098e-07 -0.0228356)
(0.0187953 -2.5e-07 -0.0203526)
(0.0212455 -1.15709e-07 -0.0176308)
(0.0233445 -7.07005e-08 -0.0146544)
(0.0251156 -9.50287e-08 -0.0113928)
(0.0265736 -2.39421e-07 -0.00778551)
(0.0276786 -2.41812e-07 -0.0038569)
(0.0282941 -4.72939e-08 0.000251273)
(0.028282 -5.92288e-08 0.00440073)
(0.0275987 -1.47828e-07 0.00848083)
(0.0262556 -3.56576e-08 0.0124029)
(0.0243023 3.96085e-08 0.0160724)
(0.0218083 -1.6868e-07 0.0194022)
(0.0188302 -1.65449e-07 0.0223512)
(0.0154232 1.08051e-08 0.0248751)
(0.0116507 3.66948e-08 0.0269182)
(0.00755449 1.1921e-06 0.0282407)
(0.00322507 -5.43977e-06 0.0286599)
(0.00157002 3.23634e-05 -0.0333398)
(0.00606829 -4.4874e-06 -0.0322946)
(0.0107183 -5.21776e-07 -0.0310881)
(0.0149002 -1.03228e-07 -0.028764)
(0.0186113 -2.6529e-07 -0.0260569)
(0.021853 -1.254e-08 -0.0231508)
(0.0246301 5.13834e-08 -0.0200202)
(0.0269531 3.69172e-08 -0.0166513)
(0.0288322 1.1737e-08 -0.0130259)
(0.0303076 -7.86788e-08 -0.00908733)
(0.0314259 -1.04444e-07 -0.00478721)
(0.0321414 5.47325e-08 -0.000147528)
(0.0322853 -1.34096e-08 0.00468221)
(0.0316917 -1.69552e-07 0.00949869)
(0.030295 -6.93677e-08 0.0141331)
(0.0281368 -8.18372e-08 0.0184395)
(0.0253073 -9.89023e-08 0.0223336)
(0.0218884 -1.07747e-07 0.0257797)
(0.0179581 -6.25984e-08 0.0287341)
(0.0135904 1.545e-07 0.0311407)
(0.00883444 1.41377e-06 0.0327648)
(0.0037853 -6.38177e-06 0.0334135)
(0.00183664 3.77327e-05 -0.038851)
(0.00710246 -5.21809e-06 -0.0374505)
(0.0125361 -6.55285e-07 -0.0358279)
(0.0174174 -8.07956e-08 -0.0330127)
(0.0217495 -1.29059e-08 -0.0297993)
(0.0255343 6.68933e-08 -0.0263878)
(0.0287702 1.23467e-07 -0.0227552)
(0.0314506 4.47346e-08 -0.0188766)
(0.0335531 3.00323e-08 -0.014747)
(0.0350828 9.52329e-08 -0.0103538)
(0.0360946 1.97818e-08 -0.00565663)
(0.036663 -2.20842e-08 -0.000585875)
(0.0367751 -2.45048e-10 0.0048501)
(0.0362418 -6.30153e-08 0.0104654)
(0.0348501 -1.57412e-07 0.0159594)
(0.0325403 -6.73837e-08 0.0210702)
(0.0293709 -2.81342e-08 0.025676)
(0.0254524 4.20125e-08 0.0297303)
(0.0209119 -1.36989e-07 0.033199)
(0.0158513 1.59114e-07 0.0360371)
(0.0103277 1.6789e-06 0.0380244)
(0.00443762 -7.58054e-06 0.03898)
(0.0021301 4.34874e-05 -0.0452648)
(0.0082746 -6.14617e-06 -0.043491)
(0.0146617 -9.89665e-07 -0.0413896)
(0.0204024 -1.40218e-07 -0.0379965)
(0.025504 1.97516e-07 -0.0341971)
(0.0299775 6.75664e-08 -0.030196)
(0.0338114 5.97222e-08 -0.0259663)
(0.036977 1.40657e-08 -0.0214625)
(0.0394315 1.15284e-07 -0.0166809)
(0.0411483 6.04147e-08 -0.0116408)
(0.042132 1.08855e-07 -0.00635396)
(0.042454 3.81861e-09 -0.000793336)
(0.042239 7.30487e-08 0.00512926)
(0.0415043 1.37832e-07 0.011428)