/*--------------------------------*- C++ -*----------------------------------*\
  =========                 |
  \\      /  F ield         | OpenFOAM: The Open Source CFD Toolbox
   \\    /   O peration     | Website:  https://openfoam.org
    \\  /    A nd           | Version:  7
     \\/     M anipulation  |
\*---------------------------------------------------------------------------*/
FoamFile
{
    version     2.0;
    format      ascii;
    class       volScalarField;
    location    "14";
    object      ddt0(h);
}
// * * * * * * * * * * * * * * * * * * * * * * * * * * * * * * * * * * * * * //

dimensions      [0 1 -1 0 0 0 0];

internalField   nonuniform List<scalar> 
400
(
6.13874e-08
8.80282e-08
1.10019e-07
1.65197e-07
1.69179e-07
2.04383e-07
2.08096e-07
2.11324e-07
2.01901e-07
1.81309e-07
1.48761e-07
1.16381e-07
9.14678e-08
6.73882e-08
4.24533e-08
1.96042e-08
2.74813e-09
-5.9804e-09
-7.96152e-09
-2.94951e-09
7.88351e-08
1.08495e-07
1.33832e-07
1.50942e-07
1.82474e-07
1.79265e-07
1.84089e-07
1.75049e-07
1.67344e-07
1.51471e-07
1.18092e-07
9.41245e-08
7.51559e-08
5.48101e-08
3.32936e-08
1.48403e-08
1.13136e-09
-6.41112e-09
-8.6984e-09
-3.79764e-09
6.59918e-08
8.14871e-08
1.02288e-07
1.12929e-07
1.56186e-07
1.43802e-07
1.72134e-07
1.64536e-07
1.58866e-07
1.44773e-07
1.30379e-07
1.10693e-07
8.43863e-08
5.81251e-08
3.63246e-08
1.97133e-08
8.34311e-09
9.17194e-10
-3.14292e-09
-1.31465e-09
1.10247e-07
1.0244e-07
1.11314e-07
1.21744e-07
1.27571e-07
1.38773e-07
1.29687e-07
1.41376e-07
1.14787e-07
9.80957e-08
9.8161e-08
8.86993e-08
6.86584e-08
4.74157e-08
3.06574e-08
1.9797e-08
1.232e-08
5.46881e-09
-5.80076e-10
-1.01586e-09
1.12349e-07
1.0544e-07
1.11947e-07
1.11647e-07
9.81729e-08
1.07716e-07
9.93901e-08
9.962e-08
9.61026e-08
7.95784e-08
7.33948e-08
6.21298e-08
4.93411e-08
3.76502e-08
2.89086e-08
2.40017e-08
2.02441e-08
1.49773e-08
8.63213e-09
3.36587e-09
1.16366e-07
1.0933e-07
1.03169e-07
9.73904e-08
8.74167e-08
6.48797e-08
7.82025e-08
5.19582e-08
5.15851e-08
5.71694e-08
4.21313e-08
3.16227e-08
2.80397e-08
2.7187e-08
2.72044e-08
2.71483e-08
2.54519e-08
2.17805e-08
1.48911e-08
5.65071e-09
1.11583e-07
1.01611e-07
8.80744e-08
7.79085e-08
5.66038e-08
5.09016e-08
1.33028e-08
2.82053e-08
1.51913e-08
-3.85805e-09
-2.93775e-09
6.71767e-09
1.47776e-08
2.04729e-08
2.56238e-08
2.78996e-08
2.72019e-08
2.50997e-08
1.90874e-08
7.74138e-09
9.1362e-08
7.72184e-08
7.02274e-08
5.4316e-08
3.88947e-08
3.66421e-08
2.56372e-08
-1.68249e-10
-8.71449e-09
-6.49523e-09
-6.13926e-09
-3.0836e-09
1.20571e-09
9.34783e-09
2.05549e-08
2.72567e-08
2.72291e-08
2.41211e-08
1.80872e-08
7.34519e-09
6.0928e-08
4.67965e-08
4.32478e-08
2.97939e-08
2.20154e-08
2.27289e-09
-3.74397e-09
-5.71519e-09
-1.07579e-08
-1.85233e-08
-1.50746e-08
-7.60424e-09
-1.85013e-09
3.5777e-09
1.22547e-08
1.96257e-08
2.10649e-08
1.81227e-08
1.27105e-08
4.94067e-09
2.05064e-08
1.88139e-08
1.15375e-08
1.33121e-08
7.23776e-09
1.43331e-09
-1.0248e-08
-8.32174e-09
-1.53092e-08
-1.20495e-08
-4.67063e-09
4.27216e-11
6.17497e-10
4.51512e-10
2.71502e-09
6.10653e-09
7.86947e-09
7.24787e-09
5.05746e-09
1.94375e-09
-2.06269e-08
-1.89162e-08
-1.16983e-08
-1.34491e-08
-7.36388e-09
-1.61466e-09
1.00899e-08
8.19994e-09
1.51977e-08
1.19688e-08
4.62758e-09
-3.40397e-11
-5.61841e-10
-3.78708e-10
-2.64745e-09
-6.04972e-09
-7.81358e-09
-7.18086e-09
-4.99445e-09
-1.92141e-09
-6.10327e-08
-4.69126e-08
-4.337e-08
-2.99576e-08
-2.21966e-08
-2.38862e-09
3.63644e-09
5.6627e-09
1.07642e-08
1.85244e-08
1.50713e-08
7.62261e-09
1.88382e-09
-3.53382e-09
-1.21958e-08
-1.95515e-08
-2.09839e-08
-1.80451e-08
-1.26501e-08
-4.92052e-09
-9.14431e-08
-7.73527e-08
-7.03534e-08
-5.44708e-08
-3.91029e-08
-3.67418e-08
-2.56863e-08
1.04234e-10
8.66216e-09
6.52831e-09
6.20146e-09
3.11509e-09
-1.18346e-09
-9.28833e-09
-2.04533e-08
-2.71388e-08
-2.71245e-08
-2.40428e-08
-1.80347e-08
-7.32874e-09
-1.11669e-07
-1.01736e-07
-8.82199e-08
-7.806e-08
-5.66832e-08
-5.09606e-08
-1.34635e-08
-2.82388e-08
-1.52427e-08
3.78534e-09
2.94992e-09
-6.64453e-09
-1.46944e-08
-2.03752e-08
-2.55051e-08
-2.77755e-08
-2.7091e-08
-2.50094e-08
-1.9019e-08
-7.71529e-09
-1.1648e-07
-1.09454e-07
-1.03291e-07
-9.75072e-08
-8.74551e-08
-6.50362e-08
-7.8185e-08
-5.2073e-08
-5.15402e-08
-5.71587e-08
-4.21248e-08
-3.15663e-08
-2.79492e-08
-2.70773e-08
-2.70812e-08
-2.70167e-08
-2.53202e-08
-2.16592e-08
-1.4798e-08
-5.61593e-09
-1.12521e-07
-1.05586e-07
-1.12077e-07
-1.11699e-07
-9.83179e-08
-1.07716e-07
-9.95266e-08
-9.95864e-08
-9.61821e-08
-7.95883e-08
-7.3347e-08
-6.20594e-08
-4.92466e-08
-3.75358e-08
-2.87755e-08
-2.38456e-08
-2.00758e-08
-1.48239e-08
-8.52295e-09
-3.3262e-09
-1.10404e-07
-1.02597e-07
-1.11427e-07
-1.21861e-07
-1.27661e-07
-1.38884e-07
-1.29701e-07
-1.41427e-07
-1.14831e-07
-9.8069e-08
-9.81186e-08
-8.86416e-08
-6.85669e-08
-4.72879e-08
-3.04995e-08
-1.9609e-08
-1.21185e-08
-5.29408e-09
6.91972e-10
1.05307e-09
-6.61707e-08
-8.16671e-08
-1.02427e-07
-1.13078e-07
-1.563e-07
-1.43898e-07
-1.72216e-07
-1.64597e-07
-1.58907e-07
-1.448e-07
-1.30378e-07
-1.10655e-07
-8.42899e-08
-5.79774e-08
-3.61455e-08
-1.95148e-08
-8.14496e-09
-7.54311e-10
3.24056e-09
1.34633e-09
-7.90716e-08
-1.08665e-07
-1.3387e-07
-1.51197e-07
-1.82605e-07
-1.79493e-07
-1.84312e-07
-1.75087e-07
-1.67323e-07
-1.51527e-07
-1.18107e-07
-9.40815e-08
-7.50498e-08
-5.46564e-08
-3.31112e-08
-1.46401e-08
-9.30082e-10
6.58548e-09
8.81436e-09
3.84054e-09
-6.15952e-08
-8.82368e-08
-1.10398e-07
-1.6532e-07
-1.6935e-07
-2.04442e-07
-2.08089e-07
-2.11489e-07
-2.02013e-07
-1.81296e-07
-1.48748e-07
-1.16337e-07
-9.13669e-08
-6.72383e-08
-4.22696e-08
-1.94037e-08
-2.5521e-09
6.15248e-09
8.0801e-09
2.99539e-09
)
;

boundaryField
{
    sides
    {
        type            calculated;
        value           nonuniform List<scalar> 
40
(
-6.15952e-08
-8.82368e-08
-1.10398e-07
-1.6532e-07
-1.6935e-07
-2.04442e-07
-2.08089e-07
-2.11489e-07
-2.02013e-07
-1.81296e-07
-1.48748e-07
-1.16337e-07
-9.13669e-08
-6.72383e-08
-4.22696e-08
-1.94037e-08
-2.5521e-09
6.15248e-09
8.0801e-09
2.99539e-09
6.13874e-08
8.80282e-08
1.10019e-07
1.65197e-07
1.69179e-07
2.04383e-07
2.08096e-07
2.11324e-07
2.01901e-07
1.81309e-07
1.48761e-07
1.16381e-07
9.14678e-08
6.73882e-08
4.24533e-08
1.96042e-08
2.74813e-09
-5.9804e-09
-7.96152e-09
-2.94951e-09
)
;
    }
    inlet
    {
        type            calculated;
        value           nonuniform List<scalar> 
20
(
6.13874e-08
7.88351e-08
6.59918e-08
1.10247e-07
1.12349e-07
1.16366e-07
1.11583e-07
9.1362e-08
6.0928e-08
2.05064e-08
-2.06269e-08
-6.10327e-08
-9.14431e-08
-1.11669e-07
-1.1648e-07
-1.12521e-07
-1.10404e-07
-6.61707e-08
-7.90716e-08
-6.15952e-08
)
;
    }
    outlet
    {
        type            calculated;
        value           uniform 0;
    }
    frontAndBack
    {
        type            empty;
    }
}


// ************************************************************************* //
