/*--------------------------------*- C++ -*----------------------------------*\
  =========                 |
  \\      /  F ield         | OpenFOAM: The Open Source CFD Toolbox
   \\    /   O peration     | Website:  https://openfoam.org
    \\  /    A nd           | Version:  7
     \\/     M anipulation  |
\*---------------------------------------------------------------------------*/
FoamFile
{
    version     2.0;
    format      ascii;
    class       volVectorField;
    location    "14";
    object      ddtCorrDdt0(hU);
}
// * * * * * * * * * * * * * * * * * * * * * * * * * * * * * * * * * * * * * //

dimensions      [0 2 -2 0 0 0 0];

internalField   nonuniform List<vector> 
400
(
(-2.15789e-09 -6.29879e-09 0)
(-2.19285e-09 -4.86549e-09 0)
(-9.02273e-09 -9.49585e-10 0)
(-2.43608e-08 -3.76757e-09 0)
(-3.4607e-08 -7.45338e-09 0)
(-3.1447e-08 -1.15076e-08 0)
(-3.25091e-08 -1.49158e-08 0)
(-2.74461e-08 -1.74205e-08 0)
(-1.04707e-08 -1.82603e-08 0)
(9.58817e-09 -1.15738e-08 0)
(2.05603e-08 9.76882e-11 0)
(2.32208e-08 1.15126e-08 0)
(2.37813e-08 1.79113e-08 0)
(1.91314e-08 1.77489e-08 0)
(1.36424e-08 1.56785e-08 0)
(5.89477e-09 1.1541e-08 0)
(5.86413e-09 3.926e-09 0)
(1.04926e-08 -1.29432e-09 0)
(1.66102e-08 -1.49749e-08 0)
(4.50259e-08 -1.33291e-08 0)
(-3.10074e-09 -1.55281e-08 0)
(-2.92742e-09 -1.42453e-08 0)
(-8.06438e-09 -6.74046e-09 0)
(-2.73278e-08 -3.98612e-09 0)
(-3.58319e-08 -4.02958e-09 0)
(-3.70233e-08 -4.32042e-09 0)
(-3.53295e-08 -6.72815e-09 0)
(-3.06882e-08 -7.03807e-09 0)
(-1.11546e-08 -6.44076e-09 0)
(1.47288e-08 -1.472e-09 0)
(2.91862e-08 7.00542e-09 0)
(3.23595e-08 1.97892e-08 0)
(2.82756e-08 3.10169e-08 0)
(1.78826e-08 3.48117e-08 0)
(6.80009e-09 3.04668e-08 0)
(-3.14362e-09 2.26897e-08 0)
(-2.49555e-09 9.90175e-09 0)
(5.98563e-09 2.47264e-09 0)
(1.71715e-08 -1.14914e-08 0)
(4.43834e-08 -1.58302e-08 0)
(5.64587e-10 -1.75646e-08 0)
(-7.78796e-10 -1.43734e-08 0)
(-1.01582e-08 -2.97647e-09 0)
(-2.34085e-08 3.63391e-10 0)
(-2.54454e-08 -2.39037e-09 0)
(-2.60795e-08 -5.60564e-09 0)
(-2.21172e-08 -1.54147e-08 0)
(-1.80378e-08 -2.39613e-08 0)
(-6.87931e-09 -2.50486e-08 0)
(5.97214e-09 -1.81711e-08 0)
(1.46179e-08 3.74214e-09 0)
(2.03269e-08 3.11254e-08 0)
(2.23046e-08 5.26747e-08 0)
(1.86243e-08 5.95522e-08 0)
(1.36224e-08 5.31963e-08 0)
(6.29208e-09 3.76366e-08 0)
(5.3858e-09 1.20584e-08 0)
(8.80072e-09 -4.7834e-09 0)
(1.5029e-08 -3.48074e-08 0)
(3.89363e-08 -3.33048e-08 0)
(2.75639e-09 -1.50209e-08 0)
(-4.12478e-10 -1.288e-08 0)
(-9.88043e-09 1.65448e-09 0)
(-2.34249e-08 2.00672e-09 0)
(-2.99934e-08 -7.26371e-10 0)
(-3.09452e-08 -1.0914e-08 0)
(-3.17207e-08 -1.99052e-08 0)
(-2.15134e-08 -3.50118e-08 0)
(-7.23987e-09 -3.65341e-08 0)
(1.60898e-08 -2.29659e-08 0)
(3.62226e-08 6.55588e-09 0)
(3.81562e-08 4.01199e-08 0)
(2.86646e-08 6.57914e-08 0)
(1.48785e-08 7.44042e-08 0)
(3.11078e-09 6.67424e-08 0)
(-6.7796e-09 4.85963e-08 0)
(-6.82435e-09 1.6014e-08 0)
(9.69967e-11 -5.26563e-09 0)
(1.13736e-08 -4.44303e-08 0)
(3.76273e-08 -4.50796e-08 0)
(1.28028e-09 -1.1235e-08 0)
(-3.79101e-09 -7.87747e-09 0)
(-1.00766e-08 4.78903e-09 0)
(-1.45394e-08 1.00492e-08 0)
(-1.92132e-08 7.08797e-09 0)
(-1.64198e-08 -1.33838e-09 0)
(-1.47716e-08 -1.52346e-08 0)
(-1.17557e-08 -3.04099e-08 0)
(-7.40073e-10 -3.71771e-08 0)
(6.50317e-09 -2.00439e-08 0)
(1.34905e-08 1.28239e-08 0)
(1.80563e-08 4.84765e-08 0)
(1.93553e-08 7.65267e-08 0)
(1.57227e-08 8.61958e-08 0)
(1.0364e-08 7.78549e-08 0)
(3.76858e-09 5.57119e-08 0)
(2.71774e-09 1.66064e-08 0)
(5.63352e-09 -1.03037e-08 0)
(1.11438e-08 -5.66995e-08 0)
(2.82172e-08 -5.38348e-08 0)
(2.76133e-09 -4.14622e-09 0)
(-2.63501e-09 5.17207e-09 0)
(-9.39147e-09 1.63074e-08 0)
(-1.44132e-08 2.03587e-08 0)
(-1.74937e-08 1.3067e-08 0)
(-1.93563e-08 -1.07031e-09 0)
(-1.67561e-08 -2.37618e-08 0)
(-1.41672e-08 -4.46637e-08 0)
(2.02292e-10 -5.2483e-08 0)
(2.11218e-08 -3.6387e-08 0)
(2.86196e-08 3.5273e-09 0)
(2.52129e-08 5.01924e-08 0)
(1.84672e-08 8.61957e-08 0)
(9.91694e-09 9.83352e-08 0)
(1.59358e-09 8.78906e-08 0)
(-6.79605e-09 6.127e-08 0)
(-7.57399e-09 1.36737e-08 0)
(-2.57858e-09 -1.87691e-08 0)
(7.28323e-09 -7.473e-08 0)
(2.68466e-08 -6.77056e-08 0)
(3.41955e-09 5.54351e-09 0)
(-2.1592e-09 1.6939e-08 0)
(-9.37695e-09 2.5797e-08 0)
(-1.07859e-08 3.01618e-08 0)
(-1.41522e-08 2.66081e-08 0)
(-1.07886e-08 1.12077e-08 0)
(-9.64616e-09 -1.40446e-08 0)
(-3.90215e-09 -3.96722e-08 0)
(2.10236e-09 -4.93077e-08 0)
(5.20102e-09 -3.54286e-08 0)
(1.00878e-08 1.59791e-09 0)
(1.3445e-08 4.70201e-08 0)
(1.34858e-08 8.40298e-08 0)
(1.00511e-08 9.78463e-08 0)
(5.86035e-09 8.90917e-08 0)
(8.49711e-10 6.29507e-08 0)
(-5.15963e-10 1.39239e-08 0)
(1.46222e-09 -2.10684e-08 0)
(6.46564e-09 -8.065e-08 0)
(1.8403e-08 -7.26123e-08 0)
(3.56584e-09 1.48871e-08 0)
(-2.01616e-09 2.77257e-08 0)
(-7.21348e-09 3.50287e-08 0)
(-8.3886e-09 4.00994e-08 0)
(-9.03642e-09 3.61594e-08 0)
(-8.16813e-09 1.90731e-08 0)
(-7.62868e-09 -1.38793e-08 0)
(-5.78257e-09 -4.59236e-08 0)
(8.94001e-10 -6.17704e-08 0)
(1.04401e-08 -4.59032e-08 0)
(1.41523e-08 -1.04763e-09 0)
(1.32175e-08 5.16065e-08 0)
(1.02072e-08 9.22436e-08 0)
(5.96226e-09 1.06168e-07 0)
(2.09427e-09 9.48527e-08 0)
(-2.60429e-09 6.42261e-08 0)
(-4.25613e-09 8.60138e-09 0)
(-2.60375e-09 -3.02413e-08 0)
(3.3136e-09 -9.56857e-08 0)
(1.47409e-08 -8.25441e-08 0)
(1.7427e-09 2.29074e-08 0)
(-1.79314e-09 3.70817e-08 0)
(-4.62373e-09 4.25382e-08 0)
(-5.72917e-09 4.75845e-08 0)
(-5.47604e-09 4.53774e-08 0)
(-5.72156e-09 2.39827e-08 0)
(-4.86484e-09 -8.72219e-09 0)
(-2.2047e-09 -4.26541e-08 0)
(1.79423e-09 -5.8463e-08 0)
(4.43861e-09 -4.5928e-08 0)
(6.84654e-09 -4.21925e-09 0)
(7.28582e-09 4.72338e-08 0)
(5.48676e-09 8.83289e-08 0)
(2.49878e-09 1.03583e-07 0)
(8.3245e-10 9.40016e-08 0)
(-1.55036e-10 6.42041e-08 0)
(-2.7565e-10 8.11921e-09 0)
(2.71083e-10 -3.14893e-08 0)
(2.87018e-09 -9.83188e-08 0)
(8.36502e-09 -8.47818e-08 0)
(1.81374e-10 2.78969e-08 0)
(-4.18487e-10 4.51207e-08 0)
(-1.69163e-09 4.74623e-08 0)
(-1.65809e-09 5.38484e-08 0)
(-2.23279e-09 5.16128e-08 0)
(-2.39929e-09 3.09199e-08 0)
(-1.96386e-09 -5.12338e-09 0)
(-6.50358e-10 -4.16567e-08 0)
(-8.39132e-10 -6.07379e-08 0)
(7.3286e-10 -4.72896e-08 0)
(2.7542e-09 -3.97059e-09 0)
(3.27643e-09 4.83686e-08 0)
(2.56936e-09 8.99082e-08 0)
(1.39874e-09 1.05637e-07 0)
(6.8449e-10 9.62189e-08 0)
(-4.44396e-11 6.51071e-08 0)
(-5.9672e-10 6.12088e-09 0)
(-7.9551e-10 -3.53626e-08 0)
(2.57823e-11 -1.04097e-07 0)
(2.67529e-09 -8.84198e-08 0)
(-1.83962e-10 2.7897e-08 0)
(4.20299e-10 4.51259e-08 0)
(1.69478e-09 4.74679e-08 0)
(1.66722e-09 5.38498e-08 0)
(2.24522e-09 5.16181e-08 0)
(2.41044e-09 3.09249e-08 0)
(1.97329e-09 -5.11303e-09 0)
(6.47517e-10 -4.16509e-08 0)
(8.13893e-10 -6.07353e-08 0)
(-7.66453e-10 -4.7288e-08 0)
(-2.78187e-09 -3.96881e-09 0)
(-3.29466e-09 4.83715e-08 0)
(-2.58262e-09 8.991e-08 0)
(-1.41206e-09 1.05635e-07 0)
(-6.98152e-10 9.62157e-08 0)
(3.9312e-11 6.5104e-08 0)
(5.98349e-10 6.12317e-09 0)
(8.11665e-10 -3.536e-08 0)
(-4.93599e-12 -1.0409e-07 0)
(-2.6796e-09 -8.8408e-08 0)
(-1.7423e-09 2.29099e-08 0)
(1.79534e-09 3.70945e-08 0)
(4.62928e-09 4.25535e-08 0)
(5.73931e-09 4.75909e-08 0)
(5.48797e-09 4.53833e-08 0)
(5.7401e-09 2.39897e-08 0)
(4.87541e-09 -8.71184e-09 0)
(2.20232e-09 -4.2642e-08 0)
(-1.80444e-09 -5.84645e-08 0)
(-4.45922e-09 -4.5938e-08 0)
(-6.86986e-09 -4.22472e-09 0)
(-7.30734e-09 4.72383e-08 0)
(-5.50846e-09 8.8336e-08 0)
(-2.51851e-09 1.03585e-07 0)
(-8.44928e-10 9.39952e-08 0)
(1.56382e-10 6.41873e-08 0)
(2.81876e-10 8.10976e-09 0)
(-2.56981e-10 -3.14979e-08 0)
(-2.85743e-09 -9.82999e-08 0)
(-8.37185e-09 -8.4738e-08 0)
(-3.56389e-09 1.4897e-08 0)
(2.0171e-09 2.77445e-08 0)
(7.2205e-09 3.50489e-08 0)
(8.39828e-09 4.01146e-08 0)
(9.04519e-09 3.61607e-08 0)
(8.17936e-09 1.90673e-08 0)
(7.63883e-09 -1.387e-08 0)
(5.77695e-09 -4.59112e-08 0)
(-9.1461e-10 -6.1767e-08 0)
(-1.04475e-08 -4.59243e-08 0)
(-1.41537e-08 -1.07575e-09 0)
(-1.32324e-08 5.15945e-08 0)
(-1.02336e-08 9.2249e-08 0)
(-5.98538e-09 1.06177e-07 0)
(-2.1062e-09 9.48572e-08 0)
(2.6069e-09 6.42104e-08 0)
(4.26032e-09 8.58513e-09 0)
(2.6141e-09 -3.02656e-08 0)
(-3.30435e-09 -9.5682e-08 0)
(-1.47458e-08 -8.24942e-08 0)
(-3.42121e-09 5.55849e-09 0)
(2.15629e-09 1.69681e-08 0)
(9.38666e-09 2.58205e-08 0)
(1.07964e-08 3.01776e-08 0)
(1.41579e-08 2.66036e-08 0)
(1.08017e-08 1.12001e-08 0)
(9.65019e-09 -1.40278e-08 0)
(3.90459e-09 -3.96571e-08 0)
(-2.11755e-09 -4.93035e-08 0)
(-5.2338e-09 -3.54397e-08 0)
(-1.01044e-08 1.57107e-09 0)
(-1.34521e-08 4.70001e-08 0)
(-1.34974e-08 8.40251e-08 0)
(-1.00648e-08 9.78469e-08 0)
(-5.86919e-09 8.90861e-08 0)
(-8.50923e-10 6.29256e-08 0)
(5.15177e-10 1.39135e-08 0)
(-1.45569e-09 -2.10788e-08 0)
(-6.45988e-09 -8.06037e-08 0)
(-1.8404e-08 -7.25221e-08 0)
(-2.76266e-09 -4.12975e-09 0)
(2.63043e-09 5.20438e-09 0)
(9.39689e-09 1.6339e-08 0)
(1.44203e-08 2.03712e-08 0)
(1.75003e-08 1.30618e-08 0)
(1.93579e-08 -1.06336e-09 0)
(1.67706e-08 -2.37485e-08 0)
(1.41562e-08 -4.46408e-08 0)
(-1.92606e-10 -5.24857e-08 0)
(-2.11224e-08 -3.64148e-08 0)
(-2.86318e-08 3.50175e-09 0)
(-2.52222e-08 5.01878e-08 0)
(-1.84754e-08 8.6214e-08 0)
(-9.92628e-09 9.83568e-08 0)
(-1.60342e-09 8.78982e-08 0)
(6.78967e-09 6.12381e-08 0)
(7.56332e-09 1.36359e-08 0)
(2.57552e-09 -1.88149e-08 0)
(-7.29381e-09 -7.47366e-08 0)
(-2.68485e-08 -6.7635e-08 0)
(-1.28734e-09 -1.12182e-08 0)
(3.78608e-09 -7.84704e-09 0)
(1.00782e-08 4.82142e-09 0)
(1.45477e-08 1.00646e-08 0)
(1.92165e-08 7.09074e-09 0)
(1.64329e-08 -1.3284e-09 0)
(1.47685e-08 -1.52207e-08 0)
(1.17684e-08 -3.03782e-08 0)
(7.24096e-10 -3.71662e-08 0)
(-6.51549e-09 -2.00623e-08 0)
(-1.34912e-08 1.27982e-08 0)
(-1.80632e-08 4.84599e-08 0)
(-1.93675e-08 7.65201e-08 0)
(-1.57381e-08 8.61901e-08 0)
(-1.03785e-08 7.78455e-08 0)
(-3.77785e-09 5.56867e-08 0)
(-2.72294e-09 1.66063e-08 0)
(-5.62622e-09 -1.0307e-08 0)
(-1.11428e-08 -5.66452e-08 0)
(-2.82111e-08 -5.37332e-08 0)
(-2.7589e-09 -1.5012e-08 0)
(4.0614e-10 -1.28564e-08 0)
(9.88101e-09 1.67822e-09 0)
(2.34269e-08 2.02004e-09 0)
(2.99959e-08 -7.26872e-10 0)
(3.0932e-08 -1.09135e-08 0)
(3.17205e-08 -1.98818e-08 0)
(2.15161e-08 -3.49939e-08 0)
(7.24202e-09 -3.65372e-08 0)
(-1.6073e-08 -2.29832e-08 0)
(-3.62136e-08 6.53629e-09 0)
(-3.81602e-08 4.01175e-08 0)
(-2.86708e-08 6.58069e-08 0)
(-1.48853e-08 7.44194e-08 0)
(-3.11962e-09 6.67468e-08 0)
(6.76695e-09 4.85701e-08 0)
(6.80115e-09 1.59895e-08 0)
(-1.17275e-10 -5.29757e-09 0)
(-1.14135e-08 -4.44334e-08 0)
(-3.76322e-08 -4.50087e-08 0)
(-5.63874e-10 -1.75522e-08 0)
(7.76698e-10 -1.43649e-08 0)
(1.01557e-08 -2.96176e-09 0)
(2.34073e-08 3.8196e-10 0)
(2.54467e-08 -2.38387e-09 0)
(2.60814e-08 -5.60787e-09 0)
(2.21193e-08 -1.53972e-08 0)
(1.80454e-08 -2.39452e-08 0)
(6.8894e-09 -2.50335e-08 0)
(-5.97322e-09 -1.81757e-08 0)
(-1.46271e-08 3.72018e-09 0)
(-2.03436e-08 3.11082e-08 0)
(-2.23203e-08 5.2673e-08 0)
(-1.86367e-08 5.95588e-08 0)
(-1.36291e-08 5.32054e-08 0)
(-6.29373e-09 3.76297e-08 0)
(-5.39239e-09 1.20647e-08 0)
(-8.79727e-09 -4.79193e-09 0)
(-1.50483e-08 -3.47913e-08 0)
(-3.89336e-08 -3.32408e-08 0)
(3.08696e-09 -1.55173e-08 0)
(2.91411e-09 -1.42402e-08 0)
(8.07969e-09 -6.72716e-09 0)
(2.73217e-08 -3.97561e-09 0)
(3.58162e-08 -4.02753e-09 0)
(3.69934e-08 -4.30921e-09 0)
(3.53148e-08 -6.71025e-09 0)
(3.07071e-08 -7.02373e-09 0)
(1.11849e-08 -6.44425e-09 0)
(-1.47162e-08 -1.47209e-09 0)
(-2.91828e-08 7.01383e-09 0)
(-3.23613e-08 1.98021e-08 0)
(-2.82781e-08 3.10265e-08 0)
(-1.78922e-08 3.48095e-08 0)
(-6.81676e-09 3.04521e-08 0)
(3.11325e-09 2.26617e-08 0)
(2.45295e-09 9.88659e-09 0)
(-6.02567e-09 2.46427e-09 0)
(-1.7219e-08 -1.14714e-08 0)
(-4.43663e-08 -1.57776e-08 0)
(2.15025e-09 -6.29928e-09 0)
(2.18292e-09 -4.86248e-09 0)
(9.00779e-09 -9.37081e-10 0)
(2.43695e-08 -3.75979e-09 0)
(3.46093e-08 -7.44667e-09 0)
(3.14545e-08 -1.1481e-08 0)
(3.25134e-08 -1.48855e-08 0)
(2.74334e-08 -1.74028e-08 0)
(1.04756e-08 -1.82675e-08 0)
(-9.57126e-09 -1.1584e-08 0)
(-2.05631e-08 9.31027e-11 0)
(-2.32311e-08 1.15166e-08 0)
(-2.37819e-08 1.79241e-08 0)
(-1.91317e-08 1.77629e-08 0)
(-1.36463e-08 1.56995e-08 0)
(-5.90225e-09 1.15516e-08 0)
(-5.8897e-09 3.93315e-09 0)
(-1.05023e-08 -1.30655e-09 0)
(-1.66579e-08 -1.50211e-08 0)
(-4.50413e-08 -1.33356e-08 0)
)
;

boundaryField
{
    sides
    {
        type            calculated;
        value           nonuniform List<vector> 
40
(
(2.15025e-09 0 0)
(2.18292e-09 0 0)
(9.00779e-09 0 0)
(2.43695e-08 0 0)
(3.46093e-08 0 0)
(3.14545e-08 0 0)
(3.25134e-08 0 0)
(2.74334e-08 0 0)
(1.04756e-08 0 0)
(-9.57126e-09 0 0)
(-2.05631e-08 0 0)
(-2.32311e-08 0 0)
(-2.37819e-08 0 0)
(-1.91317e-08 0 0)
(-1.36463e-08 0 0)
(-5.90225e-09 0 0)
(-5.8897e-09 0 0)
(-1.05023e-08 0 0)
(-1.66579e-08 0 0)
(-4.50413e-08 0 0)
(-2.15789e-09 0 0)
(-2.19285e-09 0 0)
(-9.02273e-09 0 0)
(-2.43608e-08 0 0)
(-3.4607e-08 0 0)
(-3.1447e-08 0 0)
(-3.25091e-08 0 0)
(-2.74461e-08 0 0)
(-1.04707e-08 0 0)
(9.58817e-09 0 0)
(2.05603e-08 0 0)
(2.32208e-08 0 0)
(2.37813e-08 0 0)
(1.91314e-08 0 0)
(1.36424e-08 0 0)
(5.89477e-09 0 0)
(5.86413e-09 0 0)
(1.04926e-08 0 0)
(1.66102e-08 0 0)
(4.50259e-08 0 0)
)
;
    }
    inlet
    {
        type            calculated;
        value           uniform (0 0 0);
    }
    outlet
    {
        type            calculated;
        value           nonuniform List<vector> 
20
(
(4.50259e-08 -1.33291e-08 0)
(4.43834e-08 -1.58302e-08 0)
(3.89363e-08 -3.33048e-08 0)
(3.76273e-08 -4.50796e-08 0)
(2.82172e-08 -5.38348e-08 0)
(2.68466e-08 -6.77056e-08 0)
(1.8403e-08 -7.26123e-08 0)
(1.47409e-08 -8.25441e-08 0)
(8.36502e-09 -8.47818e-08 0)
(2.67529e-09 -8.84198e-08 0)
(-2.6796e-09 -8.8408e-08 0)
(-8.37185e-09 -8.4738e-08 0)
(-1.47458e-08 -8.24942e-08 0)
(-1.8404e-08 -7.25221e-08 0)
(-2.68485e-08 -6.7635e-08 0)
(-2.82111e-08 -5.37332e-08 0)
(-3.76322e-08 -4.50087e-08 0)
(-3.89336e-08 -3.32408e-08 0)
(-4.43663e-08 -1.57776e-08 0)
(-4.50413e-08 -1.33356e-08 0)
)
;
    }
    frontAndBack
    {
        type            empty;
    }
}


// ************************************************************************* //
