/*--------------------------------*- C++ -*----------------------------------*\
  =========                 |
  \\      /  F ield         | OpenFOAM: The Open Source CFD Toolbox
   \\    /   O peration     | Website:  https://openfoam.org
    \\  /    A nd           | Version:  7
     \\/     M anipulation  |
\*---------------------------------------------------------------------------*/
FoamFile
{
    version     2.0;
    format      ascii;
    class       surfaceScalarField;
    location    "14";
    object      ddtCorrDdt0(phi);
}
// * * * * * * * * * * * * * * * * * * * * * * * * * * * * * * * * * * * * * //

dimensions      [0 4 -2 0 0 0 0];

internalField   nonuniform List<scalar> 
760
(
-1.83339e-11
-5.21666e-11
-4.07532e-11
-4.6846e-11
-8.24101e-11
6.15824e-11
-1.39405e-10
-1.05778e-11
-1.65203e-10
-2.93382e-11
-1.74858e-10
-8.78121e-11
-1.57174e-10
-5.011e-11
-9.08244e-11
-2.85437e-11
-4.50388e-12
-7.25989e-11
7.21391e-11
-1.67147e-11
1.0759e-10
1.86553e-11
1.20147e-10
6.73105e-11
1.11008e-10
1.04525e-10
8.27192e-11
1.16574e-10
5.26423e-11
1.0387e-10
3.21602e-11
7.97956e-11
4.4213e-11
3.38048e-11
7.10026e-11
5.82114e-12
1.48645e-10
-5.78818e-11
-6.87389e-11
-3.4594e-11
-7.31976e-11
-3.70116e-11
-8.77739e-11
-8.97387e-11
-1.71768e-11
-1.45072e-10
6.83782e-12
-1.91264e-10
-1.62874e-11
-1.93794e-10
-1.50943e-11
-1.65823e-10
-7.41316e-11
-1.05242e-10
-1.0281e-10
1.75107e-11
-1.06419e-10
1.02319e-10
-7.46258e-11
1.47774e-10
1.7572e-11
1.56113e-10
1.34161e-10
1.19739e-10
2.26295e-10
6.27627e-11
2.50835e-10
1.13433e-11
2.19904e-10
-1.0789e-11
1.54327e-10
1.19534e-11
5.16504e-11
6.05767e-11
-1.35833e-11
1.50175e-10
-1.2901e-10
-1.2924e-10
4.7546e-12
-6.93861e-11
-4.91015e-11
-7.12255e-11
-8.21909e-11
-1.72709e-11
-1.13838e-10
-5.38757e-12
-1.24054e-10
-1.6714e-11
-1.41052e-10
-3.98029e-11
-9.46127e-11
-7.95696e-11
-6.44987e-11
-1.31936e-10
-6.38357e-12
-1.22994e-10
4.61219e-11
-8.08932e-11
9.1507e-11
3.375e-11
1.09466e-10
1.73773e-10
1.03883e-10
2.83567e-10
8.02644e-11
3.23303e-10
5.26294e-11
2.92494e-10
3.11925e-11
2.14721e-10
3.78854e-11
7.57123e-11
6.19831e-11
-1.51553e-11
1.30797e-10
-1.83248e-10
-1.89053e-10
-5.3818e-12
-6.51384e-11
-4.11299e-11
-5.17538e-11
-7.8884e-11
2.09481e-11
-1.28477e-10
1.87433e-11
-1.46389e-10
3.09338e-11
-1.80422e-10
-4.30335e-11
-1.34343e-10
-7.73925e-11
-5.7094e-11
-1.76471e-10
1.69318e-11
-2.01613e-10
1.23039e-10
-1.18161e-10
1.86627e-10
5.0434e-11
1.7383e-10
2.37083e-10
1.1139e-10
3.76322e-10
4.39496e-11
4.17672e-10
-7.72769e-12
3.71351e-10
-3.23601e-11
2.63594e-10
-1.47783e-11
7.71308e-11
3.06568e-11
-4.76007e-11
1.19883e-10
-2.65812e-10
-2.52614e-10
-3.03494e-11
-4.30358e-11
-4.09259e-11
-3.5595e-12
-7.21032e-11
4.84879e-11
-5.54741e-11
8.52477e-11
-1.07667e-10
3.05965e-11
-6.88061e-11
6.55392e-12
-8.18195e-11
-1.11863e-10
-1.97855e-11
-1.73093e-10
7.34773e-12
-2.2394e-10
4.80657e-11
-1.3435e-10
8.21232e-11
4.67934e-11
9.59233e-11
2.42065e-10
8.85278e-11
3.96271e-10
6.4541e-11
4.5288e-10
3.6321e-11
4.09634e-10
1.69259e-11
2.92046e-10
2.21201e-11
7.98723e-11
4.36064e-11
-6.54433e-11
9.59842e-11
-3.19049e-10
-3.00376e-10
-1.90616e-11
3.28545e-12
-4.59986e-11
5.20884e-11
-5.03099e-11
1.07612e-10
-7.92336e-11
1.21197e-10
-8.24741e-11
1.12685e-10
-1.08642e-10
1.22689e-11
-7.12767e-11
-7.91444e-11
-3.74941e-11
-2.14165e-10
6.16024e-11
-2.34309e-10
1.212e-10
-1.68455e-10
1.32652e-10
1.71579e-11
1.1166e-10
2.49039e-10
7.20631e-11
4.33249e-10
2.80445e-11
4.97566e-10
-1.23219e-11
4.48225e-10
-3.55335e-11
3.13381e-10
-2.41714e-11
6.7685e-11
1.18989e-11
-1.04137e-10
8.40137e-11
-3.94936e-10
-3.53069e-10
-1.62093e-11
5.17438e-11
-4.01699e-11
1.18234e-10
-4.85916e-11
1.53249e-10
-4.91832e-11
1.82109e-10
-7.5949e-11
1.51623e-10
-4.26519e-11
8.73655e-11
-4.20488e-11
-8.57738e-11
7.84329e-12
-2.18749e-10
1.42515e-11
-2.99657e-10
3.42642e-11
-2.169e-10
5.96289e-11
-1.44437e-12
7.02798e-11
2.49614e-10
6.00355e-11
4.43234e-10
3.87517e-11
5.09255e-10
1.66814e-11
4.56843e-10
9.74463e-13
3.15719e-10
2.13234e-12
5.6326e-11
1.94767e-11
-1.26694e-10
6.14732e-11
-4.38725e-10
-3.87257e-10
-8.02618e-12
9.72174e-11
-3.67509e-11
1.58536e-10
-3.14122e-11
1.96169e-10
-4.4259e-11
2.16577e-10
-3.45191e-11
2.06409e-10
-5.36074e-11
1.03812e-10
-2.64615e-11
-4.22024e-11
-1.28625e-11
-2.17208e-10
3.23079e-11
-2.87646e-10
6.09611e-11
-2.22531e-10
6.83919e-11
-1.48576e-11
5.95273e-11
2.4039e-10
4.00052e-11
4.4554e-10
1.82545e-11
5.21267e-10
-7.52624e-13
4.70749e-10
-1.61597e-11
3.20587e-10
-1.7403e-11
4.20683e-11
2.72438e-13
-1.53931e-10
4.5204e-11
-4.8504e-10
-4.18294e-10
-1.40589e-11
1.31795e-10
-1.7457e-11
2.10185e-10
-2.64278e-11
2.30277e-10
-2.50762e-11
2.60697e-10
-2.80512e-11
2.47743e-10
-2.62991e-11
1.37787e-10
-2.09989e-11
-4.26829e-11
5.13082e-12
-2.12886e-10
1.50087e-11
-3.04263e-10
2.65176e-11
-2.40926e-10
3.57787e-11
-2.49549e-11
3.3636e-11
2.38627e-10
2.00037e-11
4.47088e-10
6.28298e-12
5.24307e-10
1.79394e-12
4.75242e-10
2.43907e-13
3.20697e-10
-3.818e-13
3.14664e-11
6.38759e-12
-1.70613e-10
2.80109e-11
-5.0776e-10
-4.33273e-10
-8.13033e-12
1.4739e-10
-3.10462e-12
2.39584e-10
-9.48832e-12
2.46453e-10
-7.58077e-12
2.79214e-10
-1.35531e-11
2.68194e-10
-1.18701e-11
1.71096e-10
-4.11075e-12
-8.18001e-12
-2.83493e-12
-2.02166e-10
-1.9623e-12
-2.97555e-10
8.70393e-12
-2.27893e-10
1.59941e-11
-1.48447e-11
1.56998e-11
2.40044e-10
9.82675e-12
4.42008e-10
3.94695e-12
5.19766e-10
1.21709e-12
4.76137e-10
-1.19416e-12
3.24757e-10
-3.42394e-12
3.22439e-11
-2.39275e-12
-1.74699e-10
6.80362e-12
-5.18823e-10
-4.41453e-10
8.14379e-12
1.31796e-10
3.11363e-12
2.10237e-10
9.53433e-12
2.30331e-10
7.61059e-12
2.60709e-10
1.36451e-11
2.47806e-10
1.19166e-11
1.37844e-10
4.14955e-12
-4.25813e-11
2.77527e-12
-2.1285e-10
1.81078e-12
-3.04247e-10
-8.87266e-12
-2.40915e-10
-1.613e-11
-2.49386e-11
-1.57944e-11
2.38669e-10
-9.90745e-12
4.47137e-10
-4.01765e-12
5.24324e-10
-1.26756e-12
4.75219e-10
1.20117e-12
3.20636e-10
3.48155e-12
3.14335e-11
2.50248e-12
-1.70643e-10
-6.73436e-12
-5.07707e-10
-4.33138e-10
1.40888e-11
9.72407e-11
1.7478e-11
1.5861e-10
2.64483e-11
1.96268e-10
2.51544e-11
2.16625e-10
2.81351e-11
2.06409e-10
2.63922e-11
1.03845e-10
2.10016e-11
-4.21948e-11
-5.14388e-12
-2.17137e-10
-1.50746e-11
-2.87682e-10
-2.66466e-11
-2.22655e-10
-3.59097e-11
-1.49479e-11
-3.3758e-11
2.40371e-10
-2.01253e-11
4.45548e-10
-6.3717e-12
5.21265e-10
-1.82545e-12
4.7073e-10
-2.07019e-13
3.20514e-10
4.46161e-13
4.20291e-11
-6.30503e-12
-1.53986e-10
-2.79691e-11
-4.84959e-10
-4.18051e-10
8.04479e-12
5.18192e-11
3.67953e-11
1.18341e-10
3.14217e-11
1.53355e-10
4.43221e-11
1.82219e-10
3.4606e-11
1.51636e-10
5.36304e-11
8.72563e-11
2.65042e-11
-8.57107e-11
1.2782e-11
-2.18701e-10
-3.23704e-11
-2.99579e-10
-6.09788e-11
-2.16959e-10
-6.8447e-11
-1.61207e-12
-5.96576e-11
2.49512e-10
-4.01498e-11
4.43248e-10
-1.83473e-11
5.09307e-10
7.29757e-13
4.56859e-10
1.61952e-11
3.15618e-10
1.74481e-11
5.62419e-11
-2.07902e-13
-1.26808e-10
-4.51679e-11
-4.3863e-10
-3.86918e-10
1.6191e-11
3.36298e-12
4.02108e-11
5.22675e-11
4.86468e-11
1.07738e-10
4.92372e-11
1.21254e-10
7.59458e-11
1.12631e-10
4.27582e-11
1.23062e-11
4.20366e-11
-7.9032e-11
-7.83018e-12
-2.14068e-10
-1.43966e-11
-2.34367e-10
-3.44008e-11
-1.68534e-10
-5.96901e-11
1.70588e-11
-7.034e-11
2.48987e-10
-6.01155e-11
4.33275e-10
-3.88166e-11
4.97613e-10
-1.67126e-11
4.48224e-10
-9.69063e-13
3.13233e-10
-2.11146e-12
6.75612e-11
-1.94324e-11
-1.04277e-10
-6.14333e-11
-3.94826e-10
-3.52661e-10
1.90749e-11
-4.29484e-11
4.59933e-11
-3.41492e-12
5.03612e-11
4.86777e-11
7.92472e-11
8.53057e-11
8.24865e-11
3.06025e-11
1.08737e-10
6.59469e-12
7.12448e-11
-1.1185e-10
3.75044e-11
-1.72954e-10
-6.15516e-11
-2.23876e-10
-1.21259e-10
-1.34513e-10
-1.32717e-10
4.66423e-11
-1.11714e-10
2.42015e-10
-7.21158e-11
3.96306e-10
-2.80996e-11
4.52918e-10
1.22679e-11
4.09624e-10
3.54944e-11
2.919e-10
2.41403e-11
7.97781e-11
-1.1912e-11
-6.55598e-11
-8.40199e-11
-3.18928e-10
-2.99946e-10
3.03424e-11
-6.50736e-11
4.09471e-11
-5.1608e-11
7.20929e-11
2.10554e-11
5.55003e-11
1.88189e-11
1.07745e-10
3.09337e-11
6.87923e-11
-4.29923e-11
8.18836e-11
-7.7297e-11
1.97792e-11
-1.7633e-10
-7.44383e-12
-2.01639e-10
-4.80797e-11
-1.18242e-10
-8.21515e-11
5.03272e-11
-9.59863e-11
2.37039e-10
-8.86054e-11
3.76349e-10
-6.46226e-11
4.177e-10
-3.63951e-11
3.71339e-10
-1.6965e-11
2.6346e-10
-2.21116e-11
7.70576e-11
-4.3568e-11
-4.77077e-11
-9.59457e-11
-2.65697e-10
-2.52187e-10
5.40644e-12
-6.91406e-11
4.11238e-11
-7.11602e-11
7.88626e-11
-1.71706e-11
1.28486e-10
-5.30618e-12
1.46397e-10
-1.66863e-11
1.80336e-10
-3.97938e-11
1.3441e-10
-7.93847e-11
5.70777e-11
-1.31861e-10
-1.68757e-11
-1.22924e-10
-1.22969e-10
-8.0915e-11
-1.86621e-10
3.36663e-11
-1.73864e-10
1.73726e-10
-1.11434e-10
2.83591e-10
-4.39968e-11
3.23343e-10
7.65709e-12
2.92522e-10
3.22613e-11
2.14647e-10
1.46698e-11
7.56886e-11
-3.07894e-11
-1.52257e-11
-1.19972e-10
-1.83193e-10
-1.88706e-10
-4.68134e-12
-7.32751e-11
4.90823e-11
-8.77197e-11
8.21628e-11
-1.71418e-11
1.13845e-10
6.92398e-12
1.24056e-10
-1.63056e-11
1.41077e-10
-1.51945e-11
9.46195e-11
-7.41749e-11
6.45606e-11
-1.02757e-10
6.40461e-12
-1.06366e-10
-4.61471e-11
-7.46257e-11
-9.15773e-11
1.75292e-11
-1.09557e-10
1.34149e-10
-1.03956e-10
2.26316e-10
-8.03195e-11
2.50862e-10
-5.26639e-11
2.19899e-10
-3.12213e-11
1.54239e-10
-3.79041e-11
5.16188e-11
-6.20068e-11
-1.36472e-11
-1.30831e-10
-1.28936e-10
-1.28959e-10
3.45462e-11
-5.21784e-11
3.7028e-11
-4.70575e-11
8.9782e-11
6.24746e-11
1.45004e-10
-1.06743e-11
1.91105e-10
-2.86883e-11
1.93713e-10
-8.62862e-11
1.65829e-10
-4.88807e-11
1.05393e-10
-2.78354e-11
-1.74087e-11
-7.31368e-11
-1.02286e-10
-1.70143e-11
-1.47775e-10
1.86563e-11
-1.56121e-10
6.73456e-11
-1.19774e-10
1.04582e-10
-6.28406e-11
1.16606e-10
-1.14803e-11
1.03889e-10
1.05897e-11
7.97566e-11
-1.21651e-11
3.37891e-11
-6.07931e-11
5.77917e-12
-1.50231e-10
-5.79382e-11
-6.86201e-11
1.82966e-11
4.07365e-11
8.23912e-11
1.39401e-10
1.65255e-10
1.74886e-10
1.57146e-10
9.07697e-11
4.59642e-12
-7.20987e-11
-1.07631e-10
-1.20179e-10
-1.11009e-10
-8.27425e-11
-5.2688e-11
-3.22557e-11
-4.43205e-11
-7.11338e-11
-1.48803e-10
)
;

boundaryField
{
    sides
    {
        type            calculated;
        value           uniform 0;
    }
    inlet
    {
        type            calculated;
        value           uniform 0;
    }
    outlet
    {
        type            calculated;
        value           nonuniform List<scalar> 
20
(
2.24192e-10
2.17278e-10
1.95729e-10
1.85082e-10
1.42507e-10
1.3494e-10
9.50715e-11
7.67403e-11
4.44161e-11
1.44168e-11
-1.44807e-11
-4.44875e-11
-7.68002e-11
-9.5098e-11
-1.34968e-10
-1.4248e-10
-1.85102e-10
-1.95688e-10
-2.17153e-10
-2.24217e-10
)
;
    }
    frontAndBack
    {
        type            empty;
        value           nonuniform 0();
    }
}


// ************************************************************************* //
