/*--------------------------------*- C++ -*----------------------------------*\
  =========                 |
  \\      /  F ield         | OpenFOAM: The Open Source CFD Toolbox
   \\    /   O peration     | Website:  https://openfoam.org
    \\  /    A nd           | Version:  7
     \\/     M anipulation  |
\*---------------------------------------------------------------------------*/
FoamFile
{
    version     2.0;
    format      ascii;
    class       volVectorField;
    location    "14";
    object      hU;
}
// * * * * * * * * * * * * * * * * * * * * * * * * * * * * * * * * * * * * * //

dimensions      [0 2 -1 0 0 0 0];

internalField   nonuniform List<vector> 
400
(
(0.001 -9.57301e-09 0)
(0.000999996 -2.591e-08 0)
(0.00099999 -4.34327e-08 0)
(0.000999993 -6.05613e-08 0)
(0.00100001 -7.49688e-08 0)
(0.00100002 -8.74239e-08 0)
(0.00100002 -9.69644e-08 0)
(0.00100004 -1.03212e-07 0)
(0.00100005 -1.06104e-07 0)
(0.00100006 -1.09001e-07 0)
(0.00100006 -1.14264e-07 0)
(0.00100008 -1.2847e-07 0)
(0.00100009 -1.43766e-07 0)
(0.00100012 -1.66834e-07 0)
(0.00100014 -1.80171e-07 0)
(0.00100022 -2.09324e-07 0)
(0.00100025 -2.14522e-07 0)
(0.00100038 -2.56336e-07 0)
(0.00100041 -2.49085e-07 0)
(0.00100063 -3.28627e-07 0)
(0.001 1.20954e-09 0)
(0.001 9.7043e-09 0)
(0.000999997 1.47885e-08 0)
(0.001 1.68698e-08 0)
(0.00100002 1.88909e-08 0)
(0.00100003 2.21188e-08 0)
(0.00100004 2.77066e-08 0)
(0.00100006 3.64883e-08 0)
(0.00100008 4.87917e-08 0)
(0.00100008 6.05394e-08 0)
(0.00100008 7.22917e-08 0)
(0.00100009 7.71787e-08 0)
(0.00100009 7.93474e-08 0)
(0.00100012 6.9052e-08 0)
(0.00100015 6.58671e-08 0)
(0.00100021 4.64882e-08 0)
(0.00100027 4.9312e-08 0)
(0.00100036 1.5844e-08 0)
(0.00100041 2.46903e-08 0)
(0.00100054 -5.45129e-08 0)
(0.001 -8.1045e-09 0)
(0.000999996 -1.91261e-08 0)
(0.000999989 -3.66177e-08 0)
(0.000999992 -5.76124e-08 0)
(0.001 -7.7169e-08 0)
(0.00100001 -9.30608e-08 0)
(0.00100002 -1.02849e-07 0)
(0.00100003 -1.05804e-07 0)
(0.00100004 -1.015e-07 0)
(0.00100005 -9.66633e-08 0)
(0.00100005 -9.58594e-08 0)
(0.00100007 -1.09821e-07 0)
(0.00100008 -1.31586e-07 0)
(0.00100011 -1.71713e-07 0)
(0.00100013 -2.0288e-07 0)
(0.00100019 -2.54408e-07 0)
(0.00100022 -2.7325e-07 0)
(0.00100031 -3.31625e-07 0)
(0.00100035 -3.325e-07 0)
(0.00100048 -4.15822e-07 0)
(0.001 -4.11261e-09 0)
(0.000999997 -8.41382e-09 0)
(0.000999993 -1.99019e-08 0)
(0.000999999 -3.4852e-08 0)
(0.00100001 -4.69162e-08 0)
(0.00100002 -5.43206e-08 0)
(0.00100004 -5.33883e-08 0)
(0.00100005 -4.31819e-08 0)
(0.00100007 -2.33143e-08 0)
(0.00100007 -3.20294e-09 0)
(0.00100007 1.12406e-08 0)
(0.00100007 6.15718e-09 0)
(0.00100008 -1.02165e-08 0)
(0.0010001 -4.86928e-08 0)
(0.00100013 -7.82265e-08 0)
(0.00100018 -1.29781e-07 0)
(0.00100022 -1.46828e-07 0)
(0.00100029 -2.01301e-07 0)
(0.00100033 -1.99222e-07 0)
(0.00100042 -2.70363e-07 0)
(0.001 -7.0111e-09 0)
(0.000999995 -1.81453e-08 0)
(0.000999992 -3.59682e-08 0)
(0.000999996 -5.8878e-08 0)
(0.001 -8.19588e-08 0)
(0.00100001 -1.00874e-07 0)
(0.00100002 -1.10854e-07 0)
(0.00100003 -1.09481e-07 0)
(0.00100004 -9.71234e-08 0)
(0.00100004 -8.38144e-08 0)
(0.00100005 -7.72212e-08 0)
(0.00100006 -9.17686e-08 0)
(0.00100007 -1.20529e-07 0)
(0.00100009 -1.74163e-07 0)
(0.00100011 -2.19706e-07 0)
(0.00100015 -2.87764e-07 0)
(0.00100018 -3.176e-07 0)
(0.00100024 -3.82937e-07 0)
(0.00100026 -3.85982e-07 0)
(0.00100034 -4.56551e-07 0)
(0.001 -7.19564e-09 0)
(0.000999995 -2.1739e-08 0)
(0.000999992 -4.19781e-08 0)
(0.000999996 -6.5302e-08 0)
(0.001 -8.73183e-08 0)
(0.00100001 -1.03374e-07 0)
(0.00100002 -1.07109e-07 0)
(0.00100004 -9.61462e-08 0)
(0.00100005 -7.19717e-08 0)
(0.00100005 -4.65126e-08 0)
(0.00100005 -3.13058e-08 0)
(0.00100005 -4.39416e-08 0)
(0.00100006 -7.5328e-08 0)
(0.00100007 -1.34712e-07 0)
(0.00100009 -1.8526e-07 0)
(0.00100012 -2.58173e-07 0)
(0.00100016 -2.88648e-07 0)
(0.00100021 -3.50814e-07 0)
(0.00100023 -3.48589e-07 0)
(0.00100029 -4.03819e-07 0)
(0.001 -7.27314e-09 0)
(0.000999995 -2.55953e-08 0)
(0.000999994 -4.71099e-08 0)
(0.000999998 -7.1194e-08 0)
(0.001 -9.5598e-08 0)
(0.00100001 -1.15533e-07 0)
(0.00100001 -1.23975e-07 0)
(0.00100002 -1.17449e-07 0)
(0.00100003 -9.75739e-08 0)
(0.00100003 -7.71435e-08 0)
(0.00100004 -6.60295e-08 0)
(0.00100004 -8.15218e-08 0)
(0.00100005 -1.16625e-07 0)
(0.00100006 -1.81557e-07 0)
(0.00100007 -2.39177e-07 0)
(0.0010001 -3.2034e-07 0)
(0.00100012 -3.58077e-07 0)
(0.00100015 -4.26333e-07 0)
(0.00100017 -4.2714e-07 0)
(0.00100022 -4.82349e-07 0)
(0.001 -7.1872e-09 0)
(0.000999996 -2.89331e-08 0)
(0.000999995 -5.19727e-08 0)
(0.000999998 -7.69873e-08 0)
(0.001 -1.03039e-07 0)
(0.00100001 -1.24139e-07 0)
(0.00100001 -1.31432e-07 0)
(0.00100002 -1.21014e-07 0)
(0.00100002 -9.50547e-08 0)
(0.00100003 -6.78974e-08 0)
(0.00100003 -5.33812e-08 0)
(0.00100003 -7.06857e-08 0)
(0.00100003 -1.10968e-07 0)
(0.00100004 -1.82811e-07 0)
(0.00100005 -2.4645e-07 0)
(0.00100007 -3.32514e-07 0)
(0.00100009 -3.71197e-07 0)
(0.00100011 -4.36985e-07 0)
(0.00100013 -4.33094e-07 0)
(0.00100016 -4.76925e-07 0)
(0.001 -7.01194e-09 0)
(0.000999997 -3.14392e-08 0)
(0.000999997 -5.53873e-08 0)
(0.000999998 -8.03213e-08 0)
(0.001 -1.06637e-07 0)
(0.001 -1.28234e-07 0)
(0.00100001 -1.35306e-07 0)
(0.00100001 -1.24842e-07 0)
(0.00100001 -9.93776e-08 0)
(0.00100002 -7.34054e-08 0)
(0.00100002 -6.00375e-08 0)
(0.00100002 -7.83317e-08 0)
(0.00100002 -1.1975e-07 0)
(0.00100003 -1.93221e-07 0)
(0.00100003 -2.59009e-07 0)
(0.00100004 -3.48251e-07 0)
(0.00100005 -3.90009e-07 0)
(0.00100007 -4.58719e-07 0)
(0.00100008 -4.56052e-07 0)
(0.00100009 -5.00011e-07 0)
(0.001 -6.8566e-09 0)
(0.000999999 -3.25186e-08 0)
(0.000999999 -5.69188e-08 0)
(0.001 -8.1672e-08 0)
(0.001 -1.08243e-07 0)
(0.001 -1.30255e-07 0)
(0.001 -1.37765e-07 0)
(0.001 -1.2705e-07 0)
(0.001 -1.0054e-07 0)
(0.00100001 -7.30611e-08 0)
(0.00100001 -5.88627e-08 0)
(0.00100001 -7.77147e-08 0)
(0.00100001 -1.2102e-07 0)
(0.00100001 -1.97312e-07 0)
(0.00100001 -2.65937e-07 0)
(0.00100001 -3.57541e-07 0)
(0.00100002 -4.00115e-07 0)
(0.00100002 -4.68008e-07 0)
(0.00100003 -4.63667e-07 0)
(0.00100003 -5.03415e-07 0)
(0.001 -6.85565e-09 0)
(0.001 -3.25178e-08 0)
(0.001 -5.69188e-08 0)
(0.001 -8.1673e-08 0)
(0.001 -1.08243e-07 0)
(0.000999999 -1.30253e-07 0)
(0.000999998 -1.37762e-07 0)
(0.000999996 -1.2705e-07 0)
(0.000999995 -1.00543e-07 0)
(0.000999995 -7.30633e-08 0)
(0.000999994 -5.88633e-08 0)
(0.000999993 -7.77131e-08 0)
(0.000999993 -1.21017e-07 0)
(0.000999991 -1.97308e-07 0)
(0.00099999 -2.65932e-07 0)
(0.000999986 -3.57533e-07 0)
(0.000999983 -4.00104e-07 0)
(0.000999978 -4.67999e-07 0)
(0.000999975 -4.63652e-07 0)
(0.000999968 -5.03407e-07 0)
(0.000999999 -7.00923e-09 0)
(0.001 -3.14373e-08 0)
(0.001 -5.53874e-08 0)
(0.001 -8.0323e-08 0)
(0.000999999 -1.06636e-07 0)
(0.000999996 -1.28229e-07 0)
(0.000999993 -1.353e-07 0)
(0.000999989 -1.24842e-07 0)
(0.000999986 -9.93832e-08 0)
(0.000999984 -7.34089e-08 0)
(0.000999983 -6.0036e-08 0)
(0.000999982 -7.83234e-08 0)
(0.000999979 -1.19744e-07 0)
(0.000999974 -1.93212e-07 0)
(0.000999967 -2.59003e-07 0)
(0.000999956 -3.4823e-07 0)
(0.000999947 -3.89976e-07 0)
(0.000999932 -4.58665e-07 0)
(0.000999925 -4.55978e-07 0)
(0.000999907 -4.99935e-07 0)
(0.000999999 -7.18314e-09 0)
(0.001 -2.89306e-08 0)
(0.001 -5.19734e-08 0)
(0.001 -7.69889e-08 0)
(0.000999998 -1.03037e-07 0)
(0.000999994 -1.24132e-07 0)
(0.000999989 -1.31427e-07 0)
(0.000999982 -1.21018e-07 0)
(0.000999976 -9.50676e-08 0)
(0.000999972 -6.79095e-08 0)
(0.000999972 -5.33853e-08 0)
(0.00099997 -7.06786e-08 0)
(0.000999966 -1.10964e-07 0)
(0.000999958 -1.82808e-07 0)
(0.000999948 -2.46458e-07 0)
(0.00099993 -3.32514e-07 0)
(0.000999913 -3.71185e-07 0)
(0.000999887 -4.36959e-07 0)
(0.000999871 -4.33034e-07 0)
(0.000999842 -4.76874e-07 0)
(0.000999999 -7.26887e-09 0)
(0.001 -2.55924e-08 0)
(0.00100001 -4.71116e-08 0)
(0.001 -7.11977e-08 0)
(0.000999996 -9.55971e-08 0)
(0.00099999 -1.15524e-07 0)
(0.000999985 -1.23965e-07 0)
(0.000999978 -1.17447e-07 0)
(0.000999971 -9.75821e-08 0)
(0.000999966 -7.71499e-08 0)
(0.000999963 -6.60291e-08 0)
(0.000999957 -8.15043e-08 0)
(0.000999951 -1.16606e-07 0)
(0.000999939 -1.81521e-07 0)
(0.000999926 -2.39143e-07 0)
(0.000999902 -3.20269e-07 0)
(0.000999881 -3.57991e-07 0)
(0.000999845 -4.26207e-07 0)
(0.000999828 -4.26984e-07 0)
(0.000999783 -4.82186e-07 0)
(0.000999999 -7.19186e-09 0)
(0.00100001 -2.17362e-08 0)
(0.00100001 -4.198e-08 0)
(0.001 -6.53091e-08 0)
(0.000999995 -8.73234e-08 0)
(0.000999987 -1.03372e-07 0)
(0.000999977 -1.07109e-07 0)
(0.000999965 -9.61584e-08 0)
(0.000999953 -7.19954e-08 0)
(0.000999948 -4.65311e-08 0)
(0.000999951 -3.13122e-08 0)
(0.000999949 -4.39343e-08 0)
(0.000999944 -7.53286e-08 0)
(0.000999929 -1.34718e-07 0)
(0.00099991 -1.85283e-07 0)
(0.000999876 -2.58187e-07 0)
(0.000999843 -2.8864e-07 0)
(0.000999795 -3.50783e-07 0)
(0.000999766 -3.485e-07 0)
(0.000999713 -4.03738e-07 0)
(0.000999999 -7.00747e-09 0)
(0.001 -1.81419e-08 0)
(0.00100001 -3.59676e-08 0)
(0.001 -5.88801e-08 0)
(0.000999996 -8.19557e-08 0)
(0.00099999 -1.0086e-07 0)
(0.000999984 -1.10842e-07 0)
(0.000999974 -1.09479e-07 0)
(0.000999965 -9.71358e-08 0)
(0.000999957 -8.38262e-08 0)
(0.00099995 -7.72271e-08 0)
(0.000999939 -9.17527e-08 0)
(0.00099993 -1.20513e-07 0)
(0.00099991 -1.74124e-07 0)
(0.000999892 -2.19675e-07 0)
(0.000999853 -2.87687e-07 0)
(0.000999822 -3.17518e-07 0)
(0.000999763 -3.82804e-07 0)
(0.000999738 -3.85827e-07 0)
(0.000999656 -4.56371e-07 0)
(0.000999998 -4.1129e-09 0)
(0.001 -8.4171e-09 0)
(0.00100001 -1.99127e-08 0)
(0.001 -3.48685e-08 0)
(0.000999988 -4.69291e-08 0)
(0.000999976 -5.43256e-08 0)
(0.000999963 -5.33944e-08 0)
(0.000999947 -4.31982e-08 0)
(0.000999932 -2.33372e-08 0)
(0.000999925 -3.21643e-09 0)
(0.000999929 1.12368e-08 0)
(0.000999927 6.16567e-09 0)
(0.000999921 -1.02169e-08 0)
(0.000999899 -4.86915e-08 0)
(0.000999873 -7.82371e-08 0)
(0.000999824 -1.29771e-07 0)
(0.000999778 -1.46795e-07 0)
(0.000999707 -2.01237e-07 0)
(0.000999666 -1.99105e-07 0)
(0.000999582 -2.70241e-07 0)
(0.000999999 -8.10378e-09 0)
(0.001 -1.91253e-08 0)
(0.00100001 -3.66183e-08 0)
(0.00100001 -5.76155e-08 0)
(0.000999998 -7.71703e-08 0)
(0.000999991 -9.30579e-08 0)
(0.000999984 -1.0285e-07 0)
(0.000999972 -1.05813e-07 0)
(0.000999961 -1.01521e-07 0)
(0.000999952 -9.66827e-08 0)
(0.000999946 -9.58761e-08 0)
(0.000999932 -1.09818e-07 0)
(0.000999921 -1.31588e-07 0)
(0.000999893 -1.71697e-07 0)
(0.000999869 -2.02888e-07 0)
(0.000999815 -2.54384e-07 0)
(0.000999776 -2.73247e-07 0)
(0.000999688 -3.31578e-07 0)
(0.000999655 -3.32452e-07 0)
(0.000999523 -4.15731e-07 0)
(0.000999999 1.20969e-09 0)
(0.000999999 9.70168e-09 0)
(0.001 1.47809e-08 0)
(0.000999998 1.68602e-08 0)
(0.000999984 1.88848e-08 0)
(0.000999971 2.21194e-08 0)
(0.000999959 2.77085e-08 0)
(0.000999941 3.64898e-08 0)
(0.000999925 4.87922e-08 0)
(0.000999916 6.05468e-08 0)
(0.000999917 7.22975e-08 0)
(0.000999913 7.71883e-08 0)
(0.000999905 7.93459e-08 0)
(0.000999878 6.90646e-08 0)
(0.000999848 6.58753e-08 0)
(0.000999786 4.65377e-08 0)
(0.000999735 4.93688e-08 0)
(0.000999639 1.59517e-08 0)
(0.000999594 2.48064e-08 0)
(0.000999462 -5.43598e-08 0)
(0.000999999 -9.57464e-09 0)
(0.001 -2.59143e-08 0)
(0.00100001 -4.34442e-08 0)
(0.00100001 -6.05793e-08 0)
(0.000999995 -7.49896e-08 0)
(0.000999984 -8.74454e-08 0)
(0.000999975 -9.69935e-08 0)
(0.00099996 -1.03248e-07 0)
(0.000999947 -1.06146e-07 0)
(0.000999937 -1.09038e-07 0)
(0.000999936 -1.143e-07 0)
(0.000999923 -1.285e-07 0)
(0.000999914 -1.43804e-07 0)
(0.000999879 -1.66875e-07 0)
(0.000999856 -1.80228e-07 0)
(0.000999782 -2.09394e-07 0)
(0.000999746 -2.146e-07 0)
(0.000999618 -2.56437e-07 0)
(0.000999592 -2.49163e-07 0)
(0.000999368 -3.28733e-07 0)
)
;

boundaryField
{
    sides
    {
        type            slip;
    }
    inlet
    {
        type            fixedValue;
        value           uniform (0.001 0 0);
    }
    outlet
    {
        type            zeroGradient;
    }
    frontAndBack
    {
        type            empty;
    }
}


// ************************************************************************* //
