/*--------------------------------*- C++ -*----------------------------------*\
  =========                 |
  \\      /  F ield         | OpenFOAM: The Open Source CFD Toolbox
   \\    /   O peration     | Website:  https://openfoam.org
    \\  /    A nd           | Version:  7
     \\/     M anipulation  |
\*---------------------------------------------------------------------------*/
FoamFile
{
    version     2.0;
    format      ascii;
    class       surfaceScalarField;
    location    "14";
    object      phi;
}
// * * * * * * * * * * * * * * * * * * * * * * * * * * * * * * * * * * * * * //

dimensions      [0 4 -1 0 0 0 0];

internalField   nonuniform List<scalar> 
760
(
4.99998e-06
-4.79018e-13
4.99997e-06
-1.86493e-11
4.99997e-06
-4.27397e-11
5e-06
-6.85327e-11
5.00004e-06
-9.43555e-11
5.0001e-06
-1.13144e-10
5.00017e-06
-1.19703e-10
5.00023e-06
-1.13172e-10
5.00028e-06
-9.4645e-11
5.00032e-06
-7.61268e-11
5.00035e-06
-6.31379e-11
5.00041e-06
-8.05244e-11
5.0005e-06
-1.05927e-10
5.00067e-06
-1.7452e-10
5.00087e-06
-2.09991e-10
5.00119e-06
-3.1644e-10
5.00152e-06
-3.24003e-10
5.00202e-06
-4.96753e-10
5.00249e-06
-4.71545e-10
-8.83915e-10
5e-06
-3.24306e-11
5e-06
-4.34117e-11
5.00001e-06
-8.68155e-11
5.00004e-06
-1.45408e-10
5.0001e-06
-1.97776e-10
5.00018e-06
-2.3374e-10
5.00026e-06
-2.46821e-10
5.00033e-06
-2.308e-10
5.00038e-06
-1.84363e-10
5.00041e-06
-1.37013e-10
5.00042e-06
-1.0031e-10
5.00046e-06
-1.29853e-10
5.00053e-06
-1.90118e-10
5.00068e-06
-3.34311e-10
5.0009e-06
-4.29336e-10
5.00121e-06
-6.20865e-10
5.00155e-06
-6.61363e-10
5.00196e-06
-9.02175e-10
5.00236e-06
-8.68534e-10
-1.24453e-09
4.99998e-06
-2.34757e-11
4.99996e-06
-5.53713e-11
4.99996e-06
-1.16956e-10
4.99998e-06
-1.96066e-10
5.00001e-06
-2.67596e-10
5.00006e-06
-3.20332e-10
5.00011e-06
-3.40944e-10
5.00017e-06
-3.23773e-10
5.00021e-06
-2.65809e-10
5.00025e-06
-2.08097e-10
5.0003e-06
-1.72984e-10
5.00036e-06
-2.14585e-10
5.00046e-06
-2.9859e-10
5.00059e-06
-4.79565e-10
5.00078e-06
-6.22268e-10
5.00103e-06
-8.69259e-10
5.00132e-06
-9.58024e-10
5.00166e-06
-1.23444e-09
5.00203e-06
-1.24147e-09
-1.66235e-09
4.99998e-06
-3.21569e-11
4.99998e-06
-7.70919e-11
4.99999e-06
-1.58515e-10
5.00002e-06
-2.62098e-10
5.00008e-06
-3.55409e-10
5.00015e-06
-4.27442e-10
5.00023e-06
-4.50068e-10
5.0003e-06
-4.20602e-10
5.00034e-06
-3.3676e-10
5.00036e-06
-2.48088e-10
5.00036e-06
-1.91977e-10
5.00038e-06
-2.47239e-10
5.00044e-06
-3.72221e-10
5.00057e-06
-6.16741e-10
5.00075e-06
-8.12643e-10
5.001e-06
-1.12036e-09
5.00128e-06
-1.23879e-09
5.00159e-06
-1.54297e-09
5.00189e-06
-1.53831e-09
-1.86157e-09
4.99998e-06
-3.61133e-11
4.99997e-06
-9.91986e-11
4.99998e-06
-1.91295e-10
5e-06
-3.00799e-10
5.00002e-06
-4.08673e-10
5.00006e-06
-4.88683e-10
5.00011e-06
-5.21135e-10
5.00016e-06
-4.88268e-10
5.0002e-06
-3.97774e-10
5.00023e-06
-3.023e-10
5.00027e-06
-2.48849e-10
5.00032e-06
-3.11609e-10
5.00039e-06
-4.52806e-10
5.00049e-06
-7.25558e-10
5.00064e-06
-9.60001e-10
5.00082e-06
-1.30693e-09
5.00103e-06
-1.45731e-09
5.00126e-06
-1.7735e-09
5.0015e-06
-1.77947e-09
-2.11776e-09
4.99997e-06
-3.65538e-11
4.99997e-06
-1.18394e-10
4.99998e-06
-2.21737e-10
5e-06
-3.43053e-10
5.00004e-06
-4.62975e-10
5.00009e-06
-5.60247e-10
5.00015e-06
-5.92987e-10
5.0002e-06
-5.50786e-10
5.00024e-06
-4.40739e-10
5.00025e-06
-3.26364e-10
5.00025e-06
-2.6106e-10
5.00027e-06
-3.35496e-10
5.00031e-06
-5.07174e-10
5.0004e-06
-8.23441e-10
5.00054e-06
-1.09765e-09
5.00071e-06
-1.48699e-09
5.0009e-06
-1.65827e-09
5.00111e-06
-1.9866e-09
5.00131e-06
-1.98137e-09
-2.23961e-09
4.99998e-06
-3.67561e-11
4.99997e-06
-1.37619e-10
4.99999e-06
-2.50245e-10
5e-06
-3.73932e-10
5.00003e-06
-5.00054e-10
5.00006e-06
-5.96651e-10
5.00009e-06
-6.33559e-10
5.00013e-06
-5.88899e-10
5.00015e-06
-4.72616e-10
5.00018e-06
-3.5134e-10
5.0002e-06
-2.85859e-10
5.00023e-06
-3.66795e-10
5.00027e-06
-5.54771e-10
5.00034e-06
-8.95458e-10
5.00043e-06
-1.19653e-09
5.00055e-06
-1.61173e-09
5.00068e-06
-1.80134e-09
5.00082e-06
-2.1342e-09
5.00096e-06
-2.12522e-09
-2.38299e-09
4.99998e-06
-3.63875e-11
4.99998e-06
-1.53415e-10
4.99999e-06
-2.70068e-10
5e-06
-3.94632e-10
5.00002e-06
-5.23808e-10
5.00004e-06
-6.30635e-10
5.00008e-06
-6.67023e-10
5.00011e-06
-6.16438e-10
5.00013e-06
-4.90442e-10
5.00014e-06
-3.60216e-10
5.00015e-06
-2.91629e-10
5.00016e-06
-3.80163e-10
5.00019e-06
-5.83338e-10
5.00023e-06
-9.46564e-10
5.0003e-06
-1.27129e-09
5.0004e-06
-1.71159e-09
5.0005e-06
-1.91422e-09
5.00061e-06
-2.2523e-09
5.00072e-06
-2.23739e-09
-2.45107e-09
4.99999e-06
-3.54732e-11
4.99999e-06
-1.61447e-10
4.99999e-06
-2.81721e-10
5e-06
-4.05466e-10
5.00001e-06
-5.3766e-10
5.00003e-06
-6.47342e-10
5.00005e-06
-6.84178e-10
5.00006e-06
-6.28814e-10
5.00007e-06
-4.99216e-10
5.00008e-06
-3.64634e-10
5.00009e-06
-2.95394e-10
5.0001e-06
-3.89148e-10
5.00012e-06
-6.0287e-10
5.00015e-06
-9.79436e-10
5.00019e-06
-1.31691e-09
5.00024e-06
-1.76892e-09
5.0003e-06
-1.97822e-09
5.00036e-06
-2.31713e-09
5.00042e-06
-2.29639e-09
-2.50505e-09
5e-06
-3.48972e-11
5e-06
-1.63533e-10
5e-06
-2.85304e-10
5e-06
-4.09001e-10
5e-06
-5.41741e-10
5.00001e-06
-6.50491e-10
5.00002e-06
-6.862e-10
5.00002e-06
-6.31187e-10
5.00002e-06
-5.00379e-10
5.00003e-06
-3.64907e-10
5.00003e-06
-2.96376e-10
5.00004e-06
-3.92431e-10
5.00004e-06
-6.08829e-10
5.00005e-06
-9.88412e-10
5.00006e-06
-1.32952e-09
5.00008e-06
-1.78684e-09
5.0001e-06
-2.00038e-09
5.00012e-06
-2.34138e-09
5.00014e-06
-2.32107e-09
-2.51954e-09
5e-06
-3.54639e-11
5e-06
-1.6144e-10
5e-06
-2.81721e-10
5e-06
-4.05473e-10
5e-06
-5.37655e-10
4.99999e-06
-6.47321e-10
4.99998e-06
-6.84153e-10
4.99998e-06
-6.288e-10
4.99998e-06
-4.99233e-10
4.99997e-06
-3.64641e-10
4.99997e-06
-2.95385e-10
4.99996e-06
-3.89118e-10
4.99996e-06
-6.02848e-10
4.99995e-06
-9.7941e-10
4.99994e-06
-1.3169e-09
4.99992e-06
-1.76887e-09
4.9999e-06
-1.97814e-09
4.99988e-06
-2.31701e-09
4.99986e-06
-2.29619e-09
-2.50485e-09
5.00001e-06
-3.637e-11
5.00001e-06
-1.53404e-10
5.00001e-06
-2.7007e-10
5e-06
-3.94642e-10
4.99999e-06
-5.23805e-10
4.99997e-06
-6.30604e-10
4.99995e-06
-6.66989e-10
4.99994e-06
-6.16438e-10
4.99993e-06
-4.90484e-10
4.99992e-06
-3.60254e-10
4.99991e-06
-2.91635e-10
4.9999e-06
-3.80121e-10
4.99988e-06
-5.83302e-10
4.99985e-06
-9.46509e-10
4.99981e-06
-1.27125e-09
4.99976e-06
-1.71149e-09
4.9997e-06
-1.91406e-09
4.99964e-06
-2.25206e-09
4.99958e-06
-2.23701e-09
-2.45073e-09
5.00002e-06
-3.67339e-11
5.00002e-06
-1.37605e-10
5.00001e-06
-2.50249e-10
5e-06
-3.73942e-10
4.99998e-06
-5.00048e-10
4.99996e-06
-5.96624e-10
4.99992e-06
-6.33533e-10
4.99989e-06
-5.88913e-10
4.99987e-06
-4.72673e-10
4.99986e-06
-3.5139e-10
4.99985e-06
-2.85873e-10
4.99984e-06
-3.66742e-10
4.99981e-06
-5.54726e-10
4.99977e-06
-8.95387e-10
4.9997e-06
-1.1965e-09
4.9996e-06
-1.6116e-09
4.9995e-06
-1.80114e-09
4.99939e-06
-2.13386e-09
4.99928e-06
-2.12471e-09
-2.38248e-09
5.00002e-06
-3.65347e-11
5.00003e-06
-1.18379e-10
5.00002e-06
-2.21745e-10
5e-06
-3.43073e-10
4.99997e-06
-4.62975e-10
4.99994e-06
-5.60205e-10
4.99991e-06
-5.9295e-10
4.99987e-06
-5.50807e-10
4.99985e-06
-4.40818e-10
4.99982e-06
-3.26423e-10
4.9998e-06
-2.61072e-10
4.99977e-06
-3.35429e-10
4.99973e-06
-5.07118e-10
4.99966e-06
-8.23351e-10
4.99957e-06
-1.09761e-09
4.99945e-06
-1.48683e-09
4.99932e-06
-1.65802e-09
4.99918e-06
-1.98618e-09
4.99904e-06
-1.98073e-09
-2.23899e-09
5.00003e-06
-3.60967e-11
5.00003e-06
-9.91908e-11
5.00002e-06
-1.91306e-10
5e-06
-3.00835e-10
4.99996e-06
-4.08692e-10
4.99991e-06
-4.88655e-10
4.99985e-06
-5.2112e-10
4.9998e-06
-4.88297e-10
4.99976e-06
-3.97864e-10
4.99975e-06
-3.02378e-10
4.99975e-06
-2.48881e-10
4.99973e-06
-3.11556e-10
4.99969e-06
-4.52772e-10
4.9996e-06
-7.25477e-10
4.99946e-06
-9.59979e-10
4.99929e-06
-1.30676e-09
4.9991e-06
-1.45707e-09
4.99889e-06
-1.77308e-09
4.99869e-06
-1.77886e-09
-2.1171e-09
5.00002e-06
-3.2143e-11
5.00003e-06
-7.70864e-11
5.00002e-06
-1.58535e-10
5e-06
-2.62135e-10
4.99998e-06
-3.55423e-10
4.99994e-06
-4.2741e-10
4.99989e-06
-4.50045e-10
4.99984e-06
-4.20633e-10
4.99981e-06
-3.3685e-10
4.99977e-06
-2.48151e-10
4.99973e-06
-1.91999e-10
4.99968e-06
-2.47171e-10
4.99961e-06
-3.7218e-10
4.99951e-06
-6.16643e-10
4.99936e-06
-8.1261e-10
4.99918e-06
-1.12017e-09
4.99897e-06
-1.23853e-09
4.99874e-06
-1.54251e-09
4.9985e-06
-1.53764e-09
-1.86083e-09
5.00002e-06
-2.34736e-11
5.00002e-06
-5.53799e-11
5.00001e-06
-1.16986e-10
4.99998e-06
-1.96117e-10
4.99992e-06
-2.67635e-10
4.99985e-06
-3.20345e-10
4.99977e-06
-3.40961e-10
4.9997e-06
-3.23837e-10
4.99966e-06
-2.65913e-10
4.99964e-06
-2.08175e-10
4.99964e-06
-1.73034e-10
4.99962e-06
-2.1456e-10
4.99956e-06
-2.98595e-10
4.99943e-06
-4.79511e-10
4.99925e-06
-6.22288e-10
4.999e-06
-8.69136e-10
4.99872e-06
-9.57888e-10
4.99841e-06
-1.23411e-09
4.99811e-06
-1.24102e-09
-1.66178e-09
5.00002e-06
-3.24258e-11
5.00004e-06
-4.34154e-11
5.00004e-06
-8.68363e-11
5.00002e-06
-1.4544e-10
4.99999e-06
-1.97793e-10
4.99994e-06
-2.3373e-10
4.99989e-06
-2.46819e-10
4.99983e-06
-2.30821e-10
4.99979e-06
-1.84419e-10
4.99975e-06
-1.37044e-10
4.9997e-06
-1.00339e-10
4.99964e-06
-1.29811e-10
4.99954e-06
-1.90128e-10
4.99941e-06
-3.34238e-10
4.99922e-06
-4.29352e-10
4.99897e-06
-6.20696e-10
4.99868e-06
-6.61236e-10
4.99834e-06
-9.01807e-10
4.99797e-06
-8.6813e-10
-1.24394e-09
5e-06
-4.87911e-13
5e-06
-1.86695e-11
4.99999e-06
-4.27129e-11
4.99996e-06
-6.85996e-11
4.9999e-06
-9.43963e-11
4.99982e-06
-1.13155e-10
4.99974e-06
-1.19736e-10
4.99967e-06
-1.13225e-10
4.99962e-06
-9.47365e-11
4.99959e-06
-7.61955e-11
4.99958e-06
-6.31984e-11
4.99954e-06
-8.05654e-11
4.99947e-06
-1.06009e-10
4.99932e-06
-1.74581e-10
4.9991e-06
-2.10097e-10
4.99879e-06
-3.16485e-10
4.99845e-06
-3.2405e-10
4.99804e-06
-4.96738e-10
4.99764e-06
-4.71465e-10
-8.83796e-10
5.00002e-06
5.00003e-06
5.00003e-06
5e-06
4.99996e-06
4.9999e-06
4.99983e-06
4.99977e-06
4.99972e-06
4.99968e-06
4.99965e-06
4.99959e-06
4.9995e-06
4.99933e-06
4.99913e-06
4.99881e-06
4.99848e-06
4.99798e-06
4.9975e-06
)
;

boundaryField
{
    sides
    {
        type            calculated;
        value           uniform 0;
    }
    inlet
    {
        type            calculated;
        value           nonuniform List<scalar> 
20
(
-5e-06
-5e-06
-5e-06
-5e-06
-5e-06
-5e-06
-5e-06
-5e-06
-5e-06
-5e-06
-5e-06
-5e-06
-5e-06
-5e-06
-5e-06
-5e-06
-5e-06
-5e-06
-5e-06
-5e-06
)
;
    }
    outlet
    {
        type            calculated;
        value           nonuniform List<scalar> 
20
(
5.00338e-06
5.00272e-06
5.00245e-06
5.00209e-06
5.00175e-06
5.00143e-06
5.0011e-06
5.00079e-06
5.00047e-06
5.00016e-06
4.99984e-06
4.99953e-06
4.99921e-06
4.9989e-06
4.99857e-06
4.99825e-06
4.99791e-06
4.99755e-06
4.99728e-06
4.99662e-06
)
;
    }
    frontAndBack
    {
        type            empty;
        value           nonuniform 0();
    }
}


// ************************************************************************* //
