/*--------------------------------*- C++ -*----------------------------------*\
  =========                 |
  \\      /  F ield         | OpenFOAM: The Open Source CFD Toolbox
   \\    /   O peration     | Website:  https://openfoam.org
    \\  /    A nd           | Version:  7
     \\/     M anipulation  |
\*---------------------------------------------------------------------------*/
FoamFile
{
    version     2.0;
    format      ascii;
    class       volVectorField;
    location    "14";
    object      U;
}
// * * * * * * * * * * * * * * * * * * * * * * * * * * * * * * * * * * * * * //

dimensions      [0 1 -1 0 0 0 0];

internalField   nonuniform List<vector> 
400
(
(0.0999939 -9.57242e-07 0)
(0.0999934 -2.59083e-06 0)
(0.0999925 -4.34299e-06 0)
(0.0999927 -6.05574e-06 0)
(0.0999938 -7.49637e-06 0)
(0.0999946 -8.74178e-06 0)
(0.0999953 -9.69575e-06 0)
(0.0999967 -1.03205e-05 0)
(0.0999979 -1.06096e-05 0)
(0.0999989 -1.08993e-05 0)
(0.0999991 -1.14256e-05 0)
(0.100001 -1.28461e-05 0)
(0.100002 -1.43756e-05 0)
(0.100006 -1.66823e-05 0)
(0.100008 -1.8016e-05 0)
(0.100016 -2.09313e-05 0)
(0.100021 -2.14512e-05 0)
(0.100035 -2.56327e-05 0)
(0.100038 -2.49079e-05 0)
(0.100062 -3.28624e-05 0)
(0.099995 1.20948e-07 0)
(0.0999949 9.7038e-07 0)
(0.0999943 1.47877e-06 0)
(0.0999948 1.68689e-06 0)
(0.099996 1.88899e-06 0)
(0.0999971 2.21176e-06 0)
(0.0999982 2.7705e-06 0)
(0.0999999 3.64861e-06 0)
(0.100001 4.87887e-06 0)
(0.100002 6.05357e-06 0)
(0.100002 7.22873e-06 0)
(0.100003 7.71742e-06 0)
(0.100004 7.9343e-06 0)
(0.100007 6.90485e-06 0)
(0.100011 6.5864e-06 0)
(0.100017 4.64863e-06 0)
(0.100023 4.93104e-06 0)
(0.100034 1.58436e-06 0)
(0.100039 2.46899e-06 0)
(0.100053 -5.45126e-06 0)
(0.0999955 -8.10412e-07 0)
(0.0999948 -1.91252e-06 0)
(0.099994 -3.66159e-06 0)
(0.0999941 -5.76095e-06 0)
(0.0999949 -7.7165e-06 0)
(0.0999956 -9.30559e-06 0)
(0.0999961 -1.02844e-05 0)
(0.0999972 -1.05798e-05 0)
(0.0999982 -1.01494e-05 0)
(0.0999991 -9.66578e-06 0)
(0.0999998 -9.58541e-06 0)
(0.100001 -1.09816e-05 0)
(0.100003 -1.31579e-05 0)
(0.100006 -1.71705e-05 0)
(0.100009 -2.02871e-05 0)
(0.100015 -2.54398e-05 0)
(0.100019 -2.73242e-05 0)
(0.100029 -3.31617e-05 0)
(0.100033 -3.32495e-05 0)
(0.100047 -4.15819e-05 0)
(0.0999961 -4.11245e-07 0)
(0.0999955 -8.41348e-07 0)
(0.099995 -1.99011e-06 0)
(0.0999955 -3.48505e-06 0)
(0.0999967 -4.69142e-06 0)
(0.0999979 -5.43181e-06 0)
(0.099999 -5.33858e-06 0)
(0.100001 -4.31799e-06 0)
(0.100002 -2.33132e-06 0)
(0.100003 -3.20279e-07 0)
(0.100003 1.124e-06 0)
(0.100003 6.15691e-07 0)
(0.100004 -1.02161e-06 0)
(0.100006 -4.86909e-06 0)
(0.100009 -7.82238e-06 0)
(0.100015 -1.29778e-05 0)
(0.10002 -1.46825e-05 0)
(0.100028 -2.01297e-05 0)
(0.100032 -1.9922e-05 0)
(0.100041 -2.70362e-05 0)
(0.0999967 -7.01086e-07 0)
(0.0999959 -1.81447e-06 0)
(0.0999955 -3.59668e-06 0)
(0.0999958 -5.88757e-06 0)
(0.0999965 -8.19556e-06 0)
(0.0999971 -1.0087e-05 0)
(0.0999976 -1.1085e-05 0)
(0.0999985 -1.09477e-05 0)
(0.0999995 -9.71195e-06 0)
(0.1 -8.3811e-06 0)
(0.100001 -7.72181e-06 0)
(0.100002 -9.17652e-06 0)
(0.100003 -1.20525e-05 0)
(0.100006 -1.74158e-05 0)
(0.100008 -2.197e-05 0)
(0.100012 -2.87757e-05 0)
(0.100016 -3.17593e-05 0)
(0.100022 -3.82932e-05 0)
(0.100025 -3.85978e-05 0)
(0.100034 -4.5655e-05 0)
(0.0999972 -7.19543e-07 0)
(0.0999965 -2.17384e-06 0)
(0.0999961 -4.19768e-06 0)
(0.0999964 -6.52999e-06 0)
(0.0999972 -8.73154e-06 0)
(0.099998 -1.03371e-05 0)
(0.0999989 -1.07105e-05 0)
(0.1 -9.6143e-06 0)
(0.100001 -7.19694e-06 0)
(0.100002 -4.65111e-06 0)
(0.100002 -3.13048e-06 0)
(0.100002 -4.39403e-06 0)
(0.100003 -7.5326e-06 0)
(0.100005 -1.34709e-05 0)
(0.100007 -1.85256e-05 0)
(0.100011 -2.58168e-05 0)
(0.100014 -2.88644e-05 0)
(0.100019 -3.5081e-05 0)
(0.100023 -3.48586e-05 0)
(0.100028 -4.03818e-05 0)
(0.0999978 -7.27297e-07 0)
(0.0999971 -2.55947e-06 0)
(0.0999969 -4.71087e-06 0)
(0.0999972 -7.11921e-06 0)
(0.0999978 -9.55955e-06 0)
(0.0999984 -1.1553e-05 0)
(0.0999989 -1.23972e-05 0)
(0.0999996 -1.17446e-05 0)
(0.1 -9.75715e-06 0)
(0.100001 -7.71416e-06 0)
(0.100001 -6.6028e-06 0)
(0.100002 -8.15199e-06 0)
(0.100003 -1.16623e-05 0)
(0.100004 -1.81553e-05 0)
(0.100006 -2.39173e-05 0)
(0.100008 -3.20335e-05 0)
(0.100011 -3.58072e-05 0)
(0.100015 -4.26329e-05 0)
(0.100017 -4.27138e-05 0)
(0.100022 -4.82348e-05 0)
(0.0999984 -7.18707e-07 0)
(0.0999978 -2.89325e-06 0)
(0.0999977 -5.19717e-06 0)
(0.0999979 -7.69858e-06 0)
(0.0999983 -1.03037e-05 0)
(0.0999987 -1.24137e-05 0)
(0.0999992 -1.31429e-05 0)
(0.1 -1.21012e-05 0)
(0.100001 -9.50529e-06 0)
(0.100001 -6.78962e-06 0)
(0.100001 -5.33803e-06 0)
(0.100001 -7.06846e-06 0)
(0.100002 -1.10967e-05 0)
(0.100003 -1.82808e-05 0)
(0.100004 -2.46448e-05 0)
(0.100006 -3.32511e-05 0)
(0.100008 -3.71194e-05 0)
(0.100011 -4.36982e-05 0)
(0.100013 -4.33092e-05 0)
(0.100016 -4.76925e-05 0)
(0.099999 -7.01186e-07 0)
(0.0999986 -3.14389e-06 0)
(0.0999985 -5.53866e-06 0)
(0.0999987 -8.03204e-06 0)
(0.099999 -1.06636e-05 0)
(0.0999992 -1.28232e-05 0)
(0.0999996 -1.35305e-05 0)
(0.1 -1.24841e-05 0)
(0.1 -9.93766e-06 0)
(0.100001 -7.34046e-06 0)
(0.100001 -6.00369e-06 0)
(0.100001 -7.83309e-06 0)
(0.100001 -1.19749e-05 0)
(0.100002 -1.9322e-05 0)
(0.100003 -2.59008e-05 0)
(0.100004 -3.48249e-05 0)
(0.100005 -3.90007e-05 0)
(0.100006 -4.58717e-05 0)
(0.100007 -4.56051e-05 0)
(0.100009 -5.00011e-05 0)
(0.0999997 -6.85657e-07 0)
(0.0999995 -3.25184e-06 0)
(0.0999995 -5.69186e-06 0)
(0.0999996 -8.16717e-06 0)
(0.0999996 -1.08243e-05 0)
(0.0999997 -1.30255e-05 0)
(0.0999998 -1.37765e-05 0)
(0.1 -1.2705e-05 0)
(0.1 -1.0054e-05 0)
(0.1 -7.30608e-06 0)
(0.1 -5.88625e-06 0)
(0.1 -7.77145e-06 0)
(0.1 -1.21019e-05 0)
(0.100001 -1.97312e-05 0)
(0.100001 -2.65937e-05 0)
(0.100001 -3.5754e-05 0)
(0.100002 -4.00114e-05 0)
(0.100002 -4.68008e-05 0)
(0.100002 -4.63666e-05 0)
(0.100003 -5.03415e-05 0)
(0.1 -6.85567e-07 0)
(0.1 -3.25179e-06 0)
(0.1 -5.6919e-06 0)
(0.1 -8.16733e-06 0)
(0.1 -1.08243e-05 0)
(0.1 -1.30253e-05 0)
(0.1 -1.37763e-05 0)
(0.1 -1.27051e-05 0)
(0.0999999 -1.00543e-05 0)
(0.0999998 -7.30636e-06 0)
(0.0999997 -5.88635e-06 0)
(0.0999996 -7.77133e-06 0)
(0.0999995 -1.21018e-05 0)
(0.0999994 -1.97308e-05 0)
(0.0999992 -2.65932e-05 0)
(0.0999988 -3.57533e-05 0)
(0.0999985 -4.00105e-05 0)
(0.0999979 -4.67999e-05 0)
(0.0999975 -4.63653e-05 0)
(0.0999969 -5.03407e-05 0)
(0.100001 -7.0093e-07 0)
(0.100001 -3.14376e-06 0)
(0.100001 -5.5388e-06 0)
(0.100001 -8.0324e-06 0)
(0.100001 -1.06638e-05 0)
(0.100001 -1.2823e-05 0)
(0.1 -1.35302e-05 0)
(0.1 -1.24843e-05 0)
(0.0999996 -9.93843e-06 0)
(0.0999994 -7.34096e-06 0)
(0.0999993 -6.00366e-06 0)
(0.0999991 -7.83241e-06 0)
(0.0999988 -1.19745e-05 0)
(0.0999981 -1.93214e-05 0)
(0.0999974 -2.59005e-05 0)
(0.0999962 -3.48232e-05 0)
(0.0999952 -3.89978e-05 0)
(0.0999936 -4.58666e-05 0)
(0.0999927 -4.55979e-05 0)
(0.0999908 -4.99936e-05 0)
(0.100002 -7.18326e-07 0)
(0.100002 -2.89311e-06 0)
(0.100002 -5.19743e-06 0)
(0.100002 -7.69903e-06 0)
(0.100002 -1.03039e-05 0)
(0.100001 -1.24134e-05 0)
(0.100001 -1.3143e-05 0)
(0.1 -1.21021e-05 0)
(0.0999993 -9.50693e-06 0)
(0.0999989 -6.79107e-06 0)
(0.0999988 -5.33862e-06 0)
(0.0999985 -7.06797e-06 0)
(0.0999981 -1.10966e-05 0)
(0.0999972 -1.8281e-05 0)
(0.099996 -2.4646e-05 0)
(0.099994 -3.32518e-05 0)
(0.0999921 -3.71188e-05 0)
(0.0999893 -4.36962e-05 0)
(0.0999874 -4.33035e-05 0)
(0.0999844 -4.76875e-05 0)
(0.100002 -7.26904e-07 0)
(0.100003 -2.5593e-06 0)
(0.100003 -4.71128e-06 0)
(0.100003 -7.11995e-06 0)
(0.100002 -9.55996e-06 0)
(0.100002 -1.15527e-05 0)
(0.100001 -1.23968e-05 0)
(0.1 -1.1745e-05 0)
(0.0999996 -9.75846e-06 0)
(0.0999991 -7.71518e-06 0)
(0.0999987 -6.60306e-06 0)
(0.099998 -8.15061e-06 0)
(0.0999972 -1.16608e-05 0)
(0.0999958 -1.81524e-05 0)
(0.0999943 -2.39147e-05 0)
(0.0999916 -3.20274e-05 0)
(0.0999893 -3.57995e-05 0)
(0.0999854 -4.26211e-05 0)
(0.0999834 -4.26986e-05 0)
(0.0999785 -4.82187e-05 0)
(0.100003 -7.19207e-07 0)
(0.100004 -2.17368e-06 0)
(0.100004 -4.19813e-06 0)
(0.100004 -6.53112e-06 0)
(0.100003 -8.73262e-06 0)
(0.100002 -1.03375e-05 0)
(0.100001 -1.07113e-05 0)
(0.0999998 -9.61616e-06 0)
(0.0999986 -7.19978e-06 0)
(0.099998 -4.65326e-06 0)
(0.0999982 -3.13131e-06 0)
(0.0999979 -4.39356e-06 0)
(0.0999972 -7.53307e-06 0)
(0.0999954 -1.34722e-05 0)
(0.0999932 -1.85288e-05 0)
(0.0999895 -2.58192e-05 0)
(0.0999858 -2.88645e-05 0)
(0.0999806 -3.50787e-05 0)
(0.0999773 -3.48502e-05 0)
(0.0999716 -4.03739e-05 0)
(0.100003 -7.00772e-07 0)
(0.100004 -1.81425e-06 0)
(0.100004 -3.5969e-06 0)
(0.100004 -5.88823e-06 0)
(0.100004 -8.19589e-06 0)
(0.100003 -1.00864e-05 0)
(0.100002 -1.10847e-05 0)
(0.100001 -1.09483e-05 0)
(0.100001 -9.71397e-06 0)
(0.0999997 -8.38296e-06 0)
(0.0999989 -7.72301e-06 0)
(0.0999977 -9.17561e-06 0)
(0.0999965 -1.20517e-05 0)
(0.0999943 -1.74129e-05 0)
(0.0999921 -2.19682e-05 0)
(0.0999878 -2.87694e-05 0)
(0.0999843 -3.17525e-05 0)
(0.0999778 -3.8281e-05 0)
(0.0999747 -3.85831e-05 0)
(0.099966 -4.56372e-05 0)
(0.100004 -4.11307e-07 0)
(0.100004 -8.41744e-07 0)
(0.100005 -1.99135e-06 0)
(0.100004 -3.48701e-06 0)
(0.100003 -4.69312e-06 0)
(0.100002 -5.43281e-06 0)
(0.100001 -5.33969e-06 0)
(0.0999994 -4.32002e-06 0)
(0.0999979 -2.33383e-06 0)
(0.0999972 -3.21658e-07 0)
(0.0999975 1.12374e-06 0)
(0.0999972 6.16595e-07 0)
(0.0999963 -1.02174e-06 0)
(0.0999938 -4.86934e-06 0)
(0.0999907 -7.82398e-06 0)
(0.0999853 -1.29775e-05 0)
(0.0999802 -1.46798e-05 0)
(0.0999725 -2.0124e-05 0)
(0.0999677 -1.99107e-05 0)
(0.0999586 -2.70241e-05 0)
(0.100005 -8.10415e-07 0)
(0.100005 -1.91262e-06 0)
(0.100006 -3.66201e-06 0)
(0.100006 -5.76184e-06 0)
(0.100005 -7.71743e-06 0)
(0.100004 -9.30629e-06 0)
(0.100004 -1.02856e-05 0)
(0.100003 -1.05819e-05 0)
(0.100002 -1.01527e-05 0)
(0.100001 -9.66882e-06 0)
(0.1 -9.58814e-06 0)
(0.0999986 -1.09824e-05 0)
(0.0999972 -1.31595e-05 0)
(0.0999941 -1.71705e-05 0)
(0.0999913 -2.02896e-05 0)
(0.0999853 -2.54393e-05 0)
(0.0999807 -2.73255e-05 0)
(0.0999712 -3.31586e-05 0)
(0.099967 -3.32457e-05 0)
(0.0999528 -4.15733e-05 0)
(0.100005 1.20976e-07 0)
(0.100005 9.70219e-07 0)
(0.100006 1.47817e-06 0)
(0.100005 1.68612e-06 0)
(0.100004 1.88859e-06 0)
(0.100003 2.21207e-06 0)
(0.100002 2.77101e-06 0)
(0.1 3.6492e-06 0)
(0.0999986 4.87952e-06 0)
(0.0999977 6.05505e-06 0)
(0.0999977 7.23018e-06 0)
(0.0999971 7.71928e-06 0)
(0.0999961 7.93503e-06 0)
(0.0999929 6.90682e-06 0)
(0.0999895 6.58784e-06 0)
(0.0999826 4.65396e-06 0)
(0.0999768 4.93705e-06 0)
(0.0999664 1.59521e-06 0)
(0.0999609 2.48068e-06 0)
(0.0999468 -5.43601e-06 0)
(0.100006 -9.57523e-07 0)
(0.100007 -2.59159e-06 0)
(0.100007 -4.3447e-06 0)
(0.100007 -6.05833e-06 0)
(0.100006 -7.49946e-06 0)
(0.100005 -8.74515e-06 0)
(0.100005 -9.70004e-06 0)
(0.100003 -1.03256e-05 0)
(0.100002 -1.06154e-05 0)
(0.100001 -1.09046e-05 0)
(0.100001 -1.14308e-05 0)
(0.0999994 -1.28509e-05 0)
(0.0999982 -1.43814e-05 0)
(0.0999943 -1.66886e-05 0)
(0.0999915 -1.80239e-05 0)
(0.0999835 -2.09405e-05 0)
(0.0999791 -2.1461e-05 0)
(0.0999653 -2.56446e-05 0)
(0.0999615 -2.49169e-05 0)
(0.0999378 -3.28736e-05 0)
)
;

boundaryField
{
    sides
    {
        type            calculated;
        value           nonuniform List<vector> 
40
(
(0.100006 0 0)
(0.100007 0 0)
(0.100007 0 0)
(0.100007 0 0)
(0.100006 0 0)
(0.100005 0 0)
(0.100005 0 0)
(0.100003 0 0)
(0.100002 0 0)
(0.100001 0 0)
(0.100001 0 0)
(0.0999994 0 0)
(0.0999982 0 0)
(0.0999943 0 0)
(0.0999915 0 0)
(0.0999835 0 0)
(0.0999791 0 0)
(0.0999653 0 0)
(0.0999615 0 0)
(0.0999378 0 0)
(0.0999939 0 0)
(0.0999934 0 0)
(0.0999925 0 0)
(0.0999927 0 0)
(0.0999938 0 0)
(0.0999946 0 0)
(0.0999953 0 0)
(0.0999967 0 0)
(0.0999979 0 0)
(0.0999989 0 0)
(0.0999991 0 0)
(0.100001 0 0)
(0.100002 0 0)
(0.100006 0 0)
(0.100008 0 0)
(0.100016 0 0)
(0.100021 0 0)
(0.100035 0 0)
(0.100038 0 0)
(0.100062 0 0)
)
;
    }
    inlet
    {
        type            calculated;
        value           nonuniform List<vector> 
20
(
(0.0999939 0 0)
(0.0999949 0 0)
(0.0999953 0 0)
(0.099996 0 0)
(0.0999965 0 0)
(0.0999971 0 0)
(0.0999977 0 0)
(0.0999983 0 0)
(0.099999 0 0)
(0.0999996 0 0)
(0.1 0 0)
(0.100001 0 0)
(0.100002 0 0)
(0.100002 0 0)
(0.100003 0 0)
(0.100003 0 0)
(0.100004 0 0)
(0.100005 0 0)
(0.100005 0 0)
(0.100006 0 0)
)
;
    }
    outlet
    {
        type            calculated;
        value           nonuniform List<vector> 
20
(
(0.100063 -3.28627e-05 0)
(0.100054 -5.45129e-06 0)
(0.100048 -4.15822e-05 0)
(0.100042 -2.70363e-05 0)
(0.100034 -4.56551e-05 0)
(0.100029 -4.03819e-05 0)
(0.100022 -4.82349e-05 0)
(0.100016 -4.76925e-05 0)
(0.100009 -5.00011e-05 0)
(0.100003 -5.03415e-05 0)
(0.0999968 -5.03407e-05 0)
(0.0999907 -4.99935e-05 0)
(0.0999842 -4.76874e-05 0)
(0.0999783 -4.82186e-05 0)
(0.0999713 -4.03738e-05 0)
(0.0999656 -4.56371e-05 0)
(0.0999582 -2.70241e-05 0)
(0.0999523 -4.15731e-05 0)
(0.0999462 -5.43598e-06 0)
(0.0999368 -3.28733e-05 0)
)
;
    }
    frontAndBack
    {
        type            empty;
    }
}


// ************************************************************************* //
