# Residuals   
# Time        	Ux            	Uy            	Uz            	p             	k             	epsilon       
1             	1.000000e+00	1.000000e+00	1.000000e+00	1.000000e+00	1.000000e+00	1.000000e+00
2             	4.541891e-01	4.725517e-01	1.490034e-01	3.558452e-02	7.856521e-01	8.591790e-01
3             	4.244561e-01	3.776713e-01	1.224672e-01	4.124664e-02	3.043762e-01	3.907594e-01
4             	1.403524e-01	2.457645e-01	1.034251e-01	1.252839e-01	2.953247e-01	3.453687e-01
5             	6.799866e-02	2.177861e-01	8.040096e-02	2.580182e-01	2.219967e-01	2.831597e-01
6             	7.609345e-02	1.643683e-01	1.118393e-01	9.435004e-02	1.634379e-01	2.120071e-01
7             	1.189168e-01	1.875301e-01	1.403827e-01	4.043960e-02	1.145918e-01	1.646887e-01
8             	1.208197e-01	1.782516e-01	1.153296e-01	3.973724e-02	8.980945e-02	1.362065e-01
9             	7.144804e-02	1.480501e-01	7.349479e-02	5.938932e-02	7.386669e-02	1.168060e-01
10            	2.133831e-02	1.437996e-01	3.623806e-02	3.533274e-01	6.251065e-02	1.012532e-01
11            	4.340008e-02	1.322651e-01	3.943478e-02	6.433532e-02	5.383817e-02	8.841921e-02
12            	5.376044e-02	1.219220e-01	4.883112e-02	4.841445e-02	4.716043e-02	7.784942e-02
13            	3.801510e-02	1.119849e-01	4.426313e-02	6.116757e-02	4.186385e-02	6.927827e-02
14            	1.245986e-02	1.139329e-01	2.864291e-02	1.731504e-01	3.752419e-02	6.210614e-02
15            	1.799439e-02	9.980857e-02	2.414862e-02	9.067732e-02	3.410431e-02	5.634119e-02
16            	2.718841e-02	8.004603e-02	2.565445e-02	5.474860e-02	3.136228e-02	5.163585e-02
17            	2.206588e-02	6.217723e-02	2.227321e-02	5.929203e-02	2.898493e-02	4.758412e-02
18            	9.596620e-03	5.447904e-02	1.569709e-02	1.188849e-01	2.691028e-02	4.406948e-02
19            	7.972064e-03	4.818728e-02	1.214913e-02	1.206274e-01	2.512866e-02	4.106213e-02
20            	1.257804e-02	4.114292e-02	1.336764e-02	5.835660e-02	2.364610e-02	3.852677e-02
21            	1.190307e-02	3.473481e-02	1.363315e-02	5.367114e-02	2.235981e-02	3.632322e-02
22            	6.535322e-03	3.378779e-02	1.149352e-02	9.015332e-02	2.119729e-02	3.432956e-02
23            	4.784344e-03	4.153693e-02	9.546145e-03	1.595626e-01	2.016333e-02	3.255541e-02
24            	6.718002e-03	4.222226e-02	9.569099e-03	6.331082e-02	1.920068e-02	3.089865e-02
25            	6.712619e-03	3.278286e-02	9.183561e-03	5.653361e-02	1.831886e-02	2.938677e-02
26            	4.776741e-03	2.107589e-02	8.122615e-03	8.079443e-02	1.751147e-02	2.800544e-02
27            	3.672650e-03	2.044955e-02	7.111392e-03	2.288404e-01	1.677232e-02	2.674636e-02
28            	3.925798e-03	1.737043e-02	6.818392e-03	7.593103e-02	1.610148e-02	2.560275e-02
29            	4.041286e-03	1.425316e-02	6.750180e-03	6.035991e-02	1.549337e-02	2.456231e-02
30            	3.463056e-03	1.192065e-02	6.496747e-03	7.408825e-02	1.492993e-02	2.360464e-02
31            	2.993485e-03	1.260145e-02	6.197048e-03	1.447290e-01	1.440479e-02	2.271284e-02
32            	2.944101e-03	1.141745e-02	6.011530e-03	9.908335e-02	1.391367e-02	2.188222e-02
33            	2.968948e-03	9.898422e-03	5.852069e-03	7.300488e-02	1.345351e-02	2.110676e-02
34            	2.789556e-03	8.692953e-03	5.614750e-03	8.144678e-02	1.302333e-02	2.038420e-02
35            	2.573667e-03	1.041738e-02	5.378080e-03	1.272870e-01	1.261858e-02	1.970855e-02
36            	2.460594e-03	1.098380e-02	5.195949e-03	1.101522e-01	1.223748e-02	1.907990e-02
37            	2.404629e-03	1.053834e-02	5.042895e-03	8.038832e-02	1.187878e-02	1.848785e-02
38            	2.319636e-03	9.436523e-03	4.925747e-03	7.780249e-02	1.153756e-02	1.792507e-02
39            	2.206057e-03	9.308087e-03	4.827101e-03	9.928685e-02	1.121000e-02	1.738410e-02
40            	2.123049e-03	9.683853e-03	4.746939e-03	1.448701e-01	1.089329e-02	1.686482e-02
41            	2.065938e-03	8.731890e-03	4.635039e-03	1.110464e-01	1.058779e-02	1.636443e-02
42            	2.005143e-03	7.546366e-03	4.526870e-03	1.092778e-01	1.029275e-02	1.588122e-02
43            	1.940685e-03	6.680079e-03	4.432505e-03	1.112559e-01	1.000656e-02	1.541217e-02
44            	1.874110e-03	7.084291e-03	4.337334e-03	1.353186e-01	9.728929e-03	1.495764e-02
45            	1.819711e-03	6.924611e-03	4.243553e-03	9.886158e-02	9.460394e-03	1.451643e-02
46            	1.768749e-03	6.141421e-03	4.165134e-03	9.697497e-02	9.200365e-03	1.409271e-02
47            	1.719471e-03	5.705863e-03	4.092060e-03	9.749650e-02	8.949502e-03	1.368354e-02
48            	1.671904e-03	5.534326e-03	4.026642e-03	9.763107e-02	8.708349e-03	1.329070e-02
49            	1.627964e-03	5.357433e-03	3.964443e-03	9.821629e-02	8.477605e-03	1.291473e-02
50            	1.586924e-03	5.314230e-03	3.901579e-03	1.109225e-01	8.255889e-03	1.255561e-02
51            	1.548493e-03	4.899658e-03	3.835731e-03	1.086524e-01	8.043949e-03	1.221134e-02
52            	1.512378e-03	4.869123e-03	3.778594e-03	1.175646e-01	7.838957e-03	1.188097e-02
53            	1.477719e-03	4.715690e-03	3.722192e-03	1.122413e-01	7.643688e-03	1.156530e-02
54            	1.444929e-03	4.699235e-03	3.669871e-03	1.097698e-01	7.456567e-03	1.126408e-02
55            	1.413698e-03	4.653075e-03	3.621062e-03	1.083574e-01	7.277346e-03	1.097355e-02
56            	1.384082e-03	4.548546e-03	3.573007e-03	1.077700e-01	7.103701e-03	1.069496e-02
57            	1.355790e-03	4.660772e-03	3.524358e-03	9.358600e-02	6.938126e-03	1.042743e-02
58            	1.329709e-03	4.518363e-03	3.480349e-03	8.732028e-02	6.778376e-03	1.016952e-02
59            	1.304705e-03	4.309276e-03	3.438453e-03	8.698962e-02	6.624780e-03	9.922236e-03
60            	1.280860e-03	4.139789e-03	3.397631e-03	8.503075e-02	6.475392e-03	9.683705e-03
61            	1.258119e-03	4.038839e-03	3.358699e-03	8.363235e-02	6.331728e-03	9.454090e-03
62            	1.235720e-03	4.082843e-03	3.323377e-03	9.519408e-02	6.192822e-03	9.232124e-03
63            	1.214689e-03	3.829024e-03	3.286639e-03	9.344780e-02	6.059547e-03	9.017899e-03
64            	1.194668e-03	3.749406e-03	3.251352e-03	9.242849e-02	5.930599e-03	8.811599e-03
65            	1.175357e-03	3.725005e-03	3.217157e-03	9.021855e-02	5.806230e-03	8.611980e-03
66            	1.157206e-03	3.633809e-03	3.184631e-03	9.104610e-02	5.684807e-03	8.419180e-03
67            	1.139714e-03	3.532924e-03	3.153138e-03	8.791663e-02	5.568682e-03	8.232263e-03
68            	1.123200e-03	3.474248e-03	3.123316e-03	8.936742e-02	5.455473e-03	8.051556e-03
69            	1.107113e-03	3.353666e-03	3.093208e-03	8.584952e-02	5.345664e-03	7.876387e-03
70            	1.091774e-03	3.211474e-03	3.065345e-03	8.653312e-02	5.239262e-03	7.706557e-03
71            	1.077061e-03	3.133757e-03	3.037794e-03	8.346172e-02	5.135385e-03	7.541481e-03
72            	1.062804e-03	3.074660e-03	3.011744e-03	8.251285e-02	5.035420e-03	7.382048e-03
73            	1.049255e-03	3.061335e-03	2.985734e-03	8.201417e-02	4.938288e-03	7.226995e-03
74            	1.036044e-03	3.044463e-03	2.959451e-03	8.023015e-02	4.844418e-03	7.077073e-03
75            	1.023274e-03	3.076034e-03	2.934892e-03	8.144912e-02	4.752937e-03	6.931597e-03
76            	1.010739e-03	3.031591e-03	2.910365e-03	7.874372e-02	4.664784e-03	6.790970e-03
77            	9.986002e-04	3.022870e-03	2.887888e-03	7.927626e-02	4.579440e-03	6.654874e-03
78            	9.869856e-04	2.977239e-03	2.864912e-03	7.742850e-02	4.497140e-03	6.522215e-03
79            	9.757126e-04	2.957014e-03	2.842680e-03	7.671338e-02	4.416809e-03	6.394113e-03
80            	9.648424e-04	2.925631e-03	2.821103e-03	7.432236e-02	4.339216e-03	6.269220e-03
81            	9.543240e-04	2.852342e-03	2.799720e-03	7.228452e-02	4.264338e-03	6.148830e-03
82            	9.441130e-04	2.792640e-03	2.779185e-03	7.192586e-02	4.190545e-03	6.029888e-03
83            	9.342827e-04	2.773950e-03	2.758988e-03	7.123917e-02	4.119935e-03	5.914636e-03
84            	9.247385e-04	2.798464e-03	2.738907e-03	7.111099e-02	4.050401e-03	5.801448e-03
85            	9.154363e-04	2.808594e-03	2.719439e-03	7.053371e-02	3.983879e-03	5.692219e-03
86            	9.064975e-04	2.854269e-03	2.699914e-03	6.374551e-02	3.918298e-03	5.585119e-03
87            	8.976536e-04	2.778767e-03	2.681625e-03	6.359485e-02	3.855699e-03	5.481894e-03
88            	8.890088e-04	2.729399e-03	2.663738e-03	6.175852e-02	3.793897e-03	5.380294e-03
89            	8.805363e-04	2.687093e-03	2.645619e-03	6.008792e-02	3.735097e-03	5.282304e-03
90            	8.723579e-04	2.722504e-03	2.628485e-03	6.438998e-02	3.676116e-03	5.185500e-03
91            	8.643359e-04	2.616830e-03	2.610662e-03	6.218740e-02	3.619885e-03	5.092180e-03
92            	8.565755e-04	2.576643e-03	2.593772e-03	6.251090e-02	3.563895e-03	5.000206e-03
93            	8.489520e-04	2.571754e-03	2.576682e-03	6.107503e-02	3.511071e-03	4.911397e-03
94            	8.414805e-04	2.543520e-03	2.559907e-03	6.129701e-02	3.458137e-03	4.824186e-03
95            	8.342325e-04	2.537682e-03	2.543305e-03	6.012230e-02	3.407179e-03	4.739589e-03
96            	8.272954e-04	2.611690e-03	2.527732e-03	6.415026e-02	3.357245e-03	4.656277e-03
97            	8.203295e-04	2.550526e-03	2.511238e-03	6.242061e-02	3.309837e-03	4.575528e-03
98            	8.135204e-04	2.506516e-03	2.495281e-03	6.114416e-02	3.262749e-03	4.495884e-03
99            	8.068850e-04	2.436450e-03	2.479576e-03	6.015164e-02	3.217433e-03	4.418775e-03
100           	8.001846e-04	2.428979e-03	2.463706e-03	5.449847e-02	3.171806e-03	4.343367e-03
101           	7.937263e-04	2.368142e-03	2.448458e-03	5.396097e-02	3.128752e-03	4.269770e-03
102           	7.874223e-04	2.335183e-03	2.432963e-03	5.378305e-02	3.085855e-03	4.198078e-03
103           	7.812193e-04	2.311000e-03	2.417877e-03	5.311226e-02	3.043991e-03	4.127113e-03
104           	7.751383e-04	2.262881e-03	2.403072e-03	5.337306e-02	3.002413e-03	4.059650e-03
105           	7.691520e-04	2.245157e-03	2.387979e-03	5.278298e-02	2.962689e-03	3.991482e-03
106           	7.631935e-04	2.227231e-03	2.373550e-03	5.254230e-02	2.924084e-03	3.927333e-03
107           	7.572572e-04	2.225716e-03	2.358939e-03	5.045583e-02	2.884632e-03	3.861671e-03
108           	7.517663e-04	2.203788e-03	2.346475e-03	4.938136e-02	2.848435e-03	3.799535e-03
109           	7.463314e-04	2.217954e-03	2.333860e-03	4.847810e-02	2.810175e-03	3.737245e-03
110           	7.409754e-04	2.225890e-03	2.320978e-03	4.712186e-02	2.776411e-03	3.677749e-03
111           	7.357572e-04	2.196299e-03	2.308501e-03	4.687080e-02	2.740532e-03	3.617833e-03
112           	7.306500e-04	2.168310e-03	2.296272e-03	4.620143e-02	2.708793e-03	3.560749e-03
113           	7.255744e-04	2.149220e-03	2.284839e-03	4.709270e-02	2.673722e-03	3.503281e-03
114           	7.205822e-04	2.138760e-03	2.273499e-03	4.754605e-02	2.642741e-03	3.448035e-03
115           	7.156757e-04	2.121825e-03	2.262350e-03	4.708505e-02	2.610267e-03	3.393127e-03
116           	7.108755e-04	2.102348e-03	2.251268e-03	4.528205e-02	2.580991e-03	3.339599e-03
117           	7.062767e-04	2.117593e-03	2.240986e-03	4.788170e-02	2.549716e-03	3.287383e-03
118           	7.018419e-04	2.071472e-03	2.231728e-03	4.691118e-02	2.522187e-03	3.235001e-03
119           	6.974096e-04	2.043915e-03	2.222674e-03	4.650342e-02	2.493686e-03	3.184620e-03
120           	6.930531e-04	2.035325e-03	2.213172e-03	4.475105e-02	2.466683e-03	3.134840e-03
121           	6.886874e-04	2.029999e-03	2.203986e-03	4.475074e-02	2.439804e-03	3.086872e-03
122           	6.844179e-04	2.028837e-03	2.194591e-03	4.503899e-02	2.413657e-03	3.037522e-03
123           	6.801278e-04	2.059852e-03	2.185117e-03	4.323059e-02	2.387367e-03	2.993168e-03
124           	6.759901e-04	2.064464e-03	2.175995e-03	4.311454e-02	2.361320e-03	2.945831e-03
125           	6.718766e-04	2.084937e-03	2.167254e-03	4.229964e-02	2.337349e-03	2.903537e-03
126           	6.678511e-04	2.075508e-03	2.158698e-03	4.276334e-02	2.311734e-03	2.857354e-03
127           	6.638674e-04	2.085179e-03	2.149865e-03	4.127117e-02	2.289441e-03	2.815511e-03
128           	6.599319e-04	2.068662e-03	2.141790e-03	4.075917e-02	2.264207e-03	2.771004e-03
129           	6.561153e-04	2.086307e-03	2.133201e-03	4.000104e-02	2.243016e-03	2.728783e-03
130           	6.523261e-04	2.089284e-03	2.125066e-03	3.976769e-02	2.219659e-03	2.686007e-03
131           	6.485080e-04	2.109140e-03	2.116549e-03	4.173838e-02	2.199269e-03	2.646099e-03
132           	6.446318e-04	2.071876e-03	2.107796e-03	4.168907e-02	2.176946e-03	2.607028e-03
133           	6.408067e-04	2.070943e-03	2.099264e-03	4.176470e-02	2.157168e-03	2.569250e-03
134           	6.370440e-04	2.029874e-03	2.090918e-03	4.149940e-02	2.136460e-03	2.533137e-03
135           	6.333747e-04	1.984473e-03	2.082680e-03	4.361905e-02	2.116813e-03	2.497384e-03
136           	6.297145e-04	1.977645e-03	2.074466e-03	4.338583e-02	2.096856e-03	2.461945e-03
137           	6.261053e-04	1.977886e-03	2.066155e-03	4.226847e-02	2.077901e-03	2.427948e-03
138           	6.225907e-04	2.001356e-03	2.058279e-03	4.274680e-02	2.059424e-03	2.394337e-03
139           	6.191042e-04	1.965204e-03	2.050079e-03	4.177593e-02	2.041320e-03	2.364227e-03
140           	6.156160e-04	1.962562e-03	2.041706e-03	3.874052e-02	2.023744e-03	2.330240e-03
141           	6.122244e-04	1.975659e-03	2.033671e-03	3.910434e-02	2.008056e-03	2.303712e-03
142           	6.088546e-04	1.971379e-03	2.025882e-03	3.876802e-02	1.990209e-03	2.269073e-03
143           	6.053341e-04	2.000997e-03	2.017889e-03	3.913118e-02	1.977077e-03	2.244472e-03
144           	6.018700e-04	1.993482e-03	2.009925e-03	3.806279e-02	1.959041e-03	2.215611e-03
145           	5.985157e-04	1.973716e-03	2.002340e-03	4.053543e-02	1.945985e-03	2.191152e-03
146           	5.953447e-04	1.991921e-03	1.995150e-03	4.216005e-02	1.928841e-03	2.164181e-03
147           	5.920937e-04	1.956623e-03	1.987982e-03	4.448042e-02	1.915981e-03	2.139175e-03
148           	5.889248e-04	2.035179e-03	1.981022e-03	4.178743e-02	1.899656e-03	2.114701e-03
149           	5.857779e-04	1.984420e-03	1.974270e-03	4.203838e-02	1.886641e-03	2.089756e-03
150           	5.826228e-04	1.954642e-03	1.967410e-03	4.157650e-02	1.871806e-03	2.067910e-03
151           	5.795738e-04	1.965318e-03	1.960108e-03	4.141867e-02	1.858621e-03	2.042504e-03
152           	5.765351e-04	1.913168e-03	1.953038e-03	4.112927e-02	1.847250e-03	2.025558e-03
153           	5.734614e-04	1.875810e-03	1.945573e-03	3.945568e-02	1.831878e-03	1.998196e-03
154           	5.704812e-04	1.882260e-03	1.938640e-03	4.054250e-02	1.824160e-03	1.985271e-03
155           	5.675691e-04	1.918380e-03	1.931457e-03	4.076789e-02	1.807350e-03	1.956543e-03
156           	5.647774e-04	1.918568e-03	1.924963e-03	4.198388e-02	1.799682e-03	1.943828e-03
157           	5.619218e-04	1.883231e-03	1.918100e-03	4.131123e-02	1.784183e-03	1.916631e-03
158           	5.591569e-04	1.912245e-03	1.911941e-03	4.213524e-02	1.777035e-03	1.903375e-03
159           	5.563282e-04	1.951430e-03	1.904951e-03	4.016022e-02	1.762083e-03	1.878946e-03
160           	5.536449e-04	1.911428e-03	1.899089e-03	4.171310e-02	1.754764e-03	1.867058e-03
161           	5.509922e-04	1.923043e-03	1.892716e-03	4.006365e-02	1.740935e-03	1.843442e-03
162           	5.482832e-04	1.894493e-03	1.886442e-03	3.895254e-02	1.734131e-03	1.832057e-03
163           	5.457148e-04	1.956772e-03	1.881065e-03	4.228863e-02	1.720232e-03	1.810346e-03
164           	5.430313e-04	1.999659e-03	1.874748e-03	4.040965e-02	1.714225e-03	1.798506e-03
165           	5.404439e-04	2.006408e-03	1.869665e-03	4.252755e-02	1.700652e-03	1.779755e-03
166           	5.378135e-04	2.056108e-03	1.863841e-03	4.112386e-02	1.693987e-03	1.767967e-03
167           	5.352974e-04	2.029138e-03	1.858805e-03	4.335310e-02	1.682191e-03	1.749747e-03
168           	5.327929e-04	2.098834e-03	1.853138e-03	4.252534e-02	1.675318e-03	1.737269e-03
169           	5.305462e-04	2.099390e-03	1.848472e-03	4.521444e-02	1.664195e-03	1.725325e-03
170           	5.280956e-04	2.291277e-03	1.843172e-03	4.534734e-02	1.658123e-03	1.709808e-03
171           	5.257745e-04	2.573797e-03	1.838451e-03	4.609072e-02	1.646486e-03	1.705181e-03
172           	5.232695e-04	2.153628e-03	1.833838e-03	4.606964e-02	1.638778e-03	1.683047e-03
173           	5.207921e-04	2.063549e-03	1.829177e-03	4.487497e-02	1.630882e-03	1.673416e-03
174           	5.184322e-04	2.022284e-03	1.824832e-03	4.539357e-02	1.622146e-03	1.660759e-03
175           	5.160732e-04	2.242798e-03	1.820662e-03	4.651502e-02	1.615088e-03	1.645313e-03
176           	5.138517e-04	2.164493e-03	1.816708e-03	4.631424e-02	1.608582e-03	1.637090e-03
177           	5.115456e-04	1.986392e-03	1.812391e-03	4.564258e-02	1.598815e-03	1.621451e-03
178           	5.093406e-04	2.165134e-03	1.808401e-03	4.833751e-02	1.591749e-03	1.610814e-03
179           	5.070248e-04	2.244847e-03	1.804566e-03	4.735938e-02	1.583518e-03	1.599654e-03
180           	5.048996e-04	2.288872e-03	1.801287e-03	5.038519e-02	1.575641e-03	1.589829e-03
181           	5.026976e-04	2.329238e-03	1.796166e-03	4.930615e-02	1.568888e-03	1.583734e-03
182           	5.006117e-04	2.611521e-03	1.792773e-03	5.287789e-02	1.561574e-03	1.572599e-03
183           	4.984494e-04	3.026278e-03	1.787946e-03	5.319292e-02	1.554842e-03	1.568571e-03
184           	4.963366e-04	3.097568e-03	1.784177e-03	5.471652e-02	1.547197e-03	1.552242e-03
185           	4.941398e-04	2.789272e-03	1.780108e-03	5.569181e-02	1.544317e-03	1.549627e-03
186           	4.920525e-04	2.493549e-03	1.775697e-03	5.029896e-02	1.532994e-03	1.532192e-03
187           	4.899309e-04	2.709246e-03	1.772270e-03	5.663653e-02	1.530027e-03	1.525165e-03
188           	4.877832e-04	2.341037e-03	1.768222e-03	5.032334e-02	1.519809e-03	1.511749e-03
189           	4.857977e-04	2.630509e-03	1.765014e-03	5.539969e-02	1.515621e-03	1.504862e-03
190           	4.835871e-04	2.314941e-03	1.761313e-03	5.143305e-02	1.506987e-03	1.495541e-03
191           	4.816737e-04	2.800113e-03	1.757637e-03	5.674357e-02	1.502074e-03	1.487855e-03
192           	4.794397e-04	2.693077e-03	1.754430e-03	5.810011e-02	1.494863e-03	1.481000e-03
193           	4.774560e-04	2.676352e-03	1.751161e-03	6.375199e-02	1.489130e-03	1.470635e-03
194           	4.754053e-04	2.401917e-03	1.746360e-03	5.576329e-02	1.483337e-03	1.464638e-03
195           	4.735483e-04	2.459338e-03	1.742050e-03	5.737026e-02	1.476330e-03	1.453775e-03
196           	4.714245e-04	2.334223e-03	1.737648e-03	5.630199e-02	1.472584e-03	1.446984e-03
197           	4.694092e-04	2.433828e-03	1.733991e-03	5.838619e-02	1.464476e-03	1.438212e-03
198           	4.672833e-04	2.579516e-03	1.730282e-03	6.083741e-02	1.460424e-03	1.431900e-03
199           	4.655201e-04	2.716490e-03	1.727407e-03	5.958495e-02	1.453625e-03	1.423311e-03
200           	4.634887e-04	2.428224e-03	1.724007e-03	5.691979e-02	1.447528e-03	1.417552e-03
201           	4.619223e-04	2.929067e-03	1.720397e-03	5.925857e-02	1.442077e-03	1.406043e-03
202           	4.601085e-04	5.322042e-03	1.721132e-03	7.185557e-02	1.437820e-03	1.401470e-03
203           	4.583389e-04	4.425587e-03	1.717951e-03	7.411097e-02	1.433400e-03	1.393159e-03
204           	4.566317e-04	7.771149e-03	1.713422e-03	6.883022e-02	1.431615e-03	1.391081e-03
205           	4.547752e-04	6.941386e-03	1.709657e-03	6.816656e-02	1.423564e-03	1.386540e-03
206           	4.530107e-04	4.985447e-03	1.705335e-03	6.633995e-02	1.418558e-03	1.382951e-03
207           	4.512886e-04	3.790512e-03	1.701375e-03	7.182074e-02	1.411119e-03	1.375478e-03
208           	4.492630e-04	3.326495e-03	1.698450e-03	6.839138e-02	1.407117e-03	1.365215e-03
209           	4.471252e-04	2.711268e-03	1.697512e-03	6.271845e-02	1.399544e-03	1.362964e-03
210           	4.451970e-04	2.358892e-03	1.692876e-03	5.841959e-02	1.393879e-03	1.346274e-03
211           	4.431987e-04	2.517594e-03	1.688212e-03	6.525316e-02	1.387625e-03	1.342201e-03
212           	4.414659e-04	2.208364e-03	1.681254e-03	5.882177e-02	1.382067e-03	1.329639e-03
213           	4.396276e-04	2.442287e-03	1.675286e-03	5.708888e-02	1.377457e-03	1.322145e-03
214           	4.380617e-04	2.284170e-03	1.670053e-03	5.663566e-02	1.372640e-03	1.311723e-03
215           	4.363386e-04	2.401513e-03	1.665317e-03	6.112793e-02	1.368794e-03	1.307324e-03
216           	4.347629e-04	2.285057e-03	1.660817e-03	6.371588e-02	1.363650e-03	1.296812e-03
217           	4.329357e-04	2.327131e-03	1.658560e-03	7.284357e-02	1.359840e-03	1.293917e-03
218           	4.313340e-04	2.435201e-03	1.654531e-03	6.509265e-02	1.354260e-03	1.284226e-03
219           	4.298265e-04	3.521942e-03	1.651098e-03	6.924234e-02	1.350550e-03	1.278428e-03
220           	4.276544e-04	2.390620e-03	1.649936e-03	6.310329e-02	1.344883e-03	1.271733e-03
221           	4.260157e-04	2.277903e-03	1.645916e-03	6.410929e-02	1.341620e-03	1.264350e-03
222           	4.242439e-04	2.353772e-03	1.642927e-03	6.641199e-02	1.335803e-03	1.259775e-03
223           	4.229482e-04	2.310314e-03	1.636636e-03	7.152542e-02	1.331793e-03	1.251506e-03
224           	4.210431e-04	2.249264e-03	1.634587e-03	7.257844e-02	1.327225e-03	1.247500e-03
225           	4.198199e-04	2.097992e-03	1.628522e-03	7.915122e-02	1.322044e-03	1.239584e-03
226           	4.179186e-04	2.025300e-03	1.626638e-03	7.567165e-02	1.318804e-03	1.235082e-03
227           	4.165491e-04	2.058415e-03	1.620842e-03	7.746548e-02	1.313318e-03	1.227448e-03
228           	4.143465e-04	1.928876e-03	1.621327e-03	7.158958e-02	1.309665e-03	1.225368e-03
229           	4.130059e-04	1.981135e-03	1.616262e-03	6.839854e-02	1.304725e-03	1.215823e-03
230           	4.112501e-04	1.948808e-03	1.613924e-03	5.957286e-02	1.301719e-03	1.214738e-03
231           	4.104732e-04	2.122017e-03	1.606078e-03	6.265136e-02	1.296476e-03	1.205348e-03
232           	4.083180e-04	2.002743e-03	1.606838e-03	6.656939e-02	1.294225e-03	1.202621e-03
233           	4.070444e-04	1.905016e-03	1.600969e-03	5.908021e-02	1.288485e-03	1.195171e-03
234           	4.047415e-04	1.973508e-03	1.600945e-03	5.453667e-02	1.286702e-03	1.191755e-03
235           	4.037932e-04	2.190181e-03	1.593634e-03	5.663043e-02	1.281042e-03	1.184441e-03
236           	4.030964e-04	2.110121e-03	1.586597e-03	5.450813e-02	1.278594e-03	1.180651e-03
237           	4.023019e-04	2.645583e-03	1.578932e-03	6.391281e-02	1.273246e-03	1.174268e-03
238           	4.008969e-04	2.539353e-03	1.574655e-03	6.649085e-02	1.270326e-03	1.170077e-03
239           	3.996049e-04	2.767164e-03	1.570816e-03	7.351919e-02	1.265882e-03	1.165641e-03
240           	3.976487e-04	2.721056e-03	1.570762e-03	8.186616e-02	1.262486e-03	1.161720e-03
241           	3.961283e-04	2.590246e-03	1.568654e-03	7.969453e-02	1.258377e-03	1.158777e-03
242           	3.936124e-04	2.694248e-03	1.572495e-03	7.429298e-02	1.255254e-03	1.153296e-03
243           	3.921707e-04	2.335507e-03	1.568956e-03	6.657285e-02	1.250894e-03	1.150786e-03
244           	3.924705e-04	2.679634e-03	1.556729e-03	7.017122e-02	1.247890e-03	1.143855e-03
245           	3.921036e-04	2.215090e-03	1.545960e-03	6.208790e-02	1.244302e-03	1.141344e-03
246           	3.909177e-04	2.324958e-03	1.541306e-03	6.351909e-02	1.240279e-03	1.135671e-03
247           	3.890709e-04	2.250668e-03	1.541011e-03	5.940268e-02	1.237940e-03	1.132310e-03
248           	3.864400e-04	2.142817e-03	1.545512e-03	6.544024e-02	1.233748e-03	1.126988e-03
249           	3.842437e-04	2.205249e-03	1.548397e-03	6.531036e-02	1.231574e-03	1.124008e-03
250           	3.827881e-04	2.480956e-03	1.545663e-03	7.457894e-02	1.226783e-03	1.119090e-03
251           	3.828936e-04	2.241120e-03	1.533488e-03	7.145141e-02	1.224350e-03	1.115915e-03
252           	3.824911e-04	2.190522e-03	1.524999e-03	7.470790e-02	1.220368e-03	1.111883e-03
253           	3.809246e-04	2.082153e-03	1.522782e-03	7.840206e-02	1.217289e-03	1.107949e-03
254           	3.792170e-04	2.080649e-03	1.521729e-03	7.149793e-02	1.214198e-03	1.104679e-03
255           	3.766706e-04	2.021769e-03	1.526719e-03	7.879971e-02	1.211162e-03	1.100557e-03
256           	3.750151e-04	2.304926e-03	1.526164e-03	7.891381e-02	1.207721e-03	1.097208e-03
257           	3.734203e-04	2.101565e-03	1.525081e-03	7.292381e-02	1.204976e-03	1.093436e-03
258           	3.726615e-04	2.220786e-03	1.518025e-03	6.744470e-02	1.201645e-03	1.090557e-03
259           	3.712892e-04	2.028084e-03	1.515465e-03	5.998632e-02	1.198619e-03	1.086871e-03
260           	3.707957e-04	2.217021e-03	1.509066e-03	6.618188e-02	1.195394e-03	1.084672e-03
261           	3.695043e-04	2.192181e-03	1.505950e-03	7.318708e-02	1.192543e-03	1.080772e-03
262           	3.686878e-04	2.292584e-03	1.500057e-03	6.443122e-02	1.189663e-03	1.078497e-03
263           	3.677697e-04	2.166968e-03	1.495943e-03	6.162656e-02	1.186418e-03	1.074344e-03
264           	3.667946e-04	2.167867e-03	1.490706e-03	5.366939e-02	1.184309e-03	1.072035e-03
265           	3.655365e-04	1.982091e-03	1.487561e-03	5.648962e-02	1.180491e-03	1.068127e-03
266           	3.643383e-04	1.955694e-03	1.484790e-03	6.319386e-02	1.179014e-03	1.065908e-03
267           	3.623205e-04	1.897386e-03	1.486487e-03	6.065322e-02	1.174966e-03	1.062621e-03
268           	3.608620e-04	1.716769e-03	1.485075e-03	7.081388e-02	1.173153e-03	1.060058e-03
269           	3.598811e-04	1.811792e-03	1.481086e-03	6.662263e-02	1.169442e-03	1.056638e-03
270           	3.593314e-04	1.746096e-03	1.475181e-03	6.593208e-02	1.167450e-03	1.054416e-03
271           	3.576936e-04	1.764292e-03	1.475191e-03	5.819597e-02	1.163940e-03	1.051317e-03
272           	3.564863e-04	1.767202e-03	1.472135e-03	6.419414e-02	1.162105e-03	1.049093e-03
273           	3.556316e-04	1.813066e-03	1.467121e-03	5.451075e-02	1.158585e-03	1.046663e-03
274           	3.550983e-04	1.901167e-03	1.460469e-03	6.111937e-02	1.156447e-03	1.043465e-03
275           	3.541424e-04	1.862228e-03	1.455201e-03	4.675816e-02	1.153770e-03	1.041447e-03
276           	3.531828e-04	1.709596e-03	1.450577e-03	5.183528e-02	1.150982e-03	1.038202e-03
277           	3.509964e-04	1.821395e-03	1.452143e-03	4.744297e-02	1.148959e-03	1.036922e-03
278           	3.495230e-04	1.839227e-03	1.452032e-03	5.010499e-02	1.145892e-03	1.033484e-03
279           	3.484783e-04	1.704796e-03	1.449126e-03	4.842552e-02	1.143994e-03	1.032217e-03
280           	3.479058e-04	1.647810e-03	1.443969e-03	4.925155e-02	1.141114e-03	1.028665e-03
281           	3.464634e-04	1.620771e-03	1.443215e-03	4.845973e-02	1.139147e-03	1.027173e-03
282           	3.455575e-04	1.691391e-03	1.439507e-03	4.751927e-02	1.136275e-03	1.023795e-03
283           	3.448071e-04	1.611730e-03	1.435108e-03	5.005913e-02	1.134412e-03	1.022052e-03
284           	3.439482e-04	1.699301e-03	1.430708e-03	5.079472e-02	1.131496e-03	1.019452e-03
285           	3.433089e-04	1.663992e-03	1.425114e-03	5.159947e-02	1.129421e-03	1.017260e-03
286           	3.422740e-04	1.716248e-03	1.422104e-03	5.093752e-02	1.126942e-03	1.015133e-03
287           	3.412249e-04	1.569327e-03	1.419565e-03	4.708775e-02	1.124722e-03	1.012826e-03
288           	3.399690e-04	1.518176e-03	1.418172e-03	4.603875e-02	1.122811e-03	1.010689e-03
289           	3.391189e-04	1.555191e-03	1.414289e-03	5.243799e-02	1.120093e-03	1.009108e-03
290           	3.379905e-04	1.535546e-03	1.411726e-03	4.309201e-02	1.118332e-03	1.006873e-03
291           	3.376402e-04	1.703679e-03	1.408845e-03	5.207809e-02	1.116087e-03	1.004962e-03
292           	3.376390e-04	1.643999e-03	1.400530e-03	4.568583e-02	1.113549e-03	1.003119e-03
293           	3.371061e-04	1.649343e-03	1.395293e-03	5.200641e-02	1.112177e-03	1.000776e-03
294           	3.357463e-04	1.559966e-03	1.394260e-03	4.780765e-02	1.109611e-03	9.996568e-04
295           	3.332904e-04	1.613790e-03	1.400467e-03	4.738123e-02	1.107714e-03	9.967447e-04
296           	3.316112e-04	1.567947e-03	1.402547e-03	4.602175e-02	1.106058e-03	9.957911e-04
297           	3.300942e-04	1.834895e-03	1.399907e-03	4.443904e-02	1.103323e-03	9.928709e-04
298           	3.295763e-04	1.597210e-03	1.394322e-03	4.387751e-02	1.102126e-03	9.921256e-04
299           	3.290965e-04	1.512840e-03	1.389301e-03	4.348211e-02	1.098995e-03	9.893370e-04
300           	3.287276e-04	1.545684e-03	1.383265e-03	4.580524e-02	1.097784e-03	9.884520e-04
301           	3.282095e-04	1.554783e-03	1.378907e-03	4.413580e-02	1.094963e-03	9.861557e-04
302           	3.269221e-04	1.544498e-03	1.377834e-03	4.421620e-02	1.093543e-03	9.847209e-04
303           	3.254643e-04	1.519011e-03	1.377885e-03	4.403077e-02	1.091277e-03	9.828953e-04
304           	3.242480e-04	1.514933e-03	1.376768e-03	4.793592e-02	1.089577e-03	9.812102e-04
305           	3.235068e-04	1.523171e-03	1.373882e-03	4.779606e-02	1.087800e-03	9.796958e-04
306           	3.233369e-04	1.791498e-03	1.371800e-03	4.854513e-02	1.085671e-03	9.780846e-04
307           	3.225553e-04	1.656218e-03	1.368744e-03	4.912919e-02	1.083833e-03	9.766710e-04
308           	3.218894e-04	1.561497e-03	1.365166e-03	4.659533e-02	1.081747e-03	9.751004e-04
309           	3.213101e-04	1.598653e-03	1.361855e-03	4.683646e-02	1.079985e-03	9.736581e-04
310           	3.202831e-04	1.529363e-03	1.359900e-03	5.002112e-02	1.078369e-03	9.718599e-04
311           	3.190177e-04	1.579367e-03	1.360024e-03	4.880370e-02	1.076410e-03	9.709293e-04
312           	3.174796e-04	1.731780e-03	1.356182e-03	4.429748e-02	1.074861e-03	9.684815e-04
313           	3.168670e-04	1.613451e-03	1.352294e-03	4.426582e-02	1.073209e-03	9.679306e-04
314           	3.159630e-04	1.494558e-03	1.349365e-03	4.483015e-02	1.071089e-03	9.653713e-04
315           	3.150286e-04	1.510852e-03	1.346817e-03	4.339393e-02	1.069737e-03	9.647096e-04
316           	3.144217e-04	1.552177e-03	1.342797e-03	4.622019e-02	1.067419e-03	9.626169e-04
317           	3.137762e-04	1.588794e-03	1.339527e-03	4.864175e-02	1.066139e-03	9.615806e-04
318           	3.127417e-04	1.479666e-03	1.338068e-03	4.718126e-02	1.063887e-03	9.596644e-04
319           	3.117552e-04	1.576454e-03	1.336175e-03	4.829520e-02	1.062463e-03	9.585804e-04
320           	3.113963e-04	1.557631e-03	1.331098e-03	4.811121e-02	1.060517e-03	9.565421e-04
321           	3.114764e-04	1.783504e-03	1.328138e-03	5.178351e-02	1.059247e-03	9.555580e-04