/*--------------------------------*- C++ -*----------------------------------*\
  =========                 |
  \\      /  F ield         | OpenFOAM: The Open Source CFD Toolbox
   \\    /   O peration     | Website:  https://openfoam.org
    \\  /    A nd           | Version:  7
     \\/     M anipulation  |
\*---------------------------------------------------------------------------*/
FoamFile
{
    version     2.0;
    format      ascii;
    class       volVectorField;
    location    "42";
    object      ddtCorrDdt0(hU);
}
// * * * * * * * * * * * * * * * * * * * * * * * * * * * * * * * * * * * * * //

dimensions      [0 2 -2 0 0 0 0];

internalField   nonuniform List<vector> 
400
(
(1.77948e-10 -5.87631e-11 0)
(-9.67643e-10 -8.5167e-10 0)
(-1.47531e-09 -1.57012e-09 0)
(-7.10094e-10 -1.50707e-09 0)
(-3.88205e-10 -1.61319e-09 0)
(5.00776e-10 -4.04033e-10 0)
(-3.56127e-09 -1.94532e-09 0)
(-1.44002e-09 3.5225e-09 0)
(2.3948e-09 1.13501e-09 0)
(-1.1071e-09 1.03458e-09 0)
(-1.93783e-09 1.0672e-09 0)
(-1.91344e-09 5.88103e-10 0)
(-2.66306e-09 -1.57956e-10 0)
(-3.00357e-09 -8.44624e-10 0)
(-2.54588e-09 -1.32326e-09 0)
(-1.64455e-09 -1.81949e-09 0)
(-4.80933e-10 -1.437e-09 0)
(-1.31943e-10 -1.15409e-09 0)
(1.29964e-09 5.66897e-11 0)
(1.56106e-10 1.37335e-09 0)
(2.09515e-10 1.03482e-10 0)
(-1.18172e-09 4.35599e-10 0)
(-1.81629e-09 3.87421e-11 0)
(-7.56657e-10 2.94033e-10 0)
(1.83247e-10 -5.36305e-10 0)
(3.71399e-10 3.49918e-10 0)
(3.96406e-09 -1.7624e-09 0)
(2.23417e-09 1.34618e-09 0)
(-1.49709e-09 -4.46762e-10 0)
(-7.62489e-10 -7.2236e-10 0)
(-1.45001e-09 -2.0339e-10 0)
(-2.06674e-09 -1.91922e-10 0)
(-2.78841e-09 -3.97394e-10 0)
(-2.96323e-09 -4.53968e-10 0)
(-2.65979e-09 -4.10803e-10 0)
(-1.99647e-09 -8.10235e-10 0)
(-7.629e-10 -1.09587e-09 0)
(-1.62571e-10 -1.19484e-09 0)
(1.35727e-09 -1.01831e-09 0)
(4.13027e-10 2.38326e-10 0)
(1.68634e-10 -4.57418e-11 0)
(-7.66118e-10 -7.87038e-10 0)
(-1.06882e-09 -2.19426e-09 0)
(-4.38479e-10 -2.61109e-09 0)
(-5.01629e-11 -2.68893e-09 0)
(-3.00358e-10 -1.92584e-09 0)
(2.58348e-11 -3.60408e-10 0)
(2.49481e-10 -1.10021e-09 0)
(-6.99823e-10 8.59924e-10 0)
(-1.02455e-09 1.21659e-09 0)
(-1.44211e-09 1.29513e-09 0)
(-2.33176e-09 6.66804e-10 0)
(-2.79866e-09 -3.04553e-10 0)
(-2.46134e-09 -1.36903e-09 0)
(-2.09603e-09 -2.21982e-09 0)
(-1.49836e-09 -3.52551e-09 0)
(-3.20617e-10 -3.32876e-09 0)
(1.54854e-10 -3.02646e-09 0)
(1.79324e-09 -1.0323e-09 0)
(3.66215e-10 2.2716e-09 0)
(3.35372e-10 2.56014e-10 0)
(-1.00296e-09 -1.13605e-09 0)
(-1.52769e-09 -2.72432e-09 0)
(-5.65683e-10 -3.65725e-09 0)
(4.87593e-10 -3.43569e-09 0)
(6.08515e-10 -3.22851e-09 0)
(8.27181e-10 -1.54271e-09 0)
(1.06381e-09 -3.61571e-10 0)
(-1.02932e-10 6.13448e-10 0)
(-4.44907e-10 1.43479e-09 0)
(-1.19258e-09 1.29787e-09 0)
(-2.27864e-09 5.64241e-10 0)
(-2.57131e-09 -2.73856e-10 0)
(-2.32596e-09 -1.53864e-09 0)
(-2.20791e-09 -2.76026e-09 0)
(-1.88767e-09 -4.50844e-09 0)
(-7.55188e-10 -4.3131e-09 0)
(-6.29935e-11 -3.93576e-09 0)
(1.28055e-09 -1.82764e-09 0)
(5.23256e-10 2.46948e-09 0)
(1.53922e-10 3.50017e-10 0)
(-5.64016e-10 -5.39468e-10 0)
(-6.0911e-10 -1.81443e-09 0)
(-3.15254e-10 -3.03837e-09 0)
(-9.30256e-11 -3.20869e-09 0)
(-6.02481e-10 -3.12803e-09 0)
(-3.6749e-10 -1.82039e-09 0)
(-5.83093e-10 -6.9272e-10 0)
(-6.74102e-10 3.81814e-10 0)
(-3.3638e-10 1.28558e-09 0)
(-1.20585e-09 1.01274e-09 0)
(-1.74536e-09 3.9812e-10 0)
(-1.56503e-09 -2.99326e-10 0)
(-1.4648e-09 -1.65824e-09 0)
(-1.71736e-09 -3.01099e-09 0)
(-1.54503e-09 -4.99331e-09 0)
(-6.03715e-10 -4.89661e-09 0)
(-8.28615e-11 -4.52994e-09 0)
(1.08019e-09 -2.25088e-09 0)
(1.00018e-10 2.64209e-09 0)
(4.22698e-11 -3.03547e-10 0)
(-8.09873e-10 -2.41112e-09 0)
(-9.15442e-10 -4.49015e-09 0)
(-4.09611e-10 -6.07412e-09 0)
(2.99223e-10 -6.16599e-09 0)
(5.12264e-10 -5.06087e-09 0)
(8.67839e-10 -2.81944e-09 0)
(4.15371e-10 -6.939e-10 0)
(2.67783e-10 1.38948e-09 0)
(-5.04094e-10 2.29438e-09 0)
(-1.78321e-09 2.01785e-09 0)
(-2.1273e-09 1.30214e-09 0)
(-2.11048e-09 -6.61784e-11 0)
(-2.24424e-09 -2.38414e-09 0)
(-2.20524e-09 -4.3748e-09 0)
(-1.34086e-09 -6.83512e-09 0)
(1.56413e-10 -6.29914e-09 0)
(8.03655e-10 -5.73249e-09 0)
(1.92614e-09 -2.27381e-09 0)
(8.13422e-10 4.12726e-09 0)
(-6.19688e-12 -5.63101e-10 0)
(-3.37944e-10 -2.31457e-09 0)
(-4.42239e-10 -4.08427e-09 0)
(-3.52678e-10 -5.62327e-09 0)
(-3.04296e-10 -6.29825e-09 0)
(-3.04315e-10 -5.47893e-09 0)
(-3.22345e-10 -3.78531e-09 0)
(-2.74536e-10 -1.70918e-09 0)
(-1.52193e-10 5.1902e-11 0)
(-5.70172e-10 9.45506e-10 0)
(-8.30563e-10 1.2329e-09 0)
(-6.01052e-10 1.0136e-09 0)
(-6.7658e-10 -8.39721e-11 0)
(-1.10967e-09 -2.20123e-09 0)
(-1.29094e-09 -3.90264e-09 0)
(-1.02227e-09 -6.2706e-09 0)
(-4.3942e-10 -6.07076e-09 0)
(-3.05136e-10 -5.77431e-09 0)
(2.17009e-10 -2.97625e-09 0)
(7.54577e-11 3.54754e-09 0)
(-4.30534e-11 -9.60489e-10 0)
(-2.65339e-10 -3.04547e-09 0)
(-4.32043e-10 -5.21599e-09 0)
(-3.46702e-10 -6.89018e-09 0)
(-1.6446e-10 -7.42154e-09 0)
(2.52479e-11 -6.13396e-09 0)
(7.58428e-11 -3.77486e-09 0)
(1.33428e-10 -1.02598e-09 0)
(-3.59646e-11 1.0407e-09 0)
(-4.88576e-10 2.20667e-09 0)
(-7.8916e-10 2.3288e-09 0)
(-9.68735e-10 1.52355e-09 0)
(-1.37457e-09 -1.96528e-10 0)
(-1.49479e-09 -2.73424e-09 0)
(-1.1213e-09 -4.66667e-09 0)
(-4.09225e-10 -7.38435e-09 0)
(3.07792e-10 -6.99e-09 0)
(4.88753e-10 -6.5175e-09 0)
(1.19731e-09 -2.7158e-09 0)
(4.70768e-10 4.67634e-09 0)
(-2.06747e-11 -1.29862e-09 0)
(-1.53619e-10 -3.50189e-09 0)
(-2.62785e-10 -5.58385e-09 0)
(-1.71527e-10 -7.26539e-09 0)
(-2.86375e-11 -7.74792e-09 0)
(3.32347e-11 -6.54737e-09 0)
(-5.23776e-11 -4.22107e-09 0)
(-1.42653e-10 -1.58669e-09 0)
(-2.11028e-10 4.80909e-10 0)
(-4.08864e-10 1.81999e-09 0)
(-4.73595e-10 2.1449e-09 0)
(-5.21267e-10 1.55139e-09 0)
(-6.61192e-10 1.94088e-10 0)
(-5.16856e-10 -2.05487e-09 0)
(-1.09927e-10 -3.99589e-09 0)
(6.8206e-11 -7.04085e-09 0)
(-1.39503e-11 -7.03868e-09 0)
(-2.27911e-10 -6.72425e-09 0)
(-9.75285e-11 -3.18101e-09 0)
(-3.91408e-11 4.44428e-09 0)
(1.4653e-11 -1.44734e-09 0)
(-3.57478e-11 -3.73955e-09 0)
(-8.48435e-11 -5.76442e-09 0)
(-4.04642e-11 -7.51393e-09 0)
(-8.40304e-12 -8.10048e-09 0)
(-9.43901e-12 -6.88897e-09 0)
(-8.64707e-11 -4.42718e-09 0)
(-7.93778e-11 -1.50167e-09 0)
(-2.93772e-11 7.75345e-10 0)
(-2.05988e-11 2.18519e-09 0)
(-1.84251e-11 2.42213e-09 0)
(-1.08183e-10 1.63489e-09 0)
(-2.8893e-10 1.70823e-10 0)
(-3.45384e-10 -2.14352e-09 0)
(-3.08477e-10 -4.25195e-09 0)
(-1.93821e-10 -7.51086e-09 0)
(-1.35695e-11 -7.4225e-09 0)
(1.13163e-10 -6.95972e-09 0)
(4.94644e-10 -3.04761e-09 0)
(2.351e-10 4.79067e-09 0)
(1.13291e-11 -1.39895e-09 0)
(6.55727e-11 -3.73202e-09 0)
(1.02181e-10 -5.77788e-09 0)
(6.41588e-11 -7.53141e-09 0)
(4.19376e-11 -8.12275e-09 0)
(5.26155e-11 -6.92522e-09 0)
(8.90621e-11 -4.47118e-09 0)
(6.8096e-11 -1.52197e-09 0)
(-1.76483e-11 7.5027e-10 0)
(2.09741e-11 2.16752e-09 0)
(2.73663e-11 2.42244e-09 0)
(1.13737e-10 1.65911e-09 0)
(4.03735e-10 1.49653e-10 0)
(4.66247e-10 -2.24878e-09 0)
(2.84091e-10 -4.36853e-09 0)
(7.70701e-11 -7.54996e-09 0)
(-8.06369e-11 -7.39524e-09 0)
(-1.5043e-10 -6.96232e-09 0)
(-4.8432e-10 -3.09521e-09 0)
(-2.87396e-10 4.76086e-09 0)
(-2.97907e-13 -1.21495e-09 0)
(1.42535e-10 -3.48707e-09 0)
(2.75901e-10 -5.57903e-09 0)
(1.6602e-10 -7.27484e-09 0)
(5.58761e-11 -7.81797e-09 0)
(-3.80456e-11 -6.62276e-09 0)
(8.84577e-11 -4.33287e-09 0)
(1.4894e-10 -1.68071e-09 0)
(1.68646e-10 4.45087e-10 0)
(4.35634e-10 1.73299e-09 0)
(5.23275e-10 2.06076e-09 0)
(4.79125e-10 1.57016e-09 0)
(5.57167e-10 1.86798e-10 0)
(4.90708e-10 -2.20175e-09 0)
(1.93805e-10 -4.20304e-09 0)
(1.01963e-11 -7.14997e-09 0)
(-4.78283e-12 -7.02166e-09 0)
(1.43567e-10 -6.74663e-09 0)
(4.0505e-11 -3.27991e-09 0)
(1.77833e-11 4.38321e-09 0)
(3.10523e-12 -9.36637e-10 0)
(2.48938e-10 -3.02845e-09 0)
(4.07845e-10 -5.14902e-09 0)
(3.283e-10 -6.93874e-09 0)
(1.28848e-10 -7.42446e-09 0)
(-1.05276e-12 -6.23518e-09 0)
(-1.14112e-10 -3.79717e-09 0)
(-1.50574e-11 -1.18528e-09 0)
(-4.25104e-12 1.04424e-09 0)
(3.89526e-10 2.20503e-09 0)
(9.5101e-10 2.16023e-09 0)
(1.09888e-09 1.39827e-09 0)
(1.21379e-09 -1.94282e-10 0)
(1.31085e-09 -2.71733e-09 0)
(1.16085e-09 -4.74386e-09 0)
(5.64859e-10 -7.50385e-09 0)
(-2.35272e-10 -7.04256e-09 0)
(-5.47787e-10 -6.55979e-09 0)
(-1.28297e-09 -2.78933e-09 0)
(-4.4463e-10 4.63105e-09 0)
(1.35473e-11 -6.17501e-10 0)
(3.29925e-10 -2.28102e-09 0)
(3.84016e-10 -4.07185e-09 0)
(3.61987e-10 -5.68938e-09 0)
(1.9532e-10 -6.17506e-09 0)
(3.808e-10 -5.57034e-09 0)
(2.21536e-10 -3.67644e-09 0)
(3.27296e-10 -1.76956e-09 0)
(3.71883e-10 -3.91333e-11 0)
(2.75518e-10 1.14824e-09 0)
(6.88944e-10 1.2869e-09 0)
(8.76981e-10 8.24848e-10 0)
(8.14039e-10 -1.83089e-10 0)
(9.66683e-10 -2.10724e-09 0)
(1.16322e-09 -3.81249e-09 0)
(1.06927e-09 -6.30067e-09 0)
(5.5172e-10 -6.13791e-09 0)
(3.29293e-10 -5.7994e-09 0)
(-2.61738e-10 -2.96168e-09 0)
(-8.30307e-12 3.55693e-09 0)
(2.30963e-11 -3.66445e-10 0)
(7.98972e-10 -2.38641e-09 0)
(9.0097e-10 -4.59857e-09 0)
(4.02978e-10 -6.02662e-09 0)
(-3.31603e-10 -6.12147e-09 0)
(-5.59885e-10 -5.00729e-09 0)
(-7.96047e-10 -2.77613e-09 0)
(-6.88729e-10 -4.68418e-10 0)
(1.656e-10 1.14456e-09 0)
(6.07744e-10 2.37012e-09 0)
(1.30108e-09 2.33557e-09 0)
(2.05605e-09 1.33511e-09 0)
(2.42516e-09 -1.95285e-10 0)
(2.34571e-09 -2.37957e-09 0)
(2.0419e-09 -4.24786e-09 0)
(1.23402e-09 -6.74906e-09 0)
(-8.93772e-11 -6.30273e-09 0)
(-7.03561e-10 -5.71071e-09 0)
(-1.88438e-09 -2.16322e-09 0)
(-7.46126e-10 4.1983e-09 0)
(-9.69387e-11 3.76922e-10 0)
(5.51128e-10 -5.64422e-10 0)
(6.54788e-10 -1.92437e-09 0)
(2.69687e-10 -2.86274e-09 0)
(1.9144e-10 -3.3936e-09 0)
(3.92234e-10 -2.80648e-09 0)
(6.57582e-10 -1.95875e-09 0)
(2.64958e-11 -2.20589e-10 0)
(6.71127e-10 3.7437e-10 0)
(9.75242e-10 1.00448e-09 0)
(9.68991e-10 1.21396e-09 0)
(1.32389e-09 6.72197e-10 0)
(1.68231e-09 -2.79809e-10 0)
(1.70421e-09 -1.71967e-09 0)
(1.69298e-09 -2.9532e-09 0)
(1.4126e-09 -4.86292e-09 0)
(6.0312e-10 -4.82758e-09 0)
(2.0117e-10 -4.47633e-09 0)
(-9.92758e-10 -2.14059e-09 0)
(-1.08916e-10 2.70581e-09 0)
(-3.55299e-10 3.16089e-10 0)
(9.7785e-10 -1.23781e-09 0)
(1.59177e-09 -2.77953e-09 0)
(4.96886e-10 -3.42599e-09 0)
(-2.7785e-10 -3.65673e-09 0)
(-8.30349e-10 -2.65923e-09 0)
(-4.89614e-10 -1.99179e-09 0)
(-9.6363e-10 -1.47957e-10 0)
(-7.65899e-10 9.25673e-10 0)
(9.52131e-10 1.12832e-09 0)
(1.57735e-09 1.22634e-09 0)
(1.90409e-09 8.05722e-10 0)
(2.37496e-09 -1.36332e-10 0)
(2.48609e-09 -1.57719e-09 0)
(2.31525e-09 -2.78572e-09 0)
(1.82061e-09 -4.44172e-09 0)
(7.03303e-10 -4.24412e-09 0)
(1.23214e-10 -3.91034e-09 0)
(-1.22889e-09 -1.80077e-09 0)
(-6.02896e-10 2.48609e-09 0)
(-3.56522e-10 -5.03562e-11 0)
(7.83383e-10 -8.37513e-10 0)
(1.18356e-09 -2.08307e-09 0)
(4.35462e-10 -2.73194e-09 0)
(3.70936e-10 -2.59161e-09 0)
(-6.37479e-11 -1.69045e-09 0)
(2.18441e-10 -1.61915e-09 0)
(5.06817e-10 -1.5105e-09 0)
(-1.82087e-10 8.61818e-10 0)
(1.09204e-09 1.28025e-09 0)
(2.07412e-09 1.04504e-09 0)
(2.22174e-09 6.07714e-10 0)
(2.4856e-09 -1.96033e-10 0)
(2.46339e-09 -1.34544e-09 0)
(2.22337e-09 -2.28849e-09 0)
(1.50483e-09 -3.56093e-09 0)
(2.55193e-10 -3.32242e-09 0)
(-1.74998e-10 -3.05629e-09 0)
(-1.79641e-09 -1.10585e-09 0)
(-4.37959e-10 2.22465e-09 0)
(-2.31087e-10 5.96264e-11 0)
(1.1914e-09 5.43726e-10 0)
(1.79833e-09 3.0816e-10 0)
(8.1402e-10 -2.10989e-10 0)
(4.11308e-11 -1.22539e-10 0)
(-9.11757e-10 -1.14733e-09 0)
(-2.54421e-09 4.24379e-10 0)
(-8.54299e-11 4.82817e-10 0)
(1.48045e-09 -1.93741e-10 0)
(7.10643e-10 -2.30011e-10 0)
(1.63911e-09 -5.45877e-10 0)
(2.22672e-09 -4.93274e-10 0)
(2.69144e-09 -3.50596e-10 0)
(2.86262e-09 -3.99252e-10 0)
(2.69497e-09 -4.84492e-10 0)
(2.04463e-09 -8.9371e-10 0)
(7.2797e-10 -1.12706e-09 0)
(1.02494e-10 -1.23611e-09 0)
(-1.37241e-09 -1.10096e-09 0)
(-4.17233e-10 1.87028e-10 0)
(-4.33732e-11 -8.47708e-11 0)
(1.00161e-09 -7.68564e-10 0)
(1.34465e-09 -1.42844e-09 0)
(7.76861e-10 -1.77809e-09 0)
(-3.36835e-10 -1.36727e-09 0)
(7.61572e-10 -1.8075e-09 0)
(1.31773e-09 1.16733e-09 0)
(-8.81726e-10 3.0089e-09 0)
(-1.12933e-09 1.56436e-09 0)
(2.2723e-10 1.37735e-09 0)
(1.38895e-09 8.81897e-10 0)
(2.37495e-09 4.17166e-10 0)
(2.85959e-09 -1.38833e-10 0)
(2.83574e-09 -8.15005e-10 0)
(2.49361e-09 -1.35443e-09 0)
(1.71972e-09 -1.85817e-09 0)
(4.84782e-10 -1.45258e-09 0)
(6.71244e-11 -1.17147e-09 0)
(-1.30743e-09 2.79566e-11 0)
(-9.90907e-11 1.35768e-09 0)
)
;

boundaryField
{
    sides
    {
        type            calculated;
        value           nonuniform List<vector> 
40
(
(-4.33732e-11 0 0)
(1.00161e-09 0 0)
(1.34465e-09 0 0)
(7.76861e-10 0 0)
(-3.36835e-10 0 0)
(7.61572e-10 0 0)
(1.31773e-09 0 0)
(-8.81726e-10 0 0)
(-1.12933e-09 0 0)
(2.2723e-10 0 0)
(1.38895e-09 0 0)
(2.37495e-09 0 0)
(2.85959e-09 0 0)
(2.83574e-09 0 0)
(2.49361e-09 0 0)
(1.71972e-09 0 0)
(4.84782e-10 0 0)
(6.71244e-11 0 0)
(-1.30743e-09 0 0)
(-9.90907e-11 0 0)
(1.77948e-10 0 0)
(-9.67643e-10 0 0)
(-1.47531e-09 0 0)
(-7.10094e-10 0 0)
(-3.88205e-10 0 0)
(5.00776e-10 0 0)
(-3.56127e-09 0 0)
(-1.44002e-09 0 0)
(2.3948e-09 0 0)
(-1.1071e-09 0 0)
(-1.93783e-09 0 0)
(-1.91344e-09 0 0)
(-2.66306e-09 0 0)
(-3.00357e-09 0 0)
(-2.54588e-09 0 0)
(-1.64455e-09 0 0)
(-4.80933e-10 0 0)
(-1.31943e-10 0 0)
(1.29964e-09 0 0)
(1.56106e-10 0 0)
)
;
    }
    inlet
    {
        type            calculated;
        value           uniform (0 0 0);
    }
    outlet
    {
        type            calculated;
        value           nonuniform List<vector> 
20
(
(1.56106e-10 1.37335e-09 0)
(4.13027e-10 2.38326e-10 0)
(3.66215e-10 2.2716e-09 0)
(5.23256e-10 2.46948e-09 0)
(1.00018e-10 2.64209e-09 0)
(8.13422e-10 4.12726e-09 0)
(7.54577e-11 3.54754e-09 0)
(4.70768e-10 4.67634e-09 0)
(-3.91408e-11 4.44428e-09 0)
(2.351e-10 4.79067e-09 0)
(-2.87396e-10 4.76086e-09 0)
(1.77833e-11 4.38321e-09 0)
(-4.4463e-10 4.63105e-09 0)
(-8.30307e-12 3.55693e-09 0)
(-7.46126e-10 4.1983e-09 0)
(-1.08916e-10 2.70581e-09 0)
(-6.02896e-10 2.48609e-09 0)
(-4.37959e-10 2.22465e-09 0)
(-4.17233e-10 1.87028e-10 0)
(-9.90907e-11 1.35768e-09 0)
)
;
    }
    frontAndBack
    {
        type            empty;
    }
}


// ************************************************************************* //
