/*--------------------------------*- C++ -*----------------------------------*\
  =========                 |
  \\      /  F ield         | OpenFOAM: The Open Source CFD Toolbox
   \\    /   O peration     | Website:  https://openfoam.org
    \\  /    A nd           | Version:  7
     \\/     M anipulation  |
\*---------------------------------------------------------------------------*/
FoamFile
{
    version     2.0;
    format      ascii;
    class       surfaceScalarField;
    location    "42";
    object      phi;
}
// * * * * * * * * * * * * * * * * * * * * * * * * * * * * * * * * * * * * * //

dimensions      [0 4 -1 0 0 0 0];

internalField   nonuniform List<scalar> 
760
(
4.99999e-06
9.48441e-12
5e-06
-5.61548e-12
5.00001e-06
-1.4023e-11
5.00003e-06
-1.92541e-11
5.00006e-06
-2.47772e-11
5.00009e-06
-3.2474e-11
5.00013e-06
-4.37771e-11
5.00018e-06
-4.39101e-11
5.00024e-06
-5.94591e-11
5.00032e-06
-7.68398e-11
5.00041e-06
-9.04234e-11
5.00052e-06
-1.15852e-10
5.00065e-06
-1.30119e-10
5.00082e-06
-1.71299e-10
5.00101e-06
-1.80954e-10
5.00126e-06
-2.58217e-10
5.00152e-06
-2.54617e-10
5.00195e-06
-4.28728e-10
5.00235e-06
-4.07173e-10
-8.86728e-10
5.00002e-06
-1.27393e-11
5.00004e-06
-2.2182e-11
5.00006e-06
-3.2236e-11
5.00008e-06
-4.23289e-11
5.00011e-06
-5.1486e-11
5.00014e-06
-6.28477e-11
5.00018e-06
-7.57956e-11
5.00023e-06
-9.68139e-11
5.00028e-06
-1.17822e-10
5.00036e-06
-1.50344e-10
5.00045e-06
-1.77911e-10
5.00056e-06
-2.26198e-10
5.00068e-06
-2.57319e-10
5.00084e-06
-3.31632e-10
5.00102e-06
-3.605e-10
5.00125e-06
-4.89581e-10
5.0015e-06
-5.06489e-10
5.00184e-06
-7.62112e-10
5.00218e-06
-7.4597e-10
-1.2525e-09
5e-06
-6.72868e-12
5e-06
-2.44629e-11
5.00001e-06
-4.13653e-11
5.00002e-06
-5.71989e-11
5.00004e-06
-7.2544e-11
5.00007e-06
-9.10795e-11
5.00011e-06
-1.11616e-10
5.00015e-06
-1.4136e-10
5.00021e-06
-1.74059e-10
5.00028e-06
-2.19877e-10
5.00036e-06
-2.6396e-10
5.00047e-06
-3.29677e-10
5.00059e-06
-3.82333e-10
5.00074e-06
-4.78593e-10
5.00091e-06
-5.35344e-10
5.00112e-06
-6.91458e-10
5.00135e-06
-7.43255e-10
5.00162e-06
-1.03193e-09
5.00194e-06
-1.06151e-09
-1.67472e-09
5.00001e-06
-1.49634e-11
5.00003e-06
-3.91885e-11
5.00004e-06
-5.97444e-11
5.00007e-06
-7.89453e-11
5.00009e-06
-9.69091e-11
5.00012e-06
-1.19375e-10
5.00015e-06
-1.45258e-10
5.00019e-06
-1.82946e-10
5.00024e-06
-2.25206e-10
5.00031e-06
-2.83949e-10
5.00038e-06
-3.41102e-10
5.00048e-06
-4.24198e-10
5.00059e-06
-4.92388e-10
5.00072e-06
-6.11268e-10
5.00087e-06
-6.85634e-10
5.00105e-06
-8.71605e-10
5.00125e-06
-9.41126e-10
5.00148e-06
-1.26823e-09
5.00173e-06
-1.30382e-09
-1.87902e-09
5e-06
-1.44255e-11
5.00001e-06
-4.27025e-11
5.00001e-06
-6.76203e-11
5.00003e-06
-9.14339e-11
5.00004e-06
-1.14607e-10
5.00007e-06
-1.42585e-10
5.0001e-06
-1.75233e-10
5.00013e-06
-2.2034e-10
5.00018e-06
-2.71395e-10
5.00023e-06
-3.4008e-10
5.0003e-06
-4.09826e-10
5.00038e-06
-5.05686e-10
5.00048e-06
-5.90175e-10
5.00059e-06
-7.24316e-10
5.00073e-06
-8.18428e-10
5.00088e-06
-1.0203e-09
5.00104e-06
-1.10999e-09
5.00122e-06
-1.4481e-09
5.00142e-06
-1.50038e-09
-2.14042e-09
5e-06
-1.7488e-11
5.00001e-06
-5.07495e-11
5.00003e-06
-7.99225e-11
5.00004e-06
-1.07096e-10
5.00006e-06
-1.32836e-10
5.00008e-06
-1.63604e-10
5.0001e-06
-2.00444e-10
5.00013e-06
-2.51783e-10
5.00017e-06
-3.10611e-10
5.00022e-06
-3.8907e-10
5.00028e-06
-4.68938e-10
5.00035e-06
-5.76914e-10
5.00043e-06
-6.73266e-10
5.00053e-06
-8.21184e-10
5.00064e-06
-9.26724e-10
5.00076e-06
-1.14318e-09
5.00089e-06
-1.24265e-09
5.00104e-06
-1.59907e-09
5.0012e-06
-1.65833e-09
-2.26704e-09
5e-06
-1.96386e-11
5.00001e-06
-5.5378e-11
5.00002e-06
-8.71609e-11
5.00003e-06
-1.17211e-10
5.00004e-06
-1.46096e-10
5.00006e-06
-1.80281e-10
5.00008e-06
-2.21307e-10
5.0001e-06
-2.77469e-10
5.00013e-06
-3.42229e-10
5.00017e-06
-4.27094e-10
5.00021e-06
-5.14589e-10
5.00027e-06
-6.30797e-10
5.00033e-06
-7.36847e-10
5.0004e-06
-8.94416e-10
5.00049e-06
-1.01101e-09
5.00058e-06
-1.23754e-09
5.00069e-06
-1.34725e-09
5.0008e-06
-1.70958e-09
5.00091e-06
-1.77129e-09
-2.41362e-09
5e-06
-2.09062e-11
5.00001e-06
-5.85996e-11
5.00001e-06
-9.28157e-11
5.00002e-06
-1.253e-10
5.00003e-06
-1.56256e-10
5.00004e-06
-1.92617e-10
5.00006e-06
-2.36188e-10
5.00007e-06
-2.95866e-10
5.0001e-06
-3.65034e-10
5.00012e-06
-4.55257e-10
5.00016e-06
-5.48825e-10
5.0002e-06
-6.71704e-10
5.00025e-06
-7.84532e-10
5.0003e-06
-9.49055e-10
5.00036e-06
-1.07214e-09
5.00043e-06
-1.30507e-09
5.0005e-06
-1.41936e-09
5.00058e-06
-1.78829e-09
5.00066e-06
-1.85544e-09
-2.48534e-09
5e-06
-2.1741e-11
5e-06
-6.06821e-11
5.00001e-06
-9.6256e-11
5.00001e-06
-1.30101e-10
5.00002e-06
-1.62326e-10
5.00003e-06
-2.00079e-10
5.00003e-06
-2.45416e-10
5.00005e-06
-3.07356e-10
5.00006e-06
-3.79259e-10
5.00008e-06
-4.72595e-10
5.0001e-06
-5.69557e-10
5.00012e-06
-6.95975e-10
5.00015e-06
-8.12415e-10
5.00018e-06
-9.80707e-10
5.00022e-06
-1.10775e-09
5.00026e-06
-1.3449e-09
5.0003e-06
-1.46291e-09
5.00035e-06
-1.83529e-09
5.00039e-06
-1.90219e-09
-2.54062e-09
5e-06
-2.20327e-11
5e-06
-6.13726e-11
5e-06
-9.73642e-11
5e-06
-1.31673e-10
5.00001e-06
-1.64408e-10
5.00001e-06
-2.02749e-10
5.00001e-06
-2.48709e-10
5.00002e-06
-3.11269e-10
5.00002e-06
-3.8385e-10
5.00003e-06
-4.77976e-10
5.00003e-06
-5.7601e-10
5.00004e-06
-7.03796e-10
5.00005e-06
-8.21944e-10
5.00006e-06
-9.91893e-10
5.00007e-06
-1.1206e-09
5.00009e-06
-1.35876e-09
5.0001e-06
-1.47748e-09
5.00012e-06
-1.84995e-09
5.00013e-06
-1.91789e-09
-2.55598e-09
5e-06
-2.16929e-11
5e-06
-6.06584e-11
5e-06
-9.62544e-11
5e-06
-1.30105e-10
4.99999e-06
-1.62338e-10
4.99999e-06
-2.00107e-10
4.99999e-06
-2.45454e-10
4.99998e-06
-3.07378e-10
4.99998e-06
-3.79281e-10
4.99997e-06
-4.72623e-10
4.99997e-06
-5.69573e-10
4.99996e-06
-6.9597e-10
4.99995e-06
-8.1246e-10
4.99994e-06
-9.80791e-10
4.99993e-06
-1.10782e-09
4.99991e-06
-1.34486e-09
4.9999e-06
-1.46281e-09
4.99988e-06
-1.83516e-09
4.99987e-06
-1.90217e-09
-2.54053e-09
5e-06
-2.08593e-11
5e-06
-5.85863e-11
4.99999e-06
-9.27938e-11
4.99999e-06
-1.25274e-10
4.99998e-06
-1.56281e-10
4.99997e-06
-1.92645e-10
4.99997e-06
-2.36252e-10
4.99995e-06
-2.95929e-10
4.99994e-06
-3.65054e-10
4.99992e-06
-4.55322e-10
4.9999e-06
-5.48893e-10
4.99988e-06
-6.7169e-10
4.99985e-06
-7.84519e-10
4.99982e-06
-9.4907e-10
4.99978e-06
-1.07219e-09
4.99974e-06
-1.30503e-09
4.9997e-06
-1.41925e-09
4.99965e-06
-1.78808e-09
4.99961e-06
-1.85533e-09
-2.48518e-09
5e-06
-1.9634e-11
4.99999e-06
-5.53781e-11
4.99999e-06
-8.71222e-11
4.99998e-06
-1.17255e-10
4.99997e-06
-1.46084e-10
4.99996e-06
-1.80335e-10
4.99994e-06
-2.21308e-10
4.99993e-06
-2.77551e-10
4.9999e-06
-3.42222e-10
4.99988e-06
-4.27063e-10
4.99984e-06
-5.1467e-10
4.9998e-06
-6.30851e-10
4.99975e-06
-7.36815e-10
4.9997e-06
-8.94321e-10
4.99964e-06
-1.01099e-09
4.99957e-06
-1.23748e-09
4.9995e-06
-1.34716e-09
4.99942e-06
-1.70932e-09
4.99934e-06
-1.77111e-09
-2.41329e-09
5e-06
-1.75236e-11
4.99999e-06
-5.07415e-11
4.99998e-06
-7.99643e-11
4.99997e-06
-1.07151e-10
4.99996e-06
-1.32795e-10
4.99994e-06
-1.63665e-10
4.99992e-06
-2.00415e-10
4.9999e-06
-2.51811e-10
4.99987e-06
-3.10676e-10
4.99983e-06
-3.88934e-10
4.99979e-06
-4.6885e-10
4.99973e-06
-5.7695e-10
4.99967e-06
-6.73283e-10
4.9996e-06
-8.21065e-10
4.99951e-06
-9.2662e-10
4.99942e-06
-1.14304e-09
4.99931e-06
-1.24256e-09
4.9992e-06
-1.59879e-09
4.99909e-06
-1.65807e-09
-2.26663e-09
5e-06
-1.44601e-11
4.99999e-06
-4.2717e-11
4.99997e-06
-6.77225e-11
4.99996e-06
-9.14321e-11
4.99994e-06
-1.14649e-10
4.99992e-06
-1.42564e-10
4.9999e-06
-1.75234e-10
4.99987e-06
-2.20216e-10
4.99983e-06
-2.71528e-10
4.99978e-06
-3.40068e-10
4.99972e-06
-4.09666e-10
4.99965e-06
-5.05611e-10
4.99957e-06
-5.90214e-10
4.99947e-06
-7.24269e-10
4.99936e-06
-8.18355e-10
4.99924e-06
-1.02012e-09
4.99911e-06
-1.10994e-09
4.99896e-06
-1.44786e-09
4.9988e-06
-1.50017e-09
-2.13997e-09
5e-06
-1.49757e-11
4.99999e-06
-3.92422e-11
4.99999e-06
-5.98257e-11
4.99997e-06
-7.88746e-11
4.99996e-06
-9.69934e-11
4.99993e-06
-1.19162e-10
4.9999e-06
-1.4523e-10
4.99987e-06
-1.82714e-10
4.99982e-06
-2.25157e-10
4.99977e-06
-2.84061e-10
4.9997e-06
-3.41019e-10
4.99962e-06
-4.24029e-10
4.99952e-06
-4.92354e-10
4.99941e-06
-6.1122e-10
4.99927e-06
-6.85582e-10
4.99912e-06
-8.71396e-10
4.99896e-06
-9.41046e-10
4.99878e-06
-1.26798e-09
4.99858e-06
-1.30364e-09
-1.87853e-09
4.99999e-06
-6.66522e-12
4.99997e-06
-2.45438e-11
4.99996e-06
-4.13635e-11
4.99993e-06
-5.71888e-11
4.99991e-06
-7.25684e-11
4.99988e-06
-9.0851e-11
4.99985e-06
-1.11908e-10
4.99981e-06
-1.41566e-10
4.99976e-06
-1.73977e-10
4.99969e-06
-2.19976e-10
4.99962e-06
-2.64059e-10
4.99952e-06
-3.29616e-10
4.99941e-06
-3.82316e-10
4.99928e-06
-4.78584e-10
4.99913e-06
-5.35391e-10
4.99895e-06
-6.9135e-10
4.99875e-06
-7.43266e-10
4.99852e-06
-1.03178e-09
4.99827e-06
-1.0615e-09
-1.6744e-09
5e-06
-1.26885e-11
5e-06
-2.2181e-11
4.99999e-06
-3.20853e-11
4.99998e-06
-4.24241e-11
4.99996e-06
-5.13755e-11
4.99993e-06
-6.29791e-11
4.99989e-06
-7.64308e-11
4.99985e-06
-9.66987e-11
4.99979e-06
-1.17777e-10
4.99972e-06
-1.50321e-10
4.99964e-06
-1.78059e-10
4.99953e-06
-2.26216e-10
4.99941e-06
-2.57293e-10
4.99926e-06
-3.31549e-10
4.99909e-06
-3.60531e-10
4.99888e-06
-4.89459e-10
4.99865e-06
-5.06506e-10
4.99838e-06
-7.61897e-10
4.99806e-06
-7.45951e-10
-1.25209e-09
4.99998e-06
9.49698e-12
4.99996e-06
-5.56146e-12
4.99994e-06
-1.3888e-11
4.99992e-06
-1.93435e-11
4.99989e-06
-2.47504e-11
4.99986e-06
-3.17839e-11
4.99982e-06
-3.66393e-11
4.99977e-06
-3.9649e-11
4.99972e-06
-5.93343e-11
4.99964e-06
-7.67402e-11
4.99956e-06
-9.05643e-11
4.99945e-06
-1.15994e-10
4.99932e-06
-1.30192e-10
4.99916e-06
-1.71323e-10
4.99898e-06
-1.81048e-10
4.99875e-06
-2.58257e-10
4.9985e-06
-2.54713e-10
4.99816e-06
-4.28741e-10
4.99782e-06
-4.07276e-10
-8.86766e-10
5.00001e-06
5e-06
4.99999e-06
4.99997e-06
4.99994e-06
4.99991e-06
4.99987e-06
4.99982e-06
4.99976e-06
4.99968e-06
4.99959e-06
4.99948e-06
4.99935e-06
4.99917e-06
4.99899e-06
4.99874e-06
4.99848e-06
4.99805e-06
4.99765e-06
)
;

boundaryField
{
    sides
    {
        type            calculated;
        value           uniform 0;
    }
    inlet
    {
        type            calculated;
        value           nonuniform List<scalar> 
20
(
-5e-06
-5e-06
-5e-06
-5e-06
-5e-06
-5e-06
-5e-06
-5e-06
-5e-06
-5e-06
-5e-06
-5e-06
-5e-06
-5e-06
-5e-06
-5e-06
-5e-06
-5e-06
-5e-06
-5e-06
)
;
    }
    outlet
    {
        type            calculated;
        value           nonuniform List<scalar> 
20
(
5.00324e-06
5.00254e-06
5.00236e-06
5.00193e-06
5.00168e-06
5.00133e-06
5.00106e-06
5.00074e-06
5.00045e-06
5.00015e-06
4.99985e-06
4.99955e-06
4.99926e-06
4.99894e-06
4.99867e-06
4.99832e-06
4.99807e-06
4.99764e-06
4.99746e-06
4.99676e-06
)
;
    }
    frontAndBack
    {
        type            empty;
        value           nonuniform 0();
    }
}


// ************************************************************************* //
