/*--------------------------------*- C++ -*----------------------------------*\
  =========                 |
  \\      /  F ield         | OpenFOAM: The Open Source CFD Toolbox
   \\    /   O peration     | Website:  https://openfoam.org
    \\  /    A nd           | Version:  7
     \\/     M anipulation  |
\*---------------------------------------------------------------------------*/
FoamFile
{
    version     2.0;
    format      ascii;
    class       volVectorField;
    location    "42";
    object      U;
}
// * * * * * * * * * * * * * * * * * * * * * * * * * * * * * * * * * * * * * //

dimensions      [0 1 -1 0 0 0 0];

internalField   nonuniform List<vector> 
400
(
(0.0999932 -8.88451e-07 0)
(0.0999931 -2.40272e-06 0)
(0.0999933 -3.60152e-06 0)
(0.0999937 -4.60984e-06 0)
(0.0999942 -5.56313e-06 0)
(0.0999948 -6.55458e-06 0)
(0.0999956 -7.60239e-06 0)
(0.0999967 -8.7194e-06 0)
(0.0999978 -9.86472e-06 0)
(0.0999995 -1.11381e-05 0)
(0.100001 -1.22871e-05 0)
(0.100004 -1.36958e-05 0)
(0.100006 -1.47696e-05 0)
(0.10001 -1.64404e-05 0)
(0.100013 -1.72872e-05 0)
(0.10002 -1.96254e-05 0)
(0.100022 -1.99873e-05 0)
(0.100035 -2.41723e-05 0)
(0.100036 -2.37025e-05 0)
(0.10006 -3.30779e-05 0)
(0.0999944 3.99109e-07 0)
(0.0999948 1.19509e-06 0)
(0.0999955 1.98416e-06 0)
(0.0999961 2.74499e-06 0)
(0.0999966 3.46726e-06 0)
(0.0999972 4.14226e-06 0)
(0.0999979 4.76257e-06 0)
(0.0999989 5.32217e-06 0)
(0.1 5.85406e-06 0)
(0.100002 6.24544e-06 0)
(0.100003 6.70306e-06 0)
(0.100006 6.84516e-06 0)
(0.100008 7.22917e-06 0)
(0.100012 6.93078e-06 0)
(0.100015 7.33972e-06 0)
(0.10002 6.10599e-06 0)
(0.100024 6.70201e-06 0)
(0.100033 3.1868e-06 0)
(0.100036 4.08334e-06 0)
(0.10005 -5.35923e-06 0)
(0.0999948 -4.25788e-07 0)
(0.0999948 -1.37385e-06 0)
(0.0999949 -2.35974e-06 0)
(0.0999952 -3.34885e-06 0)
(0.0999956 -4.30882e-06 0)
(0.0999961 -5.30584e-06 0)
(0.0999968 -6.32057e-06 0)
(0.0999978 -7.50466e-06 0)
(0.0999988 -8.71493e-06 0)
(0.1 -1.01772e-05 0)
(0.100002 -1.15635e-05 0)
(0.100004 -1.33731e-05 0)
(0.100006 -1.48583e-05 0)
(0.10001 -1.72151e-05 0)
(0.100013 -1.86898e-05 0)
(0.100018 -2.21859e-05 0)
(0.100021 -2.34625e-05 0)
(0.100029 -2.95638e-05 0)
(0.100032 -3.02046e-05 0)
(0.100045 -4.19511e-05 0)
(0.0999957 -6.66412e-08 0)
(0.0999959 -1.27966e-07 0)
(0.0999964 -4.68604e-08 0)
(0.0999969 1.10632e-07 0)
(0.0999974 2.99274e-07 0)
(0.099998 4.02589e-07 0)
(0.0999987 4.42038e-07 0)
(0.0999995 2.55498e-07 0)
(0.1 -1.87611e-08 0)
(0.100002 -6.01683e-07 0)
(0.100003 -1.15573e-06 0)
(0.100005 -2.19679e-06 0)
(0.100007 -2.96408e-06 0)
(0.10001 -4.6922e-06 0)
(0.100013 -5.58443e-06 0)
(0.100017 -8.61188e-06 0)
(0.10002 -9.44034e-06 0)
(0.100027 -1.52545e-05 0)
(0.100029 -1.55947e-05 0)
(0.100038 -2.72383e-05 0)
(0.0999963 -3.30568e-07 0)
(0.0999964 -1.03094e-06 0)
(0.0999966 -1.74434e-06 0)
(0.0999968 -2.49736e-06 0)
(0.0999971 -3.2618e-06 0)
(0.0999975 -4.12196e-06 0)
(0.0999981 -5.05459e-06 0)
(0.0999989 -6.2131e-06 0)
(0.0999998 -7.46333e-06 0)
(0.100001 -9.0447e-06 0)
(0.100002 -1.06202e-05 0)
(0.100004 -1.27143e-05 0)
(0.100006 -1.45485e-05 0)
(0.100008 -1.73889e-05 0)
(0.100011 -1.93854e-05 0)
(0.100014 -2.35782e-05 0)
(0.100017 -2.54766e-05 0)
(0.100022 -3.24299e-05 0)
(0.100024 -3.35964e-05 0)
(0.100033 -4.60413e-05 0)
(0.099997 -3.2379e-07 0)
(0.0999971 -8.94174e-07 0)
(0.0999974 -1.32738e-06 0)
(0.0999978 -1.67358e-06 0)
(0.0999981 -1.9684e-06 0)
(0.0999986 -2.35565e-06 0)
(0.0999991 -2.85661e-06 0)
(0.0999997 -3.64012e-06 0)
(0.1 -4.56899e-06 0)
(0.100001 -5.87916e-06 0)
(0.100003 -7.21457e-06 0)
(0.100004 -9.08889e-06 0)
(0.100006 -1.07281e-05 0)
(0.100008 -1.33697e-05 0)
(0.10001 -1.51901e-05 0)
(0.100013 -1.91891e-05 0)
(0.100015 -2.09169e-05 0)
(0.100019 -2.77006e-05 0)
(0.100021 -2.86712e-05 0)
(0.100027 -4.09839e-05 0)
(0.0999977 -3.62522e-07 0)
(0.0999978 -1.04473e-06 0)
(0.099998 -1.68375e-06 0)
(0.0999982 -2.31814e-06 0)
(0.0999984 -2.94825e-06 0)
(0.0999987 -3.68847e-06 0)
(0.0999991 -4.55785e-06 0)
(0.0999997 -5.71974e-06 0)
(0.1 -7.04088e-06 0)
(0.100001 -8.75922e-06 0)
(0.100002 -1.05244e-05 0)
(0.100003 -1.28698e-05 0)
(0.100004 -1.50088e-05 0)
(0.100006 -1.81947e-05 0)
(0.100007 -2.05465e-05 0)
(0.10001 -2.51217e-05 0)
(0.100011 -2.73379e-05 0)
(0.100015 -3.46598e-05 0)
(0.100016 -3.59787e-05 0)
(0.100021 -4.86819e-05 0)
(0.0999983 -4.01527e-07 0)
(0.0999984 -1.14066e-06 0)
(0.0999986 -1.81417e-06 0)
(0.0999987 -2.44514e-06 0)
(0.0999989 -3.03792e-06 0)
(0.0999991 -3.7305e-06 0)
(0.0999994 -4.56142e-06 0)
(0.0999998 -5.70634e-06 0)
(0.1 -7.03383e-06 0)
(0.100001 -8.77183e-06 0)
(0.100001 -1.05644e-05 0)
(0.100002 -1.29248e-05 0)
(0.100003 -1.50743e-05 0)
(0.100004 -1.82401e-05 0)
(0.100006 -2.05855e-05 0)
(0.100007 -2.51147e-05 0)
(0.100008 -2.73136e-05 0)
(0.100011 -3.45776e-05 0)
(0.100012 -3.58537e-05 0)
(0.100015 -4.84695e-05 0)
(0.099999 -4.23944e-07 0)
(0.0999991 -1.18943e-06 0)
(0.0999991 -1.88864e-06 0)
(0.0999992 -2.55189e-06 0)
(0.0999994 -3.18548e-06 0)
(0.0999995 -3.93142e-06 0)
(0.0999997 -4.82419e-06 0)
(0.0999999 -6.03916e-06 0)
(0.1 -7.44341e-06 0)
(0.100001 -9.27309e-06 0)
(0.100001 -1.11788e-05 0)
(0.100001 -1.36852e-05 0)
(0.100002 -1.60015e-05 0)
(0.100003 -1.93671e-05 0)
(0.100003 -2.1906e-05 0)
(0.100004 -2.66571e-05 0)
(0.100005 -2.90157e-05 0)
(0.100006 -3.64778e-05 0)
(0.100007 -3.78335e-05 0)
(0.100009 -5.0628e-05 0)
(0.0999997 -4.34875e-07 0)
(0.0999997 -1.21521e-06 0)
(0.0999997 -1.93303e-06 0)
(0.0999997 -2.61748e-06 0)
(0.0999998 -3.26823e-06 0)
(0.0999998 -4.02779e-06 0)
(0.0999999 -4.94007e-06 0)
(0.1 -6.1896e-06 0)
(0.1 -7.64608e-06 0)
(0.1 -9.53594e-06 0)
(0.1 -1.15011e-05 0)
(0.1 -1.40545e-05 0)
(0.100001 -1.64099e-05 0)
(0.100001 -1.97976e-05 0)
(0.100001 -2.23626e-05 0)
(0.100001 -2.71199e-05 0)
(0.100002 -2.94985e-05 0)
(0.100002 -3.69577e-05 0)
(0.100002 -3.83312e-05 0)
(0.100003 -5.10964e-05 0)
(0.1 -4.34404e-07 0)
(0.1 -1.21502e-06 0)
(0.1 -1.93303e-06 0)
(0.1 -2.61752e-06 0)
(0.1 -3.26837e-06 0)
(0.1 -4.0281e-06 0)
(0.1 -4.94049e-06 0)
(0.1 -6.18985e-06 0)
(0.0999999 -7.64632e-06 0)
(0.0999998 -9.53621e-06 0)
(0.0999997 -1.15012e-05 0)
(0.0999995 -1.40545e-05 0)
(0.0999994 -1.64104e-05 0)
(0.0999991 -1.97986e-05 0)
(0.0999989 -2.23634e-05 0)
(0.0999985 -2.71199e-05 0)
(0.0999983 -2.94977e-05 0)
(0.0999978 -3.69568e-05 0)
(0.0999977 -3.83312e-05 0)
(0.0999971 -5.10963e-05 0)
(0.100001 -4.23012e-07 0)
(0.100001 -1.18912e-06 0)
(0.100001 -1.88847e-06 0)
(0.100001 -2.55175e-06 0)
(0.100001 -3.18592e-06 0)
(0.100001 -3.93204e-06 0)
(0.1 -4.82529e-06 0)
(0.1 -6.04007e-06 0)
(0.0999998 -7.44393e-06 0)
(0.0999995 -9.27412e-06 0)
(0.0999991 -1.11797e-05 0)
(0.0999986 -1.3685e-05 0)
(0.099998 -1.60017e-05 0)
(0.0999973 -1.93679e-05 0)
(0.0999967 -2.19069e-05 0)
(0.0999957 -2.66558e-05 0)
(0.099995 -2.90128e-05 0)
(0.0999936 -3.64731e-05 0)
(0.0999932 -3.78308e-05 0)
(0.0999912 -5.06231e-05 0)
(0.100002 -4.0101e-07 0)
(0.100002 -1.14056e-06 0)
(0.100001 -1.81366e-06 0)
(0.100001 -2.44541e-06 0)
(0.100001 -3.03816e-06 0)
(0.100001 -3.73147e-06 0)
(0.100001 -4.56227e-06 0)
(0.1 -5.7081e-06 0)
(0.0999998 -7.03432e-06 0)
(0.0999992 -8.77275e-06 0)
(0.0999985 -1.05666e-05 0)
(0.0999977 -1.29261e-05 0)
(0.0999968 -1.50748e-05 0)
(0.0999955 -1.82407e-05 0)
(0.0999945 -2.05873e-05 0)
(0.0999928 -2.51158e-05 0)
(0.0999916 -2.73137e-05 0)
(0.0999894 -3.45759e-05 0)
(0.0999885 -3.58538e-05 0)
(0.0999854 -4.8469e-05 0)
(0.100002 -3.62826e-07 0)
(0.100002 -1.04468e-06 0)
(0.100002 -1.68378e-06 0)
(0.100002 -2.31912e-06 0)
(0.100002 -2.94778e-06 0)
(0.100001 -3.68951e-06 0)
(0.100001 -4.55745e-06 0)
(0.1 -5.72066e-06 0)
(0.0999997 -7.04117e-06 0)
(0.099999 -8.75715e-06 0)
(0.0999981 -1.0524e-05 0)
(0.0999969 -1.287e-05 0)
(0.0999958 -1.50078e-05 0)
(0.0999941 -1.81914e-05 0)
(0.0999926 -2.0544e-05 0)
(0.0999902 -2.51177e-05 0)
(0.0999887 -2.73342e-05 0)
(0.0999853 -3.46509e-05 0)
(0.0999843 -3.59706e-05 0)
(0.0999794 -4.86682e-05 0)
(0.100003 -3.24469e-07 0)
(0.100003 -8.94297e-07 0)
(0.100003 -1.32886e-06 0)
(0.100002 -1.67469e-06 0)
(0.100002 -1.96909e-06 0)
(0.100001 -2.35699e-06 0)
(0.100001 -2.85737e-06 0)
(0.1 -3.64056e-06 0)
(0.0999996 -4.57212e-06 0)
(0.0999986 -5.87899e-06 0)
(0.0999975 -7.21367e-06 0)
(0.099996 -9.09047e-06 0)
(0.0999944 -1.07306e-05 0)
(0.0999922 -1.33704e-05 0)
(0.0999903 -1.51907e-05 0)
(0.0999872 -1.91891e-05 0)
(0.0999852 -2.09186e-05 0)
(0.099981 -2.77001e-05 0)
(0.0999793 -2.86707e-05 0)
(0.0999735 -4.09824e-05 0)
(0.100004 -3.30744e-07 0)
(0.100004 -1.0313e-06 0)
(0.100003 -1.74586e-06 0)
(0.100003 -2.49633e-06 0)
(0.100003 -3.26283e-06 0)
(0.100002 -4.11976e-06 0)
(0.100002 -5.05475e-06 0)
(0.100001 -6.20951e-06 0)
(0.1 -7.4641e-06 0)
(0.0999991 -9.04516e-06 0)
(0.0999978 -1.06173e-05 0)
(0.099996 -1.27114e-05 0)
(0.0999942 -1.45483e-05 0)
(0.0999916 -1.73873e-05 0)
(0.0999894 -1.93837e-05 0)
(0.0999855 -2.35732e-05 0)
(0.0999832 -2.54744e-05 0)
(0.0999775 -3.24225e-05 0)
(0.099976 -3.35906e-05 0)
(0.0999674 -4.60259e-05 0)
(0.100004 -6.75898e-08 0)
(0.100004 -1.30049e-07 0)
(0.100004 -4.91937e-08 0)
(0.100003 1.12082e-07 0)
(0.100003 2.98317e-07 0)
(0.100002 4.08007e-07 0)
(0.100001 4.40304e-07 0)
(0.1 2.58655e-07 0)
(0.0999995 -1.83452e-08 0)
(0.0999982 -6.04564e-07 0)
(0.0999967 -1.15594e-06 0)
(0.0999947 -2.19523e-06 0)
(0.0999926 -2.96453e-06 0)
(0.0999897 -4.6928e-06 0)
(0.099987 -5.58495e-06 0)
(0.0999827 -8.60985e-06 0)
(0.0999796 -9.43997e-06 0)
(0.0999733 -1.52522e-05 0)
(0.0999707 -1.55932e-05 0)
(0.0999616 -2.72335e-05 0)
(0.100005 -4.25848e-07 0)
(0.100005 -1.37466e-06 0)
(0.100005 -2.35938e-06 0)
(0.100005 -3.35029e-06 0)
(0.100004 -4.30954e-06 0)
(0.100004 -5.30405e-06 0)
(0.100003 -6.32813e-06 0)
(0.100002 -7.51006e-06 0)
(0.100001 -8.71657e-06 0)
(0.0999997 -1.0179e-05 0)
(0.0999981 -1.15674e-05 0)
(0.0999958 -1.33742e-05 0)
(0.0999936 -1.48597e-05 0)
(0.09999 -1.72161e-05 0)
(0.0999873 -1.86931e-05 0)
(0.0999819 -2.2186e-05 0)
(0.099979 -2.34659e-05 0)
(0.0999705 -2.95625e-05 0)
(0.0999684 -3.02075e-05 0)
(0.0999546 -4.19451e-05 0)
(0.100006 3.99956e-07 0)
(0.100005 1.19619e-06 0)
(0.100005 1.98849e-06 0)
(0.100004 2.74315e-06 0)
(0.100003 3.4701e-06 0)
(0.100003 4.13151e-06 0)
(0.100002 4.77255e-06 0)
(0.100001 5.31833e-06 0)
(0.1 5.86093e-06 0)
(0.0999985 6.2492e-06 0)
(0.0999968 6.70044e-06 0)
(0.0999944 6.84538e-06 0)
(0.0999921 7.23163e-06 0)
(0.0999884 6.93429e-06 0)
(0.0999854 7.34148e-06 0)
(0.0999797 6.11061e-06 0)
(0.0999762 6.70495e-06 0)
(0.0999673 3.19403e-06 0)
(0.0999642 4.08761e-06 0)
(0.0999502 -5.34778e-06 0)
(0.100007 -8.88698e-07 0)
(0.100007 -2.40297e-06 0)
(0.100007 -3.60018e-06 0)
(0.100006 -4.61159e-06 0)
(0.100006 -5.56245e-06 0)
(0.100005 -6.56711e-06 0)
(0.100004 -7.59058e-06 0)
(0.100003 -8.72187e-06 0)
(0.100002 -9.86164e-06 0)
(0.1 -1.11405e-05 0)
(0.0999989 -1.22941e-05 0)
(0.0999962 -1.37021e-05 0)
(0.0999941 -1.47752e-05 0)
(0.0999898 -1.64462e-05 0)
(0.0999873 -1.72942e-05 0)
(0.0999801 -1.96323e-05 0)
(0.0999778 -1.99949e-05 0)
(0.0999652 -2.41807e-05 0)
(0.0999638 -2.37112e-05 0)
(0.0999404 -3.30916e-05 0)
)
;

boundaryField
{
    sides
    {
        type            calculated;
        value           nonuniform List<vector> 
40
(
(0.100007 0 0)
(0.100007 0 0)
(0.100007 0 0)
(0.100006 0 0)
(0.100006 0 0)
(0.100005 0 0)
(0.100004 0 0)
(0.100003 0 0)
(0.100002 0 0)
(0.1 0 0)
(0.0999989 0 0)
(0.0999962 0 0)
(0.0999941 0 0)
(0.0999898 0 0)
(0.0999873 0 0)
(0.0999801 0 0)
(0.0999778 0 0)
(0.0999652 0 0)
(0.0999638 0 0)
(0.0999404 0 0)
(0.0999932 0 0)
(0.0999931 0 0)
(0.0999933 0 0)
(0.0999937 0 0)
(0.0999942 0 0)
(0.0999948 0 0)
(0.0999956 0 0)
(0.0999967 0 0)
(0.0999978 0 0)
(0.0999995 0 0)
(0.100001 0 0)
(0.100004 0 0)
(0.100006 0 0)
(0.10001 0 0)
(0.100013 0 0)
(0.10002 0 0)
(0.100022 0 0)
(0.100035 0 0)
(0.100036 0 0)
(0.10006 0 0)
)
;
    }
    inlet
    {
        type            calculated;
        value           nonuniform List<vector> 
20
(
(0.0999932 0 0)
(0.0999944 0 0)
(0.0999949 0 0)
(0.0999957 0 0)
(0.0999963 0 0)
(0.099997 0 0)
(0.0999977 0 0)
(0.0999984 0 0)
(0.099999 0 0)
(0.0999997 0 0)
(0.1 0 0)
(0.100001 0 0)
(0.100002 0 0)
(0.100002 0 0)
(0.100003 0 0)
(0.100004 0 0)
(0.100004 0 0)
(0.100005 0 0)
(0.100006 0 0)
(0.100007 0 0)
)
;
    }
    outlet
    {
        type            calculated;
        value           nonuniform List<vector> 
20
(
(0.10006 -3.30781e-05 0)
(0.10005 -5.35926e-06 0)
(0.100046 -4.19513e-05 0)
(0.100039 -2.72384e-05 0)
(0.100033 -4.60415e-05 0)
(0.100027 -4.09839e-05 0)
(0.100021 -4.8682e-05 0)
(0.100015 -4.84695e-05 0)
(0.100009 -5.0628e-05 0)
(0.100003 -5.10964e-05 0)
(0.0999971 -5.10963e-05 0)
(0.0999911 -5.06231e-05 0)
(0.0999853 -4.8469e-05 0)
(0.0999792 -4.86681e-05 0)
(0.0999733 -4.09823e-05 0)
(0.0999671 -4.60258e-05 0)
(0.0999613 -2.72334e-05 0)
(0.0999541 -4.19449e-05 0)
(0.0999497 -5.34775e-06 0)
(0.0999396 -3.30913e-05 0)
)
;
    }
    frontAndBack
    {
        type            empty;
    }
}


// ************************************************************************* //
