/*--------------------------------*- C++ -*----------------------------------*\
  =========                 |
  \\      /  F ield         | OpenFOAM: The Open Source CFD Toolbox
   \\    /   O peration     | Website:  https://openfoam.org
    \\  /    A nd           | Version:  7
     \\/     M anipulation  |
\*---------------------------------------------------------------------------*/
FoamFile
{
    version     2.0;
    format      ascii;
    class       volScalarField;
    location    "500";
    object      epsilon;
}
// * * * * * * * * * * * * * * * * * * * * * * * * * * * * * * * * * * * * * //

dimensions      [0 2 -3 0 0 0 0];

internalField   nonuniform List<scalar> 
96800
(
0.000101647
0.000101667
0.00010162
0.000101552
0.000101449
0.000101321
0.000101191
0.000101071
0.000100974
0.000100908
0.000100878
0.000100886
0.000100938
0.000101023
0.000101141
0.000101285
0.000101455
0.000101637
0.000101824
0.000102012
0.000102219
0.000102544
0.000101751
0.000101922
0.000101898
0.000101835
0.00010173
0.000101602
0.000101469
0.000101347
0.000101248
0.000101182
0.000101153
0.000101159
0.000101205
0.000101291
0.000101408
0.000101554
0.000101724
0.000101905
0.000102085
0.000102256
0.000102417
0.000102552
0.000101827
0.000102032
0.000102031
0.000101972
0.000101867
0.000101735
0.000101596
0.000101468
0.000101365
0.000101295
0.000101262
0.000101267
0.000101311
0.000101394
0.000101511
0.000101659
0.000101826
0.000102001
0.000102167
0.000102309
0.000102406
0.000102423
0.000101927
0.000102141
0.000102149
0.000102089
0.000101978
0.000101837
0.000101689
0.000101553
0.000101442
0.000101367
0.000101331
0.000101333
0.000101375
0.000101457
0.000101574
0.00010172
0.000101884
0.000102052
0.000102205
0.000102323
0.00010238
0.000102351
0.00010203
0.000102244
0.000102251
0.000102185
0.000102063
0.00010191
0.00010175
0.000101603
0.000101484
0.000101403
0.000101362
0.000101361
0.000101401
0.000101482
0.000101599
0.000101743
0.000101904
0.000102067
0.000102212
0.000102314
0.000102352
0.000102304
0.000102132
0.000102344
0.000102343
0.000102267
0.000102132
0.000101964
0.00010179
0.000101631
0.000101503
0.000101415
0.00010137
0.000101366
0.000101405
0.000101485
0.000101601
0.000101744
0.000101903
0.000102065
0.000102206
0.000102301
0.000102329
0.000102275
0.000102238
0.000102447
0.000102436
0.000102347
0.000102196
0.000102013
0.000101823
0.000101651
0.000101514
0.000101419
0.00010137
0.000101363
0.000101401
0.00010148
0.000101595
0.000101739
0.0001019
0.000102062
0.000102202
0.000102297
0.000102323
0.000102268
0.000102356
0.00010256
0.000102539
0.000102435
0.000102268
0.000102067
0.000101862
0.000101677
0.00010153
0.000101428
0.000101375
0.000101366
0.000101402
0.00010148
0.000101597
0.000101743
0.000101907
0.000102071
0.000102215
0.000102313
0.000102343
0.00010229
0.000102494
0.000102693
0.000102661
0.000102542
0.000102358
0.00010214
0.000101919
0.000101721
0.000101563
0.000101454
0.000101395
0.000101384
0.000101418
0.000101497
0.000101616
0.000101767
0.000101937
0.000102108
0.000102258
0.000102364
0.0001024
0.000102351
0.000102662
0.000102857
0.000102814
0.000102679
0.000102478
0.000102242
0.000102005
0.000101793
0.000101623
0.000101506
0.000101443
0.000101428
0.00010146
0.00010154
0.000101663
0.000101821
0.000102
0.000102181
0.000102343
0.000102458
0.000102503
0.000102459
0.00010287
0.00010306
0.000103007
0.000102858
0.000102639
0.000102385
0.000102131
0.000101903
0.00010172
0.000101594
0.000101525
0.000101507
0.000101537
0.000101618
0.000101747
0.000101913
0.000102104
0.000102301
0.000102477
0.000102605
0.000102659
0.000102621
0.000103129
0.000103315
0.000103253
0.00010309
0.000102852
0.000102579
0.000102306
0.000102061
0.000101864
0.000101728
0.000101652
0.000101631
0.000101658
0.000101742
0.000101877
0.000102054
0.000102261
0.000102475
0.000102668
0.00010281
0.000102875
0.000102845
0.000103457
0.000103637
0.000103566
0.000103388
0.000103131
0.000102836
0.000102542
0.000102278
0.000102067
0.000101919
0.000101836
0.000101809
0.000101836
0.000101922
0.000102065
0.000102256
0.000102479
0.000102712
0.000102924
0.000103084
0.000103162
0.000103139
0.000103871
0.000104045
0.000103962
0.000103768
0.00010349
0.000103171
0.000102853
0.00010257
0.000102342
0.000102182
0.000102089
0.000102059
0.000102085
0.000102176
0.000102328
0.000102532
0.000102773
0.000103026
0.00010326
0.00010344
0.000103532
0.000103517
0.000104396
0.000104563
0.000104465
0.000104251
0.000103949
0.000103605
0.000103262
0.000102957
0.000102712
0.000102538
0.000102436
0.000102401
0.000102427
0.000102522
0.000102683
0.000102901
0.000103161
0.000103435
0.000103692
0.000103892
0.000104
0.000103993
0.00010506
0.000105218
0.000105103
0.000104866
0.000104538
0.000104165
0.000103795
0.000103466
0.000103203
0.000103013
0.000102902
0.000102864
0.000102889
0.000102988
0.000103158
0.000103391
0.000103669
0.000103965
0.000104244
0.000104463
0.000104584
0.000104587
0.000105901
0.00010605
0.000105915
0.000105652
0.000105293
0.000104888
0.000104489
0.000104135
0.00010385
0.000103644
0.000103523
0.000103481
0.000103505
0.000103608
0.000103789
0.000104036
0.000104332
0.000104649
0.000104949
0.000105184
0.000105316
0.000105326
0.000106975
0.000107111
0.000106955
0.000106661
0.000106265
0.000105823
0.000105391
0.000105007
0.000104698
0.000104475
0.000104345
0.0001043
0.000104323
0.00010443
0.000104621
0.000104883
0.000105196
0.000105534
0.000105852
0.000106099
0.000106235
0.000106248
0.000108357
0.00010848
0.000108297
0.000107965
0.000107525
0.000107039
0.000106565
0.000106146
0.000105808
0.000105568
0.000105428
0.000105379
0.000105403
0.000105516
0.000105716
0.000105991
0.000106323
0.000106681
0.000107014
0.000107267
0.000107401
0.00010741
0.000110165
0.000110271
0.000110053
0.000109674
0.000109175
0.000108631
0.000108105
0.000107641
0.000107271
0.000107009
0.000106856
0.000106804
0.000106829
0.000106948
0.000107157
0.000107446
0.000107797
0.000108171
0.000108516
0.000108771
0.000108898
0.000108901
0.000112579
0.00011266
0.000112397
0.000111955
0.000111378
0.000110754
0.000110157
0.000109635
0.000109222
0.000108931
0.000108759
0.000108699
0.000108724
0.000108846
0.000109063
0.000109366
0.000109732
0.000110118
0.000110468
0.000110722
0.00011084
0.000110838
0.000115889
0.000115935
0.000115607
0.000115077
0.000114393
0.000113658
0.000112962
0.000112361
0.000111889
0.000111553
0.000111347
0.000111268
0.000111283
0.000111397
0.000111613
0.00011192
0.00011229
0.000112679
0.000113029
0.000113276
0.000113383
0.000113376
0.000120566
0.000120559
0.000120133
0.000119476
0.000118642
0.000117753
0.00011692
0.000116209
0.000115651
0.000115246
0.000114982
0.000114853
0.000114835
0.000114915
0.0001151
0.00011538
0.000115726
0.000116094
0.000116427
0.000116655
0.000116737
0.000116716
0.000127362
0.00012727
0.000126693
0.000125854
0.000124809
0.00012371
0.000122694
0.000121837
0.000121163
0.000120659
0.000120302
0.000120076
0.000119966
0.000119953
0.000120037
0.000120214
0.000120464
0.000120751
0.000121015
0.000121179
0.000121198
0.000121141
0.000137458
0.000137232
0.000136418
0.00013531
0.000133974
0.0001326
0.000131361
0.000130339
0.000129539
0.000128923
0.000128447
0.000128075
0.000127779
0.000127548
0.000127385
0.000127296
0.000127281
0.000127324
0.000127377
0.000127353
0.000127215
0.000127066
0.000152652
0.000152215
0.00015102
0.000149509
0.000147767
0.000146054
0.000144584
0.000143442
0.000142598
0.00014196
0.000141428
0.000140911
0.000140349
0.000139718
0.000139033
0.000138331
0.00013767
0.000137087
0.000136567
0.000136053
0.000135523
0.000135142
0.000175658
0.000174882
0.000173047
0.000170888
0.000168557
0.000166428
0.000164793
0.000163743
0.000163189
0.000162927
0.000162719
0.000162337
0.000161606
0.000160432
0.000158816
0.00015686
0.000154742
0.00015265
0.000150707
0.000148957
0.000147459
0.000146509
0.000210542
0.00020919
0.000206201
0.000202913
0.00019963
0.000196937
0.000195284
0.000194836
0.000195411
0.00019664
0.000197988
0.000198865
0.000198855
0.000197497
0.000194627
0.000190396
0.000185226
0.000179687
0.000174324
0.000169541
0.000165669
0.000163326
0.000263717
0.000261308
0.000256112
0.000250698
0.000245686
0.000242019
0.000240528
0.000241468
0.000244773
0.0002499
0.000255871
0.000261386
0.000265
0.00026574
0.000262521
0.000255042
0.000244073
0.000231059
0.000217715
0.000205592
0.000195916
0.000190156
0.000346158
0.000341685
0.000332118
0.000322524
0.00031412
0.000308404
0.000306886
0.000310072
0.000318392
0.000331445
0.000347913
0.000365452
0.00038077
0.000390124
0.000391625
0.00038254
0.000362747
0.000335247
0.000304472
0.000275201
0.000251501
0.00023736
0.00047863
0.000470008
0.000451663
0.000433659
0.000418321
0.000407988
0.000405168
0.000410823
0.00042647
0.000452488
0.000487861
0.00052933
0.000570888
0.000604557
0.000622007
0.00062126
0.000594843
0.000546031
0.000483497
0.000418667
0.000363331
0.000329351
0.000703093
0.000686049
0.000650029
0.000614909
0.000585118
0.000564288
0.000556354
0.000562875
0.000586937
0.000630308
0.000692969
0.000771322
0.000856704
0.000935864
0.000993202
0.00101544
0.000999385
0.000933219
0.00082981
0.000708545
0.000594625
0.000519608
0.00110742
0.00107324
0.00100167
0.000931672
0.000871713
0.000827552
0.000804705
0.000806709
0.000837034
0.0008994
0.000994588
0.0011187
0.00126109
0.00140434
0.00152579
0.0015997
0.00161497
0.00155374
0.00141627
0.00123079
0.00103684
0.000896501
0.00187779
0.00180899
0.00166661
0.00152626
0.00140428
0.00130998
0.00125074
0.00123385
0.00126063
0.00133734
0.00146455
0.00163702
0.00184175
0.00205874
0.00226088
0.00241437
0.00248257
0.00245821
0.00230494
0.00205842
0.00177426
0.0015509
0.00340588
0.003269
0.00298923
0.00271084
0.00246501
0.00226702
0.00212746
0.00205432
0.00205172
0.00212178
0.00226599
0.00247702
0.00273866
0.00302626
0.0033099
0.00355018
0.00369827
0.00372567
0.00357881
0.0032755
0.00288812
0.00256159
0.00649246
0.00622828
0.00569512
0.0051594
0.00467809
0.00427552
0.00396613
0.00375753
0.00365418
0.0036555
0.00375944
0.00395931
0.00423772
0.00456668
0.00490732
0.00521114
0.00542632
0.00549798
0.00536843
0.00500771
0.00449663
0.00403702
0.0126892
0.012204
0.0112379
0.0102586
0.00936154
0.00858092
0.00793281
0.00742267
0.00705098
0.00681671
0.00671856
0.00675213
0.00690769
0.00716033
0.0074663
0.00776397
0.00797982
0.00804885
0.00788692
0.00744037
0.00677072
0.00613732
0.0248467
0.0240105
0.0223716
0.0206996
0.0191346
0.0177081
0.0164264
0.0152865
0.0142866
0.0134314
0.0127342
0.012213
0.011883
0.0117397
0.0117542
0.0118466
0.011909
0.0118317
0.0115025
0.0108662
0.00995791
0.00908764
0.0479074
0.0465762
0.0440031
0.0413767
0.0388523
0.0364111
0.0340164
0.0316438
0.0292982
0.0270178
0.0248704
0.0229417
0.0213162
0.0200535
0.0191602
0.0185654
0.0181109
0.0175898
0.016831
0.0157614
0.0144283
0.0132032
0.0901889
0.0882152
0.0845289
0.0808052
0.0770885
0.0731833
0.0689327
0.0642717
0.0592425
0.0539848
0.0487117
0.0436749
0.0391222
0.0352524
0.0321705
0.0298486
0.0280878
0.0265424
0.0248654
0.0229047
0.0207642
0.0189513
0.165216
0.162514
0.157865
0.153303
0.148437
0.14261
0.135391
0.126649
0.116547
0.105474
0.0939751
0.0826607
0.0721204
0.0628361
0.0551125
0.0490309
0.0443806
0.0406431
0.0371581
0.0335222
0.0298816
0.0270398
0.294583
0.29139
0.286737
0.282557
0.277294
0.269247
0.257416
0.2416
0.222266
0.200362
0.177117
0.153864
0.131857
0.112115
0.0953131
0.0817453
0.071236
0.0630754
0.0561446
0.0495097
0.0432053
0.0385565
0.512829
0.509975
0.507986
0.507413
0.504031
0.493956
0.475096
0.447226
0.411533
0.370117
0.325557
0.280543
0.237559
0.198594
0.164976
0.137369
0.115696
0.0990441
0.0856842
0.0737865
0.0629213
0.0551646
0.875067
0.874621
0.881354
0.891526
0.895209
0.884428
0.85491
0.806704
0.74256
0.666858
0.584703
0.50124
0.421116
0.348008
0.284354
0.231444
0.189397
0.157072
0.131959
0.110878
0.0923684
0.0793911
1.46937
1.47576
1.50363
1.53888
1.5602
1.5519
1.50621
1.42396
1.31115
1.17647
1.02954
0.879769
0.735469
0.603152
0.487135
0.389782
0.311584
0.251148
0.204953
0.167896
0.136652
0.115089
2.43626
2.45823
2.53083
2.61791
2.67653
2.67681
2.60676
2.46818
2.27372
2.03974
1.78362
1.52182
1.26869
1.03544
0.829597
0.65544
0.514231
0.404335
0.320903
0.256137
0.203648
0.168145
3.99875
4.05236
4.21184
4.39775
4.52799
4.54815
4.44149
4.21172
3.88356
3.4863
3.0499
2.60222
2.16735
1.76429
1.40611
1.10065
0.850853
0.655012
0.506533
0.393827
0.305743
0.24746
6.50183
6.6149
6.9325
7.29559
7.55476
7.61525
7.45518
7.08241
6.54183
5.8831
5.15575
4.40539
3.67174
2.98674
2.37319
1.84566
1.4106
1.06693
0.805853
0.610502
0.462523
0.366909
10.4687
10.6871
11.2778
11.9434
12.4243
12.5626
12.3291
11.7413
10.8745
9.80867
8.62233
7.38834
6.17134
5.02487
3.98872
3.08986
2.34202
1.74642
1.29198
0.954659
0.705484
0.548293
16.6594
17.0551
18.0963
19.2576
20.1067
20.3904
20.0687
19.1746
17.8258
16.1447
14.2518
12.2612
10.2772
8.38885
6.66498
5.1548
3.88628
2.86688
2.08412
1.50479
1.0848
0.825627
26.144
26.8267
28.583
30.5297
31.9772
32.5307
32.1304
30.8281
28.7948
26.2098
23.2536
20.1032
16.9255
13.8671
11.0449
8.5465
6.42614
4.70533
3.37348
2.3867
1.68024
1.2523
40.3607
41.4926
44.3497
47.5113
49.9189
50.9733
50.5643
48.7622
45.7928
41.9116
37.3868
32.4921
27.4929
22.6271
18.0889
14.0281
10.5448
7.68823
5.45688
3.79663
2.61619
1.91125
61.1752
62.9926
67.5066
72.5187
76.4558
78.4218
78.1793
75.8262
71.6128
65.9069
59.1078
51.638
43.9157
36.3209
29.1672
22.7018
17.0974
12.4509
8.7835
6.0354
4.0849
2.93101
90.9289
93.7719
100.737
108.528
114.86
118.394
118.651
115.743
109.901
101.663
91.6264
80.4381
68.7458
57.1427
46.1213
36.0726
27.2758
19.9013
14.0117
9.55431
6.3804
4.51078
132.476
136.827
147.352
159.231
169.186
175.233
176.482
173.02
165.037
153.327
138.784
122.38
105.087
87.7994
71.2618
56.0684
42.6473
31.2708
22.0667
15.0104
9.94466
6.95758
189.159
195.686
211.276
228.981
244.152
253.888
256.72
252.591
241.739
225.326
204.681
181.223
156.351
131.343
107.269
84.9915
65.1407
48.1283
34.1753
23.3147
15.4191
10.7344
264.677
274.274
296.876
322.551
344.772
359.417
364.278
359.135
344.362
321.682
293.034
260.428
225.781
190.809
156.947
125.373
96.9727
72.3523
51.8702
35.6618
23.6916
16.5163
362.88
376.709
408.685
444.686
475.714
496.186
503.078
496.1
475.907
445.046
406.278
362.341
315.738
268.627
222.783
179.685
140.496
106.071
76.983
53.5535
35.9434
25.2548
487.338
506.776
550.672
599.097
639.995
666.316
674.371
664.006
636.387
595.177
544.161
486.926
426.575
365.651
306.16
249.763
197.831
151.475
111.577
78.797
53.6842
38.2438
641.129
667.638
725.664
787.391
837.449
867.889
874.855
858.598
821.128
767.423
702.424
630.603
555.62
480.272
406.603
336.23
270.505
210.665
157.944
113.574
78.8658
57.2988
826.578
861.437
934.379
1007.23
1062.16
1092.02
1093.9
1068.19
1018.43
950.715
871.082
784.783
695.886
607.261
520.758
437.641
358.845
285.331
218.532
160.502
114.123
85.2841
1046.35
1090.41
1175.76
1251.17
1300.3
1320.52
1311.04
1272.02
1208.36
1126.69
1033.78
935.315
835.532
737.177
641.721
549.813
461.458
376.497
295.952
223.572
164.348
127.201
1306.01
1359.61
1447.96
1505.19
1527.89
1524.07
1494.76
1439.78
1362.79
1270.03
1168.15
1062.75
957.883
856.046
758.337
664.794
574.095
483.638
393.731
309.845
238.68
193.685
1620.8
1682.29
1747.29
1745.67
1709.1
1661.49
1603.85
1532.79
1447.36
1350.95
1248.58
1144.89
1043.28
946.436
855.364
769.909
687.597
603.309
516.647
432.69
358.635
311.63
2019.08
2074.95
2044.42
1916.39
1784.83
1682.51
1599.35
1520.27
1436.34
1346.54
1253.71
1161.48
1072.96
990.377
915.172
848.109
787.226
727.206
669.464
622.556
594.336
595.022
2506.07
2508.45
2217.81
1909.52
1684.71
1542.34
1453.2
1384.03
1316.99
1246.9
1174.74
1103.37
1035.8
974.781
922.217
880.912
852.618
837.541
848.635
925.607
1115.88
1399.61
0.177024
14.3692
17.9627
13.1666
10.2263
8.46842
7.41096
6.63609
6.04946
5.6572
5.44471
5.52134
10.1001
81.3341
204.975
328.094
433.145
513.556
568.721
601.772
617.836
621.482
616.361
604.573
589.544
573.195
556.981
541.814
527.935
514.95
502.269
489.707
477.455
465.786
454.898
444.783
435.404
426.803
419.119
412.56
407.345
403.714
401.984
402.171
403.566
406.673
411.505
417.856
425.315
433.296
441.119
448.225
454.244
459.001
462.281
463.989
464.124
462.05
458.458
454.066
449.027
443.324
436.727
428.838
419.499
409.123
398.642
388.567
379.109
370.334
362.232
354.787
348.027
341.994
336.705
332.128
328.195
324.842
322.096
320.109
319.069
319.011
319.307
319.976
321.119
322.913
325.272
328.179
331.72
336.259
342.695
350.656
358.9
365.361
368.879
370.177
371.111
372.555
374.567
377.086
379.811
382.248
384.053
385.078
385.008
383.142
380.248
381.562
408.782
665.726
2212.78
2266.1
1876.79
1545.15
1341.89
1231.87
1178.85
1142.92
1106.72
1065.62
1020.88
975.596
933.142
896.81
870.043
856.901
860.714
892.542
980.666
1216.44
1810.56
2726.1
5321.43
4160.41
3273.97
2575.67
2114.73
1811.92
1584.55
1394.5
1231.75
1094.95
981.886
890.395
819.196
765.965
726.485
696.374
672.07
651.072
632.595
615.214
597.589
578.922
559.282
539.445
520.49
503.147
487.565
473.65
461.111
449.561
438.842
429.256
420.667
412.835
405.674
399.303
393.938
389.708
386.569
384.255
382.45
381.009
379.789
378.097
375.622
371.98
367.125
361.859
356.905
352.66
349.107
346.162
343.819
342.07
341.08
341.062
341.47
342.506
344.575
347.734
351.972
357.187
363.134
369.403
375.507
380.986
385.407
388.445
390.011
390.209
388.627
385.828
382.419
378.766
375.137
371.674
368.399
365.349
362.74
360.987
360.301
360.277
360.468
361.108
362.189
363.97
366.453
369.561
373.119
376.919
380.763
384.496
387.974
391.06
393.582
395.404
396.613
397.536
398.366
399.343
400.826
403.001
406.421
412.23
422.427
441.474
483.313
594.946
937.786
2032.41
0.0117391
0.0637414
0.0676175
0.0690469
0.0818354
0.101004
0.124409
0.155823
0.19891
0.259613
0.368338
0.504262
4.53074
64.428
184.371
307.059
413.594
496.46
554.618
591.099
610.661
617.728
615.612
606.377
593.401
579.193
565.232
552.255
540.165
528.392
516.346
503.872
491.276
479.022
467.438
456.657
446.789
437.989
430.396
424.102
419.183
415.817
414.433
414.772
416.308
419.11
423.36
428.915
435.498
442.68
449.8
456.222
461.398
465.283
467.719
468.825
468.392
465.904
462.163
457.766
452.877
447.37
440.837
432.841
423.403
413.182
403.041
393.457
384.507
376.153
368.397
361.203
354.639
348.802
343.746
339.401
335.621
332.294
329.468
327.382
326.288
326.164
326.412
326.885
327.527
328.541
330.152
332.456
335.853
340.778
347.466
355.565
363.345
368.608
370.789
371.128
371.697
373.29
376.008
379.572
382.949
385.466
386.993
387.294
386.278
383.915
380.398
379.907
394.133
495.642
800.996
976.889
985.047
929.296
882.961
864.07
863.593
864.528
858.67
844.794
825.357
804.017
784.503
770.49
766.008
775.136
805.408
867.738
982.453
1216.21
1684.45
2376.01
3738.06
3785.53
3136
2543.02
2105.88
1806.8
1586.25
1405.33
1248.42
1112.37
996.881
902.065
827.889
772.733
732.391
702.204
678.384
658.416
640.609
623.742
606.61
588.344
568.837
548.829
529.58
512.227
497.104
483.861
471.958
460.999
450.821
441.308
432.479
424.317
416.812
410.089
404.334
399.614
395.923
393.094
391.001
389.44
387.818
385.504
382.466
378.347
373.221
367.724
362.586
358.281
354.819
352.005
349.762
348.027
347.016
347.073
347.58
348.929
351.207
354.451
358.658
363.796
369.701
375.909
381.915
387.154
391.255
393.956
395.257
395.337
393.745
391.041
387.794
384.353
380.95
377.716
374.733
372.124
370.063
368.624
368.075
368.135
368.56
369.458
370.817
372.584
375.249
378.619
382.475
386.563
390.605
394.38
397.763
400.714
403.215
404.988
406.065
406.839
407.571
408.46
409.682
411.549
414.847
420.794
431.312
450.996
493.283
604.856
929.931
1663.33
0.010023
0.0104877
0.010986
0.0112701
0.0115943
0.0118636
0.01219
0.0126138
0.0131706
0.0140057
0.0151556
0.0177476
0.403969
21.6606
112.867
225.98
331.756
419.025
484.41
529.398
557.688
572.919
578.1
575.713
568.012
558.541
549.172
540.64
532.495
523.783
513.775
502.398
490.2
477.905
466
454.697
444.191
434.761
426.644
419.927
414.625
410.819
408.755
408.575
409.42
411.216
414.018
417.819
422.595
428.254
434.194
439.708
444.143
447.43
449.379
450.104
449.58
447.396
444.449
441.089
437.385
433.071
427.561
420.382
411.643
402.155
392.882
384.258
376.175
368.43
360.979
353.883
347.29
341.4
336.336
332.028
328.267
324.879
321.89
319.562
318.144
317.59
317.583
317.599
317.599
317.621
317.908
318.821
321.114
325.625
332.702
341.515
349.658
354.347
354.962
353.11
351.96
353
356.221
360.538
364.534
367.225
368.352
368.087
366.138
362.947
358.817
355.097
356.113
377.639
448.987
515.467
549.141
564.022
574.15
589.768
608.99
625.179
634.267
635.983
632.185
626.399
622.311
623.687
633.911
657.848
701.998
777.253
900.534
1102.36
1411.49
1768.27
2250.02
2581.68
2543.56
2255.93
1941.09
1690.53
1499.05
1344.91
1210.25
1087.88
978.835
886.118
811.664
755.472
714.447
684.394
661.54
643.187
627.436
612.75
597.721
581.264
562.946
543.498
524.393
507.002
491.887
478.776
467.101
456.415
446.547
437.388
428.879
420.968
413.62
406.91
401.005
395.928
391.681
388.091
385.301
383.045
380.851
378.221
374.839
370.448
365.178
359.621
354.471
350.145
346.581
343.475
340.687
338.238
336.405
335.686
335.918
336.936
338.828
341.593
345.238
349.794
355.199
361.066
366.913
372.155
376.356
379.223
380.703
381.017
379.897
377.657
374.918
371.994
369.082
366.3
363.767
361.67
360.171
359.289
359.115
359.289
359.992
361.354
363.336
365.804
368.871
372.563
376.707
381.035
385.195
388.884
391.943
394.353
396.122
397.086
397.484
397.594
397.782
398.281
399.295
401.119
404.33
410.453
421.553
441.57
481.346
575.121
810.849
1223.78
0.0099873
0.0099406
0.00992923
0.00990947
0.00989511
0.00987864
0.00986137
0.00985034
0.00986057
0.00991043
0.0100687
0.0106369
0.0154422
1.82999
32.4012
112.737
203.714
287.644
356.916
409.766
447.597
472.572
486.76
492.422
492.157
488.216
483.441
478.897
474.349
468.886
461.786
452.936
442.767
432.049
421.371
410.984
401.022
391.693
383.242
375.834
369.546
364.453
360.689
358.381
357.425
357.502
358.374
360.203
363.108
367.222
372.206
377.397
382.136
386.023
388.832
390.491
391.147
390.801
389.715
388.415
386.885
384.8
381.557
376.618
370.008
362.425
354.759
347.466
340.424
333.368
326.235
319.143
312.307
305.996
300.421
295.6
291.366
287.532
284.066
281.122
278.9
277.481
276.698
276.197
275.702
275.151
274.771
274.822
275.766
278.995
285.292
294.172
303.282
309.587
311.446
309.836
306.992
306.247
307.633
310.685
313.921
316.23
317.294
317.168
315.657
313.022
309.383
304.818
300.051
301.097
323.279
365.309
399.595
417.392
423.971
431.079
443.139
456.425
466.448
471.748
473.538
474.503
477.834
486.657
504.051
533.73
581.125
654.776
765.661
923.523
1140.62
1358.66
1541.03
1699.97
1774.89
1724.61
1583.21
1429.89
1292.26
1175.56
1072.12
975.645
886.802
808.544
743.146
691.575
652.621
623.7
601.972
585.103
571.355
559.203
547.044
533.831
518.479
501.288
483.481
466.383
450.792
436.813
424.314
413.063
402.99
394.056
386.163
379.101
372.785
367.007
361.873
357.385
353.498
350.134
347.308
344.877
342.515
339.846
336.58
332.543
327.821
322.828
318.096
313.983
310.424
307.075
303.637
300.162
297.014
294.631
293.208
292.686
292.919
294
296.014
299.045
303.091
307.967
313.288
318.547
323.244
326.989
329.529
330.797
330.886
329.711
327.77
325.477
323.068
320.7
318.522
316.71
315.419
314.696
314.627
314.847
315.667
317.228
319.581
322.553
325.989
329.809
333.895
338.023
341.864
345.127
347.657
349.394
350.369
350.681
350.48
349.816
349.397
349.474
350.034
351.476
354.341
359.839
369.957
387.417
419.139
482.531
616.534
822.962
0.00998722
0.00991041
0.00983491
0.00976668
0.0097057
0.00964944
0.00960056
0.00955634
0.00952106
0.00950217
0.00952538
0.00963822
0.0100732
0.0197138
1.52376
21.4097
77.3931
142.891
205.584
259.594
303.114
336.163
359.284
373.575
380.934
383.692
384.011
383.092
381.599
379.012
374.936
369.301
362.269
354.354
346.104
337.849
329.73
321.833
314.279
307.202
300.714
294.916
289.922
285.865
282.831
280.814
279.801
279.827
280.888
283.325
287.041
291.647
296.556
301.219
305.237
308.373
310.588
312.044
313.067
313.901
314.637
315.01
314.506
312.405
308.671
303.72
298.269
292.815
287.368
281.692
275.674
269.394
263.048
256.887
251.147
245.94
241.208
236.823
232.728
228.995
225.773
223.187
221.232
219.753
218.555
217.53
216.709
216.329
216.643
218.479
223.008
230.373
239.063
246.612
251.165
251.909
249.986
247.676
247.079
247.913
249.527
250.943
251.799
252.036
251.586
250.261
248.379
245.981
243.215
243.754
258.78
291.485
319.616
330.283
329.185
328.825
334.829
344.142
351.671
355.872
358.042
360.695
366.576
378.019
397.026
426.063
468.895
531.518
622.372
748.139
900.073
1048.46
1151.27
1220.11
1262.66
1262.83
1223.01
1151.45
1068.92
987.046
908.649
834.161
765.493
704.241
650.932
606.197
570.265
542.37
520.978
504.485
491.521
480.776
470.807
460.396
448.39
434.597
419.58
404.257
389.494
375.485
362.658
351.062
340.799
331.88
324.202
317.554
311.738
306.555
302.018
298.157
294.975
292.391
290.287
288.445
286.549
284.272
281.404
277.874
273.781
269.421
265.209
261.485
258.269
255.267
252.046
248.46
244.703
241.158
238.12
235.713
233.969
232.958
232.805
233.516
235.356
238.27
242.036
246.275
250.565
254.526
257.809
260.135
261.373
261.557
260.773
259.347
257.637
255.85
254.144
252.632
251.406
250.517
249.999
249.877
250.105
250.966
252.62
255.015
257.98
261.345
264.956
268.615
272.021
274.942
277.256
278.884
279.837
280.207
280.153
279.743
279.443
279.539
280.094
281.343
283.604
287.66
294.901
307.224
328.214
364.512
430.539
528.675
0.0099824
0.00990007
0.00981744
0.00973978
0.0096685
0.00960589
0.00954109
0.00948016
0.00942608
0.00938184
0.00935332
0.00936874
0.00943731
0.0096337
0.013633
0.374762
6.68427
34.1622
75.5725
119.102
159.473
194.349
222.51
243.524
257.941
267.181
272.973
276.713
279.085
280.083
279.656
277.598
274.185
269.594
264.249
258.54
252.715
246.888
241.117
235.458
229.98
224.769
219.926
215.572
211.812
208.745
206.457
205.039
204.664
205.329
207.346
210.515
214.519
218.917
223.266
227.202
230.512
233.193
235.441
237.531
239.609
241.545
242.926
243.226
242.184
239.798
236.637
233.182
229.612
225.817
221.649
217.081
212.203
207.185
202.216
197.43
192.853
188.44
184.169
180.086
176.303
172.942
170.074
167.677
165.669
163.977
162.593
161.608
161.321
161.99
164.6
169.566
176.237
182.91
188.414
191.5
191.814
190.356
188.852
188.291
188.684
189.372
189.998
190.424
190.548
190.295
189.902
189.928
190.854
194.419
207.668
231.491
250.411
255.102
253.307
254.647
261.711
269.912
275.434
277.967
279.562
282.754
289.681
301.634
319.463
344.349
378.472
425.548
491.044
579.957
686.685
793.528
877.072
930.491
960.411
970.687
962.089
932.198
886.312
830.761
770.582
710.675
655.395
606.347
562.619
524.098
491.316
464.42
442.885
425.853
412.452
401.751
392.583
383.71
374.145
363.417
351.682
339.42
327.125
315.01
303.33
292.399
282.571
274.007
266.606
260.11
254.268
248.95
244.212
240.184
236.969
234.554
232.812
231.468
230.128
228.417
226.107
223.154
219.653
215.822
211.984
208.482
205.464
202.849
200.259
197.369
194.09
190.581
187.103
183.882
181.053
178.699
176.912
175.831
175.608
176.247
177.82
180.056
182.682
185.445
188.086
190.354
192.015
192.928
193.068
192.59
191.686
190.605
189.489
188.406
187.37
186.405
185.549
184.841
184.353
184.22
184.531
185.451
186.909
188.837
191.171
193.84
196.6
199.273
201.681
203.681
205.199
206.241
206.908
207.37
207.847
208.555
209.628
211.133
213.202
216.223
220.987
228.705
241.1
260.327
291.111
335.739
0.00998696
0.00991176
0.00982776
0.00974435
0.00966174
0.00958122
0.0095056
0.00943702
0.00937435
0.00932185
0.00928436
0.00925852
0.00925584
0.00927693
0.00932765
0.00974369
0.0298608
0.613107
5.91058
22.3291
48.9339
76.288
101.929
124.091
141.976
155.748
166.306
174.61
181.179
186.126
189.486
191.312
191.645
190.68
188.559
185.729
182.493
179.021
175.398
171.672
167.89
164.117
160.432
156.938
153.721
150.87
148.473
146.617
145.417
145.069
145.522
147.01
149.36
152.377
155.799
159.329
162.709
165.777
168.515
171.039
173.483
175.853
177.946
179.423
179.897
179.45
178.153
176.405
174.451
172.323
169.94
167.228
164.175
160.84
157.317
153.69
149.997
146.243
142.452
138.698
135.087
131.73
128.704
126.021
123.644
121.537
119.689
118.159
117.103
116.879
117.724
120.302
124.395
128.945
133.398
136.768
138.622
138.9
138.376
137.879
138.035
138.511
139.011
139.439
139.708
139.83
140.11
141.247
144.069
149.204
160.006
177.202
191.053
196.147
199.121
205.941
215.046
222.265
225.87
227.157
228.753
232.932
240.746
252.355
267.609
286.733
310.78
341.882
383.344
438.744
507.82
583.255
653.084
707.952
745.62
766.949
771.285
761.774
736.166
698.422
652.83
604.76
559.093
518
481.066
448.284
419.977
396.025
375.946
359.242
345.511
334.326
325.038
316.732
308.521
299.9
290.865
281.654
272.418
263.034
253.409
243.852
234.949
227.136
220.384
214.368
208.755
203.412
198.431
194.01
190.315
187.408
185.247
183.656
182.314
180.843
178.948
176.507
173.568
170.274
166.846
163.556
160.571
157.993
155.671
153.357
150.859
148.091
145.088
142.003
139.02
136.278
133.869
131.887
130.444
129.621
129.413
129.656
130.331
131.247
132.327
133.463
134.489
135.244
135.613
135.57
135.242
134.725
134.131
133.501
132.805
132.026
131.189
130.339
129.538
128.869
128.432
128.294
128.403
128.811
129.491
130.488
131.947
133.842
135.961
138.046
139.927
141.5
142.768
143.846
144.918
146.173
147.712
149.55
151.693
154.283
157.702
162.621
169.897
180.214
194.962
215.365
0.00998484
0.00990618
0.00982051
0.00973777
0.00965743
0.00957948
0.0095038
0.00943072
0.00936091
0.00929574
0.00923783
0.00919051
0.00915645
0.00913492
0.00912307
0.00911328
0.00910638
0.00945392
0.0187954
0.199764
1.84671
7.32255
19.4299
35.1726
50.0518
63.6965
75.8052
86.4257
95.4746
103.174
109.655
114.909
118.892
121.56
123.036
123.502
123.295
122.459
121.22
119.629
117.777
115.745
113.615
111.471
109.388
107.428
105.658
104.156
103.004
102.279
102.087
102.354
103.255
104.687
106.57
108.791
111.22
113.72
116.182
118.531
120.754
122.859
124.786
126.386
127.43
127.822
127.664
127.077
126.229
125.213
124.022
122.615
120.966
119.081
116.987
114.707
112.245
109.596
106.786
103.883
100.999
98.2265
95.6479
93.2823
91.0975
89.0657
87.1857
85.4993
84.1025
83.1635
83.0028
83.6674
85.4475
87.9053
90.5505
92.874
94.5944
95.7149
96.4381