/*--------------------------------*- C++ -*----------------------------------*\
  =========                 |
  \\      /  F ield         | OpenFOAM: The Open Source CFD Toolbox
   \\    /   O peration     | Website:  https://openfoam.org
    \\  /    A nd           | Version:  7
     \\/     M anipulation  |
\*---------------------------------------------------------------------------*/
FoamFile
{
    version     2.0;
    format      ascii;
    class       volScalarField;
    location    "500";
    object      k;
}
// * * * * * * * * * * * * * * * * * * * * * * * * * * * * * * * * * * * * * //

dimensions      [0 2 -2 0 0 0 0];

internalField   nonuniform List<scalar> 
96800
(
0.00040141
0.000401416
0.000401268
0.000401048
0.00040075
0.000400404
0.000400059
0.000399748
0.000399498
0.000399328
0.000399246
0.000399264
0.00039939
0.000399598
0.000399891
0.000400254
0.000400675
0.000401125
0.000401577
0.00040201
0.000402441
0.000403012
0.000401581
0.000401822
0.000401705
0.000401494
0.000401192
0.000400843
0.000400491
0.000400172
0.000399916
0.000399743
0.000399664
0.000399678
0.000399792
0.000400003
0.000400296
0.000400663
0.000401086
0.000401534
0.000401976
0.000402384
0.000402743
0.000403016
0.000401708
0.000402002
0.000401917
0.000401704
0.000401394
0.000401031
0.000400662
0.000400329
0.00040006
0.000399877
0.000399791
0.000399801
0.000399911
0.000400118
0.000400412
0.000400781
0.000401202
0.000401642
0.000402063
0.000402427
0.000402689
0.000402779
0.000401881
0.000402186
0.000402107
0.000401883
0.000401551
0.000401163
0.00040077
0.000400415
0.000400129
0.000399933
0.000399837
0.000399842
0.000399947
0.000400152
0.000400446
0.000400814
0.000401231
0.000401662
0.000402067
0.000402395
0.000402597
0.000402617
0.000402061
0.000402363
0.000402274
0.000402028
0.000401665
0.000401245
0.000400821
0.000400438
0.00040013
0.000399919
0.000399814
0.000399811
0.000399913
0.000400117
0.00040041
0.000400776
0.000401189
0.000401617
0.000402013
0.000402322
0.000402495
0.000402487
0.000402247
0.000402542
0.000402432
0.000402157
0.000401759
0.000401301
0.000400841
0.000400425
0.000400095
0.000399868
0.000399752
0.000399744
0.000399843
0.000400045
0.000400338
0.000400703
0.000401118
0.000401548
0.000401944
0.000402246
0.000402409
0.000402393
0.000402452
0.000402736
0.0004026
0.000402291
0.000401855
0.000401356
0.000400857
0.000400411
0.000400057
0.000399814
0.000399687
0.000399673
0.00039977
0.000399971
0.000400264
0.000400635
0.000401057
0.000401493
0.000401894
0.000402202
0.000402368
0.000402353
0.000402689
0.00040296
0.000402798
0.000402454
0.000401977
0.000401435
0.000400899
0.000400423
0.000400045
0.000399784
0.000399646
0.000399627
0.000399721
0.000399922
0.000400221
0.000400601
0.000401034
0.00040148
0.000401894
0.000402215
0.000402393
0.000402387
0.000402976
0.000403236
0.000403047
0.000402667
0.000402148
0.000401566
0.000400992
0.000400485
0.000400082
0.000399803
0.000399654
0.000399627
0.000399719
0.000399923
0.00040023
0.000400622
0.000401072
0.000401538
0.000401972
0.000402314
0.00040251
0.000402517
0.000403334
0.000403582
0.000403369
0.000402951
0.000402392
0.00040177
0.000401158
0.000400617
0.000400187
0.000399889
0.000399728
0.000399695
0.000399783
0.000399991
0.000400309
0.00040072
0.000401194
0.000401689
0.000402153
0.000402521
0.000402738
0.000402758
0.000403779
0.000404018
0.000403781
0.00040333
0.000402731
0.000402067
0.000401416
0.00040084
0.000400381
0.000400062
0.000399888
0.000399846
0.000399931
0.000400144
0.000400477
0.000400912
0.000401418
0.000401951
0.000402451
0.000402852
0.000403095
0.000403131
0.000404335
0.000404563
0.000404306
0.000403824
0.000403185
0.000402476
0.000401784
0.000401171
0.000400681
0.000400339
0.000400151
0.000400101
0.000400183
0.000400404
0.000400756
0.00040122
0.000401765
0.000402342
0.000402886
0.000403324
0.000403596
0.000403651
0.000405028
0.000405244
0.000404967
0.000404454
0.000403772
0.000403018
0.000402282
0.00040163
0.000401109
0.000400745
0.00040054
0.00040048
0.000400563
0.000400795
0.00040117
0.000401668
0.000402257
0.000402882
0.000403476
0.000403959
0.000404264
0.000404339
0.000405884
0.000406087
0.000405786
0.00040524
0.000404517
0.000403716
0.000402933
0.000402241
0.000401691
0.000401304
0.000401082
0.000401016
0.000401103
0.000401352
0.000401752
0.000402288
0.000402923
0.000403601
0.00040425
0.000404783
0.000405125
0.00040522
0.000406931
0.000407119
0.000406791
0.000406208
0.000405442
0.000404596
0.000403768
0.000403039
0.000402461
0.000402053
0.00040182
0.000401753
0.000401848
0.000402114
0.000402542
0.000403118
0.000403803
0.000404537
0.000405244
0.00040583
0.00040621
0.000406328
0.000408192
0.000408364
0.000408008
0.000407387
0.000406578
0.000405688
0.000404821
0.000404061
0.00040346
0.000403038
0.000402801
0.000402739
0.000402846
0.000403133
0.000403596
0.000404215
0.000404952
0.000405744
0.000406509
0.000407144
0.000407561
0.000407704
0.000409697
0.000409851
0.000409467
0.00040881
0.00040796
0.00040703
0.000406131
0.00040535
0.000404736
0.00040431
0.000404081
0.000404033
0.000404161
0.000404479
0.000404983
0.000405651
0.000406441
0.000407291
0.000408112
0.000408793
0.000409242
0.000409407
0.000411477
0.000411614
0.000411204
0.000410512
0.000409624
0.000408661
0.000407741
0.00040695
0.000406337
0.000405926
0.000405724
0.000405705
0.000405869
0.000406232
0.000406788
0.000407511
0.000408361
0.000409274
0.00041015
0.000410869
0.000411337
0.000411514
0.000413584
0.000413704
0.00041327
0.000412545
0.000411619
0.000410631
0.0004097
0.000408913
0.000408322
0.000407953
0.000407804
0.000407836
0.000408064
0.000408493
0.000409115
0.000409907
0.000410829
0.000411812
0.000412743
0.000413494
0.00041397
0.000414149
0.000416119
0.000416216
0.000415757
0.000414997
0.000414032
0.000413017
0.000412084
0.000411318
0.000410775
0.000410481
0.00041041
0.000410531
0.000410856
0.000411382
0.000412097
0.000412981
0.000413994
0.000415055
0.000416044
0.000416826
0.000417307
0.000417488
0.000419278
0.000419343
0.000418853
0.000418049
0.000417031
0.000415979
0.00041504
0.000414309
0.000413841
0.000413651
0.000413684
0.000413936
0.000414399
0.000415059
0.000415904
0.000416916
0.000418044
0.000419198
0.000420254
0.000421075
0.00042157
0.000421761
0.00042346
0.000423476
0.000422935
0.000422059
0.000420956
0.000419834
0.000418869
0.000418169
0.000417787
0.000417706
0.000417879
0.000418294
0.000418929
0.000419761
0.000420776
0.000421951
0.000423222
0.000424492
0.000425637
0.000426516
0.00042704
0.000427252
0.000429404
0.000429339
0.000428701
0.000427699
0.000426446
0.00042519
0.000424145
0.000423439
0.000423119
0.000423134
0.00042345
0.000424035
0.000424853
0.000425875
0.000427081
0.000428436
0.000429869
0.000431281
0.000432544
0.000433505
0.00043407
0.000434309
0.000438375
0.000438172
0.000437353
0.000436126
0.000434613
0.00043311
0.000431887
0.00043109
0.000430759
0.00043082
0.000431228
0.000431936
0.000432894
0.000434065
0.000435424
0.000436928
0.000438507
0.000440061
0.00044145
0.000442497
0.0004431
0.000443364
0.000452374
0.000451948
0.000450805
0.000449191
0.000447238
0.000445319
0.000443766
0.000442746
0.00044228
0.000442285
0.000442674
0.00044338
0.000444341
0.000445514
0.000446874
0.000448386
0.00044999
0.000451594
0.000453038
0.000454116
0.000454713
0.000454976
0.00047433
0.000473557
0.000471853
0.000469585
0.000466917
0.000464332
0.000462242
0.000460836
0.000460104
0.000459929
0.000460165
0.000460688
0.000461407
0.000462281
0.000463301
0.00046446
0.00046575
0.000467102
0.00046835
0.00046926
0.000469704
0.000469879
0.000508309
0.000507
0.000504332
0.000500956
0.000497124
0.000493483
0.000490572
0.00048862
0.000487577
0.00048721
0.00048727
0.000487501
0.000487723
0.000487873
0.000487963
0.000488073
0.000488307
0.000488694
0.000489115
0.000489344
0.000489252
0.000489121
0.000559693
0.000557546
0.000553203
0.00054793
0.000542162
0.000536807
0.00053262
0.000529931
0.00052865
0.000528407
0.000528697
0.000528952
0.000528793
0.000527929
0.000526375
0.000524346
0.00052217
0.000520138
0.000518356
0.000516733
0.000515217
0.000514265
0.000635839
0.000632316
0.000625037
0.000616501
0.00060747
0.000599237
0.00059291
0.000589038
0.000587588
0.000588179
0.000589852
0.000591464
0.0005921
0.000590997
0.000587623
0.000582267
0.000575607
0.000568511
0.000561735
0.000555739
0.000550854
0.00054795
0.000747545
0.00074169
0.000729296
0.00071519
0.000700688
0.000687595
0.000677487
0.000671271
0.000669364
0.000671455
0.00067637
0.00068227
0.000686925
0.000688479
0.00068549
0.000676839
0.000663495
0.000647256
0.000630354
0.000614868
0.000602447
0.000595101
0.000912278
0.000902449
0.000881304
0.000857796
0.000834191
0.00081296
0.000796254
0.000785494
0.000781825
0.000785357
0.000795279
0.000809334
0.000823772
0.000834011
0.000836791
0.000829046
0.00080904
0.000779642
0.000745242
0.000711281
0.000683051
0.000665985
0.00115975
0.00114324
0.00110745
0.00106825
0.00102955
0.000994791
0.000966927
0.000948055
0.000940043
0.000943815
0.000959304
0.000984419
0.00101418
0.0010412
0.00105721
0.00105844
0.00103735
0.000995066
0.000937808
0.000875011
0.000818487
0.000782249
0.00154113
0.00151357
0.00145385
0.00138888
0.00132534
0.00126822
0.00122176
0.00118894
0.00117222
0.00117374
0.00119338
0.00122939
0.00127595
0.00132356
0.00136051
0.00137586
0.00136435
0.00131574
0.0012375
0.00114173
0.00104698
0.000980832
0.00214342
0.00209808
0.00200036
0.00189414
0.00179056
0.00169707
0.0016198
0.00156304
0.00152966
0.001523
0.00154179
0.00158394
0.00164249
0.00170684
0.00176354
0.0017973
0.00180028
0.00175427
0.00166193
0.00153628
0.00140148
0.00129992
0.00311055
0.00303774
0.00288224
0.00271269
0.002547
0.00239612
0.00226857
0.00217038
0.00210509
0.00207514
0.00208
0.00211554
0.00217365
0.00224223
0.00230745
0.00235298
0.00236588
0.00232646
0.00222578
0.00207432
0.00190021
0.00176126
0.00467061
0.00455779
0.00431975
0.00405893
0.00380227
0.00356494
0.00335801
0.00318883
0.00306176
0.00297843
0.00293813
0.00293748
0.00296769
0.00301642
0.00306738
0.0031027
0.00311032
0.00306506
0.00295316
0.00277574
0.00256055
0.00238088
0.00716208
0.00699531
0.00664861
0.00626669
0.00588667
0.00552726
0.00520083
0.004915
0.00467431
0.00448118
0.00433647
0.00423891
0.00418378
0.00416113
0.00415485
0.00414517
0.00411097
0.00403102
0.00388718
0.00367235
0.00340872
0.00318223
0.0110636
0.0108301
0.0103532
0.00982523
0.00929182
0.00877141
0.00827418
0.00780583
0.00737084
0.00697416
0.00662213
0.00632155
0.00607718
0.00588788
0.00574257
0.0056193
0.00548899
0.00532346
0.00510234
0.00481732
0.00448537
0.00420077
0.0170172
0.0167103
0.0160931
0.0154077
0.0147005
0.0139808
0.01325
0.0125087
0.011762
0.011021
0.0103037
0.00963248
0.00903052
0.00851467
0.00808775
0.00773286
0.00741297
0.00708326
0.00671237
0.00629435
0.0058509
0.00548567
0.025881
0.025498
0.0247507
0.0239209
0.0230372
0.0220835
0.0210425
0.0199065
0.0186832
0.0173965
0.016085
0.0147978
0.0135876
0.0125011
0.0115672
0.0107859
0.01012
0.00950383
0.00887802
0.0082293
0.00759668
0.00710811
0.0387728
0.0383199
0.037488
0.0365662
0.0355323
0.034318
0.0328728
0.0311779
0.0292495
0.0271351
0.0249082
0.0226593
0.0204859
0.0184791
0.0167076
0.0152037
0.0139441
0.012848
0.0118137
0.0107966
0.00985441
0.00916961
0.0571485
0.0566605
0.0558454
0.0549464
0.0538347
0.0523474
0.050381
0.0479044
0.0449541
0.0416198
0.0380305
0.0343401
0.0307115
0.0272988
0.0242265
0.0215748
0.0193526
0.0174786
0.0158058
0.0142289
0.0128071
0.0118139
0.0829534
0.0824951
0.0818841
0.081219
0.0801733
0.0784245
0.0757883
0.0722251
0.0678128
0.0627126
0.0571412
0.0513466
0.0455865
0.0401015
0.0350914
0.0307013
0.0269905
0.0238981
0.021242
0.0188342
0.0167008
0.0152391
0.118809
0.118495
0.118409
0.118334
0.117606
0.115643
0.112144
0.107072
0.100583
0.0929581
0.0845469
0.075736
0.0669155
0.0584453
0.0506239
0.0436813
0.0377468
0.0328035
0.028655
0.0250224
0.0218616
0.0197116
0.168302
0.168323
0.169285
0.170375
0.170358
0.168283
0.163659
0.156492
0.147076
0.135878
0.123449
0.11037
0.0972142
0.0845026
0.0726647
0.0620421
0.0528578
0.0451659
0.0387845
0.0333522
0.0287224
0.0255893
0.236381
0.23704
0.23986
0.242992
0.24428
0.242247
0.236148
0.226086
0.212584
0.196391
0.178342
0.159288
0.140048
0.121357
0.103824
0.087943
0.0740657
0.0623507
0.0526673
0.0445943
0.0378635
0.0333508
0.329898
0.331652
0.337524
0.343967
0.347427
0.345645
0.337622
0.323612
0.304495
0.281416
0.255599
0.228254
0.200526
0.173443
0.14786
0.124491
0.103871
0.086313
0.0717829
0.0598382
0.0500901
0.043629
0.458051
0.461554
0.472155
0.483666
0.490501
0.489279
0.478819
0.459552
0.432878
0.400474
0.364065
0.325327
0.285839
0.24703
0.210111
0.176113
0.145844
0.119842
0.0982367
0.0806226
0.0665184
0.0572978
0.633033
0.639191
0.65679
0.675732
0.687581
0.687453
0.674043
0.647992
0.611399
0.566599
0.515946
0.46171
0.406054
0.350965
0.298161
0.249141
0.205118
0.166964
0.135072
0.109163
0.0887347
0.0755753
0.870154
0.880168
0.90773
0.937202
0.956318
0.958212
0.941515
0.907062
0.857811
0.796874
0.72736
0.652309
0.574667
0.497199
0.422345
0.352275
0.288796
0.233283
0.186541
0.148559
0.118941
0.100125
1.1882
1.20365
1.24497
1.28901
1.31855
1.32413
1.30431
1.25998
1.19504
1.11348
1.01934
0.916648
0.809445
0.701563
0.596444
0.497203
0.406498
0.32645
0.258493
0.203097
0.160188
0.133245
1.60902
1.63193
1.69185
1.75578
1.80033
1.81271
1.79082
1.7356
1.65174
1.5442
1.41821
1.2792
1.13269
0.983992
0.837909
0.698842
0.570624
0.456435
0.358643
0.278499
0.216586
0.178047
2.15719
2.19025
2.27503
2.36606
2.43228
2.45655
2.43522
2.36879
2.26249
2.12249
1.95565
1.76934
1.57115
1.36843
1.16783
0.975421
0.796568
0.635855
0.496951
0.382295
0.29364
0.238745
2.85956
2.90628
3.02412
3.15201
3.24933
3.29306
3.27638
3.19891
3.06605
2.88563
2.66681
2.41964
2.15456
1.88166
1.61002
1.34787
1.10244
0.880003
0.685883
0.524215
0.398672
0.321066
3.74435
3.80938
3.97088
4.1483
4.28891
4.36172
4.35452
4.26613
4.10134
3.87066
3.5865
3.26253
2.91284
2.55105
2.18933
1.83857
1.50819
1.20636
0.940327
0.716414
0.541229
0.432723
4.8393
4.92865
5.14704
5.38939
5.58743
5.69957
5.70649
5.60573
5.40163
5.10868
4.74384
4.32547
3.87212
3.40148
2.92927
2.4695
2.03415
1.63352
1.27688
0.97321
0.733212
0.583786
6.16814
6.28928
6.58034
6.90475
7.17457
7.3351
7.35856
7.24108
6.98757
6.61817
6.15599
5.62523
5.04958
4.45098
3.84869
3.2599
2.69939
2.17984
1.71281
1.31036
0.988609
0.786818
7.74651
7.90847
8.28953
8.71266
9.06602
9.28009
9.31837
9.17588
8.8599
8.39818
7.82175
7.1619
6.44789
5.70574
4.95763
4.22325
3.5198
2.86241
2.2654
1.74465
1.32329
1.05695
9.57462
9.78701
10.2743
10.8084
11.2501
11.5157
11.5612
11.381
10.9872
10.4171
9.71134
8.90945
8.04654
7.1522
6.2503
5.36152
4.50404
3.69467
2.95071
2.29314
1.75456
1.41181
11.6335
11.9049
12.509
13.1549
13.6767
13.9805
14.0184
13.784
13.2969
12.6052
11.7603
10.8107
9.7974
8.75299
7.70151
6.66227
5.65167
4.68582
3.7842
2.97445
2.30288
1.87407
13.8784
14.2137
14.9308
15.666
16.2364
16.5495
16.5576
16.2517
15.6603
14.8417
13.8584
12.7677
11.6166
10.4396
9.25973
8.09248
6.94845
5.83817
4.78015
3.80982
2.99565
2.47903
16.2445
16.6422
17.4409
18.1999
18.7503
19.023
18.9737
18.5837
17.8886
16.9531
15.8493
14.6423
13.3842
12.1115
10.8454
9.59615
8.3643
7.14651
5.95364
4.83704
3.88943
3.28929
18.6594
19.1096
19.9086
20.551
20.9602
21.1201
20.9846
20.5132
19.7355
18.7164
17.5334
16.2575
14.9449
13.634
12.3459
11.0866
9.84412
8.59101
7.33053
6.12766
5.09078
4.43904
21.0809
21.5529
22.166
22.4443
22.5367
22.4919
22.2488
21.7281
20.9223
19.8831
18.6894
17.4152
16.1204
14.8465
13.6172
12.4393
11.2915
10.1268
8.9469
7.81454
6.83763
6.24046
23.5023
23.8833
23.8765
23.4082
23.0107
22.73
22.4175
21.9185
21.1732
20.2108
19.1025
17.9226
16.7339
15.5806
14.495
13.4942
12.5646
11.6649
10.8257
10.1489
9.73299
9.66627
25.7105
25.721
24.2907
22.8438
21.9528
21.5274
21.2829
20.9395
20.3754
19.597
18.669
17.6673
16.6592
15.6975
14.8245
14.0765
13.4716
13.0253
12.8728
13.3054
14.5888
16.3756
0.00381634
0.130397
0.08483
0.0519012
0.0349913
0.0299717
0.0283392
0.0273385
0.0270391
0.027251
0.0295668
0.0348247
0.384147
3.83621
7.36091
9.89828
11.5899
12.6191
13.1512
13.3315
13.2841
13.0704
12.7729
12.4307
12.0709
11.7162
11.3838
11.0828
10.8131
10.5669
10.335
10.1145
9.90783
9.71832
9.5478
9.39525
9.25954
9.14097
9.04171
8.96555
8.91729
8.90161
8.91355
8.96205
9.05329
9.18504
9.3499
9.53678
9.73215
9.92105
10.0895
10.228
10.3322
10.4007
10.4328
10.4287
10.3821
10.3049
10.2068
10.0964
9.9768
9.8482
9.70734
9.54949
9.37459
9.19145
9.01461
8.85168
8.70513
8.57465
8.4585
8.35475
8.26237
8.18088
8.10978
8.04814
7.99482
7.94923
7.91279
7.88945
7.88346
7.88951
7.90994
7.94719
7.99944
8.06419
8.13889
8.22238
8.31665
8.42953
8.57416
8.74052
8.9026
9.02456
9.09058
9.11761
9.13594
9.15844
9.18812
9.22122
9.25047
9.2671
9.26583
9.23674
9.1811
9.10389
9.02161
9.01964
9.38662
12.0416
22.6913
23.2838
21.3345
19.7379
18.976
18.7979
18.8683
18.8398
18.5695
18.0632
17.3904
16.632
15.8618
15.1417
14.5246
14.0553
13.7872
13.8139
14.3497
16.0012
19.6431
24.2413
33.9939
29.1303
25.0613
21.6137
19.1975
17.5317
16.2316
15.112
14.1453
13.3608
12.7836
12.4303
12.297
12.3125
12.3978
12.4874
12.5326
12.5128
12.4243
12.2803
12.0793
11.8249
11.5312
11.2194
10.9126
10.6265
10.3667
10.1334
9.92302
9.73055
9.55458
9.3992
9.26316
9.14439
9.04314
8.96183
8.90279
8.86523
8.84425
8.83137
8.81828
8.8014
8.77883
8.74211
8.68687
8.61124
8.52085
8.43229
8.35928
8.30857
8.27922
8.268
8.26806
8.27135
8.27956
8.29848
8.33015
8.37908
8.44869
8.54034
8.65209
8.77813
8.90912
9.03397
9.14219
9.22553
9.27785
9.29561
9.27943
9.2275
9.15273
9.06549
8.97397
8.88495
8.80319
8.73133
8.67058
8.62307
8.59401
8.5889
8.59728
8.61861
8.65364
8.70307
8.76596
8.83876
8.91672
8.99553
9.07141
9.14103
9.20222
9.25408
9.29625
9.32845
9.3505
9.36389
9.3715
9.37766
9.38586
9.40281
9.43561
9.48848
9.57202
9.70802
9.93611
10.3439
11.1429
12.8124
16.4635
24.6376
0.00159789
0.00337863
0.003438
0.00326406
0.00361702
0.00418452
0.00480137
0.00568242
0.00675749
0.00826534
0.0115719
0.0152124
0.246629
3.25382
6.78231
9.38825
11.1586
12.2628
12.8641
13.1088
13.1162
12.9561
12.6994
12.3902
12.0591
11.7321
11.4277
11.153
10.904
10.6709
10.445
10.224
10.0119
9.8144
9.63488
9.474
9.33233
9.21135
9.11296
9.03923
8.99307
8.97929
8.99169
9.03819
9.12481
9.24835
9.40134
9.57464
9.75731
9.93646
10.0977
10.23
10.3283
10.3902
10.4168
10.4068
10.359
10.2809
10.1844
10.0773
9.96269
9.8391
9.70098
9.54339
9.36875
9.18877
9.01713
8.86092
8.72083
8.59533
8.48299
8.38186
8.29159
8.21253
8.14459
8.08618
8.03497
7.98965
7.95181
7.92619
7.91856
7.92404
7.93921
7.96987
8.01267
8.06587
8.12943
8.20477
8.29738
8.41596
8.56452
8.73317
8.88896
8.99455
9.04029
9.05373
9.06696
9.09536
9.1399
9.18886
9.22738
9.2459
9.23792
9.1983
9.13291
9.04844
8.95955
8.93151
9.14005
10.3849
13.1147
14.5115
14.7907
14.7514
14.8881
15.2967
15.7719
16.0768
16.1138
15.8946
15.487
14.9828
14.4602
13.9859
13.6186
13.4168
13.4396
13.7789
14.6101
16.3101
19.2171
22.8025
28.415
27.9208
24.5944
21.5416
19.2003
17.5379
16.2686
15.1957
14.2523
13.4528
12.8338
12.428
12.2449
12.2358
12.3086
12.4035
12.4664
12.4709
12.4079
12.2809
12.0969
11.8569
11.5724
11.2646
10.9589
10.6763
10.4245
10.2009
9.99918
9.81465
9.64559
9.49116
9.35221
9.22932
9.12345
9.03701
8.97201
8.92716
8.89857
8.87951
8.8641
8.8449
8.81668
8.77531
8.71545
8.63575
8.54301
8.45159
8.37552
8.32279
8.29333
8.28299
8.28124
8.28434
8.2939
8.31376
8.3439
8.39431
8.46434
8.55521
8.66537
8.78957
8.91905
9.04302
9.15064
9.2327
9.28492
9.29921
9.28149
9.23209
9.15636
9.07144
8.98301
8.89707
8.81781
8.74784
8.6895
8.64623
8.62303
8.62106
8.63007
8.64909
8.68551
8.73698
8.80198
8.87723
8.95836
9.04127
9.12185
9.19593
9.26004
9.31247
9.35313
9.38276
9.40257
9.41497
9.42044
9.42438
9.43139
9.44525
9.47195
9.52181
9.60459
9.74157
9.97106
10.3807
11.1763
12.8432
16.3529
22.1053
0.00100189
0.00103595
0.00107369
0.00109363
0.0011167
0.00113665
0.00115935
0.00118573
0.0012169
0.00126263
0.00134702
0.00157983
0.0341941
1.38138
4.7501
7.51636
9.51414
10.8501
11.6662
12.1013
12.2719
12.2611
12.118
11.8981
11.6397
11.3764
11.1313
10.9114
10.7087
10.5095
10.304
10.0916
9.87957
9.67705
9.48937
9.31814
9.1649
9.03254
8.92367
8.83969
8.78191
8.75328
8.75361
8.78037
8.84219
8.93552
9.05444
9.19357
9.34686
9.50617
9.65705
9.78593
9.88493
9.95041
9.98215
9.98113
9.94428
9.88241
9.80563
9.72022
9.628
9.52549
9.40519
9.26149
9.09807
8.92866
8.76811
8.62286
8.49123
8.36987
8.2573
8.15333
8.05909
7.97651
7.90646
7.8471
7.79492
7.74744
7.70564
7.67403
7.65797
7.65724
7.66566
7.6837
7.70841
7.7393
7.77869
7.83125
7.90734
8.02083
8.17664
8.35758
8.52032
8.62011
8.64707
8.63456
8.62861
8.65114
8.70507
8.76892
8.81957
8.84336
8.83486
8.79004
8.72089
8.63163
8.53123
8.4484
8.46325
8.79882
9.66916
10.411
10.8718
11.2348
11.6648
12.2542
12.8763
13.3462
13.5675
13.5507
13.3463
13.0461
12.7288
12.4645
12.3065
12.3089
12.535
13.0845
14.0638
15.6094
17.6671
19.6169
21.7544
22.8386
22.2034
20.3871
18.5291
17.0421
15.8775
14.911
14.0445
13.2585
12.5948
12.1058
11.8234
11.7381
11.7699
11.8581
11.9447
11.9942
11.9896
11.9198
11.7879
11.593
11.3418
11.0551
10.7616
10.4856
10.2385
10.0191
9.82136
9.64047
9.47484
9.32375
9.18708
9.06477
8.95725
8.86625
8.79388
8.73909
8.69913
8.66835
8.64469
8.62108
8.59069
8.54744
8.48634
8.40605
8.31254
8.21889
8.13868
8.07969
8.04105
8.01653
7.99933
7.98874
7.98811
7.99832
8.02316
8.06441
8.12356
8.20168
8.29838
8.41058
8.53185
8.65286
8.76271
8.85095
8.91005
8.93664
8.93127
8.89163
8.82932
8.75468
8.67529
8.59684
8.52319
8.45703
8.40136
8.36042
8.33841
8.3359
8.34355
8.36445
8.40143
8.45461
8.52242
8.60116
8.6866
8.77483
8.86163
8.94196
9.01068
9.06448
9.10277
9.12678
9.1386
9.14117
9.13556
9.13
9.13072
9.13941
9.16257
9.20697
9.28537
9.42055
9.65019
10.0482
10.7872
12.2437
14.9957
18.5795
0.000999511
0.000997687
0.000998219
0.000998535
0.000998918
0.000999248
0.000999496
0.0010006
0.00100284
0.00100796
0.00102087
0.00106073
0.00141658
0.138805
1.92495
4.55613
6.72158
8.31918
9.41743
10.1212
10.5321
10.727
10.7618
10.682
10.5316
10.3539
10.1779
10.016
9.86311
9.70625
9.5362
9.35239
9.16125
8.97292
8.79437
8.62783
8.47411
8.33519
8.21374
8.11166
8.03037
7.97174
7.93777
7.92968
7.94632
7.99168
8.06198
8.15509
8.2693
8.40134
8.54054
8.67269
8.78576
8.87257
8.92997
8.95726
8.95608
8.93012
8.8908
8.84428
8.79115
8.72674
8.64285
8.53316
8.40011
8.25592
8.11488
7.98392
7.86119
7.74268
7.62715
7.51573
7.41094
7.3161
7.23357
7.16271
7.10029
7.04321
6.99126
6.94758
6.91659
6.90013
6.89543
6.89788
6.90577
6.91792
6.93621
6.96544
7.01768
7.11092
7.25752
7.445
7.62894
7.75769
7.80679
7.79484
7.76428
7.76215
7.79359
7.84613
7.89375
7.91927
7.91827
7.88681
7.83156
7.75748
7.66728
7.56734
7.48396
7.52514
7.92322
8.56276
9.07252
9.39498
9.67834
10.104
10.6398
11.1066
11.3802
11.4454
11.3574
11.1852
11.0117
10.8959
10.8846
11.0188
11.3609
11.9777
12.9342
14.2326
15.8214
17.1337
17.9431
18.47
18.5051
17.8826
16.8287
15.7638
14.8085
13.9783
13.2175
12.5011
11.8615
11.346
10.99
10.8048
10.7637
10.8011
10.8761
10.9462
10.9863
10.9803
10.9124
10.7837
10.5914
10.3499
10.0845
9.82009
9.57191
9.34437
9.13756
8.94966
8.78076
8.63102
8.49964
8.38437
8.28456
8.19831
8.12737
8.07127
8.02798
7.99427
7.96752
7.94288
7.9137
7.87316
7.81665
7.74309
7.65692
7.56799
7.48747
7.42277
7.3734
7.3335
7.29673
7.26262
7.23562
7.22055
7.21945
7.23177
7.26027
7.30639
7.37129
7.455
7.55468
7.66379
7.77263
7.87036
7.94767
7.99846
8.01972
8.01094
7.97351
7.9187
7.85415
7.78629
7.71984
7.65818
7.60459
7.56281
7.53633
7.52651
7.52873
7.54296
7.57376
7.62182
7.68682
7.76442
7.84963
7.93814
8.02568
8.10702
8.17648
8.2301
8.26671
8.28705
8.29382
8.28966
8.27614
8.26235
8.25598
8.25931
8.27629
8.31328
8.38096
8.50105
8.70795
9.05277
9.65357
10.7258
12.527
14.6333
0.000999349
0.000995433
0.000991761
0.000988475
0.000985629
0.000983094
0.000980896
0.000979096
0.000977974
0.000978455
0.000981735
0.000990528
0.00100882
0.00185997
0.11888
1.34326
3.33109
5.04451
6.3759
7.34934
8.0281
8.47185
8.7267
8.83383
8.83658
8.77428
8.68539
8.59042
8.49253
8.38549
8.26369
8.12714
7.97888
7.82643
7.67689
7.53386
7.3982
7.27031
7.1513
7.04271
6.94618
6.86353
6.79697
6.74886
6.72136
6.71615
6.73313
6.77549
6.84335
6.93698
7.05139
7.17607
7.29818
7.40673
7.49438
7.5573
7.59522
7.61219
7.61538
7.6118
7.60242
7.58294
7.54539
7.48212
7.39265
7.28567
7.17367
7.06483
6.95927
6.85338
6.74542
6.63649
6.52927
6.42734
6.33389
6.24992
6.17378
6.10288
6.03622
5.97545
5.92387
5.88416
5.85639
5.8384
5.82781
5.82351
5.82579
5.83821
5.86936
5.9355
6.05363
6.22296
6.41037
6.56864
6.66528
6.68934
6.66797
6.64009
6.63904
6.66192
6.69316
6.71511
6.72128
6.71034
6.67983
6.6348
6.5786
6.51504
6.457
6.48114
6.79205
7.35539
7.80382
8.01447
8.16515
8.48643
8.96661
9.41245
9.68768
9.77613
9.73802
9.6413
9.56224
9.54736
9.62404
9.82811
10.193
10.77
11.6151
12.73
13.9405
14.9368
15.4373
15.6228
15.6014
15.3739
14.8881
14.2468
13.548
12.8519
12.1707
11.5177
10.9268
10.4273
10.0344
9.76055
9.60731
9.55524
9.56565
9.60722
9.65126
9.67525
9.66141
9.59263
9.46584
9.28649
9.07048
8.8378
8.60558
8.38031
8.17011
7.97733
7.80487
7.65392
7.52356
7.41105
7.31379
7.22947
7.15887
7.10264
7.06042
7.0299
7.0076
6.98809
6.96432
6.9296
6.87988
6.81454
6.73692
6.65419
6.57547
6.50809
6.45322
6.40627
6.35987
6.31108
6.26251
6.21954
6.18607
6.16408
6.15458
6.15912
6.18121
6.2229
6.28506
6.36495
6.45559
6.54749
6.63121
6.69924
6.74579
6.76692
6.76254
6.73503
6.69189
6.64006
6.58532
6.5319
6.48315
6.44167
6.40971
6.3886
6.37798
6.37723
6.38874
6.4166
6.46199
6.52282
6.59463
6.67278
6.75288
6.82999
6.89818
6.95357
6.99455
7.02084
7.03387
7.03582
7.02999
7.02194
7.01851
7.02341
7.04081
7.07379
7.12938
7.22302
7.38051
7.63792
8.06112
8.74944
9.81421
11.0497
0.00099907
0.000994785
0.000990534
0.00098655
0.000982917
0.000979833
0.000976626
0.000973787
0.000971365
0.000969696
0.000969447
0.000971806
0.000977812
0.000988909
0.00134132
0.0305555
0.424522
1.73672
3.06698
4.19097
5.07865
5.74977
6.23002
6.54557
6.72914
6.81911
6.85155
6.85394
6.83655
6.80326
6.75255
6.68478
6.60114
6.50541
6.40311
6.29918
6.19616
6.09482
5.99554
5.899
5.80645
5.7196
5.64065
5.57212
5.51643
5.47613
5.45355
5.4507
5.47082
5.51838
5.59204
5.68696
5.79434
5.90361
6.00512
6.09169
6.15955
6.20934
6.24567
6.27441
6.29841
6.31506
6.317
6.29863
6.25398
6.18795
6.11003
6.02909
5.9482
5.86554
5.77881
5.68766
5.59362
5.49943
5.40804
5.32123
5.23885
5.15957
5.08269
5.00916
4.94138
4.88207
4.83283
4.79346
4.76276
4.73983
4.7249
4.7201
4.72983
4.76844
4.84922
4.97953
5.14099
5.29629
5.42045
5.49028
5.50277
5.48351
5.46491
5.46323
5.47899
5.49713
5.50948
5.51202
5.50377
5.48477
5.46237
5.44771
5.45672
5.53024
5.80589
6.24652
6.57279
6.7031
6.85022
7.21976
7.73613
8.18671
8.45355
8.54564
8.53732
8.50063
8.49606
8.55016
8.6782
8.8905
9.20793
9.66485
10.3037
11.1385
12.0564
12.86
13.3683
13.585
13.596
13.4995
13.2621
12.8846
12.3909
11.8181
11.2033
10.5947
10.0415
9.56546
9.16251
8.83556
8.59344
8.43735
8.35525
8.32596
8.32777
8.33855
8.33779
8.30538
8.22892
8.10799
7.95065
7.77005
7.57843
7.3825
7.1888
7.00434
6.83642
6.68895
6.56108
6.44902
6.34896
6.25914
6.18088
6.11659
6.06789
6.03403
6.01192
5.99557
5.97695
5.94854
5.90588
5.84826
5.77815
5.70065
5.62296
5.55242
5.49242
5.44189
5.39426
5.34395
5.28953
5.23369
5.18065
5.1341
5.09644
5.06941
5.05519
5.05642
5.07654
5.11657
5.1726
5.23784
5.30448
5.36586
5.41625
5.451
5.4662
5.46241
5.44193
5.40929
5.37025
5.32923
5.2894
5.25245
5.21919
5.19056
5.16736
5.15016
5.14036
5.14061
5.1545
5.18258
5.2228
5.27268
5.32986
5.39171
5.45302
5.5103
5.56016
5.60032
5.63002
5.65003
5.66271
5.67253
5.68427
5.70227
5.72897
5.76614
5.81709
5.89064
6.00328
6.17953
6.4534
6.86507
7.46475
8.17675
0.000999322
0.000995403
0.000991037
0.00098671
0.000982417
0.000978259
0.000974407
0.000970967
0.000967906
0.000965555
0.00096417
0.000963463
0.00096478
0.00096799
0.000973454
0.00101034
0.00263161
0.0451022
0.352398
1.20861
2.11315
2.89443
3.52922
4.02011
4.37944
4.63207
4.80931
4.9381
5.03489
5.1071
5.15722
5.18524
5.191
5.17672
5.14283
5.09651
5.04088
4.97881
4.9117
4.84084
4.7677
4.69411
4.62219
4.55442
4.49301
4.44026
4.39845
4.36984
4.3567
4.36236
4.39231
4.44387
4.51352
4.59537
4.68232
4.76718
4.84423
4.91031
4.96555
5.01267
5.05431
5.0903
5.11637
5.12478
5.11467
5.08416
5.03889
4.9861
4.93044
4.87258
4.81112
4.74493
4.67403
4.59959
4.52334
4.44665
4.36987
4.29269
4.21531
4.13898
4.06589
3.99844
3.93849
3.88646
3.84181
3.80397
3.77318
3.75108
3.74177
3.75125
3.79459
3.87821
3.99537
4.11948
4.23524
4.32083
4.3683
4.37997
4.3757
4.37465
4.38754
4.40618
4.42238
4.43278
4.43425
4.43063
4.42863
4.44426
4.49838
4.6067
4.83964
5.18134
5.44315
5.59204
5.84373
6.33245
6.90471
7.35168
7.59973
7.69389
7.71989
7.74656
7.80739
7.90952
8.04839
8.2237
8.44659
8.74101
9.14007
9.66783
10.2921
10.9155
11.4246
11.7613
11.9295
11.954
11.8682
11.6431
11.2849
10.8164
10.2777
9.72554
9.21313
8.7636
8.37211
8.03843
7.7669
7.55751
7.40489
7.30101
7.23622
7.19839
7.1722
7.13942
7.08478
7.00155
6.89243
6.76481
6.62449
6.47238
6.30984
6.1447
5.989
5.85142
5.73219
5.62609
5.5277
5.43502
5.34996
5.27608
5.21618
5.17086
5.13862
5.11525
5.09387
5.06692
5.02869
4.9772
4.91379
4.84192
4.76668
4.69411
4.62807
4.57087
4.51966
4.4699
4.41818
4.36312
4.30563
4.24872
4.19599
4.15024
4.11357
4.08828
4.07659
4.08038
4.10086
4.13215
4.16869
4.20583
4.23948
4.26624
4.28285
4.28487
4.27815
4.26046
4.23548
4.20692
4.1774
4.14814
4.11893
4.08988
4.06185
4.03596
4.01351
3.9963
3.98641
3.98488
3.99238
4.00742
4.02983
4.05944
4.09857
4.14592
4.19665
4.24553
4.28942
4.32669
4.35784
4.38562
4.41397
4.44665
4.48562
4.53135
4.5846
4.64951
4.73545
4.85769
5.03477
5.28192
5.62082
6.03195
0.000999233
0.000995141
0.000990639
0.000986272
0.000982026
0.000977924
0.000973984
0.000970236
0.000966721
0.000963535
0.000960855
0.00095888
0.000957791
0.000957478
0.000957837
0.000958476
0.000959683
0.000989048
0.0017292
0.015596
0.127852
0.416971
1.02051
1.56699
2.0203
2.39463
2.69948
2.9559
3.1832
3.39079
3.57571
3.73193
3.85517
3.94352
3.99836
4.02542
4.02885
4.01536
3.98762
3.94919
3.90308
3.85196
3.79826
3.74426
3.69191
3.64302
3.59935
3.5629
3.53557
3.51917
3.51497
3.52605
3.5536