/*--------------------------------*- C++ -*----------------------------------*\
  =========                 |
  \\      /  F ield         | OpenFOAM: The Open Source CFD Toolbox
   \\    /   O peration     | Website:  https://openfoam.org
    \\  /    A nd           | Version:  7
     \\/     M anipulation  |
\*---------------------------------------------------------------------------*/
FoamFile
{
    version     2.0;
    format      ascii;
    class       volScalarField;
    location    "500";
    object      nut;
}
// * * * * * * * * * * * * * * * * * * * * * * * * * * * * * * * * * * * * * //

dimensions      [0 2 -1 0 0 0 0];

internalField   nonuniform List<scalar> 
96800
(
0.000142667
0.000142644
0.000142605
0.000142544
0.000142477
0.00014241
0.000142348
0.000142294
0.000142253
0.000142225
0.00014221
0.00014221
0.000142227
0.000142256
0.000142298
0.000142353
0.000142415
0.000142479
0.000142538
0.000142583
0.000142598
0.00014255
0.000142642
0.000142574
0.000142525
0.000142464
0.000142396
0.000142327
0.000142264
0.000142209
0.000142165
0.000142135
0.000142119
0.00014212
0.000142137
0.000142168
0.000142212
0.000142266
0.000142329
0.000142394
0.000142456
0.000142506
0.000142536
0.000142542
0.000142627
0.000142549
0.000142489
0.000142421
0.000142347
0.000142275
0.000142208
0.00014215
0.000142104
0.000142072
0.000142056
0.000142057
0.000142074
0.000142104
0.000142149
0.000142204
0.000142269
0.000142337
0.000142404
0.000142464
0.000142513
0.000142554
0.000142609
0.000142527
0.00014246
0.000142384
0.000142304
0.000142226
0.000142154
0.000142092
0.000142044
0.00014201
0.000141993
0.000141994
0.00014201
0.00014204
0.000142085
0.000142142
0.000142208
0.00014228
0.000142352
0.000142422
0.000142484
0.00014254
0.000142593
0.000142509
0.000142436
0.000142354
0.000142267
0.000142182
0.000142105
0.000142039
0.000141987
0.000141951
0.000141933
0.000141933
0.000141948
0.000141979
0.000142024
0.000142082
0.000142151
0.000142227
0.000142305
0.000142382
0.000142453
0.000142513
0.000142583
0.000142496
0.000142419
0.000142331
0.000142237
0.000142146
0.000142063
0.000141991
0.000141935
0.000141897
0.000141878
0.000141878
0.000141893
0.000141925
0.000141971
0.00014203
0.000142102
0.000142181
0.000142265
0.000142346
0.000142423
0.000142487
0.000142579
0.00014249
0.000142409
0.000142315
0.000142215
0.000142118
0.000142029
0.000141952
0.000141893
0.000141853
0.000141832
0.000141831
0.000141847
0.000141879
0.000141926
0.000141988
0.000142063
0.000142146
0.000142234
0.000142321
0.000142402
0.000142468
0.000142583
0.000142492
0.000142407
0.000142307
0.000142202
0.000142098
0.000142004
0.000141924
0.000141862
0.000141819
0.000141796
0.000141795
0.000141812
0.000141844
0.000141894
0.000141958
0.000142037
0.000142124
0.000142217
0.000142308
0.000142392
0.000142461
0.000142594
0.000142501
0.000142413
0.000142309
0.000142198
0.000142089
0.00014199
0.000141907
0.000141842
0.000141797
0.000141773
0.00014177
0.000141787
0.000141821
0.000141873
0.00014194
0.000142022
0.000142114
0.000142212
0.000142307
0.000142395
0.000142468
0.000142613
0.000142519
0.000142428
0.00014232
0.000142204
0.000142091
0.000141988
0.0001419
0.000141832
0.000141785
0.000141759
0.000141756
0.000141773
0.000141809
0.000141863
0.000141934
0.000142021
0.000142119
0.000142221
0.000142322
0.000142414
0.000142489
0.000142641
0.000142546
0.000142452
0.00014234
0.00014222
0.000142103
0.000141996
0.000141905
0.000141834
0.000141785
0.000141757
0.000141753
0.000141771
0.000141809
0.000141866
0.000141942
0.000142034
0.000142138
0.000142247
0.000142353
0.00014245
0.000142527
0.000142674
0.000142578
0.000142482
0.000142368
0.000142245
0.000142123
0.000142013
0.000141919
0.000141846
0.000141795
0.000141766
0.000141762
0.00014178
0.000141821
0.000141882
0.000141963
0.000142062
0.000142173
0.00014229
0.000142402
0.000142504
0.000142585
0.00014271
0.000142614
0.000142517
0.0001424
0.000142274
0.00014215
0.000142038
0.000141942
0.000141867
0.000141815
0.000141786
0.000141781
0.000141802
0.000141846
0.000141913
0.000142
0.000142106
0.000142226
0.000142351
0.000142471
0.000142578
0.000142662
0.000142742
0.000142646
0.000142548
0.000142431
0.000142304
0.000142179
0.000142066
0.00014197
0.000141896
0.000141845
0.000141817
0.000141813
0.000141838
0.000141888
0.00014196
0.000142055
0.00014217
0.000142299
0.000142432
0.000142561
0.000142674
0.000142762
0.000142758
0.000142662
0.000142565
0.000142449
0.000142324
0.000142201
0.000142091
0.000141998
0.000141928
0.000141882
0.000141858
0.000141859
0.00014189
0.000141946
0.000142026
0.00014213
0.000142255
0.000142394
0.000142538
0.000142675
0.000142795
0.000142886
0.000142737
0.000142642
0.000142549
0.000142437
0.000142317
0.000142202
0.000142099
0.000142016
0.000141956
0.000141919
0.000141906
0.000141915
0.000141955
0.000142022
0.000142113
0.000142228
0.000142364
0.000142514
0.000142669
0.000142816
0.000142942
0.000143039
0.000142648
0.000142556
0.000142469
0.000142367
0.000142259
0.000142157
0.000142071
0.000142006
0.000141965
0.000141947
0.000141952
0.000141976
0.000142033
0.000142115
0.000142222
0.000142351
0.000142501
0.000142665
0.000142832
0.000142988
0.000143122
0.000143224
0.000142447
0.00014236
0.000142284
0.000142197
0.000142109
0.000142032
0.000141974
0.00014194
0.000141931
0.000141946
0.000141982
0.00014203
0.000142114
0.000142221
0.000142351
0.000142501
0.000142669
0.00014285
0.000143031
0.000143199
0.000143341
0.000143447
0.000142073
0.000141994
0.000141936
0.000141873
0.000141816
0.000141777
0.000141762
0.000141775
0.000141817
0.000141884
0.000141968
0.000142056
0.000142182
0.000142329
0.000142493
0.000142674
0.000142869
0.000143072
0.000143272
0.000143454
0.000143605
0.000143718
0.000141459
0.00014139
0.000141357
0.000141328
0.000141314
0.000141327
0.000141374
0.000141455
0.00014157
0.000141713
0.000141866
0.000142019
0.000142211
0.000142417
0.000142634
0.00014286
0.000143095
0.000143332
0.000143558
0.00014376
0.000143925
0.000144045
0.000140536
0.000140479
0.000140479
0.000140493
0.000140533
0.000140613
0.000140738
0.000140909
0.000141123
0.00014137
0.000141617
0.000141868
0.000142152
0.000142446
0.000142742
0.00014304
0.000143336
0.000143623
0.000143889
0.000144121
0.000144306
0.000144439
0.000139259
0.000139214
0.000139253
0.000139316
0.000139418
0.000139572
0.000139788
0.000140065
0.000140399
0.000140768
0.000141144
0.000141526
0.000141937
0.000142355
0.000142768
0.000143172
0.000143561
0.000143926
0.000144256
0.000144536
0.000144755
0.000144907
0.000137641
0.000137608
0.000137685
0.000137796
0.000137953
0.000138177
0.000138479
0.000138862
0.000139321
0.000139821
0.000140351
0.000140898
0.000141464
0.000142047
0.000142622
0.00014318
0.000143709
0.000144196
0.000144627
0.000144986
0.000145262
0.000145448
0.000135798
0.000135771
0.000135879
0.00013602
0.000136208
0.00013647
0.000136824
0.000137277
0.000137829
0.000138445
0.000139118
0.000139838
0.000140587
0.000141364
0.000142152
0.000142924
0.00014366
0.000144337
0.000144933
0.000145424
0.000145797
0.00014604
0.000133989
0.000133957
0.000134075
0.000134207
0.00013437
0.000134599
0.000134922
0.000135356
0.000135905
0.000136558
0.000137305
0.000138144
0.000139065
0.000140052
0.00014109
0.000142145
0.000143181
0.000144154
0.000145018
0.000145736
0.000146278
0.000146619
0.000132649
0.000132596
0.000132685
0.000132741
0.000132784
0.000132858
0.000133002
0.000133247
0.000133611
0.000134109
0.000134752
0.000135553
0.000136522
0.000137658
0.000138948
0.000140352
0.000141811
0.000143242
0.000144556
0.000145667
0.000146513
0.000147036
0.000132382
0.000132286
0.000132286
0.000132169
0.000131954
0.000131692
0.000131435
0.000131227
0.000131111
0.000131124
0.000131324
0.000131757
0.000132475
0.000133525
0.000134934
0.000136679
0.000138682
0.000140805
0.000142867
0.00014468
0.000146095
0.000146964
0.000133907
0.00013374
0.000133573
0.000133163
0.000132518
0.00013169
0.00013074
0.000129722
0.000128716
0.000127793
0.000127062
0.000126624
0.000126555
0.000127008
0.000128124
0.000129964
0.000132484
0.000135507
0.000138721
0.000141743
0.000144205
0.000145734
0.000137975
0.000137708
0.000137285
0.000136445
0.00013518
0.000133534
0.000131539
0.000129321
0.000126947
0.000124593
0.000122379
0.000120453
0.000119066
0.000118292
0.000118379
0.00011964
0.000122173
0.000125892
0.000130442
0.0001352
0.000139395
0.000142106
0.000145292
0.000144897
0.000144131
0.000142733
0.000140668
0.000137971
0.000134607
0.00013079
0.00012665
0.000122424
0.000118342
0.000114637
0.000111532
0.000109351
0.000107988
0.00010778
0.000109223
0.000112468
0.000117453
0.000123639
0.000129879
0.000134281
0.000156494
0.000155949
0.000154767
0.000152708
0.000149714
0.000145792
0.000140835
0.000135168
0.000128995
0.000122679
0.000116677
0.000111371
0.000106981
0.00010355
0.000101317
9.95695e-05
9.9033e-05
0.000100188
0.000103382
0.000108757
0.00011557
0.000121203
0.000172171
0.000171459
0.000169807
0.000167024
0.000163041
0.000157836
0.000151244
0.000143714
0.000135502
0.000127193
0.00011952
0.000113075
0.000108054
0.000104254
0.000101282
9.92943e-05
9.6908e-05
9.54911e-05
9.53877e-05
9.72527e-05
0.000101397
0.000105988
0.000193023
0.000192112
0.000189913
0.000186342
0.000181352
0.000174919
0.000166948
0.000157704
0.000147748
0.000137859
0.000128872
0.000121593
0.000116188
0.000112268
0.000109181
0.0001065
0.000103736
0.000100278
9.73169e-05
9.53202e-05
9.51488e-05
9.65786e-05
0.000220197
0.000219004
0.000216085
0.000211562
0.000205479
0.00019787
0.000188798
0.000178205
0.000167049
0.000156099
0.00014608
0.000137933
0.00013183
0.000127359
0.000123804
0.000120415
0.000117496
0.000112672
0.000107848
0.000103193
9.96322e-05
9.806e-05
0.000255674
0.000254055
0.000250117
0.000244309
0.000236855
0.000227931
0.000217714
0.000206369
0.000194387
0.000182657
0.000171835
0.000162613
0.000155268
0.000149519
0.000144774
0.000140356
0.000136216
0.000130746
0.000124585
0.000118227
0.000112521
0.000108988
0.000302399
0.000300181
0.000294887
0.000287387
0.000278137
0.000267521
0.000255883
0.000243558
0.000230884
0.000218409
0.000206663
0.000196143
0.000187045
0.000179319
0.000172557
0.00016626
0.000160453
0.000153787
0.000146208
0.000138472
0.000131227
0.000126373
0.000363819
0.000360872
0.000354011
0.000344535
0.000333146
0.000320426
0.000306875
0.000292907
0.000278887
0.000265126
0.000251906
0.000239502
0.000228059
0.000217636
0.000208088
0.000199179
0.000190607
0.000181693
0.000172427
0.000163131
0.000154451
0.0001485
0.00044337
0.000439649
0.000431214
0.000419725
0.000406093
0.00039103
0.000375103
0.000358734
0.000342254
0.000325917
0.000309933
0.000294487
0.000279718
0.000265769
0.000252501
0.000239891
0.000227694
0.000215568
0.000203699
0.000192211
0.000181832
0.000174763
0.000544021
0.000539567
0.000529712
0.000516373
0.000500602
0.000483137
0.000464497
0.000445022
0.000424978
0.000404611
0.000384186
0.000363993
0.000344317
0.000325378
0.000307254
0.00028988
0.000273077
0.000256714
0.000240926
0.000226229
0.000213538
0.000205127
0.000668421
0.000663302
0.000652249
0.000637319
0.000619601
0.000599743
0.000578112
0.0005549
0.00053029
0.00050454
0.000478026
0.000451236
0.000424721
0.000398982
0.000374319
0.000350775
0.000328159
0.000306267
0.000285285
0.000266099
0.000250135
0.000239945
0.000818928
0.000813206
0.000801202
0.000784965
0.000765503
0.000743251
0.000718337
0.000690771
0.000660658
0.000628289
0.000594175
0.00055903
0.000523714
0.000489097
0.000455851
0.000424296
0.000394304
0.000365531
0.000338035
0.000312954
0.000292483
0.00027986
0.000997802
0.000991581
0.00097889
0.000961646
0.000940645
0.000915972
0.000887441
0.000854862
0.00081829
0.000778087
0.000734931
0.000689775
0.000643789
0.000598228
0.000554204
0.000512476
0.000473177
0.000435907
0.000400468
0.000368042
0.000341672
0.000325786
0.00120764
0.00120102
0.00118793
0.00117003
0.00114774
0.00112062
0.00108809
0.00104977
0.00100568
0.000956343
0.000902639
0.000845798
0.000787306
0.000728783
0.000671772
0.000617543
0.00056669
0.000518969
0.00047395
0.000432672
0.000398952
0.00037888
0.00145177
0.00144485
0.00143172
0.00141361
0.00139052
0.00136089
0.00132395
0.00127902
0.00122621
0.00116623
0.00110028
0.00102992
0.00095696
0.000883389
0.000811136
0.000741972
0.000677064
0.000616573
0.00056002
0.000508226
0.000465676
0.00044047
0.00173496
0.00172789
0.00171528
0.00169766
0.00167411
0.00164232
0.00160043
0.00154785
0.00148483
0.00141241
0.00133221
0.00124616
0.00115648
0.00106551
0.000975529
0.000888778
0.000807022
0.000731028
0.000660549
0.000596281
0.000543332
0.000512066
0.00206415
0.00205713
0.00204595
0.0020299
0.00200654
0.00197307
0.00192536
0.00186386
0.00178883
0.0017018
0.0016049
0.00150053
0.00139136
0.00128011
0.00116943
0.00106197
0.000960105
0.000865334
0.000777948
0.000698763
0.000633584
0.000595348
0.0024495
0.00244286
0.00243434
0.00242129
0.00239919
0.00236412
0.0023098
0.00223786
0.00214868
0.00204444
0.00192786
0.00180193
0.00166977
0.00153456
0.00139935
0.00126726
0.00114125
0.00102363
0.000915539
0.000818266
0.000738566
0.000692291
0.00290425
0.00289844
0.00289416
0.00288584
0.00286617
0.00282925
0.00276775
0.00268368
0.00257795
0.00245349
0.00231371
0.00216221
0.0020027
0.00183885
0.00167421
0.00151243
0.00135712
0.00121151
0.00107779
0.000958228
0.000860978
0.000805304
0.00344509
0.00344067
0.00344249
0.00344082
0.00342466
0.0033857
0.00331654
0.00321858
0.00309372
0.00294567
0.0027786
0.00259678
0.00240454
0.0022062
0.00200591
0.00180799
0.00161681
0.00143661
0.0012709
0.00112343
0.00100448
0.00093754
0.00409049
0.00408807
0.00409795
0.00410495
0.0040936
0.00405266
0.00397536
0.00386181
0.00371515
0.0035399
0.00334096
0.00312331
0.00289201
0.00265216
0.00240867
0.00216668
0.00193148
0.00170845
0.00150268
0.00131997
0.00117369
0.00109282
0.00486017
0.00486041
0.00488034
0.00489813
0.00489324
0.00485079
0.00476529
0.00463474
0.00446371
0.00425742
0.00402148
0.00376168
0.00348399
0.00319441
0.0028988
0.00260329
0.00231425
0.00203838
0.00178263
0.00155544
0.00137446
0.00127596
0.00577304
0.00577665
0.00580863
0.00583964
0.00584358
0.00580169
0.00570826
0.0055598
0.005362
0.00512052
0.00484178
0.00453256
0.00419997
0.0038512
0.00349322
0.0031333
0.0027791
0.00243879
0.00212141
0.00183861
0.00161374
0.00149278
0.00684614
0.00685395
0.00690033
0.00694775
0.00696398
0.0069256
0.00682697
0.00666003
0.00643316
0.00615181
0.00582346
0.00545628
0.00505894
0.00464016
0.00420829
0.00377195
0.0033401
0.00292252
0.00253047
0.00217938
0.00189972
0.00175022
0.00809354
0.00810673
0.00817061
0.00823905
0.00827296
0.00824346
0.00814253
0.00795708
0.0076984
0.00737159
0.00698564
0.00655064
0.00607733
0.00557651
0.00505828
0.00453276
0.00401028
0.00350211
0.00302169
0.00258858
0.00224196
0.00205674
0.00952483
0.00954509
0.00963071
0.00972649
0.00978525
0.00977109
0.00966996
0.00946704
0.00917305
0.00879415
0.00834152
0.00782781
0.00726651
0.00667098
0.00605352
0.00542604
0.00480022
0.00418852
0.00360631
0.00307737
0.00265103
0.00242217
0.0111424
0.0111722
0.0112852
0.0114162
0.0115082
0.0115156
0.0114162
0.0111966
0.0108629
0.0104243
0.00989522
0.0092917
0.00863055
0.00792813
0.00719924
0.0064578
0.00571687
0.00498991
0.00429372
0.00365617
0.00313792
0.00285741
0.012937
0.0129796
0.0131269
0.0133027
0.013437
0.0134727
0.0133781
0.0131399
0.0127609
0.0122544
0.0116391
0.0109354
0.010164
0.00934447
0.00849405
0.00762868
0.00676279
0.00591069
0.00509029
0.00433334
0.00371277
0.00337349
0.0148831
0.0149424
0.0151326
0.0153635
0.01555
0.0156208
0.0155341
0.0152745
0.0148449
0.0142629
0.0135527
0.0127404
0.0118509
0.0109073
0.00992904
0.00893355
0.00793623
0.00695202
0.0059998
0.00511528
0.00438461
0.00398117
0.0169299
0.0170109
0.0172527
0.0175496
0.0177984
0.0179119
0.0178381
0.0175561
0.0170724
0.0164092
0.0155982
0.0146717
0.0136605
0.0125908
0.0114841
0.0103584
0.00922894
0.00811059
0.00702294
0.00600613
0.00516099
0.00469065
0.0189984
0.0191053
0.0194068
0.0197801
0.0201022
0.0202687
0.0202163
0.0199161
0.0193791
0.018634
0.0177206
0.0166798
0.0155484
0.0143571
0.0131287
0.0118809
0.0106272
0.00938042
0.00815993
0.00701097
0.00605194
0.00551655
0.0209717
0.0211073
0.0214725
0.0219298
0.0223375
0.0225726
0.0225558
0.0222531
0.0216725
0.0208525
0.019843
0.0186948
0.0174527
0.0161523
0.0148185
0.0134675
0.0121091
0.010751
0.00941044
0.00813897
0.00707705
0.0064854
0.0226975
0.0228599
0.0232841
0.0238266
0.0243342
0.0246637
0.0247132
0.0244351
0.0238341
0.0229582
0.0218693
0.0206303
0.019296
0.0179088
0.0164963
0.0150738
0.0136449
0.0122087
0.0107792
0.00941855
0.00828418
0.00765522
0.0239932
0.024173
0.0246358
0.0252532
0.0258787
0.0263409
0.0265138
0.0263035
0.0257224
0.0248242
0.0236852
0.0223831
0.0209853
0.0195431
0.0180894
0.0166399
0.0151919
0.0137344
0.0122833
0.0109065
0.00977228
0.00915639
0.0246769
0.0248514
0.0253075
0.0259713
0.0267458
0.0274029
0.0277774
0.0277206
0.0272199
0.0263374
0.0251777
0.0238418
0.0224176
0.0209603
0.0195105
0.0180881
0.0166882
0.0152985
0.0139442
0.012702
0.0117328
0.011247
0.0246213
0.0247415
0.0250965
0.0257334
0.0266996
0.0276366
0.0282797
0.028441
0.0280903
0.0273017
0.0261955
0.0248905
0.0234884
0.0220603
0.0206623
0.0193234
0.0180483
0.0168403
0.0157553
0.0148903
0.0143451
0.0141327
0.0237394
0.0237363
0.023944
0.0245955
0.0257454
0.0270424
0.0280529
0.0285122
0.0283709
0.0277196
0.026702
0.0254604
0.0241143
0.0227508
0.021447
0.0202442
0.019157
0.0182311
0.017574
0.0172136
0.0171658
0.0172436
7.40465e-06
0.000106499
3.60554e-05
1.84129e-05
1.07757e-05
9.54689e-06
9.75311e-06
1.01363e-05
1.0877e-05
1.18142e-05
1.44503e-05
1.97684e-05
0.00131495
0.0162845
0.0237905
0.0268759
0.0279103
0.0279069
0.02737
0.026581
0.0257059
0.0247396
0.0238225
0.0230031
0.0222436
0.0215533
0.0209398
0.0204027
0.0199326
0.0195152
0.0191393
0.0188016
0.0185041
0.018249
0.0180358
0.0178612
0.0177227
0.0176198
0.0175552
0.0175352
0.017569
0.0176647
0.0177883
0.0179741
0.0182785
0.0186706
0.0191197
0.0195894
0.0200424
0.0204444
0.0207694
0.0210053
0.0211515
0.0212105
0.0211902
0.0210959
0.0209017
0.0206842
0.0204515
0.0202049
0.0199504
0.0196895
0.0194193
0.0191385
0.0188546
0.0185848
0.0183465
0.0181479
0.0179899
0.0178683
0.0177763
0.0177068
0.0176538
0.0176126
0.0175797
0.0175521
0.0175278
0.0175073
0.0174951
0.0175
0.0175304
0.0175605
0.0176352
0.0177645
0.0179347
0.018125
0.0183284
0.0185407
0.0187658
0.0190185
0.0193071
0.0196081
0.0198748
0.0200619
0.0201624
0.0202113
0.0202416
0.0202626
0.0202846
0.0202945
0.0202769
0.0202202
0.0201196
0.0199403
0.0197043
0.0194687
0.0192639
0.0191891
0.0193985
0.0196026
0.0209423
0.0215313
0.0218268
0.0226921
0.024151
0.0258165
0.0271799
0.0279499
0.0280416
0.0275569
0.0266616
0.0255189
0.0242661
0.0230085
0.0218227
0.0207487
0.0198764
0.0192419
0.0188975
0.0189435
0.01918
0.0194005
0.0195441
0.0183568
0.0172653
0.0163234
0.0156847
0.015267
0.0149644
0.0147389
0.0146198
0.0146728
0.0149792
0.0156178
0.0166133
0.0178125
0.0190415
0.0201532
0.0210334
0.0216433
0.0219613
0.0220615
0.0219747
0.021738
0.0213973
0.0210007
0.0205915
0.0201989
0.0198376
0.0195116
0.0192187
0.0189552
0.0187222
0.0185229
0.0183578
0.0182296
0.0181428
0.0181023
0.0181079
0.0181502
0.0182111
0.0182675
0.0182994
0.0182983
0.0182631
0.0181916
0.0180808
0.0179413
0.0177989
0.0176846
0.0176209
0.0176173
0.0176711
0.0177731
0.0178945
0.0180003
0.0180884
0.0181722
0.0182892
0.0184487
0.0186439
0.0188776
0.0191415
0.0194156
0.0196718
0.0198838
0.020032
0.0201056
0.020101
0.0200202
0.0198705
0.0196387
0.0194004
0.0191704
0.0189527
0.0187578
0.0185923
0.0184604
0.0183662
0.0183172
0.0183248
0.0183919
0.0184629
0.0185558
0.0186971
0.0188778
0.0190944
0.0193179
0.0195269
0.0197065
0.0198493
0.0199519
0.0200158
0.0200455
0.0200473
0.0200271
0.0199929
0.0199578
0.0199294
0.0199093
0.0199026
0.0199256
0.0199906
0.0201062
0.0202896
0.0205762
0.0210341
0.0218126
0.0231214
0.0248326
0.0260127
0.02688
1.95749e-05
1.61176e-05
1.57324e-05
1.38872e-05
1.4388e-05
1.56025e-05
1.66771e-05
1.865e-05
2.06613e-05
2.36831e-05
3.27196e-05
4.13031e-05
0.00120826
0.0147896
0.0224546
0.0258339
0.0270948
0.0272606
0.0268539
0.0261644
0.0253546
0.0244566
0.0235778
0.0227856
0.0220558
0.0213879
0.0207937
0.0202714
0.01981
0.019395
0.0190159
0.0186709
0.0183633
0.0180973
0.0178735
0.0176897
0.0175436
0.0174352
0.0173657
0.0173394
0.0173642
0.0174511
0.0175578
0.0177254
0.0180001
0.0183672
0.0187894
0.0192361
0.0196751
0.0200732
0.0204019
0.0206453
0.0208079
0.0208819
0.0208797
0.0207907
0.020619
0.0204176
0.0201985
0.0199659
0.0197249
0.0194754
0.019213
0.0189373
0.0186574
0.0183915
0.0181564
0.0179598
0.0178014
0.0176768
0.0175802
0.0175054
0.0174474
0.0174027
0.0173677
0.0173387
0.0173126
0.0172892
0.0172727
0.0172709
0.0172955
0.0173261
0.0173792
0.0174884
0.0176421
0.017822
0.0180156
0.0182239
0.0184491
0.0187059
0.0189992
0.0193049
0.0195715
0.0197532
0.0198372
0.0198781
0.0199057
0.0199451
0.0199953
0.0200204
0.0200105
0.0199598
0.0198467
0.0196615
0.0194339
0.0191935
0.0189923
0.018898
0.0190764
0.0195832
0.0193255
0.0194008
0.0199876
0.0210745
0.0225934
0.0243717
0.025924
0.0269068
0.0272152
0.0269147
0.0261537
0.0251283
0.0239882
0.0228485
0.0217907
0.0209007
0.0201837
0.0196917
0.019554
0.0196854
0.0197314
0.0196951
0.0194398
0.018534
0.0173595
0.0164228
0.0157551
0.015321
0.0150167
0.0147879
0.0146437
0.0146427
0.0148699
0.0154102
0.0162996
0.0174372
0.0186173
0.0197183
0.0206181
0.0212586
0.0216295
0.0217619
0.021711
0.0215056
0.0211885
0.0208082
0.0204103
0.0200273
0.0196747
0.0193552
0.0190664
0.0188058
0.0185736
0.0183713
0.0182014
0.0180672
0.017973
0.0179231
0.0179177
0.0179485
0.018
0.0180519
0.0180856
0.0180795
0.0180395
0.0179779
0.0178743
0.0177399
0.0175994
0.0174823
0.0174122
0.0174003
0.0174459
0.0175415
0.0176466
0.0177478
0.0178407
0.0179232
0.0180271
0.018175
0.0183597
0.0185844
0.0188424
0.0191126
0.0193655
0.0195788
0.0197323
0.019816
0.0198308
0.0197555
0.0196154
0.0194033
0.0191634
0.0189397
0.0187278
0.0185356
0.0183695
0.0182339
0.0181347
0.0180804
0.0180837
0.018146
0.018211
0.0182884
0.0184215
0.0185952
0.0188037
0.0190359
0.0192478
0.0194312
0.0195797
0.0196885
0.0197574
0.0197906
0.0197939
0.0197729
0.0197333
0.0196987
0.0196693
0.0196483
0.0196422
0.0196571
0.0197095
0.0198271
0.020013
0.020297
0.020746
0.0215042
0.0227897
0.0245434
0.0258809
0.0264398
9.01322e-06
9.20961e-06
9.44419e-06
9.55113e-06
9.6799e-06
9.80114e-06
9.9236e-06
1.00316e-05
1.01192e-05
1.02444e-05
1.07749e-05
1.26567e-05
0.000260493
0.00792865
0.017992
0.0225002
0.0245563
0.0252854
0.0252865
0.0248957
0.0243039
0.0236162
0.0228613
0.0221304
0.0214669
0.0208545
0.0203061
0.0198198
0.0193822
0.0189783
0.0185987
0.0182438
0.0179203
0.0176355
0.0173913
0.0171861
0.0170188
0.0168893
0.0167982
0.0167472
0.0167404
0.0167855
0.0168715
0.0169823
0.0171867
0.0174748
0.0178216
0.0182064
0.0186058
0.0189912
0.0193307
0.0196012
0.0198001
0.0199159
0.0199562
0.01992
0.0197962
0.0196461
0.0194703
0.0192783
0.0190744
0.0188564
0.01862
0.0183637
0.0180976
0.0178411
0.0176114
0.017415
0.0172502
0.017113
0.0169995
0.0169065
0.0168315
0.0167727
0.0167276
0.0166912
0.0166586
0.0166279
0.0166017
0.0165857
0.01659
0.0166158
0.0166527
0.0167303
0.0168381
0.0169722
0.0171299
0.0173124
0.0175244
0.0177813
0.0180858
0.0184075
0.0186858
0.0188729
0.0189583
0.0190026
0.0190384
0.0190816
0.0191455
0.0191948
0.0192044
0.0191666
0.0190713
0.0188918
0.0186947
0.0184751
0.0182555
0.0180902
0.0181021
0.0184508
0.0187407
0.0189246
0.0193714
0.0201409
0.0213292
0.0229154
0.0245026
0.0256422
0.0261198
0.0259849
0.0253584
0.0244543
0.0234322
0.0224195
0.0215021
0.0207281
0.0201444
0.019824
0.0197673
0.0198927
0.019902
0.0195865
0.01893
0.0181836
0.0174438
0.0165817
0.0159186
0.0154621
0.0151353
0.0148787
0.0146682
0.0145429
0.0145853
0.0148847
0.0155006
0.0164143
0.0174508
0.0184913
0.0194106
0.0201302
0.0206198
0.0208688
0.0209226
0.0208095
0.0205654
0.0202382
0.0198766
0.0195175
0.0191802
0.0188698
0.0185855
0.0183264
0.0180934
0.0178878
0.0177118
0.0175674
0.0174578
0.017387
0.0173562
0.0173604
0.0173885
0.0174254
0.0174559
0.0174629
0.0174399
0.0173848
0.0172917
0.0171672
0.0170296
0.0169054
0.0168178
0.0167797
0.0167905
0.0168392
0.0169042
0.0169815
0.0170714
0.0171517
0.0172465
0.0173716
0.017529
0.0177231
0.0179519
0.0182004
0.0184441
0.0186627
0.0188346
0.0189452
0.0189847
0.0189538
0.0188574
0.018675
0.0184685
0.0182652
0.0180665
0.0178807
0.0177143
0.0175728
0.017463
0.0173935
0.017374
0.0174062
0.0174466
0.0175256
0.0176464
0.0178032
0.0179912
0.0182016
0.0184106
0.0186003
0.0187614
0.0188861
0.0189704
0.0190155
0.0190268
0.0190105
0.0189746
0.0189392
0.018897
0.0188688
0.0188629
0.0188751
0.0189227
0.0190197
0.0191913
0.0194595
0.0198821
0.0205788
0.021757
0.0234588
0.0249596
0.0253868
9.00263e-06
9.01194e-06
9.03188e-06
9.05563e-06
9.07573e-06
9.09686e-06
9.11733e-06
9.1477e-06
9.17914e-06
9.22643e-06
9.31548e-06
9.52001e-06
1.16954e-05
0.000947555
0.0102925
0.0165718
0.0199602
0.0216546
0.0223636
0.0224995
0.0223039
0.0219143
0.021414
0.0208552
0.0202827
0.0197622
0.0192848
0.0188535
0.0184575
0.0180833
0.0177236
0.01738
0.0170599
0.0167717
0.0165191
0.0163012
0.0161162
0.0159635
0.0158435
0.0157567
0.0157052
0.0156931
0.015722
0.015791
0.0158997
0.0160783
0.0163226
0.016617
0.016949
0.0172986
0.0176372
0.0179371
0.0181796
0.0183539
0.0184579
0.0184919
0.018456
0.0183654
0.0182548
0.0181247
0.0179784
0.017812
0.0176196
0.0174005
0.0171633
0.016926
0.016706
0.0165106
0.016338
0.0161846
0.0160485
0.0159294
0.0158273
0.015743
0.0156754
0.0156204
0.0155724
0.0155274
0.0154858
0.0154531
0.0154375
0.0154427
0.0154653
0.0155043
0.0155678
0.0156539
0.0157586
0.0158887
0.0160727
0.0163116
0.0166161
0.0169578
0.0172713
0.0174954
0.0176118
0.0176492
0.0176733
0.0177066
0.0177699
0.0178334
0.0178644
0.0178488
0.0177845
0.0176504
0.0174874
0.0173025
0.0171013
0.0169078
0.0168
0.0169264
0.0174771
0.0180638
0.0185387
0.0190322
0.0198842
0.0213144
0.0229916
0.0243238
0.0249885
0.0249916
0.0245157
0.0237298
0.0228388
0.0219558
0.0211541
0.0204734
0.0199894
0.0197194
0.0196645
0.0197407
0.0197512
0.0194463
0.018803
0.0180607
0.0173642
0.0166884
0.0160992
0.0156409
0.0152726
0.014959
0.0146656
0.014416
0.0142788
0.0143294
0.0146273
0.0151928
0.0159774
0.0168346
0.0176852
0.0184305
0.0190124
0.0194044
0.0195912
0.0196053
0.0194723
0.0192321
0.0189311
0.0186094
0.0182921
0.0179907
0.0177099
0.0174518
0.0172192
0.0170141
0.0168373
0.0166889
0.01657
0.0164823
0.016428
0.0164055
0.0164085
0.0164273
0.0164503
0.016464
0.0164559
0.0164157
0.0163379
0.0162264
0.0160959
0.0159673
0.0158619
0.0157932
0.0157624
0.0157623
0.0157814
0.0158151
0.0158642
0.0159259
0.0159983
0.0160816
0.0161957
0.0163418
0.0165203
0.0167263
0.0169473
0.0171643
0.0173554
0.0175008
0.017587
0.0176085
0.0175658
0.0174601
0.0172927
0.0171166
0.0169384
0.0167642
0.0166022
0.0164587
0.0163401
0.0162535
0.0162059
0.0162009
0.016214
0.016264
0.0163545
0.0164812
0.0166401
0.0168213
0.0170113
0.0171956
0.0173618
0.0174992
0.0176004
0.0176633
0.0176912
0.01769
0.0176696
0.0176361
0.0175887
0.0175635
0.0175574
0.0175677
0.0176118
0.0176967
0.0178406
0.0180751
0.0184469
0.0190382
0.0200106
0.0214573
0.0229075
0.0234179
8.99978e-06
8.99861e-06
9.0009e-06
9.00382e-06
9.00829e-06
9.01426e-06
9.01969e-06
9.02821e-06
9.0409e-06
9.0678e-06
9.10645e-06
9.16177e-06
9.0929e-06
1.57938e-05
0.00083472
0.00758496
0.0129036
0.0160278
0.0177966
0.018726
0.0191365
0.0192154
0.0190767
0.0188002
0.0184485
0.0180585
0.0176798
0.0173368
0.0170102
0.0166973
0.016392
0.0160967
0.0158159
0.0155572
0.0153252
0.0151201
0.0149395
0.0147815
0.0146453
0.0145311
0.0144404
0.014376
0.0143414
0.0143398
0.0143757
0.0144565
0.0145823
0.0147651
0.0150054
0.0152862
0.01559
0.0158913
0.0161646
0.0163913
0.0165606
0.0166686
0.0167162
0.0167127
0.016672
0.0166121
0.0165324
0.0164283
0.0162921
0.0161277
0.0159348
0.0157293
0.0155281
0.015341
0.0151681
0.0150065
0.0148548
0.014714
0.014586
0.0144732
0.0143765
0.0142943
0.0142218
0.0141543
0.0140904
0.0140332
0.0139888
0.0139618
0.0139526
0.0139603
0.013986
0.0140311
0.0140953
0.0141804
0.0143113
0.0145127
0.0147895
0.0151289
0.0154702
0.0157463
0.0159192
0.0159869
0.0160071
0.0160216
0.0160553
0.0161117
0.016158
0.0161724
0.016147
0.0160794
0.015962
0.0158309
0.0156817
0.0155301
0.0154282
0.0155093
0.016044
0.0167046
0.0171486
0.0175027
0.0182277
0.0197119
0.0216111
0.0231692
0.0240185
0.0241703
0.0238369
0.0231939
0.022449
0.0217018
0.0209961
0.0204037
0.0199423
0.0196407
0.019509
0.0194947
0.0194323
0.0191516
0.0186297
0.0180037
0.0173494
0.0168447
0.0163114
0.0158647
0.0154541
0.0150605
0.0146716
0.0143127
0.0140375
0.0138952
0.0139217
0.0141442
0.014567
0.0151506
0.0158071
0.0164661
0.0170557
0.0175236
0.0178435
0.0179882
0.0179848
0.0178591
0.0176477
0.017389
0.0171121
0.0168334
0.0165653
0.0163145
0.016087
0.0158865
0.0157135
0.0155663
0.0154432
0.0153443
0.0152721
0.0152278
0.0152096
0.0152116
0.0152249
0.0152369
0.0152336
0.0152028
0.0151382
0.0150407
0.0149198
0.0147911
0.0146726
0.0145781
0.0145118
0.0144697
0.014443
0.0144276
0.0144245
0.0144363
0.0144636
0.0145076
0.0145707
0.0146555
0.0147706
0.0149249
0.0151056
0.0153025
0.0154966
0.0156665
0.0157945
0.0158695
0.0158858
0.0158426
0.0157471
0.0156083
0.0154553
0.0153005
0.0151491
0.0150085
0.0148845
0.0147826
0.0147077
0.0146628
0.0146444
0.0146481
0.0146876
0.0147651
0.0148767
0.0150158
0.0151718
0.0153335
0.0154899
0.0156298
0.0157438
0.0158276
0.0158811
0.0159073
0.0159121
0.0158998
0.0158766
0.0158634
0.0158649
0.0158817
0.0159288
0.016007
0.01613
0.016323
0.0166242
0.0170898
0.0178187
0.0189013
0.0201345
0.0207851
8.99911e-06
8.99628e-06
8.99462e-06
8.99356e-06
8.99325e-06
8.99516e-06
8.99708e-06
9.00233e-06
9.00899e-06
9.0204e-06
9.04325e-06
9.07237e-06
9.11812e-06
9.13613e-06
1.18773e-05
0.000224215
0.00242655
0.00794612
0.0112021
0.0132725
0.0145563
0.0153094
0.015699
0.0158342
0.0157994
0.0156636
0.0154775
0.015279
0.0150723
0.0148727
0.0146741
0.0144877
0.0143033
0.0141281
0.013964
0.0138128
0.0136728
0.0135414
0.0134175
0.013301
0.0131939
0.013099
0.0130204
0.0129625
0.0129303
0.0129292
0.012965
0.013041
0.0131615
0.013348
0.0135734
0.0138268
0.0140859
0.0143284
0.0145367
0.0146996
0.0148131