/*--------------------------------*- C++ -*----------------------------------*\
  =========                 |
  \\      /  F ield         | OpenFOAM: The Open Source CFD Toolbox
   \\    /   O peration     | Website:  https://openfoam.org
    \\  /    A nd           | Version:  7
     \\/     M anipulation  |
\*---------------------------------------------------------------------------*/
FoamFile
{
    version     2.0;
    format      ascii;
    class       volScalarField;
    location    "500";
    object      p;
}
// * * * * * * * * * * * * * * * * * * * * * * * * * * * * * * * * * * * * * //

dimensions      [0 2 -2 0 0 0 0];

internalField   nonuniform List<scalar> 
96800
(
48.9208
48.9208
48.9208
48.9208
48.9208
48.9207
48.9206
48.9206
48.9205
48.9204
48.9203
48.9202
48.9202
48.9201
48.9201
48.92
48.92
48.9199
48.9199
48.9199
48.9198
48.9198
48.9208
48.9208
48.9208
48.9208
48.9207
48.9207
48.9206
48.9205
48.9205
48.9204
48.9203
48.9202
48.9202
48.9201
48.9201
48.92
48.92
48.9199
48.9199
48.9199
48.9198
48.9198
48.9208
48.9208
48.9208
48.9207
48.9207
48.9206
48.9206
48.9205
48.9204
48.9204
48.9203
48.9202
48.9202
48.9201
48.92
48.92
48.9199
48.9199
48.9199
48.9198
48.9198
48.9198
48.9207
48.9207
48.9207
48.9207
48.9206
48.9206
48.9205
48.9205
48.9204
48.9203
48.9203
48.9202
48.9202
48.9201
48.92
48.92
48.9199
48.9199
48.9198
48.9198
48.9198
48.9198
48.9206
48.9206
48.9206
48.9206
48.9205
48.9205
48.9204
48.9204
48.9203
48.9203
48.9202
48.9202
48.9201
48.9201
48.92
48.9199
48.9199
48.9198
48.9198
48.9198
48.9198
48.9198
48.9204
48.9204
48.9204
48.9204
48.9204
48.9204
48.9203
48.9203
48.9203
48.9202
48.9202
48.9201
48.9201
48.92
48.9199
48.9199
48.9198
48.9198
48.9198
48.9198
48.9198
48.9198
48.9203
48.9203
48.9203
48.9203
48.9203
48.9202
48.9202
48.9202
48.9202
48.9201
48.9201
48.92
48.92
48.9199
48.9199
48.9198
48.9198
48.9198
48.9198
48.9198
48.9198
48.9198
48.9201
48.9201
48.9201
48.9201
48.9201
48.9201
48.9201
48.9201
48.92
48.92
48.92
48.9199
48.9199
48.9199
48.9198
48.9198
48.9198
48.9198
48.9197
48.9197
48.9197
48.9197
48.9199
48.9199
48.9199
48.9199
48.9199
48.9199
48.9199
48.9199
48.9199
48.9199
48.9199
48.9198
48.9198
48.9198
48.9198
48.9198
48.9198
48.9197
48.9197
48.9197
48.9197
48.9197
48.9197
48.9197
48.9197
48.9197
48.9197
48.9197
48.9198
48.9198
48.9197
48.9197
48.9197
48.9197
48.9197
48.9197
48.9197
48.9197
48.9197
48.9197
48.9197
48.9197
48.9196
48.9196
48.9195
48.9195
48.9195
48.9195
48.9195
48.9195
48.9196
48.9196
48.9196
48.9196
48.9196
48.9196
48.9196
48.9196
48.9196
48.9196
48.9197
48.9197
48.9197
48.9196
48.9196
48.9196
48.9193
48.9193
48.9193
48.9193
48.9193
48.9193
48.9193
48.9194
48.9194
48.9194
48.9194
48.9195
48.9195
48.9195
48.9195
48.9196
48.9196
48.9196
48.9196
48.9196
48.9196
48.9196
48.919
48.919
48.919
48.919
48.919
48.9191
48.9191
48.9191
48.9192
48.9192
48.9193
48.9193
48.9193
48.9194
48.9194
48.9195
48.9195
48.9195
48.9196
48.9196
48.9196
48.9196
48.9187
48.9187
48.9187
48.9187
48.9188
48.9188
48.9188
48.9189
48.919
48.919
48.9191
48.9191
48.9192
48.9193
48.9194
48.9194
48.9194
48.9195
48.9195
48.9195
48.9195
48.9196
48.9183
48.9184
48.9184
48.9184
48.9185
48.9185
48.9186
48.9186
48.9187
48.9188
48.9189
48.919
48.9191
48.9192
48.9192
48.9193
48.9194
48.9194
48.9195
48.9195
48.9195
48.9195
48.918
48.918
48.918
48.9181
48.9181
48.9182
48.9183
48.9184
48.9185
48.9186
48.9187
48.9188
48.9189
48.919
48.9191
48.9192
48.9193
48.9193
48.9194
48.9195
48.9195
48.9195
48.9176
48.9176
48.9176
48.9177
48.9178
48.9179
48.918
48.9181
48.9182
48.9183
48.9184
48.9186
48.9187
48.9189
48.919
48.9191
48.9192
48.9193
48.9194
48.9194
48.9195
48.9195
48.9172
48.9172
48.9172
48.9173
48.9174
48.9175
48.9176
48.9177
48.9179
48.918
48.9182
48.9184
48.9185
48.9187
48.9188
48.919
48.9191
48.9192
48.9193
48.9194
48.9195
48.9195
48.9167
48.9167
48.9168
48.9168
48.9169
48.9171
48.9172
48.9174
48.9176
48.9177
48.9179
48.9181
48.9183
48.9185
48.9187
48.9189
48.919
48.9191
48.9193
48.9194
48.9194
48.9195
48.9162
48.9162
48.9163
48.9164
48.9165
48.9166
48.9168
48.917
48.9172
48.9174
48.9177
48.9179
48.9181
48.9183
48.9185
48.9187
48.9189
48.9191
48.9192
48.9193
48.9194
48.9194
48.9156
48.9157
48.9157
48.9158
48.916
48.9161
48.9163
48.9166
48.9168
48.9171
48.9173
48.9176
48.9179
48.9181
48.9184
48.9186
48.9188
48.919
48.9192
48.9193
48.9194
48.9194
48.915
48.9151
48.9152
48.9153
48.9154
48.9156
48.9158
48.9161
48.9164
48.9167
48.917
48.9173
48.9176
48.9179
48.9182
48.9185
48.9188
48.919
48.9192
48.9193
48.9194
48.9194
48.9144
48.9144
48.9145
48.9147
48.9148
48.9151
48.9153
48.9156
48.9159
48.9163
48.9167
48.917
48.9174
48.9177
48.918
48.9184
48.9187
48.9189
48.9191
48.9193
48.9194
48.9195
48.9137
48.9137
48.9138
48.914
48.9142
48.9144
48.9147
48.9151
48.9155
48.9159
48.9163
48.9167
48.9171
48.9175
48.9179
48.9183
48.9186
48.9189
48.9192
48.9193
48.9195
48.9195
48.9129
48.913
48.9131
48.9133
48.9135
48.9138
48.9141
48.9145
48.9149
48.9154
48.9159
48.9164
48.9169
48.9173
48.9178
48.9182
48.9186
48.919
48.9192
48.9194
48.9196
48.9197
48.912
48.9121
48.9122
48.9124
48.9127
48.913
48.9134
48.9139
48.9144
48.9149
48.9155
48.916
48.9166
48.9171
48.9177
48.9182
48.9186
48.919
48.9194
48.9196
48.9198
48.9199
48.911
48.9111
48.9113
48.9115
48.9118
48.9122
48.9127
48.9132
48.9138
48.9144
48.915
48.9157
48.9163
48.917
48.9176
48.9182
48.9187
48.9192
48.9196
48.9198
48.9201
48.9202
48.9099
48.91
48.9102
48.9105
48.9109
48.9113
48.9119
48.9124
48.9131
48.9138
48.9146
48.9153
48.9161
48.9168
48.9175
48.9182
48.9188
48.9194
48.9198
48.9202
48.9204
48.9206
48.9086
48.9087
48.909
48.9093
48.9097
48.9103
48.9109
48.9116
48.9124
48.9132
48.914
48.9149
48.9158
48.9167
48.9175
48.9183
48.919
48.9197
48.9202
48.9206
48.9209
48.921
48.9071
48.9073
48.9075
48.9079
48.9084
48.9091
48.9098
48.9106
48.9115
48.9125
48.9135
48.9145
48.9155
48.9165
48.9175
48.9184
48.9193
48.92
48.9206
48.9211
48.9215
48.9216
48.9053
48.9055
48.9058
48.9063
48.9069
48.9077
48.9086
48.9095
48.9106
48.9117
48.9129
48.914
48.9152
48.9164
48.9175
48.9186
48.9196
48.9204
48.9211
48.9217
48.9221
48.9223
48.9031
48.9034
48.9037
48.9043
48.905
48.906
48.907
48.9082
48.9094
48.9107
48.9121
48.9135
48.9148
48.9162
48.9175
48.9187
48.9199
48.9209
48.9217
48.9224
48.9229
48.9231
48.9005
48.9007
48.9012
48.9018
48.9027
48.9039
48.9051
48.9065
48.908
48.9096
48.9111
48.9127
48.9143
48.9159
48.9174
48.9189
48.9202
48.9214
48.9224
48.9232
48.9237
48.924
48.8971
48.8974
48.8979
48.8988
48.8999
48.9012
48.9028
48.9045
48.9062
48.9081
48.9099
48.9118
48.9137
48.9155
48.9173
48.919
48.9206
48.922
48.9232
48.9241
48.9248
48.9251
48.8929
48.8932
48.8939
48.8949
48.8963
48.8979
48.8998
48.9018
48.904
48.9062
48.9084
48.9107
48.9129
48.915
48.9172
48.9192
48.9211
48.9228
48.9242
48.9253
48.9261
48.9265
48.8874
48.8878
48.8887
48.89
48.8917
48.8937
48.896
48.8985
48.9012
48.9039
48.9066
48.9093
48.9119
48.9145
48.9171
48.9195
48.9218
48.9239
48.9256
48.927
48.9279
48.9284
48.8804
48.8809
48.8819
48.8836
48.8857
48.8883
48.8912
48.8943
48.8976
48.901
48.9043
48.9077
48.9109
48.9141
48.9172
48.9201
48.9229
48.9254
48.9275
48.9292
48.9304
48.931
48.8711
48.8717
48.8731
48.8752
48.8779
48.8812
48.8849
48.8889
48.8931
48.8973
48.9015
48.9057
48.9098
48.9138
48.9176
48.9212
48.9245
48.9276
48.9302
48.9322
48.9337
48.9345
48.8587
48.8595
48.8613
48.8641
48.8677
48.8719
48.8767
48.8818
48.8872
48.8927
48.8981
48.9035
48.9087
48.9137
48.9184
48.9228
48.9269
48.9306
48.9338
48.9364
48.9382
48.9392
48.842
48.8432
48.8457
48.8493
48.854
48.8596
48.8658
48.8726
48.8795
48.8867
48.8938
48.9008
48.9075
48.9138
48.9198
48.9253
48.9304
48.9349
48.9389
48.942
48.9443
48.9456
48.8203
48.8216
48.8248
48.8296
48.8358
48.8432
48.8514
48.8603
48.8695
48.8789
48.8883
48.8974
48.9061
48.9144
48.922
48.929
48.9354
48.941
48.9458
48.9496
48.9524
48.9541
48.7914
48.793
48.7972
48.8035
48.8117
48.8215
48.8324
48.8442
48.8564
48.8689
48.8812
48.8932
48.9047
48.9154
48.9252
48.9342
48.9422
48.9492
48.9551
48.9599
48.9633
48.9654
48.7535
48.7553
48.7609
48.7692
48.7801
48.793
48.8075
48.8231
48.8394
48.8558
48.8722
48.888
48.903
48.917
48.9298
48.9414
48.9516
48.9604
48.9677
48.9736
48.9778
48.9803
48.7039
48.7062
48.7134
48.7244
48.7387
48.7558
48.775
48.7956
48.8172
48.839
48.8605
48.8813
48.901
48.9193
48.936
48.9509
48.964
48.9752
48.9844
48.9917
48.9969
49
48.6396
48.6423
48.6517
48.6661
48.685
48.7075
48.7328
48.7601
48.7885
48.8172
48.8455
48.8728
48.8986
48.9224
48.9441
48.9634
48.9803
48.9946
49.0063
49.0154
49.0219
49.0255
48.5562
48.5595
48.5717
48.5905
48.6153
48.645
48.6784
48.7143
48.7516
48.7893
48.8263
48.8619
48.8955
48.9265
48.9546
48.9796
49.0013
49.0196
49.0345
49.0461
49.0543
49.0589
48.4485
48.4522
48.468
48.4924
48.5249
48.564
48.6079
48.6551
48.7041
48.7533
48.8015
48.8479
48.8914
48.9315
48.9679
49.0001
49.028
49.0516
49.0707
49.0854
49.0958
49.1015
48.3092
48.3133
48.3335
48.3652
48.4078
48.4591
48.5169
48.5787
48.6427
48.7069
48.7696
48.8296
48.8858
48.9375
48.9843
49.0257
49.0615
49.0918
49.1164
49.1353
49.1485
49.1557
48.1288
48.1329
48.1587
48.1999
48.2556
48.323
48.3989
48.4799
48.5634
48.6468
48.728
48.8055
48.8778
48.9442
49.0042
49.0572
49.1032
49.142
49.1736
49.1979
49.2149
49.224
47.8945
47.8983
47.9313
47.9848
48.0577
48.1463
48.2459
48.3519
48.4607
48.5689
48.6738
48.7733
48.8661
48.951
49.0276
49.0954
49.1542
49.2039
49.2445
49.2758
49.2978
49.3094
47.5894
47.5924
47.6347
47.7042
47.7999
47.9166
48.0476
48.1864
48.3278
48.4678
48.6028
48.7303
48.8488
48.9571
49.0546
49.1409
49.2159
49.2795
49.3315
49.3719
49.4003
49.4152
47.1912
47.1932
47.2478
47.3387
47.4648
47.6187
47.791
47.9727
48.1565
48.337
48.5102
48.673
48.8236
48.9609
49.0844
49.1939
49.2892
49.3704
49.4372
49.4893
49.526
49.5451
46.6705
46.6727
46.744
46.8637
47.0303
47.2339
47.4607
47.6981
47.9364
48.1687
48.39
48.5967
48.787
48.96
49.1156
49.2538
49.3746
49.4778
49.5633
49.6304
49.6782
49.7026
45.9902
45.9955
46.0901
46.2489
46.4701
46.7396
47.0379
47.3477
47.6559
47.9536
48.2347
48.4954
48.7341
48.9506
49.1453
49.3186
49.4708
49.6017
49.711
49.7975
49.8596
49.8908
45.1038
45.1179
45.2448
45.4571
45.7517
46.1085
46.5005
46.9038
47.301
47.6806
48.0354
48.3617
48.6586
48.927
49.1685
49.3841
49.5747
49.7399
49.8792
49.9908
50.0716
50.1119
43.9514
43.9851
44.1569
44.4424
44.8357
45.3084
45.8229
46.3467
46.8565
47.3375
47.7817
48.1863
48.5518
48.8809
49.1769
49.4424
49.6788
49.8861
50.0633
50.2075
50.3131
50.3656
42.4547
42.5324
42.7637
43.1494
43.6759
44.3025
44.9772
45.6556
46.3064
46.9114
47.4626
47.9586
48.4026
48.8005
49.1582
49.4805
49.7703
50.0284
50.2529
50.4393
50.5781
50.6469
40.5334
40.6633
40.9855
41.5114
42.2191
43.0509
43.9348
44.8103
45.636
46.3904
47.0663
47.6659
48.1969
48.6696
49.0941
49.4786
49.8287
50.1464
50.4289
50.6691
50.8522
50.9432
38.0641
38.2747
38.7313
39.4542
40.4095
41.5153
42.6716
43.7957
44.8349
45.7647
46.5814
47.2937
47.9164
48.4661
48.959
49.4082
49.8231
50.2076
50.559
50.8662
51.1069
51.2276
34.8978
35.2515
35.8999
36.8988
38.1928
39.6637
41.1716
42.605
43.8984
45.0276
45.9964
46.8247
47.5375
48.1608
48.7182
49.2295
49.7085
50.1628
50.591
50.9777
51.2937
51.4526
30.8758
31.4626
32.3958
33.7803
35.5326
37.484
39.4386
41.2477
42.8332
44.1778
45.301
46.239
47.0316
47.7165
48.3265
48.8882
49.4214
49.9383
50.4439
50.9144
51.3176
51.5394
25.8233
26.8004
28.1679
30.0826
32.4342
35
37.5064
39.7538
41.6572
43.2184
44.4835
45.5125
46.3636
47.0876
47.7264
48.313
48.8712
49.4174
49.9776
50.5152
50.991
51.2091
19.5935
21.2674
23.3425
25.9394
28.9958
32.2964
35.4555
38.1833
40.4029
42.156
43.5301
44.616
45.492
46.2205
46.8498
47.4159
47.9418
48.432
48.9419
49.3999
49.7493
49.8542
12.5998
14.8729
18.3837
21.8119
25.4647
29.5286
33.4196
36.6223
39.1073
40.9924
42.42
43.5147
44.3714
45.0586
45.6239
46.0949
46.4801
46.7462
46.9248
46.9095
46.5829
46.2565
-10.3076
-10.2366
2.51601
12.984
20.713
26.8724
31.6251
35.2
37.8225
39.7309
41.1296
42.1704
42.9573
43.5541
43.992
44.2715
44.3561
44.1062
43.4326
42.1099
39.6182
37.3068
-29.5783
-13.3303
2.28268
11.121
18.8869
25.4682
30.4254
34.0025
36.5344
38.3294
39.6177
40.5539
41.2312
41.6943
41.9466
41.9399
41.58
40.3727
37.9861
33.3868
23.271
5.23023
-8.56037
37.3906
32.3054
31.04
30.7306
30.5576
30.5767
30.717
30.9372
31.2229
31.5127
31.575
29.4581
29.1565
28.5266
27.1502
25.9434
25.0296
24.3959
23.9742
23.7083
23.6108
23.6128
23.6677
23.7582
23.8632
23.9668
24.064
24.1438
24.1582
24.0899
24.0127
23.8772
23.8937
23.8686
23.8986
23.9392
23.997
24.063
24.1158
24.1269
24.1194
24.1107
24.0985
24.079
24.0511
24.0363
24.0621
24.0649
24.1002
24.1323
24.1192
23.9971
23.8942
23.7676
23.6228
23.4581
23.2939
23.1463
23.0314
22.8821
22.6989
22.4829
22.256
22.0695
21.9104
21.7917
21.7774
21.7852
21.8131
21.8474
21.88
21.9255
22.0071
22.0971
22.1842
22.2653
22.3507
22.4584
22.5959
22.7525
22.9108
23.0831
23.2552
23.4259
23.6043
23.7966
23.9893
24.1688
24.2916
24.3623
24.2557
23.9907
23.6321
23.2913
22.9982
23.0174
23.1755
23.4326
23.7209
23.9752
24.2372
24.5478
24.8796
25.2902
26.0769
27.1099
27.6424
27.1717
20.7987
-125.01
2.30177
2.40412
12.4508
19.2603
25.4312
29.8458
32.995
35.1977
36.7549
37.8692
38.6663
39.2126
39.5204
39.5523
39.1967
38.1983
35.7818
30.767
20.0773
-5.7229
-80.9184
-375.071
-138.219
-34.0907
-27.5659
-20.3456
-14.7411
-10.3051
-6.92201
-4.41146
-2.58639
-1.24359
-0.193306
0.724403
1.61303
2.47897
3.29877
4.04755
4.62835
5.10497
5.45856
5.68134
5.84487
5.99075
6.09001
6.36107
6.62601
6.96233
7.29579
7.59424
7.85329
8.00426
8.06335
8.10349
8.1105
8.07624
8.04519
7.96043
7.96627
7.96442
7.9492
7.93255
7.80387
7.74481
7.55975
7.34236
7.13316
6.94953
6.74865
6.75562
6.77119
6.8339
6.89279
6.94649
6.97165
6.99079
7.00258
7.03337
7.05045
7.08466
7.12593
7.16773
7.20248
7.2227
7.21013
7.14132
7.04403
6.93223
6.79764
6.66086
6.54241
6.45671
6.37629
6.37383
6.41551
6.48201
6.55623
6.65934
6.76056
6.81179
6.80442
6.84442
6.83224
6.79354
6.77388
6.80184
6.8559
6.97625
7.11689
7.27463
7.45831
7.67572
7.93484
8.22449
8.53885
8.89712
9.29408
9.71775
10.1726
10.6288
11.195
11.8822
12.6032
13.4216
14.3615
15.4331
16.7262
18.0958
18.3082
13.3573
-0.889674
20.9248
28.636
29.9536
30.2404
30.3957
30.4082
30.4875
30.6421
30.8825
31.2465
31.8567
33.1518
35.4455
32.4391
29.0818
26.9357
25.5793
24.6616
24.0852
23.7466
23.5577
23.4768
23.495
23.5618
23.6626
23.7961
23.9324
24.0438
24.1095
24.1089
24.0546
23.9763
23.9078
23.8944
23.9084
23.943
23.9867
24.0285
24.0682
24.1017
24.1188
24.1236
24.1258
24.1252
24.1184
24.1139
24.1194
24.1381
24.1666
24.1903
24.1897
24.1395
24.0414
23.9096
23.7529
23.5869
23.4209
23.2626
23.1106
22.9546
22.775
22.5655
22.3359
22.1169
21.9479
21.8329
21.7651
21.7554
21.7659
21.7907
21.8267
21.8637
21.9187
21.9946
22.0818
22.1701
22.2571
22.35
22.4631
22.6064
22.7737
22.9547
23.1391
23.3201
23.5019
23.6915
23.889
24.084
24.2517
24.3534
24.3402
24.163
23.8337
23.444
23.1215
22.9394
22.9679
23.1551
23.4192
23.7007
23.9712
24.242
24.5457
24.9018
25.4197
26.1817
27.3828
29.607
32.3934
35.8628
-23.8786
0.269105
8.4993
15.5136
21.056
26.0047
29.5435
32.0118
33.7536
35.0115
35.931
36.5829
37.0044
37.1693
37.0036
36.3492
34.8492
32.2335
27.0188
16.3571
-6.24331
-53.7403
-134.187
-90.7359
-45.8867
-29.7559
-19.3258
-13.7668
-9.4366
-6.2195
-3.90302
-2.22165
-0.946368
0.102169
1.04709
1.94854
2.80062
3.56806
4.22208
4.73679
5.13134
5.4127
5.61454
5.77504
5.92396
6.10007
6.37539
6.70759
7.06294
7.39568
7.67271
7.87678
8.00629
8.07714
8.10592
8.08905
8.06312
8.037
8.0141
8.00621
8.00956
7.99425
7.94103
7.8351
7.67796
7.46759
7.23912
7.03522
6.8762
6.77189
6.76734
6.81086
6.86825
6.9147
6.94585
6.96383
6.98179
7.00607
7.03629
7.06796
7.10664
7.15258
7.19988
7.23921
7.25725
7.23983
7.17788
7.07264
6.93404
6.77845
6.62795
6.50101
6.40718
6.35195
6.35192
6.40327
6.48843
6.58937
6.69283
6.77807
6.8285
6.85375
6.8218
6.78957
6.76358
6.76397
6.79747
6.86581
6.97473
7.11298
7.27362
7.46124
7.6822
7.94249
8.23712
8.55874
8.90391
9.27551
9.67855
10.1198
10.6036
11.1434
11.7483
12.4195
13.1768
14.0288
14.9381
16.4618
18.5976
22.609
24.06
42.4278
26.3511
27.9811
29.1155
29.5985
29.8949
30.0577
30.2056
30.3903
30.6403
31.0071
31.6142
32.6869
34.1407
32.1776
28.4356
26.3302
25.0708
24.2054
23.6745
23.393
23.2689
23.2362
23.2718
23.3657
23.498
23.6786
23.8704
24.0298
24.111
24.0995
24.0245
23.9286
23.8587
23.8371
23.8523
23.8907
23.9417
23.9988
24.0525
24.095
24.1238
24.1412
24.1542
24.1733
24.1889
24.1989
24.2116
24.2389
24.2707
24.2972
24.283
24.2166
24.0974
23.9378
23.7526
23.5597
23.3818
23.2233
23.078
22.9268
22.7469
22.5264
22.2745
22.0269
21.8315
21.7159
21.677
21.6899
21.7209
21.7541
21.7904
21.8335
21.8937
21.9734
22.0643
22.1554
22.2433
22.3361
22.45
22.5961
22.7743
22.9689
23.1657
23.3538
23.5378
23.7305
23.938
24.1539
24.3625
24.5035
24.5028
24.2921
23.8749
23.3636
22.9341
22.7282
22.787
23.038
23.3673
23.6892
23.9676
24.2165
24.4458
24.6918
25.1587
25.6475
26.4928
27.2333
28.1685
27.4844
5.81711
10.8999
15.835
20.3998
23.8368
26.8737
29.2387
30.9637
32.2459
33.2197
33.9624
34.4823
34.7951
34.8388
34.5374
33.7329
32.172
29.4794
24.659
15.651
-1.61767
-26.8865
-53.2956
-50.4488
-36.5024
-26.382
-17.9199
-12.6959
-8.57314
-5.45457
-3.23882
-1.65627
-0.465279
0.53747
1.46701
2.35925
3.19824
3.9357
4.54292
5.00747
5.33669
5.54972
5.67818
5.75852
5.85234
6.0131
6.27491
6.62044
7.00212
7.36582
7.6651
7.88186
8.018
8.08606
8.10857
8.08864
8.05782
8.037
8.0289
8.03537
8.04917
8.03089
7.98663
7.87366
7.69336
7.45558
7.1939
6.95491
6.78207
6.70192
6.71707
6.7873
6.86702
6.92553
6.95483
6.97012
6.98689
7.01376
7.05102
7.09589
7.15012
7.21225
7.27453
7.32454
7.34767
7.32675
7.25046
7.11913
6.94582
6.754
6.56879
6.41828
6.31693
6.27048
6.28243
6.34649
6.44721
6.56625
6.68536
6.7847
6.84492
6.86371
6.83006
6.78396
6.7473
6.75009
6.78758
6.86177
6.96954
7.1077
7.27128
7.45982
7.67592
7.92409
8.20341
8.50931
8.84065
9.19688
9.58347
10.0099
10.4824
11.0028
11.5739
12.2054
12.9164
13.7282
14.6683
16.0828
18.2978
21.7271
27.8607
38.4234
27.7746
28.2348
28.8818
29.2585
29.5341
29.7226
29.8883
30.061
30.2665
30.5296
30.888
31.2689
31.3394
29.746
26.9107
25.407
24.4582
23.7577
23.3134
23.0989
23.0188
23.0091
23.0509
23.1581
23.3359
23.577
23.8377
24.0526
24.1559
24.1398
24.0431
23.9176
23.8279
23.7913
23.8003
23.8378
23.8902
23.9524
24.0148
24.0691
24.1105
24.1425
24.1705
24.1994
24.2298
24.254
24.2781
24.3135
24.3549
24.3823
24.3632
24.2793
24.1357
23.9503
23.7416
23.5303
23.3396
23.1803
23.0389
22.8908
22.7088
22.4776
22.207
21.9368
21.724
21.6071
21.5832
21.6159
21.6645
21.7098
21.7517
21.7988
21.8615
21.9438
22.0385
22.1335
22.2241
22.3189
22.436
22.5894
22.7782
22.9849
23.1897
23.3813
23.5649
23.7564
23.9706
24.2025
24.4516
24.6251
24.6417
24.403
23.9029
23.2697
22.7212
22.4602
22.5391
22.8675
23.2909
23.6815
23.9811
24.2094
24.3976
24.5944
24.9777
25.3472
25.7946
26.1515
25.4327
24.1664
17.6246
18.1987
20.4148
23.2471
25.4844
27.3222
28.8052
29.9429
30.8476
31.5807
32.1589
32.576
32.7704
32.7258
32.3205
31.4181
29.8313
27.2887
23.4451
17.7471
2.44909
-10.4654
-23.0881
-29.1031
-25.6789
-20.1862
-14.7097
-10.489
-7.02394
-4.34883
-2.40663
-0.98059
0.124029
1.07761
1.95925
2.82824
3.63762
4.3427
4.90918
5.32994
5.60889
5.75913
5.82681
5.82706
5.85267
5.97289
6.21481
6.55989
6.94714
7.3288
7.63654
7.86159
8.00638
8.08122
8.10844
8.09771
8.06992
8.0643
8.06903
8.08343
8.09563
8.08077
8.02166
7.89337
7.68995
7.42615
7.13977
6.88207
6.70333
6.63216
6.66411
6.75334
6.84936
6.92064
6.95043
6.96436
6.98099
7.01295
7.06086
7.12111
7.1911
7.26914
7.34915
7.41559
7.44746
7.42265
7.32858
7.16814
6.95999
6.7327
6.5153
6.33937
6.22858
6.1861
6.20929
6.28904
6.40597
6.53847
6.66652
6.77004
6.83264
6.84502
6.81625
6.77553
6.74018
6.7389
6.774
6.8487
6.9598
7.10409
7.27572
7.46833
7.67844
7.90915
8.16164
8.4317
8.73472
9.05831
9.41718
9.81852
10.2601
10.7387
11.2501
11.8021
12.4102
13.0847
13.8052
14.6091
15.6326
17.2782
18.0414
22.121
28.2709
28.4329
28.7725
29.0427
29.2616
29.4294
29.5718
29.7039
29.8328
29.9564
30.0489
30.0085
29.577
28.3242
26.491
24.7893
24.0064
23.4598
23.1594
22.9986
22.9153
22.8781
22.8872
22.9889
23.2021
23.5122
23.8521
24.1276
24.2539
24.237
24.1248
23.9682
23.8596
23.8024
23.7949
23.818
23.859
23.9115
23.968
24.023
24.0712
24.1136
24.1525
24.1887
24.2219
24.2549
24.2899
24.3292
24.3699
24.3988
24.3738
24.2817
24.125
23.9253
23.7058
23.4884
23.2944
23.1334
22.9939
22.8473
22.6634
22.4278
22.151
21.8722
21.6529
21.535
21.5179
21.5599
21.6181
21.6697
21.7147
21.7631
21.826
21.9082
22.0044
22.1035
22.1997
22.3014
22.4263
22.5876
22.7837
22.9966
23.2049
23.3963
23.5764
23.7635
23.9757
24.2195
24.4578
24.6526
24.706
24.453
23.9126
23.2012
22.5383
22.2023
22.2696
22.6561
23.1757
23.6597
23.9979
24.2167
24.376
24.5383
24.785
25.0208
25.2363
25.2669
24.9473
24.1923
21.3474
21.8157
23.0861
24.8572
26.3172
27.5093
28.4093
29.1227
29.731
30.257
30.6839
30.9901
31.1014
30.9568
30.4538
29.4742
27.8627
25.4141
21.8438
16.6757
8.09802
-0.22108
-7.32776
-9.40861
-10.7942
-10.905
-9.61694
-7.27251
-4.91206
-2.94302
-1.40359
-0.197159
0.821841
1.65123
2.48453
3.29365
4.0479
4.70309
5.23052
5.62078
5.87505
6.00054
6.0226
5.97637
5.9635
6.04212
6.24744
6.56365
6.91106
7.29324
7.57466
7.79929
7.95924
8.06165
8.11779
8.14229
8.13718
8.13164
8.14073
8.14876
8.14784
8.11564
8.03236
7.8808
7.65721
7.37943
7.08745
6.8326
6.66102
6.59854
6.63804
6.73912
6.83669
6.90693
6.92867
6.94326
6.95587
6.99348
7.05236
7.12657
7.21216
7.30668
7.40263
7.48321
7.52322
7.49561
7.38763
7.20486
6.97168
6.72202
6.4824
6.29172
6.17048
6.13156
6.15874
6.24873
6.37375
6.50893
6.63489
6.73007
6.78375
6.79353
6.76969
6.7361
6.71414
6.72203
6.76433
6.84254
6.95821
7.1108
7.29275
7.48985
7.69074
7.8908
8.1096
8.33159
8.58039
8.86038
9.18028
9.54129
9.93565
10.3523
10.7813
11.223
11.6862
12.1714
12.6498
13.0615
13.3501
13.3282
12.759
13.3862
28.4451
28.5091
28.6899
28.8678
29.026
29.1539
29.2562
29.3349
29.3884
29.402
29.3362
29.1154
28.6085
27.6976
26.4928
25.4736
24.9365
23.2041
23.2865
23.1579
23.0086
22.8972
22.8246
22.8999
23.1212
23.4857
23.9045
24.2493
24.3881
24.3706
24.255
24.0963
23.9667
23.8865
23.8552
23.8549
23.8738
23.9018
23.9363
23.9749
24.0144
24.0549
24.0947
24.1298
24.1615
24.1937
24.2351
24.2706
24.3007
24.3118
24.2914
24.2048
24.0526
23.8564
23.6407
23.4289
23.239
23.0798
22.942
22.7976
22.6178
22.3892
22.1219
21.846
21.631
21.515
21.4892
21.5377
21.5965
21.6464
21.6875
21.7318
21.7907
21.8698
21.965
22.0664
22.1686
22.2784
22.4119
22.5805
22.7807
22.9953
23.2029
23.3917
23.5671
23.7464
23.9483
24.1736
24.4093
24.5995
24.646
24.4274
23.9019
23.1608
22.4282
22.031
22.0459
22.4533
23.0209
23.6135
23.9949
24.2242
24.3696
24.5096
24.6884
24.8685
25.0955
25.1294
24.8746
24.2874
23.139
23.4961
24.48
25.7651
26.9138
27.6966
28.1934
28.5717
28.9228
29.2569
29.5259
29.7422
29.7537
29.5123
28.9186
27.8685
26.2471
23.92
20.7232
16.4525
10.925
5.21595
0.293582
-2.91089
-4.63114
-5.36414
-4.95869
-3.85375
-2.53094
-1.28935
-0.219468
0.701061
1.53793
2.2982
3.04729
3.76248
4.42881
5.01389
5.49091
5.84972
6.09086
6.2162
6.23956
6.19864
6.17026
6.21549
6.36906
6.62496
6.91944
7.2224
7.48298
7.70491
7.88322
8.0249
8.12504
8.18472
8.21116
8.21952
8.22158
8.21698
8.19594
8.13594
8.02317
7.84676
7.60777
7.32633
7.04211
6.80354
6.65186
6.59876
6.64021
6.7357
6.82046
6.89634
6.91671
6.91557
6.92177
6.95541
7.01836
7.10346
7.20391
7.31352
7.42398
7.51778
7.56548
7.53715
7.42201
7.22543
6.97819
6.72397
6.47576
6.28235
6.158
6.10871
6.1381
6.22853
6.35108
6.47686
6.59689
6.67622
6.71511
6.71846
6.6989
6.67644
6.67125
6.69659
6.75596
6.84795
6.97348
7.13314
7.31947
7.50907
7.69704
7.86977
8.02852
8.19396
8.38377
8.6112
8.88186
9.19228
9.52848
9.87257
10.2081
10.5294
10.8376
11.1255
11.3556
11.4492
11.291
10.6638
9.26623
8.40646
28.4708
28.5026
28.5975
28.7093
28.8126
28.898
28.9586
28.9894
28.9827
28.9215
28.7743
28.4933
28.0227
27.3375
26.51
25.6867
24.97
24.3914
24.0955
23.5737
23.2688
23.0988
22.9362
22.9138
23.1165
23.5275
24.0178
24.3668
24.5081
24.4938
24.381
24.2205
24.1202
24.0354
23.9806
23.9497
23.9346
23.9287
23.9297
23.9381
23.9519
23.978
24.0084
24.0296
24.0486
24.0711
24.1073
24.1315
24.1596
24.1718
24.1378
24.0636
23.9301
23.7553
23.5579
23.3622
23.1802
23.0228
22.8863
22.7468
22.5789
22.3694
22.127
21.866
21.6646
21.5469
21.5194
21.5543
21.6061
21.6494
21.6825
21.7178
21.7681
21.8394
21.9288
22.0279
22.1319
22.2464
22.3849
22.5573
22.7582
22.9727
23.1785
23.3628
23.5317
23.7012
23.8876
24.0937
24.3024
24.4682
24.5075
24.3225
23.8607
23.1854
22.5597
22.0405
21.9362
22.3062
22.8861
23.4892
23.949
24.1971
24.3363
24.461
24.6258
24.8221
25.0214
25.1686
25.0198
24.6568
24.0933
24.3032
25.1406
26.3507
27.3792
27.9121
28.1121
28.19
28.3005
28.4637
28.64
28.6789
28.6134
28.2867
27.6116
26.5046
24.8894
22.697
19.8701
16.3872
12.35
8.2312
4.57587
1.8348
0.0645062
-0.900646
-1.10846
-0.816532
-0.258992
0.38343
1.03087
1.67202
2.31507
2.95274
3.59132
4.20945
4.78381
5.28865
5.70514
6.0253
6.24991
6.3824
6.43118
6.42236
6.40714
6.44518
6.53559
6.73109
6.94863
7.17206
7.38895
7.60277
7.788
7.9744
8.12557
8.22995
8.28708
8.30765
8.30368
8.28056
8.23133
8.14295
8.00431
7.80918
7.56241
7.28442
7.01282
6.79278
6.65742
6.61632
6.65652
6.74069
6.83436
6.90007
6.91897
6.90916
6.89896
6.91693
6.97012
7.05552
7.16507
7.2883
7.41302
7.52069
7.58453
7.54976
7.43781
7.2342
6.97512
6.71988
6.4817
6.30376
6.18885
6.13917
6.15666
6.23225
6.34392
6.45887
6.56294
6.62088
6.64212
6.63574
6.61407
6.598
6.60651
6.64888
6.73048
6.84479
6.98547
7.15054
7.33675
7.51745
7.66593
7.80776
7.90711
8.0162
8.14848
8.32192
8.53945
8.7939
9.06689
9.33573
9.57984
9.78859
9.95782
10.0741
10.1022
9.95865
9.51924
8.61759
7.19197
5.67628
28.4269
28.4452
28.496
28.5589
28.6181
28.6631
28.6852
28.6766
28.6272
28.5218
28.3388
28.0519
27.6391
27.1013
26.4795
25.8464
25.2681
24.7711
24.3662
24.01
23.7126
23.4873
23.215
23.0776
23.2056
23.5575
24.1097
24.4336
24.5641
24.569
24.5159
24.4271
24.3264
24.2303
24.1458
24.0755
24.0181
23.9718
23.9354
23.9084
23.8848
23.8925
23.8999
23.9047
23.9212
23.9363
23.9407
23.9631
23.9789
23.9811
23.9566
23.8921
23.7921
23.6449
23.4764
23.3008
23.134
22.976
22.8404
22.704
22.5505
22.3648
22.1521
21.9468
21.7559
21.6355
21.5934
21.609
21.6468
21.6818
21.7083
21.7355
21.7755
21.8352
21.9131
22.0031
22.1017
22.2136
22.35
22.5196
22.7144
22.9245
23.1289
23.3069
23.4672
23.624
23.7916
23.9723
24.1481
24.2776
24.3003
24.1398
23.754
23.1867
22.5864
22.1372
22.0318
22.3051
22.8359
23.4229
23.8718
24.1282
24.2623
24.3833
24.5562
24.7798
25.0096
25.1613
25.113
24.8515
24.5481
24.7118
25.5326
26.7588
27.7155
28.0838
27.9692
27.7887
27.6849
27.6811
27.7303
27.728
27.583
27.1852
26.4476
25.3051
23.7155
21.6609
19.1524
16.2507
13.1026
9.98279
7.19637
4.97545
3.38
2.34652
1.79453
1.61767
1.67605
1.89722
2.20881
2.59415
3.02717
3.52481
4.05361
4.58498
5.08382
5.51967
5.87978
6.16032
6.36436
6.49821
6.57021
6.59733
6.60799
6.63366
6.69976
6.85627
6.98259
7.12818
7.28836
7.46966
7.69148
7.90663
8.10187
8.24791
8.33422
8.36751
8.35798
8.31849
8.24649
8.13642
7.98179
7.77963
7.53663
7.26885
7.01119
6.80691
6.6825
6.64482
6.68049
6.75763
6.85107
6.91969
6.94079
6.92776
6.90995
6.90254
6.9333
7.00431
7.11096
7.23872
7.37007
7.48874
7.55483
7.54088
7.43247
7.23193
6.97387
6.7298
6.49533
6.33839
6.24257
6.19962
6.20629
6.26048
6.34966
6.44694
6.52752
6.57013
6.57495
6.55555
6.53404
6.51996
6.53105
6.58339
6.67978
6.81182
6.96697
7.13354
7.30473
7.45855
7.59065
7.6655
7.73282
7.79615
7.88441
8.01071
8.17591
8.37323
8.583
8.78037
8.94361
9.05847
9.11885
9.0975
8.98269
8.69211
8.13357
7.21586
5.94572
4.40177
28.3457
28.3535
28.3785
28.4103
28.4371
28.4503
28.4414
28.4025
28.3245
28.1958
28.0026
27.7314
27.375
26.94
26.4522
25.9529
25.4801
25.0568
24.6918
24.3813
24.1084
23.8781
23.6721
23.4896
23.4149
23.4422
23.9697
24.2699
24.4604
24.592
24.6371
24.6157
24.5301
24.4162
24.297
24.1857
24.0859
24.0002
23.9302
23.8754
23.8335
23.7975
23.7675
23.7721
23.7757
23.7819
23.7889
23.8007
23.811
23.8134
23.7956
23.7482
23.6665
23.5488
23.4058
23.252
23.0904
22.9479
22.8146
22.6798
22.5418
22.3848
22.2159
22.0383
21.879
21.7653
21.7069
21.6993
21.7177
21.7419
21.7636
21.786
21.8179
21.8658
21.9298
22.0062
22.0937
22.1964
22.3225
22.4793
22.6631
22.8634
23.0587
23.2259
23.3754
23.5164
23.6602
23.8095
23.9476
24.0393
24.0363
23.8944
23.5879
23.1528
22.6929
22.3436
22.2372
22.4261
22.8562
23.3627
23.774
24.016
24.1445
24.2675
24.4533
24.6991
24.9497
25.118
25.1209
24.9564
24.7844
24.9883
25.8016
26.9811
27.8007
27.9036
27.5977
27.2227
26.9681
26.8523
26.8705
26.7998
26.6133
26.1725
25.4009
24.2533
22.7148
20.804
18.569
16.1025
13.5443
11.0792
8.88291
7.07252
5.67422
4.64684
3.93341
3.48813
3.2385
3.20172
3.24368
3.4157
3.66865
4.01096
4.43087
4.88697
5.33088
5.712
6.02615
6.27263
6.45691
6.5868
6.67108
6.7257
6.75811
6.79969
6.8594
6.94276
7.01476
7.09786
7.21234
7.36771
7.57811
7.81652
8.04376
8.22202
8.3325
8.38004
8.36882
8.32116
8.23515
8.11346
7.95429
7.7578
7.53327
7.27622
7.03702
6.85006
6.73126
6.68975
6.71611
6.78742
6.87019
6.94054
6.96892
6.96425
6.94137
6.92154
6.92947
6.97769
7.06799
7.18747
7.31503
7.4302
7.49178
7.48736
7.39367
7.2105
6.96967
6.7231
6.51283
6.37455
6.29803
6.26569
6.26755
6.30264
6.36554
6.43919
6.49838
6.52617
6.5208
6.49441
6.46545
6.44988
6.46173
6.51843
6.61759
6.75134
6.90969
7.06798
7.22194
7.35094
7.4431
7.49471
7.52674
7.55829
7.61142
7.69839
7.81636
7.95922
8.1078
8.24162
8.33951
8.38052
8.35377
8.25584
8.03563
7.65813
7.05499
6.16895
4.95833
3.45205
28.2446
28.2472
28.2565
28.2663
28.2692
28.2582
28.2263
28.1662
28.0706
27.9319
27.741
27.4922
27.1845
26.8248
26.4304
26.0268
25.6376
25.2805
24.9653
24.6946
24.4683
24.2896
24.1623
24.0542
23.7679
23.1991
23.5059
24.1628
24.5191
24.7099
24.78
24.7474
24.6473
24.5151
24.3746
24.2389
24.1121
23.9978
23.8978
23.8197
23.7597
23.7127
23.6788
23.6629
23.6566
23.6586
23.667
23.6797
23.6914
23.6991
23.6818
23.639
23.5636
23.4568
23.3283
23.1884
23.0462
22.9079
22.7938
22.6559
22.5596
22.4225
22.2849
22.1466
22.0169
21.9159
21.8422
21.8172
21.8158
21.8266
21.8417
21.8596
21.8847
21.922