/*--------------------------------*- C++ -*----------------------------------*\
  =========                 |
  \\      /  F ield         | OpenFOAM: The Open Source CFD Toolbox
   \\    /   O peration     | Website:  https://openfoam.org
    \\  /    A nd           | Version:  7
     \\/     M anipulation  |
\*---------------------------------------------------------------------------*/
FoamFile
{
    version     2.0;
    format      ascii;
    class       surfaceScalarField;
    location    "500";
    object      phi;
}
// * * * * * * * * * * * * * * * * * * * * * * * * * * * * * * * * * * * * * //

dimensions      [0 3 -1 0 0 0 0];

internalField   nonuniform List<scalar> 
240592
(
-1.54481e-11
9.25946e-14
1.53555e-11
3.55732e-11
-5.63801e-11
-1.60953e-11
3.69022e-11
7.81709e-11
-1.01331e-10
-1.92889e-11
4.24489e-11
-1.49221e-10
-2.02107e-11
4.42493e-11
1.25183e-10
1.73082e-10
-1.96424e-10
-1.93045e-11
4.26456e-11
2.18716e-10
-2.3983e-10
-1.73662e-11
3.84806e-11
2.59662e-10
-2.78156e-10
-1.50539e-11
3.35474e-11
2.95213e-10
-3.1085e-10
-1.32611e-11
2.88975e-11
3.24956e-10
-3.37283e-10
-1.11456e-11
2.34727e-11
3.47658e-10
-3.56067e-10
-7.82756e-12
1.62366e-11
3.62273e-10
-3.65503e-10
-4.05246e-12
7.28332e-12
3.66164e-10
-3.65528e-10
1.31704e-12
-1.9537e-12
3.6251e-10
-3.56608e-10
4.88202e-12
-1.07833e-11
-3.38118e-10
8.13118e-12
-1.84417e-11
3.48428e-10
3.25824e-10
-3.11859e-10
1.14672e-11
-2.54316e-11
2.9623e-10
-2.7907e-10
1.41793e-11
-3.13395e-11
2.60641e-10
-2.41179e-10
1.65476e-11
-3.60096e-11
2.20741e-10
-1.99658e-10
1.80153e-11
-3.90982e-11
1.78018e-10
-1.55905e-10
1.88214e-11
-4.0934e-11
1.33469e-10
-1.10793e-10
1.90252e-11
-4.17005e-11
8.77609e-11
-6.47709e-11
1.85738e-11
-4.15638e-11
4.17082e-11
-1.92939e-11
1.36052e-11
-3.60195e-11
-3.45301e-11
-3.54967e-11
1.67193e-11
5.33075e-11
-8.79178e-11
8.60012e-11
-1.38258e-10
-5.12957e-13
1.40688e-10
-9.81573e-11
1.91378e-10
-2.45875e-10
-1.93349e-12
1.54588e-10
-1.01864e-10
3.01162e-10
-3.56559e-10
-2.02633e-12
1.59288e-10
-9.79868e-11
4.11326e-10
-4.64546e-10
-1.92758e-12
1.53134e-10
-8.85878e-11
5.15251e-10
-5.63375e-10
-1.80593e-12
1.38518e-10
-7.74049e-11
6.08197e-10
-6.5002e-10
-1.67358e-12
1.20902e-10
-6.62987e-11
6.88311e-10
-7.23463e-10
-1.53508e-12
1.02985e-10
-5.37179e-11
7.5496e-10
-7.82873e-10
-1.39353e-12
8.30241e-11
-3.75726e-11
8.06421e-10
-8.25562e-10
-1.20065e-12
5.79146e-11
-1.78179e-11
8.39631e-10
-8.48736e-10
-9.60601e-13
2.78838e-11
3.28307e-12
8.52253e-10
-8.50367e-10
-6.95282e-13
-4.47417e-12
2.32097e-11
8.42997e-10
-8.30686e-10
-4.53907e-13
-3.50675e-11
4.06796e-11
8.13385e-10
-7.91367e-10
-3.00704e-13
-6.2397e-11
5.64235e-11
7.64741e-10
-7.33892e-10
-7.72544e-14
-8.7195e-11
6.98991e-11
6.98781e-10
-6.60037e-10
1.06443e-13
-1.0875e-10
8.06591e-11
6.17672e-10
-5.72564e-10
2.3711e-13
-1.26003e-10
8.78059e-11
5.24757e-10
-4.7512e-10
3.16312e-13
-1.37759e-10
9.2388e-11
4.2365e-10
-3.71076e-10
3.79456e-13
-1.45342e-10
9.47291e-11
3.17183e-10
-2.62502e-10
4.29185e-13
-1.49839e-10
9.56499e-11
2.0697e-10
-1.51086e-10
2.68854e-13
-1.51803e-10
8.32411e-11
-3.92583e-11
-6.08606e-12
-1.32245e-10
9.43478e-11
-7.36665e-11
-4.10962e-11
1.98349e-11
9.49277e-11
9.64191e-11
-1.9454e-10
-1.52516e-10
7.58078e-13
2.49879e-10
-2.11658e-10
2.08997e-10
-2.66158e-10
-6.29039e-13
2.69448e-10
-2.16584e-10
3.23133e-10
-3.79733e-10
-6.4186e-13
2.73826e-10
-2.07884e-10
4.35085e-10
-4.88851e-10
-6.4211e-13
2.62293e-10
-1.88103e-10
5.40099e-10
-5.88791e-10
-6.46657e-13
2.37442e-10
-1.64083e-10
6.34119e-10
-6.76244e-10
-6.56075e-13
2.06865e-10
-1.39102e-10
7.14519e-10
-7.49231e-10
-6.59507e-13
1.74473e-10
-1.11448e-10
7.79901e-10
-8.06707e-10
-6.6644e-13
1.38921e-10
-7.76083e-11
8.29137e-10
-8.47336e-10
-6.71232e-13
9.64784e-11
-3.77597e-11
8.60793e-10
-8.69724e-10
-6.72185e-13
4.73625e-11
4.71146e-12
8.73733e-10
-8.73059e-10
-6.72662e-13
-4.71288e-12
4.55734e-11
8.67348e-10
-8.56966e-10
-6.71599e-13
-5.52829e-11
8.27163e-11
8.41567e-10
-8.21489e-10
-6.73739e-13
-1.02121e-10
1.16787e-10
7.96471e-10
-7.66929e-10
-6.72038e-13
-1.45657e-10
1.46875e-10
7.32622e-10
-6.94205e-10
-6.62562e-13
-1.84629e-10
1.71103e-10
6.51657e-10
-6.05694e-10
-6.62496e-13
-2.16403e-10
1.88094e-10
5.56387e-10
-5.04599e-10
-6.64677e-13
-2.39217e-10
1.99047e-10
4.50504e-10
-3.9481e-10
-6.7121e-13
-2.54069e-10
2.05856e-10
3.37533e-10
-2.79397e-10
-6.75805e-13
-2.63317e-10
2.08565e-10
2.20458e-10
-1.61326e-10
-8.67578e-13
-2.6683e-10
1.81933e-10
-4.34959e-11
-7.28325e-12
-2.32992e-10
1.01838e-10
-1.17553e-10
-4.54163e-11
2.1602e-11
1.41368e-10
1.05674e-10
-3.0743e-10
-1.66141e-10
8.92775e-13
3.67004e-10
-3.28596e-10
2.26285e-10
-2.86259e-10
-6.02631e-13
3.89173e-10
-3.31789e-10
3.45322e-10
-4.03421e-10
-6.14971e-13
3.90503e-10
-3.17159e-10
4.598e-10
-5.14481e-10
-6.19972e-13
3.72459e-10
-2.87237e-10
5.66598e-10
-6.16117e-10
-6.37678e-13
3.37393e-10
-2.4996e-10
6.62157e-10
-7.048e-10
-6.47281e-13
2.93249e-10
-2.09808e-10
7.43315e-10
-7.77839e-10
-6.43542e-13
2.44976e-10
-1.65982e-10
8.07912e-10
-8.33829e-10
-6.46699e-13
1.92545e-10
-1.14909e-10
8.55227e-10
-8.72411e-10
-6.56964e-13
1.3275e-10
-5.69062e-11
8.85055e-10
-8.93471e-10
-6.61494e-13
6.59838e-11
4.3365e-12
8.97258e-10
-8.9673e-10
-6.60163e-13
-4.20496e-12
6.42019e-11
8.91482e-10
-8.81818e-10
-6.55462e-13
-7.32104e-11
1.2065e-10
8.67257e-10
-8.48113e-10
-6.56613e-13
-1.39138e-10
1.73749e-10
8.2403e-10
-7.95345e-10
-6.63016e-13
-2.01771e-10
2.21884e-10
7.61819e-10
-7.23919e-10
-6.6378e-13
-2.5912e-10
2.61613e-10
6.8155e-10
-6.35364e-10
-6.7591e-13
-3.07124e-10
2.90804e-10
5.85336e-10
-5.32205e-10
-6.8563e-13
-3.4325e-10
3.10155e-10
4.76114e-10
-4.17849e-10
-6.90868e-13
-3.6773e-10
3.2215e-10
3.57623e-10
-2.96213e-10
-6.95396e-13
-3.82865e-10
3.2651e-10
2.33837e-10
-1.7118e-10
-8.76294e-13
-3.88292e-10
2.85277e-10
-4.63852e-11
-7.70534e-12
-3.39293e-10
1.08107e-10
-1.66498e-10
-5.0083e-11
2.3506e-11
1.93075e-10
1.16651e-10
-4.29412e-10
-1.82817e-10
1.05357e-12
4.94524e-10
-4.51876e-10
2.47927e-10
-3.12231e-10
-5.88591e-13
5.16768e-10
-4.5078e-10
3.74977e-10
-4.36221e-10
-6.04878e-13
5.12629e-10
-4.28972e-10
4.95386e-10
-5.52485e-10
-6.19015e-13
4.86691e-10
-3.88594e-10
6.06827e-10
-6.58339e-10
-6.43247e-13
4.40749e-10
-3.37357e-10
7.06212e-10
-7.50386e-10
-6.45235e-13
3.82176e-10
-2.80621e-10
7.90205e-10
-8.25658e-10
-6.41015e-13
3.16715e-10
-2.19276e-10
8.56252e-10
-8.82448e-10
-6.39237e-13
2.46111e-10
-1.50565e-10
9.03855e-10
-9.20889e-10
-6.41578e-13
1.68241e-10
-7.49128e-11
9.3318e-10
-9.41008e-10
-6.45285e-13
8.33859e-11
4.29416e-12
9.43982e-10
-9.42464e-10
-6.4818e-13
-5.16462e-12
8.24524e-11
9.36068e-10
-9.25168e-10
-6.45707e-13
-9.27062e-11
1.57715e-10
9.09461e-10
-8.89309e-10
-6.35583e-13
-1.77232e-10
2.29743e-10
8.64338e-10
-8.34971e-10
-6.36967e-13
-2.58473e-10
2.96277e-10
8.00899e-10
-7.62503e-10
-6.49976e-13
-3.34024e-10
3.52781e-10
7.19551e-10
-6.72531e-10
-6.74475e-13
-3.99127e-10
3.96353e-10
6.21271e-10
-5.66336e-10
-6.86295e-13
-4.50601e-10
4.26597e-10
5.07806e-10
-4.46464e-10
-6.81711e-13
-4.87257e-10
4.45337e-10
3.82616e-10
-3.1718e-10
-6.81086e-13
-5.10091e-10
4.51961e-10
2.50505e-10
-1.83458e-10
-8.79112e-13
-5.18128e-10
3.95092e-10
-4.96419e-11
-8.20216e-12
-4.53076e-10
1.15829e-10
-2.21261e-10
-5.60736e-11
2.62179e-11
2.51117e-10
1.30151e-10
-5.63248e-10
-2.03703e-10
1.24864e-12
6.35552e-10
-5.84636e-10
2.75518e-10
-3.4582e-10
-5.74102e-13
6.55512e-10
-5.76905e-10
4.1406e-10
-4.80305e-10
-5.99611e-13
6.4375e-10
-5.46382e-10
5.4395e-10
-6.04953e-10
-6.11716e-13
6.07997e-10
-4.94411e-10
6.62685e-10
-7.17148e-10
-6.2381e-13
5.49498e-10
-4.28206e-10
7.67648e-10
-8.14196e-10
-6.26142e-13
4.7538e-10
-3.53904e-10
8.5614e-10
-8.93711e-10
-6.31291e-13
3.92107e-10
-2.73784e-10
9.26377e-10
-9.54273e-10
-6.26576e-13
3.02307e-10
-1.86427e-10
9.77077e-10
-9.95084e-10
-6.19518e-13
2.05053e-10
-9.18956e-11
1.00781e-09
-1.01548e-09
-6.21212e-13
1.00192e-10
6.55989e-12
1.01765e-09
-1.01471e-09
-6.30258e-13
-8.87348e-12
1.03908e-10
1.00634e-09
-9.93054e-10
-6.31291e-13
-1.16563e-10
1.97787e-10
9.74694e-10
-9.5175e-10
-6.18028e-13
-2.20112e-10
2.88049e-10
9.24107e-10
-8.92226e-10
-6.21779e-13
-3.19308e-10
3.72503e-10
8.55781e-10
-8.15162e-10
-6.38492e-13
-4.12483e-10
4.46211e-10
7.70103e-10
-7.20927e-10
-6.58539e-13
-4.94728e-10
5.0595e-10
6.67262e-10
-6.09566e-10
-6.6197e-13
-5.62984e-10
5.49584e-10
5.47769e-10
-4.82554e-10
-6.53056e-13
-6.14146e-10
5.7705e-10
4.14259e-10
-3.43868e-10
-6.57829e-13
-6.46783e-10
5.86727e-10
2.71853e-10
-1.99216e-10
-8.7307e-13
-6.58491e-10
5.13321e-10
-5.40432e-11
-8.94894e-12
-5.76293e-10
1.25965e-10
-2.82724e-10
-6.32323e-11
2.96909e-11
3.16266e-10
1.46347e-10
-7.12136e-10
-2.287e-10
1.47017e-12
7.93019e-10
-7.30361e-10
3.09012e-10
-3.87395e-10
-5.59344e-13
8.09303e-10
-7.13942e-10
4.63104e-10
-5.3609e-10
-5.88732e-13
7.87516e-10
-6.72213e-10
6.05708e-10
-6.72033e-10
-5.90867e-13
7.39129e-10
-6.06679e-10
7.34511e-10
-7.93243e-10
-5.93995e-13
6.66005e-10
-5.24357e-10
8.47673e-10
-8.97933e-10
-5.99829e-13
5.75216e-10
-4.31965e-10
9.43511e-10
-9.84493e-10
-6.08772e-13
4.73557e-10
-3.3234e-10
1.02035e-09
-1.0512e-09
-5.99615e-13
3.63797e-10
-2.24723e-10
1.07653e-09
-1.09643e-09
-5.92915e-13
2.45218e-10
-1.08809e-10
1.11036e-09
-1.11846e-09
-5.98187e-13
1.17511e-10
1.16885e-11
1.12026e-09
-1.11608e-09
-6.02843e-13
-1.52722e-11
1.30415e-10
1.1057e-09
-1.0897e-09
-6.08176e-13
-1.45806e-10
2.44079e-10
1.06799e-09
-1.04127e-09
-6.02579e-13
-2.702e-10
3.52387e-10
1.00948e-09
-9.7324e-10
-6.12966e-13
-3.88017e-10
4.54132e-10
9.32483e-10
-8.87639e-10
-6.23066e-13
-4.98353e-10
5.44882e-10
8.38456e-10
-7.85215e-10
-6.30216e-13
-5.97492e-10
6.21765e-10
7.27563e-10
-6.65759e-10
-6.27827e-13
-6.82941e-10
6.80863e-10
5.99545e-10
-5.29476e-10
-6.2608e-13
-7.50306e-10
7.19222e-10
4.55712e-10
-3.79278e-10
-6.31265e-13
-7.95025e-10
7.33409e-10
3.00577e-10
-2.20759e-10
-8.80519e-13
-8.12347e-10
6.42225e-10
-6.01226e-11
-9.9993e-12
-7.11987e-10
1.39883e-10
-3.51915e-10
-7.13285e-11
3.33896e-11
3.89853e-10
1.65058e-10
-8.78967e-10
-2.57855e-10
1.73745e-12
9.70026e-10
-8.92996e-10
3.48226e-10
-4.36238e-10
-5.4315e-13
9.81551e-10
-8.65199e-10
5.21009e-10
-6.02392e-10
-5.75574e-13
9.47157e-10
-8.09543e-10
6.79786e-10
-7.53289e-10
-5.69635e-13
8.83616e-10
-7.28302e-10
8.22382e-10
-8.87275e-10
-5.68373e-13
7.93764e-10
-6.2874e-10
9.47485e-10
-1.00327e-09
-5.72278e-13
6.85101e-10
-5.1754e-10
1.05408e-09
-1.09998e-09
-5.74081e-13
5.64008e-10
-3.97274e-10
1.14032e-09
-1.17514e-09
-5.66849e-13
4.32667e-10
-2.67087e-10
1.20376e-09
-1.22619e-09
-5.68694e-13
2.90088e-10
-1.26774e-10
1.24181e-09
-1.25079e-09
-5.80296e-13
1.36337e-10
1.91788e-11
1.2526e-09
-1.24762e-09
-5.85683e-13
-2.35687e-11
1.62361e-10
1.2356e-09
-1.21705e-09
-5.87869e-13
-1.80321e-10
2.98227e-10
1.19201e-09
-1.16116e-09
-5.93515e-13
-3.28485e-10
4.26141e-10
1.12449e-09
-1.08276e-09
-6.0015e-13
-4.6727e-10
5.45296e-10
1.03604e-09
-9.85057e-10
-5.97386e-13
-5.95686e-10
6.52808e-10
9.29625e-10
-8.70164e-10
-5.91026e-13
-7.11677e-10
7.46714e-10
8.06389e-10
-7.38512e-10
-5.92199e-13
-8.14e-10
8.2252e-10
6.66195e-10
-5.89801e-10
-6.06356e-13
-8.98307e-10
8.7421e-10
5.0931e-10
-4.25366e-10
-6.11619e-13
-9.57543e-10
8.95429e-10
3.38426e-10
-2.49456e-10
-8.91682e-13
-9.83507e-10
7.86034e-10
-6.82017e-11
-1.11993e-11
-8.65136e-10
1.58503e-10
-4.30241e-10
-8.04544e-11
3.75405e-11
4.73155e-10
1.86257e-10
-1.06691e-09
-2.90996e-10
2.04893e-12
1.1696e-09
-1.07564e-09
3.9297e-10
-4.92141e-10
-5.2042e-13
1.17533e-09
-1.03413e-09
5.87623e-10
-6.79175e-10
-5.53925e-13
1.12623e-09
-9.62191e-10
7.66279e-10
-8.49002e-10
-5.47252e-13
1.04546e-09
-8.63305e-10
9.26913e-10
-1.00019e-09
-5.41222e-13
9.37127e-10
-7.45126e-10
1.06838e-09
-1.13168e-09
-5.3882e-13
8.08972e-10
-6.13605e-10
1.18946e-09
-1.24166e-09
-5.36818e-13
6.66346e-10
-4.70487e-10
1.28757e-09
-1.32707e-09
-5.39267e-13
5.10532e-10
-3.14612e-10
1.35944e-09
-1.38465e-09
-5.50305e-13
3.4037e-10
-1.46559e-10
1.40219e-09
-1.41219e-09
-5.6122e-13
1.57121e-10
2.80442e-11
1.41432e-09
-1.40889e-09
-5.62701e-13
-3.29079e-11
1.99197e-10
1.39564e-09
-1.37502e-09
-5.65268e-13
-2.19257e-10
3.60662e-10
1.34697e-09
-1.31204e-09
-5.76588e-13
-3.95013e-10
5.11179e-10
1.27045e-09
-1.22286e-09
-5.81866e-13
-5.58184e-10
6.49584e-10
1.16949e-09
-1.11101e-09
-5.69527e-13
-7.07496e-10
7.74309e-10
1.04749e-09
-9.79624e-10
-5.58479e-13
-8.41612e-10
8.8514e-10
9.07151e-10
-8.30535e-10
-5.61687e-13
-9.61195e-10
9.77997e-10
7.4948e-10
-6.64272e-10
-5.77503e-13
-1.06263e-09
1.04522e-09
5.74699e-10
-4.81237e-10
-5.8153e-13
-1.1381e-09
1.07673e-09
3.84043e-10
-2.84012e-10
-9.00845e-13
-1.17586e-09
9.49441e-10
-7.81385e-11
-1.28767e-11
-1.03958e-09
1.81155e-10
-5.18672e-10
-9.06335e-11
4.24346e-11
5.66871e-10
2.09911e-10
-1.27881e-09
-3.28129e-10
2.43547e-12
1.39459e-09
-1.28134e-09
4.43244e-10
-5.55329e-10
-4.82596e-13
1.39391e-09
-1.22429e-09
6.63358e-10
-7.67129e-10
-5.26042e-13
1.32859e-09
-1.1343e-09
8.66062e-10
-9.60212e-10
-5.26924e-13
1.22897e-09
-1.01608e-09
1.0491e-09
-1.13286e-09
-5.21608e-13
1.10037e-09
-8.77379e-10
1.21097e-09
-1.28348e-09
-5.13556e-13
9.50411e-10
-7.22849e-10
1.34965e-09
-1.40931e-09
-5.15438e-13
7.83027e-10
-5.53311e-10
1.46164e-09
-1.5065e-09
-5.26767e-13
5.98691e-10
-3.6782e-10
1.54312e-09
-1.57153e-09
-5.36438e-13
3.96765e-10
-1.68401e-10
1.59129e-09
-1.60257e-09
-5.37759e-13
1.80215e-10
3.78456e-11
1.60518e-09
-1.59933e-09
-5.35129e-13
-4.31629e-11
2.40233e-10
1.58481e-09
-1.56207e-09
-5.38915e-13
-2.6243e-10
4.31087e-10
1.53106e-09
-1.49239e-09
-5.47351e-13
-4.69212e-10
6.07916e-10
1.44599e-09
-1.39264e-09
-5.49933e-13
-6.60721e-10
7.6924e-10
1.33232e-09
-1.26574e-09
-5.35789e-13
-8.35286e-10
9.13694e-10
1.19306e-09
-1.11495e-09
-5.26491e-13
-9.9127e-10
1.04257e-09
1.03146e-09
-9.43233e-10
-5.22485e-13
-1.13027e-09
1.15277e-09
8.50202e-10
-7.52884e-10
-5.30837e-13
-1.24955e-09
1.23667e-09
6.51107e-10
-5.45265e-10
-5.43334e-13
-1.34196e-09
1.28113e-09
4.35421e-10
-3.22298e-10
-9.08582e-13
-1.39335e-09
1.13555e-09
-8.8982e-11
-1.4793e-11
-1.23808e-09
2.063e-10
-6.17887e-10
-1.02031e-10
4.78277e-11
6.7209e-10
2.36455e-10
-1.51763e-09
-3.69772e-10
2.85843e-12
1.64809e-09
-1.51378e-09
4.99953e-10
-6.26935e-10
-4.44942e-13
1.64121e-09
-1.43995e-09
7.49729e-10
-8.68007e-10
-4.97721e-13
1.55872e-09
-1.33033e-09
9.81137e-10
-1.08905e-09
-5.06047e-13
1.43875e-09
-1.1908e-09
1.19109e-09
-1.28739e-09
-5.00012e-13
1.2876e-09
-1.02879e-09
1.37714e-09
-1.46036e-09
-4.8826e-13
1.11249e-09
-8.47472e-10
1.5361e-09
-1.60422e-09
-4.92575e-13
9.16091e-10
-6.4715e-10
1.66383e-09
-1.71475e-09
-5.03397e-13
6.98575e-10
-4.27626e-10
1.75632e-09
-1.78855e-09
-5.06467e-13
4.60365e-10
-1.92909e-10
1.81098e-09
-1.82393e-09
-4.99441e-13
2.06359e-10
4.86198e-11
1.82698e-09
-1.82062e-09
-5.00722e-13
-5.44842e-11
2.85589e-10
1.80463e-09
-1.77956e-09
-5.14419e-13
-3.10142e-10
5.09246e-10
1.74538e-09
-1.70252e-09
-5.25557e-13
-5.51581e-10
7.16463e-10
1.65106e-09
-1.59147e-09
-5.22363e-13
-7.75533e-10
9.05448e-10
1.5237e-09
-1.44839e-09
-5.01942e-13
-9.8026e-10
1.07434e-09
1.36544e-09
-1.27571e-09
-4.9889e-13
-1.16357e-09
1.22454e-09
1.17925e-09
-1.07703e-09
-4.97771e-13
-1.32626e-09
1.3535e-09
9.69261e-10
-8.56642e-10
-4.92045e-13
-1.46563e-09
1.45449e-09
7.3944e-10
-6.18083e-10
-4.99064e-13
-1.57535e-09
1.51277e-09
4.92826e-10
-3.64339e-10
-9.18867e-13
-1.64033e-09
1.34667e-09
-1.00394e-10
-1.66407e-11
-1.46225e-09
2.32617e-10
-7.2965e-10
-1.14894e-10
5.37162e-11
7.90828e-10
2.66611e-10
-1.78687e-09
-4.17377e-10
3.32186e-12
1.93431e-09
-1.77717e-09
5.64943e-10
-7.09282e-10
-4.21109e-13
1.92193e-09
-1.6859e-09
8.49352e-10
-9.84684e-10
-4.75537e-13
1.82171e-09
-1.55506e-09
1.11453e-09
-1.23851e-09
-4.82837e-13
1.67953e-09
-1.39152e-09
1.356e-09
-1.4667e-09
-4.83792e-13
1.5027e-09
-1.20218e-09
1.56981e-09
-1.66505e-09
-4.76049e-13
1.2979e-09
-9.89464e-10
1.7516e-09
-1.8291e-09
-4.77979e-13
1.06745e-09
-7.5349e-10
1.89682e-09
-1.95459e-09
-4.81934e-13
8.11744e-10
-4.95379e-10
2.00181e-09
-2.03841e-09
-4.82006e-13
5.32456e-10
-2.209e-10
2.06407e-09
-2.07893e-09
-4.68963e-13
2.36224e-10
6.04475e-11
2.08279e-09
-2.07591e-09
-4.67849e-13
-6.68558e-11
3.3588e-10
2.05839e-09
-2.03063e-09
-4.82757e-13
-3.63159e-10
5.96145e-10
1.9926e-09
-1.94482e-09
-4.92615e-13
-6.4343e-10
8.3793e-10
1.88723e-09
-1.82023e-09
-4.81744e-13
-9.04452e-10
1.05981e-09
1.74373e-09
-1.65817e-09
-4.64835e-13
-1.1449e-09
1.25899e-09
1.56359e-09
-1.46073e-09
-4.59991e-13
-1.36139e-09
1.43551e-09
1.34983e-09
-1.23193e-09
-4.53416e-13
-1.55296e-09
1.58614e-09
1.1074e-09
-9.77334e-10
-4.46979e-13
-1.71576e-09
1.70495e-09
8.42066e-10
-7.02517e-10
-4.46959e-13
-1.84405e-09
1.77649e-09
5.58954e-10
-4.12409e-10
-9.23073e-13
-1.92211e-09
1.5852e-09
-1.13129e-10
-1.85642e-11
-1.71625e-09
2.62738e-10
-8.55923e-10
-1.301e-10
6.0696e-11
9.25327e-10
3.02167e-10
-2.09146e-09
-4.73573e-10
3.84581e-12
2.25902e-09
-2.0766e-09
6.41596e-10
-8.06355e-10
-3.94324e-13
2.24175e-09
-1.96718e-09
9.66586e-10
-1.1218e-09
-4.44476e-13
2.12284e-09
-1.81305e-09
1.27085e-09
-1.41336e-09
-4.52936e-13
1.956e-09
-1.62193e-09
1.54831e-09
-1.67534e-09
-4.63959e-13
1.74943e-09
-1.40032e-09
1.79332e-09
-1.90206e-09
-4.60976e-13
1.50952e-09
-1.1507e-09
2.00058e-09
-2.08867e-09
-4.53721e-13
1.23925e-09
-8.73856e-10
2.16551e-09
-2.2311e-09
-4.49552e-13
9.39894e-10
-5.72142e-10
2.28472e-09
-2.32653e-09
-4.41011e-13
6.14392e-10
-2.52859e-10
2.35607e-09
-2.37351e-09
-4.33902e-13
2.70732e-10
7.32571e-11
2.37853e-09
-2.37159e-09
-4.36887e-13
-7.97655e-11
3.91872e-10
2.35246e-09
-2.32161e-09
-4.50319e-13
-4.22273e-10
6.93523e-10
2.27897e-09
-2.22503e-09
-4.52442e-13
-7.47014e-10
9.75277e-10
2.1596e-09
-2.08325e-09
-4.38876e-13
-1.0512e-09
1.23575e-09
1.9958e-09
-1.89784e-09
-4.25159e-13
-1.33328e-09
1.47091e-09
1.78952e-09
-1.67172e-09
-4.14695e-13
-1.58829e-09
1.67875e-09
1.54473e-09
-1.40954e-09
-4.09266e-13
-1.81353e-09
1.85466e-09
1.26678e-09
-1.11746e-09
-4.06185e-13
-2.00358e-09
1.9931e-09
9.62226e-10
-8.01945e-10
-4.05216e-13
-2.15298e-09
2.07777e-09
6.3744e-10
-4.69697e-10
-9.48074e-13
-2.24456e-09
1.85598e-09
-1.28558e-10
-2.09716e-11
-2.00541e-09
2.98963e-10
-9.99519e-10
-1.4855e-10
6.91343e-11
1.07893e-09
3.45168e-10
-2.43815e-09
-5.41053e-10
4.44811e-12
2.62959e-09
-2.41857e-09
7.33452e-10
-9.22109e-10
-3.89891e-13
2.60762e-09
-2.28962e-09
1.10589e-09
-1.2838e-09
-4.3084e-13
2.46796e-09
-2.10927e-09
1.45481e-09
-1.61823e-09
-4.31926e-13
2.27312e-09
-1.88588e-09
1.77282e-09
-1.91808e-09
-4.32988e-13
2.03157e-09
-1.62622e-09
2.0528e-09
-2.17675e-09
-4.33201e-13
1.7506e-09
-1.33368e-09
2.28886e-09
-2.38896e-09
-4.31893e-13
1.43421e-09
-1.01039e-09
2.47639e-09
-2.55101e-09
-4.28148e-13
1.08543e-09
-6.59681e-10
2.61231e-09
-2.66035e-09
-4.08252e-13
7.08129e-10
-2.90268e-10
2.69461e-09
-2.71535e-09
-4.11598e-13
3.11423e-10
8.60874e-11
2.72212e-09
-2.7153e-09
-4.30173e-13
-9.24784e-11
4.54246e-10
2.69441e-09
-2.65984e-09
-4.21449e-13
-4.88394e-10
8.04102e-10
2.61152e-09
-2.54965e-09
-3.94928e-13
-8.65572e-10
1.13266e-09
2.47438e-09
-2.38618e-09
-3.82622e-13
-1.22047e-09
1.43783e-09
2.2853e-09
-2.17255e-09
-3.70326e-13
-1.55021e-09
1.7138e-09
2.04815e-09
-1.91331e-09
-3.6927e-13
-1.84827e-09
1.95738e-09
1.76815e-09
-1.61392e-09
-3.63919e-13
-2.11124e-09
2.1627e-09
1.45107e-09
-1.28056e-09
-3.50192e-13
-2.33287e-09
2.32404e-09
1.10309e-09
-9.19602e-10
-3.38344e-13
-2.50719e-09
2.42303e-09
7.31045e-10
-5.38752e-10
-9.52984e-13
-2.61437e-09
2.16469e-09
-1.47523e-10
-2.40148e-11
-2.33602e-09
3.42874e-10
-1.16393e-09
-1.7078e-10
7.95147e-11
1.25519e-09
3.96531e-10
-2.83543e-09
-6.21682e-10
5.15907e-12
3.05542e-09
-2.81032e-09
8.42619e-10
-1.05929e-09
-3.75735e-13
3.02736e-09
-2.65912e-09
1.2701e-09
-1.47405e-09
-4.21398e-13
2.86348e-09
-2.44851e-09
1.67002e-09
-1.85697e-09
-4.03889e-13
2.63588e-09
-2.18735e-09
2.03383e-09
-2.19969e-09
-3.93631e-13
2.3536e-09
-1.88349e-09
2.35369e-09
-2.49519e-09
-4.00863e-13
2.02539e-09
-1.54172e-09
2.62337e-09
-2.73779e-09
-4.04374e-13
1.65655e-09
-1.16584e-09
2.83785e-09
-2.92342e-09
-3.97172e-13
1.25181e-09
-7.60369e-10
2.99396e-09
-3.04942e-09
-3.92176e-13
8.16222e-10
-3.34652e-10
3.08948e-09
-3.11405e-09
-4.09257e-13
3.59625e-10
9.88639e-11
3.12284e-09
-3.11562e-09
-4.03697e-13
-1.05678e-10
5.24715e-10
3.09226e-09
-3.05279e-09
-3.70403e-13
-5.63821e-10
9.31576e-10
2.99698e-09
-2.92534e-09
-3.34515e-13
-1.00288e-09
1.31488e-09
2.83794e-09
-2.73567e-09
-3.35397e-13
-1.41681e-09
1.67085e-09
2.619e-09
-2.48894e-09
-3.43113e-13
-1.80056e-09
1.99215e-09
2.3462e-09
-2.19162e-09
-3.36578e-13
-2.1464e-09
2.27557e-09
2.02592e-09
-1.84994e-09
-3.13142e-13
-2.45124e-09
2.5146e-09
1.66419e-09
-1.46961e-09
-2.85803e-13
-2.70889e-09
2.70304e-09
1.2668e-09
-1.0569e-09
-2.6471e-13
-2.91267e-09
2.81935e-09
8.40769e-10
-6.19999e-10
-9.88231e-13
-3.03913e-09
2.51984e-09
-1.70083e-10
-2.7714e-11
-2.71699e-09
3.94956e-10
-1.35294e-09
-1.96628e-10
9.16039e-11
1.45797e-09
4.5647e-10
-3.29143e-09
-7.15563e-10
6.02717e-12
3.5445e-09
-3.25998e-09
9.6963e-10
-1.21848e-09
-3.45544e-13
3.50917e-09
-3.08232e-09
1.46039e-09
-1.69425e-09
-4.00119e-13
3.31658e-09
-2.83637e-09
1.91864e-09
-2.13272e-09
-3.67471e-13
3.05081e-09
-2.53168e-09
2.33514e-09
-2.52543e-09
-3.64177e-13
2.72233e-09
-2.17744e-09
2.70199e-09
-2.86462e-09
-3.62397e-13
2.34043e-09
-1.77978e-09
3.01202e-09
-3.14394e-09
-3.57327e-13
1.91206e-09
-1.34418e-09
3.2594e-09
-3.35826e-09
-3.49717e-13
1.44339e-09
-8.7642e-10
3.43989e-09
-3.50419e-09
-3.66692e-13
9.41086e-10
-3.8663e-10
3.55067e-09
-3.57926e-09
-3.73865e-13
4.15585e-10
1.12846e-10
3.58933e-09
-3.58097e-09
-3.57992e-13
-1.20844e-10
6.05944e-10
3.55361e-09
-3.50749e-09
-3.19488e-13
-6.51745e-10
1.07973e-09
3.44239e-09
-3.35891e-09
-2.88859e-13
-1.16291e-09
1.52647e-09
3.25748e-09
-3.1391e-09
-2.88645e-13
-1.64456e-09
1.93972e-09
3.00441e-09
-2.8547e-09
-2.92445e-13
-2.08914e-09
2.31143e-09
2.69062e-09
-2.51339e-09
-2.79527e-13
-2.48837e-09
2.6391e-09
2.32342e-09
-2.12178e-09
-2.50192e-13
-2.84048e-09
2.91664e-09
1.90903e-09
-1.68611e-09
-2.27948e-13
-3.13933e-09
3.13698e-09
1.45382e-09
-1.2132e-09
-2.04037e-13
-3.3774e-09
3.27449e-09
9.65428e-10
-7.12131e-10
-1.03793e-12
-3.52675e-09
2.92822e-09
-1.95397e-10
-3.18571e-11
-3.15469e-09
4.53728e-10
-1.57069e-09
-2.26349e-10
1.05312e-10
1.69173e-09
5.25371e-10
-3.81602e-09
-8.23344e-10
7.00296e-12
4.10699e-09
-3.77632e-09
1.11546e-09
-1.40125e-09
-3.08999e-13
4.06243e-09
-3.56751e-09
1.67895e-09
-1.94717e-09
-3.69985e-13
3.83611e-09
-3.28067e-09
2.20462e-09
-2.4503e-09
-3.40238e-13
3.5267e-09
-2.92676e-09
2.68296e-09
-2.9018e-09
-3.31454e-13
3.14593e-09
-2.51559e-09
3.10543e-09
-3.2932e-09
-3.23658e-13
2.70368e-09
-2.05439e-09
3.46385e-09
-3.61666e-09
-3.11102e-13
2.20751e-09
-1.55037e-09
3.75058e-09
-3.86521e-09
-3.00306e-13
1.6653e-09
-1.01068e-09
3.9598e-09
-4.03411e-09
-3.15451e-13
1.08531e-09
-4.46568e-10
4.08748e-09
-4.11983e-09
-3.24773e-13
4.79233e-10
1.29828e-10
4.13054e-09
-4.11973e-09
-3.09284e-13
-1.40322e-10
7.01387e-10
4.08692e-09
-4.03245e-09
-2.72321e-13
-7.55582e-10
1.25252e-09
3.95639e-09
-3.85938e-09
-2.46472e-13
-1.34928e-09
1.77148e-09
3.74198e-09
-3.60525e-09
-2.41195e-13
-1.90797e-09
2.24941e-09
3.45009e-09
-3.27759e-09
-2.34392e-13
-2.42167e-09
2.67818e-09
3.08861e-09
-2.88441e-09
-2.25008e-13
-2.88216e-09
3.05647e-09
2.66541e-09
-2.43294e-09
-2.01369e-13
-3.28874e-09
3.37816e-09
2.18779e-09
-1.93104e-09
-1.71273e-13
-3.63474e-09
3.63498e-09
1.66388e-09
-1.3875e-09
-1.45763e-13
-3.91121e-09
3.79669e-09
1.10348e-09
-8.13454e-10
-1.09556e-12
-4.08562e-09
3.39716e-09
-2.22728e-10
-3.62732e-11
-3.65607e-09
5.17915e-10
-1.82144e-09
-2.60479e-10
1.21302e-10
1.96062e-09
6.04705e-10
-4.41821e-09
-9.47524e-10
8.1995e-12
4.75283e-09
-4.3691e-09
1.28339e-09
-1.61188e-09
-2.46069e-13
4.69783e-09
-4.12401e-09
1.93096e-09
-2.23913e-09
-3.29449e-13
4.43251e-09
-3.79052e-09
2.53517e-09
-2.81788e-09
-3.02969e-13
4.07353e-09
-3.38131e-09
3.08602e-09
-3.33842e-09
-2.83306e-13
3.634e-09
-2.90606e-09
3.57376e-09
-3.79108e-09
-2.7442e-13
3.12365e-09
-2.37246e-09
3.98879e-09
-4.16591e-09
-2.53617e-13
2.54982e-09
-1.78914e-09
4.32121e-09
-4.45403e-09
-2.41403e-13
1.9222e-09
-1.1654e-09
4.56331e-09
-4.64866e-09
-2.47303e-13
1.251e-09
-5.13829e-10
4.70947e-09
-4.74557e-09
-2.54455e-13
5.5018e-10
1.52409e-10
4.75651e-09
-4.74229e-09
-2.30541e-13
-1.66395e-10
8.14419e-10
4.70295e-09
-4.63874e-09
-2.15144e-13
-8.78413e-10
1.45343e-09
4.55006e-09
-4.4376e-09
-2.00617e-13
-1.56568e-09
2.05445e-09
4.30185e-09
-4.14405e-09
-1.76286e-13
-2.21207e-09
2.60671e-09
3.96485e-09
-3.76559e-09
-1.64161e-13
-2.80581e-09
3.10159e-09
3.54705e-09
-3.31052e-09
-1.5597e-13
-3.33796e-09
3.53867e-09
3.05697e-09
-2.78765e-09
-1.4041e-13
-3.80784e-09
3.91048e-09
2.50384e-09
-2.20709e-09
-1.01263e-13
-4.20713e-09
4.20732e-09
1.89889e-09
-1.58108e-09
-8.79664e-14
-4.52504e-09
4.39444e-09
1.25541e-09
-9.24078e-10
-1.17142e-12
-4.7246e-09
3.9323e-09
-2.5228e-10
-4.09479e-11
-4.2266e-09
5.87527e-10
-2.10994e-09
-2.99777e-10
1.39059e-10
2.27066e-09
6.96355e-10
-5.11191e-09
-1.0912e-09
9.55006e-12
5.49721e-09
-5.05045e-09
1.478e-09
-1.85605e-09
-1.70516e-13
5.42867e-09
-4.7636e-09
2.22354e-09
-2.57854e-09
-2.70281e-13
5.11888e-09
-4.37745e-09
2.91975e-09
-3.24579e-09
-2.50895e-13
4.70374e-09
-3.90574e-09
3.55512e-09
-3.84666e-09
-2.31359e-13
4.1975e-09
-3.35765e-09
4.11845e-09
-4.36952e-09
-2.07609e-13
3.60893e-09
-2.74069e-09
4.59793e-09
-4.80253e-09
-1.97369e-13
2.94549e-09
-2.06517e-09
4.98186e-09
-5.13491e-09
-1.88368e-13
2.21841e-09
-1.34271e-09
5.26062e-09
-5.35831e-09
-1.76098e-13
1.44058e-09
-5.88564e-10
5.42747e-09
-5.46777e-09
-1.57132e-13
6.29018e-10
1.8204e-10
5.47888e-09
-5.46102e-09
-1.42919e-13
-1.99753e-10
9.4766e-10
5.41414e-09
-5.3389e-09
-1.39994e-13
-1.02277e-09
1.68662e-09
5.23552e-09
-5.10489e-09
-1.33866e-13
-1.81711e-09
2.38156e-09
4.94765e-09
-4.7648e-09
-1.04395e-13
-2.56431e-09
3.02007e-09
4.55727e-09
-4.3263e-09
-8.83608e-14
-3.25094e-09
3.59243e-09
4.07281e-09
-3.79852e-09
-8.25619e-14
-3.86663e-09
4.09775e-09
3.5043e-09
-3.19203e-09
-5.8222e-14
-4.40995e-09
4.52615e-09
2.86328e-09
-2.52008e-09
-2.45959e-14
-4.86933e-09
4.86581e-09
2.16475e-09
-1.79922e-09
-1.03641e-14
-5.23132e-09
5.07731e-09
1.42605e-09
-1.04788e-09
-1.2583e-12
-5.45422e-09
4.53968e-09
-2.8551e-10
-4.65916e-11
-4.87295e-09
6.65368e-10
-2.44309e-09
-3.45642e-10
1.60505e-10
2.62823e-09
8.03094e-10
-5.91094e-09
-1.25872e-09
1.11503e-11
6.35541e-09
-5.83508e-09
1.70513e-09
-2.14176e-09
-8.69756e-14
6.27179e-09
-5.50063e-09
2.56612e-09
-2.97632e-09
-2.09559e-13
5.91103e-09
-5.05449e-09
3.37061e-09
-3.74729e-09
-2.02237e-13
5.43136e-09
-4.51097e-09
4.1047e-09
-4.44118e-09
-1.76756e-13
4.84763e-09
-3.87877e-09
4.75472e-09
-5.04392e-09
-1.404e-13
4.16812e-09
-3.16527e-09
5.30694e-09
-5.54229e-09
-1.34356e-13
3.40076e-09
-2.38269e-09
5.74831e-09
-5.9239e-09
-1.30258e-13
2.55841e-09
-1.54521e-09
6.06777e-09
-6.17926e-09
-9.99847e-14
1.6568e-09
-6.71882e-10
6.2576e-09
-6.30259e-09
-5.48029e-14
7.16926e-10
2.19423e-10
6.31399e-09
-6.29191e-09
-4.06114e-14
-2.41463e-10
1.1041e-09
6.23649e-09
-6.14824e-09
-4.35064e-14
-1.19232e-09
1.95785e-09
6.02772e-09
-5.87561e-09
-3.63962e-14
-2.10992e-09
2.76119e-09
5.69274e-09
-5.48027e-09
-1.75704e-14
-2.97365e-09
3.49971e-09
5.23925e-09
-4.9709e-09
-7.93459e-15
-3.76805e-09
4.16204e-09
4.67684e-09
-4.35866e-09
1.82184e-15
-4.48021e-09
4.74588e-09
4.01788e-09
-3.6566e-09
3.37617e-14
-5.10719e-09
5.23793e-09
3.27685e-09
-2.88116e-09
5.58812e-14
-5.63367e-09
5.62311e-09
2.47209e-09
-2.05225e-09
7.04308e-14
-6.04303e-09
5.85703e-09
1.62474e-09
-1.19244e-09
-1.34298e-12
-6.28799e-09
5.22827e-09
-3.24479e-10
-5.30394e-11
-5.60873e-09
7.57977e-10
-2.8271e-09
-3.99565e-10
1.85703e-10
3.04096e-09
9.28526e-10
-6.83322e-09
-1.45557e-09
1.29971e-11
7.34727e-09
-6.7416e-09
1.97242e-09
-2.47829e-09
-4.56441e-15
7.24747e-09
-6.35273e-09
2.97024e-09
-3.44583e-09
-1.40256e-13
6.82845e-09
-5.83684e-09
3.90286e-09
-4.33924e-09
-1.34425e-13
6.27334e-09
-5.20933e-09
4.75258e-09
-5.14115e-09
-1.10632e-13
5.59801e-09
-4.47863e-09
5.50245e-09
-5.83523e-09
-7.73058e-14
4.81149e-09
-3.65286e-09
6.13715e-09
-6.40674e-09
-6.31445e-14
3.92251e-09
-2.74614e-09
6.64224e-09
-6.84243e-09
-5.47586e-14
2.94639e-09
-1.77558e-09
7.00599e-09
-7.1321e-09
-1.14981e-14
1.9017e-09
-7.64403e-10
7.22007e-09
-7.26964e-09
3.90388e-14
8.13932e-10
2.66006e-10
7.28048e-09
-7.25292e-09
5.71603e-14
-2.93623e-10
1.28789e-09
7.18691e-09
-7.08315e-09
5.26118e-14
-1.39169e-09
2.27414e-09
6.94213e-09
-6.76454e-09
6.96603e-14
-2.4518e-09
3.20284e-09
6.55146e-09
-6.30423e-09
7.19109e-14
-3.45014e-09
4.05708e-09
6.02403e-09
-5.71272e-09
8.00539e-14
-4.36847e-09
4.82259e-09
5.37174e-09
-5.00359e-09
1.01605e-13
-5.19084e-09
5.49527e-09
4.60987e-09
-4.19326e-09
1.15458e-13
-5.912e-09
6.05811e-09
3.7562e-09
-3.30127e-09
1.2837e-13
-6.51318e-09
6.49276e-09
2.83152e-09
-2.34996e-09
1.48768e-13
-6.97447e-09
6.74892e-09
1.85997e-09
-1.36496e-09
-1.47769e-12
-7.24246e-09
6.01404e-09
-3.7113e-10
-6.07487e-11
-6.44651e-09
8.64349e-10
-3.27105e-09
-4.64174e-10
2.15407e-10
3.51982e-09
1.07713e-09
-7.90108e-09
-1.69171e-09
1.51813e-11
8.50048e-09
-7.79286e-09
2.29303e-09
-2.88188e-09
9.90934e-14
8.38161e-09
-7.34151e-09
3.45491e-09
-4.00868e-09
-5.10044e-14
7.89533e-09
-6.74357e-09
4.54055e-09
-5.0476e-09
-4.68693e-14
7.25067e-09
-6.01597e-09
5.52708e-09
-5.97663e-09
-2.8118e-14
6.46554e-09
-5.16842e-09
6.39373e-09
-6.77651e-09
2.62038e-15
5.55119e-09
-4.21083e-09
7.12284e-09
-7.43086e-09
2.49996e-14
4.51882e-09
-3.15965e-09
7.69889e-09
-7.92562e-09
4.72019e-14
3.38633e-09
-2.03519e-09
8.10973e-09
-8.25044e-09
8.47392e-14
2.17582e-09
-8.65247e-10
8.34711e-09
-8.39953e-09
1.18266e-13
9.1755e-10
3.24989e-10
8.40752e-09
-8.37133e-09
1.30297e-13
-3.61306e-10
1.50478e-09
8.29125e-09
-8.16771e-09
1.46766e-13
-1.62847e-09
2.64397e-09
8.0014e-09
-7.79325e-09
1.62314e-13
-2.85228e-09
3.7171e-09
7.54434e-09
-7.25618e-09
1.5355e-13
-4.00541e-09
4.704e-09
6.93042e-09
-6.56905e-09
1.61228e-13
-5.06553e-09
5.58675e-09
6.1743e-09
-5.74869e-09
1.87728e-13
-6.01254e-09