/*--------------------------------*- C++ -*----------------------------------*\
  =========                 |
  \\      /  F ield         | OpenFOAM: The Open Source CFD Toolbox
   \\    /   O peration     | Website:  https://openfoam.org
    \\  /    A nd           | Version:  7
     \\/     M anipulation  |
\*---------------------------------------------------------------------------*/
FoamFile
{
    version     2.0;
    format      ascii;
    class       volVectorField;
    location    "500";
    object      U;
}
// * * * * * * * * * * * * * * * * * * * * * * * * * * * * * * * * * * * * * //

dimensions      [0 1 -1 0 0 0 0];

internalField   nonuniform List<vector> 
96800
(
(-2.30212e-05 2.88945e-08 2.25976e-05)
(-8.61416e-05 1.87216e-07 2.28408e-05)
(-0.000166656 5.07458e-07 2.61616e-05)
(-0.000255642 5.16256e-07 2.7334e-05)
(-0.000344746 4.98464e-07 2.65218e-05)
(-0.000427646 4.57761e-07 2.40752e-05)
(-0.000501676 4.22858e-07 2.08373e-05)
(-0.000565184 3.37615e-07 1.78392e-05)
(-0.000617622 2.78101e-07 1.42927e-05)
(-0.000656379 2.17171e-07 9.85279e-06)
(-0.000679581 1.4041e-07 4.49863e-06)
(-0.000682051 -4.73055e-08 -1.4637e-06)
(-0.000670903 -1.20979e-07 -6.79016e-06)
(-0.000640545 -1.90152e-07 -1.15805e-05)
(-0.000594941 -2.12116e-07 -1.58736e-05)
(-0.00053665 -2.36646e-07 -1.94873e-05)
(-0.00046799 -2.54366e-07 -2.23145e-05)
(-0.000391882 -2.18048e-07 -2.42584e-05)
(-0.00031114 -2.33617e-07 -2.53918e-05)
(-0.000227325 -2.86361e-07 -2.59693e-05)
(-0.000141268 -3.74418e-07 -2.60946e-05)
(-5.83635e-05 -4.84736e-07 -2.46994e-05)
(-2.13834e-05 -1.85627e-07 8.4583e-05)
(-9.94159e-05 4.26377e-07 0.000101248)
(-0.000190461 3.9078e-07 0.000111881)
(-0.000286146 3.67057e-07 0.000116143)
(-0.00038163 3.58794e-07 0.000111809)
(-0.000469962 4.0072e-07 0.000101266)
(-0.0005481 3.73317e-07 8.85686e-05)
(-0.000614769 2.56247e-07 7.59351e-05)
(-0.000669585 1.67251e-07 6.18221e-05)
(-0.000710726 1.85148e-07 4.36266e-05)
(-0.000735672 1.7405e-07 2.15331e-05)
(-0.000741967 7.34803e-08 -2.60832e-06)
(-0.000729433 3.53925e-08 -2.49376e-05)
(-0.000699241 8.1854e-08 -4.44062e-05)
(-0.000652985 2.26203e-07 -6.19753e-05)
(-0.000592354 3.47378e-07 -7.71419e-05)
(-0.000518746 4.59172e-07 -8.94018e-05)
(-0.00043567 5.42193e-07 -9.76483e-05)
(-0.000345548 5.50036e-07 -0.000103)
(-0.000251499 3.81731e-07 -0.000105916)
(-0.000154984 4.7942e-08 -0.000106344)
(-5.89263e-05 -1.1122e-07 -9.95794e-05)
(-2.49791e-05 -2.44768e-07 0.00016299)
(-0.000111139 4.74022e-07 0.00019601)
(-0.000208736 3.02761e-07 0.000213332)
(-0.000308526 2.68133e-07 0.000218416)
(-0.000405696 2.79043e-07 0.000209731)
(-0.000495966 2.75246e-07 0.000190173)
(-0.000575486 2.45853e-07 0.000166241)
(-0.000642742 2.09164e-07 0.000141033)
(-0.000696672 1.27327e-07 0.000113128)
(-0.000736161 7.59865e-08 7.93143e-05)
(-0.000760285 6.41769e-08 3.99607e-05)
(-0.000767442 1.01338e-07 -1.7168e-06)
(-0.000757538 1.06788e-07 -4.2045e-05)
(-0.000730354 7.6904e-08 -7.88388e-05)
(-0.000686565 7.69055e-08 -0.000112873)
(-0.00062685 1.24351e-07 -0.000142763)
(-0.000552465 1.73232e-07 -0.000167116)
(-0.000466041 1.73129e-07 -0.000184141)
(-0.000370917 1.23162e-07 -0.000195421)
(-0.000270045 6.54636e-08 -0.00020243)
(-0.00016668 1.5285e-08 -0.000203661)
(-6.5146e-05 1.40133e-08 -0.000192051)
(-2.79546e-05 -3.04574e-07 0.000250712)
(-0.000121835 3.54881e-07 0.000297436)
(-0.000226486 2.18993e-07 0.000318382)
(-0.000330207 2.00055e-07 0.000321795)
(-0.000429607 1.74598e-07 0.000307548)
(-0.000521668 1.21072e-07 0.000279088)
(-0.000602991 1.32726e-07 0.000243458)
(-0.00067106 1.55992e-07 0.000204481)
(-0.000724425 1.17268e-07 0.000161864)
(-0.000762172 7.46481e-08 0.000112801)
(-0.000784736 8.26135e-08 5.76495e-05)
(-0.000791506 1.21733e-07 -1.44952e-07)
(-0.000782214 1.27953e-07 -5.66951e-05)
(-0.000756462 1.03731e-07 -0.000110447)
(-0.000714034 7.91555e-08 -0.000161187)
(-0.000655158 7.22488e-08 -0.000207286)
(-0.000580881 6.32256e-08 -0.000245501)
(-0.000492996 5.05082e-08 -0.00027393)
(-0.000394264 3.52221e-08 -0.000293065)
(-0.000287901 4.34332e-08 -0.000304697)
(-0.000177847 7.14586e-08 -0.000306562)
(-6.96761e-05 1.09086e-07 -0.00028939)
(-3.11412e-05 -3.34429e-07 0.000348086)
(-0.000134063 2.84547e-07 0.000407419)
(-0.000247835 2.21644e-07 0.000429744)
(-0.000358166 1.72833e-07 0.000429165)
(-0.000462307 1.0145e-07 0.00040823)
(-0.000558198 6.69734e-08 0.000370378)
(-0.000642885 9.15646e-08 0.0003222)
(-0.000713674 1.0086e-07 0.000268275)
(-0.000767935 9.71639e-08 0.000209893)
(-0.000805869 1.07333e-07 0.000145133)
(-0.000827309 1.21675e-07 7.44725e-05)
(-0.000832589 9.54089e-08 9.07147e-07)
(-0.000821196 9.06234e-08 -7.1731e-05)
(-0.000793448 1.23385e-07 -0.000141898)
(-0.000749531 1.17513e-07 -0.000209369)
(-0.000689369 6.77529e-08 -0.000271706)
(-0.000614218 5.40511e-09 -0.000325154)
(-0.000524208 1.31484e-08 -0.000366573)
(-0.000421316 5.23087e-08 -0.000395824)
(-0.000308593 6.80541e-08 -0.000413468)
(-0.000190857 8.9745e-08 -0.000416322)
(-7.48407e-05 9.46952e-08 -0.000393316)
(-3.49041e-05 -3.96257e-07 0.000457254)
(-0.000149212 3.34175e-07 0.000528287)
(-0.000274981 2.014e-07 0.000549881)
(-0.00039519 1.27945e-07 0.000543702)
(-0.000506963 1.00719e-07 0.000514546)
(-0.000608825 1.03891e-07 0.0004659)
(-0.000698172 9.13785e-08 0.000404174)
(-0.000773001 5.05122e-08 0.000334664)
(-0.000830773 9.25824e-08 0.000259802)
(-0.000871215 1.44965e-07 0.000178565)
(-0.000893105 1.51157e-07 9.08832e-05)
(-0.000896867 1.0688e-07 9.02359e-09)
(-0.000882061 8.90797e-08 -8.99901e-05)
(-0.000849839 1.31637e-07 -0.000176839)
(-0.000801134 1.03057e-07 -0.000260394)
(-0.000736714 4.14032e-08 -0.000338745)
(-0.000657677 -6.4813e-09 -0.000407459)
(-0.000563486 3.74743e-08 -0.000463354)
(-0.000454961 8.65093e-08 -0.000504637)
(-0.000334531 7.58596e-08 -0.000530157)
(-0.000207507 3.46339e-08 -0.000535027)
(-8.1607e-05 9.01277e-08 -0.000505959)
(-3.93317e-05 -4.5547e-07 0.00057958)
(-0.000167371 4.79753e-07 0.000662359)
(-0.000308252 1.72221e-07 0.000681711)
(-0.000441756 1.02252e-07 0.00066803)
(-0.00056423 1.19822e-07 0.00062832)
(-0.000674183 1.15998e-07 0.000567098)
(-0.000770551 6.51595e-08 0.000490748)
(-0.000851509 4.04518e-08 0.000405403)
(-0.000915084 1.16611e-07 0.000313347)
(-0.000959684 1.51224e-07 0.000214255)
(-0.000983667 1.41474e-07 0.000107396)
(-0.000986701 1.13798e-07 -3.74724e-06)
(-0.000968558 1.05553e-07 -0.000113177)
(-0.000930682 1.00295e-07 -0.000217972)
(-0.000874646 7.94757e-08 -0.000317523)
(-0.000802619 5.29599e-08 -0.000411171)
(-0.000715878 5.27019e-08 -0.00049498)
(-0.000614583 4.73182e-08 -0.000565998)
(-0.000498333 7.2996e-08 -0.000621119)
(-0.000368654 6.4825e-08 -0.000656449)
(-0.000229951 1.53074e-09 -0.000664417)
(-9.09852e-05 2.28376e-08 -0.00062877)
(-4.44562e-05 -5.08145e-07 0.000717358)
(-0.00018837 5.86069e-07 0.000812466)
(-0.000347101 1.41629e-07 0.00082896)
(-0.000496704 9.70824e-08 0.000805591)
(-0.000633246 1.27225e-07 0.000753186)
(-0.000754741 1.14067e-07 0.000677691)
(-0.00086123 7.33787e-08 0.000585879)
(-0.000951114 9.8181e-08 0.000483756)
(-0.00102248 1.47787e-07 0.000373548)
(-0.0010727 1.40704e-07 0.00025429)
(-0.00110002 1.03508e-07 0.000125249)
(-0.00110325 9.78729e-08 -9.26407e-06)
(-0.00108234 8.33781e-08 -0.000141239)
(-0.00103867 6.4562e-08 -0.000266391)
(-0.000973997 6.99933e-08 -0.000383813)
(-0.000891529 8.10404e-08 -0.000492974)
(-0.000793482 1.02654e-07 -0.00059183)
(-0.000681123 6.13902e-08 -0.000677798)
(-0.000554064 3.75614e-08 -0.000747886)
(-0.000412706 4.2802e-08 -0.000794938)
(-0.000259447 -1.19866e-08 -0.000808227)
(-0.000103318 -2.41593e-08 -0.000767015)
(-5.02108e-05 -6.01474e-07 0.000873455)
(-0.000212372 6.09402e-07 0.000981585)
(-0.00039134 1.37216e-07 0.000994066)
(-0.000559969 9.22237e-08 0.000958836)
(-0.000713847 1.08319e-07 0.000891917)
(-0.000850943 1.2491e-07 0.000800521)
(-0.000971314 1.28075e-07 0.000691929)
(-0.00107301 1.45388e-07 0.000571635)
(-0.00115402 1.3281e-07 0.000440705)
(-0.00121087 9.79226e-08 0.000298038)
(-0.00124187 7.19046e-08 0.000143728)
(-0.0012458 7.34583e-08 -1.65699e-05)
(-0.00122292 9.8172e-08 -0.000173812)
(-0.00117381 6.87573e-08 -0.000322093)
(-0.00110053 6.30521e-08 -0.000460163)
(-0.00100629 9.32158e-08 -0.000586836)
(-0.000893729 1.23435e-07 -0.000701157)
(-0.000766057 1.04761e-07 -0.000802247)
(-0.000623245 4.60642e-08 -0.000887377)
(-0.000465921 2.13463e-08 -0.000948438)
(-0.000294808 -8.38995e-08 -0.000969882)
(-0.000118456 2.35631e-09 -0.000924965)
(-5.6413e-05 -7.52347e-07 0.00104936)
(-0.00023935 5.78541e-07 0.00117234)
(-0.000441384 1.86718e-07 0.00118035)
(-0.000632241 9.4131e-08 0.00113184)
(-0.000806977 7.73515e-08 0.00104877)
(-0.000963715 1.31104e-07 0.000940248)
(-0.00110121 1.60712e-07 0.00081335)
(-0.00121753 1.4841e-07 0.000671964)
(-0.00130962 1.0558e-07 0.000516822)
(-0.00137416 7.32688e-08 0.000347038)
(-0.0014094 6.28339e-08 0.000164037)
(-0.00141415 7.08156e-08 -2.4894e-05)
(-0.0013891 8.67145e-08 -0.000210403)
(-0.00133466 6.53159e-08 -0.000385136)
(-0.00125316 7.82272e-08 -0.000547031)
(-0.00114679 1.21028e-07 -0.000694642)
(-0.00101817 1.43721e-07 -0.000827376)
(-0.000870604 1.32195e-07 -0.000945039)
(-0.000706608 9.74737e-08 -0.00104562)
(-0.000527371 2.56463e-08 -0.00112101)
(-0.000334247 -1.72147e-07 -0.00115256)
(-0.000134902 3.37986e-08 -0.00110486)
(-6.33737e-05 -9.23865e-07 0.00124658)
(-0.000269614 4.95021e-07 0.00138694)
(-0.000497942 2.19708e-07 0.00139064)
(-0.000714796 1.16431e-07 0.0013282)
(-0.000914268 9.12972e-08 0.00122781)
(-0.00109457 1.24495e-07 0.00110018)
(-0.00125253 1.54418e-07 0.000952048)
(-0.00138574 1.52791e-07 0.000786068)
(-0.0014905 1.07816e-07 0.000602517)
(-0.00156389 7.53327e-08 0.000401435)
(-0.00160392 8.24026e-08 0.000186469)
(-0.00160974 1.02889e-07 -3.42936e-05)
(-0.00158189 5.7438e-08 -0.000250742)
(-0.00152182 5.04936e-08 -0.000455096)
(-0.00143125 8.81281e-08 -0.000644526)
(-0.00131209 1.18071e-07 -0.000817673)
(-0.0011656 1.15577e-07 -0.000972881)
(-0.000994966 1.17268e-07 -0.00111002)
(-0.000804719 1.14756e-07 -0.00122759)
(-0.000597961 4.48983e-08 -0.00131812)
(-0.000377713 -1.51193e-07 -0.00136015)
(-0.00015238 6.45095e-08 -0.00130851)
(-7.13317e-05 -1.11168e-06 0.00146884)
(-0.000303917 3.57484e-07 0.00162899)
(-0.00056301 2.01926e-07 0.00162946)
(-0.000810077 1.4642e-07 0.00155259)
(-0.00103895 1.19712e-07 0.00143308)
(-0.0012464 1.03071e-07 0.00128362)
(-0.00142805 1.42925e-07 0.00111055)
(-0.0015801 1.39787e-07 0.00091585)
(-0.00169942 8.93793e-08 0.000699613)
(-0.00178268 9.03755e-08 0.000463417)
(-0.00182813 1.3466e-07 0.000212328)
(-0.00183514 1.37186e-07 -4.44066e-05)
(-0.00180448 6.73279e-08 -0.000295649)
(-0.00173772 5.15811e-08 -0.000533121)
(-0.00163664 1.02729e-07 -0.000754157)
(-0.00150185 1.36824e-07 -0.000957166)
(-0.00133488 1.3535e-07 -0.00114023)
(-0.00113872 1.42075e-07 -0.00130146)
(-0.000918908 9.93931e-08 -0.00143903)
(-0.000680584 4.64928e-09 -0.00154539)
(-0.000427767 -7.13349e-08 -0.0015972)
(-0.000172048 2.0218e-07 -0.00153954)
(-8.07376e-05 -1.30855e-06 0.00172008)
(-0.000344287 2.77326e-07 0.00190255)
(-0.000639536 1.93157e-07 0.00190043)
(-0.000922093 1.56093e-07 0.00180886)
(-0.00118507 1.0482e-07 0.00166826)
(-0.00142322 7.64401e-08 0.00149366)
(-0.00163125 1.07284e-07 0.00129109)
(-0.00180475 1.23648e-07 0.00106252)
(-0.00194003 1.09955e-07 0.000809155)
(-0.00203467 1.35712e-07 0.000533761)
(-0.0020869 1.48396e-07 0.000242193)
(-0.00209614 9.2634e-08 -5.5479e-05)
(-0.00206249 7.01424e-08 -0.000345893)
(-0.00198766 6.68658e-08 -0.00062109)
(-0.00187276 9.3519e-08 -0.000878136)
(-0.00171866 1.29325e-07 -0.00111617)
(-0.00152769 1.43463e-07 -0.00133216)
(-0.00130322 1.29457e-07 -0.00152195)
(-0.0010513 8.19913e-08 -0.00168266)
(-0.000777602 2.31701e-08 -0.00180641)
(-0.00048758 2.21895e-08 -0.00186751)
(-0.000195561 3.10252e-07 -0.00180167)
(-9.2228e-05 -1.50909e-06 0.00200636)
(-0.000392957 2.99921e-07 0.00221444)
(-0.000730884 1.57423e-07 0.00221025)
(-0.0010549 1.51294e-07 0.00210249)
(-0.00135667 1.2745e-07 0.00193793)
(-0.00162933 1.17538e-07 0.00173382)
(-0.00186694 9.05258e-08 0.00149629)
(-0.00206457 9.51986e-08 0.00122893)
(-0.00221814 1.33175e-07 0.000933628)
(-0.00232641 1.58694e-07 0.000613956)
(-0.00238717 9.85805e-08 0.000276943)
(-0.00239937 5.72834e-08 -6.58677e-05)
(-0.00236273 9.63385e-08 -0.000401747)
(-0.00227768 1.41204e-07 -0.000721137)
(-0.00214483 1.4029e-07 -0.00102117)
(-0.00196712 1.20336e-07 -0.00129977)
(-0.00174819 1.10618e-07 -0.00155231)
(-0.00149224 8.6347e-08 -0.00177439)
(-0.001205 8.10498e-08 -0.00196188)
(-0.000891732 8.51412e-08 -0.0021064)
(-0.000559376 4.81504e-08 -0.0021777)
(-0.000224312 2.64162e-07 -0.00210145)
(-0.000105962 -1.7133e-06 0.00233458)
(-0.000451136 4.44526e-07 0.00257109)
(-0.000839428 9.91015e-08 0.00256483)
(-0.00121142 1.30177e-07 0.00243807)
(-0.0015571 1.46468e-07 0.00224605)
(-0.00186872 1.26086e-07 0.00200719)
(-0.0021399 1.14496e-07 0.00172976)
(-0.00236557 8.57376e-08 0.00141788)
(-0.00254191 1.2059e-07 0.00107512)
(-0.00266635 1.30913e-07 0.000705974)
(-0.00273728 9.75053e-08 0.000318095)
(-0.0027529 7.0168e-08 -7.67912e-05)
(-0.00271168 1.4798e-07 -0.00046541)
(-0.00261323 1.85057e-07 -0.000836781)
(-0.00245903 1.06859e-07 -0.00118651)
(-0.00225351 8.06961e-08 -0.00151116)
(-0.00200197 7.42583e-08 -0.00180468)
(-0.00171037 8.55133e-08 -0.00206241)
(-0.00138262 9.47405e-08 -0.0022804)
(-0.00102482 1.39226e-07 -0.00244909)
(-0.000643635 6.19506e-08 -0.00253333)
(-0.000258519 2.29597e-07 -0.00244587)
(-0.000122105 -1.94006e-06 0.00271196)
(-0.000519045 6.028e-07 0.00298106)
(-0.000965552 5.80438e-08 0.00297137)
(-0.00139258 9.38696e-08 0.00282232)
(-0.00178836 1.2854e-07 0.00259828)
(-0.0021451 1.23543e-07 0.00232021)
(-0.00245625 1.00032e-07 0.00199714)
(-0.00271597 1.09361e-07 0.0016342)
(-0.00291957 1.3602e-07 0.00123705)
(-0.00306341 9.71247e-08 0.000811513)
(-0.00314582 4.9153e-08 0.000365405)
(-0.00316397 9.75121e-08 -8.95647e-05)
(-0.00311584 1.69736e-07 -0.000538911)
(-0.00300062 1.8531e-07 -0.000971333)
(-0.00282161 1.0753e-07 -0.0013791)
(-0.00258429 4.88263e-08 -0.00175556)
(-0.00229556 7.65712e-08 -0.00209505)
(-0.00196151 8.3376e-08 -0.0023924)
(-0.00158622 1.11227e-07 -0.00264497)
(-0.00117648 1.59813e-07 -0.00284192)
(-0.000739063 7.01579e-08 -0.00294201)
(-0.000297295 3.41422e-07 -0.00284218)
(-0.000140642 -2.25012e-06 0.0031467)
(-0.000597117 6.63703e-07 0.00345271)
(-0.00111049 6.77363e-08 0.0034382)
(-0.00160054 9.06408e-08 0.00326286)
(-0.00205441 1.5674e-07 0.00300166)
(-0.00246428 1.35824e-07 0.00267924)
(-0.0028229 8.88584e-08 0.00230431)
(-0.00312368 1.56421e-07 0.00188415)
(-0.00335956 1.7649e-07 0.00142484)
(-0.00352637 1.11494e-07 0.000933598)
(-0.00362063 7.03977e-08 0.000419577)
(-0.00363994 1.30484e-07 -0.000104967)
(-0.00358212 1.59151e-07 -0.000625727)
(-0.00344803 1.47483e-07 -0.00112848)
(-0.0032405 1.45974e-07 -0.00160162)
(-0.00296697 1.03507e-07 -0.00203695)
(-0.00263443 6.70782e-08 -0.00242811)
(-0.00224915 3.69741e-08 -0.00277144)
(-0.00181731 1.04946e-07 -0.00306395)
(-0.00134591 1.4594e-07 -0.00329327)
(-0.000844586 1.42742e-07 -0.00341104)
(-0.000339364 5.34404e-07 -0.00329673)
(-0.000161777 -2.66303e-06 0.00364679)
(-0.000686876 6.07103e-07 0.00399427)
(-0.00127752 8.86519e-08 0.00397407)
(-0.00184028 8.49368e-08 0.00376817)
(-0.0023619 1.53277e-07 0.0034651)
(-0.00283408 1.20922e-07 0.00309249)
(-0.00324874 1.10631e-07 0.00265968)
(-0.00359684 1.58154e-07 0.00217362)
(-0.00387065 1.92076e-07 0.00164212)
(-0.00406326 1.23758e-07 0.0010743)
(-0.00417022 1.27604e-07 0.000480227)
(-0.00418969 1.41711e-07 -0.0001264)
(-0.00412053 1.21813e-07 -0.000729331)
(-0.00396407 1.13686e-07 -0.00131128)
(-0.0037247 1.6474e-07 -0.00185881)
(-0.00340886 1.58099e-07 -0.0023619)
(-0.00302416 4.66729e-08 -0.00281383)
(-0.00257769 7.06164e-08 -0.0032107)
(-0.00207825 1.26094e-07 -0.00354843)
(-0.00153463 1.22028e-07 -0.00381259)
(-0.00096007 1.8629e-07 -0.00394777)
(-0.000384684 6.45186e-07 -0.0038152)
(-0.000186235 -3.15464e-06 0.00422305)
(-0.00079078 5.0703e-07 0.00461744)
(-0.00147085 1.07061e-07 0.00458981)
(-0.00211869 1.11114e-07 0.00434909)
(-0.00271987 1.23582e-07 0.00399865)
(-0.00326485 1.55357e-07 0.00356942)
(-0.0037439 1.68134e-07 0.00307073)
(-0.0041461 1.22045e-07 0.00250874)
(-0.0044621 9.87702e-08 0.00189329)
(-0.0046835 1.45553e-07 0.00123529)
(-0.0048051 1.97263e-07 0.000547738)
(-0.00482461 1.61102e-07 -0.000154135)
(-0.00474252 8.02697e-08 -0.000850977)
(-0.00456008 1.09973e-07 -0.00152364)
(-0.00428294 1.96491e-07 -0.00215628)
(-0.00391721 1.50464e-07 -0.00273778)
(-0.00347116 5.73742e-08 -0.00326098)
(-0.0029534 1.00166e-07 -0.00371994)
(-0.00237457 1.52336e-07 -0.00410891)
(-0.00174767 1.63339e-07 -0.00441019)
(-0.00108934 1.45745e-07 -0.00456089)
(-0.000435725 6.21422e-07 -0.00440334)
(-0.000214656 -3.67821e-06 0.0048879)
(-0.000911779 4.93954e-07 0.00533593)
(-0.00169645 8.81652e-08 0.00529977)
(-0.00244465 9.7065e-08 0.00501946)
(-0.00313933 8.35915e-08 0.00461446)
(-0.00376887 1.6745e-07 0.0041199)
(-0.00432102 1.95711e-07 0.00354447)
(-0.00478428 1.09168e-07 0.00289484)
(-0.00514727 2.42833e-08 0.00218181)
(-0.00540075 1.19734e-07 0.00141921)
(-0.00553867 1.91012e-07 0.000622783)
(-0.00555844 1.64447e-07 -0.000188999)
(-0.0054606 1.17408e-07 -0.000994149)
(-0.00524811 1.45953e-07 -0.00177075)
(-0.00492633 1.57479e-07 -0.00250218)
(-0.00450188 1.07875e-07 -0.00317506)
(-0.00398415 1.13783e-07 -0.00378031)
(-0.00338423 1.30966e-07 -0.0043103)
(-0.00271551 1.53074e-07 -0.0047563)
(-0.00199423 1.91747e-07 -0.00509707)
(-0.0012405 9.85721e-08 -0.00526143)
(-0.000495303 6.80626e-07 -0.00507006)
(-0.000248129 -4.25973e-06 0.00565468)
(-0.00105419 5.24328e-07 0.00616547)
(-0.00196209 8.9414e-08 0.0061208)
(-0.00282938 1.08958e-07 0.00579456)
(-0.00363475 7.60378e-08 0.00532618)
(-0.00436273 1.12036e-07 0.00475519)
(-0.0049993 1.51427e-07 0.00408982)
(-0.00553119 9.50065e-08 0.00333771)
(-0.00594611 5.33081e-08 0.00251162)
(-0.00623424 1.15786e-07 0.00162803)
(-0.00638914 1.54166e-07 0.000706194)
(-0.00640782 1.25353e-07 -0.000231909)
(-0.00629091 1.50163e-07 -0.00116189)
(-0.00604271 1.5476e-07 -0.00205953)
(-0.00566785 7.77832e-08 -0.00290505)
(-0.00517487 5.47977e-08 -0.00368326)
(-0.00457482 1.49906e-07 -0.00438221)
(-0.00388159 1.76907e-07 -0.00499218)
(-0.00311134 1.58383e-07 -0.00550162)
(-0.00228374 1.72008e-07 -0.00588581)
(-0.0014201 6.71264e-08 -0.00606271)
(-0.000566771 7.36918e-07 -0.00583076)
(-0.000288162 -4.98448e-06 0.00654289)
(-0.00122474 5.58805e-07 0.00712729)
(-0.00228078 1.33191e-07 0.00707386)
(-0.00329063 1.33306e-07 0.00669505)
(-0.00422726 8.7516e-08 0.00615198)
(-0.00507178 1.0038e-07 0.00548902)
(-0.00580646 1.39778e-07 0.00471663)
(-0.00641631 1.23771e-07 0.00384381)
(-0.00688866 1.23747e-07 0.00288597)
(-0.00721301 1.30959e-07 0.00186239)
(-0.00738305 1.55427e-07 0.000796261)
(-0.00739641 1.42665e-07 -0.000286983)
(-0.0072547 1.29402e-07 -0.00136069)
(-0.0069621 1.02743e-07 -0.00239776)
(-0.00652453 4.54364e-08 -0.00337463)
(-0.00595124 8.79968e-08 -0.00427293)
(-0.00525621 1.81673e-07 -0.00507832)
(-0.00445644 1.60674e-07 -0.00577775)
(-0.00357123 1.12485e-07 -0.0063585)
(-0.00262199 1.41563e-07 -0.00679084)
(-0.00163173 5.53162e-08 -0.00698225)
(-0.000651676 9.10704e-07 -0.00670432)
(-0.000337543 -5.85553e-06 0.00757929)
(-0.0014342 6.90803e-07 0.00824978)
(-0.00267126 1.55672e-07 0.00818699)
(-0.0038537 1.51707e-07 0.00774681)
(-0.00494861 1.38639e-07 0.00711388)
(-0.00593239 1.22944e-07 0.00633964)
(-0.00678278 1.2451e-07 0.00543828)
(-0.00748287 1.4878e-07 0.00442182)
(-0.00801845 1.63986e-07 0.00330818)
(-0.00837931 1.53987e-07 0.00212145)
(-0.0085599 1.5148e-07 0.000888389)
(-0.00856012 1.52168e-07 -0.000361871)
(-0.00838253 1.31736e-07 -0.00159983)
(-0.00803228 1.18265e-07 -0.00279584)
(-0.00751691 7.47226e-08 -0.0039229)
(-0.00684805 1.28531e-07 -0.00495844)
(-0.00604176 1.67476e-07 -0.00588363)
(-0.00511885 1.30449e-07 -0.00668332)
(-0.0041007 9.32849e-08 -0.00734271)
(-0.00301112 1.36893e-07 -0.00782967)
(-0.00187465 5.72089e-08 -0.0080384)
(-0.000749133 1.25476e-06 -0.0077082)
(-0.000399788 -6.9042e-06 0.00879935)
(-0.00169664 9.14938e-07 0.00956998)
(-0.00315798 1.47809e-07 0.00949576)
(-0.00455313 1.80984e-07 0.00898183)
(-0.00584246 2.19614e-07 0.00823938)
(-0.00699556 1.63457e-07 0.00732975)
(-0.00798513 1.10775e-07 0.00627143)
(-0.00879105 1.74484e-07 0.00508129)
(-0.00939712 1.95314e-07 0.00378211)
(-0.00979399 1.57913e-07 0.00240228)
(-0.00997759 1.37306e-07 0.000973962)
(-0.0099507 1.61826e-07 -0.000469142)
(-0.00971865 1.4985e-07 -0.00189507)
(-0.00928975 9.94246e-08 -0.00327156)
(-0.00867411 1.16215e-07 -0.00456839)
(-0.00788685 1.6781e-07 -0.00575749)
(-0.00694679 1.13546e-07 -0.00681647)
(-0.00587819 9.04138e-08 -0.00772766)
(-0.00470458 1.07e-07 -0.0084748)
(-0.00345226 1.40055e-07 -0.00902226)
(-0.00214791 7.55005e-08 -0.00925017)
(-0.000857908 1.75695e-06 -0.00885921)
(-0.000478385 -8.24464e-06 0.0102512)
(-0.00202701 1.16386e-06 0.0111385)
(-0.00376918 1.19621e-07 0.0110491)
(-0.00543118 1.81969e-07 0.0104453)
(-0.0069643 2.28511e-07 0.00956884)
(-0.00832928 1.78608e-07 0.008492)
(-0.00949206 1.35104e-07 0.00724038)
(-0.0104265 1.81588e-07 0.00583656)
(-0.0111135 2.02003e-07 0.00431073)
(-0.0115446 1.42014e-07 0.0026985)
(-0.0117193 9.18123e-08 0.00103908)
(-0.0116441 1.88996e-07 -0.00062962)
(-0.0113296 2.14586e-07 -0.00227165)
(-0.0107895 7.6971e-08 -0.00385237)
(-0.0100398 1.3423e-07 -0.00533874)
(-0.00910037 1.74501e-07 -0.00669835)
(-0.00799436 1.45708e-07 -0.00790471)
(-0.00674832 1.3674e-07 -0.00893756)
(-0.00539009 1.67311e-07 -0.00977995)
(-0.00394834 1.1109e-07 -0.0103924)
(-0.00245314 1.18185e-07 -0.0106392)
(-0.000978839 2.24806e-06 -0.0101774)
(-0.00057575 -9.93289e-06 0.0119942)
(-0.00243539 1.43138e-06 0.0130171)
(-0.00452769 1.17053e-07 0.0129083)
(-0.00652662 2.07042e-07 0.0121961)
(-0.00837121 2.03041e-07 0.0111565)
(-0.01001 1.54274e-07 0.00987283)
(-0.0113974 1.56658e-07 0.00837893)
(-0.0124968 1.62459e-07 0.006708)
(-0.0132843 1.82743e-07 0.00490052)
(-0.0137515 1.43316e-07 0.00300291)
(-0.0139027 1.0663e-07 0.00106399)
(-0.0137506 2.15765e-07 -0.000871981)
(-0.0133145 2.2473e-07 -0.00276474)
(-0.0126172 1.16268e-07 -0.00457792)
(-0.0116836 1.25412e-07 -0.00627486)
(-0.0105415 1.28932e-07 -0.00782062)
(-0.00922131 1.64726e-07 -0.00918474)
(-0.0077535 1.72212e-07 -0.0103465)
(-0.00617173 1.73324e-07 -0.0112887)
(-0.00450686 8.31516e-08 -0.0119674)
(-0.00279291 1.77899e-07 -0.0122278)
(-0.00111228 2.51002e-06 -0.0116792)
(-0.000690444 -1.19586e-05 0.014091)
(-0.0029182 1.71684e-06 0.0152755)
(-0.00543419 1.07757e-07 0.0151492)
(-0.0078508 1.54869e-07 0.0143125)
(-0.010093 1.66121e-07 0.0130788)
(-0.0120921 1.46185e-07 0.0115421)
(-0.0137827 1.76251e-07 0.00974517)
(-0.0151117 1.63782e-07 0.00773504)
(-0.0160442 1.4914e-07 0.00556956)
(-0.0165674 1.38816e-07 0.00331252)
(-0.0166896 1.59964e-07 0.00102662)
(-0.0164319 1.60066e-07 -0.00123439)
(-0.015826 1.60734e-07 -0.00342574)
(-0.0149088 2.01164e-07 -0.00550663)
(-0.01372 1.25405e-07 -0.00743908)
(-0.012301 1.04252e-07 -0.00918548)
(-0.0106941 1.3109e-07 -0.010715)
(-0.00893976 1.62875e-07 -0.0120069)
(-0.00707741 1.42842e-07 -0.0130448)
(-0.00514326 1.23749e-07 -0.0137819)
(-0.00317471 1.82138e-07 -0.0140438)
(-0.00126082 2.59659e-06 -0.013386)
(-0.000814703 -1.41784e-05 0.0165887)
(-0.00344507 1.96277e-06 0.0179718)
(-0.00643991 8.3899e-08 0.0178446)
(-0.00934758 1.07943e-07 0.0168803)
(-0.012079 1.94887e-07 0.0154301)
(-0.0145436 1.799e-07 0.0135964)
(-0.0166502 1.40089e-07 0.0114301)
(-0.018319 1.63339e-07 0.00899421)
(-0.0194913 1.64351e-07 0.00637173)
(-0.0201383 1.57816e-07 0.00365236)
(-0.020264 2.16608e-07 0.000920955)
(-0.0198951 1.00478e-07 -0.00175254)
(-0.0190778 9.00391e-08 -0.00431317)
(-0.017869 2.25237e-07 -0.00671453)
(-0.0163315 1.703e-07 -0.00891688)
(-0.01453 1.20796e-07 -0.0108816)
(-0.0125291 1.04796e-07 -0.0125793)
(-0.010388 1.4321e-07 -0.0139925)
(-0.00815877 1.40402e-07 -0.0151095)
(-0.00588645 2.11493e-07 -0.0158837)
(-0.00361186 1.66064e-07 -0.0161218)
(-0.00142856 2.7245e-06 -0.0153217)
(-0.000933879 -1.6327e-05 0.0195)
(-0.00395658 2.1163e-06 0.0211313)
(-0.00743799 2.88e-08 0.021041)
(-0.0108718 1.08758e-07 0.0199709)
(-0.014158 2.09101e-07 0.0183071)
(-0.0171891 1.85801e-07 0.016155)
(-0.0198464 1.38845e-07 0.013567)
(-0.0220142 1.5634e-07 0.0106203)
(-0.0235933 1.48665e-07 0.00742623)
(-0.0245171 1.96116e-07 0.00411051)
(-0.0247626 2.30201e-07 0.000792634)
(-0.0243474 8.33527e-08 -0.00242783)
(-0.0233253 6.71634e-08 -0.00547405)
(-0.0217759 1.78654e-07 -0.00828734)
(-0.019792 1.84175e-07 -0.010821)
(-0.0174752 1.39355e-07 -0.0130365)
(-0.0149281 1.4094e-07 -0.0149069)
(-0.0122475 1.44536e-07 -0.0164223)
(-0.00951425 1.2302e-07 -0.0175822)
(-0.00679331 2.50824e-07 -0.0183484)
(-0.00413157 1.81719e-07 -0.018515)
(-0.00162485 3.02586e-06 -0.0175228)
(-0.0010304 -1.79513e-05 0.0227791)
(-0.00437956 2.19371e-06 0.0247188)
(-0.00828802 1.63743e-08 0.0247265)
(-0.0122147 1.21613e-07 0.0236038)
(-0.0160589 1.70076e-07 0.0217696)
(-0.019708 1.81128e-07 0.0193239)
(-0.0230256 1.6777e-07 0.0163086)
(-0.0258627 1.03961e-07 0.0128027)
(-0.0280684 9.9964e-08 0.00893861)
(-0.0295155 2.07677e-07 0.00487964)
(-0.0301193 1.81713e-07 0.000793476)
(-0.0298522 1.42236e-07 -0.0031696)
(-0.0287479 1.35938e-07 -0.00688869)
(-0.0268949 1.24744e-07 -0.0102732)
(-0.0244201 1.7965e-07 -0.0132623)
(-0.0214672 1.76554e-07 -0.0158056)
(-0.018197 2.23879e-07 -0.0178762)
(-0.0147687 1.90751e-07 -0.0194741)
(-0.0113242 1.36522e-07 -0.0206199)
(-0.00797547 2.59337e-07 -0.0212994)
(-0.00479069 2.4059e-07 -0.0213092)
(-0.00186937 3.65502e-06 -0.0200465)
(-0.00108997 -1.89349e-05 0.0263254)
(-0.00465373 2.17124e-06 0.0286377)
(-0.0088701 1.79321e-08 0.0288187)
(-0.0131854 1.13216e-07 0.0277234)
(-0.0175088 1.30267e-07 0.0258016)
(-0.0217362 1.74511e-07 0.023142)
(-0.0257326 1.75089e-07 0.0197623)
(-0.0293344 9.52868e-08 0.0157238)
(-0.0323532 1.38557e-07 0.0111571)
(-0.0345946 1.86134e-07 0.00624762)
(-0.035884 1.30442e-07 0.00121019)
(-0.0360996 1.98985e-07 -0.00373723)
(-0.0352007 1.95456e-07 -0.00839827)
(-0.0332417 9.6645e-08 -0.0126141)
(-0.030359 1.71431e-07 -0.016276)
(-0.0267509 2.05995e-07 -0.0193145)
(-0.0226361 2.33824e-07 -0.0216811)
(-0.0182592 2.15405e-07 -0.0233804)
(-0.013855 2.70899e-07 -0.0244564)
(-0.00962386 3.038e-07 -0.0249358)
(-0.00569828 2.82382e-07 -0.0246503)
(-0.00220155 4.59882e-06 -0.0229929)
(-0.00110629 -1.8972e-05 0.0300043)
(-0.00475325 2.16714e-06 0.0327508)
(-0.00912847 -4.11271e-08 0.033184)
(-0.0136835 5.65367e-08 0.0322054)
(-0.0183403 1.07257e-07 0.030298)
(-0.0230094 1.55173e-07 0.0275384)
(-0.0275724 1.63677e-07 0.0239149)
(-0.0318799 8.43604e-08 0.019454)
(-0.0357393 1.3831e-07 0.0142565)
(-0.0389189 1.47307e-07 0.00849382)
(-0.0411637 1.20121e-07 0.00239766)
(-0.0422323 1.85121e-07 -0.00375619)
(-0.0419483 2.20092e-07 -0.0096715)
(-0.0402581 1.62562e-07 -0.0150728)
(-0.0372492 1.5215e-07 -0.0197469)
(-0.0331394 2.51805e-07 -0.0235577)
(-0.0282211 1.99659e-07 -0.0264253)
(-0.0228245 1.67348e-07 -0.0283324)
(-0.0172931 3.52116e-07 -0.0293423)
(-0.011939 3.58091e-07 -0.0295237)
(-0.00700053 3.97447e-07 -0.0287707)
(-0.0026788 5.66787e-06 -0.02654)
(-0.00108127 -1.81587e-05 0.0336737)
(-0.00468348 2.10574e-06 0.0369111)
(-0.00907023 -9.3498e-08 0.0376696)
(-0.0137066 4.30636e-08 0.0368888)
(-0.0185199 1.1435e-07 0.0350885)
(-0.0234316 1.00825e-07 0.0323385)
(-0.0283434 1.44409e-07 0.0286034)
(-0.033135 1.43411e-07 0.023874)
(-0.0376438 1.12201e-07 0.0182031)
(-0.041652 1.22777e-07 0.011712)
(-0.0448816 1.69558e-07 0.00459871)
(-0.0470101 1.58988e-07 -0.00285073)
(-0.0477212 1.88591e-07 -0.0102647)
(-0.0467828 2.08262e-07 -0.0172251)
(-0.04413 1.53188e-07 -0.0233453)
(-0.0399025 2.27793e-07 -0.0283313)
(-0.034432 1.72029e-07 -0.0320288)
(-0.0281306 1.30514e-07 -0.0343635)
(-0.0214738 3.04531e-07 -0.0354107)
(-0.014897 4.04099e-07 -0.0352821)
(-0.00874605 5.50555e-07 -0.0339397)
(-0.00333165 6.55814e-06 -0.030944)
(-0.00101971 -1.66844e-05 0.0372068)
(-0.00446498 1.90874e-06 0.0409849)
(-0.00873042 -1.44427e-07 0.0421294)
(-0.0132972 1.03979e-08 0.041608)
(-0.0180887 1.03792e-07 0.0399781)
(-0.023028 8.52291e-08 0.0373133)
(-0.0280289 1.0367e-07 0.0335649)
(-0.0329982 1.57863e-07 0.0287008)
(-0.0378169 1.0855e-07 0.0227307)
(-0.0423207 7.35147e-08 0.0157134)
(-0.0462779 1.39663e-07 0.00777726)
(-0.0493759 1.60025e-07 -0.000845673)
(-0.0512384 1.66674e-07 -0.00978193)
(-0.0514765 2.05045e-07 -0.0185432)
(-0.0497558 1.80493e-07 -0.0265208)
(-0.0460277 1.67084e-07 -0.0332003)
(-0.040488 1.3721e-07 -0.0381997)
(-0.033598 1.30512e-07 -0.0413354)
(-0.0259619 2.08277e-07 -0.0426382)
(-0.0181914 4.16071e-07 -0.0422864)
(-0.0107656 5.84389e-07 -0.0403352)
(-0.00410556 7.45785e-06 -0.0364362)
(-0.000924845 -1.45325e-05 0.0404911)
(-0.00411289 1.596e-06 0.0448531)
(-0.00813189 -1.84822e-07 0.0464283)
(-0.0124832 -3.81168e-09 0.0462032)
(-0.0170789 1.00747e-07 0.0447744)
(-0.0218368 9.21911e-08 0.0422271)
(-0.026675 4.29218e-08 0.0385139)
(-0.0315208 1.44306e-07 0.0335954)
(-0.0362956 1.44524e-07 0.0274607)
(-0.0409008 1.02452e-07 0.0201211)
(-0.0451884 1.13243e-07 0.01163)
(-0.048928 1.36588e-07 0.00212623)
(-0.0517729 1.07001e-07 -0.00810019)
(-0.0532687 1.46216e-07 -0.0185595)
(-0.0529726 2.09204e-07 -0.0286503)
(-0.0504351 1.32015e-07 -0.0374904)
(-0.0455467 1.07355e-07 -0.0444144)
(-0.0386254 1.61152e-07 -0.0489239)
(-0.0303362 1.85383e-07 -0.0508824)
(-0.0215063 4.24149e-07 -0.0505091)
(-0.0128332 4.48641e-07 -0.0480047)
(-0.00491296 8.54085e-06 -0.0431106)
(-0.00079594 -1.16187e-05 0.043419)
(-0.0036278 1.30755e-06 0.0484024)
(-0.00726915 -2.73887e-07 0.0504314)
(-0.0112493 -1.21138e-08 0.0505136)
(-0.0154662 6.03498e-08 0.0492875)
(-0.0198328 6.71934e-08 0.0468579)
(-0.0242745 7.85287e-08 0.0431913)
(-0.0287378 1.02759e-07 0.0382577)
(-0.0331815 1.13624e-07 0.0320477)
(-0.0375657 9.27766e-08 0.0245515)
(-0.0418262 7.32469e-08 0.0157681)
(-0.045837 9.18721e-08 0.00574133)
(-0.0493583 5.69623e-08 -0.00537556)