/*--------------------------------*- C++ -*----------------------------------*\
  =========                 |
  \\      /  F ield         | OpenFOAM: The Open Source CFD Toolbox
   \\    /   O peration     | Website:  https://openfoam.org
    \\  /    A nd           | Version:  7
     \\/     M anipulation  |
\*---------------------------------------------------------------------------*/
FoamFile
{
    version     2.0;
    format      ascii;
    class       volScalarField;
    location    "15";
    object      ddt0(h);
}
// * * * * * * * * * * * * * * * * * * * * * * * * * * * * * * * * * * * * * //

dimensions      [0 1 -1 0 0 0 0];

internalField   nonuniform List<scalar> 
400
(
1.96282e-07
1.72415e-07
1.41277e-07
1.22957e-07
8.24001e-08
3.83208e-08
-3.96836e-09
-4.29361e-08
-7.03367e-08
-9.7017e-08
-1.14437e-07
-1.16526e-07
-1.14642e-07
-1.09517e-07
-9.62412e-08
-7.64669e-08
-5.70064e-08
-4.05419e-08
-2.61697e-08
-9.13223e-09
1.62316e-07
1.4568e-07
1.33053e-07
8.23039e-08
5.30033e-08
1.49343e-08
-1.35844e-08
-4.6815e-08
-6.79035e-08
-8.65689e-08
-1.00212e-07
-1.00481e-07
-9.73484e-08
-9.52034e-08
-8.62406e-08
-7.21397e-08
-5.76998e-08
-4.37049e-08
-2.88893e-08
-1.00734e-08
1.66383e-07
1.54096e-07
1.35878e-07
1.16173e-07
8.67926e-08
5.07987e-08
1.37952e-08
-1.16333e-08
-4.07259e-08
-6.1425e-08
-7.59039e-08
-8.8204e-08
-9.46455e-08
-9.08865e-08
-8.31867e-08
-7.40449e-08
-6.47797e-08
-5.16628e-08
-3.34641e-08
-1.10231e-08
1.11993e-07
1.02937e-07
8.85236e-08
7.54476e-08
5.50768e-08
3.42564e-08
7.27164e-09
-1.10351e-08
-2.78614e-08
-4.67128e-08
-5.65113e-08
-6.61624e-08
-7.19043e-08
-7.33169e-08
-7.23939e-08
-7.07446e-08
-6.67554e-08
-5.56029e-08
-3.70244e-08
-1.27737e-08
7.96805e-08
7.65843e-08
7.62931e-08
6.52151e-08
6.11998e-08
3.78703e-08
3.09514e-08
1.26812e-08
2.65213e-09
-9.55087e-09
-2.54893e-08
-3.93763e-08
-4.73377e-08
-5.33746e-08
-6.08494e-08
-6.60181e-08
-6.48833e-08
-5.46348e-08
-3.65553e-08
-1.25125e-08
4.32351e-08
5.51735e-08
4.69846e-08
5.65831e-08
4.09287e-08
5.25271e-08
3.66661e-08
3.79769e-08
2.17371e-08
1.23931e-08
-2.75592e-09
-1.89628e-08
-3.06131e-08
-4.22706e-08
-5.39535e-08
-5.99946e-08
-5.72965e-08
-4.67578e-08
-3.18493e-08
-1.15851e-08
1.5176e-08
2.44039e-08
3.34327e-08
3.59842e-08
5.1981e-08
4.62466e-08
4.75856e-08
3.75712e-08
3.71598e-08
2.06616e-08
4.41374e-09
-3.66895e-09
-1.37497e-08
-2.88461e-08
-4.3749e-08
-5.09644e-08
-4.75047e-08
-3.63941e-08
-2.3028e-08
-7.84093e-09
-3.44971e-09
4.09602e-09
1.38668e-08
3.11159e-08
3.00082e-08
4.16115e-08
3.5386e-08
3.9492e-08
2.92801e-08
2.36736e-08
1.58897e-08
1.60799e-09
-1.34132e-08
-2.42028e-08
-3.10038e-08
-3.48599e-08
-3.34911e-08
-2.56356e-08
-1.50075e-08
-4.60718e-09
-8.16251e-09
-2.85514e-09
4.48471e-09
1.26163e-08
2.6603e-08
2.10847e-08
2.58308e-08
2.32426e-08
2.03945e-08
1.42441e-08
3.9161e-09
-6.06651e-09
-1.12732e-08
-1.29056e-08
-1.48167e-08
-1.78788e-08
-1.90028e-08
-1.5389e-08
-8.97832e-09
-2.68378e-09
-3.51187e-09
-6.52602e-10
7.59736e-10
-1.47083e-09
1.09785e-08
1.49951e-08
1.48266e-08
1.53915e-08
1.05696e-08
4.61334e-09
4.16343e-09
2.49947e-09
-9.10967e-10
-4.07791e-09
-5.81395e-09
-6.57352e-09
-6.48075e-09
-5.00297e-09
-2.66347e-09
-6.22466e-10
3.28084e-09
4.86421e-10
-8.8663e-10
1.35208e-09
-1.10456e-08
-1.50276e-08
-1.48129e-08
-1.5347e-08
-1.05287e-08
-4.58101e-09
-4.12962e-09
-2.46702e-09
9.33766e-10
4.10958e-09
5.88087e-09
6.68418e-09
6.61855e-09
5.12445e-09
2.73838e-09
6.46088e-10
7.96937e-09
2.66693e-09
-4.65497e-09
-1.27148e-08
-2.66356e-08
-2.1114e-08
-2.58208e-08
-2.32459e-08
-2.03752e-08
-1.42161e-08
-3.92846e-09
6.05131e-09
1.13011e-08
1.29727e-08
1.49021e-08
1.79779e-08
1.91142e-08
1.54909e-08
9.05045e-09
2.7112e-09
3.27208e-09
-4.29264e-09
-1.40341e-08
-3.11968e-08
-3.01039e-08
-4.16048e-08
-3.53979e-08
-3.94414e-08
-2.92589e-08
-2.36384e-08
-1.58394e-08
-1.58501e-09
1.34347e-08
2.42578e-08
3.10787e-08
3.49333e-08
3.35632e-08
2.57083e-08
1.50737e-08
4.63625e-09
-1.53555e-08
-2.45659e-08
-3.35703e-08
-3.61413e-08
-5.20589e-08
-4.6292e-08
-4.75935e-08
-3.7569e-08
-3.71056e-08
-2.06389e-08
-4.39185e-09
3.7018e-09
1.3787e-08
2.88792e-08
4.37717e-08
5.09849e-08
4.75386e-08
3.64453e-08
2.30869e-08
7.87075e-09
-4.34115e-08
-5.5302e-08
-4.71059e-08
-5.67002e-08
-4.10296e-08
-5.25991e-08
-3.66871e-08
-3.79752e-08
-2.17251e-08
-1.23527e-08
2.7854e-09
1.89821e-08
3.06308e-08
4.22839e-08
5.39622e-08
6.00062e-08
5.73176e-08
4.67848e-08
3.18748e-08
1.15961e-08
-7.98195e-08
-7.67274e-08
-7.64096e-08
-6.53128e-08
-6.12837e-08
-3.79207e-08
-3.09702e-08
-1.26781e-08
-2.62159e-09
9.58921e-09
2.55311e-08
3.9412e-08
4.73668e-08
5.33955e-08
6.08598e-08
6.60182e-08
6.48741e-08
5.462e-08
3.65412e-08
1.25064e-08
-1.1212e-07
-1.03063e-07
-8.86388e-08
-7.55286e-08
-5.51639e-08
-3.42979e-08
-7.2961e-09
1.10711e-08
2.78869e-08
4.67812e-08
5.65861e-08
6.62181e-08
7.19415e-08
7.33353e-08
7.23908e-08
7.07159e-08
6.67069e-08
5.55559e-08
3.69994e-08
1.27695e-08
-1.66508e-07
-1.54183e-07
-1.36003e-07
-1.16249e-07
-8.68508e-08
-5.0867e-08
-1.38019e-08
1.16392e-08
4.07706e-08
6.15037e-08
7.59886e-08
8.8284e-08
9.47022e-08
9.09139e-08
8.31831e-08
7.40102e-08
6.47191e-08
5.16009e-08
3.34309e-08
1.10159e-08
-1.62388e-07
-1.45757e-07
-1.33087e-07
-8.24532e-08
-5.30832e-08
-1.502e-08
1.35205e-08
4.67968e-08
6.79706e-08
8.66448e-08
1.00307e-07
1.00579e-07
9.74097e-08
9.52129e-08
8.62106e-08
7.20792e-08
5.76178e-08
4.36236e-08
2.88368e-08
1.00608e-08
-1.96317e-07
-1.72509e-07
-1.41398e-07
-1.23034e-07
-8.25068e-08
-3.83693e-08
3.9566e-09
4.29552e-08
7.03879e-08
9.70997e-08
1.14543e-07
1.1664e-07
1.14721e-07
1.09542e-07
9.62189e-08
7.64093e-08
5.69225e-08
4.04501e-08
2.60973e-08
9.10367e-09
)
;

boundaryField
{
    sides
    {
        type            calculated;
        value           nonuniform List<scalar> 
40
(
-1.96317e-07
-1.72509e-07
-1.41398e-07
-1.23034e-07
-8.25068e-08
-3.83693e-08
3.9566e-09
4.29552e-08
7.03879e-08
9.70997e-08
1.14543e-07
1.1664e-07
1.14721e-07
1.09542e-07
9.62189e-08
7.64093e-08
5.69225e-08
4.04501e-08
2.60973e-08
9.10367e-09
1.96282e-07
1.72415e-07
1.41277e-07
1.22957e-07
8.24001e-08
3.83208e-08
-3.96836e-09
-4.29361e-08
-7.03367e-08
-9.7017e-08
-1.14437e-07
-1.16526e-07
-1.14642e-07
-1.09517e-07
-9.62412e-08
-7.64669e-08
-5.70064e-08
-4.05419e-08
-2.61697e-08
-9.13223e-09
)
;
    }
    inlet
    {
        type            calculated;
        value           nonuniform List<scalar> 
20
(
1.96282e-07
1.62316e-07
1.66383e-07
1.11993e-07
7.96805e-08
4.32351e-08
1.5176e-08
-3.44971e-09
-8.16251e-09
-3.51187e-09
3.28084e-09
7.96937e-09
3.27208e-09
-1.53555e-08
-4.34115e-08
-7.98195e-08
-1.1212e-07
-1.66508e-07
-1.62388e-07
-1.96317e-07
)
;
    }
    outlet
    {
        type            calculated;
        value           uniform 0;
    }
    frontAndBack
    {
        type            empty;
    }
}


// ************************************************************************* //
