/*--------------------------------*- C++ -*----------------------------------*\
  =========                 |
  \\      /  F ield         | OpenFOAM: The Open Source CFD Toolbox
   \\    /   O peration     | Website:  https://openfoam.org
    \\  /    A nd           | Version:  7
     \\/     M anipulation  |
\*---------------------------------------------------------------------------*/
FoamFile
{
    version     2.0;
    format      ascii;
    class       volVectorField;
    location    "15";
    object      ddt0(hU);
}
// * * * * * * * * * * * * * * * * * * * * * * * * * * * * * * * * * * * * * //

dimensions      [0 2 -2 0 0 0 0];

internalField   nonuniform List<vector> 
400
(
(3.54388e-09 6.4014e-09 0)
(-2.87002e-09 8.23973e-09 0)
(-6.28681e-09 1.08297e-08 0)
(-5.71737e-09 1.61358e-08 0)
(-1.00696e-08 1.88866e-08 0)
(-1.01693e-08 1.72712e-08 0)
(-8.61555e-09 1.34398e-08 0)
(-9.87754e-09 8.27875e-09 0)
(-6.53614e-09 1.47964e-09 0)
(4.25773e-09 -5.33334e-09 0)
(1.88808e-08 -7.6709e-09 0)
(3.0707e-08 -3.45621e-09 0)
(3.60555e-08 5.05682e-09 0)
(3.22829e-08 1.19231e-08 0)
(2.32682e-08 1.37009e-08 0)
(1.03939e-08 1.41407e-08 0)
(-6.19939e-09 9.30556e-09 0)
(-1.18028e-08 7.79536e-09 0)
(-2.66658e-08 1.54174e-09 0)
(-1.29177e-08 -8.74525e-09 0)
(3.22941e-09 1.07651e-08 0)
(9.4137e-10 1.72597e-08 0)
(-1.06755e-09 1.8109e-08 0)
(-5.80302e-09 2.22952e-08 0)
(-1.16935e-08 2.71666e-08 0)
(-1.45573e-08 2.83634e-08 0)
(-1.431e-08 2.45918e-08 0)
(-1.66617e-08 1.82876e-08 0)
(-1.35966e-08 8.93278e-09 0)
(-1.21212e-09 -1.21206e-09 0)
(1.74348e-08 -7.82477e-09 0)
(3.46054e-08 -9.45151e-09 0)
(4.26778e-08 -5.63009e-09 0)
(3.80564e-08 3.69708e-09 0)
(2.54827e-08 1.13717e-08 0)
(7.82528e-09 1.61348e-08 0)
(-1.22033e-08 1.21754e-08 0)
(-1.95644e-08 7.31653e-09 0)
(-3.09421e-08 9.52696e-10 0)
(-1.31304e-08 -1.03356e-08 0)
(3.15218e-09 1.74391e-08 0)
(1.39944e-09 2.43565e-08 0)
(-1.86334e-09 2.57251e-08 0)
(-4.54269e-09 3.28493e-08 0)
(-8.02916e-09 4.0389e-08 0)
(-8.34655e-09 4.0619e-08 0)
(-7.19124e-09 3.42896e-08 0)
(-7.16727e-09 2.13118e-08 0)
(-5.43643e-09 4.46146e-09 0)
(4.05989e-09 -1.38583e-08 0)
(1.48503e-08 -2.2957e-08 0)
(2.06567e-08 -1.9295e-08 0)
(2.50209e-08 -4.79583e-09 0)
(2.67235e-08 1.48527e-08 0)
(2.31133e-08 2.86268e-08 0)
(1.3053e-08 3.69084e-08 0)
(-1.618e-09 2.78111e-08 0)
(-7.7188e-09 1.88956e-08 0)
(-2.11172e-08 -6.95177e-10 0)
(-7.96966e-09 -2.53773e-08 0)
(2.32303e-10 2.48506e-08 0)
(1.8039e-09 3.39269e-08 0)
(1.54971e-09 3.83967e-08 0)
(-2.76664e-09 5.06637e-08 0)
(-9.70809e-09 6.05559e-08 0)
(-1.31571e-08 5.95763e-08 0)
(-1.55179e-08 5.1189e-08 0)
(-1.79583e-08 3.39227e-08 0)
(-1.5896e-08 1.01771e-08 0)
(-4.01199e-09 -1.32066e-08 0)
(1.65213e-08 -2.60517e-08 0)
(3.19355e-08 -2.15698e-08 0)
(3.79899e-08 -1.11517e-09 0)
(3.39962e-08 2.56126e-08 0)
(2.28513e-08 4.2333e-08 0)
(6.74778e-09 5.22368e-08 0)
(-1.10383e-08 4.04446e-08 0)
(-1.75586e-08 2.85837e-08 0)
(-2.86228e-08 4.11345e-09 0)
(-1.04679e-08 -3.06947e-08 0)
(-3.05505e-10 2.25059e-08 0)
(3.50342e-09 3.62927e-08 0)
(2.78477e-09 4.20457e-08 0)
(-4.00498e-09 5.30665e-08 0)
(-8.1909e-09 6.21479e-08 0)
(-9.45339e-09 6.41171e-08 0)
(-7.78087e-09 5.47914e-08 0)
(-9.98855e-09 3.58312e-08 0)
(-7.71244e-09 7.98234e-09 0)
(-2.57741e-10 -1.96352e-08 0)
(6.61091e-09 -3.43701e-08 0)
(1.17478e-08 -2.91271e-08 0)
(1.81995e-08 -4.70106e-09 0)
(2.18687e-08 2.75713e-08 0)
(1.96368e-08 4.94809e-08 0)
(1.18011e-08 6.31816e-08 0)
(7.02265e-10 5.03956e-08 0)
(-4.29754e-09 3.64861e-08 0)
(-1.45615e-08 4.45748e-09 0)
(-3.5209e-09 -3.79313e-08 0)
(-1.52224e-09 1.81402e-08 0)
(5.28369e-09 3.38878e-08 0)
(4.67703e-09 4.36047e-08 0)
(-2.19111e-09 5.61163e-08 0)
(-9.01603e-09 6.51015e-08 0)
(-9.81804e-09 6.59186e-08 0)
(-1.34086e-08 5.48785e-08 0)
(-1.53578e-08 3.14567e-08 0)
(-1.52968e-08 -1.67318e-10 0)
(-5.22921e-09 -3.13804e-08 0)
(9.88513e-09 -4.62217e-08 0)
(2.16068e-08 -3.38332e-08 0)
(2.76651e-08 9.25508e-10 0)
(2.57143e-08 4.18178e-08 0)
(1.82236e-08 6.76524e-08 0)
(7.30769e-09 8.2961e-08 0)
(-4.76682e-09 6.5579e-08 0)
(-9.98974e-09 4.72146e-08 0)
(-1.98789e-08 5.91474e-09 0)
(-5.77112e-09 -4.70796e-08 0)
(-1.60581e-09 1.07511e-08 0)
(4.84492e-09 2.84094e-08 0)
(4.6573e-09 4.20087e-08 0)
(-3.19264e-09 5.32473e-08 0)
(-6.91446e-09 6.22454e-08 0)
(-8.46464e-09 6.50194e-08 0)
(-9.05641e-09 5.65918e-08 0)
(-1.07861e-08 3.46725e-08 0)
(-7.77471e-09 2.70338e-09 0)
(-3.23392e-09 -2.86837e-08 0)
(2.68903e-09 -4.30662e-08 0)
(9.42828e-09 -3.09935e-08 0)
(1.44898e-08 3.19892e-09 0)
(1.5554e-08 4.49297e-08 0)
(1.33462e-08 7.32851e-08 0)
(8.81423e-09 9.15964e-08 0)
(2.80719e-09 7.48331e-08 0)
(1.30317e-11 5.52736e-08 0)
(-8.01501e-09 9.67786e-09 0)
(-1.38063e-09 -4.91519e-08 0)
(-1.82529e-09 3.65795e-09 0)
(4.29342e-09 2.17167e-08 0)
(3.79885e-09 3.96825e-08 0)
(-2.0031e-09 5.19003e-08 0)
(-5.54466e-09 6.04191e-08 0)
(-6.1025e-09 6.41237e-08 0)
(-9.16667e-09 5.52405e-08 0)
(-1.05508e-08 3.19225e-08 0)
(-1.0939e-08 -3.22792e-09 0)
(-5.11658e-09 -3.74531e-08 0)
(3.99073e-09 -5.03994e-08 0)
(1.02347e-08 -3.29963e-08 0)
(1.3116e-08 8.7206e-09 0)
(1.34844e-08 5.75527e-08 0)
(1.20987e-08 8.95521e-08 0)
(7.61171e-09 1.08729e-07 0)
(9.46682e-10 8.74494e-08 0)
(-2.55044e-09 6.31275e-08 0)
(-9.35656e-09 8.42603e-09 0)
(-2.12422e-09 -5.75164e-08 0)
(-1.6059e-09 -1.56842e-09 0)
(2.89125e-09 1.71692e-08 0)
(3.39861e-09 3.74005e-08 0)
(-1.73433e-09 4.94298e-08 0)
(-3.80733e-09 5.82934e-08 0)
(-5.64577e-09 6.1418e-08 0)
(-6.28724e-09 5.45348e-08 0)
(-6.79642e-09 3.19013e-08 0)
(-5.84247e-09 -1.55344e-09 0)
(-2.59057e-09 -3.41216e-08 0)
(9.18418e-10 -4.71196e-08 0)
(3.49537e-09 -2.98619e-08 0)
(5.7643e-09 1.26788e-08 0)
(7.39849e-09 6.25738e-08 0)
(7.55134e-09 9.4877e-08 0)
(5.42069e-09 1.14106e-07 0)
(1.97411e-09 9.26815e-08 0)
(2.40979e-10 6.81297e-08 0)
(-3.07697e-09 1.17205e-08 0)
(9.62392e-11 -5.7665e-08 0)
(-8.52799e-10 -5.32839e-09 0)
(1.05051e-09 1.50131e-08 0)
(1.56176e-09 3.56045e-08 0)
(-5.12503e-10 4.63319e-08 0)
(-1.26972e-09 5.46223e-08 0)
(-2.13404e-09 6.05784e-08 0)
(-2.00556e-09 5.56375e-08 0)
(-1.57704e-09 3.3436e-08 0)
(-1.72843e-09 -1.43715e-09 0)
(-1.59891e-09 -3.5073e-08 0)
(3.05979e-10 -4.76332e-08 0)
(1.74763e-09 -2.84735e-08 0)
(2.31973e-09 1.68856e-08 0)
(2.69386e-09 6.91531e-08 0)
(3.13836e-09 1.02262e-07 0)
(2.82013e-09 1.21024e-07 0)
(1.33063e-09 9.73413e-08 0)
(1.16835e-10 7.0787e-08 0)
(-2.09542e-09 1.10063e-08 0)
(-6.85951e-10 -6.08317e-08 0)
(8.45688e-10 -5.33339e-09 0)
(-1.06002e-09 1.50068e-08 0)
(-1.57048e-09 3.56066e-08 0)
(5.00895e-10 4.63372e-08 0)
(1.24955e-09 5.46243e-08 0)
(2.10499e-09 6.05776e-08 0)
(1.97998e-09 5.56365e-08 0)
(1.55502e-09 3.34384e-08 0)
(1.69824e-09 -1.43241e-09 0)
(1.56034e-09 -3.50663e-08 0)
(-3.42696e-10 -4.76306e-08 0)
(-1.77671e-09 -2.84795e-08 0)
(-2.34579e-09 1.68762e-08 0)
(-2.71653e-09 6.91458e-08 0)
(-3.15875e-09 1.02259e-07 0)
(-2.82831e-09 1.2102e-07 0)
(-1.32696e-09 9.73374e-08 0)
(-9.91737e-11 7.07838e-08 0)
(2.14246e-09 1.10008e-08 0)
(7.38827e-10 -6.08274e-08 0)
(1.60213e-09 -1.58009e-09 0)
(-2.89787e-09 1.71538e-08 0)
(-3.40452e-09 3.74024e-08 0)
(1.72283e-09 4.94366e-08 0)
(3.78695e-09 5.83002e-08 0)
(5.61741e-09 6.14217e-08 0)
(6.26292e-09 5.45353e-08 0)
(6.7697e-09 3.19067e-08 0)
(5.81156e-09 -1.53923e-09 0)
(2.55365e-09 -3.41091e-08 0)
(-9.64787e-10 -4.71148e-08 0)
(-3.53759e-09 -2.98676e-08 0)
(-5.79219e-09 1.26685e-08 0)
(-7.41369e-09 6.25663e-08 0)
(-7.56457e-09 9.48783e-08 0)
(-5.42509e-09 1.14098e-07 0)
(-1.9696e-09 9.2663e-08 0)
(-2.22442e-10 6.81012e-08 0)
(3.1185e-09 1.1679e-08 0)
(-4.89057e-11 -5.76593e-08 0)
(1.82242e-09 3.64494e-09 0)
(-4.29686e-09 2.1701e-08 0)
(-3.80256e-09 3.96761e-08 0)
(1.99495e-09 5.19048e-08 0)
(5.52667e-09 6.043e-08 0)
(6.08115e-09 6.41268e-08 0)
(9.13647e-09 5.52461e-08 0)
(1.05265e-08 3.19346e-08 0)
(1.09028e-08 -3.20061e-09 0)
(5.07669e-09 -3.74286e-08 0)
(-4.02344e-09 -5.03945e-08 0)
(-1.0266e-08 -3.30065e-08 0)
(-1.31424e-08 8.71056e-09 0)
(-1.34994e-08 5.7547e-08 0)
(-1.21139e-08 8.95561e-08 0)
(-7.62372e-09 1.0872e-07 0)
(-9.53621e-10 8.74259e-08 0)
(2.56045e-09 6.30932e-08 0)
(9.39226e-09 8.36264e-09 0)
(2.16399e-09 -5.75218e-08 0)
(1.60417e-09 1.07374e-08 0)
(-4.84831e-09 2.83958e-08 0)
(-4.66003e-09 4.20002e-08 0)
(3.18538e-09 5.32525e-08 0)
(6.90026e-09 6.22501e-08 0)
(8.44336e-09 6.50158e-08 0)
(9.0336e-09 5.65874e-08 0)
(1.07585e-08 3.46849e-08 0)
(7.74787e-09 2.73146e-09 0)
(3.19135e-09 -2.86512e-08 0)
(-2.73345e-09 -4.30545e-08 0)
(-9.46351e-09 -3.1007e-08 0)
(-1.45175e-08 3.17777e-09 0)
(-1.5577e-08 4.49055e-08 0)
(-1.33704e-08 7.32665e-08 0)
(-8.83014e-09 9.15566e-08 0)
(-2.81398e-09 7.47891e-08 0)
(1.23765e-13 5.52256e-08 0)
(8.04433e-09 9.6171e-09 0)
(1.41254e-09 -4.91238e-08 0)
(1.52306e-09 1.81256e-08 0)
(-5.28271e-09 3.38688e-08 0)
(-4.68172e-09 4.35984e-08 0)
(2.18392e-09 5.61205e-08 0)
(9.00359e-09 6.51036e-08 0)
(9.79608e-09 6.59111e-08 0)
(1.33824e-08 5.4867e-08 0)
(1.53277e-08 3.14635e-08 0)
(1.52607e-08 -1.45197e-10 0)
(5.19423e-09 -3.13612e-08 0)
(-9.92231e-09 -4.62228e-08 0)
(-2.1643e-08 -3.38569e-08 0)
(-2.76965e-08 9.02147e-10 0)
(-2.57387e-08 4.18042e-08 0)
(-1.82453e-08 6.76589e-08 0)
(-7.31514e-09 8.29546e-08 0)
(4.76426e-09 6.55506e-08 0)
(1.00016e-08 4.71693e-08 0)
(1.98853e-08 5.8136e-09 0)
(5.77408e-09 -4.70989e-08 0)
(3.07096e-10 2.24907e-08 0)
(-3.50568e-09 3.62701e-08 0)
(-2.78813e-09 4.20324e-08 0)
(4.00078e-09 5.30659e-08 0)
(8.17954e-09 6.21486e-08 0)
(9.43896e-09 6.41077e-08 0)
(7.7647e-09 5.47795e-08 0)
(9.9651e-09 3.58359e-08 0)
(7.6826e-09 8.00751e-09 0)
(2.19236e-10 -1.96083e-08 0)
(-6.65202e-09 -3.43636e-08 0)
(-1.1787e-08 -2.91483e-08 0)
(-1.82339e-08 -4.73395e-09 0)
(-2.18975e-08 2.75333e-08 0)
(-1.96615e-08 4.94543e-08 0)
(-1.18122e-08 6.3135e-08 0)
(-7.10319e-10 5.03483e-08 0)
(4.30226e-09 3.64366e-08 0)
(1.45648e-08 4.39007e-09 0)
(3.52774e-09 -3.78984e-08 0)
(-2.30363e-10 2.48358e-08 0)
(-1.81026e-09 3.39133e-08 0)
(-1.55606e-09 3.83869e-08 0)
(2.76801e-09 5.0664e-08 0)
(9.70494e-09 6.05568e-08 0)
(1.31447e-08 5.9568e-08 0)
(1.54933e-08 5.11758e-08 0)
(1.79293e-08 3.39267e-08 0)
(1.58559e-08 1.01939e-08 0)
(3.97848e-09 -1.31936e-08 0)
(-1.65506e-08 -2.60568e-08 0)
(-3.19679e-08 -2.15907e-08 0)
(-3.80205e-08 -1.13195e-09 0)
(-3.40183e-08 2.56018e-08 0)
(-2.28658e-08 4.23357e-08 0)
(-6.74819e-09 5.22229e-08 0)
(1.10277e-08 4.04085e-08 0)
(1.75549e-08 2.85408e-08 0)
(2.85924e-08 4.02266e-09 0)
(1.04429e-08 -3.07069e-08 0)
(-3.15056e-09 1.74233e-08 0)
(-1.40555e-09 2.43405e-08 0)
(1.85068e-09 2.57085e-08 0)
(4.54308e-09 3.28398e-08 0)
(8.02761e-09 4.03867e-08 0)
(8.33483e-09 4.06103e-08 0)
(7.17712e-09 3.42844e-08 0)
(7.14332e-09 2.13134e-08 0)
(5.40912e-09 4.4767e-09 0)
(-4.08802e-09 -1.38419e-08 0)
(-1.48845e-08 -2.29606e-08 0)
(-2.06969e-08 -1.93183e-08 0)
(-2.5064e-08 -4.82364e-09 0)
(-2.67634e-08 1.48236e-08 0)
(-2.31465e-08 2.86117e-08 0)
(-1.30643e-08 3.68839e-08 0)
(1.60884e-09 2.77866e-08 0)
(7.72841e-09 1.88753e-08 0)
(2.11171e-08 -7.41719e-10 0)
(7.96087e-09 -2.53598e-08 0)
(-3.22456e-09 1.07538e-08 0)
(-9.50339e-10 1.72484e-08 0)
(1.06352e-09 1.81122e-08 0)
(5.8055e-09 2.22927e-08 0)
(1.16997e-08 2.71556e-08 0)
(1.45474e-08 2.83466e-08 0)
(1.42844e-08 2.45773e-08 0)
(1.66276e-08 1.82808e-08 0)
(1.35673e-08 8.93759e-09 0)
(1.18211e-09 -1.20653e-09 0)
(-1.74581e-08 -7.82327e-09 0)
(-3.4626e-08 -9.44753e-09 0)
(-4.27031e-08 -5.62034e-09 0)
(-3.80852e-08 3.70096e-09 0)
(-2.55054e-08 1.13679e-08 0)
(-7.83447e-09 1.61082e-08 0)
(1.21802e-08 1.21362e-08 0)
(1.9549e-08 7.27945e-09 0)
(3.08834e-08 9.10711e-10 0)
(1.30915e-08 -1.03196e-08 0)
(-3.53447e-09 6.40031e-09 0)
(2.87132e-09 8.24286e-09 0)
(6.27364e-09 1.08473e-08 0)
(5.70221e-09 1.61442e-08 0)
(1.00627e-08 1.88835e-08 0)
(1.01679e-08 1.72655e-08 0)
(8.60283e-09 1.34372e-08 0)
(9.85452e-09 8.28328e-09 0)
(6.51092e-09 1.48658e-09 0)
(-4.28944e-09 -5.33331e-09 0)
(-1.8917e-08 -7.68219e-09 0)
(-3.07465e-08 -3.47641e-09 0)
(-3.60967e-08 5.043e-09 0)
(-3.23164e-08 1.19144e-08 0)
(-2.32899e-08 1.37033e-08 0)
(-1.03897e-08 1.41496e-08 0)
(6.19152e-09 9.31097e-09 0)
(1.18082e-08 7.81829e-09 0)
(2.66507e-08 1.52373e-09 0)
(1.28838e-08 -8.77508e-09 0)
)
;

boundaryField
{
    sides
    {
        type            calculated;
        value           nonuniform List<vector> 
40
(
(-3.53447e-09 0 0)
(2.87132e-09 0 0)
(6.27364e-09 0 0)
(5.70221e-09 0 0)
(1.00627e-08 0 0)
(1.01679e-08 0 0)
(8.60283e-09 0 0)
(9.85452e-09 0 0)
(6.51092e-09 0 0)
(-4.28944e-09 0 0)
(-1.8917e-08 0 0)
(-3.07465e-08 0 0)
(-3.60967e-08 0 0)
(-3.23164e-08 0 0)
(-2.32899e-08 0 0)
(-1.03897e-08 0 0)
(6.19152e-09 0 0)
(1.18082e-08 0 0)
(2.66507e-08 0 0)
(1.28838e-08 0 0)
(3.54388e-09 0 0)
(-2.87002e-09 0 0)
(-6.28681e-09 0 0)
(-5.71737e-09 0 0)
(-1.00696e-08 0 0)
(-1.01693e-08 0 0)
(-8.61555e-09 0 0)
(-9.87754e-09 0 0)
(-6.53614e-09 0 0)
(4.25773e-09 0 0)
(1.88808e-08 0 0)
(3.0707e-08 0 0)
(3.60555e-08 0 0)
(3.22829e-08 0 0)
(2.32682e-08 0 0)
(1.03939e-08 0 0)
(-6.19939e-09 0 0)
(-1.18028e-08 0 0)
(-2.66658e-08 0 0)
(-1.29177e-08 0 0)
)
;
    }
    inlet
    {
        type            calculated;
        value           uniform (0 0 0);
    }
    outlet
    {
        type            calculated;
        value           nonuniform List<vector> 
20
(
(-1.29177e-08 -8.74525e-09 0)
(-1.31304e-08 -1.03356e-08 0)
(-7.96966e-09 -2.53773e-08 0)
(-1.04679e-08 -3.06947e-08 0)
(-3.5209e-09 -3.79313e-08 0)
(-5.77112e-09 -4.70796e-08 0)
(-1.38063e-09 -4.91519e-08 0)
(-2.12422e-09 -5.75164e-08 0)
(9.62392e-11 -5.7665e-08 0)
(-6.85951e-10 -6.08317e-08 0)
(7.38827e-10 -6.08274e-08 0)
(-4.89057e-11 -5.76593e-08 0)
(2.16399e-09 -5.75218e-08 0)
(1.41254e-09 -4.91238e-08 0)
(5.77408e-09 -4.70989e-08 0)
(3.52774e-09 -3.78984e-08 0)
(1.04429e-08 -3.07069e-08 0)
(7.96087e-09 -2.53598e-08 0)
(1.30915e-08 -1.03196e-08 0)
(1.28838e-08 -8.77508e-09 0)
)
;
    }
    frontAndBack
    {
        type            empty;
    }
}


// ************************************************************************* //
