/*--------------------------------*- C++ -*----------------------------------*\
  =========                 |
  \\      /  F ield         | OpenFOAM: The Open Source CFD Toolbox
   \\    /   O peration     | Website:  https://openfoam.org
    \\  /    A nd           | Version:  7
     \\/     M anipulation  |
\*---------------------------------------------------------------------------*/
FoamFile
{
    version     2.0;
    format      ascii;
    class       volVectorField;
    location    "15";
    object      hU;
}
// * * * * * * * * * * * * * * * * * * * * * * * * * * * * * * * * * * * * * //

dimensions      [0 2 -1 0 0 0 0];

internalField   nonuniform List<vector> 
400
(
(0.001 -9.61343e-09 0)
(0.000999991 -2.71885e-08 0)
(0.00099998 -4.05034e-08 0)
(0.000999976 -5.30944e-08 0)
(0.000999981 -6.68085e-08 0)
(0.000999992 -8.07463e-08 0)
(0.001 -9.32769e-08 0)
(0.00100002 -1.0399e-07 0)
(0.00100004 -1.11363e-07 0)
(0.00100007 -1.164e-07 0)
(0.00100009 -1.17585e-07 0)
(0.00100011 -1.23159e-07 0)
(0.00100012 -1.30042e-07 0)
(0.00100015 -1.49809e-07 0)
(0.00100016 -1.63965e-07 0)
(0.00100023 -1.95079e-07 0)
(0.00100025 -2.06639e-07 0)
(0.00100038 -2.51241e-07 0)
(0.0010004 -2.54242e-07 0)
(0.00100064 -3.40326e-07 0)
(0.001 5.9601e-09 0)
(0.000999996 1.37293e-08 0)
(0.000999989 2.27423e-08 0)
(0.000999987 3.16671e-08 0)
(0.000999992 3.80898e-08 0)
(0.001 4.21309e-08 0)
(0.00100002 4.56775e-08 0)
(0.00100003 4.93327e-08 0)
(0.00100006 5.5239e-08 0)
(0.00100009 6.2227e-08 0)
(0.00100011 7.27423e-08 0)
(0.00100013 8.10368e-08 0)
(0.00100013 9.04758e-08 0)
(0.00100015 8.78946e-08 0)
(0.00100017 8.69885e-08 0)
(0.00100022 6.63382e-08 0)
(0.00100026 6.04725e-08 0)
(0.00100035 2.08095e-08 0)
(0.00100039 2.00903e-08 0)
(0.00100055 -6.80357e-08 0)
(0.001 -1.9029e-09 0)
(0.000999993 -1.35123e-08 0)
(0.000999982 -2.37199e-08 0)
(0.000999977 -3.47732e-08 0)
(0.000999981 -4.89658e-08 0)
(0.00099999 -6.58554e-08 0)
(0.000999999 -8.21851e-08 0)
(0.00100001 -9.65189e-08 0)
(0.00100003 -1.05415e-07 0)
(0.00100005 -1.09241e-07 0)
(0.00100007 -1.05973e-07 0)
(0.00100009 -1.07201e-07 0)
(0.00100011 -1.10643e-07 0)
(0.00100013 -1.35401e-07 0)
(0.00100015 -1.61323e-07 0)
(0.0010002 -2.15169e-07 0)
(0.00100023 -2.51544e-07 0)
(0.00100031 -3.22647e-07 0)
(0.00100034 -3.49018e-07 0)
(0.00100049 -4.47328e-07 0)
(0.001 1.45785e-09 0)
(0.000999997 -2.75938e-09 0)
(0.000999989 -2.64333e-09 0)
(0.000999986 -3.36489e-09 0)
(0.000999991 -8.78371e-09 0)
(0.001 -1.76054e-08 0)
(0.00100001 -2.54215e-08 0)
(0.00100003 -3.02332e-08 0)
(0.00100005 -2.73792e-08 0)
(0.00100008 -1.75436e-08 0)
(0.0010001 1.17686e-09 0)
(0.00100011 1.43539e-08 0)
(0.00100011 2.25515e-08 0)
(0.00100013 3.68035e-09 0)
(0.00100014 -2.02836e-08 0)
(0.00100018 -7.49534e-08 0)
(0.00100021 -1.14737e-07 0)
(0.00100028 -1.86043e-07 0)
(0.00100032 -2.16839e-07 0)
(0.00100043 -3.10539e-07 0)
(0.001 1.2418e-09 0)
(0.000999997 -5.55063e-09 0)
(0.000999989 -1.24239e-08 0)
(0.000999985 -2.17139e-08 0)
(0.000999989 -3.65955e-08 0)
(0.000999996 -5.60312e-08 0)
(0.001 -7.58967e-08 0)
(0.00100001 -9.29737e-08 0)
(0.00100003 -1.01636e-07 0)
(0.00100004 -1.01792e-07 0)
(0.00100006 -9.16167e-08 0)
(0.00100008 -8.59423e-08 0)
(0.00100009 -8.56036e-08 0)
(0.00100011 -1.14724e-07 0)
(0.00100013 -1.5129e-07 0)
(0.00100016 -2.21662e-07 0)
(0.00100018 -2.77937e-07 0)
(0.00100024 -3.64255e-07 0)
(0.00100026 -4.08958e-07 0)
(0.00100036 -5.05534e-07 0)
(0.001 1.25256e-09 0)
(0.000999999 -4.16509e-09 0)
(0.000999991 -1.13348e-08 0)
(0.000999988 -2.18504e-08 0)
(0.000999991 -3.73275e-08 0)
(0.000999998 -5.66662e-08 0)
(0.00100001 -7.51214e-08 0)
(0.00100002 -8.84942e-08 0)
(0.00100004 -9.03259e-08 0)
(0.00100005 -8.02753e-08 0)
(0.00100007 -5.72885e-08 0)
(0.00100008 -4.04183e-08 0)
(0.00100008 -3.28893e-08 0)
(0.00100009 -6.09888e-08 0)
(0.0010001 -1.00456e-07 0)
(0.00100013 -1.7622e-07 0)
(0.00100015 -2.39461e-07 0)
(0.0010002 -3.27772e-07 0)
(0.00100023 -3.77963e-07 0)
(0.0010003 -4.64804e-07 0)
(0.001 1.5123e-09 0)
(0.001 -2.38494e-09 0)
(0.000999993 -1.11506e-08 0)
(0.000999991 -2.43875e-08 0)
(0.000999994 -4.24941e-08 0)
(0.000999999 -6.51604e-08 0)
(0.001 -8.83413e-08 0)
(0.00100001 -1.07392e-07 0)
(0.00100002 -1.14824e-07 0)
(0.00100003 -1.10189e-07 0)
(0.00100004 -9.21961e-08 0)
(0.00100005 -7.91161e-08 0)
(0.00100006 -7.45985e-08 0)
(0.00100007 -1.05961e-07 0)
(0.00100008 -1.49538e-07 0)
(0.0010001 -2.31257e-07 0)
(0.00100012 -3.01895e-07 0)
(0.00100016 -3.98039e-07 0)
(0.00100017 -4.56053e-07 0)
(0.00100023 -5.46687e-07 0)
(0.001 1.80862e-09 0)
(0.001 -5.44121e-10 0)
(0.000999995 -1.07345e-08 0)
(0.000999993 -2.68196e-08 0)
(0.000999996 -4.77538e-08 0)
(0.000999999 -7.32307e-08 0)
(0.001 -9.8902e-08 0)
(0.00100001 -1.18835e-07 0)
(0.00100002 -1.24524e-07 0)
(0.00100003 -1.14931e-07 0)
(0.00100004 -8.97965e-08 0)
(0.00100004 -7.07054e-08 0)
(0.00100005 -6.32937e-08 0)
(0.00100005 -9.60821e-08 0)
(0.00100006 -1.43864e-07 0)
(0.00100007 -2.31314e-07 0)
(0.00100009 -3.08274e-07 0)
(0.00100011 -4.06608e-07 0)
(0.00100013 -4.68765e-07 0)
(0.00100017 -5.50842e-07 0)
(0.001 2.13588e-09 0)
(0.001 1.07183e-09 0)
(0.000999997 -1.04402e-08 0)
(0.000999996 -2.86634e-08 0)
(0.000999997 -5.10729e-08 0)
(0.000999999 -7.77193e-08 0)
(0.001 -1.04235e-07 0)
(0.00100001 -1.24926e-07 0)
(0.00100001 -1.31295e-07 0)
(0.00100002 -1.22607e-07 0)
(0.00100002 -9.85894e-08 0)
(0.00100002 -8.03793e-08 0)
(0.00100003 -7.33248e-08 0)
(0.00100003 -1.0642e-07 0)
(0.00100004 -1.54719e-07 0)
(0.00100005 -2.43672e-07 0)
(0.00100005 -3.22989e-07 0)
(0.00100007 -4.24589e-07 0)
(0.00100008 -4.90269e-07 0)
(0.0010001 -5.74962e-07 0)
(0.001 2.28423e-09 0)
(0.001 2.05206e-09 0)
(0.000999999 -1.01256e-08 0)
(0.000999999 -2.94562e-08 0)
(0.000999999 -5.27219e-08 0)
(0.001 -8.00233e-08 0)
(0.001 -1.07589e-07 0)
(0.001 -1.29398e-07 0)
(0.001 -1.36234e-07 0)
(0.00100001 -1.26764e-07 0)
(0.00100001 -1.00869e-07 0)
(0.00100001 -8.07477e-08 0)
(0.00100001 -7.27724e-08 0)
(0.00100001 -1.06558e-07 0)
(0.00100001 -1.56833e-07 0)
(0.00100001 -2.48418e-07 0)
(0.00100002 -3.30556e-07 0)
(0.00100002 -4.33221e-07 0)
(0.00100002 -5.0054e-07 0)
(0.00100003 -5.81934e-07 0)
(0.001 2.28392e-09 0)
(0.001 2.05245e-09 0)
(0.001 -1.01243e-08 0)
(0.001 -2.94553e-08 0)
(0.001 -5.27223e-08 0)
(0.001 -8.00239e-08 0)
(0.000999999 -1.07588e-07 0)
(0.000999998 -1.29395e-07 0)
(0.000999996 -1.36233e-07 0)
(0.000999995 -1.26766e-07 0)
(0.000999993 -1.00873e-07 0)
(0.000999992 -8.07514e-08 0)
(0.00099999 -7.27753e-08 0)
(0.000999989 -1.06558e-07 0)
(0.000999987 -1.56831e-07 0)
(0.000999985 -2.48416e-07 0)
(0.000999983 -3.30549e-07 0)
(0.000999978 -4.33215e-07 0)
(0.000999976 -5.00528e-07 0)
(0.000999967 -5.81918e-07 0)
(0.000999999 2.1349e-09 0)
(0.001 1.0734e-09 0)
(0.001 -1.04363e-08 0)
(0.001 -2.86609e-08 0)
(0.001 -5.10735e-08 0)
(0.001 -7.77207e-08 0)
(0.000999998 -1.04233e-07 0)
(0.000999994 -1.24922e-07 0)
(0.000999989 -1.31292e-07 0)
(0.000999983 -1.22608e-07 0)
(0.00099998 -9.85939e-08 0)
(0.000999976 -8.03811e-08 0)
(0.000999973 -7.33259e-08 0)
(0.000999968 -1.06416e-07 0)
(0.000999963 -1.54718e-07 0)
(0.000999955 -2.4367e-07 0)
(0.000999947 -3.22979e-07 0)
(0.000999932 -4.24565e-07 0)
(0.000999924 -4.90216e-07 0)
(0.000999901 -5.74863e-07 0)
(0.000999999 1.8075e-09 0)
(0.001 -5.40737e-10 0)
(0.001 -1.0729e-08 0)
(0.00100001 -2.68161e-08 0)
(0.001 -4.77542e-08 0)
(0.001 -7.32311e-08 0)
(0.000999998 -9.88983e-08 0)
(0.000999991 -1.18828e-07 0)
(0.000999982 -1.24521e-07 0)
(0.000999972 -1.14937e-07 0)
(0.000999964 -8.98108e-08 0)
(0.000999958 -7.07155e-08 0)
(0.000999954 -6.33001e-08 0)
(0.000999947 -9.6085e-08 0)
(0.000999941 -1.43874e-07 0)
(0.000999928 -2.31335e-07 0)
(0.000999914 -3.08291e-07 0)
(0.000999889 -4.06622e-07 0)
(0.000999874 -4.68749e-07 0)
(0.000999834 -5.50773e-07 0)
(0.000999999 1.51136e-09 0)
(0.001 -2.37993e-09 0)
(0.00100001 -1.11435e-08 0)
(0.00100001 -2.43838e-08 0)
(0.00100001 -4.2496e-08 0)
(0.001 -6.51614e-08 0)
(0.000999995 -8.83346e-08 0)
(0.000999987 -1.07377e-07 0)
(0.000999977 -1.14812e-07 0)
(0.000999965 -1.10184e-07 0)
(0.000999956 -9.22038e-08 0)
(0.000999946 -7.91187e-08 0)
(0.000999938 -7.45994e-08 0)
(0.000999926 -1.05946e-07 0)
(0.000999915 -1.49525e-07 0)
(0.000999896 -2.3123e-07 0)
(0.000999879 -3.01848e-07 0)
(0.000999844 -3.97956e-07 0)
(0.000999829 -4.5592e-07 0)
(0.000999772 -5.46467e-07 0)
(0.000999998 1.25203e-09 0)
(0.001 -4.15933e-09 0)
(0.00100001 -1.13265e-08 0)
(0.00100001 -2.18464e-08 0)
(0.00100001 -3.73321e-08 0)
(0.001 -5.66737e-08 0)
(0.000999994 -7.51246e-08 0)
(0.000999982 -8.84924e-08 0)
(0.000999965 -9.03305e-08 0)
(0.000999946 -8.02893e-08 0)
(0.000999934 -5.73105e-08 0)
(0.000999925 -4.04326e-08 0)
(0.000999919 -3.28986e-08 0)
(0.000999909 -6.09947e-08 0)
(0.000999898 -1.00474e-07 0)
(0.000999873 -1.76257e-07 0)
(0.000999848 -2.39496e-07 0)
(0.000999801 -3.278e-07 0)
(0.000999773 -3.77948e-07 0)
(0.000999701 -4.64704e-07 0)
(0.000999998 1.24171e-09 0)
(0.001 -5.54422e-09 0)
(0.00100001 -1.24139e-08 0)
(0.00100001 -2.17048e-08 0)
(0.00100001 -3.65907e-08 0)
(0.001 -5.60248e-08 0)
(0.000999997 -7.58832e-08 0)
(0.000999987 -9.29521e-08 0)
(0.000999972 -1.0162e-07 0)
(0.000999955 -1.01787e-07 0)
(0.000999942 -9.16294e-08 0)
(0.000999925 -8.59494e-08 0)
(0.00099991 -8.56125e-08 0)
(0.00099989 -1.14712e-07 0)
(0.000999875 -1.51284e-07 0)
(0.000999843 -2.21635e-07 0)
(0.00099982 -2.77895e-07 0)
(0.000999762 -3.64164e-07 0)
(0.00099974 -4.08826e-07 0)
(0.000999643 -5.05286e-07 0)
(0.000999998 1.45829e-09 0)
(0.001 -2.75428e-09 0)
(0.00100001 -2.6393e-09 0)
(0.00100001 -3.36686e-09 0)
(0.00100001 -8.79384e-09 0)
(0.000999999 -1.7617e-08 0)
(0.000999988 -2.54277e-08 0)
(0.00099997 -3.02334e-08 0)
(0.000999947 -2.73847e-08 0)
(0.000999921 -1.75542e-08 0)
(0.000999904 1.16132e-09 0)
(0.000999892 1.43486e-08 0)
(0.000999885 2.25486e-08 0)
(0.000999872 3.6827e-09 0)
(0.000999857 -2.0292e-08 0)
(0.000999822 -7.49698e-08 0)
(0.000999787 -1.14745e-07 0)
(0.000999717 -1.86028e-07 0)
(0.000999678 -2.16786e-07 0)
(0.000999571 -3.10393e-07 0)
(0.000999997 -1.90156e-09 0)
(0.00100001 -1.3506e-08 0)
(0.00100002 -2.37131e-08 0)
(0.00100002 -3.47669e-08 0)
(0.00100002 -4.89629e-08 0)
(0.00100001 -6.58524e-08 0)
(0.001 -8.21802e-08 0)
(0.000999988 -9.65115e-08 0)
(0.000999969 -1.05417e-07 0)
(0.000999948 -1.09252e-07 0)
(0.000999931 -1.06e-07 0)
(0.000999911 -1.0722e-07 0)
(0.000999894 -1.10665e-07 0)
(0.000999867 -1.35403e-07 0)
(0.000999848 -1.6134e-07 0)
(0.000999804 -2.1517e-07 0)
(0.000999774 -2.5156e-07 0)
(0.000999688 -3.22623e-07 0)
(0.000999661 -3.48997e-07 0)
(0.00099951 -4.47198e-07 0)
(0.000999997 5.95933e-09 0)
(0.001 1.37293e-08 0)
(0.00100001 2.27428e-08 0)
(0.00100001 3.16629e-08 0)
(0.00100001 3.80815e-08 0)
(0.000999998 4.21244e-08 0)
(0.000999985 4.56759e-08 0)
(0.000999965 4.93382e-08 0)
(0.00099994 5.52459e-08 0)
(0.000999912 6.22378e-08 0)
(0.000999892 7.27508e-08 0)
(0.000999875 8.10523e-08 0)
(0.000999865 9.04819e-08 0)
(0.000999846 8.79056e-08 0)
(0.000999829 8.69845e-08 0)
(0.000999783 6.63538e-08 0)
(0.000999744 6.04935e-08 0)
(0.000999649 2.08862e-08 0)
(0.000999607 2.01861e-08 0)
(0.000999452 -6.78497e-08 0)
(0.000999998 -9.61254e-09 0)
(0.00100001 -2.71876e-08 0)
(0.00100002 -4.05032e-08 0)
(0.00100002 -5.31018e-08 0)
(0.00100002 -6.68238e-08 0)
(0.00100001 -8.07646e-08 0)
(0.000999997 -9.32994e-08 0)
(0.00099998 -1.04017e-07 0)
(0.000999958 -1.114e-07 0)
(0.000999931 -1.16443e-07 0)
(0.000999914 -1.17635e-07 0)
(0.000999891 -1.23204e-07 0)
(0.00099988 -1.30085e-07 0)
(0.000999849 -1.4985e-07 0)
(0.000999835 -1.64013e-07 0)
(0.000999774 -1.9514e-07 0)
(0.000999749 -2.0671e-07 0)
(0.000999622 -2.51331e-07 0)
(0.000999603 -2.54356e-07 0)
(0.000999358 -3.40457e-07 0)
)
;

boundaryField
{
    sides
    {
        type            slip;
    }
    inlet
    {
        type            fixedValue;
        value           uniform (0.001 0 0);
    }
    outlet
    {
        type            zeroGradient;
    }
    frontAndBack
    {
        type            empty;
    }
}


// ************************************************************************* //
