/*--------------------------------*- C++ -*----------------------------------*\
  =========                 |
  \\      /  F ield         | OpenFOAM: The Open Source CFD Toolbox
   \\    /   O peration     | Website:  https://openfoam.org
    \\  /    A nd           | Version:  7
     \\/     M anipulation  |
\*---------------------------------------------------------------------------*/
FoamFile
{
    version     2.0;
    format      ascii;
    class       volVectorField;
    location    "15";
    object      U;
}
// * * * * * * * * * * * * * * * * * * * * * * * * * * * * * * * * * * * * * //

dimensions      [0 1 -1 0 0 0 0];

internalField   nonuniform List<vector> 
400
(
(0.0999924 -9.61267e-07 0)
(0.099991 -2.71863e-06 0)
(0.0999897 -4.05001e-06 0)
(0.0999892 -5.309e-06 0)
(0.0999897 -6.68029e-06 0)
(0.0999909 -8.07396e-06 0)
(0.0999921 -9.32692e-06 0)
(0.099994 -1.03981e-05 0)
(0.0999964 -1.11354e-05 0)
(0.0999994 -1.16391e-05 0)
(0.100002 -1.17577e-05 0)
(0.100004 -1.23151e-05 0)
(0.100006 -1.30033e-05 0)
(0.100009 -1.498e-05 0)
(0.100011 -1.63957e-05 0)
(0.100018 -1.9507e-05 0)
(0.100021 -2.06631e-05 0)
(0.100035 -2.51233e-05 0)
(0.100038 -2.54237e-05 0)
(0.100063 -3.40323e-05 0)
(0.0999936 5.9597e-07 0)
(0.0999928 1.37284e-06 0)
(0.099992 2.27408e-06 0)
(0.0999917 3.16649e-06 0)
(0.0999922 3.80872e-06 0)
(0.0999933 4.2128e-06 0)
(0.0999947 4.56744e-06 0)
(0.0999968 4.93294e-06 0)
(0.0999996 5.52354e-06 0)
(0.100003 6.22232e-06 0)
(0.100005 7.27381e-06 0)
(0.100007 8.10324e-06 0)
(0.100008 9.04713e-06 0)
(0.100011 8.78906e-06 0)
(0.100013 8.6985e-06 0)
(0.100018 6.63359e-06 0)
(0.100023 6.04708e-06 0)
(0.100033 2.08091e-06 0)
(0.100038 2.009e-06 0)
(0.100054 -6.80354e-06 0)
(0.0999942 -1.90278e-07 0)
(0.099993 -1.35114e-06 0)
(0.0999917 -2.37184e-06 0)
(0.0999912 -3.47709e-06 0)
(0.0999916 -4.89626e-06 0)
(0.0999925 -6.58511e-06 0)
(0.0999934 -8.21798e-06 0)
(0.0999949 -9.65128e-06 0)
(0.099997 -1.05409e-05 0)
(0.0999994 -1.09235e-05 0)
(0.100001 -1.05967e-05 0)
(0.100004 -1.07196e-05 0)
(0.100006 -1.10637e-05 0)
(0.100009 -1.35395e-05 0)
(0.100011 -1.61317e-05 0)
(0.100016 -2.15162e-05 0)
(0.10002 -2.51538e-05 0)
(0.100029 -3.22641e-05 0)
(0.100033 -3.49014e-05 0)
(0.100048 -4.47326e-05 0)
(0.0999951 1.45778e-07 0)
(0.0999944 -2.75924e-07 0)
(0.0999935 -2.64318e-07 0)
(0.0999932 -3.36471e-07 0)
(0.0999937 -8.78324e-07 0)
(0.0999947 -1.76044e-06 0)
(0.0999959 -2.54202e-06 0)
(0.0999978 -3.02316e-06 0)
(0.1 -2.73778e-06 0)
(0.100003 -1.75427e-06 0)
(0.100005 1.1768e-07 0)
(0.100007 1.43533e-06 0)
(0.100008 2.25506e-06 0)
(0.100009 3.68023e-07 0)
(0.100011 -2.0283e-06 0)
(0.100015 -7.49514e-06 0)
(0.100019 -1.14734e-05 0)
(0.100027 -1.8604e-05 0)
(0.100031 -2.16837e-05 0)
(0.100043 -3.10538e-05 0)
(0.0999959 1.24174e-07 0)
(0.0999953 -5.55038e-07 0)
(0.0999943 -1.24233e-06 0)
(0.0999939 -2.17129e-06 0)
(0.0999943 -3.65938e-06 0)
(0.099995 -5.60286e-06 0)
(0.0999957 -7.58932e-06 0)
(0.0999968 -9.29695e-06 0)
(0.0999984 -1.01631e-05 0)
(0.1 -1.01788e-05 0)
(0.100002 -9.1613e-06 0)
(0.100004 -8.5939e-06 0)
(0.100006 -8.56006e-06 0)
(0.100008 -1.14721e-05 0)
(0.10001 -1.51286e-05 0)
(0.100013 -2.21657e-05 0)
(0.100016 -2.77932e-05 0)
(0.100023 -3.6425e-05 0)
(0.100025 -4.08954e-05 0)
(0.100035 -5.05532e-05 0)
(0.0999967 1.25251e-07 0)
(0.0999963 -4.16494e-07 0)
(0.0999955 -1.13344e-06 0)
(0.0999951 -2.18496e-06 0)
(0.0999954 -3.73261e-06 0)
(0.0999961 -5.66641e-06 0)
(0.0999969 -7.51187e-06 0)
(0.0999982 -8.8491e-06 0)
(0.1 -9.03227e-06 0)
(0.100002 -8.02725e-06 0)
(0.100003 -5.72866e-06 0)
(0.100004 -4.04171e-06 0)
(0.100005 -3.28884e-06 0)
(0.100007 -6.09873e-06 0)
(0.100008 -1.00454e-05 0)
(0.100011 -1.76216e-05 0)
(0.100014 -2.39458e-05 0)
(0.100019 -3.27769e-05 0)
(0.100022 -3.7796e-05 0)
(0.10003 -4.64804e-05 0)
(0.0999975 1.51226e-07 0)
(0.0999973 -2.38488e-07 0)
(0.0999966 -1.11503e-06 0)
(0.0999963 -2.43868e-06 0)
(0.0999966 -4.24929e-06 0)
(0.0999971 -6.51585e-06 0)
(0.0999976 -8.83388e-06 0)
(0.0999984 -1.07389e-05 0)
(0.0999995 -1.14821e-05 0)
(0.100001 -1.10186e-05 0)
(0.100002 -9.21937e-06 0)
(0.100003 -7.91141e-06 0)
(0.100004 -7.45969e-06 0)
(0.100005 -1.05959e-05 0)
(0.100007 -1.49535e-05 0)
(0.100009 -2.31254e-05 0)
(0.100011 -3.01891e-05 0)
(0.100015 -3.98036e-05 0)
(0.100017 -4.5605e-05 0)
(0.100023 -5.46686e-05 0)
(0.0999982 1.80858e-07 0)
(0.0999981 -5.44111e-08 0)
(0.0999976 -1.07343e-06 0)
(0.0999974 -2.68191e-06 0)
(0.0999976 -4.77528e-06 0)
(0.0999979 -7.32292e-06 0)
(0.0999982 -9.89e-06 0)
(0.0999989 -1.18833e-05 0)
(0.0999998 -1.24521e-05 0)
(0.100001 -1.14928e-05 0)
(0.100002 -8.97948e-06 0)
(0.100002 -7.07042e-06 0)
(0.100003 -6.32927e-06 0)
(0.100004 -9.60807e-06 0)
(0.100005 -1.43862e-05 0)
(0.100006 -2.31312e-05 0)
(0.100008 -3.08271e-05 0)
(0.100011 -4.06606e-05 0)
(0.100012 -4.68764e-05 0)
(0.100016 -5.50842e-05 0)
(0.0999989 2.13586e-07 0)
(0.0999989 1.07181e-07 0)
(0.0999986 -1.044e-06 0)
(0.0999984 -2.86631e-06 0)
(0.0999986 -5.10723e-06 0)
(0.0999988 -7.77183e-06 0)
(0.099999 -1.04233e-05 0)
(0.0999994 -1.24925e-05 0)
(0.0999999 -1.31293e-05 0)
(0.1 -1.22606e-05 0)
(0.100001 -9.85883e-06 0)
(0.100001 -8.03784e-06 0)
(0.100002 -7.33241e-06 0)
(0.100002 -1.06419e-05 0)
(0.100003 -1.54718e-05 0)
(0.100004 -2.4367e-05 0)
(0.100005 -3.22987e-05 0)
(0.100006 -4.24588e-05 0)
(0.100007 -4.90268e-05 0)
(0.10001 -5.74962e-05 0)
(0.0999996 2.28423e-07 0)
(0.0999996 2.05205e-07 0)
(0.0999995 -1.01256e-06 0)
(0.0999995 -2.94561e-06 0)
(0.0999995 -5.27217e-06 0)
(0.0999996 -8.0023e-06 0)
(0.0999997 -1.07589e-05 0)
(0.0999998 -1.29397e-05 0)
(0.0999999 -1.36234e-05 0)
(0.1 -1.26764e-05 0)
(0.1 -1.00869e-05 0)
(0.1 -8.07474e-06 0)
(0.100001 -7.27722e-06 0)
(0.100001 -1.06558e-05 0)
(0.100001 -1.56832e-05 0)
(0.100001 -2.48418e-05 0)
(0.100002 -3.30555e-05 0)
(0.100002 -4.33221e-05 0)
(0.100002 -5.00539e-05 0)
(0.100003 -5.81933e-05 0)
(0.1 2.28392e-07 0)
(0.1 2.05246e-07 0)
(0.1 -1.01243e-06 0)
(0.100001 -2.94554e-06 0)
(0.1 -5.27225e-06 0)
(0.1 -8.00243e-06 0)
(0.1 -1.07588e-05 0)
(0.1 -1.29396e-05 0)
(0.1 -1.36234e-05 0)
(0.0999999 -1.26766e-05 0)
(0.0999997 -1.00873e-05 0)
(0.0999995 -8.07516e-06 0)
(0.0999994 -7.27755e-06 0)
(0.0999992 -1.06559e-05 0)
(0.099999 -1.56832e-05 0)
(0.0999987 -2.48416e-05 0)
(0.0999985 -3.3055e-05 0)
(0.099998 -4.33215e-05 0)
(0.0999976 -5.00528e-05 0)
(0.0999967 -5.81918e-05 0)
(0.100001 2.13493e-07 0)
(0.100001 1.07341e-07 0)
(0.100001 -1.04365e-06 0)
(0.100002 -2.86612e-06 0)
(0.100001 -5.10741e-06 0)
(0.100001 -7.77216e-06 0)
(0.100001 -1.04235e-05 0)
(0.100001 -1.24923e-05 0)
(0.1 -1.31294e-05 0)
(0.0999995 -1.22609e-05 0)
(0.0999991 -9.8595e-06 0)
(0.0999986 -8.03819e-06 0)
(0.0999983 -7.33266e-06 0)
(0.0999977 -1.06417e-05 0)
(0.0999971 -1.54719e-05 0)
(0.0999961 -2.43671e-05 0)
(0.0999952 -3.22981e-05 0)
(0.0999935 -4.24566e-05 0)
(0.0999926 -4.90217e-05 0)
(0.0999902 -5.74864e-05 0)
(0.100002 1.80753e-07 0)
(0.100002 -5.40747e-08 0)
(0.100002 -1.07292e-06 0)
(0.100003 -2.68166e-06 0)
(0.100002 -4.77552e-06 0)
(0.100002 -7.32326e-06 0)
(0.100002 -9.89003e-06 0)
(0.100001 -1.18831e-05 0)
(0.1 -1.24524e-05 0)
(0.0999991 -1.14939e-05 0)
(0.0999983 -8.98125e-06 0)
(0.0999975 -7.07168e-06 0)
(0.099997 -6.33011e-06 0)
(0.0999962 -9.60863e-06 0)
(0.0999953 -1.43876e-05 0)
(0.0999938 -2.31338e-05 0)
(0.0999922 -3.08294e-05 0)
(0.0999895 -4.06625e-05 0)
(0.0999877 -4.6875e-05 0)
(0.0999835 -5.50774e-05 0)
(0.100003 1.5114e-07 0)
(0.100003 -2.38e-07 0)
(0.100003 -1.11438e-06 0)
(0.100004 -2.43845e-06 0)
(0.100003 -4.24971e-06 0)
(0.100003 -6.51633e-06 0)
(0.100002 -8.83371e-06 0)
(0.100002 -1.0738e-05 0)
(0.1 -1.14815e-05 0)
(0.0999992 -1.10187e-05 0)
(0.0999982 -9.22061e-06 0)
(0.0999971 -7.91206e-06 0)
(0.099996 -7.4601e-06 0)
(0.0999946 -1.05948e-05 0)
(0.0999933 -1.49528e-05 0)
(0.099991 -2.31233e-05 0)
(0.0999891 -3.01851e-05 0)
(0.0999852 -3.97959e-05 0)
(0.0999833 -4.55922e-05 0)
(0.0999773 -5.46468e-05 0)
(0.100003 1.25208e-07 0)
(0.100004 -4.15948e-07 0)
(0.100005 -1.13269e-06 0)
(0.100005 -2.18472e-06 0)
(0.100005 -3.73335e-06 0)
(0.100004 -5.66758e-06 0)
(0.100003 -7.51274e-06 0)
(0.100002 -8.84956e-06 0)
(0.1 -9.03337e-06 0)
(0.099998 -8.0292e-06 0)
(0.0999966 -5.73123e-06 0)
(0.0999955 -4.04339e-06 0)
(0.0999947 -3.28995e-06 0)
(0.0999934 -6.09962e-06 0)
(0.0999919 -1.00476e-05 0)
(0.0999892 -1.7626e-05 0)
(0.0999863 -2.39499e-05 0)
(0.0999811 -3.27803e-05 0)
(0.0999779 -3.77951e-05 0)
(0.0999703 -4.64705e-05 0)
(0.100004 1.24176e-07 0)
(0.100005 -5.54446e-07 0)
(0.100006 -1.24145e-06 0)
(0.100006 -2.17058e-06 0)
(0.100006 -3.65924e-06 0)
(0.100005 -5.60274e-06 0)
(0.100004 -7.58866e-06 0)
(0.100003 -9.29563e-06 0)
(0.100002 -1.01625e-05 0)
(0.0999997 -1.01791e-05 0)
(0.0999982 -9.16331e-06 0)
(0.0999962 -8.59526e-06 0)
(0.0999945 -8.56155e-06 0)
(0.0999921 -1.14715e-05 0)
(0.0999902 -1.51288e-05 0)
(0.0999866 -2.2164e-05 0)
(0.0999838 -2.779e-05 0)
(0.0999775 -3.64169e-05 0)
(0.0999748 -4.08829e-05 0)
(0.0999646 -5.05288e-05 0)
(0.100005 1.45837e-07 0)
(0.100006 -2.75442e-07 0)
(0.100006 -2.63944e-07 0)
(0.100007 -3.36704e-07 0)
(0.100006 -8.79432e-07 0)
(0.100005 -1.76179e-06 0)
(0.100004 -2.5429e-06 0)
(0.100002 -3.02349e-06 0)
(0.0999997 -2.7386e-06 0)
(0.0999969 -1.7555e-06 0)
(0.099995 1.16137e-07 0)
(0.0999934 1.43492e-06 0)
(0.0999924 2.25495e-06 0)
(0.0999906 3.68282e-07 0)
(0.0999887 -2.02926e-06 0)
(0.0999847 -7.49717e-06 0)
(0.0999807 -1.14747e-05 0)
(0.0999732 -1.86031e-05 0)
(0.0999687 -2.16788e-05 0)
(0.0999573 -3.10394e-05 0)
(0.100006 -1.90167e-07 0)
(0.100007 -1.35069e-06 0)
(0.100008 -2.37146e-06 0)
(0.100009 -3.47691e-06 0)
(0.100008 -4.89661e-06 0)
(0.100008 -6.58567e-06 0)
(0.100007 -8.21855e-06 0)
(0.100005 -9.65176e-06 0)
(0.100003 -1.05423e-05 0)
(0.100001 -1.09258e-05 0)
(0.0999986 -1.06006e-05 0)
(0.0999962 -1.07225e-05 0)
(0.0999941 -1.1067e-05 0)
(0.099991 -1.35409e-05 0)
(0.0999886 -1.61346e-05 0)
(0.0999836 -2.15177e-05 0)
(0.0999801 -2.51567e-05 0)
(0.0999709 -3.2263e-05 0)
(0.0999674 -3.49002e-05 0)
(0.0999515 -4.472e-05 0)
(0.100006 5.95973e-07 0)
(0.100007 1.37302e-06 0)
(0.100008 2.27444e-06 0)
(0.100008 3.16651e-06 0)
(0.100008 3.80841e-06 0)
(0.100007 4.21273e-06 0)
(0.100005 4.5679e-06 0)
(0.100003 4.93414e-06 0)
(0.1 5.52494e-06 0)
(0.0999973 6.22415e-06 0)
(0.0999949 7.2755e-06 0)
(0.0999929 8.10567e-06 0)
(0.0999915 9.04864e-06 0)
(0.0999891 8.79096e-06 0)
(0.099987 8.6988e-06 0)
(0.0999818 6.63561e-06 0)
(0.0999772 6.04952e-06 0)
(0.099967 2.08867e-06 0)
(0.0999619 2.01864e-06 0)
(0.0999456 -6.785e-06 0)
(0.100008 -9.6133e-07 0)
(0.100009 -2.71898e-06 0)
(0.10001 -4.05066e-06 0)
(0.100011 -5.31063e-06 0)
(0.10001 -6.68294e-06 0)
(0.100009 -8.07713e-06 0)
(0.100008 -9.33071e-06 0)
(0.100006 -1.04026e-05 0)
(0.100004 -1.11409e-05 0)
(0.100001 -1.16452e-05 0)
(0.0999985 -1.17643e-05 0)
(0.0999958 -1.23212e-05 0)
(0.0999942 -1.30093e-05 0)
(0.0999907 -1.49859e-05 0)
(0.0999887 -1.64021e-05 0)
(0.099982 -1.95149e-05 0)
(0.0999788 -2.06718e-05 0)
(0.0999653 -2.51339e-05 0)
(0.0999624 -2.54361e-05 0)
(0.0999367 -3.4046e-05 0)
)
;

boundaryField
{
    sides
    {
        type            calculated;
        value           nonuniform List<vector> 
40
(
(0.100008 0 0)
(0.100009 0 0)
(0.10001 0 0)
(0.100011 0 0)
(0.10001 0 0)
(0.100009 0 0)
(0.100008 0 0)
(0.100006 0 0)
(0.100004 0 0)
(0.100001 0 0)
(0.0999985 0 0)
(0.0999958 0 0)
(0.0999942 0 0)
(0.0999907 0 0)
(0.0999887 0 0)
(0.099982 0 0)
(0.0999788 0 0)
(0.0999653 0 0)
(0.0999624 0 0)
(0.0999367 0 0)
(0.0999924 0 0)
(0.099991 0 0)
(0.0999897 0 0)
(0.0999892 0 0)
(0.0999897 0 0)
(0.0999909 0 0)
(0.0999921 0 0)
(0.099994 0 0)
(0.0999964 0 0)
(0.0999994 0 0)
(0.100002 0 0)
(0.100004 0 0)
(0.100006 0 0)
(0.100009 0 0)
(0.100011 0 0)
(0.100018 0 0)
(0.100021 0 0)
(0.100035 0 0)
(0.100038 0 0)
(0.100063 0 0)
)
;
    }
    inlet
    {
        type            calculated;
        value           nonuniform List<vector> 
20
(
(0.0999921 0 0)
(0.0999933 0 0)
(0.0999939 0 0)
(0.0999949 0 0)
(0.0999957 0 0)
(0.0999965 0 0)
(0.0999973 0 0)
(0.0999981 0 0)
(0.0999989 0 0)
(0.0999996 0 0)
(0.1 0 0)
(0.100001 0 0)
(0.100002 0 0)
(0.100003 0 0)
(0.100003 0 0)
(0.100004 0 0)
(0.100005 0 0)
(0.100006 0 0)
(0.100007 0 0)
(0.100008 0 0)
)
;
    }
    outlet
    {
        type            calculated;
        value           nonuniform List<vector> 
20
(
(0.100064 -3.40326e-05 0)
(0.100055 -6.80357e-06 0)
(0.100049 -4.47328e-05 0)
(0.100043 -3.10539e-05 0)
(0.100036 -5.05534e-05 0)
(0.10003 -4.64804e-05 0)
(0.100023 -5.46687e-05 0)
(0.100017 -5.50842e-05 0)
(0.10001 -5.74962e-05 0)
(0.100003 -5.81934e-05 0)
(0.0999967 -5.81918e-05 0)
(0.0999901 -5.74863e-05 0)
(0.0999834 -5.50773e-05 0)
(0.0999772 -5.46467e-05 0)
(0.0999701 -4.64704e-05 0)
(0.0999643 -5.05286e-05 0)
(0.0999571 -3.10393e-05 0)
(0.099951 -4.47198e-05 0)
(0.0999452 -6.78497e-06 0)
(0.0999358 -3.40457e-05 0)
)
;
    }
    frontAndBack
    {
        type            empty;
    }
}


// ************************************************************************* //
