/*--------------------------------*- C++ -*----------------------------------*\
  =========                 |
  \\      /  F ield         | OpenFOAM: The Open Source CFD Toolbox
   \\    /   O peration     | Website:  https://openfoam.org
    \\  /    A nd           | Version:  7
     \\/     M anipulation  |
\*---------------------------------------------------------------------------*/
FoamFile
{
    version     2.0;
    format      ascii;
    class       volScalarField;
    location    "50";
    object      ddt0(h);
}
// * * * * * * * * * * * * * * * * * * * * * * * * * * * * * * * * * * * * * //

dimensions      [0 1 -1 0 0 0 0];

internalField   nonuniform List<scalar> 
400
(
5.38744e-09
7.16901e-09
8.41746e-09
6.15559e-09
9.6007e-09
2.37319e-08
-1.84613e-09
4.13926e-08
4.59789e-09
6.23138e-09
4.86283e-09
2.65167e-09
1.05449e-09
4.00302e-10
1.82699e-10
1.36935e-10
1.09621e-10
3.42043e-11
-1.07971e-10
-6.84214e-11
6.31565e-09
6.85237e-09
6.68886e-09
7.37348e-09
3.87358e-09
-1.23207e-08
1.69881e-08
-3.97823e-08
5.81085e-09
2.6037e-09
1.77646e-09
1.36915e-09
1.01364e-09
6.93506e-10
4.12154e-10
2.37497e-10
5.62658e-11
-1.07927e-10
-1.96351e-10
-8.08505e-11
7.72296e-09
6.22786e-09
5.82078e-09
7.82147e-09
5.2692e-09
8.22126e-09
-1.30856e-09
1.35344e-08
4.40919e-09
1.46744e-09
1.22572e-09
9.64104e-10
1.06237e-09
8.81528e-10
5.35928e-10
3.46009e-10
1.01988e-10
-1.13667e-10
-6.1297e-11
6.85655e-11
6.26702e-09
5.75987e-09
5.63078e-09
6.1017e-09
5.33371e-09
4.56338e-09
5.23655e-09
5.41846e-09
2.76231e-10
1.47851e-09
1.25872e-09
1.00983e-09
1.10648e-09
7.56978e-10
3.5022e-10
1.97863e-10
-6.21716e-11
-2.33367e-10
-6.6673e-11
6.42635e-11
5.17101e-09
5.13392e-09
5.53964e-09
4.56259e-09
5.84515e-09
2.29576e-09
5.27552e-09
1.10133e-09
1.27412e-09
2.03933e-09
1.24247e-09
1.15863e-09
1.01834e-09
3.91248e-10
4.02479e-13
-1.2034e-10
-2.58458e-10
-2.45417e-10
-9.19343e-11
2.02078e-11
4.32929e-09
4.31072e-09
4.75173e-09
3.55084e-09
4.05328e-09
2.98018e-09
2.94074e-09
1.02306e-09
2.31602e-09
1.56556e-09
6.13745e-10
9.93144e-10
6.18391e-10
-3.80426e-11
-2.10413e-10
-2.91852e-10
-2.89587e-10
-2.15625e-10
-3.04207e-10
-1.84521e-10
3.5887e-09
3.55521e-09
3.38117e-09
3.20214e-09
2.18522e-09
2.61138e-09
1.54286e-09
1.53065e-09
1.75422e-09
3.45293e-10
3.12623e-10
5.0213e-10
-1.49674e-10
-4.00217e-10
-3.20656e-10
-3.9398e-10
-1.80681e-10
-1.6041e-11
-1.84535e-10
-1.36427e-10
2.76625e-09
2.82218e-09
2.00025e-09
2.2731e-09
1.62982e-09
1.7182e-09
8.72623e-10
1.2947e-09
6.56029e-10
5.425e-11
1.873e-10
-3.52401e-10
-7.04777e-10
-2.57426e-10
-1.51458e-10
-3.74606e-10
-7.97722e-11
2.04243e-10
1.59254e-10
7.00154e-11
1.67521e-09
1.73692e-09
1.32216e-09
1.36531e-09
1.22139e-09
9.91315e-10
5.28643e-10
5.91631e-10
1.23502e-10
-1.57461e-11
-1.19638e-10
-6.37035e-10
-4.70921e-10
1.00876e-10
2.64453e-11
-2.56287e-10
-7.6798e-11
2.27272e-10
4.04038e-10
2.46565e-10
5.14271e-10
4.06918e-10
7.13139e-10
6.54571e-10
6.61471e-10
3.09081e-10
3.57795e-10
3.88415e-12
5.29064e-11
1.33532e-10
-6.67672e-11
4.59072e-11
1.73657e-10
-4.53991e-11
-8.21478e-11
1.43855e-10
1.02653e-10
5.0403e-11
2.17463e-10
1.65082e-10
-5.76526e-10
-7.43769e-10
-2.62904e-10
-3.38707e-10
-1.90564e-10
-3.16083e-10
3.18788e-11
-2.8701e-10
-9.95753e-11
3.04804e-10
2.41094e-10
5.17756e-10
6.20278e-10
6.79572e-11
-3.70942e-12
3.73466e-10
1.26881e-10
-2.17029e-10
-1.93896e-10
-6.70941e-11
-1.56733e-09
-1.56602e-09
-1.5663e-09
-1.57161e-09
-1.29782e-09
-9.22192e-10
-6.49997e-10
-3.15903e-10
-5.05882e-10
2.29385e-10
4.57637e-10
1.2965e-10
3.94932e-10
4.53233e-10
2.48515e-10
2.06543e-10
-3.36082e-11
-2.51801e-10
-3.17517e-10
-1.86726e-10
-2.57553e-09
-2.2899e-09
-2.93437e-09
-2.40298e-09
-2.34627e-09
-1.49432e-09
-1.49586e-09
-5.0154e-10
-9.32032e-10
-4.41595e-10
2.88564e-10
-2.19965e-10
-2.407e-10
2.29291e-10
3.00097e-10
1.52042e-10
1.55819e-11
-1.1519e-10
-2.75779e-10
-1.97774e-10
-3.71025e-09
-3.37332e-09
-3.73284e-09
-2.72969e-09
-3.40562e-09
-1.75049e-09
-2.30318e-09
-9.12151e-10
-7.15573e-10
-1.35069e-09
-4.75998e-10
-2.29433e-10
-5.54236e-10
-2.63234e-10
8.17074e-11
9.98046e-11
1.90046e-10
1.84802e-10
-7.06925e-11
-1.36826e-10
-4.8998e-09
-4.53853e-09
-3.81231e-09
-3.82305e-09
-3.55655e-09
-2.8072e-09
-2.68704e-09
-2.88481e-09
-2.86693e-10
-1.22941e-09
-1.25932e-09
-4.29238e-10
-5.82315e-10
-5.26001e-10
-1.92711e-10
-5.71216e-11
2.62558e-10
4.47735e-10
2.3379e-10
1.10905e-11
-5.93095e-09
-5.50814e-09
-4.37779e-09
-5.1331e-09
-3.42913e-09
-5.522e-09
-2.61417e-09
-4.85734e-09
-2.4838e-09
-8.65623e-10
-1.17472e-09
-5.95529e-10
-4.30916e-10
-4.05378e-10
-2.09851e-10
-8.71637e-11
2.12368e-10
4.49915e-10
3.89695e-10
1.21683e-10
-6.26935e-09
-5.79837e-09
-5.51373e-09
-6.18166e-09
-4.58994e-09
-6.55261e-09
-1.18843e-09
-4.33597e-09
-4.3637e-09
-2.01222e-09
-1.21538e-09
-6.60179e-10
-3.36536e-10
-2.97685e-10
-1.90284e-10
-8.82237e-11
7.1037e-11
2.76651e-10
4.58528e-10
2.55048e-10
-4.92381e-09
-5.95454e-09
-7.09967e-09
-7.78343e-09
-6.30027e-09
-4.5122e-09
-5.6278e-09
-7.84589e-10
-6.45085e-09
-3.76048e-09
-2.15673e-09
-1.19889e-09
-4.96021e-10
-2.84903e-10
-1.69144e-10
-7.11511e-11
-9.05464e-11
-3.17763e-11
1.91254e-10
1.2324e-10
-6.79666e-09
-6.56527e-09
-7.50981e-09
-7.72812e-09
-3.57777e-09
-8.01919e-09
-5.80848e-09
3.75423e-08
-2.60399e-09
-3.92684e-09
-2.50824e-09
-1.75701e-09
-1.02803e-09
-5.41748e-10
-2.6776e-10
-7.22632e-11
-7.98259e-11
-1.09233e-10
2.00252e-11
3.27604e-11
-6.49214e-09
-7.64139e-09
-7.46042e-09
-5.37031e-09
-1.09768e-08
-3.198e-09
-8.2337e-09
-4.87576e-08
-2.8128e-09
-2.83269e-09
-3.4718e-09
-3.24344e-09
-2.04858e-09
-8.92107e-10
-3.13592e-10
-5.11036e-11
-6.59687e-11
-1.89062e-10
-1.81919e-10
-1.1213e-10
)
;

boundaryField
{
    sides
    {
        type            calculated;
        value           nonuniform List<scalar> 
40
(
-6.49214e-09
-7.64139e-09
-7.46042e-09
-5.37031e-09
-1.09768e-08
-3.198e-09
-8.2337e-09
-4.87576e-08
-2.8128e-09
-2.83269e-09
-3.4718e-09
-3.24344e-09
-2.04858e-09
-8.92107e-10
-3.13592e-10
-5.11036e-11
-6.59687e-11
-1.89062e-10
-1.81919e-10
-1.1213e-10
5.38744e-09
7.16901e-09
8.41746e-09
6.15559e-09
9.6007e-09
2.37319e-08
-1.84613e-09
4.13926e-08
4.59789e-09
6.23138e-09
4.86283e-09
2.65167e-09
1.05449e-09
4.00302e-10
1.82699e-10
1.36935e-10
1.09621e-10
3.42043e-11
-1.07971e-10
-6.84214e-11
)
;
    }
    inlet
    {
        type            calculated;
        value           nonuniform List<scalar> 
20
(
5.38744e-09
6.31565e-09
7.72296e-09
6.26702e-09
5.17101e-09
4.32929e-09
3.5887e-09
2.76625e-09
1.67521e-09
5.14271e-10
-5.76526e-10
-1.56733e-09
-2.57553e-09
-3.71025e-09
-4.8998e-09
-5.93095e-09
-6.26935e-09
-4.92381e-09
-6.79666e-09
-6.49214e-09
)
;
    }
    outlet
    {
        type            calculated;
        value           uniform 0;
    }
    frontAndBack
    {
        type            empty;
    }
}


// ************************************************************************* //
