/*--------------------------------*- C++ -*----------------------------------*\
  =========                 |
  \\      /  F ield         | OpenFOAM: The Open Source CFD Toolbox
   \\    /   O peration     | Website:  https://openfoam.org
    \\  /    A nd           | Version:  7
     \\/     M anipulation  |
\*---------------------------------------------------------------------------*/
FoamFile
{
    version     2.0;
    format      ascii;
    class       volVectorField;
    location    "50";
    object      ddtCorrDdt0(hU);
}
// * * * * * * * * * * * * * * * * * * * * * * * * * * * * * * * * * * * * * //

dimensions      [0 2 -2 0 0 0 0];

internalField   nonuniform List<vector> 
400
(
(1.04474e-10 4.93949e-11 0)
(1.39793e-10 3.79802e-11 0)
(-4.80288e-10 1.22432e-10 0)
(-8.08506e-10 5.3787e-12 0)
(-4.27872e-10 -5.02627e-10 0)
(8.35034e-10 -8.66896e-10 0)
(-6.82685e-10 -1.56645e-10 0)
(3.04321e-09 -2.1231e-09 0)
(-6.88514e-10 -1.82805e-10 0)
(1.45019e-09 -2.16718e-10 0)
(1.51576e-09 -2.60712e-10 0)
(1.07491e-09 5.85652e-11 0)
(7.65573e-10 5.27555e-10 0)
(4.73551e-10 7.92184e-10 0)
(1.63949e-10 7.63137e-10 0)
(-2.90063e-10 4.9539e-10 0)
(-4.24189e-10 -5.6692e-11 0)
(-3.05513e-10 -3.78409e-10 0)
(-1.0387e-10 -9.3349e-10 0)
(8.54436e-10 -6.92219e-10 0)
(9.2914e-11 9.33e-11 0)
(4.30989e-11 -2.36723e-11 0)
(-4.94495e-10 6.45086e-11 0)
(-8.70623e-10 3.04204e-10 0)
(-1.45321e-09 -4.0779e-11 0)
(-2.07093e-09 3.61819e-10 0)
(2.63534e-10 1.02603e-10 0)
(-5.15538e-09 -6.24192e-10 0)
(1.23638e-09 1.06784e-09 0)
(5.23824e-10 5.01981e-10 0)
(7.94889e-10 5.41329e-11 0)
(1.08893e-09 -8.8344e-11 0)
(1.11364e-09 7.43971e-11 0)
(7.94973e-10 3.69024e-10 0)
(3.26419e-10 5.43788e-10 0)
(-2.28696e-10 6.11032e-10 0)
(-4.72588e-10 3.96751e-10 0)
(-3.9471e-10 1.70178e-10 0)
(-2.28032e-10 -2.18963e-10 0)
(6.44647e-10 -4.02268e-10 0)
(2.61658e-10 2.6398e-11 0)
(-1.06139e-10 2.04561e-10 0)
(-5.41739e-10 3.19209e-10 0)
(-7.91789e-10 3.29633e-10 0)
(-7.55108e-10 -1.08746e-10 0)
(-4.14294e-10 1.16907e-10 0)
(-1.47055e-09 -1.29176e-09 0)
(1.28371e-09 2.3894e-10 0)
(6.04011e-10 -7.3116e-10 0)
(6.37764e-11 -7.6398e-10 0)
(6.04381e-10 -1.74704e-10 0)
(8.07649e-10 4.2256e-10 0)
(8.88229e-10 1.12602e-09 0)
(5.96337e-10 1.61563e-09 0)
(1.78108e-10 1.63825e-09 0)
(-3.97533e-10 1.28334e-09 0)
(-6.05383e-10 2.66111e-10 0)
(-5.48975e-10 -4.15656e-10 0)
(-2.85571e-10 -1.61773e-09 0)
(8.67282e-10 -1.46701e-09 0)
(1.5855e-10 8.59832e-11 0)
(-2.49918e-11 3.318e-10 0)
(-4.33325e-10 5.95586e-10 0)
(-8.65733e-10 5.06351e-10 0)
(-7.32383e-10 2.53936e-10 0)
(-8.25857e-10 -4.12232e-10 0)
(-3.15259e-10 -3.90301e-10 0)
(3.29036e-10 -5.42646e-10 0)
(-3.71928e-10 -1.46284e-09 0)
(4.7874e-10 -1.02571e-09 0)
(9.84959e-10 -3.27362e-10 0)
(1.09189e-09 4.91683e-10 0)
(1.13215e-09 1.42931e-09 0)
(8.08182e-10 2.04968e-09 0)
(3.34191e-10 2.12067e-09 0)
(-1.95935e-10 1.7436e-09 0)
(-4.84825e-10 4.539e-10 0)
(-4.87551e-10 -4.69166e-10 0)
(-3.1962e-10 -2.07446e-09 0)
(5.2238e-10 -1.94845e-09 0)
(6.34685e-11 2.09818e-10 0)
(-1.09314e-10 4.55215e-10 0)
(-3.33479e-10 7.59829e-10 0)
(-5.75199e-10 6.95117e-10 0)
(-3.97127e-10 6.58462e-10 0)
(-5.48811e-10 -1.15975e-10 0)
(-6.48994e-12 3.34721e-11 0)
(-4.57217e-10 -8.28671e-10 0)
(-2.521e-10 -8.23738e-10 0)
(4.13706e-10 -4.7484e-10 0)
(5.55822e-10 -8.29604e-11 0)
(6.86032e-10 6.20401e-10 0)
(7.42199e-10 1.53553e-09 0)
(4.68622e-10 2.18439e-09 0)
(1.77708e-10 2.28003e-09 0)
(-1.74391e-10 1.93255e-09 0)
(-3.45001e-10 5.54453e-10 0)
(-3.12837e-10 -4.56881e-10 0)
(-1.62969e-10 -2.1699e-09 0)
(5.70883e-10 -2.11614e-09 0)
(6.59479e-11 2.54081e-10 0)
(1.5237e-11 8.15961e-10 0)
(-3.62606e-10 1.1316e-09 0)
(-6.94275e-10 7.82263e-10 0)
(-7.15355e-10 2.82807e-10 0)
(-6.38591e-10 -4.20098e-10 0)
(-3.7509e-10 -9.44215e-10 0)
(-4.09251e-10 -1.5041e-09 0)
(3.75797e-10 -1.28821e-09 0)
(8.22879e-10 -1.05189e-09 0)
(9.59335e-10 -3.55254e-10 0)
(1.16743e-09 7.83584e-10 0)
(9.80209e-10 2.07731e-09 0)
(4.14089e-10 2.94171e-09 0)
(-5.97087e-11 3.01227e-09 0)
(-6.12317e-10 2.37487e-09 0)
(-8.40379e-10 3.79766e-10 0)
(-6.938e-10 -9.4695e-10 0)
(-3.27498e-10 -3.17942e-09 0)
(6.10675e-10 -2.85902e-09 0)
(6.28741e-11 3.84899e-10 0)
(7.99036e-11 1.05011e-09 0)
(-2.58239e-10 1.30434e-09 0)
(-3.71559e-10 1.24137e-09 0)
(-3.47921e-10 7.65367e-10 0)
(-1.83229e-10 3.77282e-10 0)
(-2.2881e-10 -2.93519e-10 0)
(-1.12994e-10 -6.55675e-10 0)
(1.6841e-10 -7.50093e-10 0)
(7.88331e-11 -8.37947e-10 0)
(2.4165e-10 -2.6879e-10 0)
(4.35478e-10 6.15095e-10 0)
(3.6987e-10 1.69096e-09 0)
(3.04837e-10 2.63509e-09 0)
(2.88837e-10 2.90144e-09 0)
(6.25135e-11 2.46739e-09 0)
(-1.62351e-10 6.08993e-10 0)
(-1.32472e-10 -6.7185e-10 0)
(-9.73074e-11 -2.91926e-09 0)
(1.98982e-10 -2.85074e-09 0)
(8.34649e-11 5.80698e-10 0)
(1.10291e-10 1.37727e-09 0)
(-2.02118e-10 1.50266e-09 0)
(-3.06274e-10 1.33153e-09 0)
(-3.22286e-10 6.73901e-10 0)
(-2.40565e-10 -1.91204e-11 0)
(-2.72484e-10 -7.97863e-10 0)
(-2.59654e-11 -1.21217e-09 0)
(9.58173e-11 -1.4269e-09 0)
(2.21726e-10 -1.25143e-09 0)
(4.8502e-10 -3.51871e-10 0)
(4.5617e-10 7.81369e-10 0)
(3.09078e-10 2.15548e-09 0)
(1.98395e-10 3.24986e-09 0)
(1.97785e-11 3.38974e-09 0)
(-3.68345e-10 2.67178e-09 0)
(-4.94093e-10 4.64683e-10 0)
(-3.28057e-10 -9.90148e-10 0)
(-1.21716e-10 -3.62602e-09 0)
(3.30554e-10 -3.34026e-09 0)
(7.35176e-11 7.63781e-10 0)
(5.90301e-11 1.55079e-09 0)
(-1.60825e-10 1.65229e-09 0)
(-2.1632e-10 1.35868e-09 0)
(-1.83498e-10 8.0367e-10 0)
(-1.12889e-10 4.98288e-11 0)
(-6.80907e-11 -6.34756e-10 0)
(5.1922e-11 -1.13583e-09 0)
(5.29065e-11 -1.43269e-09 0)
(1.11714e-10 -1.28113e-09 0)
(1.52387e-10 -5.62385e-10 0)
(3.60239e-11 5.11919e-10 0)
(4.51404e-11 2.01073e-09 0)
(1.28394e-10 3.19914e-09 0)
(6.47117e-11 3.37865e-09 0)
(-6.67809e-11 2.78721e-09 0)
(-7.02405e-11 7.05334e-10 0)
(4.2554e-11 -7.41967e-10 0)
(1.272e-10 -3.53487e-09 0)
(1.69024e-10 -3.43216e-09 0)
(7.51942e-12 8.04737e-10 0)
(-3.76791e-11 1.60642e-09 0)
(-6.62495e-11 1.73975e-09 0)
(-6.72964e-11 1.45794e-09 0)
(-3.75824e-11 9.09679e-10 0)
(-3.36662e-11 1.1031e-10 0)
(1.89185e-11 -6.78479e-10 0)
(-4.8303e-11 -1.28765e-09 0)
(-5.69291e-11 -1.56995e-09 0)
(1.18021e-11 -1.36288e-09 0)
(4.20957e-11 -5.34485e-10 0)
(1.36138e-10 6.92604e-10 0)
(2.15321e-10 2.28358e-09 0)
(1.0644e-10 3.43736e-09 0)
(3.22413e-12 3.52715e-09 0)
(-1.89638e-11 2.83062e-09 0)
(-5.39035e-11 6.24699e-10 0)
(-1.67992e-10 -8.93951e-10 0)
(-1.83634e-10 -3.77336e-09 0)
(7.39195e-11 -3.56268e-09 0)
(-2.55413e-11 6.75766e-10 0)
(-7.97622e-11 1.57445e-09 0)
(3.16995e-11 1.70983e-09 0)
(6.67049e-11 1.49413e-09 0)
(4.63027e-11 9.00862e-10 0)
(-6.75456e-12 1.70336e-10 0)
(4.71064e-11 -6.51081e-10 0)
(-7.5207e-12 -1.24807e-09 0)
(8.19083e-12 -1.4715e-09 0)
(6.61856e-11 -1.32806e-09 0)
(-1.54209e-11 -4.55512e-10 0)
(-2.90181e-11 7.64679e-10 0)
(-3.11883e-11 2.22698e-09 0)
(-1.45401e-10 3.37503e-09 0)
(-1.44821e-10 3.57956e-09 0)
(1.33794e-10 2.89782e-09 0)
(2.62247e-10 5.85512e-10 0)
(1.28919e-10 -9.69411e-10 0)
(4.66975e-11 -3.75866e-09 0)
(-3.798e-11 -3.52389e-09 0)
(-5.88211e-12 5.44602e-10 0)
(-3.0809e-11 1.41882e-09 0)
(1.16052e-10 1.62112e-09 0)
(1.88788e-10 1.41113e-09 0)
(1.58523e-10 8.04759e-10 0)
(1.1907e-10 1.53589e-10 0)
(6.06838e-11 -5.68517e-10 0)
(1.92233e-11 -1.09183e-09 0)
(-1.37683e-10 -1.2361e-09 0)
(-7.85806e-11 -1.19092e-09 0)
(-6.93611e-11 -4.60305e-10 0)
(-1.70601e-10 6.63255e-10 0)
(-8.66625e-11 1.99704e-09 0)
(-5.63902e-12 3.10048e-09 0)
(-3.71882e-11 3.42205e-09 0)
(3.40725e-11 2.88763e-09 0)
(9.91377e-11 6.40096e-10 0)
(-1.45443e-11 -8.86743e-10 0)
(-1.43474e-10 -3.51801e-09 0)
(-1.85932e-10 -3.36208e-09 0)
(-3.13704e-11 4.94018e-10 0)
(3.6866e-11 1.21807e-09 0)
(1.99598e-10 1.55543e-09 0)
(2.98879e-10 1.27841e-09 0)
(2.60032e-10 7.43275e-10 0)
(2.92366e-10 -3.29428e-11 0)
(1.75468e-10 -7.14071e-10 0)
(2.05785e-10 -1.31381e-09 0)
(-1.1556e-10 -1.34924e-09 0)
(-3.25583e-10 -1.13113e-09 0)
(-3.64827e-10 -3.98583e-10 0)
(-5.74338e-10 8.25387e-10 0)
(-5.5376e-10 2.26923e-09 0)
(-1.88137e-10 3.24161e-09 0)
(6.64384e-11 3.36135e-09 0)
(3.0351e-10 2.70817e-09 0)
(4.23e-10 4.35254e-10 0)
(3.9304e-10 -1.09623e-09 0)
(1.81027e-10 -3.65092e-09 0)
(-3.98978e-10 -3.31283e-09 0)
(-9.51527e-11 4.84165e-10 0)
(8.79131e-11 1.03942e-09 0)
(3.06493e-10 1.34646e-09 0)
(4.23633e-10 1.13009e-09 0)
(2.53424e-10 8.8803e-10 0)
(2.78918e-10 1.6862e-10 0)
(7.61472e-11 -2.24495e-10 0)
(2.03184e-10 -8.31814e-10 0)
(1.17673e-10 -1.02687e-09 0)
(-2.9023e-10 -7.99113e-10 0)
(-2.90969e-10 -3.67238e-10 0)
(-3.27768e-10 4.94181e-10 0)
(-5.24946e-10 1.76063e-09 0)
(-4.51506e-10 2.70177e-09 0)
(-2.67607e-10 2.88496e-09 0)
(-1.15899e-10 2.4592e-09 0)
(6.01208e-11 6.14535e-10 0)
(1.80563e-10 -7.04113e-10 0)
(1.72693e-10 -2.98048e-09 0)
(-2.52516e-10 -2.88135e-09 0)
(-1.68728e-10 4.55186e-10 0)
(1.48448e-11 9.31725e-10 0)
(4.53014e-10 1.0553e-09 0)
(7.44109e-10 7.89902e-10 0)
(6.89039e-10 2.24373e-10 0)
(6.17049e-10 -5.04008e-10 0)
(4.13818e-10 -9.61564e-10 0)
(-3.25571e-11 -1.28341e-09 0)
(4.53281e-11 -1.67411e-09 0)
(-6.62689e-10 -1.28239e-09 0)
(-1.11741e-09 -4.23536e-10 0)
(-1.00525e-09 6.41161e-10 0)
(-9.33476e-10 2.02303e-09 0)
(-5.45111e-10 2.99255e-09 0)
(1.46238e-11 3.03138e-09 0)
(5.60339e-10 2.35629e-09 0)
(7.49984e-10 4.08154e-10 0)
(7.01857e-10 -9.02471e-10 0)
(3.86037e-10 -3.21442e-09 0)
(-5.91132e-10 -2.90041e-09 0)
(-2.01402e-10 3.37041e-10 0)
(-3.8984e-11 5.75676e-10 0)
(4.28452e-10 6.50065e-10 0)
(5.41338e-10 7.96981e-10 0)
(5.71663e-10 3.69604e-10 0)
(2.76782e-10 3.16874e-10 0)
(5.02442e-10 -3.91035e-10 0)
(-2.4549e-10 -1.86136e-10 0)
(-1.61393e-10 -5.957e-10 0)
(-7.86042e-11 -7.11271e-10 0)
(-4.88243e-10 -1.58846e-10 0)
(-5.41461e-10 5.25876e-10 0)
(-5.74235e-10 1.41582e-09 0)
(-4.75104e-10 2.17455e-09 0)
(-2.23115e-10 2.30132e-09 0)
(1.39567e-10 1.92872e-09 0)
(3.01657e-10 6.01565e-10 0)
(2.99076e-10 -3.68036e-10 0)
(2.07859e-10 -2.13501e-09 0)
(-4.94181e-10 -2.1184e-09 0)
(-2.16482e-10 1.76761e-10 0)
(-2.09114e-10 3.81408e-10 0)
(4.2946e-10 4.77586e-10 0)
(7.72023e-10 5.67713e-10 0)
(1.04149e-09 7.71708e-11 0)
(4.87072e-10 3.11394e-11 0)
(8.97902e-10 -1.04102e-09 0)
(2.23693e-10 -5.70333e-10 0)
(-7.15217e-10 -5.90546e-10 0)
(-7.19494e-10 -8.20385e-10 0)
(-9.19239e-10 -3.17403e-10 0)
(-9.96491e-10 4.45823e-10 0)
(-9.30148e-10 1.32518e-09 0)
(-6.94098e-10 2.00577e-09 0)
(-3.17684e-10 2.12785e-09 0)
(2.1311e-10 1.75351e-09 0)
(4.90916e-10 4.89935e-10 0)
(4.63166e-10 -4.06339e-10 0)
(3.3652e-10 -2.02195e-09 0)
(-4.67246e-10 -1.92437e-09 0)
(-1.11022e-10 -9.23533e-11 0)
(-2.75839e-10 1.20949e-10 0)
(4.20492e-10 3.73e-10 0)
(7.64638e-10 3.12174e-10 0)
(9.45135e-10 2.2817e-10 0)
(3.93532e-10 -8.67957e-10 0)
(4.86636e-10 -1.15428e-09 0)
(1.20848e-09 -1.07211e-09 0)
(-8.39711e-10 -3.41008e-10 0)
(-9.66906e-10 -3.92219e-10 0)
(-8.84704e-10 -4.65535e-11 0)
(-8.55595e-10 5.17934e-10 0)
(-7.23289e-10 1.15077e-09 0)
(-4.28607e-10 1.59851e-09 0)
(-1.08815e-10 1.62814e-09 0)
(4.43462e-10 1.2772e-09 0)
(6.23247e-10 2.6055e-10 0)
(5.17583e-10 -4.11786e-10 0)
(2.68705e-10 -1.59916e-09 0)
(-8.64756e-10 -1.45395e-09 0)
(-1.56457e-10 -3.72948e-10 0)
(-1.33323e-11 -8.2249e-11 0)
(4.58232e-10 3.96053e-10 0)
(1.02602e-09 1.85247e-10 0)
(7.65148e-10 2.03014e-10 0)
(-3.66715e-10 2.73451e-10 0)
(7.83188e-10 1.68219e-09 0)
(5.55157e-09 -4.63086e-10 0)
(1.49305e-10 -3.71886e-10 0)
(-1.11489e-09 3.52366e-10 0)
(-1.08842e-09 3.41792e-10 0)
(-1.16697e-09 2.3028e-10 0)
(-1.10556e-09 2.09171e-10 0)
(-7.50563e-10 3.48986e-10 0)
(-3.0261e-10 4.84721e-10 0)
(2.53922e-10 5.58301e-10 0)
(4.84368e-10 3.48782e-10 0)
(3.67955e-10 1.3383e-10 0)
(1.8884e-10 -2.38897e-10 0)
(-6.67124e-10 -4.10174e-10 0)
(3.71154e-11 -2.29151e-10 0)
(3.38571e-10 5.94764e-11 0)
(4.90799e-10 3.27705e-10 0)
(7.43599e-10 -8.66532e-11 0)
(6.43024e-10 -6.04492e-10 0)
(2.14251e-09 1.0826e-10 0)
(-3.06759e-10 1.01888e-09 0)
(-5.62522e-09 -1.02927e-09 0)
(4.85089e-10 -1.4977e-09 0)
(-7.73182e-12 -5.01072e-10 0)
(-1.0984e-09 -5.6474e-11 0)
(-1.3139e-09 2.71254e-10 0)
(-1.09744e-09 5.9694e-10 0)
(-6.08511e-10 7.65282e-10 0)
(-1.74986e-10 7.16228e-10 0)
(3.29126e-10 4.57687e-10 0)
(4.60106e-10 -8.61015e-11 0)
(2.98004e-10 -4.00264e-10 0)
(5.98317e-11 -9.50692e-10 0)
(-8.77162e-10 -6.99929e-10 0)
)
;

boundaryField
{
    sides
    {
        type            calculated;
        value           nonuniform List<vector> 
40
(
(3.71154e-11 0 0)
(3.38571e-10 0 0)
(4.90799e-10 0 0)
(7.43599e-10 0 0)
(6.43024e-10 0 0)
(2.14251e-09 0 0)
(-3.06759e-10 0 0)
(-5.62522e-09 0 0)
(4.85089e-10 0 0)
(-7.73182e-12 0 0)
(-1.0984e-09 0 0)
(-1.3139e-09 0 0)
(-1.09744e-09 0 0)
(-6.08511e-10 0 0)
(-1.74986e-10 0 0)
(3.29126e-10 0 0)
(4.60106e-10 0 0)
(2.98004e-10 0 0)
(5.98317e-11 0 0)
(-8.77162e-10 0 0)
(1.04474e-10 0 0)
(1.39793e-10 0 0)
(-4.80288e-10 0 0)
(-8.08506e-10 0 0)
(-4.27872e-10 0 0)
(8.35034e-10 0 0)
(-6.82685e-10 0 0)
(3.04321e-09 0 0)
(-6.88514e-10 0 0)
(1.45019e-09 0 0)
(1.51576e-09 0 0)
(1.07491e-09 0 0)
(7.65573e-10 0 0)
(4.73551e-10 0 0)
(1.63949e-10 0 0)
(-2.90063e-10 0 0)
(-4.24189e-10 0 0)
(-3.05513e-10 0 0)
(-1.0387e-10 0 0)
(8.54436e-10 0 0)
)
;
    }
    inlet
    {
        type            calculated;
        value           uniform (0 0 0);
    }
    outlet
    {
        type            calculated;
        value           nonuniform List<vector> 
20
(
(8.54436e-10 -6.92219e-10 0)
(6.44647e-10 -4.02268e-10 0)
(8.67282e-10 -1.46701e-09 0)
(5.2238e-10 -1.94845e-09 0)
(5.70883e-10 -2.11614e-09 0)
(6.10675e-10 -2.85902e-09 0)
(1.98982e-10 -2.85074e-09 0)
(3.30554e-10 -3.34026e-09 0)
(1.69024e-10 -3.43216e-09 0)
(7.39195e-11 -3.56268e-09 0)
(-3.798e-11 -3.52389e-09 0)
(-1.85932e-10 -3.36208e-09 0)
(-3.98978e-10 -3.31283e-09 0)
(-2.52516e-10 -2.88135e-09 0)
(-5.91132e-10 -2.90041e-09 0)
(-4.94181e-10 -2.1184e-09 0)
(-4.67246e-10 -1.92437e-09 0)
(-8.64756e-10 -1.45395e-09 0)
(-6.67124e-10 -4.10174e-10 0)
(-8.77162e-10 -6.99929e-10 0)
)
;
    }
    frontAndBack
    {
        type            empty;
    }
}


// ************************************************************************* //
