/*--------------------------------*- C++ -*----------------------------------*\
  =========                 |
  \\      /  F ield         | OpenFOAM: The Open Source CFD Toolbox
   \\    /   O peration     | Website:  https://openfoam.org
    \\  /    A nd           | Version:  7
     \\/     M anipulation  |
\*---------------------------------------------------------------------------*/
FoamFile
{
    version     2.0;
    format      ascii;
    class       volVectorField;
    location    "50";
    object      hU;
}
// * * * * * * * * * * * * * * * * * * * * * * * * * * * * * * * * * * * * * //

dimensions      [0 2 -1 0 0 0 0];

internalField   nonuniform List<vector> 
400
(
(0.001 -8.78776e-09 0)
(0.000999999 -2.40206e-08 0)
(0.000999999 -3.65397e-08 0)
(0.001 -4.75065e-08 0)
(0.00100001 -5.78602e-08 0)
(0.00100001 -6.84508e-08 0)
(0.00100002 -7.88606e-08 0)
(0.00100003 -8.96157e-08 0)
(0.00100004 -9.99827e-08 0)
(0.00100006 -1.11672e-07 0)
(0.00100007 -1.22216e-07 0)
(0.0010001 -1.35693e-07 0)
(0.00100011 -1.4621e-07 0)
(0.00100015 -1.63397e-07 0)
(0.00100017 -1.72561e-07 0)
(0.00100024 -1.97055e-07 0)
(0.00100026 -2.016e-07 0)
(0.00100038 -2.43719e-07 0)
(0.00100038 -2.39563e-07 0)
(0.00100061 -3.31538e-07 0)
(0.001 3.98707e-09 0)
(0.001 1.20799e-08 0)
(0.00100001 2.02095e-08 0)
(0.00100001 2.78777e-08 0)
(0.00100002 3.49257e-08 0)
(0.00100002 4.12683e-08 0)
(0.00100003 4.72963e-08 0)
(0.00100004 5.27064e-08 0)
(0.00100005 5.81377e-08 0)
(0.00100007 6.2039e-08 0)
(0.00100008 6.67793e-08 0)
(0.0010001 6.85173e-08 0)
(0.00100012 7.27539e-08 0)
(0.00100015 6.99406e-08 0)
(0.00100018 7.4008e-08 0)
(0.00100023 6.14689e-08 0)
(0.00100026 6.67701e-08 0)
(0.00100035 3.13362e-08 0)
(0.00100037 3.93692e-08 0)
(0.00100051 -5.47049e-08 0)
(0.001 -4.09066e-09 0)
(0.000999999 -1.34232e-08 0)
(0.000999999 -2.38201e-08 0)
(0.001 -3.47773e-08 0)
(0.001 -4.55127e-08 0)
(0.00100001 -5.622e-08 0)
(0.00100002 -6.67116e-08 0)
(0.00100003 -7.80311e-08 0)
(0.00100004 -8.91125e-08 0)
(0.00100005 -1.02282e-07 0)
(0.00100006 -1.14618e-07 0)
(0.00100008 -1.31621e-07 0)
(0.0010001 -1.45833e-07 0)
(0.00100013 -1.69897e-07 0)
(0.00100016 -1.85597e-07 0)
(0.00100021 -2.22339e-07 0)
(0.00100023 -2.37173e-07 0)
(0.00100031 -2.98978e-07 0)
(0.00100033 -3.073e-07 0)
(0.00100046 -4.21871e-07 0)
(0.001 -3.55147e-10 0)
(0.001 -6.58317e-10 0)
(0.001 -5.32637e-10 0)
(0.00100001 -3.21745e-10 0)
(0.00100001 8.74654e-11 0)
(0.00100002 -1.62009e-11 0)
(0.00100003 -1.60842e-10 0)
(0.00100004 -1.58351e-09 0)
(0.00100004 -3.05598e-09 0)
(0.00100006 -7.03703e-09 0)
(0.00100007 -1.06025e-08 0)
(0.00100009 -1.95883e-08 0)
(0.00100011 -2.63586e-08 0)
(0.00100013 -4.40931e-08 0)
(0.00100015 -5.40919e-08 0)
(0.00100019 -8.6481e-08 0)
(0.00100022 -9.74408e-08 0)
(0.00100028 -1.56567e-07 0)
(0.0010003 -1.6255e-07 0)
(0.00100039 -2.75627e-07 0)
(0.001 -3.03873e-09 0)
(0.001 -9.68834e-09 0)
(0.001 -1.71437e-08 0)
(0.001 -2.5631e-08 0)
(0.00100001 -3.46327e-08 0)
(0.00100001 -4.44475e-08 0)
(0.00100002 -5.4358e-08 0)
(0.00100002 -6.56501e-08 0)
(0.00100003 -7.70126e-08 0)
(0.00100004 -9.11328e-08 0)
(0.00100005 -1.04942e-07 0)
(0.00100007 -1.24444e-07 0)
(0.00100008 -1.41823e-07 0)
(0.00100011 -1.70667e-07 0)
(0.00100013 -1.91733e-07 0)
(0.00100016 -2.35863e-07 0)
(0.00100018 -2.57864e-07 0)
(0.00100024 -3.28593e-07 0)
(0.00100025 -3.43322e-07 0)
(0.00100033 -4.64224e-07 0)
(0.001 -2.77587e-09 0)
(0.001 -8.37333e-09 0)
(0.001 -1.38114e-08 0)
(0.001 -1.92557e-08 0)
(0.00100001 -2.44282e-08 0)
(0.00100001 -2.99416e-08 0)
(0.00100002 -3.54546e-08 0)
(0.00100002 -4.23242e-08 0)
(0.00100003 -4.94532e-08 0)
(0.00100004 -5.96849e-08 0)
(0.00100005 -7.00287e-08 0)
(0.00100006 -8.66713e-08 0)
(0.00100008 -1.01839e-07 0)
(0.0010001 -1.29171e-07 0)
(0.00100011 -1.49218e-07 0)
(0.00100014 -1.92623e-07 0)
(0.00100016 -2.13963e-07 0)
(0.0010002 -2.83316e-07 0)
(0.00100021 -2.96798e-07 0)
(0.00100027 -4.14516e-07 0)
(0.001 -3.06169e-09 0)
(0.001 -9.62111e-09 0)
(0.001 -1.6562e-08 0)
(0.001 -2.41946e-08 0)
(0.00100001 -3.23408e-08 0)
(0.00100001 -4.14289e-08 0)
(0.00100001 -5.09554e-08 0)
(0.00100002 -6.20958e-08 0)
(0.00100002 -7.37163e-08 0)
(0.00100003 -8.85918e-08 0)
(0.00100004 -1.03626e-07 0)
(0.00100005 -1.25098e-07 0)
(0.00100006 -1.45083e-07 0)
(0.00100007 -1.77469e-07 0)
(0.00100009 -2.02507e-07 0)
(0.00100011 -2.51319e-07 0)
(0.00100012 -2.77583e-07 0)
(0.00100015 -3.52364e-07 0)
(0.00100016 -3.69691e-07 0)
(0.00100021 -4.91959e-07 0)
(0.001 -3.32834e-09 0)
(0.001 -1.05511e-08 0)
(0.001 -1.8143e-08 0)
(0.001 -2.6251e-08 0)
(0.001 -3.45744e-08 0)
(0.00100001 -4.35078e-08 0)
(0.00100001 -5.25726e-08 0)
(0.00100001 -6.30743e-08 0)
(0.00100002 -7.40241e-08 0)
(0.00100002 -8.82663e-08 0)
(0.00100003 -1.02879e-07 0)
(0.00100004 -1.24185e-07 0)
(0.00100004 -1.44333e-07 0)
(0.00100005 -1.77076e-07 0)
(0.00100006 -2.02685e-07 0)
(0.00100008 -2.51897e-07 0)
(0.00100009 -2.78631e-07 0)
(0.00100011 -3.53038e-07 0)
(0.00100012 -3.7026e-07 0)
(0.00100015 -4.90321e-07 0)
(0.001 -3.49025e-09 0)
(0.001 -1.10895e-08 0)
(0.001 -1.90078e-08 0)
(0.001 -2.73903e-08 0)
(0.001 -3.59798e-08 0)
(0.001 -4.53176e-08 0)
(0.00100001 -5.49739e-08 0)
(0.00100001 -6.63053e-08 0)
(0.00100001 -7.82566e-08 0)
(0.00100001 -9.36564e-08 0)
(0.00100002 -1.09512e-07 0)
(0.00100002 -1.32194e-07 0)
(0.00100003 -1.53762e-07 0)
(0.00100003 -1.88187e-07 0)
(0.00100004 -2.1548e-07 0)
(0.00100005 -2.66714e-07 0)
(0.00100005 -2.95147e-07 0)
(0.00100007 -3.71646e-07 0)
(0.00100007 -3.90042e-07 0)
(0.00100009 -5.12162e-07 0)
(0.001 -3.56398e-09 0)
(0.001 -1.13392e-08 0)
(0.001 -1.94287e-08 0)
(0.001 -2.80053e-08 0)
(0.001 -3.68547e-08 0)
(0.001 -4.65067e-08 0)
(0.001 -5.64876e-08 0)
(0.001 -6.81123e-08 0)
(0.001 -8.03488e-08 0)
(0.001 -9.60538e-08 0)
(0.00100001 -1.12282e-07 0)
(0.00100001 -1.35378e-07 0)
(0.00100001 -1.57439e-07 0)
(0.00100001 -1.92341e-07 0)
(0.00100001 -2.20138e-07 0)
(0.00100002 -2.71706e-07 0)
(0.00100002 -3.00504e-07 0)
(0.00100002 -3.77007e-07 0)
(0.00100002 -3.95593e-07 0)
(0.00100003 -5.17011e-07 0)
(0.001 -3.57233e-09 0)
(0.001 -1.13413e-08 0)
(0.001 -1.9436e-08 0)
(0.001 -2.80093e-08 0)
(0.000999999 -3.6861e-08 0)
(0.000999999 -4.6506e-08 0)
(0.000999998 -5.64881e-08 0)
(0.000999997 -6.81093e-08 0)
(0.000999996 -8.03433e-08 0)
(0.000999995 -9.60539e-08 0)
(0.000999994 -1.12281e-07 0)
(0.000999993 -1.3538e-07 0)
(0.000999991 -1.5745e-07 0)
(0.000999989 -1.92348e-07 0)
(0.000999987 -2.20137e-07 0)
(0.000999984 -2.71702e-07 0)
(0.000999982 -3.00506e-07 0)
(0.000999978 -3.7701e-07 0)
(0.000999976 -3.95591e-07 0)
(0.00099997 -5.17005e-07 0)
(0.001 -3.50621e-09 0)
(0.001 -1.10984e-08 0)
(0.000999999 -1.90192e-08 0)
(0.000999999 -2.73974e-08 0)
(0.000999997 -3.59907e-08 0)
(0.000999996 -4.5317e-08 0)
(0.000999994 -5.49747e-08 0)
(0.000999992 -6.63024e-08 0)
(0.000999989 -7.82453e-08 0)
(0.000999986 -9.36556e-08 0)
(0.000999983 -1.09512e-07 0)
(0.000999978 -1.32194e-07 0)
(0.000999974 -1.53775e-07 0)
(0.000999967 -1.88198e-07 0)
(0.000999961 -2.1548e-07 0)
(0.000999952 -2.66697e-07 0)
(0.000999946 -2.95138e-07 0)
(0.000999933 -3.71625e-07 0)
(0.00099993 -3.90012e-07 0)
(0.000999911 -5.12101e-07 0)
(0.001 -3.33942e-09 0)
(0.001 -1.0562e-08 0)
(0.000999999 -1.81402e-08 0)
(0.000999998 -2.62554e-08 0)
(0.000999996 -3.45738e-08 0)
(0.000999994 -4.35121e-08 0)
(0.000999991 -5.25726e-08 0)
(0.000999987 -6.30865e-08 0)
(0.000999982 -7.40236e-08 0)
(0.000999977 -8.82685e-08 0)
(0.000999971 -1.02894e-07 0)
(0.000999964 -1.24192e-07 0)
(0.000999956 -1.44341e-07 0)
(0.000999946 -1.77093e-07 0)
(0.000999936 -2.02706e-07 0)
(0.000999921 -2.51904e-07 0)
(0.000999911 -2.78642e-07 0)
(0.000999889 -3.53043e-07 0)
(0.000999881 -3.70266e-07 0)
(0.000999851 -4.90309e-07 0)
(0.001 -3.06034e-09 0)
(0.001 -9.62152e-09 0)
(0.000999999 -1.65498e-08 0)
(0.000999997 -2.41937e-08 0)
(0.000999994 -3.23244e-08 0)
(0.000999991 -4.14406e-08 0)
(0.000999987 -5.09498e-08 0)
(0.000999982 -6.21125e-08 0)
(0.000999977 -7.37344e-08 0)
(0.000999969 -8.85857e-08 0)
(0.000999962 -1.03629e-07 0)
(0.000999951 -1.25088e-07 0)
(0.000999941 -1.4506e-07 0)
(0.000999926 -1.77438e-07 0)
(0.000999913 -2.02486e-07 0)
(0.000999891 -2.51273e-07 0)
(0.000999878 -2.77538e-07 0)
(0.000999847 -3.52279e-07 0)
(0.000999838 -3.69615e-07 0)
(0.000999791 -4.9182e-07 0)
(0.001 -2.76355e-09 0)
(0.000999999 -8.36552e-09 0)
(0.000999998 -1.38077e-08 0)
(0.000999995 -1.92489e-08 0)
(0.000999992 -2.44248e-08 0)
(0.000999987 -2.99546e-08 0)
(0.000999982 -3.54602e-08 0)
(0.000999975 -4.23259e-08 0)
(0.000999968 -4.94986e-08 0)
(0.000999959 -5.97126e-08 0)
(0.000999949 -7.00453e-08 0)
(0.000999936 -8.6683e-08 0)
(0.000999923 -1.01842e-07 0)
(0.000999904 -1.29164e-07 0)
(0.000999887 -1.49223e-07 0)
(0.00099986 -1.92625e-07 0)
(0.000999841 -2.13968e-07 0)
(0.000999802 -2.83303e-07 0)
(0.000999787 -2.96794e-07 0)
(0.00099973 -4.14496e-07 0)
(0.001 -3.01195e-09 0)
(0.001 -9.673e-09 0)
(0.000999999 -1.71503e-08 0)
(0.000999997 -2.56225e-08 0)
(0.000999994 -3.46489e-08 0)
(0.00099999 -4.44165e-08 0)
(0.000999985 -5.43737e-08 0)
(0.000999977 -6.55893e-08 0)
(0.000999969 -7.69953e-08 0)
(0.000999958 -9.11416e-08 0)
(0.000999947 -1.04941e-07 0)
(0.00099993 -1.24432e-07 0)
(0.000999915 -1.41808e-07 0)
(0.000999891 -1.70623e-07 0)
(0.000999873 -1.91698e-07 0)
(0.000999837 -2.35803e-07 0)
(0.000999817 -2.57821e-07 0)
(0.000999764 -3.28494e-07 0)
(0.000999751 -3.43244e-07 0)
(0.000999669 -4.64061e-07 0)
(0.001 -3.17714e-10 0)
(0.000999998 -6.48785e-10 0)
(0.000999995 -5.57911e-10 0)
(0.000999991 -3.33844e-10 0)
(0.000999986 5.97439e-11 0)
(0.00099998 4.52944e-12 0)
(0.000999973 -2.08658e-10 0)
(0.000999965 -1.55586e-09 0)
(0.000999955 -2.99101e-09 0)
(0.000999943 -7.03074e-09 0)
(0.00099993 -1.06164e-08 0)
(0.000999912 -1.96013e-08 0)
(0.000999895 -2.63717e-08 0)
(0.000999868 -4.40863e-08 0)
(0.000999846 -5.40852e-08 0)
(0.000999806 -8.64598e-08 0)
(0.00099978 -9.74299e-08 0)
(0.00099972 -1.56529e-07 0)
(0.000999698 -1.62519e-07 0)
(0.00099961 -2.75562e-07 0)
(0.001 -4.11815e-09 0)
(0.001 -1.34404e-08 0)
(0.001 -2.38281e-08 0)
(0.000999999 -3.47874e-08 0)
(0.000999995 -4.54954e-08 0)
(0.00099999 -5.62851e-08 0)
(0.000999983 -6.67257e-08 0)
(0.000999974 -7.80873e-08 0)
(0.000999963 -8.90666e-08 0)
(0.00099995 -1.02253e-07 0)
(0.000999936 -1.14613e-07 0)
(0.000999915 -1.31617e-07 0)
(0.000999897 -1.45848e-07 0)
(0.000999865 -1.69899e-07 0)
(0.000999842 -1.85614e-07 0)
(0.000999792 -2.22326e-07 0)
(0.000999767 -2.37194e-07 0)
(0.000999687 -2.9895e-07 0)
(0.00099967 -3.07309e-07 0)
(0.000999538 -4.21798e-07 0)
(0.001 3.90617e-09 0)
(0.000999996 1.20536e-08 0)
(0.000999992 2.02376e-08 0)
(0.000999987 2.78809e-08 0)
(0.000999982 3.49466e-08 0)
(0.000999976 4.12907e-08 0)
(0.000999969 4.74151e-08 0)
(0.000999959 5.26445e-08 0)
(0.000999948 5.80332e-08 0)
(0.000999934 6.20663e-08 0)
(0.000999919 6.68334e-08 0)
(0.000999898 6.85573e-08 0)
(0.000999878 7.27584e-08 0)
(0.000999846 6.99462e-08 0)
(0.00099982 7.4005e-08 0)
(0.000999768 6.14991e-08 0)
(0.000999738 6.67871e-08 0)
(0.000999654 3.14027e-08 0)
(0.000999628 3.9416e-08 0)
(0.000999495 -5.45833e-08 0)
(0.001 -8.82145e-09 0)
(0.001 -2.40277e-08 0)
(0.001 -3.65197e-08 0)
(0.000999998 -4.75053e-08 0)
(0.000999993 -5.7874e-08 0)
(0.000999986 -6.83784e-08 0)
(0.000999979 -7.87732e-08 0)
(0.000999968 -8.96542e-08 0)
(0.000999958 -1.00125e-07 0)
(0.000999942 -1.117e-07 0)
(0.000999928 -1.22218e-07 0)
(0.000999904 -1.35714e-07 0)
(0.000999887 -1.4626e-07 0)
(0.000999847 -1.63454e-07 0)
(0.000999827 -1.72626e-07 0)
(0.000999761 -1.97118e-07 0)
(0.000999742 -2.01669e-07 0)
(0.000999623 -2.43794e-07 0)
(0.000999617 -2.39643e-07 0)
(0.000999393 -3.31666e-07 0)
)
;

boundaryField
{
    sides
    {
        type            slip;
    }
    inlet
    {
        type            fixedValue;
        value           uniform (0.001 0 0);
    }
    outlet
    {
        type            zeroGradient;
    }
    frontAndBack
    {
        type            empty;
    }
}


// ************************************************************************* //
