/*--------------------------------*- C++ -*----------------------------------*\
  =========                 |
  \\      /  F ield         | OpenFOAM: The Open Source CFD Toolbox
   \\    /   O peration     | Website:  https://openfoam.org
    \\  /    A nd           | Version:  7
     \\/     M anipulation  |
\*---------------------------------------------------------------------------*/
FoamFile
{
    version     2.0;
    format      ascii;
    class       surfaceScalarField;
    location    "50";
    object      phi_0;
}
// * * * * * * * * * * * * * * * * * * * * * * * * * * * * * * * * * * * * * //

dimensions      [0 4 -1 0 0 0 0];

internalField   nonuniform List<scalar> 
760
(
4.99999e-06
9.77726e-12
4.99999e-06
-5.2375e-12
5e-06
-1.4488e-11
5.00002e-06
-2.17815e-11
5.00005e-06
-2.97363e-11
5.00009e-06
-4.05626e-11
5.00013e-06
-4.12634e-11
5.00018e-06
-6.50673e-11
5.00025e-06
-6.37586e-11
5.00032e-06
-7.82075e-11
5.00041e-06
-8.96265e-11
5.00052e-06
-1.13212e-10
5.00065e-06
-1.26225e-10
5.00082e-06
-1.6799e-10
5.001e-06
-1.79148e-10
5.00126e-06
-2.59156e-10
5.00151e-06
-2.58856e-10
5.00195e-06
-4.34212e-10
5.00236e-06
-4.1591e-10
-8.90901e-10
5.00002e-06
-1.21087e-11
5.00003e-06
-2.06366e-11
5.00005e-06
-3.22589e-11
5.00007e-06
-4.60237e-11
5.0001e-06
-5.93785e-11
5.00014e-06
-7.40061e-11
5.00018e-06
-8.87756e-11
5.00023e-06
-1.06501e-10
5.00029e-06
-1.25194e-10
5.00037e-06
-1.53029e-10
5.00045e-06
-1.75438e-10
5.00056e-06
-2.19855e-10
5.00068e-06
-2.48404e-10
5.00084e-06
-3.24101e-10
5.00101e-06
-3.55949e-10
5.00124e-06
-4.90628e-10
5.0015e-06
-5.14693e-10
5.00184e-06
-7.72833e-10
5.00219e-06
-7.63628e-10
-1.26105e-09
4.99999e-06
-5.64769e-12
4.99999e-06
-2.26131e-11
5e-06
-4.188e-11
5.00002e-06
-6.28317e-11
5.00004e-06
-8.36034e-11
5.00007e-06
-1.06341e-10
5.00011e-06
-1.28642e-10
5.00016e-06
-1.56952e-10
5.00021e-06
-1.84739e-10
5.00028e-06
-2.23251e-10
5.00037e-06
-2.59663e-10
5.00047e-06
-3.19803e-10
5.00059e-06
-3.69082e-10
5.00073e-06
-4.6759e-10
5.0009e-06
-5.28914e-10
5.00111e-06
-6.93851e-10
5.00135e-06
-7.56324e-10
5.00162e-06
-1.04893e-09
5.00195e-06
-1.0889e-09
-1.68752e-09
5.00001e-06
-1.3506e-11
5.00002e-06
-3.6242e-11
5.00004e-06
-5.98817e-11
5.00006e-06
-8.5692e-11
5.00008e-06
-1.11435e-10
5.00012e-06
-1.40037e-10
5.00015e-06
-1.6837e-10
5.0002e-06
-2.03671e-10
5.00025e-06
-2.3846e-10
5.00032e-06
-2.87518e-10
5.00039e-06
-3.34369e-10
5.00048e-06
-4.10278e-10
5.00059e-06
-4.74266e-10
5.00071e-06
-5.96218e-10
5.00086e-06
-6.76699e-10
5.00104e-06
-8.74071e-10
5.00124e-06
-9.57784e-10
5.00149e-06
-1.29001e-09
5.00174e-06
-1.33896e-09
-1.89593e-09
5e-06
-1.27991e-11
5e-06
-4.01604e-11
5.00001e-06
-6.86902e-11
5.00002e-06
-9.94364e-11
5.00004e-06
-1.3094e-10
5.00006e-06
-1.65317e-10
5.00009e-06
-2.00748e-10
5.00013e-06
-2.42755e-10
5.00018e-06
-2.86177e-10
5.00024e-06
-3.44291e-10
5.0003e-06
-4.02393e-10
5.00038e-06
-4.90034e-10
5.00048e-06
-5.69521e-10
5.00059e-06
-7.06982e-10
5.00072e-06
-8.07924e-10
5.00087e-06
-1.02293e-09
5.00104e-06
-1.12905e-09
5.00122e-06
-1.47324e-09
5.00143e-06
-1.54171e-09
-2.16016e-09
5e-06
-1.47901e-11
5.00001e-06
-4.71756e-11
5.00002e-06
-8.05294e-11
5.00003e-06
-1.15766e-10
5.00005e-06
-1.51731e-10
5.00008e-06
-1.90733e-10
5.00011e-06
-2.30728e-10
5.00014e-06
-2.77978e-10
5.00018e-06
-3.2718e-10
5.00023e-06
-3.92417e-10
5.00029e-06
-4.58295e-10
5.00035e-06
-5.56583e-10
5.00043e-06
-6.4717e-10
5.00052e-06
-7.9958e-10
5.00063e-06
-9.14096e-10
5.00075e-06
-1.14705e-09
5.00089e-06
-1.26627e-09
5.00105e-06
-1.62979e-09
5.00121e-06
-1.70751e-09
-2.2903e-09
5e-06
-1.66363e-11
5.00001e-06
-5.21324e-11
5.00001e-06
-8.85678e-11
5.00002e-06
-1.26646e-10
5.00004e-06
-1.65779e-10
5.00005e-06
-2.08586e-10
5.00007e-06
-2.52747e-10
5.0001e-06
-3.0476e-10
5.00013e-06
-3.59462e-10
5.00017e-06
-4.30655e-10
5.00022e-06
-5.03664e-10
5.00027e-06
-6.0966e-10
5.00033e-06
-7.09338e-10
5.0004e-06
-8.7128e-10
5.00049e-06
-9.97065e-10
5.00058e-06
-1.24064e-09
5.00069e-06
-1.37141e-09
5.0008e-06
-1.7413e-09
5.00091e-06
-1.82338e-09
-2.43881e-09
5e-06
-1.77284e-11
5e-06
-5.5443e-11
5.00001e-06
-9.40385e-11
5.00002e-06
-1.34789e-10
5.00003e-06
-1.76721e-10
5.00004e-06
-2.22528e-10
5.00006e-06
-2.69789e-10
5.00008e-06
-3.25152e-10
5.0001e-06
-3.83348e-10
5.00013e-06
-4.58607e-10
5.00016e-06
-5.36256e-10
5.0002e-06
-6.47881e-10
5.00024e-06
-7.53888e-10
5.0003e-06
-9.23478e-10
5.00036e-06
-1.05675e-09
5.00042e-06
-1.30856e-09
5.0005e-06
-1.44588e-09
5.00058e-06
-1.8234e-09
5.00067e-06
-1.91255e-09
-2.51257e-09
5e-06
-1.82998e-11
5e-06
-5.74595e-11
5e-06
-9.758e-11
5.00001e-06
-1.40002e-10
5.00002e-06
-1.83601e-10
5.00002e-06
-2.31025e-10
5.00003e-06
-2.79971e-10
5.00005e-06
-3.37217e-10
5.00006e-06
-3.97563e-10
5.00008e-06
-4.75407e-10
5.0001e-06
-5.56042e-10
5.00012e-06
-6.71101e-10
5.00015e-06
-7.80971e-10
5.00018e-06
-9.54826e-10
5.00021e-06
-1.09241e-09
5.00026e-06
-1.34857e-09
5.0003e-06
-1.48999e-09
5.00035e-06
-1.87076e-09
5.00039e-06
-1.96015e-09
-2.56849e-09
5e-06
-1.84732e-11
5e-06
-5.81483e-11
5e-06
-9.88614e-11
5e-06
-1.41811e-10
5.00001e-06
-1.85902e-10
5.00001e-06
-2.33809e-10
5.00001e-06
-2.83371e-10
5.00002e-06
-3.4132e-10
5.00002e-06
-4.02505e-10
5.00003e-06
-4.81177e-10
5.00003e-06
-5.62676e-10
5.00004e-06
-6.78707e-10
5.00005e-06
-7.89767e-10
5.00006e-06
-9.64987e-10
5.00007e-06
-1.1042e-09
5.00008e-06
-1.36201e-09
5.0001e-06
-1.50497e-09
5.00012e-06
-1.88667e-09
5.00013e-06
-1.97781e-09
-2.58467e-09
5e-06
-1.82761e-11
5e-06
-5.74275e-11
5e-06
-9.76587e-11
5e-06
-1.4009e-10
4.99999e-06
-1.8369e-10
4.99999e-06
-2.31064e-10
4.99999e-06
-2.80023e-10
4.99998e-06
-3.37203e-10
4.99998e-06
-3.97594e-10
4.99997e-06
-4.75457e-10
4.99997e-06
-5.56088e-10
4.99996e-06
-6.71212e-10
4.99995e-06
-7.81084e-10
4.99994e-06
-9.54847e-10
4.99993e-06
-1.09242e-09
4.99992e-06
-1.3486e-09
4.9999e-06
-1.49e-09
4.99988e-06
-1.8707e-09
4.99987e-06
-1.96011e-09
-2.56837e-09
5e-06
-1.77243e-11
5e-06
-5.54205e-11
5e-06
-9.41002e-11
4.99999e-06
-1.34833e-10
4.99998e-06
-1.76804e-10
4.99998e-06
-2.22558e-10
4.99997e-06
-2.69842e-10
4.99995e-06
-3.25144e-10
4.99994e-06
-3.83355e-10
4.99992e-06
-4.58677e-10
4.9999e-06
-5.36311e-10
4.99988e-06
-6.4794e-10
4.99985e-06
-7.54005e-10
4.99982e-06
-9.23557e-10
4.99978e-06
-1.0568e-09
4.99974e-06
-1.30855e-09
4.9997e-06
-1.44584e-09
4.99965e-06
-1.82327e-09
4.99961e-06
-1.91245e-09
-2.51238e-09
5e-06
-1.6685e-11
5e-06
-5.2148e-11
4.99999e-06
-8.85072e-11
4.99998e-06
-1.26597e-10
4.99997e-06
-1.65781e-10
4.99996e-06
-2.08568e-10
4.99994e-06
-2.52762e-10
4.99992e-06
-3.04803e-10
4.9999e-06
-3.59417e-10
4.99987e-06
-4.30695e-10
4.99984e-06
-5.03723e-10
4.9998e-06
-6.09617e-10
4.99976e-06
-7.09339e-10
4.9997e-06
-8.71311e-10
4.99964e-06
-9.97107e-10
4.99958e-06
-1.24059e-09
4.9995e-06
-1.37134e-09
4.99942e-06
-1.7411e-09
4.99933e-06
-1.82324e-09
-2.43847e-09
5e-06
-1.48428e-11
4.99999e-06
-4.71874e-11
4.99999e-06
-8.04117e-11
4.99998e-06
-1.15734e-10
4.99996e-06
-1.5159e-10
4.99995e-06
-1.90772e-10
4.99993e-06
-2.3069e-10
4.9999e-06
-2.78145e-10
4.99987e-06
-3.27201e-10
4.99983e-06
-3.92355e-10
4.99978e-06
-4.58302e-10
4.99973e-06
-5.56503e-10
4.99967e-06
-6.47066e-10
4.9996e-06
-7.99483e-10
4.99951e-06
-9.14052e-10
4.99942e-06
-1.14693e-09
4.99931e-06
-1.26616e-09
4.9992e-06
-1.62952e-09
4.99909e-06
-1.70726e-09
-2.28987e-09
5e-06
-1.27711e-11
4.99999e-06
-4.01498e-11
4.99998e-06
-6.86629e-11
4.99997e-06
-9.94156e-11
4.99995e-06
-1.30854e-10
4.99992e-06
-1.6549e-10
4.99989e-06
-2.00642e-10
4.99986e-06
-2.42834e-10
4.99982e-06
-2.86429e-10
4.99977e-06
-3.44312e-10
4.99971e-06
-4.02373e-10
4.99965e-06
-4.89979e-10
4.99957e-06
-5.69422e-10
4.99948e-06
-7.06826e-10
4.99937e-06
-8.07834e-10
4.99925e-06
-1.02276e-09
4.99911e-06
-1.12896e-09
4.99895e-06
-1.47297e-09
4.99879e-06
-1.54147e-09
-2.15967e-09
5e-06
-1.3354e-11
5e-06
-3.61995e-11
4.99999e-06
-5.99477e-11
4.99998e-06
-8.57022e-11
4.99996e-06
-1.11556e-10
4.99994e-06
-1.39912e-10
4.99991e-06
-1.68322e-10
4.99987e-06
-2.03264e-10
4.99982e-06
-2.38529e-10
4.99976e-06
-2.87629e-10
4.9997e-06
-3.34405e-10
4.99962e-06
-4.10261e-10
4.99952e-06
-4.7421e-10
4.99941e-06
-5.96055e-10
4.99928e-06
-6.76582e-10
4.99913e-06
-8.73861e-10
4.99896e-06
-9.57681e-10
4.99878e-06
-1.28973e-09
4.99857e-06
-1.33872e-09
-1.89538e-09
4.99999e-06
-5.45086e-12
4.99998e-06
-2.26247e-11
4.99996e-06
-4.19896e-11
4.99994e-06
-6.28837e-11
4.99992e-06
-8.37268e-11
4.99988e-06
-1.06117e-10
4.99985e-06
-1.29321e-10
4.9998e-06
-1.56458e-10
4.99975e-06
-1.84414e-10
4.99968e-06
-2.2326e-10
4.99961e-06
-2.59752e-10
4.99952e-06
-3.19882e-10
4.99941e-06
-3.69159e-10
4.99929e-06
-4.67556e-10
4.99914e-06
-5.2891e-10
4.99896e-06
-6.93735e-10
4.99876e-06
-7.56324e-10
4.99852e-06
-1.04875e-09
4.99827e-06
-1.08884e-09
-1.68714e-09
5.00001e-06
-1.23687e-11
5.00001e-06
-2.07532e-11
5e-06
-3.2297e-11
4.99998e-06
-4.60054e-11
4.99996e-06
-5.92779e-11
4.99993e-06
-7.44318e-11
4.99989e-06
-8.88415e-11
4.99984e-06
-1.0741e-10
4.99979e-06
-1.24817e-10
4.99972e-06
-1.52802e-10
4.99963e-06
-1.7538e-10
4.99953e-06
-2.19846e-10
4.99941e-06
-2.48487e-10
4.99927e-06
-3.24094e-10
4.9991e-06
-3.55998e-10
4.99889e-06
-4.90515e-10
4.99865e-06
-5.14712e-10
4.99837e-06
-7.7261e-10
4.99805e-06
-7.63567e-10
-1.2606e-09
4.99998e-06
9.55176e-12
4.99997e-06
-5.30129e-12
4.99995e-06
-1.43919e-11
4.99993e-06
-2.17488e-11
4.9999e-06
-2.98272e-11
4.99986e-06
-3.53417e-11
4.99982e-06
-4.6197e-11
4.99977e-06
-6.37511e-11
4.99971e-06
-6.39577e-11
4.99963e-06
-7.813e-11
4.99955e-06
-8.95329e-11
4.99944e-06
-1.13223e-10
4.99932e-06
-1.26366e-10
4.99916e-06
-1.68124e-10
4.99899e-06
-1.79302e-10
4.99876e-06
-2.5923e-10
4.9985e-06
-2.58969e-10
4.99816e-06
-4.34233e-10
4.99782e-06
-4.16001e-10
-8.90916e-10
5.00001e-06
5.00001e-06
5e-06
4.99997e-06
4.99995e-06
4.99991e-06
4.99987e-06
4.99982e-06
4.99975e-06
4.99968e-06
4.99959e-06
4.99948e-06
4.99935e-06
4.99918e-06
4.999e-06
4.99874e-06
4.99848e-06
4.99805e-06
4.99763e-06
)
;

boundaryField
{
    sides
    {
        type            calculated;
        value           uniform 0;
    }
    inlet
    {
        type            calculated;
        value           nonuniform List<scalar> 
20
(
-5e-06
-5e-06
-5e-06
-5e-06
-5e-06
-5e-06
-5e-06
-5e-06
-5e-06
-5e-06
-5e-06
-5e-06
-5e-06
-5e-06
-5e-06
-5e-06
-5e-06
-5e-06
-5e-06
-5e-06
)
;
    }
    outlet
    {
        type            calculated;
        value           nonuniform List<scalar> 
20
(
5.00326e-06
5.00256e-06
5.00238e-06
5.00194e-06
5.00169e-06
5.00134e-06
5.00106e-06
5.00074e-06
5.00045e-06
5.00015e-06
4.99985e-06
4.99955e-06
4.99926e-06
4.99894e-06
4.99866e-06
4.99831e-06
4.99806e-06
4.99762e-06
4.99745e-06
4.99674e-06
)
;
    }
    frontAndBack
    {
        type            empty;
        value           nonuniform 0();
    }
}


// ************************************************************************* //
