/*--------------------------------*- C++ -*----------------------------------*\
  =========                 |
  \\      /  F ield         | OpenFOAM: The Open Source CFD Toolbox
   \\    /   O peration     | Website:  https://openfoam.org
    \\  /    A nd           | Version:  7
     \\/     M anipulation  |
\*---------------------------------------------------------------------------*/
FoamFile
{
    version     2.0;
    format      ascii;
    class       volVectorField;
    location    "86";
    object      ddtCorrDdt0(hU);
}
// * * * * * * * * * * * * * * * * * * * * * * * * * * * * * * * * * * * * * //

dimensions      [0 2 -2 0 0 0 0];

internalField   nonuniform List<vector> 
400
(
(-5.86722e-11 1.70278e-11 0)
(6.46457e-11 -3.84502e-11 0)
(-2.79833e-12 3.78305e-11 0)
(4.30476e-11 1.21976e-10 0)
(3.03005e-10 -5.67238e-11 0)
(-2.00736e-09 -5.1801e-10 0)
(-4.2531e-10 -5.31334e-10 0)
(1.34337e-09 -1.56583e-09 0)
(-7.96042e-10 5.57274e-10 0)
(4.0071e-10 2.17197e-10 0)
(1.03507e-10 1.3361e-10 0)
(2.47146e-10 9.9868e-11 0)
(1.9855e-10 1.79162e-11 0)
(1.66637e-11 -1.94502e-11 0)
(-6.2934e-11 -2.43847e-12 0)
(-4.52008e-11 2.01456e-11 0)
(-5.79158e-14 8.92366e-12 0)
(3.12148e-11 -1.82254e-11 0)
(2.29799e-11 -5.25375e-11 0)
(2.60209e-11 -3.63396e-11 0)
(-1.74413e-11 6.59917e-12 0)
(2.65532e-11 -9.68104e-13 0)
(-2.18797e-12 3.20908e-11 0)
(4.98667e-11 2.15903e-10 0)
(-4.9078e-10 -1.67183e-10 0)
(2.28555e-09 1.10401e-10 0)
(8.09214e-10 -1.09038e-09 0)
(-3.34907e-09 -7.95656e-10 0)
(1.28637e-09 7.60606e-10 0)
(-1.35105e-10 1.76816e-10 0)
(-5.23363e-11 2.05727e-10 0)
(6.584e-11 1.66716e-10 0)
(1.04831e-11 2.64037e-12 0)
(-2.88739e-11 -6.01048e-11 0)
(-1.39482e-11 -1.55261e-11 0)
(3.72015e-12 3.39135e-11 0)
(1.81011e-12 3.02208e-11 0)
(-2.31523e-12 -5.31767e-12 0)
(-7.10619e-13 -4.20817e-11 0)
(3.67426e-11 -3.55323e-11 0)
(1.08004e-10 2.57737e-11 0)
(1.74902e-11 6.17328e-11 0)
(-3.61949e-11 -3.86209e-11 0)
(-6.96448e-11 6.45145e-11 0)
(-1.0796e-10 -1.4181e-10 0)
(-6.01128e-11 6.04638e-10 0)
(-1.01721e-09 -3.55386e-10 0)
(1.97981e-09 1.12249e-09 0)
(1.60397e-10 -3.23776e-11 0)
(-2.69485e-10 -1.2495e-10 0)
(1.44339e-10 6.26416e-11 0)
(-3.06096e-11 4.19465e-11 0)
(-1.44295e-10 -1.88972e-11 0)
(-6.00484e-11 5.6212e-12 0)
(2.28976e-11 6.19749e-11 0)
(2.74149e-11 7.15584e-11 0)
(-6.07036e-12 2.96376e-11 0)
(-4.52852e-11 3.28209e-12 0)
(-4.51749e-11 -5.16451e-11 0)
(4.47319e-11 -5.8529e-11 0)
(4.45235e-11 6.28897e-11 0)
(-4.66028e-11 2.24882e-11 0)
(-2.22562e-11 -3.51623e-11 0)
(-1.01185e-10 -8.22462e-11 0)
(6.5945e-11 3.57164e-11 0)
(-1.92312e-10 -1.64409e-10 0)
(2.43386e-10 5.19092e-10 0)
(5.29765e-10 3.34943e-10 0)
(-4.49603e-10 -3.78679e-10 0)
(-3.58241e-11 -5.65002e-11 0)
(1.26408e-10 -1.39065e-11 0)
(-1.06634e-10 -1.08295e-10 0)
(-1.04233e-10 -4.25455e-11 0)
(3.55795e-11 6.75523e-11 0)
(8.44473e-11 1.04079e-10 0)
(3.90061e-11 7.74878e-11 0)
(-1.50684e-11 3.00731e-11 0)
(-5.66297e-11 3.05704e-11 0)
(-7.12441e-11 -1.85085e-11 0)
(5.64767e-12 -5.0832e-11 0)
(-2.50379e-11 6.64647e-12 0)
(-9.11201e-11 -6.72587e-12 0)
(-3.30701e-12 6.36454e-11 0)
(-1.07889e-10 -7.61238e-11 0)
(1.45296e-10 1.66518e-10 0)
(-1.45205e-10 -2.64622e-10 0)
(3.64401e-10 3.3179e-10 0)
(-1.71159e-10 -2.60767e-10 0)
(-3.58068e-10 -2.50328e-10 0)
(1.73811e-10 5.2355e-11 0)
(-4.9402e-11 -7.4844e-11 0)
(-1.67519e-10 -1.18174e-10 0)
(2.15459e-11 4.47307e-11 0)
(1.18409e-10 1.39691e-10 0)
(9.47619e-11 9.93001e-11 0)
(2.83854e-11 4.23819e-11 0)
(-1.56812e-11 1.18259e-11 0)
(-3.00731e-11 2.9639e-11 0)
(-3.80702e-11 -2.02619e-11 0)
(-7.58739e-12 -5.60273e-11 0)
(-3.00528e-11 -4.907e-11 0)
(-3.11733e-11 -1.2076e-11 0)
(1.247e-11 1.25652e-10 0)
(-3.48271e-11 2.77854e-11 0)
(4.50982e-11 1.40857e-10 0)
(-5.18949e-11 -5.05239e-11 0)
(1.72319e-10 2.67725e-11 0)
(-3.6858e-10 -3.37361e-10 0)
(8.30161e-11 -1.5675e-11 0)
(1.57994e-10 -2.93972e-11 0)
(-2.09172e-10 -1.56468e-10 0)
(1.13322e-12 1.36561e-11 0)
(2.02306e-10 1.73396e-10 0)
(1.04032e-10 1.78712e-10 0)
(4.58557e-12 9.31229e-11 0)
(-2.02685e-11 2.42973e-11 0)
(-2.43531e-11 -1.76455e-11 0)
(-1.3312e-11 -1.55416e-11 0)
(1.80892e-11 -1.02262e-10 0)
(3.39187e-11 -1.12014e-10 0)
(-1.75929e-11 -3.09768e-11 0)
(4.6537e-11 3.29486e-11 0)
(1.29881e-11 6.29142e-11 0)
(6.97584e-11 1.6134e-10 0)
(-3.44355e-11 2.87012e-11 0)
(8.31594e-11 1.43951e-10 0)
(-7.98226e-11 -6.26121e-11 0)
(-1.32787e-10 -1.02819e-10 0)
(1.42962e-10 8.95641e-11 0)
(-1.63395e-10 -1.46722e-10 0)
(-7.05244e-11 -2.94873e-11 0)
(2.3037e-10 1.88495e-10 0)
(1.87832e-10 1.50383e-10 0)
(-2.47614e-12 8.30139e-11 0)
(-8.63056e-11 7.50475e-11 0)
(-4.77934e-11 5.62986e-11 0)
(4.77692e-12 -1.26237e-11 0)
(2.71216e-11 -4.28475e-11 0)
(6.60538e-11 -1.19504e-10 0)
(7.77312e-11 -1.20401e-10 0)
(2.95903e-12 2.81045e-11 0)
(7.92796e-11 1.1228e-10 0)
(-1.15311e-12 1.67459e-11 0)
(7.47525e-11 1.25934e-10 0)
(-5.01726e-11 -2.68201e-11 0)
(7.45597e-11 5.21566e-11 0)
(-1.5967e-10 -1.35666e-10 0)
(5.69714e-11 4.68226e-12 0)
(-1.477e-11 -4.46055e-11 0)
(-8.96398e-11 -6.78305e-11 0)
(2.48802e-10 1.41626e-10 0)
(1.65421e-10 1.59531e-10 0)
(-3.58553e-11 3.3455e-11 0)
(-3.84127e-11 7.95193e-12 0)
(-6.77789e-11 9.12562e-11 0)
(-9.37022e-11 1.33332e-10 0)
(-2.88018e-11 2.4835e-11 0)
(3.13042e-11 -5.53585e-11 0)
(5.804e-11 -1.20487e-10 0)
(7.1463e-11 -1.13986e-10 0)
(2.29964e-11 9.60891e-11 0)
(3.97186e-11 8.63189e-11 0)
(-1.86565e-11 6.07491e-11 0)
(-8.41361e-12 -1.51764e-11 0)
(-2.53099e-11 -1.32313e-11 0)
(-5.66946e-13 -8.77644e-11 0)
(-5.59742e-11 -1.09355e-10 0)
(8.48609e-11 -1.24423e-11 0)
(-1.79692e-11 -1.01875e-10 0)
(7.04976e-11 6.35776e-11 0)
(1.46505e-10 7.25244e-11 0)
(-7.82924e-11 -3.58757e-11 0)
(-1.18075e-10 -4.99355e-12 0)
(2.84351e-11 1.80639e-11 0)
(2.88221e-11 6.01436e-11 0)
(-5.55044e-11 1.4691e-10 0)
(-4.39033e-11 8.89566e-11 0)
(2.20592e-11 1.66253e-12 0)
(2.74645e-11 -8.2785e-11 0)
(-8.38426e-13 -1.0165e-10 0)
(-1.6847e-11 7.54703e-11 0)
(-5.51179e-11 2.01151e-11 0)
(-7.86448e-12 8.29059e-11 0)
(-5.8401e-11 -5.12191e-12 0)
(-1.15369e-11 3.53212e-11 0)
(-7.43059e-11 -6.9672e-11 0)
(5.52893e-11 -5.92008e-11 0)
(2.52364e-11 -4.68334e-11 0)
(6.41675e-11 -9.71452e-11 0)
(8.12479e-11 2.72392e-11 0)
(-1.01476e-10 -2.9044e-11 0)
(-8.04563e-11 -6.32217e-11 0)
(-1.87998e-11 5.79824e-11 0)
(-2.42282e-11 7.86809e-11 0)
(4.67058e-11 5.85255e-11 0)
(7.76389e-11 1.142e-10 0)
(1.31663e-11 9.2355e-11 0)
(-2.99035e-11 3.77513e-11 0)
(-6.44656e-11 -7.83571e-11 0)
(-8.07514e-11 -1.12954e-10 0)
(-1.97402e-11 -5.80847e-11 0)
(-7.48953e-11 4.074e-11 0)
(1.36871e-11 5.21272e-11 0)
(-5.35027e-11 1.21934e-10 0)
(4.27326e-12 7.94308e-11 0)
(-9.36418e-11 8.04937e-11 0)
(8.2401e-11 8.25216e-13 0)
(-2.44755e-12 -2.87629e-11 0)
(7.4635e-11 -4.55234e-11 0)
(7.4799e-11 -9.03225e-11 0)
(-1.65161e-10 -1.31963e-11 0)
(-6.34725e-11 5.22312e-11 0)
(1.37744e-11 6.43931e-11 0)
(-4.45305e-11 1.03835e-10 0)
(5.50687e-11 1.25527e-10 0)
(1.34094e-10 9.24743e-11 0)
(4.88619e-11 2.5701e-11 0)
(-3.4708e-11 1.53106e-11 0)
(-8.17992e-11 -9.30647e-11 0)
(-1.05334e-10 -1.25728e-10 0)
(4.52982e-11 -9.48788e-11 0)
(1.95986e-11 3.623e-11 0)
(2.06075e-11 5.21289e-11 0)
(-1.08804e-11 1.6598e-10 0)
(1.79828e-11 6.677e-11 0)
(-3.96808e-11 1.23072e-10 0)
(3.15735e-12 2.60567e-11 0)
(3.50518e-11 -6.09381e-11 0)
(-3.93581e-11 2.41427e-12 0)
(7.54926e-11 -1.69614e-10 0)
(1.37082e-11 -5.47579e-11 0)
(-1.17499e-10 1.19125e-10 0)
(-6.98285e-11 1.10276e-10 0)
(4.59619e-11 1.35375e-10 0)
(8.21777e-11 1.32052e-10 0)
(3.65458e-11 3.67921e-11 0)
(5.60758e-16 -2.96014e-11 0)
(5.66174e-13 3.18032e-12 0)
(-2.41489e-11 -1.01214e-10 0)
(-6.42174e-11 -1.34591e-10 0)
(3.59646e-11 9.20159e-12 0)
(9.4519e-11 1.01446e-11 0)
(1.91932e-11 1.04098e-10 0)
(7.29695e-11 1.47782e-11 0)
(-8.78366e-12 5.02081e-11 0)
(6.34184e-11 -2.42069e-11 0)
(-1.31097e-10 4.32598e-11 0)
(8.29288e-11 -1.5062e-10 0)
(-1.18883e-10 -9.67148e-12 0)
(-7.02867e-11 -7.36618e-11 0)
(2.21566e-10 -1.45512e-10 0)
(1.90481e-11 1.16735e-11 0)
(-1.31888e-10 1.63507e-10 0)
(-2.45148e-11 1.927e-10 0)
(-6.68337e-13 1.00248e-10 0)
(-1.631e-11 6.90988e-13 0)
(3.52232e-11 -3.42412e-11 0)
(6.26947e-11 -6.40961e-12 0)
(3.80756e-11 -1.17759e-10 0)
(-9.54095e-12 -1.38224e-10 0)
(-1.69333e-11 1.16335e-10 0)
(7.67698e-11 5.35246e-11 0)
(3.01684e-12 6.98191e-11 0)
(1.05828e-10 -1.05182e-10 0)
(-4.70748e-11 7.728e-11 0)
(1.32616e-10 -1.57769e-10 0)
(-1.65244e-10 7.69261e-11 0)
(5.73046e-13 -9.91668e-11 0)
(4.89002e-11 -1.31051e-10 0)
(-2.58931e-10 1.07726e-10 0)
(5.65833e-11 -4.25207e-11 0)
(2.16952e-10 -1.14738e-10 0)
(4.04584e-11 5.75526e-11 0)
(-9.6531e-11 1.50104e-10 0)
(-1.26804e-10 1.03302e-10 0)
(-4.96324e-11 5.62198e-11 0)
(4.30553e-11 4.07054e-13 0)
(5.63453e-11 -2.77954e-11 0)
(6.23286e-11 -1.0886e-10 0)
(4.22669e-11 -1.13105e-10 0)
(-7.28904e-11 1.39121e-10 0)
(-2.95117e-11 8.28539e-11 0)
(-7.13182e-12 -2.73658e-11 0)
(5.36266e-11 -6.03937e-12 0)
(1.92134e-11 -6.08825e-12 0)
(8.14536e-11 -8.7261e-11 0)
(6.54634e-11 -2.30139e-11 0)
(-3.09824e-10 1.51262e-10 0)
(2.28578e-10 -2.2241e-10 0)
(-4.5625e-11 2.2242e-11 0)
(-2.46986e-10 1.25993e-10 0)
(7.55283e-11 -2.71863e-11 0)
(1.48787e-10 -2.38164e-11 0)
(-3.19134e-11 6.42747e-11 0)
(-1.16469e-10 1.27047e-10 0)
(-4.86269e-11 1.32383e-10 0)
(2.16364e-11 2.7098e-11 0)
(4.89881e-11 -5.69366e-11 0)
(7.47197e-11 -1.3104e-10 0)
(3.10865e-11 -1.12308e-10 0)
(-8.83613e-11 3.20226e-11 0)
(-1.30875e-10 3.38162e-11 0)
(-8.30801e-12 -2.81425e-11 0)
(-4.38104e-11 1.8385e-10 0)
(1.27674e-10 -1.09231e-10 0)
(-1.034e-10 2.71388e-10 0)
(3.87862e-10 -2.58877e-10 0)
(-3.9547e-10 3.05327e-10 0)
(-1.84047e-10 7.03086e-11 0)
(2.19513e-10 -9.39972e-11 0)
(-1.54022e-10 1.1152e-10 0)
(-9.83358e-11 9.29262e-11 0)
(9.71119e-11 -1.92053e-11 0)
(5.59633e-11 -1.18437e-11 0)
(-4.1889e-11 8.25881e-11 0)
(-7.06873e-11 1.31183e-10 0)
(-4.83606e-11 5.51869e-11 0)
(-4.76104e-12 -2.64444e-11 0)
(2.99739e-11 -9.98118e-11 0)
(1.37285e-11 -9.29824e-11 0)
(8.33006e-12 -5.29042e-11 0)
(-1.29392e-10 -3.51682e-11 0)
(1.81873e-11 5.0008e-11 0)
(-9.14178e-11 2.49238e-10 0)
(2.02166e-10 -1.10709e-10 0)
(-2.49736e-10 3.10186e-10 0)
(4.56386e-10 -7.5425e-10 0)
(2.36307e-10 8.79805e-11 0)
(-4.51625e-10 3.02822e-10 0)
(9.18367e-12 -3.333e-11 0)
(-2.38828e-11 2.20399e-11 0)
(-1.68419e-10 1.05034e-10 0)
(-3.73165e-11 4.31913e-11 0)
(6.84053e-11 2.39441e-12 0)
(3.22882e-11 4.08161e-11 0)
(-3.69602e-11 9.04731e-11 0)
(-5.40675e-11 6.44056e-11 0)
(-3.57586e-11 1.48215e-11 0)
(-9.59063e-12 -6.71071e-11 0)
(9.87683e-12 -7.82248e-11 0)
(7.52786e-11 -6.72182e-11 0)
(-1.02698e-10 -1.63535e-11 0)
(4.81688e-11 9.64226e-11 0)
(-1.02233e-10 1.76198e-11 0)
(5.65781e-11 1.37693e-10 0)
(-2.81801e-10 -3.73583e-10 0)
(1.66787e-11 -1.21326e-09 0)
(1.35789e-09 -4.76271e-10 0)
(-4.54926e-10 3.06441e-10 0)
(-2.21276e-10 5.24785e-11 0)
(-8.81207e-12 -5.41593e-11 0)
(-1.41611e-10 5.70323e-11 0)
(-8.24395e-11 1.05188e-10 0)
(4.74311e-11 5.17827e-11 0)
(6.2273e-11 6.2999e-12 0)
(1.54397e-11 2.54005e-11 0)
(-2.52637e-11 4.3685e-11 0)
(-4.15626e-11 4.53202e-11 0)
(-2.6443e-11 -3.81228e-12 0)
(-1.1172e-11 -3.30671e-11 0)
(5.96631e-12 -1.1161e-10 0)
(4.21274e-11 9.69852e-11 0)
(1.72415e-11 9.25736e-11 0)
(1.12247e-10 -3.18253e-10 0)
(-2.5662e-10 2.55158e-10 0)
(-2.59459e-10 -2.89426e-10 0)
(-6.91622e-10 2.65214e-09 0)
(6.88999e-09 -5.6119e-10 0)
(3.15354e-10 -6.87364e-10 0)
(-5.07137e-10 -4.71261e-11 0)
(-6.15983e-11 -6.20162e-11 0)
(-1.31243e-11 3.10709e-11 0)
(-7.34979e-11 9.33485e-11 0)
(-4.7725e-11 3.71808e-11 0)
(1.32626e-11 -3.24041e-11 0)
(4.40822e-11 -2.69604e-11 0)
(2.23295e-11 1.93899e-11 0)
(-1.09564e-11 6.21575e-11 0)
(-1.91909e-11 6.326e-11 0)
(-3.51799e-11 1.80153e-11 0)
(1.42028e-11 -6.99698e-11 0)
(1.84084e-10 8.23239e-11 0)
(-5.56741e-11 4.54984e-11 0)
(1.00153e-10 -2.26322e-10 0)
(4.54466e-11 6.10818e-11 0)
(8.38648e-10 1.26999e-10 0)
(6.93113e-11 3.30065e-09 0)
(-7.89357e-09 -1.49015e-10 0)
(4.80735e-10 -8.7252e-10 0)
(5.33247e-10 -1.07693e-10 0)
(8.17295e-11 -1.63194e-11 0)
(4.42919e-11 2.62861e-11 0)
(-1.04836e-10 5.0948e-11 0)
(-1.21845e-10 2.9061e-11 0)
(-1.06854e-11 -4.52057e-13 0)
(7.82837e-11 -6.42541e-12 0)
(7.05946e-11 -3.20569e-13 0)
(2.5e-11 1.62195e-11 0)
(-1.70418e-11 3.13952e-12 0)
(-7.86086e-11 -1.02631e-11 0)
)
;

boundaryField
{
    sides
    {
        type            calculated;
        value           nonuniform List<vector> 
40
(
(1.42028e-11 0 0)
(1.84084e-10 0 0)
(-5.56741e-11 0 0)
(1.00153e-10 0 0)
(4.54466e-11 0 0)
(8.38648e-10 0 0)
(6.93113e-11 0 0)
(-7.89357e-09 0 0)
(4.80735e-10 0 0)
(5.33247e-10 0 0)
(8.17295e-11 0 0)
(4.42919e-11 0 0)
(-1.04836e-10 0 0)
(-1.21845e-10 0 0)
(-1.06854e-11 0 0)
(7.82837e-11 0 0)
(7.05946e-11 0 0)
(2.5e-11 0 0)
(-1.70418e-11 0 0)
(-7.86086e-11 0 0)
(-5.86722e-11 0 0)
(6.46457e-11 0 0)
(-2.79833e-12 0 0)
(4.30476e-11 0 0)
(3.03005e-10 0 0)
(-2.00736e-09 0 0)
(-4.2531e-10 0 0)
(1.34337e-09 0 0)
(-7.96042e-10 0 0)
(4.0071e-10 0 0)
(1.03507e-10 0 0)
(2.47146e-10 0 0)
(1.9855e-10 0 0)
(1.66637e-11 0 0)
(-6.2934e-11 0 0)
(-4.52008e-11 0 0)
(-5.79158e-14 0 0)
(3.12148e-11 0 0)
(2.29799e-11 0 0)
(2.60209e-11 0 0)
)
;
    }
    inlet
    {
        type            calculated;
        value           uniform (0 0 0);
    }
    outlet
    {
        type            calculated;
        value           nonuniform List<vector> 
20
(
(2.60209e-11 -3.63396e-11 0)
(3.67426e-11 -3.55323e-11 0)
(4.47319e-11 -5.8529e-11 0)
(5.64767e-12 -5.0832e-11 0)
(-7.58739e-12 -5.60273e-11 0)
(3.39187e-11 -1.12014e-10 0)
(7.77312e-11 -1.20401e-10 0)
(7.1463e-11 -1.13986e-10 0)
(-8.38426e-13 -1.0165e-10 0)
(-8.07514e-11 -1.12954e-10 0)
(-1.05334e-10 -1.25728e-10 0)
(-6.42174e-11 -1.34591e-10 0)
(-9.54095e-12 -1.38224e-10 0)
(4.22669e-11 -1.13105e-10 0)
(3.10865e-11 -1.12308e-10 0)
(1.37285e-11 -9.29824e-11 0)
(9.87683e-12 -7.82248e-11 0)
(-1.1172e-11 -3.30671e-11 0)
(-3.51799e-11 1.80153e-11 0)
(-7.86086e-11 -1.02631e-11 0)
)
;
    }
    frontAndBack
    {
        type            empty;
    }
}


// ************************************************************************* //
