/*--------------------------------*- C++ -*----------------------------------*\
  =========                 |
  \\      /  F ield         | OpenFOAM: The Open Source CFD Toolbox
   \\    /   O peration     | Website:  https://openfoam.org
    \\  /    A nd           | Version:  7
     \\/     M anipulation  |
\*---------------------------------------------------------------------------*/
FoamFile
{
    version     2.0;
    format      ascii;
    class       volVectorField;
    location    "86";
    object      hU_0;
}
// * * * * * * * * * * * * * * * * * * * * * * * * * * * * * * * * * * * * * //

dimensions      [0 2 -1 0 0 0 0];

internalField   nonuniform List<vector> 
400
(
(0.001 -8.72178e-09 0)
(0.000999999 -2.37744e-08 0)
(0.001 -3.60407e-08 0)
(0.001 -4.6756e-08 0)
(0.00100001 -5.69295e-08 0)
(0.00100001 -6.7432e-08 0)
(0.00100002 -7.81495e-08 0)
(0.00100003 -8.91224e-08 0)
(0.00100004 -9.98935e-08 0)
(0.00100006 -1.11907e-07 0)
(0.00100007 -1.22646e-07 0)
(0.0010001 -1.36165e-07 0)
(0.00100011 -1.46536e-07 0)
(0.00100015 -1.63362e-07 0)
(0.00100017 -1.72191e-07 0)
(0.00100024 -1.9633e-07 0)
(0.00100026 -2.00828e-07 0)
(0.00100038 -2.43061e-07 0)
(0.00100038 -2.39186e-07 0)
(0.00100061 -3.31832e-07 0)
(0.001 4.00096e-09 0)
(0.001 1.20977e-08 0)
(0.00100001 2.02062e-08 0)
(0.00100001 2.79333e-08 0)
(0.00100002 3.51494e-08 0)
(0.00100002 4.16626e-08 0)
(0.00100003 4.76661e-08 0)
(0.00100004 5.31674e-08 0)
(0.00100005 5.84347e-08 0)
(0.00100007 6.22998e-08 0)
(0.00100008 6.69497e-08 0)
(0.0010001 6.85472e-08 0)
(0.00100012 7.26539e-08 0)
(0.00100016 6.98487e-08 0)
(0.00100018 7.40133e-08 0)
(0.00100023 6.16689e-08 0)
(0.00100026 6.71565e-08 0)
(0.00100035 3.17537e-08 0)
(0.00100037 3.98396e-08 0)
(0.0010005 -5.45871e-08 0)
(0.001 -3.97362e-09 0)
(0.000999999 -1.3044e-08 0)
(0.001 -2.30973e-08 0)
(0.001 -3.37232e-08 0)
(0.00100001 -4.42692e-08 0)
(0.00100001 -5.50658e-08 0)
(0.00100002 -6.56411e-08 0)
(0.00100003 -7.73738e-08 0)
(0.00100004 -8.89047e-08 0)
(0.00100005 -1.02519e-07 0)
(0.00100006 -1.15245e-07 0)
(0.00100009 -1.32404e-07 0)
(0.0010001 -1.46506e-07 0)
(0.00100014 -1.70035e-07 0)
(0.00100016 -1.85149e-07 0)
(0.00100021 -2.21173e-07 0)
(0.00100023 -2.35731e-07 0)
(0.00100031 -2.97635e-07 0)
(0.00100033 -3.06257e-07 0)
(0.00100046 -4.22155e-07 0)
(0.001 -1.74996e-10 0)
(0.001 -7.24349e-11 0)
(0.00100001 5.73375e-10 0)
(0.00100001 1.25497e-09 0)
(0.00100001 1.93742e-09 0)
(0.00100002 1.825e-09 0)
(0.00100003 1.49595e-09 0)
(0.00100004 -4.4553e-10 0)
(0.00100004 -2.42688e-09 0)
(0.00100006 -7.07156e-09 0)
(0.00100007 -1.12128e-08 0)
(0.00100009 -2.04568e-08 0)
(0.00100011 -2.71513e-08 0)
(0.00100013 -4.42677e-08 0)
(0.00100016 -5.35601e-08 0)
(0.00100019 -8.50263e-08 0)
(0.00100022 -9.55578e-08 0)
(0.00100028 -1.54744e-07 0)
(0.0010003 -1.6103e-07 0)
(0.00100039 -2.7584e-07 0)
(0.001 -2.91659e-09 0)
(0.001 -9.25639e-09 0)
(0.001 -1.6331e-08 0)
(0.001 -2.44039e-08 0)
(0.00100001 -3.30986e-08 0)
(0.00100001 -4.28117e-08 0)
(0.00100002 -5.29183e-08 0)
(0.00100002 -6.45954e-08 0)
(0.00100003 -7.64708e-08 0)
(0.00100004 -9.12283e-08 0)
(0.00100005 -1.05595e-07 0)
(0.00100007 -1.25367e-07 0)
(0.00100009 -1.42705e-07 0)
(0.00100011 -1.70927e-07 0)
(0.00100013 -1.91248e-07 0)
(0.00100016 -2.34386e-07 0)
(0.00100018 -2.55868e-07 0)
(0.00100024 -3.2663e-07 0)
(0.00100025 -3.41605e-07 0)
(0.00100033 -4.64382e-07 0)
(0.001 -2.57268e-09 0)
(0.001 -7.5708e-09 0)
(0.001 -1.22793e-08 0)
(0.00100001 -1.70312e-08 0)
(0.00100001 -2.1827e-08 0)
(0.00100001 -2.7343e-08 0)
(0.00100002 -3.32846e-08 0)
(0.00100002 -4.08743e-08 0)
(0.00100003 -4.89165e-08 0)
(0.00100004 -6.01223e-08 0)
(0.00100005 -7.12336e-08 0)
(0.00100006 -8.81857e-08 0)
(0.00100008 -1.03156e-07 0)
(0.0010001 -1.29469e-07 0)
(0.00100011 -1.48388e-07 0)
(0.00100014 -1.9038e-07 0)
(0.00100016 -2.1112e-07 0)
(0.0010002 -2.80616e-07 0)
(0.00100021 -2.94639e-07 0)
(0.00100027 -4.14961e-07 0)
(0.001 -2.90171e-09 0)
(0.001 -8.90741e-09 0)
(0.001 -1.52366e-08 0)
(0.001 -2.22892e-08 0)
(0.00100001 -3.00315e-08 0)
(0.00100001 -3.90143e-08 0)
(0.00100001 -4.87873e-08 0)
(0.00100002 -6.04968e-08 0)
(0.00100002 -7.29057e-08 0)
(0.00100003 -8.86515e-08 0)
(0.00100004 -1.04462e-07 0)
(0.00100005 -1.2635e-07 0)
(0.00100006 -1.46314e-07 0)
(0.00100007 -1.77867e-07 0)
(0.00100009 -2.01886e-07 0)
(0.00100011 -2.493e-07 0)
(0.00100012 -2.74825e-07 0)
(0.00100015 -3.49655e-07 0)
(0.00100016 -3.67348e-07 0)
(0.00100021 -4.92178e-07 0)
(0.001 -3.19895e-09 0)
(0.001 -9.79214e-09 0)
(0.001 -1.6627e-08 0)
(0.001 -2.40421e-08 0)
(0.001 -3.18938e-08 0)
(0.00100001 -4.07816e-08 0)
(0.00100001 -5.02316e-08 0)
(0.00100001 -6.15317e-08 0)
(0.00100002 -7.3481e-08 0)
(0.00100002 -8.8788e-08 0)
(0.00100003 -1.04291e-07 0)
(0.00100004 -1.25958e-07 0)
(0.00100004 -1.45883e-07 0)
(0.00100005 -1.77473e-07 0)
(0.00100006 -2.01792e-07 0)
(0.00100008 -2.49366e-07 0)
(0.00100009 -2.75365e-07 0)
(0.00100011 -3.49936e-07 0)
(0.00100012 -3.67762e-07 0)
(0.00100015 -4.90814e-07 0)
(0.001 -3.37289e-09 0)
(0.001 -1.0292e-08 0)
(0.001 -1.74072e-08 0)
(0.001 -2.51068e-08 0)
(0.001 -3.32614e-08 0)
(0.001 -4.25653e-08 0)
(0.00100001 -5.257e-08 0)
(0.00100001 -6.46354e-08 0)
(0.00100001 -7.7503e-08 0)
(0.00100001 -9.39461e-08 0)
(0.00100002 -1.10734e-07 0)
(0.00100002 -1.33862e-07 0)
(0.00100003 -1.55336e-07 0)
(0.00100003 -1.88712e-07 0)
(0.00100004 -2.14744e-07 0)
(0.00100005 -2.64296e-07 0)
(0.00100005 -2.91883e-07 0)
(0.00100007 -3.68464e-07 0)
(0.00100007 -3.87328e-07 0)
(0.00100009 -5.12469e-07 0)
(0.001 -3.45127e-09 0)
(0.001 -1.05275e-08 0)
(0.001 -1.78008e-08 0)
(0.001 -2.56736e-08 0)
(0.001 -3.40535e-08 0)
(0.001 -4.36318e-08 0)
(0.001 -5.39739e-08 0)
(0.001 -6.64058e-08 0)
(0.001 -7.96609e-08 0)
(0.001 -9.64937e-08 0)
(0.00100001 -1.13676e-07 0)
(0.00100001 -1.37182e-07 0)
(0.00100001 -1.59072e-07 0)
(0.00100001 -1.92813e-07 0)
(0.00100001 -2.19267e-07 0)
(0.00100002 -2.69105e-07 0)
(0.00100002 -2.97094e-07 0)
(0.00100002 -3.73729e-07 0)
(0.00100002 -3.92879e-07 0)
(0.00100003 -5.17443e-07 0)
(0.001 -3.45299e-09 0)
(0.001 -1.05242e-08 0)
(0.001 -1.78074e-08 0)
(0.000999999 -2.56717e-08 0)
(0.000999999 -3.40518e-08 0)
(0.000999999 -4.36225e-08 0)
(0.000999998 -5.39748e-08 0)
(0.000999997 -6.64001e-08 0)
(0.000999996 -7.96629e-08 0)
(0.000999995 -9.64894e-08 0)
(0.000999994 -1.1366e-07 0)
(0.000999993 -1.37178e-07 0)
(0.000999991 -1.59073e-07 0)
(0.000999989 -1.92806e-07 0)
(0.000999987 -2.19262e-07 0)
(0.000999984 -2.69111e-07 0)
(0.000999982 -2.97102e-07 0)
(0.000999978 -3.73721e-07 0)
(0.000999976 -3.9286e-07 0)
(0.00099997 -5.1743e-07 0)
(0.001 -3.37824e-09 0)
(0.001 -1.02888e-08 0)
(0.000999999 -1.74176e-08 0)
(0.000999998 -2.50942e-08 0)
(0.000999997 -3.32581e-08 0)
(0.000999996 -4.25463e-08 0)
(0.000999994 -5.2577e-08 0)
(0.000999992 -6.46315e-08 0)
(0.000999989 -7.75098e-08 0)
(0.000999986 -9.39471e-08 0)
(0.000999983 -1.10705e-07 0)
(0.000999978 -1.33843e-07 0)
(0.000999973 -1.55333e-07 0)
(0.000999967 -1.88696e-07 0)
(0.000999961 -2.14731e-07 0)
(0.000999952 -2.64292e-07 0)
(0.000999946 -2.91884e-07 0)
(0.000999934 -3.68422e-07 0)
(0.00099993 -3.87265e-07 0)
(0.000999911 -5.12393e-07 0)
(0.001 -3.20862e-09 0)
(0.001 -9.79761e-09 0)
(0.000999999 -1.66216e-08 0)
(0.000999997 -2.40253e-08 0)
(0.000999996 -3.18919e-08 0)
(0.000999993 -4.07729e-08 0)
(0.000999991 -5.02417e-08 0)
(0.000999987 -6.15497e-08 0)
(0.000999983 -7.34892e-08 0)
(0.000999977 -8.88089e-08 0)
(0.000999971 -1.04296e-07 0)
(0.000999964 -1.25944e-07 0)
(0.000999956 -1.45879e-07 0)
(0.000999945 -1.77473e-07 0)
(0.000999936 -2.01796e-07 0)
(0.000999921 -2.49372e-07 0)
(0.000999911 -2.75383e-07 0)
(0.000999889 -3.4993e-07 0)
(0.000999882 -3.67741e-07 0)
(0.000999852 -4.90787e-07 0)
(0.001 -2.91098e-09 0)
(0.000999999 -8.91514e-09 0)
(0.000999998 -1.52208e-08 0)
(0.000999996 -2.22934e-08 0)
(0.000999994 -3.00226e-08 0)
(0.000999991 -3.90248e-08 0)
(0.000999987 -4.87773e-08 0)
(0.000999982 -6.05234e-08 0)
(0.000999977 -7.29037e-08 0)
(0.000999969 -8.86501e-08 0)
(0.000999962 -1.0448e-07 0)
(0.000999951 -1.26341e-07 0)
(0.000999941 -1.46291e-07 0)
(0.000999925 -1.77835e-07 0)
(0.000999913 -2.01855e-07 0)
(0.000999891 -2.49247e-07 0)
(0.000999878 -2.74786e-07 0)
(0.000999847 -3.49577e-07 0)
(0.000999839 -3.67273e-07 0)
(0.000999792 -4.92037e-07 0)
(0.001 -2.57233e-09 0)
(0.000999999 -7.57434e-09 0)
(0.000999997 -1.22813e-08 0)
(0.000999995 -1.70568e-08 0)
(0.000999991 -2.18214e-08 0)
(0.000999987 -2.73758e-08 0)
(0.000999982 -3.32632e-08 0)
(0.000999975 -4.08905e-08 0)
(0.000999968 -4.89431e-08 0)
(0.000999959 -6.01209e-08 0)
(0.000999949 -7.12588e-08 0)
(0.000999935 -8.82165e-08 0)
(0.000999922 -1.03176e-07 0)
(0.000999903 -1.29477e-07 0)
(0.000999886 -1.48397e-07 0)
(0.000999859 -1.90378e-07 0)
(0.000999841 -2.11129e-07 0)
(0.000999802 -2.80621e-07 0)
(0.000999787 -2.94664e-07 0)
(0.000999731 -4.14956e-07 0)
(0.001 -2.89126e-09 0)
(0.001 -9.2499e-09 0)
(0.000999999 -1.63505e-08 0)
(0.000999997 -2.44165e-08 0)
(0.000999994 -3.31058e-08 0)
(0.00099999 -4.28087e-08 0)
(0.000999984 -5.28853e-08 0)
(0.000999977 -6.45314e-08 0)
(0.000999969 -7.64737e-08 0)
(0.000999958 -9.12114e-08 0)
(0.000999946 -1.05576e-07 0)
(0.00099993 -1.25361e-07 0)
(0.000999915 -1.42706e-07 0)
(0.000999891 -1.70905e-07 0)
(0.000999872 -1.91233e-07 0)
(0.000999837 -2.34335e-07 0)
(0.000999817 -2.55827e-07 0)
(0.000999764 -3.26544e-07 0)
(0.000999752 -3.41559e-07 0)
(0.00099967 -4.64236e-07 0)
(0.001 -1.35096e-10 0)
(0.000999998 -6.84928e-11 0)
(0.000999995 5.36464e-10 0)
(0.000999991 1.24706e-09 0)
(0.000999986 1.91101e-09 0)
(0.00099998 1.8666e-09 0)
(0.000999973 1.45387e-09 0)
(0.000999965 -3.29276e-10 0)
(0.000999955 -2.39426e-09 0)
(0.000999943 -7.06847e-09 0)
(0.00099993 -1.12026e-08 0)
(0.000999912 -2.04557e-08 0)
(0.000999894 -2.7163e-08 0)
(0.000999867 -4.427e-08 0)
(0.000999845 -5.35682e-08 0)
(0.000999805 -8.50122e-08 0)
(0.000999779 -9.55439e-08 0)
(0.00099972 -1.54705e-07 0)
(0.000999698 -1.6101e-07 0)
(0.000999611 -2.75784e-07 0)
(0.001 -3.98492e-09 0)
(0.001 -1.30434e-08 0)
(0.001 -2.30934e-08 0)
(0.000999998 -3.36994e-08 0)
(0.000999995 -4.42521e-08 0)
(0.000999989 -5.50203e-08 0)
(0.000999983 -6.57723e-08 0)
(0.000999973 -7.73026e-08 0)
(0.000999963 -8.88442e-08 0)
(0.00099995 -1.02516e-07 0)
(0.000999936 -1.15247e-07 0)
(0.000999915 -1.32392e-07 0)
(0.000999896 -1.46508e-07 0)
(0.000999864 -1.70029e-07 0)
(0.000999841 -1.85166e-07 0)
(0.000999791 -2.21163e-07 0)
(0.000999767 -2.35747e-07 0)
(0.000999687 -2.97593e-07 0)
(0.000999671 -3.06253e-07 0)
(0.000999539 -4.22074e-07 0)
(0.001 3.93684e-09 0)
(0.000999996 1.20966e-08 0)
(0.000999991 2.02675e-08 0)
(0.000999987 2.79547e-08 0)
(0.000999982 3.5144e-08 0)
(0.000999976 4.15851e-08 0)
(0.000999969 4.77576e-08 0)
(0.000999959 5.28666e-08 0)
(0.000999948 5.8374e-08 0)
(0.000999934 6.22998e-08 0)
(0.000999919 6.69575e-08 0)
(0.000999897 6.85781e-08 0)
(0.000999878 7.26777e-08 0)
(0.000999845 6.98787e-08 0)
(0.000999819 7.40287e-08 0)
(0.000999767 6.17085e-08 0)
(0.000999738 6.7179e-08 0)
(0.000999654 3.18312e-08 0)
(0.000999629 3.99017e-08 0)
(0.000999495 -5.4457e-08 0)
(0.001 -8.7549e-09 0)
(0.001 -2.37759e-08 0)
(0.001 -3.60054e-08 0)
(0.000999997 -4.67655e-08 0)
(0.000999993 -5.69729e-08 0)
(0.000999986 -6.75389e-08 0)
(0.000999978 -7.79968e-08 0)
(0.000999968 -8.94498e-08 0)
(0.000999958 -1.00017e-07 0)
(0.000999942 -1.11942e-07 0)
(0.000999928 -1.22679e-07 0)
(0.000999903 -1.36193e-07 0)
(0.000999886 -1.46574e-07 0)
(0.000999846 -1.63404e-07 0)
(0.000999826 -1.72244e-07 0)
(0.00099976 -1.96385e-07 0)
(0.000999742 -2.00894e-07 0)
(0.000999623 -2.43133e-07 0)
(0.000999618 -2.39261e-07 0)
(0.000999394 -3.31959e-07 0)
)
;

boundaryField
{
    sides
    {
        type            slip;
    }
    inlet
    {
        type            fixedValue;
        value           uniform (0.001 0 0);
    }
    outlet
    {
        type            zeroGradient;
    }
    frontAndBack
    {
        type            empty;
    }
}


// ************************************************************************* //
