/*--------------------------------*- C++ -*----------------------------------*\
  =========                 |
  \\      /  F ield         | OpenFOAM: The Open Source CFD Toolbox
   \\    /   O peration     | Website:  https://openfoam.org
    \\  /    A nd           | Version:  7
     \\/     M anipulation  |
\*---------------------------------------------------------------------------*/
FoamFile
{
    version     2.0;
    format      ascii;
    class       volVectorField;
    location    "55";
    object      ddt0(hU);
}
// * * * * * * * * * * * * * * * * * * * * * * * * * * * * * * * * * * * * * //

dimensions      [0 2 -2 0 0 0 0];

internalField   nonuniform List<vector> 
400
(
(2.05112e-10 1.07962e-10 0)
(-2.65877e-11 -4.32671e-11 0)
(-2.84491e-10 -3.62106e-10 0)
(-4.425e-10 -5.71451e-10 0)
(-5.88139e-10 -6.56191e-10 0)
(1.71699e-10 2.10904e-10 0)
(5.39367e-10 -7.11227e-10 0)
(-2.66757e-09 -1.5126e-09 0)
(2.62846e-10 -3.95032e-10 0)
(3.4443e-10 -3.19966e-10 0)
(-4.26299e-10 1.27843e-10 0)
(-3.97281e-10 4.48081e-10 0)
(-3.18223e-10 5.03917e-10 0)
(-2.49226e-10 3.1857e-10 0)
(-2.17125e-10 8.17237e-11 0)
(-3.61963e-10 -2.45809e-10 0)
(-2.25731e-10 -4.60524e-10 0)
(-1.44183e-10 -4.96087e-10 0)
(2.63999e-10 -5.88901e-10 0)
(6.35555e-10 -1.16649e-10 0)
(4.79884e-11 3.43482e-10 0)
(-1.2403e-10 2.89447e-10 0)
(-4.8569e-10 -9.89496e-11 0)
(-4.47252e-10 6.21499e-11 0)
(-2.99517e-10 -8.85382e-11 0)
(-1.63556e-10 8.9288e-10 0)
(1.66323e-10 -7.24555e-10 0)
(2.0286e-09 -7.80144e-10 0)
(1.27545e-09 -2.1301e-11 0)
(4.60722e-10 -6.10388e-10 0)
(4.14633e-10 -1.97469e-10 0)
(2.06563e-10 1.97577e-10 0)
(-1.15868e-10 3.81231e-10 0)
(-3.19316e-10 3.77845e-10 0)
(-4.06183e-10 2.28873e-10 0)
(-5.22868e-10 2.01869e-11 0)
(-3.33085e-10 -1.56761e-10 0)
(-1.99341e-10 -1.58463e-10 0)
(1.84974e-10 -3.61815e-10 0)
(5.97628e-10 -2.59965e-10 0)
(3.00334e-11 8.61165e-11 0)
(-2.03273e-10 4.52576e-11 0)
(-5.12509e-10 -2.05332e-10 0)
(-4.30387e-10 -2.15e-10 0)
(-2.48719e-10 -7.52832e-10 0)
(-4.97717e-11 -8.32572e-10 0)
(-1.13911e-09 -1.30755e-09 0)
(1.25392e-09 2.50139e-10 0)
(1.14552e-10 -1.44528e-10 0)
(-9.9907e-11 8.86532e-11 0)
(5.34336e-10 6.01528e-10 0)
(2.85222e-10 7.30122e-10 0)
(-6.70712e-11 7.20699e-10 0)
(-3.63443e-10 4.75946e-10 0)
(-5.86544e-10 1.54529e-10 0)
(-7.30422e-10 -3.23306e-10 0)
(-3.7524e-10 -7.08018e-10 0)
(-1.60217e-10 -7.73836e-10 0)
(4.11102e-10 -1.18108e-09 0)
(8.48753e-10 -4.47784e-10 0)
(-1.16251e-11 -1.10929e-10 0)
(-8.81004e-11 -1.08089e-10 0)
(-4.17511e-10 -1.3489e-10 0)
(-5.66034e-10 -4.10857e-10 0)
(-1.97334e-10 -6.86749e-10 0)
(-3.0065e-10 -1.18474e-09 0)
(2.93696e-10 -6.76216e-10 0)
(8.16267e-10 -4.87148e-10 0)
(-1.90418e-10 -6.56796e-10 0)
(6.39587e-10 3.9087e-10 0)
(7.03094e-10 8.51082e-10 0)
(2.17566e-10 8.62444e-10 0)
(-6.83867e-11 8.23267e-10 0)
(-3.68104e-10 4.66179e-10 0)
(-6.02517e-10 9.23496e-11 0)
(-6.73751e-10 -4.09461e-10 0)
(-3.66641e-10 -8.84325e-10 0)
(-1.5042e-10 -9.60423e-10 0)
(2.27045e-10 -1.50517e-09 0)
(6.20536e-10 -6.24343e-10 0)
(9.67488e-11 6.18617e-11 0)
(-5.41316e-12 9.7482e-11 0)
(-2.07974e-10 1.18467e-10 0)
(-3.29786e-10 -1.92243e-10 0)
(3.87952e-11 -2.57011e-10 0)
(-1.85669e-10 -9.81199e-10 0)
(2.37556e-10 -5.29996e-10 0)
(-2.55019e-10 -9.64292e-10 0)
(-6.31371e-12 -3.54689e-10 0)
(5.71442e-10 4.59844e-10 0)
(1.84686e-10 7.00571e-10 0)
(-8.65092e-11 7.9686e-10 0)
(-1.48348e-10 8.33446e-10 0)
(-3.59857e-10 4.44584e-10 0)
(-4.56382e-10 7.27648e-11 0)
(-4.19749e-10 -3.79367e-10 0)
(-1.52625e-10 -8.83505e-10 0)
(-4.69583e-11 -9.63387e-10 0)
(2.51493e-10 -1.57159e-09 0)
(5.13365e-10 -6.95609e-10 0)
(9.43859e-11 1.04862e-10 0)
(-2.10013e-11 -6.61424e-11 0)
(-2.74206e-10 -2.20865e-10 0)
(-4.1195e-10 -7.72258e-10 0)
(-1.67766e-10 -1.20154e-09 0)
(-9.24952e-11 -1.77239e-09 0)
(2.37834e-10 -1.73853e-09 0)
(1.16425e-10 -1.56158e-09 0)
(7.03125e-10 -5.36679e-10 0)
(6.98367e-10 2.02586e-10 0)
(8.10916e-11 6.8226e-10 0)
(-7.67312e-11 1.04131e-09 0)
(-2.72414e-10 1.0622e-09 0)
(-6.1667e-10 5.19398e-10 0)
(-6.31864e-10 7.63791e-11 0)
(-5.02293e-10 -5.92539e-10 0)
(-1.67322e-10 -1.30349e-09 0)
(1.66522e-12 -1.45639e-09 0)
(4.09762e-10 -2.22662e-09 0)
(6.27577e-10 -8.49804e-10 0)
(5.25566e-11 1.70288e-10 0)
(3.60999e-11 9.66384e-11 0)
(-1.3081e-10 -9.06252e-11 0)
(-1.28835e-10 -4.0165e-10 0)
(-1.03261e-10 -1.00675e-09 0)
(-2.53165e-11 -1.38223e-09 0)
(-1.03031e-10 -1.67197e-09 0)
(-4.86288e-11 -1.43472e-09 0)
(3.00179e-10 -7.26851e-10 0)
(2.1783e-11 -2.37416e-10 0)
(-7.12944e-11 4.32993e-10 0)
(5.21075e-11 8.96964e-10 0)
(-1.03061e-10 9.128e-10 0)
(-2.42893e-10 5.10209e-10 0)
(-1.09805e-10 2.11187e-10 0)
(-2.26101e-11 -4.24905e-10 0)
(2.60812e-11 -1.21112e-09 0)
(4.07587e-11 -1.3897e-09 0)
(8.25723e-11 -2.29e-09 0)
(1.09125e-10 -1.03227e-09 0)
(1.11863e-11 1.28468e-10 0)
(4.66616e-11 1.75853e-10 0)
(-1.18505e-10 -1.78766e-10 0)
(-1.31347e-10 -6.06515e-10 0)
(-2.05037e-10 -1.37359e-09 0)
(-6.98154e-11 -1.80456e-09 0)
(-1.35193e-10 -2.03754e-09 0)
(1.67425e-10 -1.57569e-09 0)
(2.64844e-10 -8.8652e-10 0)
(1.18339e-10 -6.76839e-11 0)
(1.99415e-10 8.37425e-10 0)
(-1.09273e-11 1.21275e-09 0)
(-3.12616e-10 1.17899e-09 0)
(-2.80959e-10 7.21309e-10 0)
(-1.47785e-10 2.74161e-10 0)
(-1.96885e-10 -6.04817e-10 0)
(-1.04417e-10 -1.5264e-09 0)
(4.51954e-12 -1.75982e-09 0)
(2.43467e-10 -2.74532e-09 0)
(2.90794e-10 -1.13452e-09 0)
(1.69754e-11 6.08534e-11 0)
(3.77199e-11 1.50007e-10 0)
(-8.38429e-11 -1.41533e-10 0)
(-1.02781e-10 -7.0425e-10 0)
(-9.97398e-11 -1.34586e-09 0)
(-2.10344e-11 -1.83163e-09 0)
(-4.55341e-11 -1.98158e-09 0)
(9.63388e-11 -1.58756e-09 0)
(5.71176e-11 -1.03124e-09 0)
(6.84526e-11 -1.23935e-10 0)
(1.11602e-10 6.55465e-10 0)
(-8.86302e-11 9.81069e-10 0)
(-1.44284e-10 1.18668e-09 0)
(1.92054e-11 8.57295e-10 0)
(5.1946e-11 3.34192e-10 0)
(-7.01524e-11 -5.64506e-10 0)
(-8.42463e-11 -1.459e-09 0)
(-1.71999e-11 -1.71629e-09 0)
(2.38028e-11 -2.85757e-09 0)
(3.21213e-11 -1.2809e-09 0)
(2.73239e-11 4.58374e-11 0)
(-3.22912e-12 1.19114e-10 0)
(-4.67244e-12 -1.03456e-10 0)
(-4.52741e-11 -7.20172e-10 0)
(9.23667e-12 -1.38514e-09 0)
(-1.93992e-11 -1.9494e-09 0)
(3.81034e-11 -2.09543e-09 0)
(-9.00343e-12 -1.71149e-09 0)
(-1.9448e-11 -1.04362e-09 0)
(7.03883e-11 -6.61699e-11 0)
(2.81121e-11 7.0075e-10 0)
(8.79802e-11 1.05414e-09 0)
(1.75254e-10 1.25156e-09 0)
(6.38417e-11 7.96617e-10 0)
(-1.06017e-10 1.59019e-10 0)
(-1.8939e-10 -7.71608e-10 0)
(-1.68811e-10 -1.61398e-09 0)
(-1.83627e-10 -1.80334e-09 0)
(-8.9863e-11 -2.91223e-09 0)
(1.03242e-10 -1.25439e-09 0)
(9.7363e-12 7.08909e-11 0)
(-1.78234e-11 1.53096e-10 0)
(4.93331e-11 -1.47992e-10 0)
(1.11684e-11 -7.18048e-10 0)
(6.2638e-11 -1.44165e-09 0)
(1.08482e-11 -1.97507e-09 0)
(1.14303e-10 -2.15118e-09 0)
(-7.19527e-12 -1.79804e-09 0)
(-6.5135e-11 -1.02682e-09 0)
(-1.63649e-11 -1.33384e-10 0)
(-1.0638e-10 6.99788e-10 0)
(3.64755e-11 1.11311e-09 0)
(2.03368e-10 1.12876e-09 0)
(8.75286e-11 5.83355e-10 0)
(-4.3338e-11 6.5718e-11 0)
(2.44707e-11 -7.8896e-10 0)
(3.76452e-11 -1.65736e-09 0)
(-3.3978e-11 -1.80509e-09 0)
(-1.48951e-10 -2.82823e-09 0)
(-7.91835e-11 -1.1927e-09 0)
(-3.31385e-11 1.31017e-10 0)
(2.55573e-12 1.40424e-10 0)
(6.49464e-11 -1.82086e-10 0)
(9.06186e-11 -7.11522e-10 0)
(6.47016e-11 -1.41247e-09 0)
(2.9549e-11 -1.88416e-09 0)
(2.40878e-11 -2.05149e-09 0)
(-1.13132e-11 -1.76803e-09 0)
(-1.52806e-10 -9.68222e-10 0)
(-8.25046e-11 -2.05082e-10 0)
(-1.62592e-11 6.00502e-10 0)
(-2.52214e-11 1.0867e-09 0)
(9.13803e-11 1.05614e-09 0)
(1.94036e-10 4.87152e-10 0)
(1.08695e-10 6.63319e-11 0)
(6.25871e-12 -6.82764e-10 0)
(-3.65203e-11 -1.54664e-09 0)
(-4.78972e-11 -1.67492e-09 0)
(-6.60269e-11 -2.64955e-09 0)
(-3.04886e-11 -1.14234e-09 0)
(-8.18538e-11 1.47497e-10 0)
(-2.81671e-11 9.69891e-11 0)
(6.69243e-11 -9.9602e-11 0)
(1.84583e-10 -6.86157e-10 0)
(7.48892e-11 -1.28361e-09 0)
(1.03805e-10 -1.85787e-09 0)
(-6.52218e-11 -1.94376e-09 0)
(-1.40632e-11 -1.69219e-09 0)
(-2.64428e-10 -7.97375e-10 0)
(-3.29081e-10 9.53034e-11 0)
(-2.9931e-11 7.78736e-10 0)
(-6.09347e-11 1.21584e-09 0)
(-5.4e-11 1.25009e-09 0)
(2.38046e-10 5.943e-10 0)
(3.84078e-10 1.45445e-11 0)
(3.63932e-10 -7.81532e-10 0)
(2.00947e-10 -1.58682e-09 0)
(1.34818e-10 -1.68644e-09 0)
(-1.356e-10 -2.56258e-09 0)
(-3.64375e-10 -1.02265e-09 0)
(-6.69895e-11 7.27374e-11 0)
(-4.75929e-11 9.42104e-11 0)
(1.07808e-10 -1.96498e-11 0)
(2.04254e-10 -4.69516e-10 0)
(-7.82176e-12 -8.10437e-10 0)
(8.6495e-11 -1.44435e-09 0)
(-6.68938e-11 -1.47836e-09 0)
(7.27968e-11 -1.39656e-09 0)
(5.71481e-11 -8.50486e-10 0)
(-3.25407e-10 7.8317e-11 0)
(-1.34982e-10 5.9862e-10 0)
(5.1045e-13 8.71243e-10 0)
(-1.34891e-10 1.07245e-09 0)
(-4.56336e-11 6.77204e-10 0)
(1.76453e-10 1.92631e-10 0)
(3.0515e-10 -4.94113e-10 0)
(2.29198e-10 -1.23328e-09 0)
(1.7752e-10 -1.38986e-09 0)
(5.84702e-11 -2.28425e-09 0)
(-2.323e-10 -1.02569e-09 0)
(-8.45429e-12 1.95218e-12 0)
(4.20007e-12 3.0671e-11 0)
(3.14218e-10 -2.74761e-10 0)
(4.18848e-10 -6.85527e-10 0)
(2.21131e-10 -1.24059e-09 0)
(6.32032e-11 -1.73497e-09 0)
(-1.14926e-10 -1.73535e-09 0)
(-5.13703e-10 -1.30112e-09 0)
(-1.25169e-10 -9.12874e-10 0)
(-4.05076e-10 1.37017e-10 0)
(-4.74545e-10 9.26812e-10 0)
(-3.25041e-12 1.12841e-09 0)
(2.16396e-10 1.19139e-09 0)
(3.08482e-10 7.85011e-10 0)
(4.99218e-10 2.74193e-10 0)
(6.49128e-10 -5.41486e-10 0)
(3.50057e-10 -1.32454e-09 0)
(1.46996e-10 -1.55006e-09 0)
(-3.13233e-10 -2.39423e-09 0)
(-7.09054e-10 -9.46309e-10 0)
(3.23375e-11 1.14368e-10 0)
(1.32452e-11 2.26294e-10 0)
(2.81116e-10 -3.89068e-12 0)
(2.12678e-10 -4.89405e-11 0)
(1.95776e-10 -6.43742e-10 0)
(-6.65815e-11 -6.09212e-10 0)
(2.74588e-10 -1.16133e-09 0)
(-3.86182e-10 -5.01372e-10 0)
(-6.08881e-11 -4.88276e-10 0)
(2.28995e-10 -9.75194e-11 0)
(-1.23004e-10 5.86001e-10 0)
(-1.83181e-11 8.289e-10 0)
(1.6838e-10 8.56006e-10 0)
(1.69016e-10 6.26285e-10 0)
(2.04046e-10 3.10893e-10 0)
(3.1897e-10 -2.76827e-10 0)
(1.51973e-10 -8.91664e-10 0)
(7.62515e-11 -1.05488e-09 0)
(-2.02703e-10 -1.75529e-09 0)
(-4.69026e-10 -8.10187e-10 0)
(5.15069e-11 8.7635e-11 0)
(9.22488e-11 8.18462e-12 0)
(4.23162e-10 -2.89604e-10 0)
(3.82494e-10 -4.39255e-10 0)
(5.0246e-10 -9.79832e-10 0)
(-2.1094e-10 -6.2222e-10 0)
(3.50377e-10 -1.6718e-09 0)
(-4.89289e-10 -5.33242e-10 0)
(-9.65841e-10 -2.24566e-10 0)
(-2.41619e-10 -1.51918e-10 0)
(-1.49692e-10 3.97009e-10 0)
(-6.63525e-11 7.19537e-10 0)
(2.20654e-10 7.47678e-10 0)
(3.74544e-10 5.06204e-10 0)
(3.77051e-10 2.38651e-10 0)
(4.32531e-10 -3.0119e-10 0)
(2.38427e-10 -8.41683e-10 0)
(9.24495e-11 -9.70033e-10 0)
(-2.08418e-10 -1.56463e-09 0)
(-4.83285e-10 -6.64175e-10 0)
(-1.79606e-10 1.0401e-10 0)
(1.56951e-10 -9.96884e-11 0)
(3.76755e-10 -1.22857e-10 0)
(3.57412e-10 -4.46537e-10 0)
(5.13509e-10 -5.06461e-10 0)
(-1.5195e-10 -6.77867e-10 0)
(-2.01368e-10 -1.7283e-09 0)
(1.03357e-09 -1.99799e-09 0)
(-1.30256e-09 1.08554e-10 0)
(-4.55299e-10 2.428e-10 0)
(1.36517e-10 4.65444e-10 0)
(1.90507e-10 6.61542e-10 0)
(3.78421e-10 6.13051e-10 0)
(5.18704e-10 3.24016e-10 0)
(4.72638e-10 9.65606e-11 0)
(5.09965e-10 -2.76032e-10 0)
(2.23628e-10 -6.27969e-10 0)
(7.254e-11 -7.02173e-10 0)
(-4.18759e-10 -1.10943e-09 0)
(-7.32593e-10 -4.10381e-10 0)
(-1.16449e-10 1.91418e-10 0)
(1.38563e-10 -7.27363e-11 0)
(3.90553e-10 2.11089e-10 0)
(5.59193e-10 1.84589e-10 0)
(2.60611e-10 5.30964e-10 0)
(8.69001e-10 -7.56668e-10 0)
(-2.50373e-09 2.32679e-09 0)
(4.35224e-10 5.23667e-10 0)
(6.87329e-10 4.01949e-11 0)
(-8.33161e-10 5.42492e-10 0)
(-2.3251e-10 2.53979e-10 0)
(-7.90736e-12 1.56944e-10 0)
(1.78727e-10 9.59087e-11 0)
(4.13183e-10 1.71561e-11 0)
(4.67146e-10 1.44183e-11 0)
(5.05515e-10 1.35852e-11 0)
(2.8656e-10 -6.56133e-11 0)
(1.43118e-10 -5.84221e-11 0)
(-2.25052e-10 -2.5638e-10 0)
(-5.7916e-10 -2.04328e-10 0)
(-1.7808e-10 5.26555e-11 0)
(3.82131e-11 -2.09056e-10 0)
(4.48199e-10 -2.16435e-10 0)
(6.18504e-10 -3.04413e-10 0)
(-2.25757e-11 -3.24117e-10 0)
(2.6636e-11 -1.32919e-09 0)
(2.10322e-09 2.31424e-09 0)
(-1.61396e-09 1.72955e-09 0)
(-5.65506e-10 -2.31281e-10 0)
(-4.30622e-10 4.87911e-10 0)
(-6.25352e-10 4.49267e-10 0)
(-2.3247e-10 3.7011e-10 0)
(1.08918e-10 2.76963e-10 0)
(4.5969e-10 9.79959e-11 0)
(5.67005e-10 -3.36234e-11 0)
(5.73036e-10 -2.47288e-10 0)
(2.67756e-10 -4.1164e-10 0)
(9.18016e-11 -4.47341e-10 0)
(-3.53764e-10 -5.43897e-10 0)
(-7.01141e-10 -9.27937e-11 0)
)
;

boundaryField
{
    sides
    {
        type            calculated;
        value           nonuniform List<vector> 
40
(
(-1.7808e-10 0 0)
(3.82131e-11 0 0)
(4.48199e-10 0 0)
(6.18504e-10 0 0)
(-2.25757e-11 0 0)
(2.6636e-11 0 0)
(2.10322e-09 0 0)
(-1.61396e-09 0 0)
(-5.65506e-10 0 0)
(-4.30622e-10 0 0)
(-6.25352e-10 0 0)
(-2.3247e-10 0 0)
(1.08918e-10 0 0)
(4.5969e-10 0 0)
(5.67005e-10 0 0)
(5.73036e-10 0 0)
(2.67756e-10 0 0)
(9.18016e-11 0 0)
(-3.53764e-10 0 0)
(-7.01141e-10 0 0)
(2.05112e-10 0 0)
(-2.65877e-11 0 0)
(-2.84491e-10 0 0)
(-4.425e-10 0 0)
(-5.88139e-10 0 0)
(1.71699e-10 0 0)
(5.39367e-10 0 0)
(-2.66757e-09 0 0)
(2.62846e-10 0 0)
(3.4443e-10 0 0)
(-4.26299e-10 0 0)
(-3.97281e-10 0 0)
(-3.18223e-10 0 0)
(-2.49226e-10 0 0)
(-2.17125e-10 0 0)
(-3.61963e-10 0 0)
(-2.25731e-10 0 0)
(-1.44183e-10 0 0)
(2.63999e-10 0 0)
(6.35555e-10 0 0)
)
;
    }
    inlet
    {
        type            calculated;
        value           uniform (0 0 0);
    }
    outlet
    {
        type            calculated;
        value           nonuniform List<vector> 
20
(
(6.35555e-10 -1.16649e-10 0)
(5.97628e-10 -2.59965e-10 0)
(8.48753e-10 -4.47784e-10 0)
(6.20536e-10 -6.24343e-10 0)
(5.13365e-10 -6.95609e-10 0)
(6.27577e-10 -8.49804e-10 0)
(1.09125e-10 -1.03227e-09 0)
(2.90794e-10 -1.13452e-09 0)
(3.21213e-11 -1.2809e-09 0)
(1.03242e-10 -1.25439e-09 0)
(-7.91835e-11 -1.1927e-09 0)
(-3.04886e-11 -1.14234e-09 0)
(-3.64375e-10 -1.02265e-09 0)
(-2.323e-10 -1.02569e-09 0)
(-7.09054e-10 -9.46309e-10 0)
(-4.69026e-10 -8.10187e-10 0)
(-4.83285e-10 -6.64175e-10 0)
(-7.32593e-10 -4.10381e-10 0)
(-5.7916e-10 -2.04328e-10 0)
(-7.01141e-10 -9.27937e-11 0)
)
;
    }
    frontAndBack
    {
        type            empty;
    }
}


// ************************************************************************* //
