/*--------------------------------*- C++ -*----------------------------------*\
  =========                 |
  \\      /  F ield         | OpenFOAM: The Open Source CFD Toolbox
   \\    /   O peration     | Website:  https://openfoam.org
    \\  /    A nd           | Version:  7
     \\/     M anipulation  |
\*---------------------------------------------------------------------------*/
FoamFile
{
    version     2.0;
    format      ascii;
    class       surfaceScalarField;
    location    "55";
    object      ddtCorrDdt0(phi);
}
// * * * * * * * * * * * * * * * * * * * * * * * * * * * * * * * * * * * * * //

dimensions      [0 4 -2 0 0 0 0];

internalField   nonuniform List<scalar> 
760
(
-1.0913e-12
1.41015e-12
4.40366e-13
5.43501e-13
-2.22155e-12
-1.31755e-12
-1.02504e-12
-1.29347e-12
-6.71037e-12
-4.7509e-12
8.06437e-12
-3.42597e-10
-7.01469e-12
2.64051e-10
-7.70685e-12
1.77903e-10
3.5899e-12
6.38057e-13
-1.4024e-12
-1.58829e-12
-2.04565e-12
-5.69428e-13
-1.756e-12
8.15453e-13
-1.42484e-12
1.55436e-12
-1.04981e-12
1.48336e-12
-1.26646e-12
8.2024e-13
-1.52206e-12
-3.20596e-13
-1.0129e-12
-1.23346e-12
2.15413e-13
-1.40712e-12
2.35905e-12
-2.15586e-12
-9.09497e-13
-1.28501e-12
1.32928e-12
-1.35849e-12
1.09159e-12
-2.89309e-12
-1.01849e-12
-9.38465e-13
-8.06359e-13
-1.31076e-12
-4.01449e-12
1.11959e-12
3.2061e-12
1.73754e-12
-1.8648e-11
1.17345e-11
-7.73584e-12
3.2258e-12
7.88883e-13
2.04059e-12
-1.09044e-12
1.85968e-12
1.40494e-12
1.72943e-13
2.66388e-12
-1.16969e-12
2.88256e-12
-1.77989e-12
2.08409e-12
-2.28176e-12
9.05882e-13
-2.18751e-12
-8.70176e-13
-1.32014e-12
-2.35085e-12
-1.62496e-13
-2.52453e-12
2.03454e-12
-4.1709e-12
-1.86998e-12
-1.18429e-12
-8.69603e-12
-3.03003e-12
2.81179e-13
-1.06756e-12
-7.30942e-13
-2.79234e-12
-1.20363e-12
2.00547e-12
-3.52412e-12
-7.12053e-12
-3.00383e-12
2.11571e-12
-5.10716e-12
5.32635e-12
6.43645e-12
-2.60324e-12
-3.26835e-12
1.91348e-12
4.39899e-13
2.3301e-12
3.73011e-12
4.61432e-13
4.16543e-12
-1.01952e-12
3.91096e-12
-2.44104e-12
2.36545e-12
-3.4073e-12
6.27117e-13
-2.77645e-12
-1.71736e-12
-1.21008e-12
-3.7416e-12
4.364e-13
-4.09029e-12
3.2395e-12
-6.48957e-12
-2.66661e-12
-7.08256e-13
-1.24694e-13
-2.33372e-12
1.40117e-13
-9.21189e-13
-2.01317e-13
-3.60493e-12
-1.60769e-12
1.64778e-12
-2.66558e-12
-4.53387e-12
-6.71779e-12
7.39341e-12
-1.67821e-12
-7.74313e-13
-5.6654e-12
8.20411e-13
-2.87421e-12
4.15909e-12
2.59926e-12
2.1823e-12
4.43651e-12
3.39581e-13
4.58732e-12
-9.74314e-13
4.5371e-12
-2.54442e-12
2.50292e-12
-3.33718e-12
4.2515e-13
-2.55405e-12
-2.13339e-12
-1.12326e-12
-4.68064e-12
-6.3602e-14
-5.1005e-12
2.10703e-12
-7.97987e-12
-3.34096e-12
3.97629e-13
2.55659e-13
-1.31272e-12
-1.82925e-13
-6.5228e-13
-2.5559e-13
-1.23873e-12
-2.52686e-12
1.68211e-14
-2.99878e-12
-4.50084e-13
-6.95331e-12
1.11245e-12
-5.83076e-12
-2.1449e-12
-6.3892e-12
2.19636e-12
-1.99194e-12
2.07658e-12
1.76897e-12
-1.15674e-13
3.04788e-12
-4.31081e-13
4.01121e-12
-1.22508e-12
4.35007e-12
-2.26405e-12
2.15853e-12
-2.25009e-12
2.24269e-13
-1.34311e-12
-2.35882e-12
-3.43508e-13
-5.26737e-12
3.50258e-13
-5.79547e-12
1.94716e-12
-9.20925e-12
-3.77924e-12
-9.57191e-15
9.22434e-13
-9.13351e-13
1.96684e-13
-1.94117e-12
-3.4789e-13
-5.57252e-13
-2.734e-12
-1.78381e-12
-5.48292e-12
1.21131e-12
-7.55043e-12
5.89215e-13
-8.56774e-12
1.62037e-12
-7.40387e-12
4.37397e-12
-2.68881e-12
1.50353e-12
-2.33887e-15
-2.01671e-13
2.71391e-12
-5.12302e-13
5.0179e-12
-2.34836e-12
5.08913e-12
-3.35615e-12
2.51918e-12
-2.73532e-12
5.71678e-13
-1.6566e-12
-2.7486e-12
-3.0165e-13
-6.50964e-12
9.9171e-13
-7.2729e-12
2.58655e-12
-1.13267e-11
-4.67467e-12
-2.98066e-13
9.13315e-13
2.23298e-13
6.46314e-13
-1.1764e-12
-1.15694e-12
2.56989e-13
-2.71329e-12
-1.24418e-12
-6.5618e-12
3.55605e-13
-8.2294e-12
-1.07603e-12
-9.66e-12
1.18598e-12
-7.64202e-12
9.60613e-13
-4.27907e-12
-6.75418e-13
-1.19345e-12
1.82223e-13
3.17011e-12
6.24822e-14
5.43598e-12
-1.16753e-12
5.15535e-12
-9.58195e-13
3.00176e-12
-1.45883e-13
1.33171e-12
-9.55796e-14
-2.40986e-12
2.2485e-13
-6.76535e-12
5.03292e-13
-7.80372e-12
4.64789e-13
-1.25295e-11
-5.39181e-12
-3.52426e-13
3.88343e-13
-7.05306e-14
9.32276e-13
-4.64315e-13
-8.96791e-13
-8.60353e-13
-3.28844e-12
-7.71442e-13
-6.64633e-12
-4.5214e-13
-9.00945e-12
-2.55192e-13
-1.00166e-11
1.72268e-12
-7.90941e-12
5.3221e-13
-4.97964e-12
7.27415e-13
-4.92306e-13
8.35075e-13
3.79826e-12
-1.0314e-12
5.38498e-12
-1.73157e-12
5.79876e-12
-8.72624e-13
4.042e-12
-7.12103e-13
1.77439e-12
-9.99208e-13
-2.71145e-12
-2.15325e-13
-7.38373e-12
8.61504e-13
-8.77155e-12
1.33507e-12
-1.41588e-11
-6.11368e-12
2.93554e-14
1.93279e-13
-4.0541e-13
5.53243e-13
-4.87875e-14
-4.43289e-13
-6.94261e-13
-3.59676e-12
-1.6372e-13
-6.77181e-12
-3.76293e-13
-9.55439e-12
1.4736e-13
-1.01751e-11
6.01117e-13
-8.18098e-12
3.56411e-14
-5.13586e-12
6.26442e-13
-2.16497e-13
1.43977e-13
3.46614e-12
-8.63111e-13
5.066e-12
-3.04999e-13
6.33232e-12
4.21341e-13
4.34354e-12
-1.90879e-14
1.10021e-12
-5.90585e-13
-3.5607e-12
-3.15529e-13
-7.71359e-12
1.5668e-13
-8.73886e-12
1.83888e-13
-1.43882e-11
-6.31998e-12
4.09924e-14
2.43815e-13
-3.89982e-14
6.27363e-13
-7.59591e-14
-5.95822e-13
-8.54096e-14
-3.65375e-12
-3.09852e-14
-7.08456e-12
-7.3365e-14
-9.80839e-12
2.89747e-13
-1.05288e-11
-2.94725e-13
-8.72235e-12
2.7346e-13
-5.26053e-12
2.8245e-13
-6.45618e-13
6.89581e-14
3.25623e-12
7.38037e-13
5.21538e-12
7.81009e-13
5.96516e-12
-1.85063e-13
3.58143e-12
-8.07216e-13
6.6593e-13
-8.1117e-13
-3.80863e-12
-9.88708e-13
-8.06989e-12
-7.55447e-13
-9.02152e-12
1.40156e-13
-1.45369e-11
-6.24505e-12
1.02999e-13
4.81618e-13
1.74639e-13
8.99773e-13
-5.07209e-15
-9.52076e-13
2.09019e-13
-3.5957e-12
1.91024e-13
-7.34281e-12
2.8512e-13
-9.80592e-12
5.26599e-13
-1.07157e-11
-5.82521e-13
-9.02511e-12
4.2685e-14
-4.96858e-12
-3.14967e-13
-8.59774e-13
-4.64799e-13
3.43811e-12
8.22429e-13
5.63506e-12
9.76085e-13
5.19004e-12
-9.73276e-14
2.29695e-12
-1.63232e-13
1.51883e-13
4.04497e-13
-3.78412e-12
-1.07888e-13
-8.15271e-12
-7.21874e-13
-8.73127e-12
-5.0487e-13
-1.3558e-11
-5.74864e-12
3.12904e-13
8.48103e-13
-2.89596e-14
4.43752e-13
4.94695e-13
-8.5576e-13
9.51349e-14
-3.37239e-12
4.90347e-13
-6.77261e-12
2.72798e-14
-9.28145e-12
2.17226e-13
-1.01468e-11
-5.54028e-13
-8.82228e-12
-6.82529e-13
-4.52966e-12
-3.3183e-14
-6.00336e-13
-1.92706e-13
3.28563e-12
3.82163e-14
5.83066e-12
8.74289e-13
5.72625e-12
7.77151e-13
2.52674e-12
1.87408e-13
8.25158e-14
6.57868e-14
-3.71023e-12
-2.54214e-13
-7.85415e-12
-4.37086e-13
-8.36227e-12
-2.07321e-13
-1.29494e-11
-5.39098e-12
-1.86691e-13
6.14901e-13
9.02709e-14
2.95996e-13
7.89921e-13
-3.57213e-13
2.27661e-13
-3.44934e-12
8.49244e-13
-5.5354e-12
-1.9423e-14
-8.48061e-12
-3.31861e-13
-8.57837e-12
-3.32657e-13
-7.85852e-12
-1.9648e-12
-3.89091e-12
-6.73631e-13
5.47836e-13
5.89334e-14
3.19112e-12
-6.0507e-13
5.05151e-12
3.80595e-13
5.9197e-12
1.72413e-12
3.28663e-12
1.86335e-12
5.15755e-13
1.43607e-12
-3.14556e-12
8.64132e-13
-6.94406e-12
1.57974e-14
-7.5204e-12
-1.31586e-12
-1.19396e-11
-5.03752e-12
-5.00699e-13
1.91897e-13
8.16756e-13
5.94039e-13
9.61328e-14
-4.19901e-13
8.07962e-13
-2.6213e-12
4.1165e-14
-4.48292e-12
5.76188e-13
-8.0538e-12
-8.34596e-13
-7.78161e-12
1.11806e-12
-6.80588e-12
-9.613e-13
-4.45889e-12
-1.43196e-12
1.23952e-12
8.37926e-14
4.36361e-12
-3.66371e-13
5.20718e-12
-7.18128e-13
5.88629e-12
3.88401e-13
3.87027e-12
1.32032e-12
1.24689e-12
1.3125e-12
-2.64128e-12
1.06097e-12
-6.52738e-12
7.46475e-13
-7.55821e-12
-5.41114e-13
-1.18343e-11
-4.93177e-12
1.92641e-13
4.69028e-14
1.54138e-12
5.77667e-13
7.73659e-13
-8.42921e-13
2.67251e-12
-1.62638e-12
-5.0231e-13
-4.83905e-12
1.28038e-12
-5.92765e-12
-2.80701e-12
-6.69196e-12
-1.35221e-12
-4.18853e-12
-5.81826e-13
-4.05973e-12
-2.84402e-12
-5.8804e-13
-1.14387e-12
3.55185e-12
8.09799e-13
4.6327e-12
1.11095e-12
4.83715e-12
1.94706e-12
3.46745e-12
3.00819e-12
1.57849e-12
2.48405e-12
-1.84257e-12
1.18377e-12
-5.33153e-12
-1.38026e-13
-6.38155e-12
-2.62142e-12
-1.03329e-11
-4.4412e-12
8.23105e-13
5.06254e-13
8.16758e-13
5.79024e-13
8.7014e-13
-7.22538e-13
1.42952e-12
-1.36626e-12
-3.65444e-13
-5.09683e-12
1.4747e-12
-2.83661e-12
-5.15705e-13
-8.38384e-12
-2.22433e-12
-2.86179e-12
1.65709e-12
-1.82077e-12
1.02231e-13
-6.42046e-13
-7.29546e-13
2.58059e-12
6.32278e-13
4.19884e-12
8.58987e-13
4.24736e-12
8.57247e-13
2.94947e-12
1.35638e-12
1.39787e-12
1.16488e-12
-1.61205e-12
4.77237e-13
-4.62558e-12
-1.77389e-13
-5.3831e-12
-1.73836e-12
-8.68627e-12
-3.80163e-12
1.91809e-12
-1.04629e-11
6.24043e-13
-2.1124e-13
2.63368e-12
-7.83796e-13
5.22784e-13
-1.87118e-12
3.21755e-12
-2.50369e-12
-2.34194e-12
-2.15133e-12
2.46088e-12
-6.862e-12
-5.9734e-12
-3.94306e-13
-2.23798e-12
1.33943e-12
-5.32151e-13
3.10984e-13
-9.465e-13
1.72499e-12
4.126e-13
2.94717e-12
1.65722e-12
2.98833e-12
1.85413e-12
1.8867e-12
1.93652e-12
8.21764e-13
1.69251e-12
-1.29222e-12
7.62516e-13
-3.40563e-12
-2.43279e-13
-3.88074e-12
-1.73138e-12
-6.36449e-12
-2.6192e-12
1.93441e-12
1.06986e-12
1.61421e-13
-7.06562e-13
2.77575e-12
-1.47687e-13
-1.02669e-13
-1.27344e-12
6.15807e-12
9.68449e-13
-8.63505e-12
-1.11798e-11
9.35572e-12
2.08367e-13
-4.16295e-12
-2.72415e-11
-4.63939e-12
6.85912e-13
1.43423e-13
2.27461e-12
6.47023e-13
1.95132e-12
1.31953e-12
2.23533e-12
2.41945e-12
2.07376e-12
2.53273e-12
1.00246e-12
2.30419e-12
2.5819e-13
1.85229e-12
-8.29831e-13
6.9147e-13
-1.99001e-12
-8.60252e-13
-2.10368e-12
-2.96701e-12
-3.61787e-12
-1.54808e-12
8.41725e-13
6.07479e-13
1.93174e-12
-6.49078e-13
1.25007e-12
2.52936e-13
2.19395e-12
1.14156e-13
6.92301e-12
-3.30144e-12
-1.09113e-11
1.54357e-10
-5.21455e-12
4.64047e-10
9.54748e-12
3.75246e-10
-4.40435e-12
1.04702e-11
-2.18281e-12
1.5582e-12
-4.94579e-13
1.6416e-12
2.36695e-13
1.4095e-12
1.54304e-12
9.41432e-13
2.30061e-12
2.41665e-13
2.34264e-12
-1.04531e-13
2.00322e-12
-5.29583e-13
1.05215e-12
-1.0169e-12
-1.48231e-13
-1.06269e-12
-2.07279e-12
-1.71925e-12
-6.61806e-13
-9.71e-13
2.683e-12
1.79917e-12
3.5034e-12
-8.63564e-12
2.0542e-11
-7.87333e-12
-6.73246e-12
3.86588e-13
-3.46866e-12
-2.0439e-12
-4.70692e-13
1.48875e-12
2.74804e-12
2.80461e-12
2.11431e-12
8.65923e-13
-5.83339e-13
-2.71383e-12
)
;

boundaryField
{
    sides
    {
        type            calculated;
        value           uniform 0;
    }
    inlet
    {
        type            calculated;
        value           uniform 0;
    }
    outlet
    {
        type            calculated;
        value           nonuniform List<scalar> 
20
(
3.18505e-12
3.06758e-12
4.44432e-12
3.45088e-12
2.77118e-12
3.14764e-12
3.21842e-13
1.16801e-12
2.62113e-14
5.20274e-13
-1.20865e-13
-2.95564e-14
-1.84599e-12
-1.38991e-12
-3.87206e-12
-2.47553e-12
-2.39234e-12
-3.53461e-12
-2.88118e-12
-3.57839e-12
)
;
    }
    frontAndBack
    {
        type            empty;
        value           nonuniform 0();
    }
}


// ************************************************************************* //
