/*--------------------------------*- C++ -*----------------------------------*\
  =========                 |
  \\      /  F ield         | OpenFOAM: The Open Source CFD Toolbox
   \\    /   O peration     | Website:  https://openfoam.org
    \\  /    A nd           | Version:  7
     \\/     M anipulation  |
\*---------------------------------------------------------------------------*/
FoamFile
{
    version     2.0;
    format      ascii;
    class       volVectorField;
    location    "55";
    object      hU_0;
}
// * * * * * * * * * * * * * * * * * * * * * * * * * * * * * * * * * * * * * //

dimensions      [0 2 -1 0 0 0 0];

internalField   nonuniform List<vector> 
400
(
(0.001 -8.82516e-09 0)
(0.000999999 -2.39593e-08 0)
(0.001 -3.62893e-08 0)
(0.001 -4.70373e-08 0)
(0.00100001 -5.71456e-08 0)
(0.00100001 -6.74026e-08 0)
(0.00100002 -7.80427e-08 0)
(0.00100003 -8.89109e-08 0)
(0.00100004 -9.95771e-08 0)
(0.00100006 -1.11576e-07 0)
(0.00100007 -1.2246e-07 0)
(0.0010001 -1.36185e-07 0)
(0.00100011 -1.46784e-07 0)
(0.00100015 -1.63761e-07 0)
(0.00100017 -1.72622e-07 0)
(0.00100024 -1.96729e-07 0)
(0.00100026 -2.00973e-07 0)
(0.00100038 -2.43064e-07 0)
(0.00100038 -2.3882e-07 0)
(0.00100061 -3.31366e-07 0)
(0.001 3.95059e-09 0)
(0.001 1.2073e-08 0)
(0.00100001 2.01669e-08 0)
(0.00100001 2.77871e-08 0)
(0.00100002 3.48983e-08 0)
(0.00100002 4.14215e-08 0)
(0.00100003 4.73643e-08 0)
(0.00100004 5.28581e-08 0)
(0.00100005 5.82267e-08 0)
(0.00100007 6.22285e-08 0)
(0.00100008 6.6951e-08 0)
(0.0010001 6.85431e-08 0)
(0.00100012 7.25801e-08 0)
(0.00100015 6.96729e-08 0)
(0.00100018 7.37878e-08 0)
(0.00100023 6.13873e-08 0)
(0.00100026 6.69438e-08 0)
(0.00100035 3.15899e-08 0)
(0.00100037 3.97993e-08 0)
(0.0010005 -5.44076e-08 0)
(0.001 -4.11142e-09 0)
(0.000999999 -1.33974e-08 0)
(0.001 -2.36052e-08 0)
(0.001 -3.42883e-08 0)
(0.00100001 -4.47369e-08 0)
(0.00100001 -5.53411e-08 0)
(0.00100002 -6.55645e-08 0)
(0.00100003 -7.70154e-08 0)
(0.00100004 -8.84314e-08 0)
(0.00100005 -1.0209e-07 0)
(0.00100006 -1.15046e-07 0)
(0.00100008 -1.3251e-07 0)
(0.0010001 -1.46956e-07 0)
(0.00100014 -1.70748e-07 0)
(0.00100016 -1.85935e-07 0)
(0.00100021 -2.2198e-07 0)
(0.00100023 -2.36131e-07 0)
(0.00100031 -2.97819e-07 0)
(0.00100033 -3.05805e-07 0)
(0.00100046 -4.21303e-07 0)
(0.001 -3.98295e-10 0)
(0.001 -6.80604e-10 0)
(0.00100001 -2.69257e-10 0)
(0.00100001 3.32784e-10 0)
(0.00100001 1.11245e-09 0)
(0.00100002 1.27994e-09 0)
(0.00100003 1.36492e-09 0)
(0.00100004 -1.71731e-10 0)
(0.00100004 -1.93684e-09 0)
(0.00100006 -6.60343e-09 0)
(0.00100007 -1.1026e-08 0)
(0.00100009 -2.06498e-08 0)
(0.00100011 -2.77731e-08 0)
(0.00100013 -4.52236e-08 0)
(0.00100015 -5.46049e-08 0)
(0.00100019 -8.61158e-08 0)
(0.00100022 -9.61355e-08 0)
(0.00100028 -1.55054e-07 0)
(0.0010003 -1.60552e-07 0)
(0.00100039 -2.74774e-07 0)
(0.001 -3.07668e-09 0)
(0.001 -9.73749e-09 0)
(0.001 -1.7034e-08 0)
(0.001 -2.52475e-08 0)
(0.00100001 -3.39297e-08 0)
(0.00100001 -4.34118e-08 0)
(0.00100002 -5.31416e-08 0)
(0.00100002 -6.44398e-08 0)
(0.00100003 -7.6094e-08 0)
(0.00100004 -9.08461e-08 0)
(0.00100005 -1.05465e-07 0)
(0.00100007 -1.25617e-07 0)
(0.00100008 -1.43401e-07 0)
(0.00100011 -1.7198e-07 0)
(0.00100013 -1.92384e-07 0)
(0.00100016 -2.35576e-07 0)
(0.00100018 -2.56528e-07 0)
(0.00100024 -3.27018e-07 0)
(0.00100025 -3.41184e-07 0)
(0.00100033 -4.63266e-07 0)
(0.001 -2.81285e-09 0)
(0.001 -8.28469e-09 0)
(0.001 -1.33399e-08 0)
(0.00100001 -1.82318e-08 0)
(0.00100001 -2.286e-08 0)
(0.00100001 -2.79203e-08 0)
(0.00100002 -3.32493e-08 0)
(0.00100002 -4.02958e-08 0)
(0.00100003 -4.80766e-08 0)
(0.00100004 -5.9349e-08 0)
(0.00100005 -7.09102e-08 0)
(0.00100006 -8.84678e-08 0)
(0.00100008 -1.0411e-07 0)
(0.0010001 -1.30919e-07 0)
(0.00100011 -1.49951e-07 0)
(0.00100014 -1.91984e-07 0)
(0.00100016 -2.11951e-07 0)
(0.0010002 -2.81061e-07 0)
(0.00100021 -2.93868e-07 0)
(0.00100027 -4.13338e-07 0)
(0.001 -3.12747e-09 0)
(0.001 -9.58999e-09 0)
(0.001 -1.62805e-08 0)
(0.001 -2.35478e-08 0)
(0.00100001 -3.12517e-08 0)
(0.00100001 -3.99044e-08 0)
(0.00100001 -4.91439e-08 0)
(0.00100002 -6.03314e-08 0)
(0.00100002 -7.24212e-08 0)
(0.00100003 -8.81313e-08 0)
(0.00100004 -1.04262e-07 0)
(0.00100005 -1.26643e-07 0)
(0.00100006 -1.47206e-07 0)
(0.00100007 -1.79252e-07 0)
(0.00100009 -2.03414e-07 0)
(0.00100011 -2.50946e-07 0)
(0.00100012 -2.75775e-07 0)
(0.00100015 -3.50243e-07 0)
(0.00100016 -3.66788e-07 0)
(0.00100021 -4.90635e-07 0)
(0.001 -3.4302e-09 0)
(0.001 -1.05186e-08 0)
(0.001 -1.7769e-08 0)
(0.001 -2.53921e-08 0)
(0.001 -3.31174e-08 0)
(0.00100001 -4.15251e-08 0)
(0.00100001 -5.03053e-08 0)
(0.00100001 -6.099e-08 0)
(0.00100002 -7.26191e-08 0)
(0.00100002 -8.79773e-08 0)
(0.00100003 -1.03963e-07 0)
(0.00100004 -1.2631e-07 0)
(0.00100004 -1.47007e-07 0)
(0.00100005 -1.79185e-07 0)
(0.00100006 -2.03651e-07 0)
(0.00100008 -2.51296e-07 0)
(0.00100009 -2.76405e-07 0)
(0.00100011 -3.50494e-07 0)
(0.00100012 -3.66924e-07 0)
(0.00100015 -4.88958e-07 0)
(0.001 -3.61108e-09 0)
(0.001 -1.10422e-08 0)
(0.001 -1.85831e-08 0)
(0.001 -2.64739e-08 0)
(0.001 -3.44972e-08 0)
(0.001 -4.3352e-08 0)
(0.00100001 -5.27349e-08 0)
(0.00100001 -6.42082e-08 0)
(0.00100001 -7.67496e-08 0)
(0.00100001 -9.31928e-08 0)
(0.00100002 -1.10396e-07 0)
(0.00100002 -1.34152e-07 0)
(0.00100003 -1.56375e-07 0)
(0.00100003 -1.90365e-07 0)
(0.00100004 -2.16598e-07 0)
(0.00100005 -2.66298e-07 0)
(0.00100005 -2.93038e-07 0)
(0.00100007 -3.69148e-07 0)
(0.00100007 -3.86617e-07 0)
(0.00100009 -5.10636e-07 0)
(0.001 -3.69264e-09 0)
(0.001 -1.12863e-08 0)
(0.001 -1.89966e-08 0)
(0.001 -2.70821e-08 0)
(0.001 -3.53428e-08 0)
(0.001 -4.44565e-08 0)
(0.001 -5.41216e-08 0)
(0.001 -6.59046e-08 0)
(0.001 -7.88137e-08 0)
(0.001 -9.56772e-08 0)
(0.00100001 -1.13345e-07 0)
(0.00100001 -1.37546e-07 0)
(0.00100001 -1.60234e-07 0)
(0.00100001 -1.94602e-07 0)
(0.00100001 -2.21232e-07 0)
(0.00100002 -2.71168e-07 0)
(0.00100002 -2.9823e-07 0)
(0.00100002 -3.74358e-07 0)
(0.00100002 -3.92052e-07 0)
(0.00100003 -5.1551e-07 0)
(0.001 -3.69165e-09 0)
(0.001 -1.12768e-08 0)
(0.001 -1.89965e-08 0)
(0.000999999 -2.70812e-08 0)
(0.000999999 -3.53501e-08 0)
(0.000999999 -4.44609e-08 0)
(0.000999998 -5.41331e-08 0)
(0.000999997 -6.59079e-08 0)
(0.000999996 -7.88188e-08 0)
(0.000999995 -9.56847e-08 0)
(0.000999994 -1.1335e-07 0)
(0.000999993 -1.37561e-07 0)
(0.000999991 -1.6025e-07 0)
(0.000999989 -1.94603e-07 0)
(0.000999987 -2.21222e-07 0)
(0.000999984 -2.71155e-07 0)
(0.000999982 -2.9822e-07 0)
(0.000999978 -3.74345e-07 0)
(0.000999976 -3.92033e-07 0)
(0.00099997 -5.15497e-07 0)
(0.001 -3.60434e-09 0)
(0.001 -1.10286e-08 0)
(0.000999999 -1.85852e-08 0)
(0.000999998 -2.64704e-08 0)
(0.000999997 -3.45116e-08 0)
(0.000999996 -4.33599e-08 0)
(0.000999994 -5.27576e-08 0)
(0.000999992 -6.42154e-08 0)
(0.000999989 -7.67561e-08 0)
(0.000999986 -9.3209e-08 0)
(0.000999983 -1.10408e-07 0)
(0.000999978 -1.34175e-07 0)
(0.000999974 -1.56405e-07 0)
(0.000999967 -1.9037e-07 0)
(0.000999961 -2.16579e-07 0)
(0.000999952 -2.66257e-07 0)
(0.000999946 -2.92999e-07 0)
(0.000999934 -3.69091e-07 0)
(0.00099993 -3.86554e-07 0)
(0.000999911 -5.10561e-07 0)
(0.001 -3.42043e-09 0)
(0.001 -1.05208e-08 0)
(0.000999999 -1.7769e-08 0)
(0.000999997 -2.53901e-08 0)
(0.000999996 -3.31248e-08 0)
(0.000999993 -4.1528e-08 0)
(0.00099999 -5.03151e-08 0)
(0.000999987 -6.09982e-08 0)
(0.000999983 -7.2612e-08 0)
(0.000999977 -8.79892e-08 0)
(0.000999972 -1.03985e-07 0)
(0.000999964 -1.26327e-07 0)
(0.000999956 -1.47034e-07 0)
(0.000999945 -1.79211e-07 0)
(0.000999936 -2.03664e-07 0)
(0.000999921 -2.51281e-07 0)
(0.000999911 -2.76391e-07 0)
(0.000999889 -3.50473e-07 0)
(0.000999882 -3.66903e-07 0)
(0.000999852 -4.88934e-07 0)
(0.001 -3.12683e-09 0)
(0.000999999 -9.6025e-09 0)
(0.000999998 -1.62743e-08 0)
(0.000999996 -2.35542e-08 0)
(0.000999994 -3.12379e-08 0)
(0.000999991 -3.99013e-08 0)
(0.000999987 -4.91235e-08 0)
(0.000999982 -6.03333e-08 0)
(0.000999977 -7.23916e-08 0)
(0.00099997 -8.80981e-08 0)
(0.000999962 -1.04256e-07 0)
(0.000999951 -1.26627e-07 0)
(0.000999941 -1.47189e-07 0)
(0.000999926 -1.79239e-07 0)
(0.000999913 -2.03407e-07 0)
(0.000999891 -2.50905e-07 0)
(0.000999878 -2.75733e-07 0)
(0.000999847 -3.5016e-07 0)
(0.000999839 -3.6671e-07 0)
(0.000999792 -4.90495e-07 0)
(0.001 -2.82291e-09 0)
(0.000999999 -8.29222e-09 0)
(0.000999997 -1.33369e-08 0)
(0.000999995 -1.82424e-08 0)
(0.000999991 -2.28417e-08 0)
(0.000999987 -2.79345e-08 0)
(0.000999982 -3.32248e-08 0)
(0.000999975 -4.03101e-08 0)
(0.000999968 -4.80858e-08 0)
(0.000999959 -5.93174e-08 0)
(0.000999949 -7.08953e-08 0)
(0.000999936 -8.84627e-08 0)
(0.000999923 -1.04108e-07 0)
(0.000999904 -1.30926e-07 0)
(0.000999887 -1.49981e-07 0)
(0.000999859 -1.92013e-07 0)
(0.000999841 -2.11983e-07 0)
(0.000999802 -2.81069e-07 0)
(0.000999787 -2.9388e-07 0)
(0.000999731 -4.13327e-07 0)
(0.001 -3.08638e-09 0)
(0.001 -9.726e-09 0)
(0.000999999 -1.70306e-08 0)
(0.000999997 -2.52399e-08 0)
(0.000999994 -3.3923e-08 0)
(0.00099999 -4.34121e-08 0)
(0.000999984 -5.31231e-08 0)
(0.000999977 -6.44181e-08 0)
(0.000999969 -7.61295e-08 0)
(0.000999958 -9.08281e-08 0)
(0.000999947 -1.05418e-07 0)
(0.00099993 -1.2557e-07 0)
(0.000999915 -1.43363e-07 0)
(0.000999891 -1.71933e-07 0)
(0.000999872 -1.92367e-07 0)
(0.000999837 -2.35544e-07 0)
(0.000999817 -2.56516e-07 0)
(0.000999764 -3.26943e-07 0)
(0.000999752 -3.41128e-07 0)
(0.00099967 -4.63113e-07 0)
(0.001 -4.14741e-10 0)
(0.000999998 -6.67018e-10 0)
(0.000999995 -2.72477e-10 0)
(0.00099999 3.28588e-10 0)
(0.000999985 1.07408e-09 0)
(0.00099998 1.3141e-09 0)
(0.000999973 1.28218e-09 0)
(0.000999965 -1.40041e-10 0)
(0.000999955 -2.00051e-09 0)
(0.000999943 -6.6534e-09 0)
(0.00099993 -1.10194e-08 0)
(0.000999912 -2.06225e-08 0)
(0.000999895 -2.77496e-08 0)
(0.000999868 -4.51937e-08 0)
(0.000999845 -5.45921e-08 0)
(0.000999806 -8.60993e-08 0)
(0.000999779 -9.61333e-08 0)
(0.00099972 -1.55024e-07 0)
(0.000999698 -1.60531e-07 0)
(0.000999611 -2.74716e-07 0)
(0.001 -4.10911e-09 0)
(0.001 -1.34014e-08 0)
(0.001 -2.36076e-08 0)
(0.000999998 -3.4288e-08 0)
(0.000999995 -4.47883e-08 0)
(0.000999989 -5.52881e-08 0)
(0.000999983 -6.5781e-08 0)
(0.000999973 -7.70602e-08 0)
(0.000999964 -8.8427e-08 0)
(0.00099995 -1.02119e-07 0)
(0.000999936 -1.15071e-07 0)
(0.000999915 -1.32518e-07 0)
(0.000999897 -1.46968e-07 0)
(0.000999865 -1.70734e-07 0)
(0.000999841 -1.85931e-07 0)
(0.000999791 -2.21948e-07 0)
(0.000999766 -2.36137e-07 0)
(0.000999687 -2.97782e-07 0)
(0.000999671 -3.05813e-07 0)
(0.000999539 -4.21231e-07 0)
(0.001 3.99041e-09 0)
(0.000999996 1.20517e-08 0)
(0.000999991 2.01351e-08 0)
(0.000999986 2.779e-08 0)
(0.000999982 3.49552e-08 0)
(0.000999975 4.13425e-08 0)
(0.000999968 4.76423e-08 0)
(0.000999959 5.28622e-08 0)
(0.000999948 5.83443e-08 0)
(0.000999934 6.22359e-08 0)
(0.00099992 6.68807e-08 0)
(0.000999898 6.84828e-08 0)
(0.000999878 7.25459e-08 0)
(0.000999845 6.96926e-08 0)
(0.00099982 7.38223e-08 0)
(0.000999768 6.14542e-08 0)
(0.000999738 6.69863e-08 0)
(0.000999654 3.16692e-08 0)
(0.000999629 3.98484e-08 0)
(0.000999496 -5.42871e-08 0)
(0.001 -8.79954e-09 0)
(0.001 -2.39718e-08 0)
(0.001 -3.63224e-08 0)
(0.000999997 -4.70479e-08 0)
(0.000999992 -5.70769e-08 0)
(0.000999986 -6.75167e-08 0)
(0.000999978 -7.76469e-08 0)
(0.000999968 -8.88712e-08 0)
(0.000999958 -9.95286e-08 0)
(0.000999942 -1.11615e-07 0)
(0.000999929 -1.22559e-07 0)
(0.000999904 -1.36278e-07 0)
(0.000999886 -1.46857e-07 0)
(0.000999847 -1.63807e-07 0)
(0.000999827 -1.72665e-07 0)
(0.00099976 -1.96772e-07 0)
(0.000999742 -2.01029e-07 0)
(0.000999623 -2.43133e-07 0)
(0.000999618 -2.38898e-07 0)
(0.000999394 -3.31494e-07 0)
)
;

boundaryField
{
    sides
    {
        type            slip;
    }
    inlet
    {
        type            fixedValue;
        value           uniform (0.001 0 0);
    }
    outlet
    {
        type            zeroGradient;
    }
    frontAndBack
    {
        type            empty;
    }
}


// ************************************************************************* //
