/*--------------------------------*- C++ -*----------------------------------*\
  =========                 |
  \\      /  F ield         | OpenFOAM: The Open Source CFD Toolbox
   \\    /   O peration     | Website:  https://openfoam.org
    \\  /    A nd           | Version:  7
     \\/     M anipulation  |
\*---------------------------------------------------------------------------*/
FoamFile
{
    version     2.0;
    format      ascii;
    class       surfaceScalarField;
    location    "55";
    object      phi;
}
// * * * * * * * * * * * * * * * * * * * * * * * * * * * * * * * * * * * * * //

dimensions      [0 4 -1 0 0 0 0];

internalField   nonuniform List<scalar> 
760
(
4.99999e-06
9.72858e-12
4.99999e-06
-5.01481e-12
5.00001e-06
-1.39843e-11
5.00003e-06
-2.09086e-11
5.00005e-06
-2.77749e-11
5.00009e-06
-3.45448e-11
5.00013e-06
-4.80175e-11
5.00018e-06
-5.79161e-11
5.00024e-06
-6.27166e-11
5.00032e-06
-7.78236e-11
5.00041e-06
-8.98602e-11
5.00052e-06
-1.14036e-10
5.00065e-06
-1.27453e-10
5.00082e-06
-1.68928e-10
5.001e-06
-1.79408e-10
5.00126e-06
-2.58451e-10
5.00151e-06
-2.57192e-10
5.00195e-06
-4.32384e-10
5.00236e-06
-4.13741e-10
-8.90154e-10
5.00002e-06
-1.21947e-11
5.00004e-06
-2.04194e-11
5.00005e-06
-3.14242e-11
5.00008e-06
-4.43616e-11
5.0001e-06
-5.70545e-11
5.00014e-06
-7.09761e-11
5.00018e-06
-8.57633e-11
5.00023e-06
-1.04184e-10
5.00029e-06
-1.2254e-10
5.00036e-06
-1.51987e-10
5.00045e-06
-1.76255e-10
5.00056e-06
-2.22159e-10
5.00068e-06
-2.51567e-10
5.00084e-06
-3.26446e-10
5.00102e-06
-3.5668e-10
5.00125e-06
-4.89264e-10
5.0015e-06
-5.11274e-10
5.00184e-06
-7.69241e-10
5.00218e-06
-7.59352e-10
-1.25949e-09
4.99999e-06
-5.49666e-12
4.99999e-06
-2.24457e-11
5e-06
-4.07229e-11
5.00002e-06
-6.03131e-11
5.00004e-06
-8.0073e-11
5.00007e-06
-1.01792e-10
5.00011e-06
-1.2392e-10
5.00016e-06
-1.51479e-10
5.00021e-06
-1.81059e-10
5.00028e-06
-2.21964e-10
5.00037e-06
-2.61207e-10
5.00047e-06
-3.23587e-10
5.00059e-06
-3.73982e-10
5.00073e-06
-4.71168e-10
5.00091e-06
-5.30022e-10
5.00111e-06
-6.91651e-10
5.00135e-06
-7.50992e-10
5.00162e-06
-1.04318e-09
5.00195e-06
-1.08205e-09
-1.68518e-09
5.00001e-06
-1.3636e-11
5.00002e-06
-3.61263e-11
5.00004e-06
-5.84465e-11
5.00006e-06
-8.2507e-11
5.00009e-06
-1.06671e-10
5.00012e-06
-1.34071e-10
5.00015e-06
-1.61407e-10
5.0002e-06
-1.97165e-10
5.00025e-06
-2.33987e-10
5.00032e-06
-2.86082e-10
5.00039e-06
-3.36835e-10
5.00048e-06
-4.15689e-10
5.00059e-06
-4.8109e-10
5.00072e-06
-6.01283e-10
5.00087e-06
-6.78442e-10
5.00104e-06
-8.7143e-10
5.00124e-06
-9.50937e-10
5.00148e-06
-1.2826e-09
5.00173e-06
-1.33012e-09
-1.89274e-09
5e-06
-1.2757e-11
5e-06
-3.96311e-11
5.00001e-06
-6.67242e-11
5.00002e-06
-9.57058e-11
5.00004e-06
-1.25371e-10
5.00007e-06
-1.5863e-10
5.0001e-06
-1.93124e-10
5.00013e-06
-2.35872e-10
5.00018e-06
-2.81272e-10
5.00024e-06
-3.4277e-10
5.0003e-06
-4.05271e-10
5.00038e-06
-4.9622e-10
5.00048e-06
-5.77367e-10
5.00059e-06
-7.12855e-10
5.00072e-06
-8.09965e-10
5.00087e-06
-1.01988e-09
5.00104e-06
-1.12118e-09
5.00122e-06
-1.46477e-09
5.00142e-06
-1.53143e-09
-2.1565e-09
5e-06
-1.4909e-11
5.00001e-06
-4.65794e-11
5.00002e-06
-7.82895e-11
5.00004e-06
-1.11581e-10
5.00005e-06
-1.45431e-10
5.00008e-06
-1.82746e-10
5.00011e-06
-2.21819e-10
5.00014e-06
-2.69903e-10
5.00018e-06
-3.2155e-10
5.00023e-06
-3.91177e-10
5.00028e-06
-4.62388e-10
5.00035e-06
-5.64538e-10
5.00043e-06
-6.57016e-10
5.00053e-06
-8.06858e-10
5.00063e-06
-9.16565e-10
5.00075e-06
-1.14329e-09
5.00089e-06
-1.25677e-09
5.00104e-06
-1.61967e-09
5.00121e-06
-1.69541e-09
-2.286e-09
5e-06
-1.67585e-11
5.00001e-06
-5.12128e-11
5.00001e-06
-8.59578e-11
5.00002e-06
-1.21984e-10
5.00004e-06
-1.59116e-10
5.00005e-06
-2.00123e-10
5.00008e-06
-2.43476e-10
5.0001e-06
-2.9628e-10
5.00013e-06
-3.53603e-10
5.00017e-06
-4.29334e-10
5.00022e-06
-5.07776e-10
5.00027e-06
-6.17884e-10
5.00033e-06
-7.1979e-10
5.0004e-06
-8.7925e-10
5.00049e-06
-1.00009e-09
5.00058e-06
-1.23718e-09
5.00069e-06
-1.36171e-09
5.0008e-06
-1.73081e-09
5.00091e-06
-1.81066e-09
-2.43425e-09
5e-06
-1.7884e-11
5e-06
-5.43335e-11
5.00001e-06
-9.12399e-11
5.00002e-06
-1.29971e-10
5.00003e-06
-1.69707e-10
5.00004e-06
-2.13546e-10
5.00006e-06
-2.59807e-10
5.00008e-06
-3.15942e-10
5.0001e-06
-3.77088e-10
5.00013e-06
-4.5729e-10
5.00016e-06
-5.40967e-10
5.0002e-06
-6.57184e-10
5.00024e-06
-7.65507e-10
5.0003e-06
-9.32232e-10
5.00036e-06
-1.06012e-09
5.00042e-06
-1.30486e-09
5.0005e-06
-1.43539e-09
5.00058e-06
-1.81195e-09
5.00067e-06
-1.8987e-09
-2.50765e-09
5e-06
-1.85039e-11
5e-06
-5.62956e-11
5.00001e-06
-9.45968e-11
5.00001e-06
-1.34958e-10
5.00002e-06
-1.76233e-10
5.00003e-06
-2.21685e-10
5.00003e-06
-2.69661e-10
5.00005e-06
-3.27837e-10
5.00006e-06
-3.91331e-10
5.00008e-06
-4.74276e-10
5.0001e-06
-5.61143e-10
5.00012e-06
-6.80872e-10
5.00015e-06
-7.92961e-10
5.00018e-06
-9.63805e-10
5.00022e-06
-1.09589e-09
5.00025e-06
-1.34486e-09
5.0003e-06
-1.47926e-09
5.00035e-06
-1.85908e-09
5.00039e-06
-1.94606e-09
-2.56345e-09
5e-06
-1.86988e-11
5e-06
-5.69334e-11
5e-06
-9.57569e-11
5e-06
-1.36618e-10
5.00001e-06
-1.78441e-10
5.00001e-06
-2.24448e-10
5.00001e-06
-2.73065e-10
5.00002e-06
-3.31929e-10
5.00002e-06
-3.96159e-10
5.00003e-06
-4.79975e-10
5.00003e-06
-5.67828e-10
5.00004e-06
-6.88664e-10
5.00005e-06
-8.02121e-10
5.00006e-06
-9.74374e-10
5.00007e-06
-1.10798e-09
5.00009e-06
-1.35835e-09
5.0001e-06
-1.49406e-09
5.00012e-06
-1.87458e-09
5.00013e-06
-1.96307e-09
-2.57945e-09
5e-06
-1.84544e-11
5e-06
-5.62188e-11
5e-06
-9.462e-11
5e-06
-1.34967e-10
4.99999e-06
-1.76321e-10
4.99999e-06
-2.21758e-10
4.99999e-06
-2.69779e-10
4.99998e-06
-3.27945e-10
4.99998e-06
-3.91371e-10
4.99997e-06
-4.74379e-10
4.99997e-06
-5.61217e-10
4.99996e-06
-6.8094e-10
4.99995e-06
-7.93149e-10
4.99994e-06
-9.63985e-10
4.99993e-06
-1.09593e-09
4.99991e-06
-1.34478e-09
4.9999e-06
-1.4792e-09
4.99988e-06
-1.85892e-09
4.99987e-06
-1.94583e-09
-2.56321e-09
5e-06
-1.78068e-11
5e-06
-5.43351e-11
4.99999e-06
-9.12411e-11
4.99999e-06
-1.2998e-10
4.99998e-06
-1.69759e-10
4.99997e-06
-2.13609e-10
4.99997e-06
-2.59887e-10
4.99995e-06
-3.16048e-10
4.99994e-06
-3.77083e-10
4.99992e-06
-4.57347e-10
4.9999e-06
-5.41077e-10
4.99988e-06
-6.57248e-10
4.99985e-06
-7.65632e-10
4.99982e-06
-9.32403e-10
4.99978e-06
-1.06023e-09
4.99974e-06
-1.3048e-09
4.9997e-06
-1.43528e-09
4.99965e-06
-1.81168e-09
4.99961e-06
-1.89835e-09
-2.50732e-09
5e-06
-1.67655e-11
5e-06
-5.12639e-11
4.99999e-06
-8.59036e-11
4.99998e-06
-1.22034e-10
4.99997e-06
-1.59043e-10
4.99996e-06
-2.00128e-10
4.99994e-06
-2.43388e-10
4.99992e-06
-2.96286e-10
4.9999e-06
-3.5352e-10
4.99987e-06
-4.29182e-10
4.99984e-06
-5.07793e-10
4.9998e-06
-6.17916e-10
4.99976e-06
-7.19774e-10
4.9997e-06
-8.79263e-10
4.99964e-06
-1.00017e-09
4.99958e-06
-1.23714e-09
4.9995e-06
-1.36163e-09
4.99942e-06
-1.73057e-09
4.99933e-06
-1.81041e-09
-2.43385e-09
5e-06
-1.49952e-11
4.99999e-06
-4.65929e-11
4.99999e-06
-7.82841e-11
4.99998e-06
-1.11584e-10
4.99996e-06
-1.45302e-10
4.99995e-06
-1.82742e-10
4.99992e-06
-2.21679e-10
4.9999e-06
-2.69834e-10
4.99987e-06
-3.21585e-10
4.99983e-06
-3.90956e-10
4.99978e-06
-4.6219e-10
4.99973e-06
-5.64434e-10
4.99967e-06
-6.56898e-10
4.9996e-06
-8.06712e-10
4.99951e-06
-9.16534e-10
4.99942e-06
-1.14323e-09
4.99931e-06
-1.25674e-09
4.9992e-06
-1.61949e-09
4.99909e-06
-1.69528e-09
-2.28563e-09
5e-06
-1.28219e-11
4.99999e-06
-3.95832e-11
4.99998e-06
-6.67479e-11
4.99996e-06
-9.56393e-11
4.99994e-06
-1.25462e-10
4.99992e-06
-1.58574e-10
4.99989e-06
-1.93145e-10
4.99986e-06
-2.35741e-10
4.99982e-06
-2.81472e-10
4.99977e-06
-3.42851e-10
4.99972e-06
-4.05119e-10
4.99965e-06
-4.96046e-10
4.99957e-06
-5.77234e-10
4.99948e-06
-7.12657e-10
4.99937e-06
-8.09872e-10
4.99925e-06
-1.01981e-09
4.99911e-06
-1.12121e-09
4.99896e-06
-1.46465e-09
4.99879e-06
-1.53141e-09
-2.15613e-09
5e-06
-1.36151e-11
5e-06
-3.60551e-11
4.99999e-06
-5.84708e-11
4.99998e-06
-8.24863e-11
4.99996e-06
-1.06896e-10
4.99994e-06
-1.3381e-10
4.9999e-06
-1.61909e-10
4.99987e-06
-1.97026e-10
4.99982e-06
-2.34071e-10
4.99976e-06
-2.86379e-10
4.9997e-06
-3.36921e-10
4.99962e-06
-4.15591e-10
4.99952e-06
-4.80988e-10
4.99941e-06
-6.01073e-10
4.99928e-06
-6.78289e-10
4.99913e-06
-8.71254e-10
4.99896e-06
-9.50897e-10
4.99878e-06
-1.28239e-09
4.99858e-06
-1.33001e-09
-1.89228e-09
4.99999e-06
-5.42764e-12
4.99998e-06
-2.2465e-11
4.99996e-06
-4.07711e-11
4.99994e-06
-6.04091e-11
4.99991e-06
-8.01066e-11
4.99988e-06
-1.01724e-10
4.99985e-06
-1.24355e-10
4.9998e-06
-1.52044e-10
4.99975e-06
-1.80925e-10
4.99969e-06
-2.2217e-10
4.99961e-06
-2.61474e-10
4.99952e-06
-3.23686e-10
4.99941e-06
-3.74031e-10
4.99928e-06
-4.71089e-10
4.99914e-06
-5.2995e-10
4.99896e-06
-6.91469e-10
4.99876e-06
-7.50938e-10
4.99852e-06
-1.04296e-09
4.99827e-06
-1.08196e-09
-1.6848e-09
5.00001e-06
-1.21188e-11
5.00001e-06
-2.05868e-11
5e-06
-3.14604e-11
4.99998e-06
-4.4429e-11
4.99996e-06
-5.67102e-11
4.99993e-06
-7.1253e-11
4.99989e-06
-8.4323e-11
4.99984e-06
-1.04831e-10
4.99979e-06
-1.22426e-10
4.99972e-06
-1.51818e-10
4.99963e-06
-1.76357e-10
4.99953e-06
-2.22269e-10
4.99941e-06
-2.51704e-10
4.99927e-06
-3.26461e-10
4.99909e-06
-3.56689e-10
4.99889e-06
-4.89048e-10
4.99865e-06
-5.1118e-10
4.99838e-06
-7.68918e-10
4.99805e-06
-7.59202e-10
-1.259e-09
4.99998e-06
9.76438e-12
4.99996e-06
-5.18601e-12
4.99995e-06
-1.39747e-11
4.99992e-06
-2.07174e-11
4.9999e-06
-2.78246e-11
4.99986e-06
-2.93855e-11
4.99982e-06
-3.3875e-11
4.99977e-06
-4.94978e-11
4.99971e-06
-6.21623e-11
4.99964e-06
-7.75163e-11
4.99955e-06
-8.98546e-11
4.99944e-06
-1.14224e-10
4.99932e-06
-1.27727e-10
4.99916e-06
-1.69135e-10
4.99899e-06
-1.79554e-10
4.99875e-06
-2.58446e-10
4.9985e-06
-2.57213e-10
4.99816e-06
-4.32328e-10
4.99782e-06
-4.13765e-10
-8.90141e-10
5.00001e-06
5.00001e-06
4.99999e-06
4.99997e-06
4.99994e-06
4.99991e-06
4.99987e-06
4.99982e-06
4.99975e-06
4.99968e-06
4.99959e-06
4.99947e-06
4.99935e-06
4.99918e-06
4.999e-06
4.99874e-06
4.99848e-06
4.99805e-06
4.99764e-06
)
;

boundaryField
{
    sides
    {
        type            calculated;
        value           uniform 0;
    }
    inlet
    {
        type            calculated;
        value           nonuniform List<scalar> 
20
(
-5e-06
-5e-06
-5e-06
-5e-06
-5e-06
-5e-06
-5e-06
-5e-06
-5e-06
-5e-06
-5e-06
-5e-06
-5e-06
-5e-06
-5e-06
-5e-06
-5e-06
-5e-06
-5e-06
-5e-06
)
;
    }
    outlet
    {
        type            calculated;
        value           nonuniform List<scalar> 
20
(
5.00325e-06
5.00255e-06
5.00237e-06
5.00194e-06
5.00169e-06
5.00134e-06
5.00106e-06
5.00074e-06
5.00045e-06
5.00015e-06
4.99985e-06
4.99955e-06
4.99926e-06
4.99894e-06
4.99866e-06
4.99831e-06
4.99806e-06
4.99763e-06
4.99745e-06
4.99675e-06
)
;
    }
    frontAndBack
    {
        type            empty;
        value           nonuniform 0();
    }
}


// ************************************************************************* //
