/*--------------------------------*- C++ -*----------------------------------*\
  =========                 |
  \\      /  F ield         | OpenFOAM: The Open Source CFD Toolbox
   \\    /   O peration     | Website:  https://openfoam.org
    \\  /    A nd           | Version:  7
     \\/     M anipulation  |
\*---------------------------------------------------------------------------*/
FoamFile
{
    version     2.0;
    format      ascii;
    class       surfaceScalarField;
    location    "55";
    object      phi_0;
}
// * * * * * * * * * * * * * * * * * * * * * * * * * * * * * * * * * * * * * //

dimensions      [0 4 -1 0 0 0 0];

internalField   nonuniform List<scalar> 
760
(
4.99999e-06
9.58808e-12
4.99999e-06
-5.03417e-12
5.00001e-06
-1.38768e-11
5.00003e-06
-2.0824e-11
5.00005e-06
-2.7884e-11
5.00009e-06
-3.70797e-11
5.00013e-06
-3.85947e-11
5.00018e-06
-4.77226e-11
5.00024e-06
-6.19817e-11
5.00032e-06
-7.77169e-11
5.00041e-06
-8.97857e-11
5.00052e-06
-1.14073e-10
5.00065e-06
-1.27572e-10
5.00082e-06
-1.69058e-10
5.001e-06
-1.79494e-10
5.00126e-06
-2.58442e-10
5.00151e-06
-2.5709e-10
5.00195e-06
-4.32255e-10
5.00236e-06
-4.13524e-10
-8.90053e-10
5.00002e-06
-1.23751e-11
5.00004e-06
-2.04909e-11
5.00005e-06
-3.13516e-11
5.00008e-06
-4.42766e-11
5.0001e-06
-5.67677e-11
5.00014e-06
-7.10649e-11
5.00018e-06
-8.47506e-11
5.00023e-06
-1.03521e-10
5.00029e-06
-1.2259e-10
5.00036e-06
-1.51919e-10
5.00045e-06
-1.76347e-10
5.00056e-06
-2.22387e-10
5.00068e-06
-2.5184e-10
5.00084e-06
-3.26654e-10
5.00102e-06
-3.56789e-10
5.00125e-06
-4.89212e-10
5.0015e-06
-5.11066e-10
5.00184e-06
-7.69001e-10
5.00218e-06
-7.58931e-10
-1.25929e-09
4.99999e-06
-5.86569e-12
4.99999e-06
-2.24923e-11
5e-06
-4.06707e-11
5.00002e-06
-6.02124e-11
5.00004e-06
-7.97361e-11
5.00007e-06
-1.01578e-10
5.00011e-06
-1.23114e-10
5.00016e-06
-1.51714e-10
5.00021e-06
-1.80926e-10
5.00028e-06
-2.21939e-10
5.00037e-06
-2.61514e-10
5.00047e-06
-3.24001e-10
5.00059e-06
-3.74389e-10
5.00073e-06
-4.71432e-10
5.00091e-06
-5.30122e-10
5.00111e-06
-6.9152e-10
5.00135e-06
-7.5064e-10
5.00162e-06
-1.04278e-09
5.00194e-06
-1.08139e-09
-1.68488e-09
5.00001e-06
-1.36608e-11
5.00002e-06
-3.61932e-11
5.00004e-06
-5.84396e-11
5.00006e-06
-8.24083e-11
5.00009e-06
-1.06351e-10
5.00012e-06
-1.33555e-10
5.00015e-06
-1.61058e-10
5.0002e-06
-1.96841e-10
5.00025e-06
-2.33644e-10
5.00031e-06
-2.86228e-10
5.00039e-06
-3.37275e-10
5.00048e-06
-4.16178e-10
5.00059e-06
-4.81569e-10
5.00072e-06
-6.01574e-10
5.00087e-06
-6.78527e-10
5.00105e-06
-8.71245e-10
5.00124e-06
-9.50476e-10
5.00148e-06
-1.2821e-09
5.00173e-06
-1.32931e-09
-1.89238e-09
5e-06
-1.27818e-11
5e-06
-3.96624e-11
5.00001e-06
-6.67151e-11
5.00002e-06
-9.55134e-11
5.00004e-06
-1.2508e-10
5.00007e-06
-1.57953e-10
5.0001e-06
-1.92598e-10
5.00013e-06
-2.35267e-10
5.00018e-06
-2.80981e-10
5.00024e-06
-3.4292e-10
5.0003e-06
-4.05624e-10
5.00038e-06
-4.9665e-10
5.00048e-06
-5.77827e-10
5.00059e-06
-7.13118e-10
5.00072e-06
-8.10023e-10
5.00087e-06
-1.01966e-09
5.00104e-06
-1.12065e-09
5.00122e-06
-1.4642e-09
5.00142e-06
-1.5305e-09
-2.15607e-09
5e-06
-1.49855e-11
5.00001e-06
-4.66175e-11
5.00002e-06
-7.82932e-11
5.00004e-06
-1.11329e-10
5.00006e-06
-1.44981e-10
5.00008e-06
-1.82e-10
5.00011e-06
-2.21027e-10
5.00014e-06
-2.69159e-10
5.00018e-06
-3.2124e-10
5.00023e-06
-3.91227e-10
5.00028e-06
-4.62681e-10
5.00035e-06
-5.65035e-10
5.00043e-06
-6.57559e-10
5.00053e-06
-8.07161e-10
5.00063e-06
-9.16652e-10
5.00075e-06
-1.14304e-09
5.00089e-06
-1.25614e-09
5.00104e-06
-1.61897e-09
5.00121e-06
-1.69427e-09
-2.28548e-09
5e-06
-1.68432e-11
5.00001e-06
-5.12608e-11
5.00001e-06
-8.59036e-11
5.00002e-06
-1.21738e-10
5.00004e-06
-1.58537e-10
5.00005e-06
-1.99333e-10
5.00008e-06
-2.42566e-10
5.0001e-06
-2.95497e-10
5.00013e-06
-3.53186e-10
5.00017e-06
-4.29229e-10
5.00022e-06
-5.08047e-10
5.00027e-06
-6.18417e-10
5.00033e-06
-7.2035e-10
5.0004e-06
-8.79586e-10
5.00049e-06
-1.00024e-09
5.00058e-06
-1.23698e-09
5.00069e-06
-1.36108e-09
5.0008e-06
-1.73008e-09
5.00091e-06
-1.80942e-09
-2.43368e-09
5e-06
-1.7933e-11
5e-06
-5.44247e-11
5.00001e-06
-9.11785e-11
5.00002e-06
-1.29701e-10
5.00003e-06
-1.69086e-10
5.00004e-06
-2.12685e-10
5.00006e-06
-2.58811e-10
5.00008e-06
-3.15128e-10
5.0001e-06
-3.76584e-10
5.00013e-06
-4.572e-10
5.00016e-06
-5.41316e-10
5.0002e-06
-6.57734e-10
5.00024e-06
-7.66106e-10
5.0003e-06
-9.32652e-10
5.00036e-06
-1.06033e-09
5.00042e-06
-1.30466e-09
5.0005e-06
-1.43472e-09
5.00058e-06
-1.81113e-09
5.00067e-06
-1.89732e-09
-2.50701e-09
5e-06
-1.85256e-11
5e-06
-5.6394e-11
5.00001e-06
-9.45691e-11
5.00001e-06
-1.34651e-10
5.00002e-06
-1.75577e-10
5.00003e-06
-2.20765e-10
5.00003e-06
-2.68627e-10
5.00005e-06
-3.26999e-10
5.00006e-06
-3.90798e-10
5.00008e-06
-4.7421e-10
5.0001e-06
-5.61491e-10
5.00012e-06
-6.81385e-10
5.00015e-06
-7.9358e-10
5.00018e-06
-9.64264e-10
5.00022e-06
-1.09608e-09
5.00025e-06
-1.3446e-09
5.0003e-06
-1.47854e-09
5.00035e-06
-1.85824e-09
5.00039e-06
-1.94465e-09
-2.56279e-09
5e-06
-1.87334e-11
5e-06
-5.70224e-11
5e-06
-9.57227e-11
5e-06
-1.36293e-10
5.00001e-06
-1.77763e-10
5.00001e-06
-2.23497e-10
5.00001e-06
-2.72014e-10
5.00002e-06
-3.31043e-10
5.00002e-06
-3.95612e-10
5.00003e-06
-4.79886e-10
5.00003e-06
-5.68155e-10
5.00004e-06
-6.89201e-10
5.00005e-06
-8.02741e-10
5.00006e-06
-9.74779e-10
5.00007e-06
-1.10812e-09
5.00009e-06
-1.35805e-09
5.0001e-06
-1.4933e-09
5.00012e-06
-1.87371e-09
5.00013e-06
-1.96163e-09
-2.57878e-09
5e-06
-1.85164e-11
5e-06
-5.62932e-11
5e-06
-9.45651e-11
5e-06
-1.34642e-10
4.99999e-06
-1.7565e-10
4.99999e-06
-2.20811e-10
4.99999e-06
-2.68744e-10
4.99998e-06
-3.27036e-10
4.99998e-06
-3.90853e-10
4.99997e-06
-4.7429e-10
4.99997e-06
-5.61546e-10
4.99996e-06
-6.8153e-10
4.99995e-06
-7.93747e-10
4.99994e-06
-9.64281e-10
4.99993e-06
-1.09599e-09
4.99991e-06
-1.34446e-09
4.9999e-06
-1.47843e-09
4.99988e-06
-1.85808e-09
4.99987e-06
-1.94445e-09
-2.56257e-09
5e-06
-1.78727e-11
5e-06
-5.43815e-11
4.99999e-06
-9.12037e-11
4.99999e-06
-1.29675e-10
4.99998e-06
-1.69155e-10
4.99997e-06
-2.12719e-10
4.99997e-06
-2.58921e-10
4.99995e-06
-3.1517e-10
4.99994e-06
-3.76598e-10
4.99992e-06
-4.57292e-10
4.9999e-06
-5.41397e-10
4.99988e-06
-6.57834e-10
4.99985e-06
-7.66264e-10
4.99982e-06
-9.32738e-10
4.99978e-06
-1.06029e-09
4.99974e-06
-1.30447e-09
4.9997e-06
-1.43453e-09
4.99965e-06
-1.81088e-09
4.99961e-06
-1.89704e-09
-2.50671e-09
5e-06
-1.68031e-11
5e-06
-5.13296e-11
4.99999e-06
-8.58822e-11
4.99998e-06
-1.21746e-10
4.99997e-06
-1.58542e-10
4.99996e-06
-1.99322e-10
4.99994e-06
-2.42542e-10
4.99992e-06
-2.95519e-10
4.9999e-06
-3.53072e-10
4.99987e-06
-4.29209e-10
4.99984e-06
-5.08138e-10
4.9998e-06
-6.18427e-10
4.99976e-06
-7.20377e-10
4.9997e-06
-8.79651e-10
4.99964e-06
-1.00029e-09
4.99958e-06
-1.23686e-09
4.9995e-06
-1.36096e-09
4.99942e-06
-1.72985e-09
4.99933e-06
-1.80922e-09
-2.4333e-09
5e-06
-1.5019e-11
4.99999e-06
-4.6685e-11
4.99999e-06
-7.82558e-11
4.99998e-06
-1.11402e-10
4.99996e-06
-1.44842e-10
4.99995e-06
-1.82e-10
4.99992e-06
-2.20866e-10
4.9999e-06
-2.69195e-10
4.99987e-06
-3.21114e-10
4.99983e-06
-3.90979e-10
4.99978e-06
-4.62612e-10
4.99973e-06
-5.64972e-10
4.99967e-06
-6.5749e-10
4.9996e-06
-8.07129e-10
4.99951e-06
-9.16711e-10
4.99942e-06
-1.14302e-09
4.99931e-06
-1.25612e-09
4.9992e-06
-1.61878e-09
4.99909e-06
-1.69412e-09
-2.2851e-09
5e-06
-1.28569e-11
4.99999e-06
-3.96571e-11
4.99998e-06
-6.66982e-11
4.99996e-06
-9.55085e-11
4.99994e-06
-1.24985e-10
4.99992e-06
-1.58074e-10
4.99989e-06
-1.92439e-10
4.99986e-06
-2.35308e-10
4.99982e-06
-2.81148e-10
4.99977e-06
-3.42751e-10
4.99972e-06
-4.0541e-10
4.99965e-06
-4.96504e-10
4.99957e-06
-5.77726e-10
4.99947e-06
-7.13015e-10
4.99937e-06
-8.10059e-10
4.99925e-06
-1.01968e-09
4.99911e-06
-1.12072e-09
4.99896e-06
-1.46404e-09
4.99879e-06
-1.5304e-09
-2.15567e-09
5e-06
-1.37204e-11
5e-06
-3.61203e-11
4.99999e-06
-5.84427e-11
4.99998e-06
-8.23447e-11
4.99996e-06
-1.06495e-10
4.99994e-06
-1.33498e-10
4.9999e-06
-1.61106e-10
4.99987e-06
-1.96674e-10
4.99982e-06
-2.33953e-10
4.99976e-06
-2.8636e-10
4.9997e-06
-3.37144e-10
4.99962e-06
-4.15989e-10
4.99952e-06
-4.81419e-10
4.99941e-06
-6.01374e-10
4.99928e-06
-6.78445e-10
4.99913e-06
-8.71136e-10
4.99896e-06
-9.50467e-10
4.99878e-06
-1.28187e-09
4.99858e-06
-1.32915e-09
-1.89187e-09
4.99999e-06
-5.88522e-12
4.99998e-06
-2.24598e-11
4.99996e-06
-4.07278e-11
4.99994e-06
-6.02414e-11
4.99991e-06
-7.99581e-11
4.99988e-06
-1.01287e-10
4.99985e-06
-1.24115e-10
4.9998e-06
-1.51413e-10
4.99975e-06
-1.81e-10
4.99969e-06
-2.22277e-10
4.99961e-06
-2.61662e-10
4.99952e-06
-3.23973e-10
4.99941e-06
-3.74335e-10
4.99928e-06
-4.71284e-10
4.99913e-06
-5.30038e-10
4.99896e-06
-6.9136e-10
4.99876e-06
-7.50611e-10
4.99852e-06
-1.04257e-09
4.99827e-06
-1.08132e-09
-1.68451e-09
5.00001e-06
-1.22039e-11
5.00001e-06
-2.05448e-11
5e-06
-3.14717e-11
4.99998e-06
-4.43549e-11
4.99996e-06
-5.67762e-11
4.99993e-06
-7.06307e-11
4.99989e-06
-8.54098e-11
4.99984e-06
-1.04399e-10
4.99979e-06
-1.2229e-10
4.99972e-06
-1.5202e-10
4.99963e-06
-1.76587e-10
4.99953e-06
-2.22508e-10
4.99941e-06
-2.51924e-10
4.99926e-06
-3.26575e-10
4.99909e-06
-3.5672e-10
4.99889e-06
-4.88969e-10
4.99865e-06
-5.10982e-10
4.99838e-06
-7.68709e-10
4.99805e-06
-7.58832e-10
-1.25883e-09
4.99998e-06
9.75305e-12
4.99996e-06
-5.15237e-12
4.99995e-06
-1.40268e-11
4.99992e-06
-2.07295e-11
4.9999e-06
-2.76632e-11
4.99986e-06
-3.7636e-11
4.99982e-06
-4.35861e-11
4.99977e-06
-5.09857e-11
4.99971e-06
-6.17123e-11
4.99964e-06
-7.76372e-11
4.99955e-06
-9.003e-11
4.99944e-06
-1.14386e-10
4.99932e-06
-1.27844e-10
4.99916e-06
-1.69176e-10
4.99898e-06
-1.79548e-10
4.99875e-06
-2.58392e-10
4.9985e-06
-2.5711e-10
4.99816e-06
-4.32223e-10
4.99782e-06
-4.1359e-10
-8.90066e-10
5.00001e-06
5.00001e-06
4.99999e-06
4.99997e-06
4.99994e-06
4.99991e-06
4.99987e-06
4.99982e-06
4.99975e-06
4.99968e-06
4.99959e-06
4.99947e-06
4.99935e-06
4.99918e-06
4.999e-06
4.99874e-06
4.99848e-06
4.99805e-06
4.99764e-06
)
;

boundaryField
{
    sides
    {
        type            calculated;
        value           uniform 0;
    }
    inlet
    {
        type            calculated;
        value           nonuniform List<scalar> 
20
(
-5e-06
-5e-06
-5e-06
-5e-06
-5e-06
-5e-06
-5e-06
-5e-06
-5e-06
-5e-06
-5e-06
-5e-06
-5e-06
-5e-06
-5e-06
-5e-06
-5e-06
-5e-06
-5e-06
-5e-06
)
;
    }
    outlet
    {
        type            calculated;
        value           nonuniform List<scalar> 
20
(
5.00325e-06
5.00255e-06
5.00237e-06
5.00194e-06
5.00169e-06
5.00134e-06
5.00106e-06
5.00074e-06
5.00045e-06
5.00015e-06
4.99985e-06
4.99955e-06
4.99926e-06
4.99894e-06
4.99866e-06
4.99831e-06
4.99806e-06
4.99763e-06
4.99745e-06
4.99675e-06
)
;
    }
    frontAndBack
    {
        type            empty;
        value           nonuniform 0();
    }
}


// ************************************************************************* //
