/*--------------------------------*- C++ -*----------------------------------*\
  =========                 |
  \\      /  F ield         | OpenFOAM: The Open Source CFD Toolbox
   \\    /   O peration     | Website:  https://openfoam.org
    \\  /    A nd           | Version:  7
     \\/     M anipulation  |
\*---------------------------------------------------------------------------*/
FoamFile
{
    version     2.0;
    format      ascii;
    class       volVectorField;
    location    "55";
    object      U;
}
// * * * * * * * * * * * * * * * * * * * * * * * * * * * * * * * * * * * * * //

dimensions      [0 1 -1 0 0 0 0];

internalField   nonuniform List<vector> 
400
(
(0.0999931 -8.81055e-07 0)
(0.099993 -2.39648e-06 0)
(0.0999931 -3.63206e-06 0)
(0.0999935 -4.70862e-06 0)
(0.099994 -5.71804e-06 0)
(0.0999947 -6.74188e-06 0)
(0.0999955 -7.8012e-06 0)
(0.0999967 -8.90496e-06 0)
(0.0999978 -9.96193e-06 0)
(0.0999995 -1.11597e-05 0)
(0.100001 -1.22449e-05 0)
(0.100004 -1.36142e-05 0)
(0.100006 -1.4673e-05 0)
(0.10001 -1.6372e-05 0)
(0.100013 -1.72602e-05 0)
(0.10002 -1.9674e-05 0)
(0.100022 -2.01008e-05 0)
(0.100035 -2.43105e-05 0)
(0.100036 -2.38875e-05 0)
(0.10006 -3.31377e-05 0)
(0.0999943 3.986e-07 0)
(0.0999947 1.20898e-06 0)
(0.0999953 2.01605e-06 0)
(0.0999958 2.77931e-06 0)
(0.0999963 3.49174e-06 0)
(0.099997 4.14606e-06 0)
(0.0999978 4.73927e-06 0)
(0.0999989 5.27617e-06 0)
(0.1 5.8222e-06 0)
(0.100002 6.21799e-06 0)
(0.100003 6.69167e-06 0)
(0.100006 6.85451e-06 0)
(0.100008 7.26054e-06 0)
(0.100011 6.97042e-06 0)
(0.100014 7.38103e-06 0)
(0.10002 6.13932e-06 0)
(0.100024 6.69314e-06 0)
(0.100033 3.15757e-06 0)
(0.100036 3.97628e-06 0)
(0.10005 -5.44347e-06 0)
(0.0999948 -4.10093e-07 0)
(0.0999947 -1.33931e-06 0)
(0.0999947 -2.36181e-06 0)
(0.099995 -3.43061e-06 0)
(0.0999954 -4.4807e-06 0)
(0.099996 -5.54098e-06 0)
(0.0999967 -6.5715e-06 0)
(0.0999977 -7.70226e-06 0)
(0.0999988 -8.8425e-06 0)
(0.1 -1.02078e-05 0)
(0.100002 -1.14989e-05 0)
(0.100004 -1.32434e-05 0)
(0.100006 -1.46878e-05 0)
(0.10001 -1.70692e-05 0)
(0.100012 -1.85908e-05 0)
(0.100018 -2.21998e-05 0)
(0.100021 -2.36191e-05 0)
(0.100029 -2.97888e-05 0)
(0.100032 -3.05921e-05 0)
(0.100046 -4.21351e-05 0)
(0.0999956 -4.02737e-08 0)
(0.0999958 -6.78445e-08 0)
(0.0999962 -2.7966e-08 0)
(0.0999967 3.01038e-08 0)
(0.0999972 1.03679e-07 0)
(0.0999979 1.19198e-07 0)
(0.0999986 1.25572e-07 0)
(0.0999995 -2.10109e-08 0)
(0.100001 -1.99723e-07 0)
(0.100002 -6.58483e-07 0)
(0.100003 -1.09449e-06 0)
(0.100005 -2.05574e-06 0)
(0.100007 -2.7684e-06 0)
(0.10001 -4.51679e-06 0)
(0.100013 -5.45861e-06 0)
(0.100017 -8.61478e-06 0)
(0.10002 -9.62191e-06 0)
(0.100027 -1.55146e-05 0)
(0.100029 -1.60704e-05 0)
(0.100039 -2.74842e-05 0)
(0.0999963 -3.06742e-07 0)
(0.0999963 -9.71736e-07 0)
(0.0999964 -1.70197e-06 0)
(0.0999966 -2.5255e-06 0)
(0.099997 -3.39577e-06 0)
(0.0999974 -4.34943e-06 0)
(0.099998 -5.32016e-06 0)
(0.0999988 -6.45099e-06 0)
(0.0999997 -7.61412e-06 0)
(0.100001 -9.08099e-06 0)
(0.100002 -1.05386e-05 0)
(0.100004 -1.25528e-05 0)
(0.100006 -1.43309e-05 0)
(0.100008 -1.71923e-05 0)
(0.10001 -1.92366e-05 0)
(0.100014 -2.35606e-05 0)
(0.100017 -2.56612e-05 0)
(0.100022 -3.2711e-05 0)
(0.100024 -3.4134e-05 0)
(0.100033 -4.63341e-05 0)
(0.099997 -2.80387e-07 0)
(0.0999971 -8.28445e-07 0)
(0.0999972 -1.33549e-06 0)
(0.0999976 -1.82999e-06 0)
(0.099998 -2.2967e-06 0)
(0.0999984 -2.80938e-06 0)
(0.099999 -3.34117e-06 0)
(0.0999997 -4.04493e-06 0)
(0.100001 -4.81429e-06 0)
(0.100002 -5.93253e-06 0)
(0.100003 -7.08341e-06 0)
(0.100004 -8.836e-06 0)
(0.100006 -1.03995e-05 0)
(0.100008 -1.30854e-05 0)
(0.10001 -1.49934e-05 0)
(0.100013 -1.92036e-05 0)
(0.100015 -2.12077e-05 0)
(0.100019 -2.812e-05 0)
(0.100021 -2.94091e-05 0)
(0.100027 -4.13432e-05 0)
(0.0999977 -3.11247e-07 0)
(0.0999977 -9.57997e-07 0)
(0.0999978 -1.62795e-06 0)
(0.0999981 -2.3583e-06 0)
(0.0999983 -3.13345e-06 0)
(0.0999987 -4.00368e-06 0)
(0.0999991 -4.92971e-06 0)
(0.0999996 -6.04749e-06 0)
(0.1 -7.24939e-06 0)
(0.100001 -8.81459e-06 0)
(0.100002 -1.04219e-05 0)
(0.100003 -1.26553e-05 0)
(0.100004 -1.47105e-05 0)
(0.100006 -1.7919e-05 0)
(0.100007 -2.03385e-05 0)
(0.10001 -2.50979e-05 0)
(0.100011 -2.75887e-05 0)
(0.100015 -3.50372e-05 0)
(0.100016 -3.67013e-05 0)
(0.100021 -4.90745e-05 0)
(0.0999983 -3.41693e-07 0)
(0.0999984 -1.05026e-06 0)
(0.0999985 -1.77776e-06 0)
(0.0999986 -2.54436e-06 0)
(0.0999988 -3.32419e-06 0)
(0.0999991 -4.16977e-06 0)
(0.0999994 -5.05025e-06 0)
(0.0999998 -6.11517e-06 0)
(0.1 -7.27069e-06 0)
(0.100001 -8.79863e-06 0)
(0.100001 -1.03886e-05 0)
(0.100002 -1.26187e-05 0)
(0.100003 -1.4688e-05 0)
(0.100004 -1.79105e-05 0)
(0.100005 -2.03616e-05 0)
(0.100007 -2.51341e-05 0)
(0.100008 -2.76544e-05 0)
(0.100011 -3.50658e-05 0)
(0.100012 -3.67192e-05 0)
(0.100015 -4.89078e-05 0)
(0.099999 -3.60381e-07 0)
(0.099999 -1.1023e-06 0)
(0.0999991 -1.85924e-06 0)
(0.0999992 -2.6533e-06 0)
(0.0999993 -3.46252e-06 0)
(0.0999995 -4.35273e-06 0)
(0.0999997 -5.29336e-06 0)
(0.0999999 -6.43703e-06 0)
(0.1 -7.68541e-06 0)
(0.100001 -9.32128e-06 0)
(0.100001 -1.10333e-05 0)
(0.100001 -1.34052e-05 0)
(0.100002 -1.56255e-05 0)
(0.100003 -1.90274e-05 0)
(0.100003 -2.16552e-05 0)
(0.100004 -2.66336e-05 0)
(0.100005 -2.93171e-05 0)
(0.100006 -3.69308e-05 0)
(0.100007 -3.86895e-05 0)
(0.100009 -5.10769e-05 0)
(0.0999997 -3.68684e-07 0)
(0.0999997 -1.12676e-06 0)
(0.0999997 -1.90026e-06 0)
(0.0999997 -2.71446e-06 0)
(0.0999998 -3.54759e-06 0)
(0.0999998 -4.46448e-06 0)
(0.0999999 -5.43325e-06 0)
(0.1 -6.60789e-06 0)
(0.1 -7.89219e-06 0)
(0.1 -9.56906e-06 0)
(0.1 -1.13275e-05 0)
(0.1 -1.37439e-05 0)
(0.100001 -1.60107e-05 0)
(0.100001 -1.94514e-05 0)
(0.100001 -2.21201e-05 0)
(0.100001 -2.71227e-05 0)
(0.100002 -2.98381e-05 0)
(0.100002 -3.74531e-05 0)
(0.100002 -3.92339e-05 0)
(0.100003 -5.15642e-05 0)
(0.1 -3.6822e-07 0)
(0.1 -1.12604e-06 0)
(0.1 -1.90047e-06 0)
(0.1 -2.71455e-06 0)
(0.1 -3.54849e-06 0)
(0.1 -4.46522e-06 0)
(0.1 -5.43446e-06 0)
(0.1 -6.60901e-06 0)
(0.0999999 -7.89261e-06 0)
(0.0999998 -9.57013e-06 0)
(0.0999997 -1.13282e-05 0)
(0.0999995 -1.37446e-05 0)
(0.0999993 -1.60127e-05 0)
(0.0999991 -1.94534e-05 0)
(0.0999989 -2.21205e-05 0)
(0.0999986 -2.71221e-05 0)
(0.0999983 -2.98376e-05 0)
(0.0999979 -3.74519e-05 0)
(0.0999977 -3.92319e-05 0)
(0.0999971 -5.15627e-05 0)
(0.100001 -3.59169e-07 0)
(0.100001 -1.10159e-06 0)
(0.100001 -1.85948e-06 0)
(0.100001 -2.65351e-06 0)
(0.100001 -3.46397e-06 0)
(0.100001 -4.35418e-06 0)
(0.1 -5.29548e-06 0)
(0.1 -6.4393e-06 0)
(0.0999998 -7.68586e-06 0)
(0.0999995 -9.32299e-06 0)
(0.0999991 -1.10352e-05 0)
(0.0999986 -1.34065e-05 0)
(0.099998 -1.56287e-05 0)
(0.0999973 -1.90308e-05 0)
(0.0999967 -2.16565e-05 0)
(0.0999957 -2.66316e-05 0)
(0.099995 -2.93146e-05 0)
(0.0999936 -3.69253e-05 0)
(0.0999932 -3.86824e-05 0)
(0.0999912 -5.10689e-05 0)
(0.100002 -3.40992e-07 0)
(0.100002 -1.05075e-06 0)
(0.100002 -1.77729e-06 0)
(0.100001 -2.545e-06 0)
(0.100001 -3.3241e-06 0)
(0.100001 -4.17065e-06 0)
(0.100001 -5.05045e-06 0)
(0.1 -6.11668e-06 0)
(0.0999997 -7.27028e-06 0)
(0.0999991 -8.79838e-06 0)
(0.0999985 -1.03907e-05 0)
(0.0999977 -1.26207e-05 0)
(0.0999968 -1.46903e-05 0)
(0.0999956 -1.79138e-05 0)
(0.0999945 -2.03651e-05 0)
(0.0999929 -2.51352e-05 0)
(0.0999917 -2.76545e-05 0)
(0.0999894 -3.50637e-05 0)
(0.0999885 -3.67163e-05 0)
(0.0999853 -4.89049e-05 0)
(0.100002 -3.12157e-07 0)
(0.100002 -9.58666e-07 0)
(0.100002 -1.62739e-06 0)
(0.100002 -2.35884e-06 0)
(0.100002 -3.1315e-06 0)
(0.100001 -4.00357e-06 0)
(0.100001 -4.92735e-06 0)
(0.1 -6.0467e-06 0)
(0.0999998 -7.24858e-06 0)
(0.099999 -8.81037e-06 0)
(0.0999981 -1.04196e-05 0)
(0.0999969 -1.26539e-05 0)
(0.0999958 -1.47084e-05 0)
(0.0999941 -1.79165e-05 0)
(0.0999927 -2.03379e-05 0)
(0.0999903 -2.50949e-05 0)
(0.0999887 -2.75853e-05 0)
(0.0999854 -3.50294e-05 0)
(0.0999843 -3.66937e-05 0)
(0.0999793 -4.90605e-05 0)
(0.100003 -2.81964e-07 0)
(0.100003 -8.28407e-07 0)
(0.100003 -1.33593e-06 0)
(0.100002 -1.82989e-06 0)
(0.100002 -2.29658e-06 0)
(0.100002 -2.80945e-06 0)
(0.100001 -3.34063e-06 0)
(0.1 -4.04391e-06 0)
(0.0999995 -4.81752e-06 0)
(0.0999985 -5.93213e-06 0)
(0.0999974 -7.08126e-06 0)
(0.0999959 -8.83506e-06 0)
(0.0999944 -1.0399e-05 0)
(0.0999923 -1.30846e-05 0)
(0.0999904 -1.49948e-05 0)
(0.0999874 -1.92058e-05 0)
(0.0999853 -2.1211e-05 0)
(0.0999811 -2.81219e-05 0)
(0.0999792 -2.94117e-05 0)
(0.0999733 -4.13428e-05 0)
(0.100004 -3.06802e-07 0)
(0.100004 -9.70233e-07 0)
(0.100004 -1.70245e-06 0)
(0.100003 -2.52431e-06 0)
(0.100003 -3.39805e-06 0)
(0.100003 -4.34679e-06 0)
(0.100002 -5.32413e-06 0)
(0.100001 -6.44789e-06 0)
(0.1 -7.61658e-06 0)
(0.0999991 -9.08408e-06 0)
(0.0999978 -1.05373e-05 0)
(0.099996 -1.25493e-05 0)
(0.0999943 -1.4328e-05 0)
(0.0999917 -1.71873e-05 0)
(0.0999895 -1.92336e-05 0)
(0.0999856 -2.35567e-05 0)
(0.0999833 -2.56602e-05 0)
(0.0999776 -3.27048e-05 0)
(0.0999759 -3.41303e-05 0)
(0.0999673 -4.63199e-05 0)
(0.100004 -3.95382e-08 0)
(0.100004 -6.63508e-08 0)
(0.100004 -2.92849e-08 0)
(0.100003 2.86875e-08 0)
(0.100003 9.98111e-08 0)
(0.100002 1.23504e-07 0)
(0.100001 1.15676e-07 0)
(0.1 -2.31072e-08 0)
(0.0999994 -2.01487e-07 0)
(0.0999981 -6.65609e-07 0)
(0.0999966 -1.09835e-06 0)
(0.0999947 -2.05552e-06 0)
(0.0999927 -2.76753e-06 0)
(0.0999897 -4.51434e-06 0)
(0.0999872 -5.45672e-06 0)
(0.0999828 -8.61247e-06 0)
(0.0999798 -9.62144e-06 0)
(0.0999734 -1.55121e-05 0)
(0.0999706 -1.60689e-05 0)
(0.0999614 -2.74789e-05 0)
(0.100005 -4.10014e-07 0)
(0.100005 -1.34076e-06 0)
(0.100005 -2.36174e-06 0)
(0.100005 -3.433e-06 0)
(0.100005 -4.48238e-06 0)
(0.100004 -5.53621e-06 0)
(0.100003 -6.58152e-06 0)
(0.100002 -7.71909e-06 0)
(0.100001 -8.84424e-06 0)
(0.0999996 -1.02094e-05 0)
(0.0999981 -1.15027e-05 0)
(0.0999958 -1.32458e-05 0)
(0.0999937 -1.46911e-05 0)
(0.0999902 -1.70706e-05 0)
(0.0999875 -1.85926e-05 0)
(0.0999821 -2.2198e-05 0)
(0.0999791 -2.36204e-05 0)
(0.0999706 -2.97857e-05 0)
(0.0999683 -3.0593e-05 0)
(0.0999544 -4.21279e-05 0)
(0.100006 3.99787e-07 0)
(0.100005 1.20508e-06 0)
(0.100005 2.01612e-06 0)
(0.100004 2.78153e-06 0)
(0.100004 3.49915e-06 0)
(0.100003 4.12971e-06 0)
(0.100002 4.76987e-06 0)
(0.100001 5.29085e-06 0)
(0.1 5.83284e-06 0)
(0.0999984 6.22826e-06 0)
(0.0999968 6.6918e-06 0)
(0.0999944 6.85089e-06 0)
(0.0999921 7.25637e-06 0)
(0.0999885 6.96992e-06 0)
(0.0999856 7.38255e-06 0)
(0.0999799 6.1456e-06 0)
(0.0999764 6.69806e-06 0)
(0.0999674 3.1664e-06 0)
(0.0999641 3.98235e-06 0)
(0.09995 -5.43088e-06 0)
(0.100007 -8.79928e-07 0)
(0.100007 -2.39897e-06 0)
(0.100007 -3.63405e-06 0)
(0.100007 -4.70758e-06 0)
(0.100006 -5.71341e-06 0)
(0.100005 -6.76386e-06 0)
(0.100004 -7.77046e-06 0)
(0.100003 -8.8819e-06 0)
(0.100002 -9.95624e-06 0)
(0.1 -1.11584e-05 0)
(0.0999989 -1.22517e-05 0)
(0.0999962 -1.36243e-05 0)
(0.0999942 -1.46833e-05 0)
(0.0999899 -1.63803e-05 0)
(0.0999875 -1.72675e-05 0)
(0.0999803 -1.96804e-05 0)
(0.0999779 -2.01077e-05 0)
(0.0999653 -2.43185e-05 0)
(0.0999638 -2.38959e-05 0)
(0.0999403 -3.31509e-05 0)
)
;

boundaryField
{
    sides
    {
        type            calculated;
        value           nonuniform List<vector> 
40
(
(0.100007 0 0)
(0.100007 0 0)
(0.100007 0 0)
(0.100007 0 0)
(0.100006 0 0)
(0.100005 0 0)
(0.100004 0 0)
(0.100003 0 0)
(0.100002 0 0)
(0.1 0 0)
(0.0999989 0 0)
(0.0999962 0 0)
(0.0999942 0 0)
(0.0999899 0 0)
(0.0999875 0 0)
(0.0999803 0 0)
(0.0999779 0 0)
(0.0999653 0 0)
(0.0999638 0 0)
(0.0999403 0 0)
(0.0999931 0 0)
(0.099993 0 0)
(0.0999931 0 0)
(0.0999935 0 0)
(0.099994 0 0)
(0.0999947 0 0)
(0.0999955 0 0)
(0.0999967 0 0)
(0.0999978 0 0)
(0.0999995 0 0)
(0.100001 0 0)
(0.100004 0 0)
(0.100006 0 0)
(0.10001 0 0)
(0.100013 0 0)
(0.10002 0 0)
(0.100022 0 0)
(0.100035 0 0)
(0.100036 0 0)
(0.10006 0 0)
)
;
    }
    inlet
    {
        type            calculated;
        value           nonuniform List<vector> 
20
(
(0.0999931 0 0)
(0.0999943 0 0)
(0.0999948 0 0)
(0.0999956 0 0)
(0.0999963 0 0)
(0.099997 0 0)
(0.0999976 0 0)
(0.0999983 0 0)
(0.099999 0 0)
(0.0999997 0 0)
(0.1 0 0)
(0.100001 0 0)
(0.100002 0 0)
(0.100002 0 0)
(0.100003 0 0)
(0.100004 0 0)
(0.100004 0 0)
(0.100005 0 0)
(0.100006 0 0)
(0.100007 0 0)
)
;
    }
    outlet
    {
        type            calculated;
        value           nonuniform List<vector> 
20
(
(0.100061 -3.3138e-05 0)
(0.10005 -5.4435e-06 0)
(0.100046 -4.21353e-05 0)
(0.100039 -2.74843e-05 0)
(0.100033 -4.63342e-05 0)
(0.100027 -4.13433e-05 0)
(0.100021 -4.90746e-05 0)
(0.100015 -4.89078e-05 0)
(0.100009 -5.10769e-05 0)
(0.100003 -5.15642e-05 0)
(0.099997 -5.15627e-05 0)
(0.0999911 -5.10688e-05 0)
(0.0999852 -4.89049e-05 0)
(0.0999792 -4.90604e-05 0)
(0.0999731 -4.13428e-05 0)
(0.099967 -4.63198e-05 0)
(0.0999611 -2.74788e-05 0)
(0.0999539 -4.21277e-05 0)
(0.0999496 -5.43085e-06 0)
(0.0999394 -3.31506e-05 0)
)
;
    }
    frontAndBack
    {
        type            empty;
    }
}


// ************************************************************************* //
