/*--------------------------------*- C++ -*----------------------------------*\
  =========                 |
  \\      /  F ield         | OpenFOAM: The Open Source CFD Toolbox
   \\    /   O peration     | Website:  https://openfoam.org
    \\  /    A nd           | Version:  7
     \\/     M anipulation  |
\*---------------------------------------------------------------------------*/
FoamFile
{
    version     2.0;
    format      ascii;
    class       volScalarField;
    location    "20";
    object      ddt0(h);
}
// * * * * * * * * * * * * * * * * * * * * * * * * * * * * * * * * * * * * * //

dimensions      [0 1 -1 0 0 0 0];

internalField   nonuniform List<scalar> 
400
(
1.18663e-07
9.65223e-08
8.8748e-08
7.85903e-08
5.3283e-08
4.4693e-08
4.65012e-08
3.42433e-08
3.80685e-08
4.13097e-08
4.14161e-08
4.17918e-08
4.23469e-08
4.11783e-08
3.80587e-08
3.33462e-08
2.71522e-08
2.0107e-08
1.19159e-08
4.52376e-09
1.09696e-07
1.01003e-07
8.24974e-08
7.66687e-08
7.42291e-08
6.46411e-08
5.74988e-08
6.33435e-08
5.07348e-08
4.64366e-08
4.59399e-08
4.43997e-08
4.17203e-08
3.85358e-08
3.53467e-08
3.09712e-08
2.47161e-08
1.77295e-08
9.76895e-09
3.40146e-09
1.15806e-07
1.23389e-07
1.13803e-07
1.05365e-07
8.99771e-08
7.67536e-08
6.58323e-08
5.86015e-08
5.32761e-08
4.79549e-08
4.47158e-08
4.1376e-08
3.64521e-08
3.19545e-08
2.91039e-08
2.58845e-08
2.10564e-08
1.5504e-08
9.19982e-09
3.7251e-09
1.09407e-07
1.02797e-07
1.05157e-07
9.898e-08
8.93831e-08
7.86489e-08
6.49108e-08
5.64771e-08
5.08576e-08
4.33201e-08
3.82542e-08
3.45738e-08
3.0557e-08
2.73745e-08
2.54502e-08
2.30032e-08
1.88786e-08
1.34398e-08
7.3471e-09
2.69579e-09
1.1043e-07
1.06029e-07
1.07144e-07
1.05562e-07
9.22397e-08
8.49553e-08
7.14374e-08
5.83318e-08
4.66174e-08
3.62846e-08
2.97694e-08
2.57549e-08
2.32908e-08
2.17462e-08
2.0327e-08
1.87464e-08
1.62033e-08
1.25845e-08
8.45429e-09
3.84759e-09
1.02938e-07
1.0037e-07
1.07681e-07
9.78262e-08
9.60521e-08
7.18887e-08
5.80907e-08
5.35227e-08
3.98387e-08
2.65262e-08
1.99408e-08
1.90057e-08
2.00371e-08
1.9954e-08
1.83449e-08
1.64248e-08
1.42613e-08
1.14936e-08
7.53268e-09
2.99665e-09
9.10806e-08
9.92294e-08
9.08127e-08
8.74537e-08
7.5449e-08
6.5047e-08
6.15639e-08
4.06303e-08
2.34842e-08
1.64733e-08
1.47518e-08
1.609e-08
1.8014e-08
1.77577e-08
1.56551e-08
1.34842e-08
1.16074e-08
9.31057e-09
5.92702e-09
2.37649e-09
7.48721e-08
7.41063e-08
8.61472e-08
7.75232e-08
6.57808e-08
5.84316e-08
3.82676e-08
2.77076e-08
2.76529e-08
2.23156e-08
1.49207e-08
1.24842e-08
1.31617e-08
1.33512e-08
1.32177e-08
1.25073e-08
1.02422e-08
6.79345e-09
3.16111e-09
9.75261e-10
5.02973e-08
5.65303e-08
5.21242e-08
5.28493e-08
4.98332e-08
4.0417e-08
3.45686e-08
2.88753e-08
2.02937e-08
1.32269e-08
9.21761e-09
7.38585e-09
6.55744e-09
6.75748e-09
8.29076e-09
9.29581e-09
7.95274e-09
4.47115e-09
6.85133e-10
-3.12415e-10
1.67477e-08
2.41024e-08
2.20258e-08
1.60113e-08
1.41952e-08
1.11851e-08
1.32835e-08
5.15319e-09
9.0939e-10
3.1092e-09
5.25899e-09
4.93341e-09
2.87741e-09
1.57243e-09
2.20183e-09
3.17986e-09
2.94357e-09
1.66021e-09
4.31744e-10
2.59296e-11
-1.67051e-08
-2.40514e-08
-2.19831e-08
-1.59824e-08
-1.41778e-08
-1.11788e-08
-1.32934e-08
-5.15572e-09
-9.18916e-10
-3.10481e-09
-5.229e-09
-4.88532e-09
-2.82001e-09
-1.51066e-09
-2.14016e-09
-3.11447e-09
-2.87166e-09
-1.59263e-09
-3.83731e-10
-1.14401e-11
-5.02683e-08
-5.64971e-08
-5.20803e-08
-5.28205e-08
-4.97998e-08
-4.0413e-08
-3.45581e-08
-2.88939e-08
-2.0293e-08
-1.32058e-08
-9.19585e-09
-7.34732e-09
-6.49445e-09
-6.68467e-09
-8.22045e-09
-9.22346e-09
-7.87545e-09
-4.40021e-09
-6.3342e-10
3.29589e-10
-7.48633e-08
-7.40887e-08
-8.61157e-08
-7.74958e-08
-6.57642e-08
-5.84104e-08
-3.82683e-08
-2.76887e-08
-2.76457e-08
-2.23048e-08
-1.48857e-08
-1.24292e-08
-1.30934e-08
-1.32737e-08
-1.31361e-08
-1.24218e-08
-1.01566e-08
-6.71933e-09
-3.1097e-09
-9.59062e-10
-9.10949e-08
-9.92247e-08
-9.08416e-08
-8.74518e-08
-7.54424e-08
-6.5031e-08
-6.15546e-08
-4.06214e-08
-2.34534e-08
-1.64314e-08
-1.47113e-08
-1.60467e-08
-1.79545e-08
-1.76787e-08
-1.55634e-08
-1.33875e-08
-1.15169e-08
-9.23461e-09
-5.86937e-09
-2.35436e-09
-1.02976e-07
-1.00416e-07
-1.07694e-07
-9.78489e-08
-9.608e-08
-7.1893e-08
-5.80983e-08
-5.35143e-08
-3.98225e-08
-2.64967e-08
-1.98919e-08
-1.8946e-08
-1.99688e-08
-1.98708e-08
-1.82467e-08
-1.63226e-08
-1.41686e-08
-1.14152e-08
-7.47302e-09
-2.97433e-09
-1.10481e-07
-1.0609e-07
-1.07206e-07
-1.05603e-07
-9.22531e-08
-8.49689e-08
-7.14117e-08
-5.83083e-08
-4.658e-08
-3.62265e-08
-2.96997e-08
-2.5681e-08
-2.32143e-08
-2.16607e-08
-2.02314e-08
-1.86477e-08
-1.61113e-08
-1.2505e-08
-8.39543e-09
-3.82583e-09
-1.09473e-07
-1.02888e-07
-1.05232e-07
-9.90484e-08
-8.9411e-08
-7.86513e-08
-6.48725e-08
-5.64255e-08
-5.07853e-08
-4.32331e-08
-3.81646e-08
-3.44829e-08
-3.04675e-08
-2.72858e-08
-2.53609e-08
-2.29111e-08
-1.87875e-08
-1.33588e-08
-7.28699e-09
-2.67209e-09
-1.15927e-07
-1.23471e-07
-1.1388e-07
-1.05433e-07
-9.00062e-08
-7.67497e-08
-6.57995e-08
-5.85354e-08
-5.3184e-08
-4.78579e-08
-4.46165e-08
-4.12747e-08
-3.63545e-08
-3.18622e-08
-2.90159e-08
-2.57976e-08
-2.09724e-08
-1.5432e-08
-9.15049e-09
-3.70674e-09
-1.09797e-07
-1.01039e-07
-8.27512e-08
-7.66811e-08
-7.43099e-08
-6.46832e-08
-5.74371e-08
-6.3357e-08
-5.06959e-08
-4.63358e-08
-4.58365e-08
-4.42924e-08
-4.16173e-08
-3.84406e-08
-3.52585e-08
-3.08885e-08
-2.46364e-08
-1.76564e-08
-9.71615e-09
-3.37986e-09
-1.18772e-07
-9.67035e-08
-8.87015e-08
-7.87086e-08
-5.3268e-08
-4.46202e-08
-4.64736e-08
-3.4077e-08
-3.79188e-08
-4.12024e-08
-4.12937e-08
-4.16689e-08
-4.22298e-08
-4.10709e-08
-3.79633e-08
-3.32628e-08
-2.70794e-08
-2.00437e-08
-1.18713e-08
-4.5048e-09
)
;

boundaryField
{
    sides
    {
        type            calculated;
        value           nonuniform List<scalar> 
40
(
-1.18772e-07
-9.67035e-08
-8.87015e-08
-7.87086e-08
-5.3268e-08
-4.46202e-08
-4.64736e-08
-3.4077e-08
-3.79188e-08
-4.12024e-08
-4.12937e-08
-4.16689e-08
-4.22298e-08
-4.10709e-08
-3.79633e-08
-3.32628e-08
-2.70794e-08
-2.00437e-08
-1.18713e-08
-4.5048e-09
1.18663e-07
9.65223e-08
8.8748e-08
7.85903e-08
5.3283e-08
4.4693e-08
4.65012e-08
3.42433e-08
3.80685e-08
4.13097e-08
4.14161e-08
4.17918e-08
4.23469e-08
4.11783e-08
3.80587e-08
3.33462e-08
2.71522e-08
2.0107e-08
1.19159e-08
4.52376e-09
)
;
    }
    inlet
    {
        type            calculated;
        value           nonuniform List<scalar> 
20
(
1.18663e-07
1.09696e-07
1.15806e-07
1.09407e-07
1.1043e-07
1.02938e-07
9.10806e-08
7.48721e-08
5.02973e-08
1.67477e-08
-1.67051e-08
-5.02683e-08
-7.48633e-08
-9.10949e-08
-1.02976e-07
-1.10481e-07
-1.09473e-07
-1.15927e-07
-1.09797e-07
-1.18772e-07
)
;
    }
    outlet
    {
        type            calculated;
        value           uniform 0;
    }
    frontAndBack
    {
        type            empty;
    }
}


// ************************************************************************* //
