/*--------------------------------*- C++ -*----------------------------------*\
  =========                 |
  \\      /  F ield         | OpenFOAM: The Open Source CFD Toolbox
   \\    /   O peration     | Website:  https://openfoam.org
    \\  /    A nd           | Version:  7
     \\/     M anipulation  |
\*---------------------------------------------------------------------------*/
FoamFile
{
    version     2.0;
    format      ascii;
    class       volVectorField;
    location    "20";
    object      ddtCorrDdt0(hU);
}
// * * * * * * * * * * * * * * * * * * * * * * * * * * * * * * * * * * * * * //

dimensions      [0 2 -2 0 0 0 0];

internalField   nonuniform List<vector> 
400
(
(2.99407e-09 5.60852e-09 0)
(5.75288e-09 1.13728e-08 0)
(-3.08835e-09 1.09269e-08 0)
(-7.01234e-09 5.43966e-09 0)
(-5.63816e-09 1.19472e-10 0)
(-2.19791e-09 -4.3582e-09 0)
(7.78e-10 -7.73126e-09 0)
(3.49598e-09 -9.60621e-09 0)
(9.35327e-09 -9.09214e-09 0)
(1.50411e-08 -6.70051e-09 0)
(1.72651e-08 -2.70688e-09 0)
(1.66701e-08 9.50812e-10 0)
(1.52934e-08 4.12514e-09 0)
(1.04151e-08 6.15938e-09 0)
(4.73264e-09 6.76864e-09 0)
(-4.77315e-09 5.78071e-09 0)
(-9.80168e-09 6.1465e-10 0)
(-1.0473e-08 -3.56466e-09 0)
(-7.27148e-09 -1.06741e-08 0)
(1.22768e-08 -8.39282e-09 0)
(3.14386e-09 3.66934e-09 0)
(9.49752e-09 1.09432e-08 0)
(-2.74489e-09 1.41259e-08 0)
(-1.15597e-08 1.13592e-08 0)
(-9.86658e-09 6.99227e-09 0)
(-6.52086e-09 1.12996e-09 0)
(-3.00685e-09 -3.85033e-09 0)
(4.20044e-09 -6.41072e-09 0)
(1.14271e-08 -5.58933e-09 0)
(1.84659e-08 -4.06307e-09 0)
(2.14268e-08 -2.03765e-09 0)
(2.0175e-08 8.71536e-11 0)
(1.73612e-08 2.75542e-09 0)
(1.09354e-08 5.16161e-09 0)
(4.00215e-09 7.29984e-09 0)
(-7.04461e-09 8.49859e-09 0)
(-1.26012e-08 3.72961e-09 0)
(-1.34986e-08 1.72952e-10 0)
(-1.06395e-08 -1.28178e-08 0)
(1.07341e-08 -1.46633e-08 0)
(1.67545e-09 6.08561e-09 0)
(8.08259e-09 1.72354e-08 0)
(-3.81866e-10 1.63007e-08 0)
(-6.70007e-09 9.55966e-09 0)
(-4.19494e-09 1.50536e-09 0)
(1.35602e-10 -7.23219e-09 0)
(2.82606e-09 -1.45719e-08 0)
(6.11827e-09 -1.81211e-08 0)
(1.03745e-08 -1.59356e-08 0)
(1.38517e-08 -1.07514e-08 0)
(1.54356e-08 -4.43933e-09 0)
(1.43425e-08 1.27808e-09 0)
(1.23008e-08 8.20621e-09 0)
(8.20902e-09 1.37181e-08 0)
(4.55401e-09 1.72131e-08 0)
(-2.40017e-09 1.74228e-08 0)
(-6.25645e-09 5.41884e-09 0)
(-6.52228e-09 -2.82665e-09 0)
(-5.04889e-09 -2.70169e-08 0)
(1.08784e-08 -2.78296e-08 0)
(2.16067e-09 1.0919e-08 0)
(3.4708e-09 2.85206e-08 0)
(-3.93488e-09 2.7157e-08 0)
(-1.14994e-08 1.83907e-08 0)
(-1.10213e-08 6.96956e-09 0)
(-6.81256e-09 -5.10047e-09 0)
(-3.15028e-09 -1.55649e-08 0)
(3.36582e-09 -2.02233e-08 0)
(1.2618e-08 -1.84007e-08 0)
(1.93743e-08 -1.31284e-08 0)
(2.14408e-08 -5.74078e-09 0)
(1.97927e-08 1.126e-09 0)
(1.65127e-08 9.94383e-09 0)
(9.84631e-09 1.77076e-08 0)
(2.85579e-09 2.30966e-08 0)
(-7.72587e-09 2.40345e-08 0)
(-1.28094e-08 8.05077e-09 0)
(-1.29579e-08 -3.39437e-09 0)
(-8.54324e-09 -3.56288e-08 0)
(1.13241e-08 -3.7086e-08 0)
(2.19372e-09 7.22244e-09 0)
(1.68697e-09 2.37943e-08 0)
(-2.72007e-09 2.78158e-08 0)
(-6.80023e-09 2.22027e-08 0)
(-5.86977e-09 1.12897e-08 0)
(-1.28842e-09 -2.59448e-09 0)
(1.37188e-09 -1.58484e-08 0)
(4.40417e-09 -2.08223e-08 0)
(7.77195e-09 -1.86276e-08 0)
(1.00017e-08 -1.29472e-08 0)
(1.0887e-08 -4.73268e-09 0)
(1.02427e-08 3.14934e-09 0)
(9.52865e-09 1.37195e-08 0)
(7.46625e-09 2.30774e-08 0)
(5.46364e-09 2.96622e-08 0)
(4.02339e-10 3.07001e-08 0)
(-2.71855e-09 1.09965e-08 0)
(-3.30263e-09 -3.00746e-09 0)
(-3.84345e-09 -4.24713e-08 0)
(7.69145e-09 -4.50368e-08 0)
(1.7068e-09 8.68829e-09 0)
(-2.53614e-10 2.47218e-08 0)
(-4.5052e-09 2.73264e-08 0)
(-1.06517e-08 2.03353e-08 0)
(-8.93957e-09 7.01525e-09 0)
(-6.89211e-09 -1.0037e-08 0)
(-3.19922e-09 -2.34858e-08 0)
(3.89346e-09 -2.85685e-08 0)
(1.01436e-08 -2.58673e-08 0)
(1.45935e-08 -1.76224e-08 0)
(1.62169e-08 -5.60903e-09 0)
(1.53789e-08 5.57612e-09 0)
(1.33551e-08 1.93241e-08 0)
(8.3603e-09 3.0723e-08 0)
(2.66059e-09 3.80801e-08 0)
(-5.75663e-09 3.83395e-08 0)
(-9.20238e-09 1.32144e-08 0)
(-8.41651e-09 -4.67446e-09 0)
(-4.70005e-09 -5.25668e-08 0)
(9.8903e-09 -5.4543e-08 0)
(1.06212e-09 8.64818e-09 0)
(-1.92135e-09 2.38225e-08 0)
(-4.33571e-09 3.00742e-08 0)
(-5.90215e-09 2.6885e-08 0)
(-6.34215e-09 1.37846e-08 0)
(-3.28751e-09 -3.66411e-09 0)
(1.04384e-09 -1.6782e-08 0)
(2.39386e-09 -2.31809e-08 0)
(4.20179e-09 -2.07549e-08 0)
(7.07021e-09 -1.26674e-08 0)
(8.80517e-09 -1.33491e-09 0)
(9.04774e-09 8.65406e-09 0)
(8.8174e-09 2.15362e-08 0)
(7.05395e-09 3.2847e-08 0)
(4.8993e-09 4.09281e-08 0)
(6.02313e-10 4.24686e-08 0)
(-1.89183e-09 1.63581e-08 0)
(-1.99108e-09 -2.63979e-09 0)
(-1.94583e-09 -5.44192e-08 0)
(5.89801e-09 -5.86493e-08 0)
(1.42438e-09 9.29308e-09 0)
(-1.82155e-09 2.28695e-08 0)
(-2.76993e-09 3.20906e-08 0)
(-5.90407e-09 2.96228e-08 0)
(-5.71468e-09 1.44867e-08 0)
(-2.69456e-09 -4.90888e-09 0)
(-2.37922e-09 -2.08838e-08 0)
(9.30729e-12 -2.69014e-08 0)
(5.99509e-09 -2.25688e-08 0)
(9.94785e-09 -1.23593e-08 0)
(1.04872e-08 1.5836e-09 0)
(9.54902e-09 1.38261e-08 0)
(8.39775e-09 2.86876e-08 0)
(5.81562e-09 4.07417e-08 0)
(2.91793e-09 4.84496e-08 0)
(-1.99487e-09 4.8174e-08 0)
(-4.53637e-09 1.73519e-08 0)
(-4.51504e-09 -4.69775e-09 0)
(-2.85503e-09 -6.25255e-08 0)
(5.68956e-09 -6.52897e-08 0)
(8.30097e-10 1.02092e-08 0)
(-8.45041e-10 2.12459e-08 0)
(-2.02818e-09 3.08573e-08 0)
(-3.35294e-09 3.15633e-08 0)
(-3.00213e-09 1.83246e-08 0)
(-1.7279e-09 -1.57698e-09 0)
(1.00168e-10 -1.65415e-08 0)
(2.45103e-09 -2.08249e-08 0)
(4.25903e-09 -1.74456e-08 0)
(5.51472e-09 -9.47946e-09 0)
(5.76064e-09 2.62853e-09 0)
(4.86655e-09 1.36805e-08 0)
(3.66781e-09 2.81755e-08 0)
(2.4518e-09 4.07288e-08 0)
(1.81757e-09 4.94507e-08 0)
(3.91476e-10 5.05076e-08 0)
(-6.06253e-10 1.96047e-08 0)
(-7.08174e-10 -2.67606e-09 0)
(-3.74053e-10 -6.2353e-08 0)
(3.05624e-09 -6.72515e-08 0)
(1.51758e-10 9.84845e-09 0)
(-4.62645e-10 2.01417e-08 0)
(-7.52336e-10 3.1608e-08 0)
(-8.99128e-10 3.29824e-08 0)
(-1.0326e-09 1.90614e-08 0)
(-6.5576e-10 -9.0851e-10 0)
(6.05822e-10 -1.62461e-08 0)
(-1.36041e-10 -2.20437e-08 0)
(-1.71639e-10 -1.81431e-08 0)
(1.38102e-09 -8.88828e-09 0)
(2.45864e-09 3.93019e-09 0)
(2.37536e-09 1.53121e-08 0)
(1.87212e-09 3.06746e-08 0)
(1.39925e-09 4.40346e-08 0)
(1.22982e-09 5.27956e-08 0)
(2.29114e-10 5.26972e-08 0)
(-7.50629e-10 1.95617e-08 0)
(-1.32409e-09 -4.00402e-09 0)
(-1.54168e-09 -6.56247e-08 0)
(7.36892e-10 -6.95274e-08 0)
(-1.49998e-10 9.84986e-09 0)
(4.53874e-10 2.0142e-08 0)
(7.4551e-10 3.16088e-08 0)
(8.91748e-10 3.29823e-08 0)
(1.02183e-09 1.90631e-08 0)
(6.45701e-10 -9.0743e-10 0)
(-6.15835e-10 -1.62421e-08 0)
(1.26265e-10 -2.20405e-08 0)
(1.57445e-10 -1.81427e-08 0)
(-1.39508e-09 -8.88651e-09 0)
(-2.46798e-09 3.93207e-09 0)
(-2.38568e-09 1.53128e-08 0)
(-1.88545e-09 3.06743e-08 0)
(-1.41236e-09 4.40337e-08 0)
(-1.23599e-09 5.27964e-08 0)
(-2.19827e-10 5.26989e-08 0)
(7.69884e-10 1.95673e-08 0)
(1.35802e-09 -3.99912e-09 0)
(1.58132e-09 -6.56222e-08 0)
(-7.03247e-10 -6.95228e-08 0)
(-8.28992e-10 1.02137e-08 0)
(8.36222e-10 2.12462e-08 0)
(2.02162e-09 3.08576e-08 0)
(3.34704e-09 3.15647e-08 0)
(2.99464e-09 1.8327e-08 0)
(1.71908e-09 -1.57198e-09 0)
(-1.06044e-10 -1.65332e-08 0)
(-2.46366e-09 -2.0816e-08 0)
(-4.27087e-09 -1.74396e-08 0)
(-5.52488e-09 -9.47564e-09 0)
(-5.77382e-09 2.6327e-09 0)
(-4.88195e-09 1.36888e-08 0)
(-3.68032e-09 2.81857e-08 0)
(-2.46042e-09 4.07343e-08 0)
(-1.81837e-09 4.94556e-08 0)
(-3.7795e-10 5.05014e-08 0)
(6.26485e-10 1.96047e-08 0)
(7.40076e-10 -2.67736e-09 0)
(4.05315e-10 -6.23491e-08 0)
(-3.02917e-09 -6.7223e-08 0)
(-1.42502e-09 9.2983e-09 0)
(1.81189e-09 2.28677e-08 0)
(2.7645e-09 3.20917e-08 0)
(5.90037e-09 2.96288e-08 0)
(5.70856e-09 1.44937e-08 0)
(2.68935e-09 -4.89812e-09 0)
(2.37237e-09 -2.087e-08 0)
(-1.40052e-11 -2.68893e-08 0)
(-6.00526e-09 -2.25616e-08 0)
(-9.9607e-09 -1.23552e-08 0)
(-1.04955e-08 1.59017e-09 0)
(-9.55647e-09 1.384e-08 0)
(-8.40477e-09 2.87038e-08 0)
(-5.82223e-09 4.07497e-08 0)
(-2.92073e-09 4.84584e-08 0)
(2.00367e-09 4.81692e-08 0)
(4.55009e-09 1.73521e-08 0)
(4.54185e-09 -4.70313e-09 0)
(2.88519e-09 -6.25346e-08 0)
(-5.66157e-09 -6.52601e-08 0)
(-1.06479e-09 8.65107e-09 0)
(1.91465e-09 2.38207e-08 0)
(4.33146e-09 3.00771e-08 0)
(5.9032e-09 2.68897e-08 0)
(6.33973e-09 1.37921e-08 0)
(3.28455e-09 -3.65284e-09 0)
(-1.04929e-09 -1.67643e-08 0)
(-2.40193e-09 -2.31638e-08 0)
(-4.20815e-09 -2.07458e-08 0)
(-7.07756e-09 -1.26626e-08 0)
(-8.81565e-09 -1.33025e-09 0)
(-9.06282e-09 8.66597e-09 0)
(-8.8295e-09 2.15482e-08 0)
(-7.06021e-09 3.28477e-08 0)
(-4.89767e-09 4.09289e-08 0)
(-5.89838e-10 4.24552e-08 0)
(1.90531e-09 1.63652e-08 0)
(2.01551e-09 -2.63509e-09 0)
(1.96809e-09 -5.44e-08 0)
(-5.87518e-09 -5.85901e-08 0)
(-1.70853e-09 8.68844e-09 0)
(2.49001e-10 2.47212e-08 0)
(4.50485e-09 2.7332e-08 0)
(1.06503e-08 2.0342e-08 0)
(8.93561e-09 7.02358e-09 0)
(6.88859e-09 -1.00266e-08 0)
(3.19444e-09 -2.34714e-08 0)
(-3.89811e-09 -2.85548e-08 0)
(-1.01512e-08 -2.5864e-08 0)
(-1.46034e-08 -1.76217e-08 0)
(-1.62233e-08 -5.60267e-09 0)
(-1.5384e-08 5.59382e-09 0)
(-1.33557e-08 1.93466e-08 0)
(-8.35825e-09 3.0733e-08 0)
(-2.65441e-09 3.80908e-08 0)
(5.76849e-09 3.83279e-08 0)
(9.20732e-09 1.32065e-08 0)
(8.431e-09 -4.69142e-09 0)
(4.70617e-09 -5.25911e-08 0)
(-9.87637e-09 -5.45025e-08 0)
(-2.19407e-09 7.22458e-09 0)
(-1.6861e-09 2.37951e-08 0)
(2.7223e-09 2.78205e-08 0)
(6.80642e-09 2.22122e-08 0)
(5.87348e-09 1.13012e-08 0)
(1.28644e-09 -2.58001e-09 0)
(-1.36959e-09 -1.58316e-08 0)
(-4.40626e-09 -2.0806e-08 0)
(-7.77695e-09 -1.86198e-08 0)
(-1.00059e-08 -1.29439e-08 0)
(-1.08907e-08 -4.7312e-09 0)
(-1.02501e-08 3.15805e-09 0)
(-9.5351e-09 1.37291e-08 0)
(-7.47027e-09 2.30752e-08 0)
(-5.46338e-09 2.96585e-08 0)
(-3.95242e-10 3.06804e-08 0)
(2.7223e-09 1.10034e-08 0)
(3.32092e-09 -3.00383e-09 0)
(3.86027e-09 -4.24469e-08 0)
(-7.67143e-09 -4.49658e-08 0)
(-2.16071e-09 1.09187e-08 0)
(-3.46941e-09 2.85155e-08 0)
(3.94081e-09 2.7157e-08 0)
(1.15055e-08 1.83925e-08 0)
(1.1024e-08 6.97159e-09 0)
(6.81024e-09 -5.09044e-09 0)
(3.1495e-09 -1.55519e-08 0)
(-3.36502e-09 -2.02149e-08 0)
(-1.2617e-08 -1.83987e-08 0)
(-1.93757e-08 -1.31234e-08 0)
(-2.14424e-08 -5.72844e-09 0)
(-1.97927e-08 1.14627e-09 0)
(-1.65054e-08 9.96358e-09 0)
(-9.83935e-09 1.77108e-08 0)
(-2.84825e-09 2.30969e-08 0)
(7.73293e-09 2.40133e-08 0)
(1.28026e-08 8.03723e-09 0)
(1.29582e-08 -3.41719e-09 0)
(8.51777e-09 -3.56488e-08 0)
(-1.13244e-08 -3.70381e-08 0)
(-1.68324e-09 6.08442e-09 0)
(-8.07729e-09 1.72333e-08 0)
(3.962e-10 1.63079e-08 0)
(6.71415e-09 9.56602e-09 0)
(4.20601e-09 1.51134e-09 0)
(-1.28565e-10 -7.2251e-09 0)
(-2.81965e-09 -1.45691e-08 0)
(-6.11154e-09 -1.81172e-08 0)
(-1.03704e-08 -1.59365e-08 0)
(-1.38532e-08 -1.07543e-08 0)
(-1.54387e-08 -4.44439e-09 0)
(-1.43462e-08 1.27726e-09 0)
(-1.23012e-08 8.2065e-09 0)
(-8.20919e-09 1.37111e-08 0)
(-4.55374e-09 1.72089e-08 0)
(2.40643e-09 1.74122e-08 0)
(6.25696e-09 5.42823e-09 0)
(6.53449e-09 -2.82025e-09 0)
(5.05435e-09 -2.70051e-08 0)
(-1.08637e-08 -2.7785e-08 0)
(-3.14838e-09 3.66855e-09 0)
(-9.4832e-09 1.09467e-08 0)
(2.74335e-09 1.41222e-08 0)
(1.15775e-08 1.13546e-08 0)
(9.87166e-09 6.98953e-09 0)
(6.51607e-09 1.12817e-09 0)
(3.01035e-09 -3.84504e-09 0)
(-4.19888e-09 -6.41062e-09 0)
(-1.14227e-08 -5.59135e-09 0)
(-1.84596e-08 -4.0649e-09 0)
(-2.14232e-08 -2.03379e-09 0)
(-2.01714e-08 9.71988e-11 0)
(-1.73533e-08 2.76273e-09 0)
(-1.09337e-08 5.15869e-09 0)
(-4.0025e-09 7.29222e-09 0)
(7.03932e-09 8.47465e-09 0)
(1.25826e-08 3.71647e-09 0)
(1.34942e-08 1.4906e-10 0)
(1.06146e-08 -1.28244e-08 0)
(-1.07227e-08 -1.46191e-08 0)
(-2.99674e-09 5.60545e-09 0)
(-5.7576e-09 1.13724e-08 0)
(3.11554e-09 1.09187e-08 0)
(7.03067e-09 5.43574e-09 0)
(5.65696e-09 1.19778e-10 0)
(2.21446e-09 -4.35791e-09 0)
(-7.72846e-10 -7.72058e-09 0)
(-3.48347e-09 -9.60241e-09 0)
(-9.3458e-09 -9.08928e-09 0)
(-1.50451e-08 -6.70123e-09 0)
(-1.72634e-08 -2.70427e-09 0)
(-1.66641e-08 9.54001e-10 0)
(-1.52798e-08 4.13013e-09 0)
(-1.04023e-08 6.16115e-09 0)
(-4.72124e-09 6.77414e-09 0)
(4.78451e-09 5.78876e-09 0)
(9.80071e-09 6.17881e-10 0)
(1.04779e-08 -3.56605e-09 0)
(7.23947e-09 -1.06872e-08 0)
(-1.22815e-08 -8.39489e-09 0)
)
;

boundaryField
{
    sides
    {
        type            calculated;
        value           nonuniform List<vector> 
40
(
(-2.99674e-09 0 0)
(-5.7576e-09 0 0)
(3.11554e-09 0 0)
(7.03067e-09 0 0)
(5.65696e-09 0 0)
(2.21446e-09 0 0)
(-7.72846e-10 0 0)
(-3.48347e-09 0 0)
(-9.3458e-09 0 0)
(-1.50451e-08 0 0)
(-1.72634e-08 0 0)
(-1.66641e-08 0 0)
(-1.52798e-08 0 0)
(-1.04023e-08 0 0)
(-4.72124e-09 0 0)
(4.78451e-09 0 0)
(9.80071e-09 0 0)
(1.04779e-08 0 0)
(7.23947e-09 0 0)
(-1.22815e-08 0 0)
(2.99407e-09 0 0)
(5.75288e-09 0 0)
(-3.08835e-09 0 0)
(-7.01234e-09 0 0)
(-5.63816e-09 0 0)
(-2.19791e-09 0 0)
(7.78e-10 0 0)
(3.49598e-09 0 0)
(9.35327e-09 0 0)
(1.50411e-08 0 0)
(1.72651e-08 0 0)
(1.66701e-08 0 0)
(1.52934e-08 0 0)
(1.04151e-08 0 0)
(4.73264e-09 0 0)
(-4.77315e-09 0 0)
(-9.80168e-09 0 0)
(-1.0473e-08 0 0)
(-7.27148e-09 0 0)
(1.22768e-08 0 0)
)
;
    }
    inlet
    {
        type            calculated;
        value           uniform (0 0 0);
    }
    outlet
    {
        type            calculated;
        value           nonuniform List<vector> 
20
(
(1.22768e-08 -8.39282e-09 0)
(1.07341e-08 -1.46633e-08 0)
(1.08784e-08 -2.78296e-08 0)
(1.13241e-08 -3.7086e-08 0)
(7.69145e-09 -4.50368e-08 0)
(9.8903e-09 -5.4543e-08 0)
(5.89801e-09 -5.86493e-08 0)
(5.68956e-09 -6.52897e-08 0)
(3.05624e-09 -6.72515e-08 0)
(7.36892e-10 -6.95274e-08 0)
(-7.03247e-10 -6.95228e-08 0)
(-3.02917e-09 -6.7223e-08 0)
(-5.66157e-09 -6.52601e-08 0)
(-5.87518e-09 -5.85901e-08 0)
(-9.87637e-09 -5.45025e-08 0)
(-7.67143e-09 -4.49658e-08 0)
(-1.13244e-08 -3.70381e-08 0)
(-1.08637e-08 -2.7785e-08 0)
(-1.07227e-08 -1.46191e-08 0)
(-1.22815e-08 -8.39489e-09 0)
)
;
    }
    frontAndBack
    {
        type            empty;
    }
}


// ************************************************************************* //
