/*--------------------------------*- C++ -*----------------------------------*\
  =========                 |
  \\      /  F ield         | OpenFOAM: The Open Source CFD Toolbox
   \\    /   O peration     | Website:  https://openfoam.org
    \\  /    A nd           | Version:  7
     \\/     M anipulation  |
\*---------------------------------------------------------------------------*/
FoamFile
{
    version     2.0;
    format      ascii;
    class       volVectorField;
    location    "20";
    object      hU;
}
// * * * * * * * * * * * * * * * * * * * * * * * * * * * * * * * * * * * * * //

dimensions      [0 2 -1 0 0 0 0];

internalField   nonuniform List<vector> 
400
(
(0.001 -8.39977e-09 0)
(0.000999992 -2.6654e-08 0)
(0.000999985 -4.32084e-08 0)
(0.000999992 -5.69536e-08 0)
(0.001 -6.80213e-08 0)
(0.00100001 -7.74946e-08 0)
(0.00100002 -8.53341e-08 0)
(0.00100003 -9.25763e-08 0)
(0.00100004 -9.90248e-08 0)
(0.00100006 -1.07459e-07 0)
(0.00100007 -1.16603e-07 0)
(0.00100009 -1.30502e-07 0)
(0.0010001 -1.42384e-07 0)
(0.00100014 -1.62507e-07 0)
(0.00100015 -1.74547e-07 0)
(0.00100022 -2.02935e-07 0)
(0.00100025 -2.09219e-07 0)
(0.00100037 -2.5106e-07 0)
(0.00100039 -2.44607e-07 0)
(0.00100062 -3.29128e-07 0)
(0.001 6.09072e-09 0)
(0.000999997 1.42643e-08 0)
(0.000999993 2.02841e-08 0)
(0.001 2.49613e-08 0)
(0.00100001 2.93518e-08 0)
(0.00100002 3.41881e-08 0)
(0.00100004 4.06877e-08 0)
(0.00100005 4.79006e-08 0)
(0.00100006 5.54744e-08 0)
(0.00100007 6.14681e-08 0)
(0.00100008 6.77168e-08 0)
(0.00100009 7.00356e-08 0)
(0.00100011 7.41148e-08 0)
(0.00100014 6.91654e-08 0)
(0.00100016 7.09423e-08 0)
(0.00100022 5.33696e-08 0)
(0.00100026 5.54895e-08 0)
(0.00100035 1.85792e-08 0)
(0.00100039 2.63484e-08 0)
(0.00100052 -5.51497e-08 0)
(0.001 -1.51588e-09 0)
(0.000999994 -1.414e-08 0)
(0.000999987 -3.09808e-08 0)
(0.000999991 -4.74157e-08 0)
(0.000999999 -6.16436e-08 0)
(0.00100001 -7.28183e-08 0)
(0.00100001 -7.99525e-08 0)
(0.00100002 -8.4899e-08 0)
(0.00100003 -8.92158e-08 0)
(0.00100005 -9.69797e-08 0)
(0.00100006 -1.06341e-07 0)
(0.00100007 -1.22929e-07 0)
(0.00100009 -1.38812e-07 0)
(0.00100012 -1.6886e-07 0)
(0.00100014 -1.90546e-07 0)
(0.00100019 -2.37926e-07 0)
(0.00100022 -2.58416e-07 0)
(0.00100031 -3.21956e-07 0)
(0.00100033 -3.28858e-07 0)
(0.00100047 -4.19706e-07 0)
(0.001 2.11963e-09 0)
(0.000999996 -4.8148e-09 0)
(0.000999992 -1.53114e-08 0)
(0.000999998 -2.35475e-08 0)
(0.00100001 -2.80453e-08 0)
(0.00100002 -2.82239e-08 0)
(0.00100003 -2.30868e-08 0)
(0.00100004 -1.52717e-08 0)
(0.00100005 -7.32326e-09 0)
(0.00100006 -3.68781e-09 0)
(0.00100007 -2.811e-09 0)
(0.00100008 -1.07842e-08 0)
(0.00100009 -1.90005e-08 0)
(0.00100012 -4.39186e-08 0)
(0.00100014 -6.1369e-08 0)
(0.00100018 -1.07709e-07 0)
(0.00100022 -1.26502e-07 0)
(0.00100028 -1.8789e-07 0)
(0.00100032 -1.92149e-07 0)
(0.0010004 -2.7351e-07 0)
(0.001 -6.33166e-10 0)
(0.000999996 -1.16155e-08 0)
(0.000999992 -2.8333e-08 0)
(0.000999995 -4.63549e-08 0)
(0.001 -6.22735e-08 0)
(0.00100001 -7.33611e-08 0)
(0.00100001 -7.8162e-08 0)
(0.00100002 -7.9571e-08 0)
(0.00100003 -8.0631e-08 0)
(0.00100004 -8.60333e-08 0)
(0.00100005 -9.45772e-08 0)
(0.00100006 -1.12764e-07 0)
(0.00100008 -1.31865e-07 0)
(0.0010001 -1.69398e-07 0)
(0.00100012 -1.99548e-07 0)
(0.00100015 -2.60913e-07 0)
(0.00100018 -2.92705e-07 0)
(0.00100023 -3.66518e-07 0)
(0.00100025 -3.79649e-07 0)
(0.00100034 -4.62069e-07 0)
(0.001 -2.08913e-09 0)
(0.000999996 -1.57477e-08 0)
(0.000999993 -3.40865e-08 0)
(0.000999997 -5.17512e-08 0)
(0.001 -6.47039e-08 0)
(0.00100001 -7.02792e-08 0)
(0.00100002 -6.75417e-08 0)
(0.00100003 -6.04092e-08 0)
(0.00100004 -5.31404e-08 0)
(0.00100004 -5.15251e-08 0)
(0.00100005 -5.51622e-08 0)
(0.00100006 -7.05161e-08 0)
(0.00100007 -8.83389e-08 0)
(0.00100008 -1.26901e-07 0)
(0.0010001 -1.58487e-07 0)
(0.00100013 -2.23036e-07 0)
(0.00100015 -2.5604e-07 0)
(0.0010002 -3.2869e-07 0)
(0.00100022 -3.39511e-07 0)
(0.00100028 -4.10723e-07 0)
(0.001 -4.02118e-09 0)
(0.000999997 -1.90711e-08 0)
(0.000999995 -3.83332e-08 0)
(0.000999997 -5.90049e-08 0)
(0.001 -7.63576e-08 0)
(0.00100001 -8.62444e-08 0)
(0.00100001 -8.74803e-08 0)
(0.00100002 -8.45957e-08 0)
(0.00100002 -8.17941e-08 0)
(0.00100003 -8.43423e-08 0)
(0.00100004 -9.17974e-08 0)
(0.00100005 -1.11031e-07 0)
(0.00100005 -1.32693e-07 0)
(0.00100007 -1.75914e-07 0)
(0.00100008 -2.12374e-07 0)
(0.0010001 -2.83523e-07 0)
(0.00100012 -3.22832e-07 0)
(0.00100015 -4.01621e-07 0)
(0.00100017 -4.17377e-07 0)
(0.00100021 -4.89643e-07 0)
(0.001 -5.84863e-09 0)
(0.000999998 -2.27141e-08 0)
(0.000999996 -4.3247e-08 0)
(0.000999997 -6.5665e-08 0)
(0.001 -8.3911e-08 0)
(0.00100001 -9.26219e-08 0)
(0.00100001 -9.12565e-08 0)
(0.00100001 -8.46907e-08 0)
(0.00100002 -7.80136e-08 0)
(0.00100002 -7.76014e-08 0)
(0.00100003 -8.38956e-08 0)
(0.00100003 -1.03676e-07 0)
(0.00100004 -1.27295e-07 0)
(0.00100005 -1.73939e-07 0)
(0.00100006 -2.13772e-07 0)
(0.00100007 -2.88768e-07 0)
(0.00100009 -3.29574e-07 0)
(0.00100011 -4.07701e-07 0)
(0.00100012 -4.21468e-07 0)
(0.00100015 -4.85604e-07 0)
(0.001 -7.45828e-09 0)
(0.000999999 -2.55681e-08 0)
(0.000999998 -4.65439e-08 0)
(0.000999999 -6.95815e-08 0)
(0.001 -8.8476e-08 0)
(0.001 -9.78424e-08 0)
(0.00100001 -9.68682e-08 0)
(0.00100001 -9.09557e-08 0)
(0.00100001 -8.56089e-08 0)
(0.00100001 -8.66569e-08 0)
(0.00100002 -9.40026e-08 0)
(0.00100002 -1.14481e-07 0)
(0.00100002 -1.38366e-07 0)
(0.00100003 -1.85625e-07 0)
(0.00100004 -2.26368e-07 0)
(0.00100004 -3.03647e-07 0)
(0.00100005 -3.47211e-07 0)
(0.00100007 -4.28135e-07 0)
(0.00100007 -4.44478e-07 0)
(0.00100009 -5.09127e-07 0)
(0.001 -8.44679e-09 0)
(0.001 -2.71425e-08 0)
(0.000999999 -4.82552e-08 0)
(0.001 -7.19582e-08 0)
(0.001 -9.16698e-08 0)
(0.001 -1.0126e-07 0)
(0.001 -1.0003e-07 0)
(0.001 -9.3485e-08 0)
(0.001 -8.71105e-08 0)
(0.001 -8.71609e-08 0)
(0.00100001 -9.41841e-08 0)
(0.00100001 -1.1514e-07 0)
(0.00100001 -1.40209e-07 0)
(0.00100001 -1.89218e-07 0)
(0.00100001 -2.31676e-07 0)
(0.00100001 -3.10623e-07 0)
(0.00100002 -3.54753e-07 0)
(0.00100002 -4.3537e-07 0)
(0.00100002 -4.5085e-07 0)
(0.00100003 -5.12739e-07 0)
(0.001 -8.44761e-09 0)
(0.001 -2.71439e-08 0)
(0.001 -4.82564e-08 0)
(0.001 -7.19593e-08 0)
(0.001 -9.16701e-08 0)
(0.000999999 -1.01259e-07 0)
(0.000999998 -1.00029e-07 0)
(0.000999997 -9.34852e-08 0)
(0.000999996 -8.71112e-08 0)
(0.000999995 -8.71612e-08 0)
(0.000999994 -9.41845e-08 0)
(0.000999993 -1.1514e-07 0)
(0.000999992 -1.40209e-07 0)
(0.00099999 -1.89216e-07 0)
(0.000999989 -2.31672e-07 0)
(0.000999986 -3.10617e-07 0)
(0.000999983 -3.54747e-07 0)
(0.000999979 -4.35366e-07 0)
(0.000999975 -4.50844e-07 0)
(0.000999969 -5.12734e-07 0)
(0.001 -7.46055e-09 0)
(0.001 -2.5572e-08 0)
(0.001 -4.65478e-08 0)
(0.001 -6.9585e-08 0)
(0.000999999 -8.84779e-08 0)
(0.000999997 -9.78419e-08 0)
(0.000999994 -9.68667e-08 0)
(0.000999992 -9.09545e-08 0)
(0.000999989 -8.5608e-08 0)
(0.000999986 -8.66536e-08 0)
(0.000999984 -9.39989e-08 0)
(0.00099998 -1.14474e-07 0)
(0.000999976 -1.38364e-07 0)
(0.00099997 -1.85618e-07 0)
(0.000999965 -2.26362e-07 0)
(0.000999955 -3.03628e-07 0)
(0.000999948 -3.47183e-07 0)
(0.000999934 -4.28094e-07 0)
(0.000999928 -4.44418e-07 0)
(0.000999909 -5.09052e-07 0)
(0.000999999 -5.85213e-09 0)
(0.001 -2.272e-08 0)
(0.001 -4.32527e-08 0)
(0.001 -6.567e-08 0)
(0.000999999 -8.39142e-08 0)
(0.000999995 -9.2623e-08 0)
(0.000999991 -9.12577e-08 0)
(0.000999985 -8.46934e-08 0)
(0.00099998 -7.80169e-08 0)
(0.000999976 -7.76013e-08 0)
(0.000999972 -8.38951e-08 0)
(0.000999967 -1.03673e-07 0)
(0.000999962 -1.27301e-07 0)
(0.000999953 -1.73943e-07 0)
(0.000999944 -2.13782e-07 0)
(0.000999928 -2.88772e-07 0)
(0.000999914 -3.29568e-07 0)
(0.00099989 -4.07693e-07 0)
(0.000999876 -4.21432e-07 0)
(0.000999846 -4.8556e-07 0)
(0.000999999 -4.02558e-09 0)
(0.001 -1.90785e-08 0)
(0.00100001 -3.83406e-08 0)
(0.001 -5.90107e-08 0)
(0.000999998 -7.63597e-08 0)
(0.000999994 -8.62422e-08 0)
(0.000999989 -8.74768e-08 0)
(0.000999983 -8.45928e-08 0)
(0.000999977 -8.1792e-08 0)
(0.00099997 -8.43352e-08 0)
(0.000999964 -9.1789e-08 0)
(0.000999954 -1.11014e-07 0)
(0.000999946 -1.32683e-07 0)
(0.000999932 -1.75887e-07 0)
(0.00099992 -2.12348e-07 0)
(0.000999898 -2.83465e-07 0)
(0.000999882 -3.22761e-07 0)
(0.000999849 -4.0152e-07 0)
(0.000999835 -4.17251e-07 0)
(0.000999787 -4.89482e-07 0)
(0.000999999 -2.09373e-09 0)
(0.001 -1.5755e-08 0)
(0.00100001 -3.40947e-08 0)
(0.001 -5.17603e-08 0)
(0.000999996 -6.4711e-08 0)
(0.000999988 -7.02836e-08 0)
(0.00099998 -6.75464e-08 0)
(0.000999971 -6.04155e-08 0)
(0.000999963 -5.31467e-08 0)
(0.000999957 -5.15256e-08 0)
(0.000999952 -5.51637e-08 0)
(0.000999943 -7.05157e-08 0)
(0.000999934 -8.83532e-08 0)
(0.000999918 -1.26913e-07 0)
(0.000999902 -1.58508e-07 0)
(0.000999872 -2.23051e-07 0)
(0.000999846 -2.5604e-07 0)
(0.000999802 -3.28683e-07 0)
(0.000999776 -3.3946e-07 0)
(0.000999721 -4.10655e-07 0)
(0.000999998 -6.36875e-10 0)
(0.001 -1.16213e-08 0)
(0.00100001 -2.83386e-08 0)
(0.00100001 -4.6358e-08 0)
(0.000999999 -6.22726e-08 0)
(0.000999994 -7.33561e-08 0)
(0.000999988 -7.81563e-08 0)
(0.000999979 -7.9566e-08 0)
(0.00099997 -8.06285e-08 0)
(0.00099996 -8.60257e-08 0)
(0.000999951 -9.457e-08 0)
(0.000999936 -1.12745e-07 0)
(0.000999923 -1.31858e-07 0)
(0.000999901 -1.69369e-07 0)
(0.000999883 -1.99529e-07 0)
(0.000999848 -2.60852e-07 0)
(0.000999824 -2.92642e-07 0)
(0.000999768 -3.66412e-07 0)
(0.000999748 -3.79524e-07 0)
(0.000999664 -4.6189e-07 0)
(0.000999998 2.11492e-09 0)
(0.001 -4.82445e-09 0)
(0.00100001 -1.53242e-08 0)
(0.001 -2.35609e-08 0)
(0.000999991 -2.8056e-08 0)
(0.00099998 -2.8231e-08 0)
(0.000999969 -2.3094e-08 0)
(0.000999957 -1.52782e-08 0)
(0.000999946 -7.32735e-09 0)
(0.000999938 -3.68419e-09 0)
(0.000999931 -2.80986e-09 0)
(0.000999919 -1.07809e-08 0)
(0.000999908 -1.9013e-08 0)
(0.000999885 -4.39237e-08 0)
(0.000999863 -6.13817e-08 0)
(0.000999821 -1.07704e-07 0)
(0.000999784 -1.26481e-07 0)
(0.000999719 -1.87847e-07 0)
(0.000999682 -1.92061e-07 0)
(0.000999596 -2.73396e-07 0)
(0.000999997 -1.5175e-09 0)
(0.00100001 -1.41409e-08 0)
(0.00100001 -3.09818e-08 0)
(0.00100001 -4.74169e-08 0)
(0.001 -6.16445e-08 0)
(0.000999995 -7.28186e-08 0)
(0.000999987 -7.99553e-08 0)
(0.000999977 -8.49034e-08 0)
(0.000999966 -8.92245e-08 0)
(0.000999953 -9.69846e-08 0)
(0.000999943 -1.0635e-07 0)
(0.000999925 -1.22927e-07 0)
(0.00099991 -1.38824e-07 0)
(0.000999881 -1.68854e-07 0)
(0.000999859 -1.90558e-07 0)
(0.000999809 -2.37906e-07 0)
(0.000999777 -2.58418e-07 0)
(0.000999694 -3.2192e-07 0)
(0.000999667 -3.28833e-07 0)
(0.000999535 -4.19621e-07 0)
(0.000999997 6.0886e-09 0)
(0.001 1.4259e-08 0)
(0.00100001 2.02754e-08 0)
(0.000999999 2.49539e-08 0)
(0.000999987 2.93482e-08 0)
(0.000999976 3.41888e-08 0)
(0.000999965 4.06903e-08 0)
(0.000999951 4.79059e-08 0)
(0.000999939 5.54813e-08 0)
(0.000999929 6.14807e-08 0)
(0.000999921 6.77257e-08 0)
(0.000999905 7.0049e-08 0)
(0.000999891 7.41148e-08 0)
(0.000999862 6.91803e-08 0)
(0.000999838 7.09452e-08 0)
(0.000999784 5.34079e-08 0)
(0.000999744 5.5527e-08 0)
(0.000999654 1.8665e-08 0)
(0.000999614 2.64549e-08 0)
(0.000999479 -5.49932e-08 0)
(0.000999997 -8.40166e-09 0)
(0.00100001 -2.66596e-08 0)
(0.00100001 -4.32201e-08 0)
(0.00100001 -5.69689e-08 0)
(0.000999998 -6.80398e-08 0)
(0.000999989 -7.75163e-08 0)
(0.00099998 -8.53604e-08 0)
(0.000999967 -9.26057e-08 0)
(0.000999956 -9.9058e-08 0)
(0.000999942 -1.07492e-07 0)
(0.000999933 -1.16642e-07 0)
(0.000999913 -1.30541e-07 0)
(0.0009999 -1.42431e-07 0)
(0.000999864 -1.62556e-07 0)
(0.000999845 -1.74603e-07 0)
(0.000999778 -2.02998e-07 0)
(0.000999751 -2.09292e-07 0)
(0.000999627 -2.51144e-07 0)
(0.000999608 -2.44688e-07 0)
(0.000999384 -3.29248e-07 0)
)
;

boundaryField
{
    sides
    {
        type            slip;
    }
    inlet
    {
        type            fixedValue;
        value           uniform (0.001 0 0);
    }
    outlet
    {
        type            zeroGradient;
    }
    frontAndBack
    {
        type            empty;
    }
}


// ************************************************************************* //
