/*--------------------------------*- C++ -*----------------------------------*\
  =========                 |
  \\      /  F ield         | OpenFOAM: The Open Source CFD Toolbox
   \\    /   O peration     | Website:  https://openfoam.org
    \\  /    A nd           | Version:  7
     \\/     M anipulation  |
\*---------------------------------------------------------------------------*/
FoamFile
{
    version     2.0;
    format      ascii;
    class       surfaceScalarField;
    location    "20";
    object      phi_0;
}
// * * * * * * * * * * * * * * * * * * * * * * * * * * * * * * * * * * * * * //

dimensions      [0 4 -1 0 0 0 0];

internalField   nonuniform List<scalar> 
760
(
4.99996e-06
1.39092e-11
4.99994e-06
-1.10028e-11
4.99995e-06
-3.29575e-11
4.99998e-06
-4.81181e-11
5.00003e-06
-5.66958e-11
5.00008e-06
-6.45144e-11
5.00013e-06
-6.67831e-11
5.00019e-06
-6.39217e-11
5.00024e-06
-6.35413e-11
5.0003e-06
-6.96549e-11
5.00037e-06
-7.64249e-11
5.00046e-06
-1.00259e-10
5.00057e-06
-1.17058e-10
5.00073e-06
-1.69972e-10
5.00091e-06
-1.92499e-10
5.00119e-06
-2.92472e-10
5.00149e-06
-3.01275e-10
5.00196e-06
-4.79232e-10
5.00241e-06
-4.5298e-10
-8.81175e-10
4.99999e-06
-1.36799e-12
4.99998e-06
-2.80276e-11
4.99999e-06
-6.82259e-11
5.00003e-06
-1.03841e-10
5.00009e-06
-1.30598e-10
5.00015e-06
-1.4524e-10
5.00021e-06
-1.43166e-10
5.00027e-06
-1.34289e-10
5.00032e-06
-1.24673e-10
5.00037e-06
-1.31553e-10
5.00042e-06
-1.4345e-10
5.0005e-06
-1.88365e-10
5.0006e-06
-2.26082e-10
5.00075e-06
-3.27803e-10
5.00093e-06
-3.85029e-10
5.00119e-06
-5.63076e-10
5.00149e-06
-6.06547e-10
5.00188e-06
-8.6872e-10
5.00227e-06
-8.44671e-10
-1.24562e-09
4.99997e-06
2.67684e-12
4.99995e-06
-4.09523e-11
4.99995e-06
-9.89404e-11
4.99997e-06
-1.49395e-10
5e-06
-1.86104e-10
5.00005e-06
-2.06279e-10
5.00009e-06
-2.06077e-10
5.00014e-06
-1.97158e-10
5.00019e-06
-1.89749e-10
5.00025e-06
-2.0189e-10
5.00032e-06
-2.24376e-10
5.0004e-06
-2.8304e-10
5.00051e-06
-3.41449e-10
5.00065e-06
-4.72483e-10
5.00082e-06
-5.66415e-10
5.00104e-06
-7.90076e-10
5.00131e-06
-8.79332e-10
5.00162e-06
-1.17873e-09
5.00197e-06
-1.20096e-09
-1.66296e-09
4.99998e-06
-2.7246e-12
4.99997e-06
-6.2222e-11
4.99999e-06
-1.38264e-10
5.00002e-06
-2.07379e-10
5.00007e-06
-2.58626e-10
5.00013e-06
-2.83892e-10
5.00019e-06
-2.79312e-10
5.00024e-06
-2.61725e-10
5.00028e-06
-2.45098e-10
5.00032e-06
-2.52589e-10
5.00036e-06
-2.77923e-10
5.00042e-06
-3.52758e-10
5.00051e-06
-4.3162e-10
5.00063e-06
-6.00834e-10
5.00078e-06
-7.29174e-10
5.001e-06
-1.00914e-09
5.00124e-06
-1.12954e-09
5.00153e-06
-1.46807e-09
5.00181e-06
-1.48747e-09
-1.86392e-09
4.99998e-06
-1.09174e-11
4.99997e-06
-7.94887e-11
4.99997e-06
-1.64818e-10
4.99998e-06
-2.46544e-10
5.00001e-06
-3.08373e-10
5.00005e-06
-3.39906e-10
5.00008e-06
-3.35232e-10
5.00012e-06
-3.15229e-10
5.00017e-06
-2.99949e-10
5.00022e-06
-3.12303e-10
5.00028e-06
-3.45511e-10
5.00035e-06
-4.29274e-10
5.00043e-06
-5.22402e-10
5.00054e-06
-7.11227e-10
5.00067e-06
-8.64172e-10
5.00083e-06
-1.17344e-09
5.00102e-06
-1.32317e-09
5.00122e-06
-1.67749e-09
5.00145e-06
-1.71835e-09
-2.12336e-09
4.99998e-06
-1.88921e-11
4.99998e-06
-9.82548e-11
4.99998e-06
-1.97411e-10
5.00001e-06
-2.94417e-10
5.00004e-06
-3.67043e-10
5.00008e-06
-3.98768e-10
5.00012e-06
-3.90526e-10
5.00016e-06
-3.65595e-10
5.00019e-06
-3.4266e-10
5.00022e-06
-3.49138e-10
5.00025e-06
-3.84224e-10
5.0003e-06
-4.79378e-10
5.00036e-06
-5.88531e-10
5.00045e-06
-8.038e-10
5.00056e-06
-9.8209e-10
5.00071e-06
-1.32724e-09
5.00088e-06
-1.49699e-09
5.00107e-06
-1.86956e-09
5.00126e-06
-1.90977e-09
-2.24707e-09
4.99999e-06
-2.98195e-11
4.99998e-06
-1.18796e-10
4.99999e-06
-2.21362e-10
5e-06
-3.26237e-10
5.00002e-06
-4.06919e-10
5.00004e-06
-4.42688e-10
5.00007e-06
-4.32756e-10
5.0001e-06
-4.02554e-10
5.00013e-06
-3.78077e-10
5.00016e-06
-3.87064e-10
5.0002e-06
-4.27104e-10
5.00025e-06
-5.29024e-10
5.0003e-06
-6.47571e-10
5.00037e-06
-8.76011e-10
5.00045e-06
-1.06877e-09
5.00055e-06
-1.433e-09
5.00067e-06
-1.6191e-09
5.0008e-06
-1.99977e-09
5.00093e-06
-2.04501e-09
-2.39235e-09
4.99999e-06
-3.96297e-11
4.99999e-06
-1.33678e-10
4.99999e-06
-2.42176e-10
5e-06
-3.55493e-10
5.00002e-06
-4.42484e-10
5.00004e-06
-4.78669e-10
5.00006e-06
-4.65687e-10
5.00008e-06
-4.32965e-10
5.0001e-06
-4.05786e-10
5.00012e-06
-4.12228e-10
5.00015e-06
-4.52723e-10
5.00017e-06
-5.59272e-10
5.00021e-06
-6.857e-10
5.00026e-06
-9.27503e-10
5.00032e-06
-1.13417e-09
5.0004e-06
-1.51718e-09
5.00049e-06
-1.71422e-09
5.00059e-06
-2.10266e-09
5.0007e-06
-2.15004e-09
-2.46224e-09
4.99999e-06
-4.70593e-11
4.99999e-06
-1.45335e-10
4.99999e-06
-2.5618e-10
5e-06
-3.74881e-10
5.00001e-06
-4.64612e-10
5.00002e-06
-5.01696e-10
5.00004e-06
-4.87292e-10
5.00005e-06
-4.51918e-10
5.00006e-06
-4.22774e-10
5.00007e-06
-4.28505e-10
5.00009e-06
-4.704e-10
5.00011e-06
-5.8036e-10
5.00013e-06
-7.1157e-10
5.00016e-06
-9.60285e-10
5.0002e-06
-1.17367e-09
5.00024e-06
-1.56489e-09
5.0003e-06
-1.76741e-09
5.00035e-06
-2.15787e-09
5.0004e-06
-2.20433e-09
-2.5167e-09
5e-06
-4.98074e-11
5e-06
-1.50451e-10
5e-06
-2.61811e-10
5e-06
-3.80691e-10
5e-06
-4.71449e-10
5.00001e-06
-5.08673e-10
5.00001e-06
-4.94142e-10
5.00002e-06
-4.58061e-10
5.00002e-06
-4.28377e-10
5.00003e-06
-4.34552e-10
5.00003e-06
-4.7718e-10
5.00004e-06
-5.87522e-10
5.00004e-06
-7.18884e-10
5.00005e-06
-9.68761e-10
5.00006e-06
-1.18448e-09
5.00008e-06
-1.58038e-09
5.0001e-06
-1.7864e-09
5.00012e-06
-2.17971e-09
5.00014e-06
-2.22753e-09
-2.53174e-09
5e-06
-4.70696e-11
5e-06
-1.4535e-10
5e-06
-2.56193e-10
5e-06
-3.74892e-10
5e-06
-4.64617e-10
4.99999e-06
-5.01697e-10
4.99999e-06
-4.87292e-10
4.99998e-06
-4.51922e-10
4.99998e-06
-4.22778e-10
4.99997e-06
-4.28499e-10
4.99997e-06
-4.70392e-10
4.99996e-06
-5.80344e-10
4.99996e-06
-7.11571e-10
4.99995e-06
-9.60272e-10
4.99994e-06
-1.17366e-09
4.99992e-06
-1.56485e-09
4.9999e-06
-1.76735e-09
4.99988e-06
-2.15778e-09
4.99986e-06
-2.20419e-09
-2.51652e-09
5.00001e-06
-3.96479e-11
5.00001e-06
-1.33704e-10
5.00001e-06
-2.42203e-10
5e-06
-3.55516e-10
4.99999e-06
-4.42497e-10
4.99998e-06
-4.78671e-10
4.99996e-06
-4.65688e-10
4.99995e-06
-4.32969e-10
4.99994e-06
-4.05791e-10
4.99993e-06
-4.12219e-10
4.99991e-06
-4.52711e-10
4.99989e-06
-5.59247e-10
4.99987e-06
-6.85706e-10
4.99984e-06
-9.27476e-10
4.9998e-06
-1.13415e-09
4.99976e-06
-1.5171e-09
4.9997e-06
-1.71409e-09
4.99965e-06
-2.10249e-09
4.9996e-06
-2.14977e-09
-2.46194e-09
5.00001e-06
-2.98427e-11
5.00001e-06
-1.1883e-10
5.00001e-06
-2.21401e-10
5e-06
-3.26273e-10
4.99998e-06
-4.06941e-10
4.99996e-06
-4.42695e-10
4.99994e-06
-4.32762e-10
4.99992e-06
-4.02565e-10
4.9999e-06
-3.78087e-10
4.99988e-06
-3.87051e-10
4.99985e-06
-4.27089e-10
4.99983e-06
-5.28988e-10
4.99979e-06
-6.47581e-10
4.99974e-06
-8.75977e-10
4.99968e-06
-1.06876e-09
4.9996e-06
-1.43289e-09
4.99951e-06
-1.61895e-09
4.99941e-06
-1.99954e-09
4.9993e-06
-2.04465e-09
-2.39188e-09
5.00001e-06
-1.89183e-11
5.00002e-06
-9.8294e-11
5.00001e-06
-1.9745e-10
5e-06
-2.94454e-10
4.99998e-06
-3.67066e-10
4.99996e-06
-3.98774e-10
4.99993e-06
-3.90531e-10
4.9999e-06
-3.65605e-10
4.99987e-06
-3.42669e-10
4.99984e-06
-3.49118e-10
4.9998e-06
-3.84203e-10
4.99975e-06
-4.79333e-10
4.9997e-06
-5.88544e-10
4.99963e-06
-8.03755e-10
4.99955e-06
-9.82068e-10
4.99945e-06
-1.32711e-09
4.99933e-06
-1.49679e-09
4.9992e-06
-1.86926e-09
4.99907e-06
-1.9093e-09
-2.24651e-09
5.00002e-06
-1.09412e-11
5.00002e-06
-7.95275e-11
5.00002e-06
-1.64864e-10
5e-06
-2.46588e-10
4.99996e-06
-3.08401e-10
4.99992e-06
-3.3992e-10
4.99988e-06
-3.35245e-10
4.99984e-06
-3.15247e-10
4.99981e-06
-2.99967e-10
4.99978e-06
-3.12292e-10
4.99975e-06
-3.45504e-10
4.9997e-06
-4.29237e-10
4.99964e-06
-5.22429e-10
4.99955e-06
-7.1119e-10
4.99944e-06
-8.64174e-10
4.99929e-06
-1.17331e-09
4.99912e-06
-1.323e-09
4.99893e-06
-1.67719e-09
4.99874e-06
-1.7179e-09
-2.12277e-09
5.00002e-06
-2.74595e-12
5.00003e-06
-6.2253e-11
5.00003e-06
-1.38302e-10
5.00002e-06
-2.07414e-10
4.99999e-06
-2.58644e-10
4.99995e-06
-2.83892e-10
4.99992e-06
-2.79313e-10
4.99988e-06
-2.61727e-10
4.99983e-06
-2.45099e-10
4.99978e-06
-2.52556e-10
4.99972e-06
-2.779e-10
4.99965e-06
-3.52705e-10
4.99957e-06
-4.31643e-10
4.99946e-06
-6.0078e-10
4.99933e-06
-7.29172e-10
4.99917e-06
-1.00898e-09
4.99898e-06
-1.12936e-09
4.99878e-06
-1.46773e-09
4.99855e-06
-1.48695e-09
-1.86323e-09
5.00002e-06
2.65644e-12
5.00003e-06
-4.098e-11
5.00001e-06
-9.89803e-11
4.99998e-06
-1.49437e-10
4.99993e-06
-1.86139e-10
4.99987e-06
-2.06304e-10
4.99982e-06
-2.06108e-10
4.99976e-06
-1.97188e-10
4.99972e-06
-1.89779e-10
4.99968e-06
-2.01894e-10
4.99964e-06
-2.24395e-10
4.99958e-06
-2.83031e-10
4.99949e-06
-3.41507e-10
4.99937e-06
-4.7247e-10
4.99922e-06
-5.66458e-10
4.999e-06
-7.89979e-10
4.99876e-06
-8.79247e-10
4.99847e-06
-1.17848e-09
4.99819e-06
-1.20064e-09
-1.66245e-09
5.00003e-06
-1.37183e-12
5.00005e-06
-2.80448e-11
5.00005e-06
-6.82502e-11
5.00003e-06
-1.03861e-10
5e-06
-1.30608e-10
4.99995e-06
-1.45237e-10
4.99991e-06
-1.43167e-10
4.99986e-06
-1.34287e-10
4.99981e-06
-1.24677e-10
4.99975e-06
-1.31527e-10
4.99968e-06
-1.43448e-10
4.9996e-06
-1.88325e-10
4.99949e-06
-2.26122e-10
4.99935e-06
-3.27748e-10
4.99918e-06
-3.85064e-10
4.99896e-06
-5.62931e-10
4.99869e-06
-6.06477e-10
4.99838e-06
-8.68427e-10
4.99803e-06
-8.4435e-10
-1.24506e-09
5.00001e-06
1.38951e-11
5.00002e-06
-1.10374e-11
5.00001e-06
-3.29547e-11
4.99997e-06
-4.81736e-11
4.99991e-06
-5.67257e-11
4.99985e-06
-6.45427e-11
4.99979e-06
-6.68347e-11
4.99973e-06
-6.39473e-11
4.99968e-06
-6.35792e-11
4.99963e-06
-6.96948e-11
4.99958e-06
-7.64849e-11
4.9995e-06
-1.00314e-10
4.9994e-06
-1.17158e-10
4.99926e-06
-1.70044e-10
4.99907e-06
-1.92614e-10
4.99881e-06
-2.92525e-10
4.99851e-06
-3.01353e-10
4.99813e-06
-4.79227e-10
4.99774e-06
-4.52924e-10
-8.81092e-10
5.00004e-06
5.00006e-06
5.00005e-06
5.00002e-06
4.99997e-06
4.99992e-06
4.99987e-06
4.99981e-06
4.99976e-06
4.9997e-06
4.99963e-06
4.99954e-06
4.99943e-06
4.99927e-06
4.99909e-06
4.99881e-06
4.99851e-06
4.99804e-06
4.99759e-06
)
;

boundaryField
{
    sides
    {
        type            calculated;
        value           uniform 0;
    }
    inlet
    {
        type            calculated;
        value           nonuniform List<scalar> 
20
(
-5e-06
-5e-06
-5e-06
-5e-06
-5e-06
-5e-06
-5e-06
-5e-06
-5e-06
-5e-06
-5e-06
-5e-06
-5e-06
-5e-06
-5e-06
-5e-06
-5e-06
-5e-06
-5e-06
-5e-06
)
;
    }
    outlet
    {
        type            calculated;
        value           nonuniform List<scalar> 
20
(
5.00329e-06
5.00263e-06
5.00239e-06
5.00201e-06
5.00171e-06
5.00138e-06
5.00108e-06
5.00077e-06
5.00046e-06
5.00015e-06
4.99984e-06
4.99954e-06
4.99923e-06
4.99892e-06
4.99862e-06
4.99829e-06
4.99799e-06
4.99761e-06
4.99737e-06
4.99671e-06
)
;
    }
    frontAndBack
    {
        type            empty;
        value           nonuniform 0();
    }
}


// ************************************************************************* //
