/*--------------------------------*- C++ -*----------------------------------*\
  =========                 |
  \\      /  F ield         | OpenFOAM: The Open Source CFD Toolbox
   \\    /   O peration     | Website:  https://openfoam.org
    \\  /    A nd           | Version:  7
     \\/     M anipulation  |
\*---------------------------------------------------------------------------*/
FoamFile
{
    version     2.0;
    format      ascii;
    class       volVectorField;
    location    "20";
    object      U;
}
// * * * * * * * * * * * * * * * * * * * * * * * * * * * * * * * * * * * * * //

dimensions      [0 1 -1 0 0 0 0];

internalField   nonuniform List<vector> 
400
(
(0.0999934 -8.39919e-07 0)
(0.0999922 -2.66521e-06 0)
(0.0999914 -4.32054e-06 0)
(0.0999921 -5.69496e-06 0)
(0.0999931 -6.80164e-06 0)
(0.0999941 -7.74891e-06 0)
(0.0999951 -8.53282e-06 0)
(0.0999965 -9.25699e-06 0)
(0.0999978 -9.90182e-06 0)
(0.0999993 -1.07452e-05 0)
(0.1 -1.16596e-05 0)
(0.100003 -1.30494e-05 0)
(0.100004 -1.42376e-05 0)
(0.100008 -1.62499e-05 0)
(0.10001 -1.74538e-05 0)
(0.100018 -2.02926e-05 0)
(0.100021 -2.09211e-05 0)
(0.100034 -2.51052e-05 0)
(0.100037 -2.44602e-05 0)
(0.100061 -3.29125e-05 0)
(0.0999946 6.09037e-07 0)
(0.0999939 1.42634e-06 0)
(0.0999934 2.02829e-06 0)
(0.0999943 2.49598e-06 0)
(0.0999955 2.93501e-06 0)
(0.0999966 3.41861e-06 0)
(0.0999978 4.06854e-06 0)
(0.0999993 4.7898e-06 0)
(0.100001 5.54714e-06 0)
(0.100002 6.14649e-06 0)
(0.100003 6.77133e-06 0)
(0.100005 7.00322e-06 0)
(0.100006 7.41114e-06 0)
(0.10001 6.91625e-06 0)
(0.100012 7.09396e-06 0)
(0.100018 5.33678e-06 0)
(0.100023 5.54879e-06 0)
(0.100033 1.85788e-06 0)
(0.100037 2.6348e-06 0)
(0.100052 -5.51495e-06 0)
(0.0999951 -1.5158e-07 0)
(0.099994 -1.41392e-06 0)
(0.0999932 -3.09791e-06 0)
(0.0999936 -4.74131e-06 0)
(0.0999944 -6.16403e-06 0)
(0.0999951 -7.28144e-06 0)
(0.0999959 -7.99482e-06 0)
(0.0999971 -8.48946e-06 0)
(0.0999983 -8.92112e-06 0)
(0.0999997 -9.69749e-06 0)
(0.100001 -1.06336e-05 0)
(0.100003 -1.22923e-05 0)
(0.100005 -1.38806e-05 0)
(0.100008 -1.68854e-05 0)
(0.100011 -1.90539e-05 0)
(0.100016 -2.37919e-05 0)
(0.10002 -2.58409e-05 0)
(0.100029 -3.21949e-05 0)
(0.100032 -3.28853e-05 0)
(0.100046 -4.19704e-05 0)
(0.0999959 2.11953e-07 0)
(0.0999951 -4.81459e-07 0)
(0.0999946 -1.53107e-06 0)
(0.0999952 -2.35464e-06 0)
(0.0999964 -2.8044e-06 0)
(0.0999974 -2.82226e-06 0)
(0.0999986 -2.30858e-06 0)
(0.1 -1.5271e-06 0)
(0.100001 -7.32295e-07 0)
(0.100002 -3.68766e-07 0)
(0.100003 -2.81089e-07 0)
(0.100004 -1.07838e-06 0)
(0.100006 -1.89998e-06 0)
(0.100008 -4.39172e-06 0)
(0.100011 -6.13673e-06 0)
(0.100015 -1.07707e-05 0)
(0.10002 -1.265e-05 0)
(0.100027 -1.87887e-05 0)
(0.100031 -1.92148e-05 0)
(0.10004 -2.73509e-05 0)
(0.0999965 -6.33143e-08 0)
(0.0999958 -1.16151e-06 0)
(0.0999953 -2.83319e-06 0)
(0.0999956 -4.63531e-06 0)
(0.0999961 -6.22711e-06 0)
(0.0999967 -7.33582e-06 0)
(0.0999973 -7.81589e-06 0)
(0.0999982 -7.95679e-06 0)
(0.0999993 -8.0628e-06 0)
(0.1 -8.60303e-06 0)
(0.100002 -9.4574e-06 0)
(0.100003 -1.1276e-05 0)
(0.100005 -1.31861e-05 0)
(0.100007 -1.69393e-05 0)
(0.100009 -1.99543e-05 0)
(0.100013 -2.60907e-05 0)
(0.100016 -2.927e-05 0)
(0.100022 -3.66513e-05 0)
(0.100024 -3.79646e-05 0)
(0.100033 -4.62068e-05 0)
(0.0999972 -2.08907e-07 0)
(0.0999966 -1.57472e-06 0)
(0.0999961 -3.40854e-06 0)
(0.0999965 -5.17496e-06 0)
(0.0999972 -6.47018e-06 0)
(0.099998 -7.0277e-06 0)
(0.0999988 -6.75396e-06 0)
(0.0999998 -6.04073e-06 0)
(0.100001 -5.31388e-06 0)
(0.100001 -5.15236e-06 0)
(0.100002 -5.51607e-06 0)
(0.100003 -7.05143e-06 0)
(0.100004 -8.83368e-06 0)
(0.100006 -1.26898e-05 0)
(0.100008 -1.58484e-05 0)
(0.100011 -2.23032e-05 0)
(0.100014 -2.56037e-05 0)
(0.100019 -3.28687e-05 0)
(0.100022 -3.39509e-05 0)
(0.100028 -4.10723e-05 0)
(0.0999978 -4.02109e-07 0)
(0.0999974 -1.90707e-06 0)
(0.099997 -3.83323e-06 0)
(0.0999972 -5.90034e-06 0)
(0.0999977 -7.63557e-06 0)
(0.0999981 -8.62422e-06 0)
(0.0999986 -8.74781e-06 0)
(0.0999992 -8.45936e-06 0)
(0.0999999 -8.17922e-06 0)
(0.100001 -8.43403e-06 0)
(0.100001 -9.17954e-06 0)
(0.100003 -1.11029e-05 0)
(0.100004 -1.3269e-05 0)
(0.100005 -1.75911e-05 0)
(0.100007 -2.1237e-05 0)
(0.100009 -2.83519e-05 0)
(0.100011 -3.22828e-05 0)
(0.100014 -4.01618e-05 0)
(0.100016 -4.17375e-05 0)
(0.100021 -4.89642e-05 0)
(0.0999985 -5.84854e-07 0)
(0.0999981 -2.27137e-06 0)
(0.0999978 -4.32462e-06 0)
(0.0999979 -6.56639e-06 0)
(0.0999983 -8.39095e-06 0)
(0.0999987 -9.26202e-06 0)
(0.0999991 -9.12548e-06 0)
(0.0999997 -8.46892e-06 0)
(0.1 -7.80122e-06 0)
(0.100001 -7.76001e-06 0)
(0.100001 -8.38943e-06 0)
(0.100002 -1.03674e-05 0)
(0.100002 -1.27293e-05 0)
(0.100004 -1.73937e-05 0)
(0.100005 -2.1377e-05 0)
(0.100006 -2.88765e-05 0)
(0.100008 -3.29572e-05 0)
(0.10001 -4.07699e-05 0)
(0.100012 -4.21466e-05 0)
(0.100015 -4.85603e-05 0)
(0.0999991 -7.45821e-07 0)
(0.0999989 -2.55678e-06 0)
(0.0999987 -4.65434e-06 0)
(0.0999988 -6.95808e-06 0)
(0.099999 -8.84751e-06 0)
(0.0999992 -9.78413e-06 0)
(0.0999995 -9.68671e-06 0)
(0.0999998 -9.09547e-06 0)
(0.1 -8.5608e-06 0)
(0.1 -8.66561e-06 0)
(0.100001 -9.40018e-06 0)
(0.100001 -1.1448e-05 0)
(0.100002 -1.38365e-05 0)
(0.100002 -1.85624e-05 0)
(0.100003 -2.26366e-05 0)
(0.100004 -3.03645e-05 0)
(0.100005 -3.47209e-05 0)
(0.100006 -4.28134e-05 0)
(0.100007 -4.44477e-05 0)
(0.100009 -5.09127e-05 0)
(0.0999997 -8.44676e-07 0)
(0.0999996 -2.71425e-06 0)
(0.0999996 -4.8255e-06 0)
(0.0999996 -7.1958e-06 0)
(0.0999997 -9.16694e-06 0)
(0.0999997 -1.01259e-05 0)
(0.0999998 -1.00029e-05 0)
(0.0999999 -9.34847e-06 0)
(0.1 -8.71102e-06 0)
(0.1 -8.71606e-06 0)
(0.1 -9.41838e-06 0)
(0.1 -1.1514e-05 0)
(0.100001 -1.40209e-05 0)
(0.100001 -1.89218e-05 0)
(0.100001 -2.31675e-05 0)
(0.100001 -3.10622e-05 0)
(0.100002 -3.54753e-05 0)
(0.100002 -4.35369e-05 0)
(0.100002 -4.5085e-05 0)
(0.100003 -5.12739e-05 0)
(0.1 -8.44764e-07 0)
(0.1 -2.7144e-06 0)
(0.1 -4.82566e-06 0)
(0.1 -7.19596e-06 0)
(0.1 -9.16704e-06 0)
(0.1 -1.0126e-05 0)
(0.1 -1.00029e-05 0)
(0.1 -9.34855e-06 0)
(0.1 -8.71115e-06 0)
(0.0999998 -8.71615e-06 0)
(0.0999997 -9.41848e-06 0)
(0.0999996 -1.1514e-05 0)
(0.0999994 -1.4021e-05 0)
(0.0999992 -1.89216e-05 0)
(0.0999991 -2.31672e-05 0)
(0.0999988 -3.10617e-05 0)
(0.0999985 -3.54748e-05 0)
(0.099998 -4.35366e-05 0)
(0.0999976 -4.50845e-05 0)
(0.0999969 -5.12734e-05 0)
(0.100001 -7.46062e-07 0)
(0.100001 -2.55722e-06 0)
(0.100001 -4.65482e-06 0)
(0.100001 -6.95857e-06 0)
(0.100001 -8.84789e-06 0)
(0.100001 -9.7843e-06 0)
(0.100001 -9.68677e-06 0)
(0.1 -9.09555e-06 0)
(0.0999999 -8.56089e-06 0)
(0.0999996 -8.66545e-06 0)
(0.0999993 -9.39998e-06 0)
(0.0999989 -1.14475e-05 0)
(0.0999984 -1.38366e-05 0)
(0.0999977 -1.85619e-05 0)
(0.0999971 -2.26363e-05 0)
(0.0999961 -3.0363e-05 0)
(0.0999952 -3.47184e-05 0)
(0.0999937 -4.28095e-05 0)
(0.099993 -4.44419e-05 0)
(0.099991 -5.09052e-05 0)
(0.100002 -5.85222e-07 0)
(0.100002 -2.27204e-06 0)
(0.100002 -4.32535e-06 0)
(0.100002 -6.56712e-06 0)
(0.100002 -8.39157e-06 0)
(0.100001 -9.26247e-06 0)
(0.100001 -9.12593e-06 0)
(0.1 -8.46949e-06 0)
(0.0999997 -7.80183e-06 0)
(0.0999992 -7.76026e-06 0)
(0.0999988 -8.38964e-06 0)
(0.0999981 -1.03675e-05 0)
(0.0999975 -1.27303e-05 0)
(0.0999965 -1.73945e-05 0)
(0.0999954 -2.13784e-05 0)
(0.0999937 -2.88775e-05 0)
(0.0999921 -3.29571e-05 0)
(0.0999895 -4.07695e-05 0)
(0.0999879 -4.21434e-05 0)
(0.0999847 -4.85561e-05 0)
(0.100002 -4.02567e-07 0)
(0.100003 -1.9079e-06 0)
(0.100003 -3.83415e-06 0)
(0.100003 -5.90122e-06 0)
(0.100002 -7.63616e-06 0)
(0.100002 -8.62444e-06 0)
(0.100001 -8.7479e-06 0)
(0.100001 -8.45949e-06 0)
(0.1 -8.1794e-06 0)
(0.0999993 -8.43371e-06 0)
(0.0999985 -9.1791e-06 0)
(0.0999975 -1.11016e-05 0)
(0.0999964 -1.32685e-05 0)
(0.0999949 -1.7589e-05 0)
(0.0999935 -2.12351e-05 0)
(0.0999911 -2.83468e-05 0)
(0.0999892 -3.22764e-05 0)
(0.0999856 -4.01523e-05 0)
(0.0999839 -4.17252e-05 0)
(0.0999789 -4.89483e-05 0)
(0.100003 -2.09379e-07 0)
(0.100003 -1.57554e-06 0)
(0.100004 -3.40958e-06 0)
(0.100004 -5.1762e-06 0)
(0.100003 -6.47131e-06 0)
(0.100002 -7.02859e-06 0)
(0.100001 -6.75486e-06 0)
(0.1 -6.04174e-06 0)
(0.0999993 -5.31483e-06 0)
(0.0999985 -5.15271e-06 0)
(0.0999979 -5.51652e-06 0)
(0.0999969 -7.05175e-06 0)
(0.0999958 -8.83553e-06 0)
(0.0999939 -1.26916e-05 0)
(0.0999921 -1.58511e-05 0)
(0.0999889 -2.23054e-05 0)
(0.0999859 -2.56043e-05 0)
(0.0999811 -3.28686e-05 0)
(0.0999782 -3.39462e-05 0)
(0.0999723 -4.10656e-05 0)
(0.100003 -6.36898e-08 0)
(0.100004 -1.16217e-06 0)
(0.100005 -2.83397e-06 0)
(0.100004 -4.63598e-06 0)
(0.100004 -6.2275e-06 0)
(0.100003 -7.33589e-06 0)
(0.100003 -7.81594e-06 0)
(0.100002 -7.9569e-06 0)
(0.100001 -8.06315e-06 0)
(0.0999995 -8.60288e-06 0)
(0.0999984 -9.45732e-06 0)
(0.0999968 -1.12749e-05 0)
(0.0999953 -1.31862e-05 0)
(0.0999928 -1.69374e-05 0)
(0.0999907 -1.99534e-05 0)
(0.0999869 -2.60858e-05 0)
(0.0999841 -2.92647e-05 0)
(0.0999781 -3.66417e-05 0)
(0.0999756 -3.79527e-05 0)
(0.0999668 -4.61891e-05 0)
(0.100004 2.11501e-07 0)
(0.100005 -4.82467e-07 0)
(0.100005 -1.53249e-06 0)
(0.100005 -2.3562e-06 0)
(0.100004 -2.80573e-06 0)
(0.100003 -2.82323e-06 0)
(0.100001 -2.3095e-06 0)
(0.1 -1.52789e-06 0)
(0.0999989 -7.32766e-07 0)
(0.0999979 -3.68434e-07 0)
(0.099997 -2.80997e-07 0)
(0.0999956 -1.07813e-06 0)
(0.0999942 -1.90136e-06 0)
(0.0999916 -4.3925e-06 0)
(0.0999891 -6.13835e-06 0)
(0.0999845 -1.07706e-05 0)
(0.0999804 -1.26484e-05 0)
(0.0999733 -1.8785e-05 0)
(0.0999691 -1.92063e-05 0)
(0.0999599 -2.73397e-05 0)
(0.100005 -1.51758e-07 0)
(0.100006 -1.41417e-06 0)
(0.100007 -3.09834e-06 0)
(0.100006 -4.74195e-06 0)
(0.100006 -6.16479e-06 0)
(0.100005 -7.28226e-06 0)
(0.100004 -7.99596e-06 0)
(0.100003 -8.49079e-06 0)
(0.100002 -8.92291e-06 0)
(0.1 -9.69894e-06 0)
(0.099999 -1.06355e-05 0)
(0.099997 -1.22933e-05 0)
(0.0999952 -1.3883e-05 0)
(0.099992 -1.6886e-05 0)
(0.0999894 -1.90565e-05 0)
(0.099984 -2.37914e-05 0)
(0.0999803 -2.58425e-05 0)
(0.0999714 -3.21927e-05 0)
(0.099968 -3.28837e-05 0)
(0.099954 -4.19623e-05 0)
(0.100005 6.08895e-07 0)
(0.100006 1.42598e-06 0)
(0.100007 2.02766e-06 0)
(0.100006 2.49554e-06 0)
(0.100005 2.93499e-06 0)
(0.100003 3.41908e-06 0)
(0.100002 4.06927e-06 0)
(0.100001 4.79086e-06 0)
(0.0999994 5.54843e-06 0)
(0.0999981 6.1484e-06 0)
(0.0999972 6.77291e-06 0)
(0.0999954 7.00524e-06 0)
(0.0999937 7.41181e-06 0)
(0.0999904 6.91832e-06 0)
(0.0999876 7.09479e-06 0)
(0.0999818 5.34097e-06 0)
(0.0999772 5.55286e-06 0)
(0.0999675 1.86654e-06 0)
(0.0999627 2.64552e-06 0)
(0.0999484 -5.49934e-06 0)
(0.100007 -8.40224e-07 0)
(0.100008 -2.66615e-06 0)
(0.100009 -4.32232e-06 0)
(0.100008 -5.6973e-06 0)
(0.100007 -6.80446e-06 0)
(0.100006 -7.75218e-06 0)
(0.100005 -8.53664e-06 0)
(0.100003 -9.2612e-06 0)
(0.100002 -9.90646e-06 0)
(0.100001 -1.07499e-05 0)
(0.0999996 -1.16649e-05 0)
(0.0999974 -1.30549e-05 0)
(0.0999958 -1.42439e-05 0)
(0.0999918 -1.62564e-05 0)
(0.0999895 -1.74611e-05 0)
(0.0999823 -2.03007e-05 0)
(0.0999789 -2.093e-05 0)
(0.0999658 -2.51152e-05 0)
(0.0999629 -2.44694e-05 0)
(0.0999393 -3.29251e-05 0)
)
;

boundaryField
{
    sides
    {
        type            calculated;
        value           nonuniform List<vector> 
40
(
(0.100007 0 0)
(0.100008 0 0)
(0.100009 0 0)
(0.100008 0 0)
(0.100007 0 0)
(0.100006 0 0)
(0.100005 0 0)
(0.100003 0 0)
(0.100002 0 0)
(0.100001 0 0)
(0.0999996 0 0)
(0.0999974 0 0)
(0.0999958 0 0)
(0.0999918 0 0)
(0.0999895 0 0)
(0.0999823 0 0)
(0.0999789 0 0)
(0.0999658 0 0)
(0.0999629 0 0)
(0.0999393 0 0)
(0.0999934 0 0)
(0.0999922 0 0)
(0.0999914 0 0)
(0.0999921 0 0)
(0.0999931 0 0)
(0.0999941 0 0)
(0.0999951 0 0)
(0.0999965 0 0)
(0.0999978 0 0)
(0.0999993 0 0)
(0.1 0 0)
(0.100003 0 0)
(0.100004 0 0)
(0.100008 0 0)
(0.10001 0 0)
(0.100018 0 0)
(0.100021 0 0)
(0.100034 0 0)
(0.100037 0 0)
(0.100061 0 0)
)
;
    }
    inlet
    {
        type            calculated;
        value           nonuniform List<vector> 
20
(
(0.0999931 0 0)
(0.0999943 0 0)
(0.0999948 0 0)
(0.0999956 0 0)
(0.0999964 0 0)
(0.0999971 0 0)
(0.0999977 0 0)
(0.0999984 0 0)
(0.099999 0 0)
(0.0999997 0 0)
(0.1 0 0)
(0.100001 0 0)
(0.100002 0 0)
(0.100002 0 0)
(0.100003 0 0)
(0.100004 0 0)
(0.100004 0 0)
(0.100005 0 0)
(0.100006 0 0)
(0.100007 0 0)
)
;
    }
    outlet
    {
        type            calculated;
        value           nonuniform List<vector> 
20
(
(0.100062 -3.29128e-05 0)
(0.100052 -5.51497e-06 0)
(0.100047 -4.19706e-05 0)
(0.10004 -2.7351e-05 0)
(0.100034 -4.62069e-05 0)
(0.100028 -4.10723e-05 0)
(0.100021 -4.89643e-05 0)
(0.100015 -4.85604e-05 0)
(0.100009 -5.09127e-05 0)
(0.100003 -5.12739e-05 0)
(0.0999969 -5.12734e-05 0)
(0.0999909 -5.09052e-05 0)
(0.0999846 -4.8556e-05 0)
(0.0999787 -4.89482e-05 0)
(0.0999721 -4.10655e-05 0)
(0.0999664 -4.6189e-05 0)
(0.0999596 -2.73396e-05 0)
(0.0999535 -4.19621e-05 0)
(0.0999479 -5.49932e-06 0)
(0.0999384 -3.29248e-05 0)
)
;
    }
    frontAndBack
    {
        type            empty;
    }
}


// ************************************************************************* //
