/*--------------------------------*- C++ -*----------------------------------*\
  =========                 |
  \\      /  F ield         | OpenFOAM: The Open Source CFD Toolbox
   \\    /   O peration     | Website:  https://openfoam.org
    \\  /    A nd           | Version:  7
     \\/     M anipulation  |
\*---------------------------------------------------------------------------*/
FoamFile
{
    version     2.0;
    format      ascii;
    class       volScalarField;
    location    "41";
    object      ddt0(h);
}
// * * * * * * * * * * * * * * * * * * * * * * * * * * * * * * * * * * * * * //

dimensions      [0 1 -1 0 0 0 0];

internalField   nonuniform List<scalar> 
400
(
-1.71101e-08
-1.88883e-08
-1.62614e-08
-1.73991e-08
-1.00957e-08
-1.80398e-08
-2.64852e-08
-5.26049e-08
-3.66557e-09
-1.84022e-09
-6.37835e-09
-5.22547e-09
-2.45901e-09
-1.73341e-09
-2.25206e-09
-2.45152e-09
-2.02047e-09
-1.54531e-09
-1.16691e-09
-5.82225e-10
-1.72701e-08
-1.5213e-08
-1.29428e-08
-1.25387e-08
-1.30437e-08
-5.3805e-09
1.16678e-08
2.95924e-08
-2.75779e-09
-5.8889e-09
-4.48387e-09
-2.97703e-09
-2.40065e-09
-2.55698e-09
-2.70025e-09
-2.41025e-09
-1.87472e-09
-1.46016e-09
-1.02213e-09
-4.41156e-10
-1.80587e-08
-1.62117e-08
-1.89806e-08
-1.51206e-08
-1.72439e-08
-8.86399e-09
-1.5506e-08
-1.12766e-09
-9.53508e-09
-8.86855e-09
-3.89061e-09
-1.72393e-09
-2.25204e-09
-2.76035e-09
-2.37737e-09
-1.70316e-09
-1.37721e-09
-1.27407e-09
-9.32748e-10
-4.52383e-10
-1.33817e-08
-1.16881e-08
-1.30461e-08
-1.1257e-08
-1.14844e-08
-9.16668e-09
-8.40852e-09
-5.9151e-09
-9.32191e-09
-6.38925e-09
-3.03589e-09
-2.63897e-09
-3.52311e-09
-3.32395e-09
-2.22054e-09
-1.35338e-09
-1.12756e-09
-9.22946e-10
-4.54638e-10
-1.55634e-10
-1.30906e-08
-1.36568e-08
-1.38994e-08
-1.37555e-08
-1.13273e-08
-1.23459e-08
-8.4544e-09
-9.41807e-09
-8.61141e-09
-5.30301e-09
-3.75733e-09
-4.52037e-09
-4.60674e-09
-3.17482e-09
-1.60727e-09
-9.52882e-10
-9.18944e-10
-6.56198e-10
-2.05275e-10
-1.02925e-10
-9.64522e-09
-1.06149e-08
-1.02349e-08
-1.11589e-08
-9.42867e-09
-9.67781e-09
-8.51757e-09
-8.5193e-09
-7.16154e-09
-5.20083e-09
-5.17013e-09
-5.69012e-09
-4.60563e-09
-2.69012e-09
-1.51373e-09
-1.17436e-09
-8.94747e-10
-3.51747e-10
2.75335e-10
2.25586e-10
-7.25297e-09
-8.49655e-09
-8.43623e-09
-9.05801e-09
-8.79236e-09
-8.35567e-09
-7.87381e-09
-7.51461e-09
-6.78382e-09
-5.62701e-09
-5.62875e-09
-5.14972e-09
-3.40122e-09
-1.84994e-09
-1.43443e-09
-1.32268e-09
-7.85217e-10
-1.90501e-10
4.3097e-10
3.45067e-10
-4.92723e-09
-5.54572e-09
-6.08844e-09
-6.71182e-09
-7.00511e-09
-7.18961e-09
-6.67884e-09
-6.89131e-09
-5.85914e-09
-5.18876e-09
-4.75001e-09
-3.42921e-09
-2.08911e-09
-1.50842e-09
-1.52878e-09
-1.25615e-09
-5.65462e-10
-1.54856e-10
3.17871e-10
3.06206e-10
-2.83631e-09
-2.90464e-09
-3.78318e-09
-4.11076e-09
-4.74765e-09
-4.43279e-09
-4.46945e-09
-4.40752e-09
-3.54326e-09
-3.50203e-09
-2.64507e-09
-1.5687e-09
-1.33124e-09
-1.31187e-09
-1.08417e-09
-6.07444e-10
-1.4771e-10
-1.58615e-10
-2.04749e-10
-8.43213e-11
-8.73909e-10
-8.94751e-10
-1.34398e-09
-1.4699e-09
-1.73094e-09
-1.48202e-09
-1.60983e-09
-1.33792e-09
-1.1388e-09
-1.13056e-09
-7.45268e-10
-4.58243e-10
-3.79353e-10
-2.84117e-10
-1.08837e-10
2.8818e-11
8.94434e-11
-1.6318e-10
-7.11295e-10
-5.03058e-10
9.04143e-10
8.82936e-10
1.26507e-09
1.36677e-09
1.64537e-09
1.49725e-09
1.49261e-09
1.70354e-09
1.38596e-09
1.44091e-09
8.71034e-10
4.59478e-10
7.09906e-10
8.08511e-10
7.12398e-10
4.2363e-10
1.47312e-10
-1.48784e-11
-6.23238e-10
-5.50464e-10
2.7562e-09
2.83946e-09
3.7463e-09
4.29005e-09
4.85602e-09
4.58803e-09
4.47516e-09
4.38922e-09
3.80182e-09
3.49376e-09
2.82561e-09
1.98372e-09
1.48477e-09
1.28101e-09
1.17082e-09
6.56755e-10
1.15001e-10
1.27173e-10
-1.06063e-10
-1.96411e-10
4.79169e-09
5.42623e-09
6.22996e-09
6.90354e-09
7.31962e-09
7.001e-09
6.68163e-09
6.46332e-09
5.52076e-09
4.69995e-09
4.49652e-09
3.73356e-09
2.28568e-09
1.33137e-09
1.04555e-09
7.19262e-10
3.48753e-10
4.49449e-10
5.1825e-10
2.39068e-10
7.17709e-09
8.56449e-09
8.4872e-09
9.24296e-09
8.22072e-09
8.84395e-09
7.3805e-09
7.70473e-09
6.73061e-09
4.86882e-09
4.766e-09
4.64235e-09
3.31512e-09
1.89334e-09
1.0701e-09
7.71277e-10
6.08446e-10
5.59089e-10
7.01654e-10
4.49247e-10
9.80694e-09
1.07344e-08
1.0371e-08
1.03396e-08
9.58031e-09
9.9688e-09
8.74485e-09
7.3884e-09
8.34739e-09
6.11109e-09
4.47181e-09
4.49363e-09
4.01377e-09
2.77524e-09
1.62595e-09
1.05966e-09
7.61567e-10
4.26297e-10
3.79614e-10
2.99211e-10
1.3463e-08
1.39029e-08
1.35974e-08
1.28464e-08
1.26325e-08
1.00029e-08
1.05922e-08
7.48428e-09
7.42256e-09
7.23764e-09
4.83207e-09
3.77388e-09
3.60701e-09
2.95672e-09
1.99441e-09
1.23744e-09
7.81405e-10
4.04671e-10
2.38565e-10
2.18348e-10
1.344e-08
1.17784e-08
1.25921e-08
1.19734e-08
1.16041e-08
7.36639e-09
1.0676e-08
6.50468e-09
5.93246e-09
6.32397e-09
4.92182e-09
3.4185e-09
3.04739e-09
2.84919e-09
2.42436e-09
1.76183e-09
1.09406e-09
5.67726e-10
9.80085e-11
-7.26435e-12
1.78668e-08
1.5876e-08
1.86967e-08
1.7603e-08
1.46071e-08
1.1688e-08
1.28266e-08
1.08648e-08
5.86653e-09
6.61453e-09
5.23924e-09
3.33232e-09
2.54002e-09
2.37019e-09
2.24943e-09
1.94311e-09
1.46794e-09
1.01791e-09
4.85633e-10
2.06543e-10
1.71311e-08
1.49682e-08
1.32712e-08
1.33494e-08
9.78907e-09
1.82121e-08
2.38495e-09
-1.1546e-08
4.05377e-09
4.02364e-09
3.8579e-09
3.41768e-09
2.89251e-09
2.55844e-09
2.38499e-09
2.29015e-09
1.96992e-09
1.44553e-09
7.67232e-10
2.63525e-10
1.71596e-08
1.91887e-08
1.68045e-08
1.46965e-08
1.46575e-08
5.75743e-09
1.10559e-08
2.71438e-08
9.25692e-09
4.05022e-09
4.11604e-09
4.03014e-09
3.04761e-09
2.25838e-09
2.03338e-09
2.22193e-09
2.21486e-09
1.79621e-09
1.14297e-09
4.96996e-10
)
;

boundaryField
{
    sides
    {
        type            calculated;
        value           nonuniform List<scalar> 
40
(
1.71596e-08
1.91887e-08
1.68045e-08
1.46965e-08
1.46575e-08
5.75743e-09
1.10559e-08
2.71438e-08
9.25692e-09
4.05022e-09
4.11604e-09
4.03014e-09
3.04761e-09
2.25838e-09
2.03338e-09
2.22193e-09
2.21486e-09
1.79621e-09
1.14297e-09
4.96996e-10
-1.71101e-08
-1.88883e-08
-1.62614e-08
-1.73991e-08
-1.00957e-08
-1.80398e-08
-2.64852e-08
-5.26049e-08
-3.66557e-09
-1.84022e-09
-6.37835e-09
-5.22547e-09
-2.45901e-09
-1.73341e-09
-2.25206e-09
-2.45152e-09
-2.02047e-09
-1.54531e-09
-1.16691e-09
-5.82225e-10
)
;
    }
    inlet
    {
        type            calculated;
        value           nonuniform List<scalar> 
20
(
-1.71101e-08
-1.72701e-08
-1.80587e-08
-1.33817e-08
-1.30906e-08
-9.64522e-09
-7.25297e-09
-4.92723e-09
-2.83631e-09
-8.73909e-10
9.04143e-10
2.7562e-09
4.79169e-09
7.17709e-09
9.80694e-09
1.3463e-08
1.344e-08
1.78668e-08
1.71311e-08
1.71596e-08
)
;
    }
    outlet
    {
        type            calculated;
        value           uniform 0;
    }
    frontAndBack
    {
        type            empty;
    }
}


// ************************************************************************* //
