/*--------------------------------*- C++ -*----------------------------------*\
  =========                 |
  \\      /  F ield         | OpenFOAM: The Open Source CFD Toolbox
   \\    /   O peration     | Website:  https://openfoam.org
    \\  /    A nd           | Version:  7
     \\/     M anipulation  |
\*---------------------------------------------------------------------------*/
FoamFile
{
    version     2.0;
    format      ascii;
    class       volVectorField;
    location    "41";
    object      ddtCorrDdt0(hU);
}
// * * * * * * * * * * * * * * * * * * * * * * * * * * * * * * * * * * * * * //

dimensions      [0 2 -2 0 0 0 0];

internalField   nonuniform List<vector> 
400
(
(-3.05672e-10 -1.831e-10 0)
(-4.89902e-10 -2.94882e-10 0)
(1.03478e-09 -5.88507e-10 0)
(1.66832e-09 -3.92834e-10 0)
(1.41137e-09 4.1995e-11 0)
(8.74745e-10 1.16619e-09 0)
(-1.69301e-10 -4.35465e-12 0)
(-6.35022e-09 -4.01759e-10 0)
(-1.55406e-09 1.94964e-09 0)
(-1.13222e-09 4.352e-10 0)
(-3.51827e-09 -1.53466e-10 0)
(-3.27454e-09 -3.8848e-10 0)
(-2.11997e-09 -9.75409e-10 0)
(-1.15668e-09 -1.45735e-09 0)
(-4.85313e-10 -1.48678e-09 0)
(7.41052e-10 -9.23265e-10 0)
(1.3972e-09 2.1044e-10 0)
(1.44584e-09 8.79393e-10 0)
(9.85764e-10 2.3793e-09 0)
(-1.53751e-09 1.70294e-09 0)
(-4.67612e-10 -5.40152e-10 0)
(-7.5909e-10 -1.04418e-09 0)
(7.45745e-10 -9.76089e-10 0)
(2.00106e-09 -1.06277e-09 0)
(1.53201e-09 -1.52489e-09 0)
(1.04631e-09 -5.57201e-10 0)
(1.54308e-09 -2.30117e-09 0)
(4.04032e-09 -1.66385e-09 0)
(2.00088e-10 3.99825e-10 0)
(-2.65486e-09 -7.12397e-10 0)
(-2.9589e-09 -4.31356e-10 0)
(-2.71448e-09 3.31081e-10 0)
(-2.44522e-09 3.9031e-10 0)
(-1.77941e-09 -8.34982e-11 0)
(-8.50086e-10 -4.78091e-10 0)
(6.71996e-10 -7.7094e-10 0)
(1.54564e-09 -4.11087e-10 0)
(1.57948e-09 -1.50453e-10 0)
(1.17417e-09 7.76047e-10 0)
(-1.22388e-09 1.27144e-09 0)
(-3.25958e-10 -1.49284e-09 0)
(3.46195e-10 -2.76971e-09 0)
(7.59463e-10 -2.43675e-09 0)
(1.10721e-09 -1.74308e-09 0)
(9.3009e-10 -1.13915e-09 0)
(8.09249e-10 4.38424e-10 0)
(-5.38936e-10 1.4489e-09 0)
(1.15724e-09 3.0477e-09 0)
(-1.50837e-09 1.65842e-09 0)
(-2.93435e-09 1.1417e-09 0)
(-2.12114e-09 5.65805e-10 0)
(-1.7035e-09 -1.73466e-10 0)
(-1.84099e-09 -1.41156e-09 0)
(-1.34464e-09 -2.46907e-09 0)
(-4.22706e-10 -2.86868e-09 0)
(1.02709e-09 -2.40858e-09 0)
(1.53198e-09 -3.45827e-10 0)
(1.48536e-09 9.96785e-10 0)
(9.85006e-10 4.261e-09 0)
(-1.71963e-09 3.86778e-09 0)
(-3.82964e-10 -1.48999e-09 0)
(-4.78796e-10 -2.86979e-09 0)
(8.06804e-10 -3.39581e-09 0)
(1.9009e-09 -2.94533e-09 0)
(1.94027e-09 -1.87178e-09 0)
(1.28638e-09 -5.79784e-10 0)
(6.79148e-10 1.33975e-09 0)
(2.88378e-10 1.96515e-09 0)
(-1.87213e-09 1.403e-09 0)
(-2.35981e-09 1.55866e-09 0)
(-2.06396e-09 1.02645e-09 0)
(-2.1947e-09 -2.38161e-10 0)
(-2.47301e-09 -1.97766e-09 0)
(-1.87128e-09 -3.26116e-09 0)
(-7.87776e-10 -3.69921e-09 0)
(5.88989e-10 -3.27088e-09 0)
(1.27786e-09 -8.54305e-10 0)
(1.23829e-09 6.86947e-10 0)
(1.04983e-09 4.85756e-09 0)
(-8.6986e-10 4.95393e-09 0)
(-1.03236e-10 -1.29584e-09 0)
(-2.90932e-10 -2.68917e-09 0)
(3.82522e-10 -3.0619e-09 0)
(8.67764e-10 -2.82198e-09 0)
(7.79567e-10 -1.76132e-09 0)
(2.2953e-10 -8.22598e-10 0)
(4.44002e-10 8.12891e-10 0)
(-2.57244e-11 1.19465e-09 0)
(-7.52507e-10 1.39158e-09 0)
(-7.76355e-10 1.45823e-09 0)
(-9.94634e-10 6.40964e-10 0)
(-1.58592e-09 -7.25249e-10 0)
(-1.87449e-09 -2.37446e-09 0)
(-1.34338e-09 -3.64133e-09 0)
(-6.35352e-10 -4.23221e-09 0)
(2.6634e-10 -4.00347e-09 0)
(5.94453e-10 -1.31564e-09 0)
(6.205e-10 5.56229e-10 0)
(4.26542e-10 5.31584e-09 0)
(-1.30805e-09 5.55672e-09 0)
(-7.27425e-11 -1.54988e-09 0)
(-2.3095e-10 -3.43444e-09 0)
(6.91021e-10 -3.74191e-09 0)
(1.61089e-09 -3.03329e-09 0)
(1.67358e-09 -1.11866e-09 0)
(1.04345e-09 9.2352e-10 0)
(5.53666e-10 2.76998e-09 0)
(-3.14246e-10 3.535e-09 0)
(-1.04353e-09 3.4997e-09 0)
(-1.56478e-09 2.63623e-09 0)
(-2.28587e-09 7.07591e-10 0)
(-2.72023e-09 -1.47246e-09 0)
(-2.33945e-09 -3.74864e-09 0)
(-1.177e-09 -5.38885e-09 0)
(-8.86498e-11 -6.06035e-09 0)
(1.03406e-09 -5.35057e-09 0)
(1.41305e-09 -1.45042e-09 0)
(1.39674e-09 1.28658e-09 0)
(1.0409e-09 7.89716e-09 0)
(-1.07984e-09 7.57493e-09 0)
(-3.07099e-11 -1.15552e-09 0)
(-2.67844e-10 -3.14518e-09 0)
(2.2055e-10 -4.03155e-09 0)
(7.62922e-10 -3.85464e-09 0)
(6.93784e-10 -2.50942e-09 0)
(3.58847e-10 -6.28948e-10 0)
(2.65603e-10 1.04411e-09 0)
(7.89418e-11 2.0341e-09 0)
(-2.24668e-10 2.21599e-09 0)
(-5.25313e-10 1.69404e-09 0)
(-1.01368e-09 2.73912e-10 0)
(-1.22813e-09 -1.32711e-09 0)
(-1.11473e-09 -3.28394e-09 0)
(-9.17031e-10 -5.01986e-09 0)
(-8.34375e-10 -5.93968e-09 0)
(-5.09116e-10 -5.66614e-09 0)
(-1.24747e-10 -2.02315e-09 0)
(1.40087e-10 5.61145e-10 0)
(4.33989e-10 7.09181e-09 0)
(-4.78411e-10 7.55901e-09 0)
(-4.75418e-11 -1.01055e-09 0)
(-1.97002e-10 -2.93901e-09 0)
(1.56688e-10 -3.90902e-09 0)
(6.47615e-10 -3.4079e-09 0)
(6.9514e-10 -1.56196e-09 0)
(5.2242e-10 7.39297e-10 0)
(4.36424e-10 2.69255e-09 0)
(3.76794e-12 3.53904e-09 0)
(-4.56263e-10 3.29249e-09 0)
(-1.02081e-09 2.14047e-09 0)
(-1.43391e-09 1.41109e-10 0)
(-1.30613e-09 -1.92824e-09 0)
(-1.00779e-09 -4.45519e-09 0)
(-6.58317e-10 -6.5425e-09 0)
(-2.93501e-10 -7.41875e-09 0)
(4.48679e-10 -6.5784e-09 0)
(8.26942e-10 -1.88873e-09 0)
(9.21227e-10 1.3465e-09 0)
(5.63209e-10 8.91662e-09 0)
(-9.8322e-10 8.70691e-09 0)
(-2.97417e-11 -8.56985e-10 0)
(-7.739e-11 -2.68274e-09 0)
(1.07225e-10 -3.78443e-09 0)
(4.44742e-10 -3.25638e-09 0)
(3.90725e-10 -1.4273e-09 0)
(2.61992e-10 7.98492e-10 0)
(9.65008e-11 2.50087e-09 0)
(-1.31166e-10 3.29717e-09 0)
(-2.90362e-10 3.12134e-09 0)
(-5.94773e-10 2.20247e-09 0)
(-5.76103e-10 5.52074e-10 0)
(-3.01262e-10 -1.4564e-09 0)
(-2.39278e-10 -4.15493e-09 0)
(-3.15798e-10 -6.41314e-09 0)
(-3.22398e-10 -7.40896e-09 0)
(-1.56622e-10 -6.83255e-09 0)
(-6.32256e-12 -2.30449e-09 0)
(-3.56237e-11 8.39621e-10 0)
(-5.026e-11 8.50617e-09 0)
(-3.83635e-10 8.84626e-09 0)
(5.65988e-12 -7.40456e-10 0)
(-5.59816e-12 -2.56321e-09 0)
(4.63855e-11 -3.76505e-09 0)
(1.42627e-10 -3.26621e-09 0)
(8.61622e-11 -1.4069e-09 0)
(5.34884e-11 9.61634e-10 0)
(1.94224e-11 2.76241e-09 0)
(5.17275e-11 3.70728e-09 0)
(3.92914e-11 3.40264e-09 0)
(-7.41195e-11 2.32539e-09 0)
(-1.63761e-10 4.61849e-10 0)
(-2.77807e-10 -1.87388e-09 0)
(-3.59333e-10 -4.77975e-09 0)
(-2.98758e-10 -6.9926e-09 0)
(-1.50967e-10 -7.82605e-09 0)
(2.2014e-10 -7.0406e-09 0)
(4.24717e-10 -2.27731e-09 0)
(4.04275e-10 9.97857e-10 0)
(1.40179e-10 8.95822e-09 0)
(-3.85789e-10 9.10338e-09 0)
(1.18138e-11 -7.18417e-10 0)
(2.19589e-11 -2.57194e-09 0)
(-2.15801e-11 -3.75331e-09 0)
(-1.25865e-10 -3.29849e-09 0)
(-8.33394e-11 -1.42035e-09 0)
(-5.04352e-11 9.07713e-10 0)
(-5.12956e-11 2.74317e-09 0)
(-2.42179e-11 3.66457e-09 0)
(-3.41671e-11 3.371e-09 0)
(1.38637e-10 2.29689e-09 0)
(1.91668e-10 3.92578e-10 0)
(2.0857e-10 -1.87995e-09 0)
(4.12368e-10 -4.73526e-09 0)
(4.56397e-10 -7.00184e-09 0)
(2.50508e-10 -7.87305e-09 0)
(-1.21233e-10 -7.09794e-09 0)
(-3.04831e-10 -2.38871e-09 0)
(-4.58221e-10 8.76715e-10 0)
(-4.50535e-10 8.91066e-09 0)
(1.31589e-10 9.10735e-09 0)
(1.12454e-11 -8.27762e-10 0)
(7.83592e-11 -2.67573e-09 0)
(-1.00449e-10 -3.78213e-09 0)
(-4.26989e-10 -3.32356e-09 0)
(-3.88449e-10 -1.49112e-09 0)
(-2.52019e-10 7.16765e-10 0)
(-1.0297e-10 2.4482e-09 0)
(1.06258e-10 3.25212e-09 0)
(3.1081e-10 3.08053e-09 0)
(5.89801e-10 2.15968e-09 0)
(6.29884e-10 4.22711e-10 0)
(3.89388e-10 -1.51851e-09 0)
(2.73234e-10 -4.12152e-09 0)
(3.24709e-10 -6.44324e-09 0)
(3.21696e-10 -7.50176e-09 0)
(1.51838e-10 -6.95766e-09 0)
(3.42027e-11 -2.54715e-09 0)
(5.85383e-11 5.81735e-10 0)
(-1.85545e-11 8.4103e-09 0)
(2.76302e-10 8.85487e-09 0)
(3.25604e-11 -9.99948e-10 0)
(1.75806e-10 -2.92114e-09 0)
(-1.83892e-10 -3.93767e-09 0)
(-6.70469e-10 -3.4652e-09 0)
(-6.65349e-10 -1.6117e-09 0)
(-5.28329e-10 7.28782e-10 0)
(-4.18083e-10 2.6764e-09 0)
(-4.4671e-11 3.51957e-09 0)
(4.04131e-10 3.34027e-09 0)
(9.17265e-10 2.20127e-09 0)
(1.4011e-09 1.23116e-10 0)
(1.43184e-09 -2.01254e-09 0)
(1.08132e-09 -4.52721e-09 0)
(6.16182e-10 -6.61783e-09 0)
(1.87323e-10 -7.50271e-09 0)
(-5.96895e-10 -6.66238e-09 0)
(-8.8684e-10 -2.04756e-09 0)
(-7.83726e-10 1.15941e-09 0)
(-3.54177e-10 8.8299e-09 0)
(1.03105e-09 8.70143e-09 0)
(1.77974e-11 -1.16556e-09 0)
(2.37306e-10 -3.15208e-09 0)
(-2.83234e-10 -4.06094e-09 0)
(-7.67705e-10 -3.85124e-09 0)
(-7.1235e-10 -2.41822e-09 0)
(-2.79367e-10 -6.8954e-10 0)
(-3.31292e-10 1.13909e-09 0)
(-2.16695e-11 1.99556e-09 0)
(2.94082e-10 2.16529e-09 0)
(3.79892e-10 1.83311e-09 0)
(8.17918e-10 4.60058e-10 0)
(1.17073e-09 -1.29174e-09 0)
(1.13511e-09 -3.36317e-09 0)
(9.20462e-10 -5.10739e-09 0)
(7.77822e-10 -5.98773e-09 0)
(3.70604e-10 -5.63833e-09 0)
(3.42417e-11 -1.97131e-09 0)
(-8.23501e-12 5.5157e-10 0)
(-1.509e-10 7.02655e-09 0)
(6.05993e-10 7.51697e-09 0)
(8.29703e-11 -1.5802e-09 0)
(2.00414e-10 -3.46133e-09 0)
(-7.1339e-10 -3.74653e-09 0)
(-1.61567e-09 -2.91774e-09 0)
(-1.71921e-09 -1.08392e-09 0)
(-1.00193e-09 9.25482e-10 0)
(-4.81009e-10 2.81008e-09 0)
(5.05202e-11 3.74066e-09 0)
(1.31758e-09 3.32058e-09 0)
(1.84255e-09 2.53526e-09 0)
(2.10698e-09 8.88872e-10 0)
(2.42771e-09 -1.29223e-09 0)
(2.2076e-09 -3.70852e-09 0)
(1.18935e-09 -5.40405e-09 0)
(1.53435e-10 -6.04607e-09 0)
(-1.03933e-09 -5.24956e-09 0)
(-1.49806e-09 -1.27534e-09 0)
(-1.39916e-09 1.40438e-09 0)
(-8.71858e-10 7.87206e-09 0)
(1.22783e-09 7.51708e-09 0)
(1.29887e-10 -1.34396e-09 0)
(2.88514e-10 -2.72308e-09 0)
(-3.44477e-10 -3.01075e-09 0)
(-9.40007e-10 -2.69302e-09 0)
(-7.26216e-10 -1.93514e-09 0)
(-4.2662e-10 -4.71539e-10 0)
(-4.19193e-11 5.09829e-10 0)
(-3.42296e-10 1.59365e-09 0)
(3.83323e-10 1.53157e-09 0)
(1.2632e-09 1.14549e-09 0)
(1.28338e-09 5.07109e-10 0)
(1.36309e-09 -6.01221e-10 0)
(1.60259e-09 -2.23132e-09 0)
(1.29198e-09 -3.55272e-09 0)
(7.67493e-10 -4.16338e-09 0)
(-1.59228e-10 -3.91994e-09 0)
(-6.6037e-10 -1.18084e-09 0)
(-7.51383e-10 6.8638e-10 0)
(-4.29931e-10 5.33431e-09 0)
(1.4133e-09 5.5214e-09 0)
(3.94572e-10 -1.55472e-09 0)
(5.52806e-10 -2.87746e-09 0)
(-7.30133e-10 -3.27273e-09 0)
(-1.97586e-09 -2.9309e-09 0)
(-1.78283e-09 -2.02693e-09 0)
(-1.55487e-09 -7.51572e-11 0)
(-3.85288e-10 6.06893e-10 0)
(9.39851e-11 2.06731e-09 0)
(9.63618e-10 1.99635e-09 0)
(2.24985e-09 1.45192e-09 0)
(2.58792e-09 7.21746e-10 0)
(2.38359e-09 -2.91711e-10 0)
(2.31477e-09 -1.85979e-09 0)
(1.75027e-09 -3.13655e-09 0)
(8.55028e-10 -3.6294e-09 0)
(-4.72243e-10 -3.25408e-09 0)
(-1.29797e-09 -8.23978e-10 0)
(-1.39094e-09 7.68379e-10 0)
(-1.15662e-09 4.92626e-09 0)
(9.10434e-10 4.96176e-09 0)
(3.58478e-10 -1.47038e-09 0)
(-1.90834e-10 -2.74148e-09 0)
(-7.01946e-10 -2.43509e-09 0)
(-1.12565e-09 -1.92483e-09 0)
(-7.89248e-10 -9.69715e-10 0)
(-1.02848e-09 4.49585e-10 0)
(1.71483e-12 3.81636e-10 0)
(1.00062e-09 2.01121e-09 0)
(6.96312e-10 2.09273e-09 0)
(2.07942e-09 1.4396e-09 0)
(2.49086e-09 5.25329e-10 0)
(2.14769e-09 -3.20626e-10 0)
(1.87561e-09 -1.45984e-09 0)
(1.22216e-09 -2.43364e-09 0)
(3.87531e-10 -2.8571e-09 0)
(-9.70257e-10 -2.47252e-09 0)
(-1.51036e-09 -4.23947e-10 0)
(-1.58029e-09 9.90793e-10 0)
(-1.10447e-09 4.31364e-09 0)
(1.7029e-09 3.89423e-09 0)
(4.7611e-10 -3.82897e-10 0)
(7.89614e-10 -1.01654e-09 0)
(-8.00509e-10 -1.21368e-09 0)
(-1.91262e-09 -1.21977e-09 0)
(-1.50542e-09 -1.15901e-09 0)
(-1.07658e-09 -1.95807e-09 0)
(-1.14695e-09 4.93976e-10 0)
(-4.25568e-10 -1.97231e-09 0)
(7.32373e-10 -8.61328e-10 0)
(1.8729e-09 -2.79618e-10 0)
(2.77898e-09 -1.71669e-10 0)
(2.86363e-09 1.0195e-10 0)
(2.57181e-09 1.5162e-10 0)
(1.77062e-09 -1.53624e-10 0)
(7.67945e-10 -5.17685e-10 0)
(-6.94857e-10 -8.71056e-10 0)
(-1.49249e-09 -5.21866e-10 0)
(-1.56375e-09 -1.88658e-10 0)
(-1.2342e-09 8.12228e-10 0)
(1.17231e-09 1.29817e-09 0)
(2.47592e-10 -8.17764e-11 0)
(2.98716e-10 -2.87172e-10 0)
(-1.07624e-09 -7.50819e-10 0)
(-1.60024e-09 -3.94178e-10 0)
(-1.76337e-09 1.99576e-10 0)
(-2.87958e-10 -1.42063e-11 0)
(-3.7196e-10 3.3889e-09 0)
(8.09203e-10 2.54985e-10 0)
(2.39764e-09 6.3574e-10 0)
(2.31072e-09 6.12428e-10 0)
(2.84774e-09 1.65286e-11 0)
(2.92778e-09 -5.26342e-10 0)
(2.34415e-09 -1.12647e-09 0)
(1.32346e-09 -1.5045e-09 0)
(4.03184e-10 -1.51154e-09 0)
(-8.0729e-10 -9.7345e-10 0)
(-1.30022e-09 1.58893e-10 0)
(-1.33404e-09 8.64014e-10 0)
(-9.80785e-10 2.39993e-09 0)
(1.48318e-09 1.71509e-09 0)
)
;

boundaryField
{
    sides
    {
        type            calculated;
        value           nonuniform List<vector> 
40
(
(2.47592e-10 0 0)
(2.98716e-10 0 0)
(-1.07624e-09 0 0)
(-1.60024e-09 0 0)
(-1.76337e-09 0 0)
(-2.87958e-10 0 0)
(-3.7196e-10 0 0)
(8.09203e-10 0 0)
(2.39764e-09 0 0)
(2.31072e-09 0 0)
(2.84774e-09 0 0)
(2.92778e-09 0 0)
(2.34415e-09 0 0)
(1.32346e-09 0 0)
(4.03184e-10 0 0)
(-8.0729e-10 0 0)
(-1.30022e-09 0 0)
(-1.33404e-09 0 0)
(-9.80785e-10 0 0)
(1.48318e-09 0 0)
(-3.05672e-10 0 0)
(-4.89902e-10 0 0)
(1.03478e-09 0 0)
(1.66832e-09 0 0)
(1.41137e-09 0 0)
(8.74745e-10 0 0)
(-1.69301e-10 0 0)
(-6.35022e-09 0 0)
(-1.55406e-09 0 0)
(-1.13222e-09 0 0)
(-3.51827e-09 0 0)
(-3.27454e-09 0 0)
(-2.11997e-09 0 0)
(-1.15668e-09 0 0)
(-4.85313e-10 0 0)
(7.41052e-10 0 0)
(1.3972e-09 0 0)
(1.44584e-09 0 0)
(9.85764e-10 0 0)
(-1.53751e-09 0 0)
)
;
    }
    inlet
    {
        type            calculated;
        value           uniform (0 0 0);
    }
    outlet
    {
        type            calculated;
        value           nonuniform List<vector> 
20
(
(-1.53751e-09 1.70294e-09 0)
(-1.22388e-09 1.27144e-09 0)
(-1.71963e-09 3.86778e-09 0)
(-8.6986e-10 4.95393e-09 0)
(-1.30805e-09 5.55672e-09 0)
(-1.07984e-09 7.57493e-09 0)
(-4.78411e-10 7.55901e-09 0)
(-9.8322e-10 8.70691e-09 0)
(-3.83635e-10 8.84626e-09 0)
(-3.85789e-10 9.10338e-09 0)
(1.31589e-10 9.10735e-09 0)
(2.76302e-10 8.85487e-09 0)
(1.03105e-09 8.70143e-09 0)
(6.05993e-10 7.51697e-09 0)
(1.22783e-09 7.51708e-09 0)
(1.4133e-09 5.5214e-09 0)
(9.10434e-10 4.96176e-09 0)
(1.7029e-09 3.89423e-09 0)
(1.17231e-09 1.29817e-09 0)
(1.48318e-09 1.71509e-09 0)
)
;
    }
    frontAndBack
    {
        type            empty;
    }
}


// ************************************************************************* //
