/*--------------------------------*- C++ -*----------------------------------*\
  =========                 |
  \\      /  F ield         | OpenFOAM: The Open Source CFD Toolbox
   \\    /   O peration     | Website:  https://openfoam.org
    \\  /    A nd           | Version:  7
     \\/     M anipulation  |
\*---------------------------------------------------------------------------*/
FoamFile
{
    version     2.0;
    format      ascii;
    class       volVectorField;
    location    "41";
    object      hU_0;
}
// * * * * * * * * * * * * * * * * * * * * * * * * * * * * * * * * * * * * * //

dimensions      [0 2 -1 0 0 0 0];

internalField   nonuniform List<vector> 
400
(
(0.001 -8.50336e-09 0)
(0.001 -2.28839e-08 0)
(0.001 -3.44274e-08 0)
(0.001 -4.45891e-08 0)
(0.00100001 -5.46157e-08 0)
(0.00100001 -6.5206e-08 0)
(0.00100002 -7.65302e-08 0)
(0.00100003 -8.84729e-08 0)
(0.00100004 -1.00181e-07 0)
(0.00100006 -1.12785e-07 0)
(0.00100007 -1.23757e-07 0)
(0.0010001 -1.37174e-07 0)
(0.00100012 -1.47114e-07 0)
(0.00100016 -1.63111e-07 0)
(0.00100018 -1.71176e-07 0)
(0.00100024 -1.94486e-07 0)
(0.00100026 -1.98965e-07 0)
(0.00100038 -2.41369e-07 0)
(0.00100038 -2.38326e-07 0)
(0.0010006 -3.3263e-07 0)
(0.001 3.78714e-09 0)
(0.00100001 1.19333e-08 0)
(0.00100001 1.99834e-08 0)
(0.00100001 2.77423e-08 0)
(0.00100002 3.51299e-08 0)
(0.00100002 4.19782e-08 0)
(0.00100003 4.81347e-08 0)
(0.00100004 5.36103e-08 0)
(0.00100005 5.87428e-08 0)
(0.00100007 6.24751e-08 0)
(0.00100008 6.69813e-08 0)
(0.0010001 6.84093e-08 0)
(0.00100012 7.23455e-08 0)
(0.00100016 6.96357e-08 0)
(0.00100018 7.40078e-08 0)
(0.00100024 6.21635e-08 0)
(0.00100026 6.8108e-08 0)
(0.00100035 3.28355e-08 0)
(0.00100037 4.11332e-08 0)
(0.0010005 -5.4432e-08 0)
(0.001 -3.83194e-09 0)
(0.001 -1.18721e-08 0)
(0.001 -2.09848e-08 0)
(0.001 -3.08959e-08 0)
(0.00100001 -4.10583e-08 0)
(0.00100001 -5.21131e-08 0)
(0.00100002 -6.34912e-08 0)
(0.00100003 -7.63233e-08 0)
(0.00100004 -8.89874e-08 0)
(0.00100005 -1.03609e-07 0)
(0.00100007 -1.16922e-07 0)
(0.00100009 -1.34142e-07 0)
(0.00100011 -1.47798e-07 0)
(0.00100014 -1.70069e-07 0)
(0.00100016 -1.83879e-07 0)
(0.00100021 -2.18111e-07 0)
(0.00100023 -2.32096e-07 0)
(0.00100031 -2.94043e-07 0)
(0.00100033 -3.03622e-07 0)
(0.00100046 -4.23141e-07 0)
(0.001 1.33171e-10 0)
(0.001 1.51654e-09 0)
(0.00100001 3.51991e-09 0)
(0.00100001 5.2927e-09 0)
(0.00100001 6.57693e-09 0)
(0.00100002 6.30357e-09 0)
(0.00100003 5.03296e-09 0)
(0.00100003 1.62932e-09 0)
(0.00100004 -1.86148e-09 0)
(0.00100006 -7.82738e-09 0)
(0.00100007 -1.28826e-08 0)
(0.00100009 -2.24161e-08 0)
(0.00100011 -2.87383e-08 0)
(0.00100014 -4.44023e-08 0)
(0.00100016 -5.21492e-08 0)
(0.0010002 -8.14266e-08 0)
(0.00100022 -9.1087e-08 0)
(0.00100028 -1.50241e-07 0)
(0.0010003 -1.57322e-07 0)
(0.00100039 -2.76727e-07 0)
(0.001 -2.8588e-09 0)
(0.001 -8.33267e-09 0)
(0.001 -1.43833e-08 0)
(0.001 -2.14729e-08 0)
(0.00100001 -2.94458e-08 0)
(0.00100001 -3.90846e-08 0)
(0.00100002 -4.98338e-08 0)
(0.00100002 -6.27332e-08 0)
(0.00100003 -7.59753e-08 0)
(0.00100004 -9.20075e-08 0)
(0.00100005 -1.07302e-07 0)
(0.00100007 -1.27376e-07 0)
(0.00100009 -1.44378e-07 0)
(0.00100011 -1.71107e-07 0)
(0.00100013 -1.8981e-07 0)
(0.00100016 -2.30485e-07 0)
(0.00100018 -2.50857e-07 0)
(0.00100024 -3.21545e-07 0)
(0.00100025 -3.37316e-07 0)
(0.00100033 -4.65201e-07 0)
(0.001 -2.09467e-09 0)
(0.001 -5.24621e-09 0)
(0.001 -7.91499e-09 0)
(0.00100001 -1.09689e-08 0)
(0.00100001 -1.49012e-08 0)
(0.00100001 -2.08166e-08 0)
(0.00100002 -2.8258e-08 0)
(0.00100002 -3.81194e-08 0)
(0.00100003 -4.84891e-08 0)
(0.00100004 -6.17258e-08 0)
(0.00100005 -7.41564e-08 0)
(0.00100007 -9.13476e-08 0)
(0.00100008 -1.05536e-07 0)
(0.0010001 -1.29522e-07 0)
(0.00100012 -1.46041e-07 0)
(0.00100014 -1.84665e-07 0)
(0.00100016 -2.04203e-07 0)
(0.0010002 -2.73751e-07 0)
(0.00100021 -2.89379e-07 0)
(0.00100027 -4.167e-07 0)
(0.001 -2.57246e-09 0)
(0.001 -7.19662e-09 0)
(0.001 -1.18593e-08 0)
(0.001 -1.7335e-08 0)
(0.00100001 -2.40285e-08 0)
(0.00100001 -3.29886e-08 0)
(0.00100001 -4.37463e-08 0)
(0.00100002 -5.72379e-08 0)
(0.00100002 -7.15832e-08 0)
(0.00100003 -8.92097e-08 0)
(0.00100004 -1.0643e-07 0)
(0.00100005 -1.2883e-07 0)
(0.00100006 -1.48438e-07 0)
(0.00100008 -1.78071e-07 0)
(0.00100009 -1.99967e-07 0)
(0.00100011 -2.44122e-07 0)
(0.00100012 -2.68168e-07 0)
(0.00100015 -3.42857e-07 0)
(0.00100016 -3.61502e-07 0)
(0.00100021 -4.93264e-07 0)
(0.001 -2.80786e-09 0)
(0.001 -7.8174e-09 0)
(0.001 -1.25587e-08 0)
(0.001 -1.79346e-08 0)
(0.001 -2.45651e-08 0)
(0.00100001 -3.3604e-08 0)
(0.00100001 -4.45294e-08 0)
(0.00100001 -5.82221e-08 0)
(0.00100002 -7.26828e-08 0)
(0.00100002 -9.02512e-08 0)
(0.00100003 -1.07207e-07 0)
(0.00100004 -1.29163e-07 0)
(0.00100005 -1.48309e-07 0)
(0.00100006 -1.77324e-07 0)
(0.00100007 -1.98942e-07 0)
(0.00100008 -2.42652e-07 0)
(0.00100009 -2.67234e-07 0)
(0.00100011 -3.4186e-07 0)
(0.00100012 -3.61402e-07 0)
(0.00100015 -4.92545e-07 0)
(0.001 -2.9284e-09 0)
(0.001 -8.22141e-09 0)
(0.001 -1.31558e-08 0)
(0.001 -1.87494e-08 0)
(0.001 -2.57092e-08 0)
(0.001 -3.51706e-08 0)
(0.00100001 -4.6569e-08 0)
(0.00100001 -6.08508e-08 0)
(0.00100001 -7.61126e-08 0)
(0.00100001 -9.47938e-08 0)
(0.00100002 -1.13182e-07 0)
(0.00100002 -1.36893e-07 0)
(0.00100003 -1.57913e-07 0)
(0.00100003 -1.88949e-07 0)
(0.00100004 -2.12408e-07 0)
(0.00100005 -2.58081e-07 0)
(0.00100005 -2.84009e-07 0)
(0.00100007 -3.6047e-07 0)
(0.00100007 -3.8067e-07 0)
(0.00100009 -5.14047e-07 0)
(0.001 -2.99317e-09 0)
(0.001 -8.44192e-09 0)
(0.001 -1.34877e-08 0)
(0.001 -1.91692e-08 0)
(0.001 -2.6225e-08 0)
(0.001 -3.58831e-08 0)
(0.001 -4.76571e-08 0)
(0.001 -6.24999e-08 0)
(0.001 -7.83865e-08 0)
(0.001 -9.76033e-08 0)
(0.00100001 -1.16404e-07 0)
(0.00100001 -1.40382e-07 0)
(0.00100001 -1.6161e-07 0)
(0.00100001 -1.92765e-07 0)
(0.00100001 -2.16468e-07 0)
(0.00100002 -2.6228e-07 0)
(0.00100002 -2.88676e-07 0)
(0.00100002 -3.6528e-07 0)
(0.00100002 -3.86026e-07 0)
(0.00100003 -5.19117e-07 0)
(0.001 -2.9941e-09 0)
(0.001 -8.44176e-09 0)
(0.001 -1.34858e-08 0)
(0.000999999 -1.9166e-08 0)
(0.000999999 -2.62229e-08 0)
(0.000999999 -3.58829e-08 0)
(0.000999998 -4.76585e-08 0)
(0.000999997 -6.25054e-08 0)
(0.000999996 -7.83911e-08 0)
(0.000999995 -9.76091e-08 0)
(0.000999994 -1.16408e-07 0)
(0.000999993 -1.40384e-07 0)
(0.000999991 -1.61616e-07 0)
(0.000999989 -1.92773e-07 0)
(0.000999987 -2.16477e-07 0)
(0.000999984 -2.62285e-07 0)
(0.000999982 -2.88676e-07 0)
(0.000999978 -3.65271e-07 0)
(0.000999977 -3.86008e-07 0)
(0.000999971 -5.19104e-07 0)
(0.001 -2.92917e-09 0)
(0.001 -8.22009e-09 0)
(0.000999999 -1.31515e-08 0)
(0.000999998 -1.87451e-08 0)
(0.000999997 -2.57071e-08 0)
(0.000999996 -3.51731e-08 0)
(0.000999994 -4.65742e-08 0)
(0.000999992 -6.08634e-08 0)
(0.000999989 -7.61266e-08 0)
(0.000999986 -9.48088e-08 0)
(0.000999982 -1.13195e-07 0)
(0.000999977 -1.369e-07 0)
(0.000999973 -1.57923e-07 0)
(0.000999966 -1.88957e-07 0)
(0.000999961 -2.12418e-07 0)
(0.000999952 -2.58078e-07 0)
(0.000999946 -2.83997e-07 0)
(0.000999933 -3.60423e-07 0)
(0.00099993 -3.80613e-07 0)
(0.000999911 -5.13973e-07 0)
(0.001 -2.80539e-09 0)
(0.000999999 -7.81343e-09 0)
(0.000999998 -1.25562e-08 0)
(0.000999997 -1.79361e-08 0)
(0.000999995 -2.45706e-08 0)
(0.000999993 -3.36062e-08 0)
(0.000999991 -4.45357e-08 0)
(0.000999987 -5.82295e-08 0)
(0.000999983 -7.26932e-08 0)
(0.000999977 -9.02656e-08 0)
(0.000999971 -1.07229e-07 0)
(0.000999963 -1.29187e-07 0)
(0.000999955 -1.4833e-07 0)
(0.000999944 -1.77338e-07 0)
(0.000999934 -1.9896e-07 0)
(0.00099992 -2.42662e-07 0)
(0.00099991 -2.67242e-07 0)
(0.00099989 -3.41846e-07 0)
(0.000999883 -3.61386e-07 0)
(0.000999853 -4.92522e-07 0)
(0.001 -2.56651e-09 0)
(0.000999999 -7.19156e-09 0)
(0.000999997 -1.18602e-08 0)
(0.000999996 -1.7343e-08 0)
(0.000999994 -2.4031e-08 0)
(0.000999991 -3.29877e-08 0)
(0.000999987 -4.37401e-08 0)
(0.000999982 -5.72358e-08 0)
(0.000999977 -7.15695e-08 0)
(0.000999969 -8.91886e-08 0)
(0.000999961 -1.06422e-07 0)
(0.00099995 -1.2883e-07 0)
(0.00099994 -1.48437e-07 0)
(0.000999925 -1.78049e-07 0)
(0.000999912 -1.99941e-07 0)
(0.00099989 -2.44072e-07 0)
(0.000999877 -2.68126e-07 0)
(0.000999846 -3.42774e-07 0)
(0.000999839 -3.61431e-07 0)
(0.000999792 -4.93125e-07 0)
(0.001 -2.08864e-09 0)
(0.000999998 -5.24387e-09 0)
(0.000999996 -7.92113e-09 0)
(0.000999994 -1.09788e-08 0)
(0.000999991 -1.49006e-08 0)
(0.000999987 -2.08348e-08 0)
(0.000999982 -2.82485e-08 0)
(0.000999976 -3.81284e-08 0)
(0.000999969 -4.85002e-08 0)
(0.000999959 -6.17111e-08 0)
(0.000999948 -7.41426e-08 0)
(0.000999934 -9.13491e-08 0)
(0.00099992 -1.0555e-07 0)
(0.000999901 -1.29529e-07 0)
(0.000999884 -1.46044e-07 0)
(0.000999858 -1.84659e-07 0)
(0.000999841 -2.04216e-07 0)
(0.000999802 -2.73757e-07 0)
(0.00099979 -2.89406e-07 0)
(0.000999733 -4.16698e-07 0)
(0.001 -2.86196e-09 0)
(0.000999999 -8.33258e-09 0)
(0.000999998 -1.43814e-08 0)
(0.000999996 -2.14571e-08 0)
(0.000999993 -2.94409e-08 0)
(0.000999989 -3.90827e-08 0)
(0.000999984 -4.98179e-08 0)
(0.000999977 -6.27011e-08 0)
(0.000999969 -7.5986e-08 0)
(0.000999957 -9.1997e-08 0)
(0.000999945 -1.07263e-07 0)
(0.000999929 -1.27329e-07 0)
(0.000999913 -1.44352e-07 0)
(0.000999889 -1.71077e-07 0)
(0.00099987 -1.89788e-07 0)
(0.000999835 -2.30432e-07 0)
(0.000999816 -2.5083e-07 0)
(0.000999764 -3.2147e-07 0)
(0.000999753 -3.37272e-07 0)
(0.000999671 -4.6505e-07 0)
(0.001 1.20985e-10 0)
(0.000999997 1.50762e-09 0)
(0.000999993 3.52598e-09 0)
(0.000999989 5.31927e-09 0)
(0.000999985 6.56327e-09 0)
(0.00099998 6.33526e-09 0)
(0.000999974 5.00787e-09 0)
(0.000999966 1.70336e-09 0)
(0.000999956 -1.86415e-09 0)
(0.000999943 -7.85344e-09 0)
(0.000999929 -1.28791e-08 0)
(0.00099991 -2.23891e-08 0)
(0.000999892 -2.87204e-08 0)
(0.000999865 -4.439e-08 0)
(0.000999842 -5.21492e-08 0)
(0.000999803 -8.14097e-08 0)
(0.000999779 -9.10829e-08 0)
(0.00099972 -1.50212e-07 0)
(0.0009997 -1.57316e-07 0)
(0.000999613 -2.76681e-07 0)
(0.001 -3.83603e-09 0)
(0.001 -1.18751e-08 0)
(0.000999999 -2.09795e-08 0)
(0.000999997 -3.08954e-08 0)
(0.000999994 -4.10674e-08 0)
(0.000999989 -5.20531e-08 0)
(0.000999982 -6.35298e-08 0)
(0.000999973 -7.62451e-08 0)
(0.000999963 -8.89563e-08 0)
(0.000999949 -1.03624e-07 0)
(0.000999934 -1.16953e-07 0)
(0.000999913 -1.3415e-07 0)
(0.000999894 -1.47801e-07 0)
(0.000999861 -1.70061e-07 0)
(0.000999838 -1.83898e-07 0)
(0.000999789 -2.18104e-07 0)
(0.000999766 -2.32117e-07 0)
(0.000999687 -2.94009e-07 0)
(0.000999674 -3.03632e-07 0)
(0.000999541 -4.23067e-07 0)
(0.001 3.79223e-09 0)
(0.000999995 1.19393e-08 0)
(0.000999989 1.99797e-08 0)
(0.000999985 2.77018e-08 0)
(0.000999981 3.51491e-08 0)
(0.000999975 4.18876e-08 0)
(0.000999969 4.81547e-08 0)
(0.00099996 5.33848e-08 0)
(0.000999949 5.87672e-08 0)
(0.000999934 6.25053e-08 0)
(0.000999918 6.69419e-08 0)
(0.000999896 6.83837e-08 0)
(0.000999875 7.23522e-08 0)
(0.000999842 6.96701e-08 0)
(0.000999816 7.40259e-08 0)
(0.000999765 6.22042e-08 0)
(0.000999737 6.81337e-08 0)
(0.000999654 3.29128e-08 0)
(0.000999631 4.11846e-08 0)
(0.000999497 -5.43078e-08 0)
(0.001 -8.4993e-09 0)
(0.001 -2.28804e-08 0)
(0.000999998 -3.44344e-08 0)
(0.000999996 -4.46213e-08 0)
(0.000999992 -5.46077e-08 0)
(0.000999986 -6.53446e-08 0)
(0.000999978 -7.65132e-08 0)
(0.000999968 -8.87459e-08 0)
(0.000999958 -1.00209e-07 0)
(0.000999942 -1.12787e-07 0)
(0.000999927 -1.23814e-07 0)
(0.000999902 -1.37234e-07 0)
(0.000999883 -1.47159e-07 0)
(0.000999843 -1.63149e-07 0)
(0.000999824 -1.71226e-07 0)
(0.000999758 -1.94537e-07 0)
(0.000999741 -1.99026e-07 0)
(0.000999623 -2.41436e-07 0)
(0.00099962 -2.38404e-07 0)
(0.000999395 -3.32761e-07 0)
)
;

boundaryField
{
    sides
    {
        type            slip;
    }
    inlet
    {
        type            fixedValue;
        value           uniform (0.001 0 0);
    }
    outlet
    {
        type            zeroGradient;
    }
    frontAndBack
    {
        type            empty;
    }
}


// ************************************************************************* //
