/*--------------------------------*- C++ -*----------------------------------*\
  =========                 |
  \\      /  F ield         | OpenFOAM: The Open Source CFD Toolbox
   \\    /   O peration     | Website:  https://openfoam.org
    \\  /    A nd           | Version:  7
     \\/     M anipulation  |
\*---------------------------------------------------------------------------*/
FoamFile
{
    version     2.0;
    format      ascii;
    class       surfaceScalarField;
    location    "41";
    object      phi;
}
// * * * * * * * * * * * * * * * * * * * * * * * * * * * * * * * * * * * * * //

dimensions      [0 4 -1 0 0 0 0];

internalField   nonuniform List<scalar> 
760
(
4.99999e-06
1.03669e-11
5e-06
-2.53224e-12
5.00001e-06
-9.67599e-12
5.00003e-06
-1.49446e-11
5.00006e-06
-2.11106e-11
5.00009e-06
-3.03998e-11
5.00013e-06
-4.37826e-11
5.00018e-06
-6.06149e-11
5.00025e-06
-6.21028e-11
5.00033e-06
-7.92892e-11
5.00042e-06
-9.23509e-11
5.00054e-06
-1.16433e-10
5.00067e-06
-1.28872e-10
5.00084e-06
-1.68098e-10
5.00101e-06
-1.76441e-10
5.00127e-06
-2.52337e-10
5.00152e-06
-2.50288e-10
5.00194e-06
-4.25511e-10
5.00235e-06
-4.08598e-10
-8.92395e-10
5.00003e-06
-1.31334e-11
5.00004e-06
-1.62293e-11
5.00006e-06
-2.28573e-11
5.00008e-06
-3.29729e-11
5.00011e-06
-4.38826e-11
5.00014e-06
-5.84494e-11
5.00018e-06
-7.58142e-11
5.00023e-06
-9.8952e-11
5.00029e-06
-1.22509e-10
5.00037e-06
-1.55777e-10
5.00046e-06
-1.82028e-10
5.00057e-06
-2.27728e-10
5.0007e-06
-2.55275e-10
5.00085e-06
-3.25484e-10
5.00103e-06
-3.51202e-10
5.00126e-06
-4.77193e-10
5.0015e-06
-4.97011e-10
5.00183e-06
-7.55323e-10
5.00217e-06
-7.48467e-10
-1.26286e-09
4.99999e-06
-3.65047e-12
5e-06
-1.61719e-11
5.00001e-06
-2.87868e-11
5.00002e-06
-4.37665e-11
5.00004e-06
-6.10224e-11
5.00007e-06
-8.34836e-11
5.00011e-06
-1.09917e-10
5.00016e-06
-1.44292e-10
5.00022e-06
-1.8056e-10
5.00029e-06
-2.26968e-10
5.00038e-06
-2.69067e-10
5.00048e-06
-3.31367e-10
5.00061e-06
-3.79017e-10
5.00075e-06
-4.69161e-10
5.00092e-06
-5.21228e-10
5.00112e-06
-6.72913e-10
5.00135e-06
-7.29636e-10
5.00162e-06
-1.022e-09
5.00193e-06
-1.06606e-09
-1.69185e-09
5.00001e-06
-1.30447e-11
5.00003e-06
-2.83052e-11
5.00005e-06
-4.28539e-11
5.00006e-06
-6.0167e-11
5.00009e-06
-8.05068e-11
5.00011e-06
-1.09067e-10
5.00015e-06
-1.42716e-10
5.00019e-06
-1.87764e-10
5.00025e-06
-2.33747e-10
5.00032e-06
-2.93133e-10
5.0004e-06
-3.4763e-10
5.00049e-06
-4.26343e-10
5.0006e-06
-4.88049e-10
5.00073e-06
-5.98901e-10
5.00088e-06
-6.67177e-10
5.00105e-06
-8.47403e-10
5.00125e-06
-9.23096e-10
5.00148e-06
-1.25533e-09
5.00172e-06
-1.30896e-09
-1.8998e-09
5e-06
-1.05921e-11
5.00001e-06
-2.9655e-11
5.00001e-06
-4.81903e-11
5.00003e-06
-6.97306e-11
5.00005e-06
-9.52195e-11
5.00007e-06
-1.29638e-10
5.0001e-06
-1.70607e-10
5.00014e-06
-2.23418e-10
5.00018e-06
-2.79141e-10
5.00024e-06
-3.49176e-10
5.00031e-06
-4.16491e-10
5.00039e-06
-5.07662e-10
5.00049e-06
-5.84827e-10
5.0006e-06
-7.09879e-10
5.00073e-06
-7.97162e-10
5.00088e-06
-9.92258e-10
5.00104e-06
-1.08904e-09
5.00122e-06
-1.43275e-09
5.00142e-06
-1.50656e-09
-2.16577e-09
5.00001e-06
-1.32882e-11
5.00001e-06
-3.58874e-11
5.00003e-06
-5.69167e-11
5.00004e-06
-8.05512e-11
5.00005e-06
-1.08872e-10
5.00008e-06
-1.47729e-10
5.0001e-06
-1.94966e-10
5.00014e-06
-2.55511e-10
5.00018e-06
-3.19683e-10
5.00023e-06
-3.99635e-10
5.00029e-06
-4.76635e-10
5.00036e-06
-5.7877e-10
5.00045e-06
-6.65917e-10
5.00054e-06
-8.02822e-10
5.00064e-06
-9.0045e-10
5.00076e-06
-1.10953e-09
5.00089e-06
-1.21797e-09
5.00104e-06
-1.58144e-09
5.0012e-06
-1.66638e-09
-2.29684e-09
5e-06
-1.43576e-11
5.00001e-06
-3.93393e-11
5.00002e-06
-6.24709e-11
5.00003e-06
-8.82603e-11
5.00004e-06
-1.1941e-10
5.00006e-06
-1.62022e-10
5.00008e-06
-2.13847e-10
5.0001e-06
-2.79726e-10
5.00013e-06
-3.50098e-10
5.00017e-06
-4.36778e-10
5.00022e-06
-5.21546e-10
5.00027e-06
-6.31904e-10
5.00034e-06
-7.28761e-10
5.00041e-06
-8.75163e-10
5.00049e-06
-9.83652e-10
5.00059e-06
-1.20201e-09
5.00069e-06
-1.32075e-09
5.0008e-06
-1.69014e-09
5.00091e-06
-1.77863e-09
-2.44511e-09
5e-06
-1.49956e-11
5.00001e-06
-4.18889e-11
5.00001e-06
-6.6644e-11
5.00002e-06
-9.38643e-11
5.00003e-06
-1.26854e-10
5.00004e-06
-1.71983e-10
5.00006e-06
-2.27218e-10
5.00007e-06
-2.97508e-10
5.0001e-06
-3.72973e-10
5.00013e-06
-4.65333e-10
5.00016e-06
-5.55889e-10
5.00021e-06
-6.72427e-10
5.00025e-06
-7.75381e-10
5.00031e-06
-9.27844e-10
5.00036e-06
-1.04195e-09
5.00043e-06
-1.266e-09
5.0005e-06
-1.39035e-09
5.00058e-06
-1.76728e-09
5.00066e-06
-1.86434e-09
-2.52002e-09
5e-06
-1.54147e-11
5e-06
-4.34549e-11
5.00001e-06
-6.91154e-11
5.00001e-06
-9.71686e-11
5.00002e-06
-1.31411e-10
5.00002e-06
-1.78295e-10
5.00003e-06
-2.3574e-10
5.00005e-06
-3.08578e-10
5.00006e-06
-3.86924e-10
5.00008e-06
-4.82296e-10
5.0001e-06
-5.75992e-10
5.00012e-06
-6.95901e-10
5.00015e-06
-8.02466e-10
5.00018e-06
-9.58689e-10
5.00022e-06
-1.07686e-09
5.00026e-06
-1.30509e-09
5.0003e-06
-1.43345e-09
5.00035e-06
-1.81394e-09
5.00039e-06
-1.91084e-09
-2.57592e-09
5e-06
-1.55499e-11
5e-06
-4.3959e-11
5e-06
-6.99162e-11
5e-06
-9.83331e-11
5.00001e-06
-1.33081e-10
5.00001e-06
-1.80575e-10
5.00001e-06
-2.38611e-10
5.00002e-06
-3.12067e-10
5.00002e-06
-3.9119e-10
5.00003e-06
-4.87598e-10
5.00003e-06
-5.8269e-10
5.00004e-06
-7.04195e-10
5.00005e-06
-8.12319e-10
5.00006e-06
-9.69727e-10
5.00007e-06
-1.08892e-09
5.00009e-06
-1.31767e-09
5.0001e-06
-1.44693e-09
5.00011e-06
-1.82782e-09
5.00013e-06
-1.92706e-09
-2.59218e-09
5e-06
-1.54035e-11
5e-06
-4.34518e-11
5e-06
-6.90903e-11
5e-06
-9.71707e-11
4.99999e-06
-1.31416e-10
4.99999e-06
-1.78341e-10
4.99999e-06
-2.35784e-10
4.99998e-06
-3.08655e-10
4.99998e-06
-3.87e-10
4.99997e-06
-4.82373e-10
4.99997e-06
-5.76091e-10
4.99996e-06
-6.9595e-10
4.99995e-06
-8.02491e-10
4.99994e-06
-9.58748e-10
4.99993e-06
-1.07695e-09
4.99991e-06
-1.30516e-09
4.9999e-06
-1.43353e-09
4.99989e-06
-1.81393e-09
4.99987e-06
-1.91075e-09
-2.57574e-09
5e-06
-1.49849e-11
5e-06
-4.18625e-11
4.99999e-06
-6.66319e-11
4.99999e-06
-9.3886e-11
4.99998e-06
-1.26903e-10
4.99998e-06
-1.72031e-10
4.99997e-06
-2.27279e-10
4.99995e-06
-2.97571e-10
4.99994e-06
-3.73045e-10
4.99992e-06
-4.65411e-10
4.9999e-06
-5.56011e-10
4.99988e-06
-6.7254e-10
4.99985e-06
-7.75461e-10
4.99982e-06
-9.27911e-10
4.99978e-06
-1.04205e-09
4.99974e-06
-1.26605e-09
4.9997e-06
-1.39042e-09
4.99965e-06
-1.76721e-09
4.99961e-06
-1.86418e-09
-2.51977e-09
5e-06
-1.43348e-11
4.99999e-06
-3.93175e-11
4.99999e-06
-6.24863e-11
4.99998e-06
-8.83046e-11
4.99997e-06
-1.19434e-10
4.99996e-06
-1.62022e-10
4.99994e-06
-2.13842e-10
4.99993e-06
-2.79743e-10
4.9999e-06
-3.50073e-10
4.99987e-06
-4.36731e-10
4.99984e-06
-5.21559e-10
4.99979e-06
-6.31985e-10
4.99975e-06
-7.28867e-10
4.99969e-06
-8.75209e-10
4.99964e-06
-9.83686e-10
4.99957e-06
-1.20195e-09
4.9995e-06
-1.32071e-09
4.99942e-06
-1.68997e-09
4.99934e-06
-1.7785e-09
-2.44476e-09
5e-06
-1.3275e-11
4.99999e-06
-3.58828e-11
4.99998e-06
-5.69408e-11
4.99997e-06
-8.05499e-11
4.99996e-06
-1.08807e-10
4.99994e-06
-1.47788e-10
4.99992e-06
-1.9489e-10
4.9999e-06
-2.55499e-10
4.99987e-06
-3.19716e-10
4.99983e-06
-3.99516e-10
4.99978e-06
-4.76476e-10
4.99973e-06
-5.78691e-10
4.99966e-06
-6.65929e-10
4.99959e-06
-8.02789e-10
4.99951e-06
-9.00392e-10
4.99941e-06
-1.10935e-09
4.99931e-06
-1.21783e-09
4.9992e-06
-1.58119e-09
4.99909e-06
-1.66627e-09
-2.2965e-09
4.99999e-06
-1.06103e-11
4.99999e-06
-2.96779e-11
4.99997e-06
-4.81846e-11
4.99996e-06
-6.96368e-11
4.99994e-06
-9.52718e-11
4.99992e-06
-1.29573e-10
4.9999e-06
-1.70589e-10
4.99986e-06
-2.23211e-10
4.99982e-06
-2.79186e-10
4.99977e-06
-3.49237e-10
4.99971e-06
-4.16378e-10
4.99964e-06
-5.07479e-10
4.99956e-06
-5.84739e-10
4.99946e-06
-7.0979e-10
4.99936e-06
-7.97088e-10
4.99924e-06
-9.92065e-10
4.99911e-06
-1.08892e-09
4.99896e-06
-1.43249e-09
4.9988e-06
-1.50649e-09
-2.16539e-09
5e-06
-1.3103e-11
4.99999e-06
-2.83311e-11
4.99999e-06
-4.27884e-11
4.99997e-06
-6.00736e-11
4.99995e-06
-8.05659e-11
4.99993e-06
-1.08807e-10
4.9999e-06
-1.42868e-10
4.99986e-06
-1.87488e-10
4.99982e-06
-2.33561e-10
4.99976e-06
-2.93215e-10
4.99969e-06
-3.4768e-10
4.99961e-06
-4.262e-10
4.99951e-06
-4.8789e-10
4.9994e-06
-5.98729e-10
4.99927e-06
-6.67079e-10
4.99912e-06
-8.47212e-10
4.99896e-06
-9.22999e-10
4.99878e-06
-1.25504e-09
4.99858e-06
-1.30882e-09
-1.89932e-09
4.99999e-06
-3.69997e-12
4.99997e-06
-1.61735e-11
4.99995e-06
-2.87485e-11
4.99994e-06
-4.38104e-11
4.99991e-06
-6.09647e-11
4.99989e-06
-8.33784e-11
4.99985e-06
-1.10154e-10
4.99981e-06
-1.44377e-10
4.99975e-06
-1.80267e-10
4.99968e-06
-2.2694e-10
4.9996e-06
-2.69211e-10
4.99951e-06
-3.31401e-10
4.9994e-06
-3.78978e-10
4.99927e-06
-4.6906e-10
4.99912e-06
-5.21225e-10
4.99895e-06
-6.72836e-10
4.99875e-06
-7.29664e-10
4.99852e-06
-1.02179e-09
4.99828e-06
-1.066e-09
-1.69149e-09
5.00001e-06
-1.30867e-11
5e-06
-1.62101e-11
4.99999e-06
-2.29245e-11
4.99998e-06
-3.31502e-11
4.99996e-06
-4.3682e-11
4.99993e-06
-5.88207e-11
4.99989e-06
-7.57812e-11
4.99984e-06
-1.00123e-10
4.99978e-06
-1.22521e-10
4.99971e-06
-1.55606e-10
4.99962e-06
-1.82077e-10
4.99952e-06
-2.27821e-10
4.99939e-06
-2.55336e-10
4.99925e-06
-3.25408e-10
4.99908e-06
-3.51222e-10
4.99888e-06
-4.77108e-10
4.99865e-06
-4.97067e-10
4.99838e-06
-7.55083e-10
4.99807e-06
-7.48369e-10
-1.26238e-09
4.99997e-06
1.04469e-11
4.99996e-06
-2.52574e-12
4.99994e-06
-9.81149e-12
4.99992e-06
-1.50428e-11
4.99989e-06
-2.12597e-11
4.99986e-06
-2.81775e-11
4.99982e-06
-3.52234e-11
4.99977e-06
-5.87225e-11
4.99971e-06
-6.24775e-11
4.99963e-06
-7.93674e-11
4.99954e-06
-9.24205e-11
4.99943e-06
-1.16605e-10
4.9993e-06
-1.29044e-10
4.99915e-06
-1.68173e-10
4.99897e-06
-1.76542e-10
4.99875e-06
-2.52404e-10
4.9985e-06
-2.5042e-10
4.99817e-06
-4.25523e-10
4.99783e-06
-4.08667e-10
-8.92398e-10
5.00001e-06
5e-06
4.99999e-06
4.99997e-06
4.99994e-06
4.99991e-06
4.99987e-06
4.99982e-06
4.99975e-06
4.99967e-06
4.99958e-06
4.99946e-06
4.99933e-06
4.99916e-06
4.99899e-06
4.99873e-06
4.99848e-06
4.99806e-06
4.99765e-06
)
;

boundaryField
{
    sides
    {
        type            calculated;
        value           uniform 0;
    }
    inlet
    {
        type            calculated;
        value           nonuniform List<scalar> 
20
(
-5e-06
-5e-06
-5e-06
-5e-06
-5e-06
-5e-06
-5e-06
-5e-06
-5e-06
-5e-06
-5e-06
-5e-06
-5e-06
-5e-06
-5e-06
-5e-06
-5e-06
-5e-06
-5e-06
-5e-06
)
;
    }
    outlet
    {
        type            calculated;
        value           nonuniform List<scalar> 
20
(
5.00324e-06
5.00254e-06
5.00236e-06
5.00193e-06
5.00168e-06
5.00133e-06
5.00106e-06
5.00074e-06
5.00045e-06
5.00015e-06
4.99985e-06
4.99955e-06
4.99926e-06
4.99894e-06
4.99867e-06
4.99831e-06
4.99807e-06
4.99764e-06
4.99746e-06
4.99676e-06
)
;
    }
    frontAndBack
    {
        type            empty;
        value           nonuniform 0();
    }
}


// ************************************************************************* //
