/*--------------------------------*- C++ -*----------------------------------*\
  =========                 |
  \\      /  F ield         | OpenFOAM: The Open Source CFD Toolbox
   \\    /   O peration     | Website:  https://openfoam.org
    \\  /    A nd           | Version:  7
     \\/     M anipulation  |
\*---------------------------------------------------------------------------*/
FoamFile
{
    version     2.0;
    format      ascii;
    class       surfaceScalarField;
    location    "41";
    object      phi_0;
}
// * * * * * * * * * * * * * * * * * * * * * * * * * * * * * * * * * * * * * //

dimensions      [0 4 -1 0 0 0 0];

internalField   nonuniform List<scalar> 
760
(
4.99999e-06
1.05404e-11
5e-06
-2.02901e-12
5.00001e-06
-9.12438e-12
5.00003e-06
-1.43848e-11
5.00006e-06
-2.08317e-11
5.00009e-06
-2.91585e-11
5.00013e-06
-3.21156e-11
5.00018e-06
-4.2472e-11
5.00025e-06
-6.20612e-11
5.00033e-06
-7.94822e-11
5.00042e-06
-9.22676e-11
5.00054e-06
-1.16314e-10
5.00067e-06
-1.28718e-10
5.00084e-06
-1.67814e-10
5.00101e-06
-1.76052e-10
5.00126e-06
-2.51943e-10
5.00152e-06
-2.50194e-10
5.00194e-06
-4.25621e-10
5.00235e-06
-4.09263e-10
-8.93104e-10
5.00003e-06
-1.26572e-11
5.00004e-06
-1.53804e-11
5.00006e-06
-2.15871e-11
5.00008e-06
-3.19997e-11
5.00011e-06
-4.31653e-11
5.00014e-06
-5.84921e-11
5.00018e-06
-7.58055e-11
5.00023e-06
-9.96038e-11
5.00029e-06
-1.23327e-10
5.00037e-06
-1.56143e-10
5.00046e-06
-1.82136e-10
5.00057e-06
-2.27702e-10
5.0007e-06
-2.54942e-10
5.00086e-06
-3.24769e-10
5.00103e-06
-3.50247e-10
5.00126e-06
-4.76248e-10
5.0015e-06
-4.96721e-10
5.00183e-06
-7.55486e-10
5.00217e-06
-7.49759e-10
-1.2642e-09
4.99999e-06
-2.80379e-12
5e-06
-1.4947e-11
5.00001e-06
-2.74616e-11
5.00002e-06
-4.26123e-11
5.00004e-06
-6.00832e-11
5.00007e-06
-8.33838e-11
5.00011e-06
-1.10007e-10
5.00016e-06
-1.45491e-10
5.00022e-06
-1.81269e-10
5.00029e-06
-2.2743e-10
5.00038e-06
-2.694e-10
5.00048e-06
-3.31387e-10
5.00061e-06
-3.78391e-10
5.00075e-06
-4.67922e-10
5.00092e-06
-5.19699e-10
5.00112e-06
-6.71484e-10
5.00135e-06
-7.29213e-10
5.00162e-06
-1.02222e-09
5.00193e-06
-1.06807e-09
-1.69399e-09
5.00001e-06
-1.23068e-11
5.00003e-06
-2.68185e-11
5.00004e-06
-4.11113e-11
5.00006e-06
-5.86873e-11
5.00009e-06
-7.9522e-11
5.00011e-06
-1.08904e-10
5.00015e-06
-1.43382e-10
5.00019e-06
-1.88818e-10
5.00025e-06
-2.34622e-10
5.00032e-06
-2.93942e-10
5.0004e-06
-3.48144e-10
5.00049e-06
-4.26245e-10
5.0006e-06
-4.8703e-10
5.00073e-06
-5.97124e-10
5.00088e-06
-6.65068e-10
5.00105e-06
-8.45429e-10
5.00125e-06
-9.22428e-10
5.00148e-06
-1.25553e-09
5.00172e-06
-1.31146e-09
-1.90247e-09
5e-06
-9.87545e-12
5.00001e-06
-2.80909e-11
5.00001e-06
-4.63605e-11
5.00003e-06
-6.81076e-11
5.00004e-06
-9.42784e-11
5.00007e-06
-1.29351e-10
5.0001e-06
-1.7128e-10
5.00014e-06
-2.24434e-10
5.00018e-06
-2.80251e-10
5.00024e-06
-3.50196e-10
5.00031e-06
-4.16966e-10
5.00039e-06
-5.07311e-10
5.00049e-06
-5.83486e-10
5.0006e-06
-7.07765e-10
5.00073e-06
-7.94686e-10
5.00088e-06
-9.89892e-10
5.00104e-06
-1.08818e-09
5.00122e-06
-1.43294e-09
5.00142e-06
-1.50954e-09
-2.169e-09
5.00001e-06
-1.26305e-11
5.00001e-06
-3.42129e-11
5.00003e-06
-5.4882e-11
5.00004e-06
-7.86775e-11
5.00005e-06
-1.07824e-10
5.00008e-06
-1.47682e-10
5.0001e-06
-1.9582e-10
5.00014e-06
-2.56865e-10
5.00018e-06
-3.21111e-10
5.00023e-06
-4.00755e-10
5.00029e-06
-4.76941e-10
5.00036e-06
-5.78088e-10
5.00045e-06
-6.64122e-10
5.00054e-06
-8.00156e-10
5.00064e-06
-8.97384e-10
5.00076e-06
-1.10665e-09
5.00089e-06
-1.21694e-09
5.00104e-06
-1.58172e-09
5.0012e-06
-1.66998e-09
-2.30066e-09
5e-06
-1.37937e-11
5.00001e-06
-3.77645e-11
5.00002e-06
-6.04473e-11
5.00003e-06
-8.63999e-11
5.00004e-06
-1.18342e-10
5.00006e-06
-1.62012e-10
5.00008e-06
-2.14761e-10
5.0001e-06
-2.81132e-10
5.00013e-06
-3.5148e-10
5.00017e-06
-4.37789e-10
5.00022e-06
-5.21721e-10
5.00027e-06
-6.31147e-10
5.00034e-06
-7.2691e-10
5.00041e-06
-8.72361e-10
5.00049e-06
-9.80355e-10
5.00059e-06
-1.19885e-09
5.00069e-06
-1.31956e-09
5.0008e-06
-1.69034e-09
5.00091e-06
-1.78237e-09
-2.44917e-09
5e-06
-1.45223e-11
5.00001e-06
-4.04526e-11
5.00001e-06
-6.46432e-11
5.00002e-06
-9.20012e-11
5.00003e-06
-1.25827e-10
5.00004e-06
-1.72042e-10
5.00006e-06
-2.28254e-10
5.00007e-06
-2.99024e-10
5.0001e-06
-3.74472e-10
5.00013e-06
-4.66404e-10
5.00016e-06
-5.56088e-10
5.00021e-06
-6.71645e-10
5.00025e-06
-7.73335e-10
5.00031e-06
-9.24678e-10
5.00036e-06
-1.03822e-09
5.00043e-06
-1.26248e-09
5.0005e-06
-1.38906e-09
5.00057e-06
-1.76756e-09
5.00066e-06
-1.86848e-09
-2.52445e-09
5e-06
-1.50076e-11
5e-06
-4.21267e-11
5.00001e-06
-6.71332e-11
5.00001e-06
-9.53413e-11
5.00002e-06
-1.30442e-10
5.00002e-06
-1.78489e-10
5.00003e-06
-2.36865e-10
5.00005e-06
-3.10189e-10
5.00006e-06
-3.88473e-10
5.00008e-06
-4.83366e-10
5.0001e-06
-5.76202e-10
5.00012e-06
-6.95059e-10
5.00015e-06
-8.00255e-10
5.00018e-06
-9.5535e-10
5.00022e-06
-1.07303e-09
5.00026e-06
-1.3015e-09
5.0003e-06
-1.43211e-09
5.00035e-06
-1.81415e-09
5.00039e-06
-1.91495e-09
-2.58041e-09
5e-06
-1.51866e-11
5e-06
-4.26685e-11
5e-06
-6.79447e-11
5e-06
-9.65114e-11
5.00001e-06
-1.32127e-10
5.00001e-06
-1.80784e-10
5.00001e-06
-2.39727e-10
5.00002e-06
-3.13678e-10
5.00002e-06
-3.92735e-10
5.00003e-06
-4.88697e-10
5.00003e-06
-5.82953e-10
5.00004e-06
-7.03371e-10
5.00005e-06
-8.10059e-10
5.00006e-06
-9.66285e-10
5.00007e-06
-1.08495e-09
5.00009e-06
-1.31394e-09
5.0001e-06
-1.44548e-09
5.00011e-06
-1.82797e-09
5.00013e-06
-1.93126e-09
-2.59675e-09
5e-06
-1.50168e-11
5e-06
-4.21241e-11
5e-06
-6.71132e-11
5e-06
-9.53079e-11
4.99999e-06
-1.3042e-10
4.99999e-06
-1.78486e-10
4.99999e-06
-2.36881e-10
4.99998e-06
-3.10247e-10
4.99998e-06
-3.88526e-10
4.99997e-06
-4.83432e-10
4.99997e-06
-5.76251e-10
4.99996e-06
-6.95083e-10
4.99995e-06
-8.0031e-10
4.99994e-06
-9.55423e-10
4.99993e-06
-1.07311e-09
4.99991e-06
-1.30154e-09
4.9999e-06
-1.43211e-09
4.99989e-06
-1.81404e-09
4.99987e-06
-1.91478e-09
-2.5802e-09
5e-06
-1.45211e-11
5e-06
-4.044e-11
4.99999e-06
-6.46172e-11
4.99999e-06
-9.19897e-11
4.99998e-06
-1.25829e-10
4.99998e-06
-1.72071e-10
4.99997e-06
-2.28291e-10
4.99995e-06
-2.99094e-10
4.99994e-06
-3.7456e-10
4.99992e-06
-4.66496e-10
4.9999e-06
-5.56188e-10
4.99988e-06
-6.71724e-10
4.99985e-06
-7.73404e-10
4.99982e-06
-9.24729e-10
4.99978e-06
-1.0383e-09
4.99974e-06
-1.2625e-09
4.9997e-06
-1.38902e-09
4.99965e-06
-1.76736e-09
4.99961e-06
-1.86822e-09
-2.52416e-09
5e-06
-1.37702e-11
4.99999e-06
-3.77359e-11
4.99999e-06
-6.04482e-11
4.99998e-06
-8.64297e-11
4.99997e-06
-1.18401e-10
4.99996e-06
-1.62002e-10
4.99994e-06
-2.14782e-10
4.99993e-06
-2.81125e-10
4.9999e-06
-3.51474e-10
4.99987e-06
-4.37803e-10
4.99984e-06
-5.21796e-10
4.99979e-06
-6.31249e-10
4.99975e-06
-7.26987e-10
4.99969e-06
-8.72355e-10
4.99964e-06
-9.80349e-10
4.99957e-06
-1.19877e-09
4.9995e-06
-1.31949e-09
4.99943e-06
-1.69013e-09
4.99934e-06
-1.78219e-09
-2.4488e-09
5e-06
-1.25954e-11
4.99999e-06
-3.4195e-11
4.99998e-06
-5.48962e-11
4.99997e-06
-7.87441e-11
4.99996e-06
-1.07792e-10
4.99994e-06
-1.47705e-10
4.99992e-06
-1.95761e-10
4.9999e-06
-2.56896e-10
4.99987e-06
-3.21036e-10
4.99983e-06
-4.00596e-10
4.99978e-06
-4.76864e-10
4.99973e-06
-5.7809e-10
4.99966e-06
-6.64152e-10
4.99959e-06
-8.00101e-10
4.99951e-06
-8.97298e-10
4.99941e-06
-1.10648e-09
4.99931e-06
-1.21685e-09
4.9992e-06
-1.58152e-09
4.99909e-06
-1.66987e-09
-2.3003e-09
4.99999e-06
-9.86593e-12
4.99999e-06
-2.80917e-11
4.99997e-06
-4.63895e-11
4.99996e-06
-6.80783e-11
4.99995e-06
-9.42372e-11
4.99993e-06
-1.29479e-10
4.9999e-06
-1.71161e-10
4.99986e-06
-2.24411e-10
4.99982e-06
-2.80373e-10
4.99977e-06
-3.5011e-10
4.99971e-06
-4.16784e-10
4.99964e-06
-5.07179e-10
4.99955e-06
-5.83461e-10
4.99946e-06
-7.07711e-10
4.99936e-06
-7.94626e-10
4.99924e-06
-9.8973e-10
4.99911e-06
-1.08814e-09
4.99896e-06
-1.43276e-09
4.9988e-06
-1.5095e-09
-2.16862e-09
5e-06
-1.23494e-11
4.99999e-06
-2.68412e-11
4.99999e-06
-4.1089e-11
4.99997e-06
-5.85593e-11
4.99996e-06
-7.95674e-11
4.99993e-06
-1.08803e-10
4.9999e-06
-1.43326e-10
4.99986e-06
-1.88537e-10
4.99982e-06
-2.34683e-10
4.99976e-06
-2.94047e-10
4.99969e-06
-3.48054e-10
4.99961e-06
-4.26029e-10
4.99951e-06
-4.86896e-10
4.9994e-06
-5.97013e-10
4.99927e-06
-6.65016e-10
4.99912e-06
-8.45261e-10
4.99896e-06
-9.22365e-10
4.99878e-06
-1.2553e-09
4.99858e-06
-1.31137e-09
-1.90201e-09
4.99999e-06
-2.85978e-12
4.99997e-06
-1.49663e-11
4.99996e-06
-2.74176e-11
4.99994e-06
-4.25747e-11
4.99991e-06
-6.01574e-11
4.99989e-06
-8.30854e-11
4.99985e-06
-1.10354e-10
4.99981e-06
-1.45028e-10
4.99975e-06
-1.8111e-10
4.99968e-06
-2.27574e-10
4.9996e-06
-2.69512e-10
4.99951e-06
-3.31325e-10
4.9994e-06
-3.78316e-10
4.99927e-06
-4.67847e-10
4.99912e-06
-5.19733e-10
4.99895e-06
-6.7141e-10
4.99875e-06
-7.29227e-10
4.99852e-06
-1.02203e-09
4.99828e-06
-1.06804e-09
-1.69365e-09
5.00001e-06
-1.26462e-11
5e-06
-1.53679e-11
4.99999e-06
-2.15525e-11
4.99998e-06
-3.21399e-11
4.99996e-06
-4.31158e-11
4.99993e-06
-5.83263e-11
4.99989e-06
-7.65458e-11
4.99984e-06
-9.98989e-11
4.99978e-06
-1.22982e-10
4.99971e-06
-1.56094e-10
4.99962e-06
-1.82308e-10
4.99952e-06
-2.2778e-10
4.99939e-06
-2.5494e-10
4.99925e-06
-3.24663e-10
4.99908e-06
-3.50264e-10
4.99888e-06
-4.76147e-10
4.99865e-06
-4.96739e-10
4.99838e-06
-7.5522e-10
4.99807e-06
-7.49665e-10
-1.26373e-09
4.99997e-06
1.05817e-11
4.99996e-06
-2.00945e-12
4.99994e-06
-9.19108e-12
4.99992e-06
-1.45462e-11
4.99989e-06
-2.07766e-11
4.99986e-06
-3.11066e-11
4.99982e-06
-3.85051e-11
4.99977e-06
-4.51239e-11
4.99971e-06
-6.24127e-11
4.99963e-06
-7.9437e-11
4.99954e-06
-9.24201e-11
4.99943e-06
-1.16513e-10
4.9993e-06
-1.28837e-10
4.99915e-06
-1.67838e-10
4.99897e-06
-1.76131e-10
4.99875e-06
-2.51989e-10
4.9985e-06
-2.50292e-10
4.99817e-06
-4.25604e-10
4.99783e-06
-4.09326e-10
-8.93111e-10
5.00001e-06
5e-06
4.99999e-06
4.99997e-06
4.99994e-06
4.99991e-06
4.99987e-06
4.99982e-06
4.99975e-06
4.99967e-06
4.99958e-06
4.99946e-06
4.99933e-06
4.99916e-06
4.99899e-06
4.99873e-06
4.99848e-06
4.99806e-06
4.99765e-06
)
;

boundaryField
{
    sides
    {
        type            calculated;
        value           uniform 0;
    }
    inlet
    {
        type            calculated;
        value           nonuniform List<scalar> 
20
(
-5e-06
-5e-06
-5e-06
-5e-06
-5e-06
-5e-06
-5e-06
-5e-06
-5e-06
-5e-06
-5e-06
-5e-06
-5e-06
-5e-06
-5e-06
-5e-06
-5e-06
-5e-06
-5e-06
-5e-06
)
;
    }
    outlet
    {
        type            calculated;
        value           nonuniform List<scalar> 
20
(
5.00324e-06
5.00254e-06
5.00236e-06
5.00193e-06
5.00169e-06
5.00133e-06
5.00106e-06
5.00074e-06
5.00045e-06
5.00015e-06
4.99985e-06
4.99955e-06
4.99926e-06
4.99894e-06
4.99867e-06
4.99831e-06
4.99807e-06
4.99764e-06
4.99746e-06
4.99675e-06
)
;
    }
    frontAndBack
    {
        type            empty;
        value           nonuniform 0();
    }
}


// ************************************************************************* //
