/*--------------------------------*- C++ -*----------------------------------*\
  =========                 |
  \\      /  F ield         | OpenFOAM: The Open Source CFD Toolbox
   \\    /   O peration     | Website:  https://openfoam.org
    \\  /    A nd           | Version:  7
     \\/     M anipulation  |
\*---------------------------------------------------------------------------*/
FoamFile
{
    version     2.0;
    format      ascii;
    class       volVectorField;
    location    "41";
    object      U;
}
// * * * * * * * * * * * * * * * * * * * * * * * * * * * * * * * * * * * * * //

dimensions      [0 1 -1 0 0 0 0];

internalField   nonuniform List<vector> 
400
(
(0.0999931 -8.52006e-07 0)
(0.0999931 -2.29275e-06 0)
(0.0999933 -3.44992e-06 0)
(0.0999936 -4.46489e-06 0)
(0.099994 -5.4604e-06 0)
(0.0999948 -6.51349e-06 0)
(0.0999956 -7.64689e-06 0)
(0.0999967 -8.84978e-06 0)
(0.0999978 -1.00011e-05 0)
(0.0999996 -1.12702e-05 0)
(0.100001 -1.23759e-05 0)
(0.100004 -1.37212e-05 0)
(0.100006 -1.47202e-05 0)
(0.10001 -1.63244e-05 0)
(0.100013 -1.71317e-05 0)
(0.10002 -1.94579e-05 0)
(0.100022 -1.98948e-05 0)
(0.100035 -2.41286e-05 0)
(0.100036 -2.38091e-05 0)
(0.10006 -3.32453e-05 0)
(0.0999943 3.74506e-07 0)
(0.0999949 1.18211e-06 0)
(0.0999955 1.98959e-06 0)
(0.099996 2.76304e-06 0)
(0.0999964 3.50141e-06 0)
(0.0999971 4.18767e-06 0)
(0.0999978 4.79806e-06 0)
(0.0999988 5.34024e-06 0)
(0.1 5.8765e-06 0)
(0.100002 6.24458e-06 0)
(0.100003 6.69349e-06 0)
(0.100006 6.84177e-06 0)
(0.100008 7.23743e-06 0)
(0.100012 6.963e-06 0)
(0.100015 7.39612e-06 0)
(0.10002 6.20808e-06 0)
(0.100024 6.80573e-06 0)
(0.100033 3.28116e-06 0)
(0.100036 4.12007e-06 0)
(0.10005 -5.43075e-06 0)
(0.0999947 -3.97407e-07 0)
(0.0999948 -1.21562e-06 0)
(0.0999949 -2.1232e-06 0)
(0.0999951 -3.10833e-06 0)
(0.0999955 -4.11783e-06 0)
(0.0999961 -5.20799e-06 0)
(0.0999968 -6.33615e-06 0)
(0.0999978 -7.60592e-06 0)
(0.0999989 -8.87817e-06 0)
(0.1 -1.03472e-05 0)
(0.100002 -1.16857e-05 0)
(0.100004 -1.3415e-05 0)
(0.100007 -1.47921e-05 0)
(0.10001 -1.70299e-05 0)
(0.100013 -1.84161e-05 0)
(0.100018 -2.18363e-05 0)
(0.100021 -2.32149e-05 0)
(0.100029 -2.93964e-05 0)
(0.100031 -3.03215e-05 0)
(0.100045 -4.2275e-05 0)
(0.0999956 -1.40005e-09 0)
(0.0999959 1.22538e-07 0)
(0.0999964 3.161e-07 0)
(0.0999968 4.981e-07 0)
(0.0999973 6.35109e-07 0)
(0.0999979 6.24554e-07 0)
(0.0999986 5.12086e-07 0)
(0.0999995 1.84654e-07 0)
(0.100001 -1.70432e-07 0)
(0.100002 -7.68254e-07 0)
(0.100003 -1.27803e-06 0)
(0.100006 -2.24182e-06 0)
(0.100008 -2.89079e-06 0)
(0.100011 -4.47125e-06 0)
(0.100013 -5.25192e-06 0)
(0.100017 -8.17695e-06 0)
(0.10002 -9.11964e-06 0)
(0.100027 -1.50201e-05 0)
(0.100029 -1.56866e-05 0)
(0.100038 -2.76231e-05 0)
(0.0999962 -2.98387e-07 0)
(0.0999963 -8.59901e-07 0)
(0.0999965 -1.46994e-06 0)
(0.0999967 -2.17605e-06 0)
(0.099997 -2.96453e-06 0)
(0.0999975 -3.91694e-06 0)
(0.0999981 -4.97702e-06 0)
(0.0999989 -6.25963e-06 0)
(0.0999998 -7.58364e-06 0)
(0.100001 -9.18659e-06 0)
(0.100002 -1.07222e-05 0)
(0.100004 -1.27417e-05 0)
(0.100006 -1.44587e-05 0)
(0.100009 -1.71457e-05 0)
(0.100011 -1.9023e-05 0)
(0.100015 -2.30895e-05 0)
(0.100017 -2.51011e-05 0)
(0.100022 -3.21519e-05 0)
(0.100024 -3.36818e-05 0)
(0.100033 -4.64647e-05 0)
(0.0999969 -2.25203e-07 0)
(0.0999971 -5.60085e-07 0)
(0.0999974 -8.31769e-07 0)
(0.0999977 -1.13055e-06 0)
(0.099998 -1.50503e-06 0)
(0.0999984 -2.0761e-06 0)
(0.099999 -2.80014e-06 0)
(0.0999996 -3.77752e-06 0)
(0.1 -4.81448e-06 0)
(0.100002 -6.14517e-06 0)
(0.100003 -7.40556e-06 0)
(0.100004 -9.14618e-06 0)
(0.100006 -1.05889e-05 0)
(0.100008 -1.30051e-05 0)
(0.10001 -1.46645e-05 0)
(0.100013 -1.85218e-05 0)
(0.100015 -2.04381e-05 0)
(0.100019 -2.73666e-05 0)
(0.100021 -2.88633e-05 0)
(0.100027 -4.15941e-05 0)
(0.0999976 -2.69009e-07 0)
(0.0999977 -7.51801e-07 0)
(0.0999979 -1.22789e-06 0)
(0.0999981 -1.77474e-06 0)
(0.0999983 -2.43076e-06 0)
(0.0999987 -3.30824e-06 0)
(0.0999991 -4.36641e-06 0)
(0.0999997 -5.70486e-06 0)
(0.1 -7.13674e-06 0)
(0.100001 -8.9031e-06 0)
(0.100002 -1.06383e-05 0)
(0.100003 -1.28947e-05 0)
(0.100004 -1.48756e-05 0)
(0.100006 -1.78564e-05 0)
(0.100007 -2.00556e-05 0)
(0.10001 -2.44702e-05 0)
(0.100011 -2.68403e-05 0)
(0.100015 -3.42843e-05 0)
(0.100016 -3.60838e-05 0)
(0.100021 -4.92509e-05 0)
(0.0999983 -2.91135e-07 0)
(0.0999984 -8.12215e-07 0)
(0.0999985 -1.29701e-06 0)
(0.0999987 -1.83115e-06 0)
(0.0999988 -2.47637e-06 0)
(0.0999991 -3.35712e-06 0)
(0.0999994 -4.42937e-06 0)
(0.0999998 -5.78867e-06 0)
(0.1 -7.23617e-06 0)
(0.100001 -9.00301e-06 0)
(0.100002 -1.0718e-05 0)
(0.100002 -1.29346e-05 0)
(0.100003 -1.4874e-05 0)
(0.100005 -1.77964e-05 0)
(0.100006 -1.99681e-05 0)
(0.100007 -2.43335e-05 0)
(0.100008 -2.67468e-05 0)
(0.100011 -3.41779e-05 0)
(0.100011 -3.60557e-05 0)
(0.100015 -4.91669e-05 0)
(0.099999 -3.01643e-07 0)
(0.099999 -8.49813e-07 0)
(0.0999991 -1.35545e-06 0)
(0.0999992 -1.91144e-06 0)
(0.0999993 -2.59007e-06 0)
(0.0999995 -3.51415e-06 0)
(0.0999997 -4.63595e-06 0)
(0.0999999 -6.05518e-06 0)
(0.1 -7.5819e-06 0)
(0.100001 -9.45794e-06 0)
(0.100001 -1.13126e-05 0)
(0.100002 -1.3703e-05 0)
(0.100002 -1.5831e-05 0)
(0.100003 -1.89576e-05 0)
(0.100003 -2.13149e-05 0)
(0.100004 -2.58791e-05 0)
(0.100005 -2.84285e-05 0)
(0.100006 -3.60439e-05 0)
(0.100007 -3.79868e-05 0)
(0.100009 -5.13158e-05 0)
(0.0999997 -3.06983e-07 0)
(0.0999997 -8.70322e-07 0)
(0.0999997 -1.38845e-06 0)
(0.0999997 -1.9537e-06 0)
(0.0999998 -2.64205e-06 0)
(0.0999998 -3.5843e-06 0)
(0.0999999 -4.74266e-06 0)
(0.1 -6.21655e-06 0)
(0.1 -7.8065e-06 0)
(0.1 -9.73795e-06 0)
(0.1 -1.16357e-05 0)
(0.1 -1.40554e-05 0)
(0.100001 -1.62067e-05 0)
(0.100001 -1.93454e-05 0)
(0.100001 -2.17257e-05 0)
(0.100001 -2.63014e-05 0)
(0.100002 -2.8895e-05 0)
(0.100002 -3.65235e-05 0)
(0.100002 -3.85181e-05 0)
(0.100003 -5.18203e-05 0)
(0.1 -3.06874e-07 0)
(0.1 -8.70314e-07 0)
(0.1 -1.38823e-06 0)
(0.1 -1.95374e-06 0)
(0.1 -2.64211e-06 0)
(0.1 -3.58477e-06 0)
(0.1 -4.7431e-06 0)
(0.1 -6.21733e-06 0)
(0.0999999 -7.80724e-06 0)
(0.0999998 -9.73871e-06 0)
(0.0999997 -1.16367e-05 0)
(0.0999995 -1.40559e-05 0)
(0.0999993 -1.6207e-05 0)
(0.0999991 -1.93461e-05 0)
(0.0999988 -2.17268e-05 0)
(0.0999985 -2.63024e-05 0)
(0.0999983 -2.88959e-05 0)
(0.0999979 -3.65238e-05 0)
(0.0999977 -3.85173e-05 0)
(0.0999971 -5.18193e-05 0)
(0.100001 -3.0143e-07 0)
(0.100001 -8.49569e-07 0)
(0.100001 -1.35513e-06 0)
(0.100001 -1.91171e-06 0)
(0.100001 -2.59064e-06 0)
(0.100001 -3.51513e-06 0)
(0.1 -4.63707e-06 0)
(0.1 -6.05668e-06 0)
(0.0999998 -7.58352e-06 0)
(0.0999994 -9.45961e-06 0)
(0.099999 -1.13149e-05 0)
(0.0999985 -1.37046e-05 0)
(0.099998 -1.5832e-05 0)
(0.0999973 -1.89586e-05 0)
(0.0999966 -2.13165e-05 0)
(0.0999956 -2.58798e-05 0)
(0.099995 -2.84293e-05 0)
(0.0999936 -3.60419e-05 0)
(0.0999932 -3.7983e-05 0)
(0.0999912 -5.13092e-05 0)
(0.100002 -2.90815e-07 0)
(0.100002 -8.11772e-07 0)
(0.100001 -1.29707e-06 0)
(0.100001 -1.83182e-06 0)
(0.100001 -2.47718e-06 0)
(0.100001 -3.35774e-06 0)
(0.100001 -4.43013e-06 0)
(0.1 -5.78976e-06 0)
(0.0999997 -7.23705e-06 0)
(0.0999991 -9.00396e-06 0)
(0.0999984 -1.07201e-05 0)
(0.0999975 -1.29376e-05 0)
(0.0999966 -1.4877e-05 0)
(0.0999954 -1.7799e-05 0)
(0.0999944 -1.99709e-05 0)
(0.0999927 -2.43355e-05 0)
(0.0999917 -2.67492e-05 0)
(0.0999894 -3.41785e-05 0)
(0.0999886 -3.60558e-05 0)
(0.0999854 -4.91653e-05 0)
(0.100002 -2.68647e-07 0)
(0.100002 -7.51523e-07 0)
(0.100002 -1.22825e-06 0)
(0.100002 -1.77519e-06 0)
(0.100002 -2.43043e-06 0)
(0.100001 -3.30867e-06 0)
(0.100001 -4.36552e-06 0)
(0.1 -5.70472e-06 0)
(0.0999997 -7.13647e-06 0)
(0.0999989 -8.90099e-06 0)
(0.099998 -1.06364e-05 0)
(0.0999968 -1.28942e-05 0)
(0.0999957 -1.48761e-05 0)
(0.099994 -1.78555e-05 0)
(0.0999925 -2.00541e-05 0)
(0.0999901 -2.44658e-05 0)
(0.0999887 -2.68363e-05 0)
(0.0999853 -3.42765e-05 0)
(0.0999843 -3.60775e-05 0)
(0.0999794 -4.92376e-05 0)
(0.100003 -2.25054e-07 0)
(0.100003 -5.60223e-07 0)
(0.100003 -8.32305e-07 0)
(0.100002 -1.13034e-06 0)
(0.100002 -1.50526e-06 0)
(0.100002 -2.07689e-06 0)
(0.100001 -2.79992e-06 0)
(0.1 -3.77645e-06 0)
(0.0999995 -4.81629e-06 0)
(0.0999985 -6.14571e-06 0)
(0.0999973 -7.40413e-06 0)
(0.0999957 -9.1453e-06 0)
(0.0999941 -1.05899e-05 0)
(0.099992 -1.30062e-05 0)
(0.0999901 -1.46655e-05 0)
(0.0999872 -1.85212e-05 0)
(0.0999852 -2.04385e-05 0)
(0.0999811 -2.73664e-05 0)
(0.0999795 -2.8866e-05 0)
(0.0999735 -4.15943e-05 0)
(0.100004 -2.99074e-07 0)
(0.100004 -8.60221e-07 0)
(0.100003 -1.46926e-06 0)
(0.100003 -2.17425e-06 0)
(0.100003 -2.96522e-06 0)
(0.100002 -3.91409e-06 0)
(0.100002 -4.97812e-06 0)
(0.100001 -6.25523e-06 0)
(0.1 -7.58233e-06 0)
(0.099999 -9.18768e-06 0)
(0.0999976 -1.07211e-05 0)
(0.0999958 -1.27378e-05 0)
(0.0999941 -1.44559e-05 0)
(0.0999914 -1.71425e-05 0)
(0.0999893 -1.9021e-05 0)
(0.0999854 -2.30846e-05 0)
(0.0999832 -2.5098e-05 0)
(0.0999776 -3.21438e-05 0)
(0.0999761 -3.36772e-05 0)
(0.0999674 -4.64498e-05 0)
(0.100004 -2.89038e-09 0)
(0.100004 1.2182e-07 0)
(0.100004 3.17629e-07 0)
(0.100003 4.9974e-07 0)
(0.100003 6.34097e-07 0)
(0.100002 6.29256e-07 0)
(0.100001 5.06502e-07 0)
(0.100001 1.87708e-07 0)
(0.0999995 -1.66158e-07 0)
(0.0999981 -7.6975e-07 0)
(0.0999965 -1.28001e-06 0)
(0.0999944 -2.24076e-06 0)
(0.0999924 -2.88891e-06 0)
(0.0999894 -4.46922e-06 0)
(0.0999868 -5.25132e-06 0)
(0.0999826 -8.17533e-06 0)
(0.0999797 -9.11932e-06 0)
(0.0999734 -1.50169e-05 0)
(0.0999708 -1.56855e-05 0)
(0.0999616 -2.76185e-05 0)
(0.100005 -3.97575e-07 0)
(0.100005 -1.21568e-06 0)
(0.100005 -2.12317e-06 0)
(0.100005 -3.1099e-06 0)
(0.100005 -4.11709e-06 0)
(0.100004 -5.20416e-06 0)
(0.100003 -6.34277e-06 0)
(0.100002 -7.60925e-06 0)
(0.100001 -8.87522e-06 0)
(0.0999995 -1.03469e-05 0)
(0.0999979 -1.16889e-05 0)
(0.0999955 -1.34178e-05 0)
(0.0999934 -1.47944e-05 0)
(0.0999898 -1.70303e-05 0)
(0.0999872 -1.8419e-05 0)
(0.0999818 -2.18372e-05 0)
(0.099979 -2.32188e-05 0)
(0.0999706 -2.93943e-05 0)
(0.0999686 -3.03229e-05 0)
(0.0999546 -4.22677e-05 0)
(0.100006 3.76227e-07 0)
(0.100005 1.18289e-06 0)
(0.100005 1.98732e-06 0)
(0.100004 2.7598e-06 0)
(0.100004 3.50351e-06 0)
(0.100003 4.17163e-06 0)
(0.100002 4.81383e-06 0)
(0.100001 5.32797e-06 0)
(0.1 5.86744e-06 0)
(0.0999983 6.24851e-06 0)
(0.0999966 6.69353e-06 0)
(0.0999942 6.83939e-06 0)
(0.0999918 7.23665e-06 0)
(0.0999882 6.96586e-06 0)
(0.0999852 7.39802e-06 0)
(0.0999796 6.21185e-06 0)
(0.0999763 6.80765e-06 0)
(0.0999674 3.28844e-06 0)
(0.0999643 4.12539e-06 0)
(0.0999502 -5.41824e-06 0)
(0.100007 -8.50985e-07 0)
(0.100007 -2.29281e-06 0)
(0.100007 -3.45243e-06 0)
(0.100006 -4.46769e-06 0)
(0.100006 -5.46196e-06 0)
(0.100005 -6.5341e-06 0)
(0.100004 -7.63236e-06 0)
(0.100003 -8.86237e-06 0)
(0.100002 -1.00157e-05 0)
(0.1 -1.12731e-05 0)
(0.0999987 -1.23812e-05 0)
(0.0999959 -1.3729e-05 0)
(0.0999939 -1.47277e-05 0)
(0.0999895 -1.63305e-05 0)
(0.0999872 -1.71386e-05 0)
(0.0999801 -1.94651e-05 0)
(0.0999778 -1.99029e-05 0)
(0.0999653 -2.4137e-05 0)
(0.0999639 -2.38178e-05 0)
(0.0999404 -3.3259e-05 0)
)
;

boundaryField
{
    sides
    {
        type            calculated;
        value           nonuniform List<vector> 
40
(
(0.100007 0 0)
(0.100007 0 0)
(0.100007 0 0)
(0.100006 0 0)
(0.100006 0 0)
(0.100005 0 0)
(0.100004 0 0)
(0.100003 0 0)
(0.100002 0 0)
(0.1 0 0)
(0.0999987 0 0)
(0.0999959 0 0)
(0.0999939 0 0)
(0.0999895 0 0)
(0.0999872 0 0)
(0.0999801 0 0)
(0.0999778 0 0)
(0.0999653 0 0)
(0.0999639 0 0)
(0.0999404 0 0)
(0.0999931 0 0)
(0.0999931 0 0)
(0.0999933 0 0)
(0.0999936 0 0)
(0.099994 0 0)
(0.0999948 0 0)
(0.0999956 0 0)
(0.0999967 0 0)
(0.0999978 0 0)
(0.0999996 0 0)
(0.100001 0 0)
(0.100004 0 0)
(0.100006 0 0)
(0.10001 0 0)
(0.100013 0 0)
(0.10002 0 0)
(0.100022 0 0)
(0.100035 0 0)
(0.100036 0 0)
(0.10006 0 0)
)
;
    }
    inlet
    {
        type            calculated;
        value           nonuniform List<vector> 
20
(
(0.0999931 0 0)
(0.0999943 0 0)
(0.0999947 0 0)
(0.0999956 0 0)
(0.0999962 0 0)
(0.0999969 0 0)
(0.0999976 0 0)
(0.0999983 0 0)
(0.099999 0 0)
(0.0999997 0 0)
(0.1 0 0)
(0.100001 0 0)
(0.100002 0 0)
(0.100002 0 0)
(0.100003 0 0)
(0.100004 0 0)
(0.100004 0 0)
(0.100005 0 0)
(0.100006 0 0)
(0.100007 0 0)
)
;
    }
    outlet
    {
        type            calculated;
        value           nonuniform List<vector> 
20
(
(0.10006 -3.32456e-05 0)
(0.10005 -5.43077e-06 0)
(0.100046 -4.22752e-05 0)
(0.100039 -2.76232e-05 0)
(0.100033 -4.64648e-05 0)
(0.100027 -4.15942e-05 0)
(0.100021 -4.9251e-05 0)
(0.100015 -4.9167e-05 0)
(0.100009 -5.13159e-05 0)
(0.100003 -5.18203e-05 0)
(0.0999971 -5.18193e-05 0)
(0.0999911 -5.13091e-05 0)
(0.0999853 -4.91653e-05 0)
(0.0999792 -4.92375e-05 0)
(0.0999733 -4.15942e-05 0)
(0.0999671 -4.64496e-05 0)
(0.0999613 -2.76184e-05 0)
(0.0999541 -4.22675e-05 0)
(0.0999497 -5.41822e-06 0)
(0.0999395 -3.32587e-05 0)
)
;
    }
    frontAndBack
    {
        type            empty;
    }
}


// ************************************************************************* //
