/*--------------------------------*- C++ -*----------------------------------*\
  =========                 |
  \\      /  F ield         | OpenFOAM: The Open Source CFD Toolbox
   \\    /   O peration     | Website:  https://openfoam.org
    \\  /    A nd           | Version:  7
     \\/     M anipulation  |
\*---------------------------------------------------------------------------*/
FoamFile
{
    version     2.0;
    format      ascii;
    class       volVectorField;
    location    "29";
    object      ddtCorrDdt0(hU);
}
// * * * * * * * * * * * * * * * * * * * * * * * * * * * * * * * * * * * * * //

dimensions      [0 2 -2 0 0 0 0];

internalField   nonuniform List<vector> 
400
(
(-1.12879e-09 -4.32564e-12 0)
(8.17414e-10 2.96826e-11 0)
(4.486e-09 -8.52315e-11 0)
(6.51723e-09 6.64978e-10 0)
(5.90599e-09 2.82454e-09 0)
(3.88423e-09 4.9231e-09 0)
(2.75099e-09 5.58957e-09 0)
(-1.08955e-09 4.54887e-09 0)
(-2.32134e-09 3.47633e-09 0)
(-5.06504e-09 2.45044e-09 0)
(-7.02898e-09 7.18027e-10 0)
(-7.70155e-09 -1.52396e-09 0)
(-7.16752e-09 -4.12691e-09 0)
(-4.4913e-09 -5.85082e-09 0)
(-1.29968e-09 -5.73587e-09 0)
(2.71971e-09 -3.72176e-09 0)
(4.23499e-09 -1.4696e-10 0)
(3.69826e-09 2.15498e-09 0)
(1.65679e-09 4.9803e-09 0)
(-5.97574e-09 3.43952e-09 0)
(-1.11374e-09 -7.20243e-10 0)
(7.79334e-10 -1.41311e-09 0)
(4.50814e-09 -2.45449e-09 0)
(6.86532e-09 -3.55545e-09 0)
(6.82512e-09 -4.23097e-09 0)
(5.13427e-09 -4.42009e-09 0)
(2.85978e-09 -3.91283e-09 0)
(2.27721e-09 -3.35123e-09 0)
(-2.88772e-09 -2.46015e-09 0)
(-6.43058e-09 -1.86718e-09 0)
(-8.72679e-09 -2.23478e-09 0)
(-8.97756e-09 -2.84374e-09 0)
(-8.06263e-09 -3.70636e-09 0)
(-5.15992e-09 -4.84291e-09 0)
(-1.58117e-09 -5.73248e-09 0)
(3.09789e-09 -5.81255e-09 0)
(5.25091e-09 -3.17455e-09 0)
(5.00776e-09 -7.23227e-10 0)
(2.84051e-09 4.28321e-09 0)
(-5.34437e-09 5.02673e-09 0)
(-1.20936e-09 -1.05673e-09 0)
(-1.36342e-10 -1.72315e-09 0)
(3.5909e-09 -2.76502e-09 0)
(5.67803e-09 -2.62822e-09 0)
(4.53601e-09 -8.14536e-10 0)
(3.09126e-09 1.89578e-09 0)
(1.98347e-09 3.42573e-09 0)
(4.03228e-10 3.69728e-09 0)
(-1.23836e-09 3.00619e-09 0)
(-3.54271e-09 1.67873e-09 0)
(-5.34246e-09 -8.39414e-10 0)
(-5.82284e-09 -4.17268e-09 0)
(-5.50032e-09 -8.29426e-09 0)
(-3.54992e-09 -1.1631e-08 0)
(-9.82594e-10 -1.24984e-08 0)
(2.60574e-09 -1.0313e-08 0)
(3.91433e-09 -3.18845e-09 0)
(3.3381e-09 2.18144e-09 0)
(1.44459e-09 1.15431e-08 0)
(-5.16168e-09 1.03917e-08 0)
(-1.24166e-09 -1.88673e-09 0)
(-3.22954e-10 -3.41634e-09 0)
(3.55964e-09 -5.10445e-09 0)
(6.28967e-09 -5.43661e-09 0)
(6.64553e-09 -2.98822e-09 0)
(5.22459e-09 2.83435e-10 0)
(2.60008e-09 2.48239e-09 0)
(-2.13156e-10 3.38274e-09 0)
(-3.54575e-09 3.25041e-09 0)
(-6.95624e-09 2.54176e-09 0)
(-8.88987e-09 2.59001e-10 0)
(-8.81563e-09 -3.59306e-09 0)
(-7.6245e-09 -9.32264e-09 0)
(-4.59277e-09 -1.44214e-08 0)
(-8.59323e-10 -1.60328e-08 0)
(3.99251e-09 -1.34613e-08 0)
(6.12312e-09 -4.25157e-09 0)
(5.67286e-09 2.8747e-09 0)
(3.3055e-09 1.53355e-08 0)
(-4.6089e-09 1.39469e-08 0)
(-1.15883e-09 -2.98404e-09 0)
(-3.90139e-10 -5.07188e-09 0)
(2.78825e-09 -6.6772e-09 0)
(3.80708e-09 -6.61356e-09 0)
(2.17862e-09 -4.23086e-09 0)
(1.60724e-09 -1.76318e-09 0)
(2.07816e-09 2.91257e-10 0)
(1.76135e-09 1.86233e-09 0)
(1.35186e-10 2.39365e-09 0)
(-1.84664e-09 1.97173e-09 0)
(-3.187e-09 -6.3625e-10 0)
(-3.63176e-09 -4.80792e-09 0)
(-3.78513e-09 -1.07329e-08 0)
(-3.03471e-09 -1.59615e-08 0)
(-1.74113e-09 -1.772e-08 0)
(7.24167e-10 -1.54366e-08 0)
(2.17034e-09 -5.29861e-09 0)
(2.33436e-09 2.8314e-09 0)
(1.80946e-09 1.82413e-08 0)
(-2.8254e-09 1.71812e-08 0)
(-7.66612e-10 -2.86085e-09 0)
(-9.60725e-10 -5.83686e-09 0)
(3.53384e-09 -7.68021e-09 0)
(6.03037e-09 -6.04781e-09 0)
(5.46487e-09 -1.51375e-09 0)
(2.95818e-09 4.17349e-09 0)
(7.25744e-10 7.90465e-09 0)
(-1.14017e-09 9.23066e-09 0)
(-3.24652e-09 8.70092e-09 0)
(-5.37907e-09 7.08585e-09 0)
(-6.80566e-09 2.80431e-09 0)
(-6.92253e-09 -3.65575e-09 0)
(-5.8212e-09 -1.2396e-08 0)
(-2.80652e-09 -1.96578e-08 0)
(7.35229e-10 -2.16491e-08 0)
(4.72577e-09 -1.78591e-08 0)
(5.98707e-09 -4.64506e-09 0)
(5.18255e-09 5.49211e-09 0)
(2.44833e-09 2.36521e-08 0)
(-3.89796e-09 2.09194e-08 0)
(-5.28852e-10 -3.67582e-09 0)
(-1.82229e-09 -9.22221e-09 0)
(-5.60187e-11 -1.0555e-08 0)
(1.59574e-09 -9.45107e-09 0)
(1.62957e-09 -6.21589e-09 0)
(1.97116e-09 -2.09925e-09 0)
(1.7652e-09 2.0522e-09 0)
(9.69082e-10 5.03268e-09 0)
(-2.68338e-10 6.35731e-09 0)
(-1.4362e-09 6.22626e-09 0)
(-2.20561e-09 2.95732e-09 0)
(-2.61916e-09 -2.70246e-09 0)
(-2.96523e-09 -1.09711e-08 0)
(-2.48717e-09 -1.84283e-08 0)
(-1.47916e-09 -2.11809e-08 0)
(3.29371e-10 -1.83923e-08 0)
(1.61271e-09 -5.22154e-09 0)
(2.05364e-09 5.21598e-09 0)
(1.89417e-09 2.48152e-08 0)
(-1.44233e-09 2.27173e-08 0)
(-1.11369e-09 -4.47835e-09 0)
(-1.09007e-10 -1.0382e-08 0)
(1.78463e-09 -1.08497e-08 0)
(2.584e-09 -8.00981e-09 0)
(1.81693e-09 -2.18893e-09 0)
(1.10353e-09 3.54842e-09 0)
(8.14804e-10 7.91982e-09 0)
(4.692e-11 1.01741e-08 0)
(-1.19744e-09 1.02311e-08 0)
(-2.66345e-09 8.65021e-09 0)
(-3.66378e-09 3.75082e-09 0)
(-3.76762e-09 -3.50999e-09 0)
(-3.16292e-09 -1.3272e-08 0)
(-1.39649e-09 -2.15337e-08 0)
(6.38555e-10 -2.4095e-08 0)
(2.85754e-09 -1.99842e-08 0)
(3.56279e-09 -4.41618e-09 0)
(3.14231e-09 7.47543e-09 0)
(1.80616e-09 2.90683e-08 0)
(-1.89842e-09 2.54694e-08 0)
(-1.94724e-10 -4.5027e-09 0)
(-8.61611e-10 -1.09283e-08 0)
(6.20342e-10 -1.26044e-08 0)
(1.07827e-09 -9.64708e-09 0)
(1.23894e-09 -4.33098e-09 0)
(9.32179e-10 1.62767e-09 0)
(4.30561e-10 6.50359e-09 0)
(-2.18372e-10 9.42949e-09 0)
(-8.12465e-10 1.02251e-08 0)
(-1.29799e-09 9.50122e-09 0)
(-1.43021e-09 5.43211e-09 0)
(-1.25632e-09 -1.34609e-09 0)
(-1.1021e-09 -1.11671e-08 0)
(-7.17399e-10 -2.00863e-08 0)
(-1.83958e-10 -2.35524e-08 0)
(5.1626e-10 -2.04097e-08 0)
(8.51987e-10 -5.15285e-09 0)
(8.00626e-10 6.80952e-09 0)
(5.00345e-10 2.91893e-08 0)
(-7.0744e-10 2.63321e-08 0)
(-1.58945e-10 -4.6926e-09 0)
(-2.98586e-10 -1.17237e-08 0)
(4.09825e-10 -1.28978e-08 0)
(7.16835e-10 -9.49778e-09 0)
(3.60144e-10 -3.93091e-09 0)
(2.03882e-10 2.10705e-09 0)
(2.12321e-10 7.18875e-09 0)
(1.72136e-10 1.03138e-08 0)
(4.66287e-11 1.09892e-08 0)
(-3.40242e-10 9.86612e-09 0)
(-8.22913e-10 5.29099e-09 0)
(-1.06704e-09 -1.95151e-09 0)
(-1.0124e-09 -1.21867e-08 0)
(-5.77303e-10 -2.12317e-08 0)
(-5.25361e-11 -2.44289e-08 0)
(6.77911e-10 -2.06195e-08 0)
(1.07255e-09 -4.53233e-09 0)
(1.12254e-09 7.84333e-09 0)
(8.96279e-10 3.08206e-08 0)
(-2.75667e-10 2.72481e-08 0)
(1.61023e-10 -4.69037e-09 0)
(2.95974e-10 -1.17236e-08 0)
(-4.12443e-10 -1.28976e-08 0)
(-7.14208e-10 -9.4997e-09 0)
(-3.55166e-10 -3.93326e-09 0)
(-2.01121e-10 2.10422e-09 0)
(-2.11286e-10 7.18644e-09 0)
(-1.70133e-10 1.03101e-08 0)
(-4.28506e-11 1.09853e-08 0)
(3.46976e-10 9.86109e-09 0)
(8.24967e-10 5.28648e-09 0)
(1.0648e-09 -1.95471e-09 0)
(1.0072e-09 -1.219e-08 0)
(5.68431e-10 -2.12337e-08 0)
(4.46086e-11 -2.44293e-08 0)
(-6.85274e-10 -2.06198e-08 0)
(-1.07997e-09 -4.53293e-09 0)
(-1.1349e-09 7.84363e-09 0)
(-9.08175e-10 3.082e-08 0)
(2.72752e-10 2.72462e-08 0)
(1.95727e-10 -4.49872e-09 0)
(8.58236e-10 -1.09255e-08 0)
(-6.20447e-10 -1.26079e-08 0)
(-1.0798e-09 -9.65365e-09 0)
(-1.23864e-09 -4.33548e-09 0)
(-9.30932e-10 1.62341e-09 0)
(-4.31861e-10 6.50067e-09 0)
(2.16702e-10 9.42316e-09 0)
(8.11273e-10 1.02176e-08 0)
(1.30001e-09 9.49108e-09 0)
(1.4331e-09 5.42111e-09 0)
(1.25613e-09 -1.35532e-09 0)
(1.10039e-09 -1.11764e-08 0)
(7.15148e-10 -2.00917e-08 0)
(1.79422e-10 -2.35535e-08 0)
(-5.2508e-10 -2.04058e-08 0)
(-8.60298e-10 -5.14797e-09 0)
(-8.1148e-10 6.81742e-09 0)
(-5.10904e-10 2.91889e-08 0)
(7.03905e-10 2.63191e-08 0)
(1.11768e-09 -4.47735e-09 0)
(1.10683e-10 -1.03898e-08 0)
(-1.79327e-09 -1.08628e-08 0)
(-2.58615e-09 -8.01834e-09 0)
(-1.81629e-09 -2.19251e-09 0)
(-1.10156e-09 3.54615e-09 0)
(-8.15367e-10 7.91694e-09 0)
(-5.1236e-11 1.01688e-08 0)
(1.19142e-09 1.02254e-08 0)
(2.65616e-09 8.64593e-09 0)
(3.65989e-09 3.74635e-09 0)
(3.7655e-09 -3.51452e-09 0)
(3.16189e-09 -1.32786e-08 0)
(1.39924e-09 -2.15387e-08 0)
(-6.35654e-10 -2.40974e-08 0)
(-2.85948e-09 -1.99787e-08 0)
(-3.56527e-09 -4.40813e-09 0)
(-3.15047e-09 7.48734e-09 0)
(-1.81756e-09 2.90713e-08 0)
(1.892e-09 2.54534e-08 0)
(5.25273e-10 -3.67713e-09 0)
(1.8214e-09 -9.22758e-09 0)
(6.06214e-11 -1.05548e-08 0)
(-1.59359e-09 -9.44913e-09 0)
(-1.63084e-09 -6.21177e-09 0)
(-1.97332e-09 -2.09342e-09 0)
(-1.76591e-09 2.05335e-09 0)
(-9.71293e-10 5.03003e-09 0)
(2.6597e-10 6.35328e-09 0)
(1.43206e-09 6.22748e-09 0)
(2.20174e-09 2.96492e-09 0)
(2.61764e-09 -2.69303e-09 0)
(2.96625e-09 -1.09654e-08 0)
(2.49325e-09 -1.84262e-08 0)
(1.48555e-09 -2.11813e-08 0)
(-3.30659e-10 -1.83862e-08 0)
(-1.61788e-09 -5.21659e-09 0)
(-2.06491e-09 5.2235e-09 0)
(-1.90614e-09 2.48049e-08 0)
(1.43579e-09 2.269e-08 0)
(7.72145e-10 -2.8656e-09 0)
(9.61694e-10 -5.83938e-09 0)
(-3.53663e-09 -7.68474e-09 0)
(-6.03978e-09 -6.04607e-09 0)
(-5.46836e-09 -1.50777e-09 0)
(-2.95989e-09 4.18245e-09 0)
(-7.24634e-10 7.90874e-09 0)
(1.13899e-09 9.23212e-09 0)
(3.24608e-09 8.69893e-09 0)
(5.37877e-09 7.08649e-09 0)
(6.80199e-09 2.81155e-09 0)
(6.91644e-09 -3.64571e-09 0)
(5.81249e-09 -1.23901e-08 0)
(2.80116e-09 -1.96547e-08 0)
(-7.36182e-10 -2.16476e-08 0)
(-4.72729e-09 -1.78473e-08 0)
(-5.98544e-09 -4.63094e-09 0)
(-5.18325e-09 5.50912e-09 0)
(-2.44439e-09 2.36578e-08 0)
(3.89749e-09 2.08967e-08 0)
(1.16081e-09 -2.98052e-09 0)
(3.95165e-10 -5.07715e-09 0)
(-2.77811e-09 -6.69533e-09 0)
(-3.80434e-09 -6.62332e-09 0)
(-2.18189e-09 -4.23448e-09 0)
(-1.61424e-09 -1.7615e-09 0)
(-2.08286e-09 2.9685e-10 0)
(-1.76428e-09 1.86282e-09 0)
(-1.39735e-10 2.3957e-09 0)
(1.84981e-09 1.9709e-09 0)
(3.19007e-09 -6.29779e-10 0)
(3.63056e-09 -4.79291e-09 0)
(3.77933e-09 -1.07161e-08 0)
(3.03119e-09 -1.59485e-08 0)
(1.74364e-09 -1.77149e-08 0)
(-7.21405e-10 -1.54291e-08 0)
(-2.1697e-09 -5.29505e-09 0)
(-2.33941e-09 2.8374e-09 0)
(-1.8161e-09 1.8228e-08 0)
(2.81613e-09 1.7151e-08 0)
(1.23684e-09 -1.86849e-09 0)
(3.24994e-10 -3.41527e-09 0)
(-3.55855e-09 -5.11199e-09 0)
(-6.28623e-09 -5.44603e-09 0)
(-6.65083e-09 -2.99581e-09 0)
(-5.22097e-09 2.83936e-10 0)
(-2.59782e-09 2.47203e-09 0)
(2.22132e-10 3.35649e-09 0)
(3.53996e-09 3.24263e-09 0)
(6.94861e-09 2.53767e-09 0)
(8.89251e-09 2.56268e-10 0)
(8.81999e-09 -3.59229e-09 0)
(7.62067e-09 -9.32173e-09 0)
(4.58327e-09 -1.44172e-08 0)
(8.51918e-10 -1.60268e-08 0)
(-3.99602e-09 -1.34433e-08 0)
(-6.11915e-09 -4.23163e-09 0)
(-5.66851e-09 2.89591e-09 0)
(-3.29166e-09 1.53411e-08 0)
(4.61136e-09 1.3921e-08 0)
(1.19746e-09 -1.04717e-09 0)
(1.3082e-10 -1.72322e-09 0)
(-3.59703e-09 -2.76875e-09 0)
(-5.676e-09 -2.63862e-09 0)
(-4.53578e-09 -8.18555e-10 0)
(-3.09744e-09 1.90544e-09 0)
(-1.97226e-09 3.35752e-09 0)
(-3.71476e-10 3.60166e-09 0)
(1.27004e-09 2.99295e-09 0)
(3.54412e-09 1.68327e-09 0)
(5.34611e-09 -8.34732e-10 0)
(5.83158e-09 -4.16858e-09 0)
(5.50278e-09 -8.29041e-09 0)
(3.54454e-09 -1.16258e-08 0)
(9.75527e-10 -1.24964e-08 0)
(-2.61112e-09 -1.03104e-08 0)
(-3.91437e-09 -3.18926e-09 0)
(-3.33934e-09 2.18413e-09 0)
(-1.43743e-09 1.15355e-08 0)
(5.16017e-09 1.03719e-08 0)
(1.10846e-09 -7.34284e-10 0)
(-7.83235e-10 -1.41035e-09 0)
(-4.51324e-09 -2.44857e-09 0)
(-6.86705e-09 -3.55902e-09 0)
(-6.81853e-09 -4.22685e-09 0)
(-5.18814e-09 -4.43746e-09 0)
(-2.96138e-09 -3.83993e-09 0)
(-2.19093e-09 -3.24145e-09 0)
(3.01111e-09 -2.47297e-09 0)
(6.43325e-09 -1.8884e-09 0)
(8.71398e-09 -2.24609e-09 0)
(8.9749e-09 -2.85716e-09 0)
(8.06767e-09 -3.72043e-09 0)
(5.16766e-09 -4.84772e-09 0)
(1.58689e-09 -5.7282e-09 0)
(-3.09301e-09 -5.79873e-09 0)
(-5.24501e-09 -3.16268e-09 0)
(-5.00444e-09 -7.1186e-10 0)
(-2.83358e-09 4.2816e-09 0)
(5.33376e-09 5.00784e-09 0)
(1.14306e-09 -1.7571e-11 0)
(-8.1212e-10 3.01901e-11 0)
(-4.48732e-09 -8.18022e-11 0)
(-6.5349e-09 6.63391e-10 0)
(-5.92265e-09 2.82323e-09 0)
(-3.83198e-09 4.89073e-09 0)
(-2.6636e-09 5.70959e-09 0)
(9.63599e-10 4.72575e-09 0)
(2.17271e-09 3.46731e-09 0)
(5.06734e-09 2.42657e-09 0)
(7.03468e-09 7.0835e-10 0)
(7.70125e-09 -1.53056e-09 0)
(7.17358e-09 -4.1341e-09 0)
(4.49756e-09 -5.85462e-09 0)
(1.29795e-09 -5.73661e-09 0)
(-2.72578e-09 -3.71896e-09 0)
(-4.23292e-09 -1.43071e-10 0)
(-3.69372e-09 2.15957e-09 0)
(-1.63651e-09 4.98694e-09 0)
(5.97982e-09 3.43795e-09 0)
)
;

boundaryField
{
    sides
    {
        type            calculated;
        value           nonuniform List<vector> 
40
(
(1.14306e-09 0 0)
(-8.1212e-10 0 0)
(-4.48732e-09 0 0)
(-6.5349e-09 0 0)
(-5.92265e-09 0 0)
(-3.83198e-09 0 0)
(-2.6636e-09 0 0)
(9.63599e-10 0 0)
(2.17271e-09 0 0)
(5.06734e-09 0 0)
(7.03468e-09 0 0)
(7.70125e-09 0 0)
(7.17358e-09 0 0)
(4.49756e-09 0 0)
(1.29795e-09 0 0)
(-2.72578e-09 0 0)
(-4.23292e-09 0 0)
(-3.69372e-09 0 0)
(-1.63651e-09 0 0)
(5.97982e-09 0 0)
(-1.12879e-09 0 0)
(8.17414e-10 0 0)
(4.486e-09 0 0)
(6.51723e-09 0 0)
(5.90599e-09 0 0)
(3.88423e-09 0 0)
(2.75099e-09 0 0)
(-1.08955e-09 0 0)
(-2.32134e-09 0 0)
(-5.06504e-09 0 0)
(-7.02898e-09 0 0)
(-7.70155e-09 0 0)
(-7.16752e-09 0 0)
(-4.4913e-09 0 0)
(-1.29968e-09 0 0)
(2.71971e-09 0 0)
(4.23499e-09 0 0)
(3.69826e-09 0 0)
(1.65679e-09 0 0)
(-5.97574e-09 0 0)
)
;
    }
    inlet
    {
        type            calculated;
        value           uniform (0 0 0);
    }
    outlet
    {
        type            calculated;
        value           nonuniform List<vector> 
20
(
(-5.97574e-09 3.43952e-09 0)
(-5.34437e-09 5.02673e-09 0)
(-5.16168e-09 1.03917e-08 0)
(-4.6089e-09 1.39469e-08 0)
(-2.8254e-09 1.71812e-08 0)
(-3.89796e-09 2.09194e-08 0)
(-1.44233e-09 2.27173e-08 0)
(-1.89842e-09 2.54694e-08 0)
(-7.0744e-10 2.63321e-08 0)
(-2.75667e-10 2.72481e-08 0)
(2.72752e-10 2.72462e-08 0)
(7.03905e-10 2.63191e-08 0)
(1.892e-09 2.54534e-08 0)
(1.43579e-09 2.269e-08 0)
(3.89749e-09 2.08967e-08 0)
(2.81613e-09 1.7151e-08 0)
(4.61136e-09 1.3921e-08 0)
(5.16017e-09 1.03719e-08 0)
(5.33376e-09 5.00784e-09 0)
(5.97982e-09 3.43795e-09 0)
)
;
    }
    frontAndBack
    {
        type            empty;
    }
}


// ************************************************************************* //
