/*--------------------------------*- C++ -*----------------------------------*\
  =========                 |
  \\      /  F ield         | OpenFOAM: The Open Source CFD Toolbox
   \\    /   O peration     | Website:  https://openfoam.org
    \\  /    A nd           | Version:  7
     \\/     M anipulation  |
\*---------------------------------------------------------------------------*/
FoamFile
{
    version     2.0;
    format      ascii;
    class       volVectorField;
    location    "29";
    object      hU;
}
// * * * * * * * * * * * * * * * * * * * * * * * * * * * * * * * * * * * * * //

dimensions      [0 2 -1 0 0 0 0];

internalField   nonuniform List<vector> 
400
(
(0.000999999 -8.04498e-09 0)
(0.001 -2.17112e-08 0)
(0.00100001 -3.22055e-08 0)
(0.00100001 -4.09495e-08 0)
(0.00100001 -4.98337e-08 0)
(0.00100002 -6.04576e-08 0)
(0.00100002 -7.24378e-08 0)
(0.00100003 -8.58564e-08 0)
(0.00100004 -9.87185e-08 0)
(0.00100006 -1.12418e-07 0)
(0.00100007 -1.2444e-07 0)
(0.0010001 -1.38458e-07 0)
(0.00100012 -1.48266e-07 0)
(0.00100016 -1.63011e-07 0)
(0.00100018 -1.695e-07 0)
(0.00100025 -1.91343e-07 0)
(0.00100026 -1.95418e-07 0)
(0.00100038 -2.38376e-07 0)
(0.00100037 -2.36265e-07 0)
(0.0010006 -3.32501e-07 0)
(0.001 4.4708e-09 0)
(0.00100001 1.2881e-08 0)
(0.00100002 2.07238e-08 0)
(0.00100002 2.81204e-08 0)
(0.00100002 3.53098e-08 0)
(0.00100003 4.22691e-08 0)
(0.00100003 4.91978e-08 0)
(0.00100004 5.4666e-08 0)
(0.00100005 5.95699e-08 0)
(0.00100007 6.25479e-08 0)
(0.00100008 6.61102e-08 0)
(0.00100011 6.69421e-08 0)
(0.00100013 7.06105e-08 0)
(0.00100016 6.84242e-08 0)
(0.00100019 7.36062e-08 0)
(0.00100024 6.33796e-08 0)
(0.00100027 7.04222e-08 0)
(0.00100035 3.55992e-08 0)
(0.00100036 4.36743e-08 0)
(0.0010005 -5.53563e-08 0)
(0.000999999 -2.21767e-09 0)
(0.001 -7.99513e-09 0)
(0.001 -1.49525e-08 0)
(0.001 -2.27795e-08 0)
(0.00100001 -3.21877e-08 0)
(0.00100001 -4.41889e-08 0)
(0.00100002 -5.74658e-08 0)
(0.00100003 -7.24117e-08 0)
(0.00100004 -8.72227e-08 0)
(0.00100005 -1.04106e-07 0)
(0.00100007 -1.19416e-07 0)
(0.00100009 -1.37644e-07 0)
(0.00100011 -1.51146e-07 0)
(0.00100014 -1.7128e-07 0)
(0.00100017 -1.82364e-07 0)
(0.00100021 -2.13013e-07 0)
(0.00100023 -2.25119e-07 0)
(0.00100031 -2.87044e-07 0)
(0.00100032 -2.97829e-07 0)
(0.00100045 -4.23664e-07 0)
(0.000999999 1.10649e-09 0)
(0.00100001 4.00988e-09 0)
(0.00100001 7.77922e-09 0)
(0.00100001 1.2077e-08 0)
(0.00100002 1.55117e-08 0)
(0.00100002 1.56916e-08 0)
(0.00100003 1.30069e-08 0)
(0.00100003 7.39844e-09 0)
(0.00100004 1.30474e-09 0)
(0.00100006 -7.54083e-09 0)
(0.00100007 -1.5374e-08 0)
(0.00100009 -2.67093e-08 0)
(0.00100011 -3.34558e-08 0)
(0.00100014 -4.66401e-08 0)
(0.00100016 -5.0791e-08 0)
(0.0010002 -7.51017e-08 0)
(0.00100022 -8.21689e-08 0)
(0.00100028 -1.4132e-07 0)
(0.00100029 -1.50312e-07 0)
(0.00100038 -2.78361e-07 0)
(0.000999999 -1.65999e-09 0)
(0.001 -4.79809e-09 0)
(0.001 -8.82389e-09 0)
(0.00100001 -1.42258e-08 0)
(0.00100001 -2.12182e-08 0)
(0.00100001 -3.08701e-08 0)
(0.00100002 -4.26903e-08 0)
(0.00100003 -5.76563e-08 0)
(0.00100003 -7.3624e-08 0)
(0.00100004 -9.28044e-08 0)
(0.00100006 -1.10988e-07 0)
(0.00100007 -1.32632e-07 0)
(0.00100009 -1.49689e-07 0)
(0.00100011 -1.73352e-07 0)
(0.00100013 -1.87938e-07 0)
(0.00100017 -2.22745e-07 0)
(0.00100019 -2.39871e-07 0)
(0.00100024 -3.10195e-07 0)
(0.00100024 -3.27807e-07 0)
(0.00100033 -4.66618e-07 0)
(0.000999999 -6.12865e-10 0)
(0.001 -9.80988e-11 0)
(0.00100001 1.10852e-09 0)
(0.00100001 1.64374e-09 0)
(0.00100001 -2.77846e-10 0)
(0.00100001 -6.74003e-09 0)
(0.00100002 -1.67691e-08 0)
(0.00100002 -3.04788e-08 0)
(0.00100003 -4.50006e-08 0)
(0.00100004 -6.25601e-08 0)
(0.00100005 -7.89575e-08 0)
(0.00100007 -9.84418e-08 0)
(0.00100008 -1.12718e-07 0)
(0.0010001 -1.32545e-07 0)
(0.00100012 -1.43436e-07 0)
(0.00100015 -1.74685e-07 0)
(0.00100016 -1.90403e-07 0)
(0.0010002 -2.59938e-07 0)
(0.00100021 -2.78203e-07 0)
(0.00100026 -4.18259e-07 0)
(0.000999999 -2.14358e-09 0)
(0.001 -4.45868e-09 0)
(0.001 -6.31536e-09 0)
(0.00100001 -9.15291e-09 0)
(0.00100001 -1.3994e-08 0)
(0.00100001 -2.24815e-08 0)
(0.00100001 -3.43095e-08 0)
(0.00100002 -5.04234e-08 0)
(0.00100002 -6.8237e-08 0)
(0.00100003 -8.9959e-08 0)
(0.00100004 -1.11166e-07 0)
(0.00100005 -1.35965e-07 0)
(0.00100006 -1.55885e-07 0)
(0.00100008 -1.81488e-07 0)
(0.00100009 -1.97797e-07 0)
(0.00100011 -2.34125e-07 0)
(0.00100012 -2.53896e-07 0)
(0.00100015 -3.28217e-07 0)
(0.00100016 -3.49585e-07 0)
(0.00100021 -4.95584e-07 0)
(0.001 -2.05542e-09 0)
(0.001 -3.27233e-09 0)
(0.001 -3.49731e-09 0)
(0.001 -5.15251e-09 0)
(0.00100001 -9.93067e-09 0)
(0.00100001 -1.94914e-08 0)
(0.00100001 -3.28769e-08 0)
(0.00100001 -5.05507e-08 0)
(0.00100002 -6.95359e-08 0)
(0.00100002 -9.1932e-08 0)
(0.00100003 -1.13241e-07 0)
(0.00100004 -1.37473e-07 0)
(0.00100005 -1.56296e-07 0)
(0.00100006 -1.80093e-07 0)
(0.00100007 -1.9495e-07 0)
(0.00100008 -2.29792e-07 0)
(0.00100009 -2.49823e-07 0)
(0.00100011 -3.24433e-07 0)
(0.00100011 -3.47398e-07 0)
(0.00100015 -4.94414e-07 0)
(0.001 -2.61215e-09 0)
(0.001 -4.46695e-09 0)
(0.001 -5.21075e-09 0)
(0.001 -7.35069e-09 0)
(0.001 -1.22864e-08 0)
(0.001 -2.18085e-08 0)
(0.00100001 -3.52092e-08 0)
(0.00100001 -5.31214e-08 0)
(0.00100001 -7.27173e-08 0)
(0.00100001 -9.62693e-08 0)
(0.00100002 -1.19316e-07 0)
(0.00100002 -1.45782e-07 0)
(0.00100003 -1.67051e-07 0)
(0.00100003 -1.93242e-07 0)
(0.00100004 -2.10052e-07 0)
(0.00100005 -2.46566e-07 0)
(0.00100005 -2.67434e-07 0)
(0.00100007 -3.43467e-07 0)
(0.00100007 -3.66776e-07 0)
(0.00100009 -5.16456e-07 0)
(0.001 -2.76746e-09 0)
(0.001 -4.53868e-09 0)
(0.001 -5.08336e-09 0)
(0.001 -7.1627e-09 0)
(0.001 -1.22925e-08 0)
(0.001 -2.21158e-08 0)
(0.001 -3.60486e-08 0)
(0.001 -5.47566e-08 0)
(0.001 -7.52117e-08 0)
(0.001 -9.94492e-08 0)
(0.00100001 -1.22859e-07 0)
(0.00100001 -1.4933e-07 0)
(0.00100001 -1.70391e-07 0)
(0.00100001 -1.96179e-07 0)
(0.00100001 -2.12811e-07 0)
(0.00100002 -2.49169e-07 0)
(0.00100002 -2.70582e-07 0)
(0.00100002 -3.47028e-07 0)
(0.00100002 -3.71322e-07 0)
(0.00100003 -5.21363e-07 0)
(0.001 -2.76738e-09 0)
(0.001 -4.53905e-09 0)
(0.000999999 -5.08365e-09 0)
(0.000999999 -7.16287e-09 0)
(0.000999999 -1.22928e-08 0)
(0.000999998 -2.21165e-08 0)
(0.000999998 -3.60493e-08 0)
(0.000999997 -5.47569e-08 0)
(0.000999997 -7.52113e-08 0)
(0.000999996 -9.94483e-08 0)
(0.000999994 -1.22858e-07 0)
(0.000999992 -1.49329e-07 0)
(0.00099999 -1.70391e-07 0)
(0.000999988 -1.96179e-07 0)
(0.000999986 -2.12811e-07 0)
(0.000999983 -2.49168e-07 0)
(0.000999982 -2.70581e-07 0)
(0.000999978 -3.47026e-07 0)
(0.000999977 -3.71321e-07 0)
(0.000999971 -5.21361e-07 0)
(0.001 -2.61215e-09 0)
(0.000999999 -4.46795e-09 0)
(0.000999998 -5.21183e-09 0)
(0.000999997 -7.35092e-09 0)
(0.000999997 -1.22865e-08 0)
(0.000999995 -2.18093e-08 0)
(0.000999994 -3.52113e-08 0)
(0.000999992 -5.31232e-08 0)
(0.000999989 -7.27182e-08 0)
(0.000999986 -9.62678e-08 0)
(0.000999982 -1.19314e-07 0)
(0.000999977 -1.45777e-07 0)
(0.000999972 -1.67047e-07 0)
(0.000999965 -1.93232e-07 0)
(0.00099996 -2.1004e-07 0)
(0.000999951 -2.46544e-07 0)
(0.000999946 -2.67418e-07 0)
(0.000999933 -3.43436e-07 0)
(0.000999931 -3.66758e-07 0)
(0.000999912 -5.16404e-07 0)
(0.001 -2.05694e-09 0)
(0.000999998 -3.27621e-09 0)
(0.000999996 -3.5006e-09 0)
(0.000999996 -5.15342e-09 0)
(0.000999995 -9.9307e-09 0)
(0.000999993 -1.94921e-08 0)
(0.00099999 -3.28793e-08 0)
(0.000999987 -5.05532e-08 0)
(0.000999983 -6.95381e-08 0)
(0.000999977 -9.19331e-08 0)
(0.00099997 -1.13242e-07 0)
(0.000999961 -1.37475e-07 0)
(0.000999952 -1.56301e-07 0)
(0.000999941 -1.80094e-07 0)
(0.000999932 -1.94951e-07 0)
(0.000999917 -2.29788e-07 0)
(0.00099991 -2.4983e-07 0)
(0.00099989 -3.24431e-07 0)
(0.000999886 -3.47419e-07 0)
(0.000999855 -4.94413e-07 0)
(0.001 -2.14583e-09 0)
(0.000999998 -4.46257e-09 0)
(0.000999996 -6.31668e-09 0)
(0.000999994 -9.1511e-09 0)
(0.000999992 -1.39908e-08 0)
(0.000999989 -2.24779e-08 0)
(0.000999985 -3.43071e-08 0)
(0.000999981 -5.04185e-08 0)
(0.000999976 -6.82294e-08 0)
(0.000999969 -8.99455e-08 0)
(0.000999961 -1.11151e-07 0)
(0.00099995 -1.35948e-07 0)
(0.000999939 -1.5587e-07 0)
(0.000999923 -1.81463e-07 0)
(0.00099991 -1.97773e-07 0)
(0.000999888 -2.34078e-07 0)
(0.000999876 -2.5386e-07 0)
(0.000999846 -3.28141e-07 0)
(0.00099984 -3.49534e-07 0)
(0.000999794 -4.95452e-07 0)
(0.001 -6.17022e-10 0)
(0.000999996 -1.04516e-10 0)
(0.000999992 1.10339e-09 0)
(0.000999991 1.64146e-09 0)
(0.00099999 -2.79717e-10 0)
(0.000999988 -6.7436e-09 0)
(0.000999983 -1.67762e-08 0)
(0.000999978 -3.04862e-08 0)
(0.00099997 -4.50078e-08 0)
(0.00099996 -6.25654e-08 0)
(0.000999947 -7.89631e-08 0)
(0.000999932 -9.84472e-08 0)
(0.000999916 -1.12725e-07 0)
(0.000999896 -1.32547e-07 0)
(0.000999879 -1.4344e-07 0)
(0.000999854 -1.74679e-07 0)
(0.00099984 -1.90414e-07 0)
(0.000999804 -2.59935e-07 0)
(0.000999794 -2.78233e-07 0)
(0.000999737 -4.1826e-07 0)
(0.001 -1.66306e-09 0)
(0.000999998 -4.80363e-09 0)
(0.000999995 -8.82797e-09 0)
(0.000999993 -1.42243e-08 0)
(0.00099999 -2.12138e-08 0)
(0.000999985 -3.08641e-08 0)
(0.00099998 -4.26849e-08 0)
(0.000999974 -5.7648e-08 0)
(0.000999967 -7.36142e-08 0)
(0.000999956 -9.2789e-08 0)
(0.000999944 -1.10974e-07 0)
(0.000999927 -1.32613e-07 0)
(0.000999911 -1.49677e-07 0)
(0.000999886 -1.73328e-07 0)
(0.000999867 -1.87924e-07 0)
(0.000999832 -2.22701e-07 0)
(0.000999815 -2.39847e-07 0)
(0.000999763 -3.10115e-07 0)
(0.000999755 -3.27765e-07 0)
(0.000999673 -4.66464e-07 0)
(0.001 1.10497e-09 0)
(0.000999994 4.00463e-09 0)
(0.000999988 7.77439e-09 0)
(0.000999985 1.20745e-08 0)
(0.000999984 1.55084e-08 0)
(0.00099998 1.56868e-08 0)
(0.000999975 1.29965e-08 0)
(0.000999967 7.38652e-09 0)
(0.000999958 1.2955e-09 0)
(0.000999944 -7.54599e-09 0)
(0.000999929 -1.53789e-08 0)
(0.000999908 -2.67103e-08 0)
(0.000999887 -3.34565e-08 0)
(0.000999859 -4.66288e-08 0)
(0.000999836 -5.0782e-08 0)
(0.000999798 -7.50753e-08 0)
(0.000999777 -8.21629e-08 0)
(0.000999721 -1.41288e-07 0)
(0.000999706 -1.50316e-07 0)
(0.000999618 -2.78319e-07 0)
(0.001 -2.21795e-09 0)
(0.000999998 -7.99794e-09 0)
(0.000999996 -1.49551e-08 0)
(0.000999995 -2.27807e-08 0)
(0.000999992 -3.21879e-08 0)
(0.000999986 -4.41873e-08 0)
(0.00099998 -5.74699e-08 0)
(0.000999971 -7.24176e-08 0)
(0.000999962 -8.72245e-08 0)
(0.000999948 -1.04104e-07 0)
(0.000999933 -1.1942e-07 0)
(0.000999911 -1.37645e-07 0)
(0.000999891 -1.51159e-07 0)
(0.000999858 -1.71283e-07 0)
(0.000999835 -1.82384e-07 0)
(0.000999786 -2.13005e-07 0)
(0.000999766 -2.25144e-07 0)
(0.000999689 -2.87013e-07 0)
(0.000999678 -2.97848e-07 0)
(0.000999545 -4.2359e-07 0)
(0.001 4.4695e-09 0)
(0.000999992 1.28778e-08 0)
(0.000999985 2.07215e-08 0)
(0.000999981 2.8119e-08 0)
(0.000999978 3.5309e-08 0)
(0.000999974 4.22653e-08 0)
(0.000999968 4.91968e-08 0)
(0.00099996 5.46707e-08 0)
(0.00099995 5.95654e-08 0)
(0.000999935 6.25489e-08 0)
(0.000999917 6.61131e-08 0)
(0.000999893 6.6954e-08 0)
(0.000999871 7.06222e-08 0)
(0.000999836 6.84532e-08 0)
(0.00099981 7.36278e-08 0)
(0.00099976 6.34259e-08 0)
(0.000999735 7.04425e-08 0)
(0.000999655 3.56659e-08 0)
(0.000999636 4.37061e-08 0)
(0.000999502 -5.52398e-08 0)
(0.001 -8.04645e-09 0)
(0.000999998 -2.17146e-08 0)
(0.000999995 -3.22112e-08 0)
(0.000999993 -4.09589e-08 0)
(0.00099999 -4.98488e-08 0)
(0.000999984 -6.04816e-08 0)
(0.000999977 -7.24608e-08 0)
(0.000999967 -8.58758e-08 0)
(0.000999958 -9.87548e-08 0)
(0.000999941 -1.12456e-07 0)
(0.000999926 -1.24481e-07 0)
(0.000999899 -1.38501e-07 0)
(0.000999879 -1.48315e-07 0)
(0.000999838 -1.63058e-07 0)
(0.000999819 -1.69554e-07 0)
(0.000999754 -1.91395e-07 0)
(0.00099974 -1.95482e-07 0)
(0.000999625 -2.38446e-07 0)
(0.000999625 -2.36348e-07 0)
(0.0009994 -3.32637e-07 0)
)
;

boundaryField
{
    sides
    {
        type            slip;
    }
    inlet
    {
        type            fixedValue;
        value           uniform (0.001 0 0);
    }
    outlet
    {
        type            zeroGradient;
    }
    frontAndBack
    {
        type            empty;
    }
}


// ************************************************************************* //
