/*--------------------------------*- C++ -*----------------------------------*\
  =========                 |
  \\      /  F ield         | OpenFOAM: The Open Source CFD Toolbox
   \\    /   O peration     | Website:  https://openfoam.org
    \\  /    A nd           | Version:  7
     \\/     M anipulation  |
\*---------------------------------------------------------------------------*/
FoamFile
{
    version     2.0;
    format      ascii;
    class       surfaceScalarField;
    location    "29";
    object      phi;
}
// * * * * * * * * * * * * * * * * * * * * * * * * * * * * * * * * * * * * * //

dimensions      [0 4 -1 0 0 0 0];

internalField   nonuniform List<scalar> 
760
(
5e-06
1.38612e-11
5.00001e-06
4.08919e-12
5.00003e-06
-3.50727e-13
5.00005e-06
-2.62598e-12
5.00007e-06
-6.76827e-12
5.0001e-06
-1.6422e-11
5.00013e-06
-2.88702e-11
5.00019e-06
-4.97766e-11
5.00025e-06
-5.78664e-11
5.00033e-06
-7.85418e-11
5.00043e-06
-9.53038e-11
5.00055e-06
-1.22078e-10
5.00069e-06
-1.34983e-10
5.00086e-06
-1.70571e-10
5.00103e-06
-1.73864e-10
5.00128e-06
-2.43045e-10
5.00151e-06
-2.37868e-10
5.00193e-06
-4.12959e-10
5.00232e-06
-3.98819e-10
-8.95057e-10
5.00004e-06
-8.00244e-12
5.00006e-06
-5.20015e-12
5.00008e-06
-5.90365e-12
5.0001e-06
-8.47255e-12
5.00012e-06
-1.39784e-11
5.00014e-06
-2.91198e-11
5.00018e-06
-5.31802e-11
5.00022e-06
-8.50937e-11
5.00029e-06
-1.16214e-10
5.00037e-06
-1.5835e-10
5.00047e-06
-1.92598e-10
5.00059e-06
-2.42254e-10
5.00073e-06
-2.69313e-10
5.00089e-06
-3.31129e-10
5.00106e-06
-3.46334e-10
5.00127e-06
-4.57981e-10
5.0015e-06
-4.70545e-10
5.00182e-06
-7.28778e-10
5.00215e-06
-7.27634e-10
-1.26791e-09
5e-06
5.6361e-12
5.00001e-06
1.34176e-12
5.00002e-06
-4.22079e-12
5.00003e-06
-1.19489e-11
5.00006e-06
-2.36719e-11
5.00008e-06
-4.63383e-11
5.00012e-06
-7.90043e-11
5.00017e-06
-1.22858e-10
5.00022e-06
-1.68766e-10
5.0003e-06
-2.26625e-10
5.00039e-06
-2.79766e-10
5.00049e-06
-3.48613e-10
5.00062e-06
-3.96843e-10
5.00077e-06
-4.76283e-10
5.00094e-06
-5.13809e-10
5.00112e-06
-6.45584e-10
5.00135e-06
-6.92424e-10
5.0016e-06
-9.84803e-10
5.00191e-06
-1.03726e-09
-1.69933e-09
5.00002e-06
-6.47264e-12
5.00005e-06
-8.94383e-12
5.00006e-06
-1.10611e-11
5.00008e-06
-1.60447e-11
5.00009e-06
-2.95782e-11
5.00011e-06
-6.01769e-11
5.00014e-06
-1.03483e-10
5.00019e-06
-1.61909e-10
5.00024e-06
-2.22595e-10
5.00032e-06
-2.98076e-10
5.00041e-06
-3.66865e-10
5.00051e-06
-4.531e-10
5.00063e-06
-5.14184e-10
5.00076e-06
-6.08812e-10
5.00091e-06
-6.55856e-10
5.00107e-06
-8.07734e-10
5.00125e-06
-8.69887e-10
5.00146e-06
-1.20264e-09
5.0017e-06
-1.26927e-09
-1.91024e-09
5.00001e-06
-2.90442e-12
5.00001e-06
-7.6371e-12
5.00003e-06
-1.26358e-11
5.00004e-06
-2.20801e-11
5.00006e-06
-4.06249e-11
5.00009e-06
-7.56423e-11
5.00011e-06
-1.2487e-10
5.00015e-06
-1.91499e-10
5.00019e-06
-2.63759e-10
5.00025e-06
-3.51825e-10
5.00032e-06
-4.35594e-10
5.0004e-06
-5.3603e-10
5.0005e-06
-6.1355e-10
5.00062e-06
-7.21239e-10
5.00075e-06
-7.8512e-10
5.00089e-06
-9.48289e-10
5.00105e-06
-1.02895e-09
5.00122e-06
-1.37222e-09
5.00141e-06
-1.45866e-09
-2.17634e-09
5.00001e-06
-9.836e-12
5.00003e-06
-1.5539e-11
5.00004e-06
-1.79611e-11
5.00005e-06
-2.52438e-11
5.00006e-06
-4.5232e-11
5.00007e-06
-8.6754e-11
5.0001e-06
-1.44963e-10
5.00013e-06
-2.22498e-10
5.00017e-06
-3.05752e-10
5.00023e-06
-4.06486e-10
5.0003e-06
-5.02458e-10
5.00038e-06
-6.14847e-10
5.00047e-06
-7.00985e-10
5.00056e-06
-8.15339e-10
5.00066e-06
-8.83521e-10
5.00077e-06
-1.05411e-09
5.00089e-06
-1.1444e-09
5.00102e-06
-1.50887e-09
5.00118e-06
-1.61174e-09
-2.31049e-09
5.00001e-06
-9.12459e-12
5.00001e-06
-1.76678e-11
5.00003e-06
-2.15988e-11
5.00004e-06
-3.15066e-11
5.00005e-06
-5.36174e-11
5.00006e-06
-9.75318e-11
5.00008e-06
-1.60088e-10
5.00011e-06
-2.43911e-10
5.00014e-06
-3.34734e-10
5.00018e-06
-4.43459e-10
5.00022e-06
-5.48358e-10
5.00028e-06
-6.69859e-10
5.00034e-06
-7.66177e-10
5.00042e-06
-8.89106e-10
5.0005e-06
-9.66587e-10
5.00059e-06
-1.14345e-09
5.00069e-06
-1.24174e-09
5.00079e-06
-1.61104e-09
5.0009e-06
-1.71768e-09
-2.45948e-09
5.00001e-06
-1.26786e-11
5.00001e-06
-2.03885e-11
5.00002e-06
-2.32968e-11
5.00003e-06
-3.38318e-11
5.00003e-06
-5.8186e-11
5.00004e-06
-1.05016e-10
5.00006e-06
-1.71417e-10
5.00007e-06
-2.60578e-10
5.0001e-06
-3.57951e-10
5.00013e-06
-4.74234e-10
5.00017e-06
-5.86623e-10
5.00022e-06
-7.14759e-10
5.00027e-06
-8.16086e-10
5.00032e-06
-9.42097e-10
5.00038e-06
-1.02207e-09
5.00043e-06
-1.20128e-09
5.0005e-06
-1.30391e-09
5.00057e-06
-1.68138e-09
5.00065e-06
-1.7988e-09
-2.53525e-09
5e-06
-1.35269e-11
5.00001e-06
-2.22005e-11
5.00001e-06
-2.5592e-11
5.00002e-06
-3.58237e-11
5.00002e-06
-6.13494e-11
5.00003e-06
-1.10158e-10
5.00004e-06
-1.79211e-10
5.00005e-06
-2.71666e-10
5.00006e-06
-3.72398e-10
5.00008e-06
-4.91861e-10
5.0001e-06
-6.07404e-10
5.00013e-06
-7.38835e-10
5.00016e-06
-8.43793e-10
5.00019e-06
-9.73108e-10
5.00022e-06
-1.05643e-09
5.00026e-06
-1.23858e-09
5.0003e-06
-1.34448e-09
5.00034e-06
-1.7255e-09
5.00039e-06
-1.84326e-09
-2.59199e-09
5e-06
-1.40454e-11
5e-06
-2.30768e-11
5e-06
-2.57847e-11
5.00001e-06
-3.6686e-11
5.00001e-06
-6.28058e-11
5.00001e-06
-1.12265e-10
5.00001e-06
-1.81749e-10
5.00002e-06
-2.74523e-10
5.00002e-06
-3.76079e-10
5.00003e-06
-4.97223e-10
5.00003e-06
-6.14968e-10
5.00004e-06
-7.48498e-10
5.00005e-06
-8.54992e-10
5.00007e-06
-9.84852e-10
5.00008e-06
-1.06834e-09
5.00009e-06
-1.24988e-09
5.0001e-06
-1.35602e-09
5.00011e-06
-1.7372e-09
5.00013e-06
-1.85782e-09
-2.60798e-09
5e-06
-1.3526e-11
5e-06
-2.22045e-11
5e-06
-2.55938e-11
4.99999e-06
-3.5825e-11
4.99999e-06
-6.13511e-11
4.99999e-06
-1.10162e-10
4.99999e-06
-1.79218e-10
4.99998e-06
-2.71673e-10
4.99998e-06
-3.72403e-10
4.99997e-06
-4.91862e-10
4.99997e-06
-6.07403e-10
4.99996e-06
-7.38831e-10
4.99995e-06
-8.4379e-10
4.99993e-06
-9.73089e-10
4.99992e-06
-1.05641e-09
4.99991e-06
-1.23854e-09
4.9999e-06
-1.34445e-09
4.99989e-06
-1.72544e-09
4.99987e-06
-1.84325e-09
-2.59188e-09
5e-06
-1.26801e-11
4.99999e-06
-2.03975e-11
4.99999e-06
-2.33074e-11
4.99998e-06
-3.38349e-11
4.99998e-06
-5.81868e-11
4.99997e-06
-1.0502e-10
4.99996e-06
-1.71427e-10
4.99995e-06
-2.60585e-10
4.99994e-06
-3.57952e-10
4.99992e-06
-4.74224e-10
4.9999e-06
-5.86612e-10
4.99987e-06
-7.14744e-10
4.99984e-06
-8.16074e-10
4.99981e-06
-9.42061e-10
4.99978e-06
-1.02203e-09
4.99974e-06
-1.2012e-09
4.9997e-06
-1.30386e-09
4.99966e-06
-1.68126e-09
4.99961e-06
-1.79876e-09
-2.53509e-09
4.99999e-06
-9.13438e-12
4.99999e-06
-1.76932e-11
4.99998e-06
-2.16178e-11
4.99997e-06
-3.15079e-11
4.99997e-06
-5.3613e-11
4.99996e-06
-9.75304e-11
4.99994e-06
-1.60096e-10
4.99993e-06
-2.43915e-10
4.9999e-06
-3.34732e-10
4.99987e-06
-4.43441e-10
4.99983e-06
-5.48341e-10
4.99978e-06
-6.69837e-10
4.99973e-06
-7.66166e-10
4.99968e-06
-8.89062e-10
4.99962e-06
-9.66546e-10
4.99957e-06
-1.14334e-09
4.9995e-06
-1.24169e-09
4.99943e-06
-1.61088e-09
4.99935e-06
-1.71764e-09
-2.45918e-09
4.99999e-06
-9.85285e-12
4.99999e-06
-1.55608e-11
4.99997e-06
-1.79686e-11
4.99996e-06
-2.52392e-11
4.99995e-06
-4.52236e-11
4.99994e-06
-8.67481e-11
4.99992e-06
-1.44968e-10
4.99989e-06
-2.22495e-10
4.99986e-06
-3.05741e-10
4.99982e-06
-4.06454e-10
4.99978e-06
-5.02424e-10
4.99972e-06
-6.14804e-10
4.99966e-06
-7.00954e-10
4.99958e-06
-8.15269e-10
4.9995e-06
-8.83462e-10
4.99941e-06
-1.05397e-09
4.99931e-06
-1.14433e-09
4.99921e-06
-1.50866e-09
4.9991e-06
-1.61168e-09
-2.31015e-09
4.99999e-06
-2.92642e-12
4.99997e-06
-7.65153e-12
4.99996e-06
-1.26592e-11
4.99995e-06
-2.20844e-11
4.99994e-06
-4.0622e-11
4.99993e-06
-7.56397e-11
4.9999e-06
-1.24878e-10
4.99987e-06
-1.91501e-10
4.99983e-06
-2.63758e-10
4.99977e-06
-3.51806e-10
4.9997e-06
-4.35577e-10
4.99962e-06
-5.35999e-10
4.99953e-06
-6.1354e-10
4.99944e-06
-7.21188e-10
4.99934e-06
-7.85096e-10
4.99923e-06
-9.48162e-10
4.99911e-06
-1.02891e-09
4.99898e-06
-1.372e-09
4.99882e-06
-1.45861e-09
-2.17595e-09
4.99999e-06
-6.49564e-12
4.99999e-06
-8.96567e-12
4.99997e-06
-1.10787e-11
4.99996e-06
-1.60419e-11
4.99994e-06
-2.95698e-11
4.99991e-06
-6.01681e-11
4.99989e-06
-1.03483e-10
4.99985e-06
-1.61905e-10
4.99981e-06
-2.22583e-10
4.99975e-06
-2.98044e-10
4.99968e-06
-3.66838e-10
4.9996e-06
-4.53053e-10
4.9995e-06
-5.14156e-10
4.99938e-06
-6.08726e-10
4.99925e-06
-6.55804e-10
4.99911e-06
-8.07567e-10
4.99895e-06
-8.69831e-10
4.99878e-06
-1.20239e-09
4.99859e-06
-1.2692e-09
-1.90978e-09
4.99998e-06
5.62942e-12
4.99995e-06
1.31767e-12
4.99994e-06
-4.24306e-12
4.99992e-06
-1.19627e-11
4.99991e-06
-2.36837e-11
4.99989e-06
-4.63496e-11
4.99986e-06
-7.90482e-11
4.99981e-06
-1.22905e-10
4.99976e-06
-1.68799e-10
4.99968e-06
-2.26637e-10
4.99959e-06
-2.79788e-10
4.99949e-06
-3.48617e-10
4.99937e-06
-3.96872e-10
4.99924e-06
-4.76254e-10
4.9991e-06
-5.13826e-10
4.99893e-06
-6.45484e-10
4.99875e-06
-6.92445e-10
4.99854e-06
-9.84616e-10
4.9983e-06
-1.03728e-09
-1.69899e-09
5e-06
-8.00358e-12
4.99999e-06
-5.21203e-12
4.99998e-06
-5.91253e-12
4.99997e-06
-8.4742e-12
4.99994e-06
-1.39724e-11
4.99992e-06
-2.91217e-11
4.99988e-06
-5.32242e-11
4.99983e-06
-8.51455e-11
4.99978e-06
-1.1624e-10
4.9997e-06
-1.58333e-10
4.99961e-06
-1.92595e-10
4.99951e-06
-2.4222e-10
4.99938e-06
-2.69318e-10
4.99923e-06
-3.31058e-10
4.99906e-06
-3.46335e-10
4.99888e-06
-4.57843e-10
4.99865e-06
-4.70568e-10
4.9984e-06
-7.28542e-10
4.99809e-06
-7.27616e-10
-1.26746e-09
4.99996e-06
1.38491e-11
4.99994e-06
4.0707e-12
4.99992e-06
-3.74107e-13
4.9999e-06
-2.65558e-12
4.99988e-06
-6.81607e-12
4.99986e-06
-1.64964e-11
4.99982e-06
-2.89672e-11
4.99978e-06
-4.97768e-11
4.99971e-06
-5.79319e-11
4.99963e-06
-7.86145e-11
4.99953e-06
-9.53846e-11
4.99941e-06
-1.22146e-10
4.99928e-06
-1.35064e-10
4.99912e-06
-1.70613e-10
4.99894e-06
-1.73937e-10
4.99873e-06
-2.43062e-10
4.9985e-06
-2.37969e-10
4.99818e-06
-4.12974e-10
4.99785e-06
-3.98944e-10
-8.95094e-10
5e-06
4.99999e-06
4.99997e-06
4.99995e-06
4.99993e-06
4.9999e-06
4.99987e-06
4.99981e-06
4.99975e-06
4.99967e-06
4.99957e-06
4.99945e-06
4.99931e-06
4.99914e-06
4.99896e-06
4.99872e-06
4.99849e-06
4.99807e-06
4.99768e-06
)
;

boundaryField
{
    sides
    {
        type            calculated;
        value           uniform 0;
    }
    inlet
    {
        type            calculated;
        value           nonuniform List<scalar> 
20
(
-5e-06
-5e-06
-5e-06
-5e-06
-5e-06
-5e-06
-5e-06
-5e-06
-5e-06
-5e-06
-5e-06
-5e-06
-5e-06
-5e-06
-5e-06
-5e-06
-5e-06
-5e-06
-5e-06
-5e-06
)
;
    }
    outlet
    {
        type            calculated;
        value           nonuniform List<scalar> 
20
(
5.00322e-06
5.00252e-06
5.00234e-06
5.00191e-06
5.00167e-06
5.00131e-06
5.00105e-06
5.00073e-06
5.00045e-06
5.00014e-06
4.99986e-06
4.99955e-06
4.99927e-06
4.99895e-06
4.99869e-06
4.99833e-06
4.99809e-06
4.99766e-06
4.99748e-06
4.99678e-06
)
;
    }
    frontAndBack
    {
        type            empty;
        value           nonuniform 0();
    }
}


// ************************************************************************* //
