/*--------------------------------*- C++ -*----------------------------------*\
  =========                 |
  \\      /  F ield         | OpenFOAM: The Open Source CFD Toolbox
   \\    /   O peration     | Website:  https://openfoam.org
    \\  /    A nd           | Version:  7
     \\/     M anipulation  |
\*---------------------------------------------------------------------------*/
FoamFile
{
    version     2.0;
    format      ascii;
    class       surfaceScalarField;
    location    "29";
    object      phi_0;
}
// * * * * * * * * * * * * * * * * * * * * * * * * * * * * * * * * * * * * * //

dimensions      [0 4 -1 0 0 0 0];

internalField   nonuniform List<scalar> 
760
(
5e-06
1.41691e-11
5.00001e-06
4.58232e-12
5.00003e-06
4.05493e-13
5.00005e-06
-1.74978e-12
5.00007e-06
-6.19796e-12
5.00009e-06
-1.61692e-11
5.00013e-06
-2.96843e-11
5.00019e-06
-3.86563e-11
5.00025e-06
-5.81622e-11
5.00034e-06
-7.84495e-11
5.00043e-06
-9.49137e-11
5.00056e-06
-1.21171e-10
5.00069e-06
-1.33385e-10
5.00086e-06
-1.68318e-10
5.00103e-06
-1.7142e-10
5.00128e-06
-2.40916e-10
5.00151e-06
-2.37056e-10
5.00192e-06
-4.13137e-10
5.00232e-06
-4.00772e-10
-8.97079e-10
5.00004e-06
-7.27729e-12
5.00006e-06
-4.09405e-12
5.00008e-06
-4.34977e-12
5.0001e-06
-6.57271e-12
5.00012e-06
-1.2605e-11
5.00014e-06
-2.83173e-11
5.00018e-06
-5.33194e-11
5.00022e-06
-8.55095e-11
5.00029e-06
-1.16756e-10
5.00037e-06
-1.58682e-10
5.00047e-06
-1.92084e-10
5.00059e-06
-2.40601e-10
5.00073e-06
-2.6618e-10
5.00089e-06
-3.26705e-10
5.00106e-06
-3.41382e-10
5.00127e-06
-4.53646e-10
5.0015e-06
-4.68834e-10
5.00182e-06
-7.29144e-10
5.00215e-06
-7.31799e-10
-1.27197e-09
5e-06
6.50769e-12
5.00001e-06
2.95223e-12
5.00002e-06
-1.88127e-12
5.00003e-06
-9.29611e-12
5.00005e-06
-2.23386e-11
5.00008e-06
-4.59033e-11
5.00012e-06
-7.93588e-11
5.00017e-06
-1.23497e-10
5.00022e-06
-1.6954e-10
5.0003e-06
-2.2716e-10
5.00039e-06
-2.7941e-10
5.0005e-06
-3.468e-10
5.00063e-06
-3.92874e-10
5.00077e-06
-4.70295e-10
5.00094e-06
-5.07106e-10
5.00112e-06
-6.39715e-10
5.00134e-06
-6.9023e-10
5.0016e-06
-9.85483e-10
5.00191e-06
-1.04328e-09
-1.70529e-09
5.00002e-06
-5.04478e-12
5.00004e-06
-6.5874e-12
5.00006e-06
-7.86002e-12
5.00007e-06
-1.12842e-11
5.00009e-06
-2.71417e-11
5.00011e-06
-6.00236e-11
5.00014e-06
-1.04653e-10
5.00019e-06
-1.63629e-10
5.00025e-06
-2.24313e-10
5.00032e-06
-2.99418e-10
5.00041e-06
-3.66887e-10
5.00052e-06
-4.5103e-10
5.00063e-06
-5.09092e-10
5.00076e-06
-6.00999e-10
5.0009e-06
-6.4707e-10
5.00107e-06
-8.00047e-10
5.00124e-06
-8.67106e-10
5.00146e-06
-1.20381e-09
5.0017e-06
-1.27772e-09
-1.9183e-09
5.00001e-06
-1.29962e-12
5.00001e-06
-5.14326e-12
5.00003e-06
-9.20052e-12
5.00004e-06
-1.8639e-11
5.00006e-06
-3.83858e-11
5.00008e-06
-7.51525e-11
5.00011e-06
-1.25973e-10
5.00015e-06
-1.93658e-10
5.00019e-06
-2.6619e-10
5.00025e-06
-3.53992e-10
5.00032e-06
-4.36321e-10
5.0004e-06
-5.34367e-10
5.0005e-06
-6.08449e-10
5.00062e-06
-7.13002e-10
5.00075e-06
-7.75671e-10
5.00089e-06
-9.39813e-10
5.00105e-06
-1.02584e-09
5.00122e-06
-1.37345e-09
5.00141e-06
-1.46829e-09
-2.1858e-09
5.00001e-06
-8.14644e-12
5.00003e-06
-1.11779e-11
5.00004e-06
-1.24918e-11
5.00004e-06
-2.07541e-11
5.00005e-06
-4.30335e-11
5.00007e-06
-8.7027e-11
5.0001e-06
-1.47108e-10
5.00013e-06
-2.25718e-10
5.00018e-06
-3.09282e-10
5.00023e-06
-4.0971e-10
5.0003e-06
-5.03902e-10
5.00038e-06
-6.1331e-10
5.00047e-06
-6.95206e-10
5.00056e-06
-8.05767e-10
5.00066e-06
-8.72558e-10
5.00077e-06
-1.04454e-09
5.00088e-06
-1.14136e-09
5.00102e-06
-1.51102e-09
5.00118e-06
-1.62356e-09
-2.3216e-09
5.00001e-06
-6.98154e-12
5.00001e-06
-1.18743e-11
5.00003e-06
-1.58037e-11
5.00004e-06
-2.66103e-11
5.00005e-06
-5.09452e-11
5.00006e-06
-9.77395e-11
5.00008e-06
-1.62651e-10
5.00011e-06
-2.47843e-10
5.00014e-06
-3.39002e-10
5.00018e-06
-4.4737e-10
5.00022e-06
-5.50394e-10
5.00028e-06
-6.68828e-10
5.00035e-06
-7.60738e-10
5.00042e-06
-8.79575e-10
5.0005e-06
-9.55355e-10
5.00059e-06
-1.1334e-09
5.00069e-06
-1.23852e-09
5.00079e-06
-1.61327e-09
5.0009e-06
-1.73034e-09
-2.47155e-09
5.00001e-06
-1.04223e-11
5.00001e-06
-1.53668e-11
5.00002e-06
-1.69853e-11
5.00002e-06
-2.89019e-11
5.00003e-06
-5.56526e-11
5.00004e-06
-1.05396e-10
5.00006e-06
-1.74337e-10
5.00007e-06
-2.65099e-10
5.0001e-06
-3.62947e-10
5.00013e-06
-4.78877e-10
5.00017e-06
-5.89227e-10
5.00022e-06
-7.13989e-10
5.00027e-06
-8.10464e-10
5.00032e-06
-9.32003e-10
5.00038e-06
-1.01014e-09
5.00043e-06
-1.19071e-09
5.0005e-06
-1.30075e-09
5.00057e-06
-1.6841e-09
5.00065e-06
-1.81274e-09
-2.54835e-09
5e-06
-1.13347e-11
5.00001e-06
-1.62065e-11
5.00001e-06
-1.87707e-11
5.00002e-06
-3.05237e-11
5.00002e-06
-5.88396e-11
5.00003e-06
-1.10724e-10
5.00004e-06
-1.8239e-10
5.00005e-06
-2.76463e-10
5.00006e-06
-3.77611e-10
5.00008e-06
-4.96666e-10
5.0001e-06
-6.10189e-10
5.00013e-06
-7.38282e-10
5.00016e-06
-8.38335e-10
5.00019e-06
-9.63052e-10
5.00022e-06
-1.04446e-09
5.00026e-06
-1.22794e-09
5.0003e-06
-1.34135e-09
5.00034e-06
-1.72832e-09
5.00039e-06
-1.85757e-09
-2.60549e-09
5e-06
-1.17437e-11
5e-06
-1.71667e-11
5e-06
-1.91772e-11
5.00001e-06
-3.15332e-11
5.00001e-06
-6.03395e-11
5.00001e-06
-1.12835e-10
5.00001e-06
-1.8488e-10
5.00002e-06
-2.79301e-10
5.00002e-06
-3.81397e-10
5.00003e-06
-5.02241e-10
5.00003e-06
-6.17982e-10
5.00004e-06
-7.48114e-10
5.00005e-06
-8.49558e-10
5.00007e-06
-9.74651e-10
5.00008e-06
-1.05612e-09
5.00009e-06
-1.23899e-09
5.0001e-06
-1.35282e-09
5.00011e-06
-1.74008e-09
5.00013e-06
-1.87249e-09
-2.62175e-09
5e-06
-1.13354e-11
5e-06
-1.62108e-11
5e-06
-1.87707e-11
4.99999e-06
-3.05229e-11
4.99999e-06
-5.88399e-11
4.99999e-06
-1.10726e-10
4.99999e-06
-1.82396e-10
4.99998e-06
-2.76468e-10
4.99998e-06
-3.77614e-10
4.99997e-06
-4.96663e-10
4.99997e-06
-6.10184e-10
4.99996e-06
-7.38274e-10
4.99995e-06
-8.38327e-10
4.99993e-06
-9.6303e-10
4.99992e-06
-1.04444e-09
4.99991e-06
-1.2279e-09
4.9999e-06
-1.34133e-09
4.99989e-06
-1.72827e-09
4.99987e-06
-1.85756e-09
-2.60537e-09
5e-06
-1.04245e-11
4.99999e-06
-1.53738e-11
4.99999e-06
-1.69928e-11
4.99998e-06
-2.8901e-11
4.99998e-06
-5.56514e-11
4.99997e-06
-1.054e-10
4.99996e-06
-1.74346e-10
4.99995e-06
-2.65104e-10
4.99994e-06
-3.62946e-10
4.99992e-06
-4.78865e-10
4.9999e-06
-5.89213e-10
4.99987e-06
-7.1397e-10
4.99984e-06
-8.10448e-10
4.99981e-06
-9.31964e-10
4.99978e-06
-1.0101e-09
4.99974e-06
-1.19063e-09
4.9997e-06
-1.30071e-09
4.99966e-06
-1.68399e-09
4.99961e-06
-1.8127e-09
-2.54818e-09
4.99999e-06
-6.99363e-12
4.99999e-06
-1.18952e-11
4.99998e-06
-1.58172e-11
4.99998e-06
-2.66091e-11
4.99997e-06
-5.09409e-11
4.99996e-06
-9.77395e-11
4.99994e-06
-1.62658e-10
4.99993e-06
-2.47845e-10
4.9999e-06
-3.38997e-10
4.99987e-06
-4.47352e-10
4.99983e-06
-5.50377e-10
4.99978e-06
-6.68807e-10
4.99973e-06
-7.60727e-10
4.99968e-06
-8.7953e-10
4.99962e-06
-9.55313e-10
4.99957e-06
-1.1333e-09
4.9995e-06
-1.23847e-09
4.99943e-06
-1.61311e-09
4.99935e-06
-1.73031e-09
-2.47124e-09
4.99999e-06
-8.16235e-12
4.99999e-06
-1.12185e-11
4.99997e-06
-1.252e-11
4.99996e-06
-2.07525e-11
4.99995e-06
-4.30277e-11
4.99994e-06
-8.70245e-11
4.99992e-06
-1.47114e-10
4.99989e-06
-2.25715e-10
4.99986e-06
-3.09268e-10
4.99982e-06
-4.09677e-10
4.99978e-06
-5.0387e-10
4.99972e-06
-6.13272e-10
4.99965e-06
-6.95179e-10
4.99958e-06
-8.057e-10
4.9995e-06
-8.725e-10
4.99941e-06
-1.0444e-09
4.99931e-06
-1.1413e-09
4.99921e-06
-1.51082e-09
4.9991e-06
-1.62349e-09
-2.32125e-09
4.99999e-06
-1.3228e-12
4.99997e-06
-5.17516e-12
4.99996e-06
-9.21347e-12
4.99996e-06
-1.86402e-11
4.99995e-06
-3.83826e-11
4.99993e-06
-7.51522e-11
4.9999e-06
-1.25984e-10
4.99987e-06
-1.93661e-10
4.99982e-06
-2.6619e-10
4.99977e-06
-3.53972e-10
4.9997e-06
-4.36305e-10
4.99962e-06
-5.34342e-10
4.99953e-06
-6.08446e-10
4.99944e-06
-7.12956e-10
4.99934e-06
-7.75649e-10
4.99923e-06
-9.39691e-10
4.99912e-06
-1.02581e-09
4.99898e-06
-1.37324e-09
4.99882e-06
-1.46824e-09
-2.18539e-09
4.99999e-06
-5.06011e-12
4.99999e-06
-6.61007e-12
4.99997e-06
-7.87374e-12
4.99996e-06
-1.12779e-11
4.99994e-06
-2.71301e-11
4.99992e-06
-6.00157e-11
4.99989e-06
-1.04655e-10
4.99985e-06
-1.63617e-10
4.99981e-06
-2.243e-10
4.99975e-06
-2.99386e-10
4.99968e-06
-3.66861e-10
4.9996e-06
-4.50985e-10
4.9995e-06
-5.09067e-10
4.99938e-06
-6.00917e-10
4.99925e-06
-6.47021e-10
4.99911e-06
-7.99887e-10
4.99895e-06
-8.67057e-10
4.99878e-06
-1.20356e-09
4.99859e-06
-1.27765e-09
-1.91782e-09
4.99998e-06
6.49689e-12
4.99996e-06
2.92786e-12
4.99994e-06
-1.90222e-12
4.99993e-06
-9.30448e-12
4.99991e-06
-2.23425e-11
4.99989e-06
-4.59135e-11
4.99986e-06
-7.93683e-11
4.99981e-06
-1.23518e-10
4.99976e-06
-1.69559e-10
4.99968e-06
-2.27168e-10
4.99959e-06
-2.79433e-10
4.99948e-06
-3.46804e-10
4.99937e-06
-3.92903e-10
4.99924e-06
-4.70267e-10
4.9991e-06
-5.07124e-10
4.99893e-06
-6.3962e-10
4.99876e-06
-6.90256e-10
4.99854e-06
-9.85301e-10
4.9983e-06
-1.0433e-09
-1.70494e-09
5e-06
-7.27565e-12
4.99999e-06
-4.10725e-12
4.99998e-06
-4.358e-12
4.99997e-06
-6.57323e-12
4.99995e-06
-1.25998e-11
4.99992e-06
-2.83081e-11
4.99988e-06
-5.3386e-11
4.99983e-06
-8.55626e-11
4.99978e-06
-1.16765e-10
4.9997e-06
-1.58659e-10
4.99961e-06
-1.92081e-10
4.9995e-06
-2.40567e-10
4.99937e-06
-2.66183e-10
4.99923e-06
-3.26633e-10
4.99906e-06
-3.41384e-10
4.99888e-06
-4.53511e-10
4.99866e-06
-4.68861e-10
4.9984e-06
-7.28914e-10
4.99809e-06
-7.3178e-10
-1.27151e-09
4.99996e-06
1.41642e-11
4.99994e-06
4.56171e-12
4.99992e-06
3.82888e-13
4.9999e-06
-1.78115e-12
4.99988e-06
-6.24221e-12
4.99986e-06
-1.62502e-11
4.99983e-06
-2.97646e-11
4.99978e-06
-3.88854e-11
4.99971e-06
-5.82514e-11
4.99963e-06
-7.8522e-11
4.99953e-06
-9.49912e-11
4.99941e-06
-1.21235e-10
4.99927e-06
-1.33463e-10
4.99911e-06
-1.68357e-10
4.99894e-06
-1.71492e-10
4.99873e-06
-2.40935e-10
4.9985e-06
-2.3716e-10
4.99818e-06
-4.13156e-10
4.99785e-06
-4.009e-10
-8.97112e-10
5e-06
4.99999e-06
4.99997e-06
4.99995e-06
4.99993e-06
4.99991e-06
4.99987e-06
4.99981e-06
4.99975e-06
4.99966e-06
4.99957e-06
4.99944e-06
4.99931e-06
4.99914e-06
4.99896e-06
4.99872e-06
4.99849e-06
4.99808e-06
4.99767e-06
)
;

boundaryField
{
    sides
    {
        type            calculated;
        value           uniform 0;
    }
    inlet
    {
        type            calculated;
        value           nonuniform List<scalar> 
20
(
-5e-06
-5e-06
-5e-06
-5e-06
-5e-06
-5e-06
-5e-06
-5e-06
-5e-06
-5e-06
-5e-06
-5e-06
-5e-06
-5e-06
-5e-06
-5e-06
-5e-06
-5e-06
-5e-06
-5e-06
)
;
    }
    outlet
    {
        type            calculated;
        value           nonuniform List<scalar> 
20
(
5.00322e-06
5.00252e-06
5.00234e-06
5.00191e-06
5.00168e-06
5.00131e-06
5.00105e-06
5.00073e-06
5.00045e-06
5.00014e-06
4.99986e-06
4.99955e-06
4.99927e-06
4.99895e-06
4.99869e-06
4.99832e-06
4.99809e-06
4.99765e-06
4.99748e-06
4.99678e-06
)
;
    }
    frontAndBack
    {
        type            empty;
        value           nonuniform 0();
    }
}


// ************************************************************************* //
