/*--------------------------------*- C++ -*----------------------------------*\
  =========                 |
  \\      /  F ield         | OpenFOAM: The Open Source CFD Toolbox
   \\    /   O peration     | Website:  https://openfoam.org
    \\  /    A nd           | Version:  7
     \\/     M anipulation  |
\*---------------------------------------------------------------------------*/
FoamFile
{
    version     2.0;
    format      ascii;
    class       volVectorField;
    location    "29";
    object      U;
}
// * * * * * * * * * * * * * * * * * * * * * * * * * * * * * * * * * * * * * //

dimensions      [0 1 -1 0 0 0 0];

internalField   nonuniform List<vector> 
400
(
(0.0999929 -8.04442e-07 0)
(0.0999933 -2.17097e-06 0)
(0.0999937 -3.22033e-06 0)
(0.099994 -4.09467e-06 0)
(0.0999943 -4.98304e-06 0)
(0.099995 -6.04536e-06 0)
(0.0999958 -7.24332e-06 0)
(0.0999969 -8.5851e-06 0)
(0.099998 -9.87124e-06 0)
(0.0999998 -1.12411e-05 0)
(0.100002 -1.24433e-05 0)
(0.100004 -1.3845e-05 0)
(0.100007 -1.48258e-05 0)
(0.100011 -1.63003e-05 0)
(0.100013 -1.69493e-05 0)
(0.10002 -1.91335e-05 0)
(0.100022 -1.95411e-05 0)
(0.100035 -2.38369e-05 0)
(0.100036 -2.3626e-05 0)
(0.100059 -3.32499e-05 0)
(0.0999941 4.47054e-07 0)
(0.0999951 1.28802e-06 0)
(0.099996 2.07226e-06 0)
(0.0999965 2.81188e-06 0)
(0.0999969 3.53079e-06 0)
(0.0999974 4.22668e-06 0)
(0.099998 4.91952e-06 0)
(0.0999989 5.46633e-06 0)
(0.1 5.9567e-06 0)
(0.100002 6.25449e-06 0)
(0.100004 6.61072e-06 0)
(0.100006 6.69391e-06 0)
(0.100009 7.06076e-06 0)
(0.100013 6.84215e-06 0)
(0.100015 7.36036e-06 0)
(0.100021 6.33777e-06 0)
(0.100024 7.04204e-06 0)
(0.100033 3.55985e-06 0)
(0.100035 4.36738e-06 0)
(0.100049 -5.53561e-06 0)
(0.0999945 -2.21756e-07 0)
(0.0999948 -7.9947e-07 0)
(0.0999951 -1.49517e-06 0)
(0.0999953 -2.27783e-06 0)
(0.0999957 -3.2186e-06 0)
(0.0999964 -4.41867e-06 0)
(0.0999972 -5.7463e-06 0)
(0.0999981 -7.24083e-06 0)
(0.0999992 -8.72187e-06 0)
(0.100001 -1.04101e-05 0)
(0.100002 -1.19411e-05 0)
(0.100005 -1.37638e-05 0)
(0.100007 -1.5114e-05 0)
(0.100011 -1.71274e-05 0)
(0.100013 -1.82358e-05 0)
(0.100018 -2.13007e-05 0)
(0.100021 -2.25114e-05 0)
(0.100029 -2.87038e-05 0)
(0.100031 -2.97826e-05 0)
(0.100045 -4.23662e-05 0)
(0.0999955 1.10644e-07 0)
(0.0999962 4.00971e-07 0)
(0.0999969 7.77888e-07 0)
(0.0999973 1.20765e-06 0)
(0.0999975 1.55111e-06 0)
(0.099998 1.5691e-06 0)
(0.0999986 1.30064e-06 0)
(0.0999994 7.39815e-07 0)
(0.1 1.30469e-07 0)
(0.100002 -7.54056e-07 0)
(0.100004 -1.53735e-06 0)
(0.100006 -2.67084e-06 0)
(0.100008 -3.34548e-06 0)
(0.100011 -4.66388e-06 0)
(0.100014 -5.07897e-06 0)
(0.100018 -7.51001e-06 0)
(0.10002 -8.21675e-06 0)
(0.100027 -1.41318e-05 0)
(0.100029 -1.50311e-05 0)
(0.100038 -2.7836e-05 0)
(0.0999961 -1.65992e-07 0)
(0.0999964 -4.79791e-07 0)
(0.0999967 -8.82356e-07 0)
(0.099997 -1.42253e-06 0)
(0.0999973 -2.12174e-06 0)
(0.0999979 -3.0869e-06 0)
(0.0999985 -4.26889e-06 0)
(0.0999992 -5.76544e-06 0)
(0.1 -7.36216e-06 0)
(0.100001 -9.28014e-06 0)
(0.100003 -1.10985e-05 0)
(0.100004 -1.32628e-05 0)
(0.100006 -1.49685e-05 0)
(0.100009 -1.73348e-05 0)
(0.100011 -1.87934e-05 0)
(0.100015 -2.22741e-05 0)
(0.100017 -2.39867e-05 0)
(0.100022 -3.10191e-05 0)
(0.100024 -3.27805e-05 0)
(0.100032 -4.66617e-05 0)
(0.0999969 -6.12846e-08 0)
(0.0999973 -9.80959e-09 0)
(0.0999978 1.10849e-07 0)
(0.0999979 1.64369e-07 0)
(0.0999981 -2.77838e-08 0)
(0.0999984 -6.73984e-07 0)
(0.0999989 -1.67687e-06 0)
(0.0999996 -3.0478e-06 0)
(0.1 -4.49995e-06 0)
(0.100002 -6.25586e-06 0)
(0.100003 -7.89556e-06 0)
(0.100005 -9.84396e-06 0)
(0.100006 -1.12716e-05 0)
(0.100009 -1.32543e-05 0)
(0.10001 -1.43433e-05 0)
(0.100013 -1.74682e-05 0)
(0.100015 -1.90401e-05 0)
(0.100019 -2.59935e-05 0)
(0.10002 -2.78202e-05 0)
(0.100026 -4.18258e-05 0)
(0.0999975 -2.14353e-07 0)
(0.0999978 -4.45857e-07 0)
(0.0999981 -6.31521e-07 0)
(0.0999983 -9.1527e-07 0)
(0.0999986 -1.39937e-06 0)
(0.0999989 -2.2481e-06 0)
(0.0999993 -3.43087e-06 0)
(0.0999998 -5.04224e-06 0)
(0.1 -6.82356e-06 0)
(0.100001 -8.99572e-06 0)
(0.100002 -1.11164e-05 0)
(0.100003 -1.35963e-05 0)
(0.100004 -1.55882e-05 0)
(0.100006 -1.81485e-05 0)
(0.100008 -1.97795e-05 0)
(0.10001 -2.34122e-05 0)
(0.100011 -2.53894e-05 0)
(0.100015 -3.28214e-05 0)
(0.100016 -3.49584e-05 0)
(0.10002 -4.95583e-05 0)
(0.0999983 -2.05538e-07 0)
(0.0999985 -3.27228e-07 0)
(0.0999987 -3.49725e-07 0)
(0.0999988 -5.15243e-07 0)
(0.0999989 -9.93051e-07 0)
(0.0999992 -1.94911e-06 0)
(0.0999995 -3.28764e-06 0)
(0.0999998 -5.05499e-06 0)
(0.1 -6.95349e-06 0)
(0.100001 -9.19308e-06 0)
(0.100002 -1.13239e-05 0)
(0.100003 -1.37471e-05 0)
(0.100004 -1.56295e-05 0)
(0.100005 -1.80091e-05 0)
(0.100006 -1.94948e-05 0)
(0.100007 -2.29791e-05 0)
(0.100008 -2.49822e-05 0)
(0.100011 -3.24431e-05 0)
(0.100011 -3.47397e-05 0)
(0.100014 -4.94413e-05 0)
(0.0999989 -2.61212e-07 0)
(0.0999991 -4.46691e-07 0)
(0.0999992 -5.2107e-07 0)
(0.0999993 -7.35062e-07 0)
(0.0999994 -1.22862e-06 0)
(0.0999995 -2.18082e-06 0)
(0.0999997 -3.52089e-06 0)
(0.0999999 -5.3121e-06 0)
(0.1 -7.27167e-06 0)
(0.100001 -9.62685e-06 0)
(0.100001 -1.19315e-05 0)
(0.100002 -1.4578e-05 0)
(0.100002 -1.6705e-05 0)
(0.100003 -1.93241e-05 0)
(0.100003 -2.10051e-05 0)
(0.100004 -2.46564e-05 0)
(0.100005 -2.67433e-05 0)
(0.100006 -3.43466e-05 0)
(0.100007 -3.66776e-05 0)
(0.100009 -5.16456e-05 0)
(0.0999996 -2.76745e-07 0)
(0.0999997 -4.53867e-07 0)
(0.0999997 -5.08334e-07 0)
(0.0999998 -7.16268e-07 0)
(0.0999998 -1.22925e-06 0)
(0.0999998 -2.21157e-06 0)
(0.0999999 -3.60485e-06 0)
(0.1 -5.47564e-06 0)
(0.1 -7.52115e-06 0)
(0.1 -9.94489e-06 0)
(0.1 -1.22858e-05 0)
(0.100001 -1.49329e-05 0)
(0.100001 -1.7039e-05 0)
(0.100001 -1.96179e-05 0)
(0.100001 -2.1281e-05 0)
(0.100002 -2.49169e-05 0)
(0.100002 -2.70581e-05 0)
(0.100002 -3.47028e-05 0)
(0.100002 -3.71321e-05 0)
(0.100003 -5.21363e-05 0)
(0.1 -2.76739e-07 0)
(0.1 -4.53907e-07 0)
(0.1 -5.08367e-07 0)
(0.1 -7.1629e-07 0)
(0.1 -1.22929e-06 0)
(0.1 -2.21165e-06 0)
(0.1 -3.60494e-06 0)
(0.1 -5.4757e-06 0)
(0.0999999 -7.52115e-06 0)
(0.0999998 -9.94485e-06 0)
(0.0999997 -1.22858e-05 0)
(0.0999995 -1.4933e-05 0)
(0.0999993 -1.70392e-05 0)
(0.099999 -1.9618e-05 0)
(0.0999988 -2.12811e-05 0)
(0.0999984 -2.49169e-05 0)
(0.0999983 -2.70581e-05 0)
(0.0999979 -3.47026e-05 0)
(0.0999978 -3.71321e-05 0)
(0.0999972 -5.21361e-05 0)
(0.100001 -2.61218e-07 0)
(0.100001 -4.468e-07 0)
(0.100001 -5.21188e-07 0)
(0.100001 -7.35099e-07 0)
(0.100001 -1.22866e-06 0)
(0.1 -2.18095e-06 0)
(0.1 -3.52116e-06 0)
(0.1 -5.31237e-06 0)
(0.0999998 -7.27188e-06 0)
(0.0999994 -9.62686e-06 0)
(0.099999 -1.19315e-05 0)
(0.0999984 -1.45778e-05 0)
(0.0999979 -1.67048e-05 0)
(0.0999972 -1.93233e-05 0)
(0.0999965 -2.10041e-05 0)
(0.0999956 -2.46546e-05 0)
(0.099995 -2.67419e-05 0)
(0.0999936 -3.43437e-05 0)
(0.0999932 -3.66759e-05 0)
(0.0999912 -5.16405e-05 0)
(0.100002 -2.05698e-07 0)
(0.100001 -3.27627e-07 0)
(0.100001 -3.50065e-07 0)
(0.100001 -5.15351e-07 0)
(0.100001 -9.93086e-07 0)
(0.100001 -1.94924e-06 0)
(0.100001 -3.28798e-06 0)
(0.1 -5.0554e-06 0)
(0.0999997 -6.95391e-06 0)
(0.0999991 -9.19343e-06 0)
(0.0999983 -1.13244e-05 0)
(0.0999974 -1.37477e-05 0)
(0.0999964 -1.56302e-05 0)
(0.0999951 -1.80096e-05 0)
(0.0999941 -1.94953e-05 0)
(0.0999925 -2.2979e-05 0)
(0.0999916 -2.49832e-05 0)
(0.0999895 -3.24433e-05 0)
(0.0999888 -3.47419e-05 0)
(0.0999856 -4.94413e-05 0)
(0.100002 -2.14589e-07 0)
(0.100002 -4.46267e-07 0)
(0.100002 -6.31683e-07 0)
(0.100002 -9.15131e-07 0)
(0.100001 -1.39911e-06 0)
(0.100001 -2.24784e-06 0)
(0.100001 -3.43078e-06 0)
(0.1 -5.04195e-06 0)
(0.0999996 -6.82308e-06 0)
(0.0999988 -8.99473e-06 0)
(0.0999979 -1.11154e-05 0)
(0.0999967 -1.3595e-05 0)
(0.0999955 -1.55872e-05 0)
(0.0999938 -1.81466e-05 0)
(0.0999923 -1.97776e-05 0)
(0.0999899 -2.34081e-05 0)
(0.0999885 -2.53862e-05 0)
(0.0999853 -3.28144e-05 0)
(0.0999845 -3.49536e-05 0)
(0.0999795 -4.95453e-05 0)
(0.100003 -6.17041e-08 0)
(0.100003 -1.04519e-08 0)
(0.100002 1.10342e-07 0)
(0.100002 1.64151e-07 0)
(0.100002 -2.79725e-08 0)
(0.100002 -6.74378e-07 0)
(0.100001 -1.67766e-06 0)
(0.1 -3.0487e-06 0)
(0.0999996 -4.50089e-06 0)
(0.0999985 -6.2567e-06 0)
(0.0999971 -7.8965e-06 0)
(0.0999954 -9.84494e-06 0)
(0.0999937 -1.12727e-05 0)
(0.0999915 -1.3255e-05 0)
(0.0999896 -1.43442e-05 0)
(0.0999868 -1.74681e-05 0)
(0.0999852 -1.90416e-05 0)
(0.0999812 -2.59938e-05 0)
(0.0999799 -2.78234e-05 0)
(0.0999738 -4.1826e-05 0)
(0.100004 -1.66312e-07 0)
(0.100004 -4.80382e-07 0)
(0.100003 -8.8283e-07 0)
(0.100003 -1.42248e-06 0)
(0.100003 -2.12146e-06 0)
(0.100002 -3.08652e-06 0)
(0.100001 -4.26864e-06 0)
(0.100001 -5.76499e-06 0)
(0.1 -7.36166e-06 0)
(0.0999988 -9.27919e-06 0)
(0.0999974 -1.10977e-05 0)
(0.0999956 -1.32617e-05 0)
(0.0999938 -1.49681e-05 0)
(0.0999911 -1.73333e-05 0)
(0.0999889 -1.87928e-05 0)
(0.0999851 -2.22706e-05 0)
(0.099983 -2.39851e-05 0)
(0.0999775 -3.10118e-05 0)
(0.0999762 -3.27767e-05 0)
(0.0999676 -4.66465e-05 0)
(0.100005 1.10502e-07 0)
(0.100004 4.0048e-07 0)
(0.100003 7.77472e-07 0)
(0.100003 1.2075e-06 0)
(0.100002 1.55091e-06 0)
(0.100002 1.56874e-06 0)
(0.100001 1.2997e-06 0)
(0.100001 7.38681e-07 0)
(0.0999995 1.29555e-07 0)
(0.099998 -7.54626e-07 0)
(0.0999963 -1.53794e-06 0)
(0.099994 -2.67112e-06 0)
(0.0999918 -3.34575e-06 0)
(0.0999887 -4.66301e-06 0)
(0.0999862 -5.07832e-06 0)
(0.099982 -7.5077e-06 0)
(0.0999795 -8.21643e-06 0)
(0.0999734 -1.4129e-05 0)
(0.0999714 -1.50317e-05 0)
(0.099962 -2.78319e-05 0)
(0.100005 -2.21807e-07 0)
(0.100005 -7.99837e-07 0)
(0.100005 -1.49559e-06 0)
(0.100005 -2.27819e-06 0)
(0.100004 -3.21895e-06 0)
(0.100004 -4.41895e-06 0)
(0.100003 -5.74726e-06 0)
(0.100002 -7.2421e-06 0)
(0.100001 -8.72285e-06 0)
(0.0999993 -1.04108e-05 0)
(0.0999976 -1.19425e-05 0)
(0.0999952 -1.37651e-05 0)
(0.099993 -1.51165e-05 0)
(0.0999894 -1.71289e-05 0)
(0.0999867 -1.8239e-05 0)
(0.0999815 -2.13011e-05 0)
(0.099979 -2.25149e-05 0)
(0.0999707 -2.87019e-05 0)
(0.099969 -2.97852e-05 0)
(0.099955 -4.23592e-05 0)
(0.100006 4.46977e-07 0)
(0.100005 1.28785e-06 0)
(0.100004 2.07226e-06 0)
(0.100004 2.81206e-06 0)
(0.100003 3.53109e-06 0)
(0.100003 4.22675e-06 0)
(0.100002 4.91994e-06 0)
(0.100001 5.46735e-06 0)
(0.0999999 5.95683e-06 0)
(0.0999982 6.25519e-06 0)
(0.0999963 6.61161e-06 0)
(0.0999937 6.6957e-06 0)
(0.0999912 7.06251e-06 0)
(0.0999874 6.84559e-06 0)
(0.0999845 7.36304e-06 0)
(0.0999791 6.34278e-06 0)
(0.0999761 7.04443e-06 0)
(0.0999674 3.56666e-06 0)
(0.0999648 4.37067e-06 0)
(0.0999506 -5.524e-06 0)
(0.100007 -8.04702e-07 0)
(0.100007 -2.17162e-06 0)
(0.100006 -3.22134e-06 0)
(0.100006 -4.09616e-06 0)
(0.100006 -4.98521e-06 0)
(0.100005 -6.04856e-06 0)
(0.100004 -7.24655e-06 0)
(0.100003 -8.58812e-06 0)
(0.100002 -9.87609e-06 0)
(0.1 -1.12462e-05 0)
(0.0999984 -1.24488e-05 0)
(0.0999955 -1.38508e-05 0)
(0.0999933 -1.48323e-05 0)
(0.0999889 -1.63066e-05 0)
(0.0999865 -1.69562e-05 0)
(0.0999796 -1.91403e-05 0)
(0.0999777 -1.95489e-05 0)
(0.0999654 -2.38453e-05 0)
(0.0999645 -2.36352e-05 0)
(0.0999409 -3.32639e-05 0)
)
;

boundaryField
{
    sides
    {
        type            calculated;
        value           nonuniform List<vector> 
40
(
(0.100007 0 0)
(0.100007 0 0)
(0.100006 0 0)
(0.100006 0 0)
(0.100006 0 0)
(0.100005 0 0)
(0.100004 0 0)
(0.100003 0 0)
(0.100002 0 0)
(0.1 0 0)
(0.0999984 0 0)
(0.0999955 0 0)
(0.0999933 0 0)
(0.0999889 0 0)
(0.0999865 0 0)
(0.0999796 0 0)
(0.0999777 0 0)
(0.0999654 0 0)
(0.0999645 0 0)
(0.0999409 0 0)
(0.0999929 0 0)
(0.0999933 0 0)
(0.0999937 0 0)
(0.099994 0 0)
(0.0999943 0 0)
(0.099995 0 0)
(0.0999958 0 0)
(0.0999969 0 0)
(0.099998 0 0)
(0.0999998 0 0)
(0.100002 0 0)
(0.100004 0 0)
(0.100007 0 0)
(0.100011 0 0)
(0.100013 0 0)
(0.10002 0 0)
(0.100022 0 0)
(0.100035 0 0)
(0.100036 0 0)
(0.100059 0 0)
)
;
    }
    inlet
    {
        type            calculated;
        value           nonuniform List<vector> 
20
(
(0.099993 0 0)
(0.0999942 0 0)
(0.0999946 0 0)
(0.0999955 0 0)
(0.0999961 0 0)
(0.0999969 0 0)
(0.0999976 0 0)
(0.0999983 0 0)
(0.099999 0 0)
(0.0999997 0 0)
(0.1 0 0)
(0.100001 0 0)
(0.100002 0 0)
(0.100002 0 0)
(0.100003 0 0)
(0.100004 0 0)
(0.100004 0 0)
(0.100005 0 0)
(0.100006 0 0)
(0.100007 0 0)
)
;
    }
    outlet
    {
        type            calculated;
        value           nonuniform List<vector> 
20
(
(0.10006 -3.32501e-05 0)
(0.10005 -5.53563e-06 0)
(0.100045 -4.23664e-05 0)
(0.100038 -2.78361e-05 0)
(0.100033 -4.66618e-05 0)
(0.100026 -4.18259e-05 0)
(0.100021 -4.95584e-05 0)
(0.100015 -4.94414e-05 0)
(0.100009 -5.16456e-05 0)
(0.100003 -5.21363e-05 0)
(0.0999971 -5.21361e-05 0)
(0.0999912 -5.16404e-05 0)
(0.0999855 -4.94413e-05 0)
(0.0999794 -4.95452e-05 0)
(0.0999737 -4.1826e-05 0)
(0.0999673 -4.66464e-05 0)
(0.0999618 -2.78319e-05 0)
(0.0999545 -4.2359e-05 0)
(0.0999502 -5.52398e-06 0)
(0.09994 -3.32637e-05 0)
)
;
    }
    frontAndBack
    {
        type            empty;
    }
}


// ************************************************************************* //
