/*--------------------------------*- C++ -*----------------------------------*\
  =========                 |
  \\      /  F ield         | OpenFOAM: The Open Source CFD Toolbox
   \\    /   O peration     | Website:  https://openfoam.org
    \\  /    A nd           | Version:  7
     \\/     M anipulation  |
\*---------------------------------------------------------------------------*/
FoamFile
{
    version     2.0;
    format      ascii;
    class       volVectorField;
    location    "64";
    object      ddtCorrDdt0(hU);
}
// * * * * * * * * * * * * * * * * * * * * * * * * * * * * * * * * * * * * * //

dimensions      [0 2 -2 0 0 0 0];

internalField   nonuniform List<vector> 
400
(
(-6.68628e-11 -1.71659e-11 0)
(-3.48349e-11 8.79295e-11 0)
(3.26551e-10 8.78615e-11 0)
(2.67352e-10 -1.64363e-10 0)
(-2.22061e-10 1.08496e-10 0)
(3.03909e-10 1.44868e-09 0)
(1.32273e-09 3.95513e-10 0)
(-2.94285e-09 -1.80408e-09 0)
(-1.05212e-09 1.17788e-10 0)
(-4.08826e-10 5.26384e-12 0)
(-4.30623e-10 1.05418e-10 0)
(8.94632e-11 8.74774e-11 0)
(3.84601e-10 -2.33193e-11 0)
(4.09521e-10 -6.17129e-11 0)
(3.1296e-10 -4.037e-11 0)
(2.20392e-10 5.46264e-11 0)
(5.319e-11 1.45149e-10 0)
(1.34952e-11 2.02196e-10 0)
(-1.33012e-10 2.54246e-10 0)
(-2.46776e-10 4.10739e-11 0)
(-5.84364e-11 -1.37599e-11 0)
(2.32209e-11 9.62748e-11 0)
(1.23311e-10 -4.84892e-11 0)
(3.17219e-10 -3.27296e-10 0)
(3.01507e-10 -2.46386e-10 0)
(5.86602e-11 1.21072e-09 0)
(-5.85686e-10 -3.96501e-10 0)
(2.08447e-09 -8.9616e-10 0)
(1.0704e-09 8.34368e-11 0)
(-1.68228e-10 -5.41288e-11 0)
(-1.27414e-10 2.06268e-10 0)
(-1.10223e-11 3.04437e-10 0)
(7.8562e-11 1.78904e-10 0)
(1.57871e-10 3.49369e-11 0)
(1.83166e-10 -7.29145e-11 0)
(2.00441e-10 -1.17114e-10 0)
(1.19231e-10 -4.83881e-11 0)
(8.81231e-11 4.79705e-11 0)
(-6.31506e-11 1.83964e-10 0)
(-2.17159e-10 1.17947e-10 0)
(-6.37327e-11 -2.57255e-11 0)
(6.90917e-11 -2.90192e-12 0)
(1.24884e-10 7.21259e-11 0)
(2.5042e-10 3.5012e-10 0)
(2.13502e-10 1.40424e-10 0)
(1.26333e-10 2.01933e-10 0)
(-9.70533e-10 -1.6443e-10 0)
(3.76917e-10 1.3731e-09 0)
(-1.99631e-10 2.26817e-10 0)
(-5.68914e-11 -8.2207e-11 0)
(2.74439e-10 -1.00169e-10 0)
(1.75098e-10 -1.23487e-10 0)
(3.42336e-11 -1.7479e-10 0)
(5.10098e-11 -1.4509e-10 0)
(9.87587e-11 -9.6115e-11 0)
(1.92096e-10 6.31201e-11 0)
(1.51411e-10 2.73356e-10 0)
(1.24101e-10 3.99633e-10 0)
(-1.43277e-10 5.71478e-10 0)
(-3.32348e-10 1.91046e-10 0)
(-3.40836e-11 -4.14429e-11 0)
(7.77761e-11 -6.63853e-11 0)
(2.36836e-10 1.27272e-10 0)
(1.77633e-10 3.81884e-10 0)
(2.41835e-10 4.01676e-10 0)
(-7.392e-11 1.30722e-10 0)
(-9.65451e-11 7.33855e-10 0)
(4.53694e-10 6.12248e-10 0)
(-3.76103e-10 2.09857e-10 0)
(-2.19533e-10 1.76012e-10 0)
(1.16332e-10 -1.11976e-11 0)
(-2.32448e-11 -2.70588e-10 0)
(-7.96519e-11 -3.7203e-10 0)
(1.1485e-11 -2.96961e-10 0)
(1.02446e-10 -1.60932e-10 0)
(2.16685e-10 1.4147e-10 0)
(2.22429e-10 4.4791e-10 0)
(1.74025e-10 5.54552e-10 0)
(-5.72071e-11 7.55183e-10 0)
(-2.66808e-10 2.73647e-10 0)
(-1.98881e-13 -2.29988e-11 0)
(7.07891e-11 -7.18312e-11 0)
(1.68116e-10 4.25406e-11 0)
(3.78219e-12 1.40244e-10 0)
(1.82145e-10 5.1535e-10 0)
(-1.12499e-10 1.76904e-10 0)
(3.69721e-10 7.34817e-10 0)
(-5.36694e-11 3.68807e-10 0)
(-2.98022e-10 1.01569e-10 0)
(2.23749e-10 2.0169e-10 0)
(1.23125e-11 -1.26068e-10 0)
(-1.70635e-10 -3.67669e-10 0)
(-9.57869e-11 -4.07689e-10 0)
(1.55653e-11 -3.13076e-10 0)
(1.28603e-10 -1.56941e-10 0)
(2.38635e-10 1.8476e-10 0)
(1.90777e-10 5.06259e-10 0)
(1.19165e-10 5.61713e-10 0)
(-8.15858e-11 7.68122e-10 0)
(-2.3842e-10 2.96579e-10 0)
(-1.77486e-11 -2.28432e-11 0)
(8.45087e-11 -4.34122e-11 0)
(2.13851e-10 1.45038e-10 0)
(1.70005e-10 3.41781e-10 0)
(1.57147e-10 7.89249e-10 0)
(-2.07591e-12 7.77136e-10 0)
(1.67664e-10 9.13184e-10 0)
(-3.50162e-10 4.12378e-10 0)
(-1.07446e-11 4.3905e-10 0)
(-9.63676e-12 6.95068e-11 0)
(-3.44456e-10 -3.91315e-10 0)
(-1.88669e-10 -4.94524e-10 0)
(4.84571e-11 -5.00063e-10 0)
(1.77762e-10 -3.39988e-10 0)
(3.20557e-10 -1.00565e-10 0)
(4.16709e-10 3.25172e-10 0)
(2.32453e-10 6.88061e-10 0)
(4.30059e-11 7.57496e-10 0)
(-1.87941e-10 9.99454e-10 0)
(-2.83639e-10 3.176e-10 0)
(-3.68155e-11 -3.28405e-11 0)
(5.72373e-11 -1.96115e-11 0)
(9.36264e-11 3.64857e-11 0)
(1.7864e-10 2.70468e-10 0)
(4.54493e-11 4.11855e-10 0)
(1.3473e-10 7.34092e-10 0)
(3.42731e-11 6.39361e-10 0)
(-1.25488e-11 5.03647e-10 0)
(1.47484e-10 4.28517e-10 0)
(-2.31651e-10 -7.9812e-11 0)
(-2.34706e-10 -2.77595e-10 0)
(-7.39697e-12 -2.89698e-10 0)
(4.06764e-11 -4.02252e-10 0)
(7.82955e-11 -2.80741e-10 0)
(1.64744e-10 -6.2302e-11 0)
(2.17918e-10 2.43618e-10 0)
(9.70225e-11 5.46273e-10 0)
(-4.42534e-11 6.59255e-10 0)
(-7.70413e-11 1.01128e-09 0)
(-3.81541e-11 3.89718e-10 0)
(-3.96344e-11 -4.97674e-11 0)
(5.79959e-11 2.76968e-11 0)
(5.04415e-11 7.21703e-11 0)
(1.81113e-10 3.7706e-10 0)
(5.8795e-11 5.02985e-10 0)
(1.53968e-10 8.04957e-10 0)
(-8.69135e-11 6.77228e-10 0)
(5.60452e-11 6.05015e-10 0)
(-1.0898e-10 2.3036e-10 0)
(-2.63954e-10 -1.33883e-10 0)
(4.05941e-11 -2.50915e-10 0)
(3.40198e-11 -4.02196e-10 0)
(1.46153e-11 -5.24252e-10 0)
(1.98012e-10 -3.18306e-10 0)
(2.37343e-10 -6.69046e-11 0)
(1.59716e-10 2.62904e-10 0)
(2.22391e-11 5.93089e-10 0)
(-6.77928e-11 7.68498e-10 0)
(-1.55599e-10 1.20925e-09 0)
(-1.10562e-10 4.43044e-10 0)
(4.16262e-13 -4.16378e-11 0)
(3.92995e-11 -2.47834e-11 0)
(3.93153e-11 1.47946e-10 0)
(6.59438e-11 3.27113e-10 0)
(3.96639e-11 5.93182e-10 0)
(3.66088e-11 7.1804e-10 0)
(-5.54528e-11 7.13882e-10 0)
(3.09897e-11 6.0173e-10 0)
(-9.76848e-11 2.09173e-10 0)
(-9.04794e-13 7.56023e-11 0)
(1.16727e-10 -1.85229e-10 0)
(-2.25045e-11 -4.46891e-10 0)
(4.24914e-12 -4.63907e-10 0)
(1.32972e-10 -3.15076e-10 0)
(5.61946e-11 -2.15279e-10 0)
(-8.27063e-11 1.08781e-10 0)
(-9.94242e-11 5.39012e-10 0)
(-3.72821e-11 7.86305e-10 0)
(-1.1918e-11 1.29736e-09 0)
(6.61832e-13 5.24246e-10 0)
(-1.20468e-12 -5.51378e-11 0)
(-1.83322e-11 -7.2765e-11 0)
(5.28752e-11 1.66572e-10 0)
(-2.47595e-11 3.25034e-10 0)
(6.64444e-12 6.35323e-10 0)
(-6.61926e-11 7.39021e-10 0)
(1.70523e-11 7.78449e-10 0)
(-5.61047e-11 5.97935e-10 0)
(1.87139e-11 2.3397e-10 0)
(1.07622e-10 3.00378e-11 0)
(-2.31956e-11 -3.30699e-10 0)
(2.69341e-11 -5.56202e-10 0)
(4.48054e-11 -5.26111e-10 0)
(-8.87298e-11 -3.86349e-10 0)
(-1.1997e-10 -2.74127e-10 0)
(-4.64294e-11 1.38737e-10 0)
(1.26726e-11 6.45334e-10 0)
(7.85134e-11 8.97812e-10 0)
(4.85073e-11 1.36668e-09 0)
(-4.57507e-11 5.22767e-10 0)
(3.28334e-12 -1.14591e-10 0)
(-3.74828e-11 9.96509e-14 0)
(4.40781e-11 1.15551e-10 0)
(-6.22325e-11 3.67466e-10 0)
(-9.43687e-12 5.72736e-10 0)
(-1.04918e-10 7.7712e-10 0)
(2.41661e-11 7.51729e-10 0)
(-9.34957e-11 5.87731e-10 0)
(4.80558e-11 2.89389e-10 0)
(1.52582e-10 -1.09055e-10 0)
(-3.22519e-11 -3.82786e-10 0)
(8.90928e-11 -5.55379e-10 0)
(9.01178e-11 -6.79852e-10 0)
(-1.54971e-10 -5.05203e-10 0)
(-1.96544e-10 -2.18915e-10 0)
(-9.59606e-11 2.51467e-10 0)
(5.25002e-13 7.1759e-10 0)
(7.15126e-11 9.20424e-10 0)
(9.59816e-11 1.34757e-09 0)
(7.18959e-12 5.02736e-10 0)
(3.55695e-11 -9.20245e-11 0)
(-7.63179e-12 1.35731e-11 0)
(-2.75601e-11 7.4292e-11 0)
(-7.31739e-11 3.59183e-10 0)
(-1.66746e-11 5.23943e-10 0)
(-4.59251e-11 7.7235e-10 0)
(-9.37112e-12 7.45438e-10 0)
(1.54676e-11 5.7136e-10 0)
(-3.05256e-11 4.0226e-10 0)
(1.17336e-10 -1.12612e-10 0)
(5.47736e-11 -3.68347e-10 0)
(-5.31964e-11 -4.65516e-10 0)
(-2.97979e-12 -6.67552e-10 0)
(2.68987e-11 -5.36048e-10 0)
(-2.70085e-11 -2.09233e-10 0)
(-7.67003e-11 2.75925e-10 0)
(-8.02367e-12 7.24641e-10 0)
(9.78143e-11 8.77398e-10 0)
(9.49259e-11 1.25069e-09 0)
(-2.31984e-11 4.65586e-10 0)
(6.10513e-12 -1.37022e-11 0)
(-1.81752e-11 -5.28271e-11 0)
(-1.18669e-10 9.73226e-11 0)
(-4.078e-11 2.556e-10 0)
(-7.2576e-11 5.93901e-10 0)
(3.87845e-11 7.29491e-10 0)
(-1.02371e-10 8.50627e-10 0)
(1.42486e-10 5.64363e-10 0)
(-3.91591e-11 4.36127e-10 0)
(-4.06291e-11 1.99407e-11 0)
(1.74854e-10 -4.11753e-10 0)
(-1.0571e-11 -5.18993e-10 0)
(-9.37681e-11 -5.69357e-10 0)
(2.74453e-11 -4.46837e-10 0)
(-2.18343e-13 -2.07986e-10 0)
(-1.25039e-10 2.93664e-10 0)
(-8.177e-11 7.68522e-10 0)
(-1.62435e-11 8.77546e-10 0)
(8.29634e-11 1.1594e-09 0)
(1.15318e-10 3.80817e-10 0)
(-6.46121e-12 3.59218e-12 0)
(-6.73148e-11 -4.71611e-11 0)
(-1.86826e-10 9.46508e-11 0)
(-3.66364e-11 1.55688e-10 0)
(-1.0829e-10 5.34861e-10 0)
(9.78809e-11 4.84788e-10 0)
(-1.14471e-10 7.37223e-10 0)
(5.2399e-11 5.15217e-10 0)
(9.66081e-11 3.03063e-10 0)
(-2.56419e-10 2.65246e-10 0)
(-8.01586e-11 -1.06945e-10 0)
(4.5996e-11 -3.52949e-10 0)
(9.66409e-13 -3.80138e-10 0)
(2.83123e-11 -3.05735e-10 0)
(5.8052e-11 -2.09014e-10 0)
(8.26459e-12 1.60694e-10 0)
(-6.00877e-11 5.76688e-10 0)
(-1.31281e-10 6.88742e-10 0)
(-6.70763e-11 1.00217e-09 0)
(8.96125e-11 3.8089e-10 0)
(2.58139e-11 -3.27853e-11 0)
(-1.16389e-10 1.17319e-11 0)
(-2.57456e-10 1.6766e-10 0)
(-2.21151e-10 4.28451e-10 0)
(-1.64871e-10 6.13666e-10 0)
(3.97367e-12 7.08204e-10 0)
(1.28204e-10 7.23171e-10 0)
(-4.77808e-11 7.00943e-10 0)
(4.42667e-10 1.16883e-10 0)
(1.7523e-10 6.90603e-11 0)
(-1.64322e-10 -5.9287e-11 0)
(-9.32054e-11 -3.06872e-10 0)
(-1.01346e-10 -3.97512e-10 0)
(-1.9195e-10 -2.80571e-10 0)
(-1.72929e-10 -1.36293e-10 0)
(-1.62704e-10 2.08649e-10 0)
(-1.44623e-10 5.71546e-10 0)
(-1.5789e-10 7.16239e-10 0)
(9.67159e-11 1.03893e-09 0)
(3.23544e-10 3.53286e-10 0)
(6.50662e-11 -8.57637e-11 0)
(-7.17562e-11 -2.04079e-11 0)
(-1.57395e-10 4.38194e-11 0)
(-2.65454e-10 2.84762e-10 0)
(-4.85275e-11 1.77303e-10 0)
(-2.18779e-10 6.99211e-10 0)
(2.95661e-10 1.62659e-10 0)
(-3.41928e-10 5.93442e-10 0)
(2.657e-11 1.86902e-10 0)
(3.99113e-10 -1.58077e-10 0)
(-2.19915e-11 -8.61328e-11 0)
(-1.65221e-10 -1.17455e-10 0)
(-1.42578e-10 -2.08925e-10 0)
(-1.63307e-10 -1.47525e-10 0)
(-1.24921e-10 -5.92529e-11 0)
(-1.12813e-10 1.12661e-10 0)
(-9.13317e-11 3.49418e-10 0)
(-1.08478e-10 4.94056e-10 0)
(5.27785e-11 7.9964e-10 0)
(2.29218e-10 3.25443e-10 0)
(9.58322e-11 -1.0739e-10 0)
(-8.55343e-13 -2.49005e-11 0)
(-1.78942e-10 9.06622e-11 0)
(-3.90359e-10 3.15845e-10 0)
(-3.51278e-11 3.83911e-10 0)
(-4.00539e-10 1.06754e-09 0)
(2.5686e-10 1.8328e-11 0)
(5.64465e-10 1.0055e-10 0)
(-2.57051e-10 3.04632e-10 0)
(4.06062e-10 -1.55223e-10 0)
(4.15066e-10 -2.13164e-10 0)
(4.35268e-11 -1.5394e-10 0)
(-1.47237e-10 -1.90512e-10 0)
(-2.42948e-10 -1.22197e-10 0)
(-2.67407e-10 -2.43396e-11 0)
(-2.68198e-10 1.52183e-10 0)
(-1.58641e-10 3.60595e-10 0)
(-9.62424e-11 4.93863e-10 0)
(6.65089e-11 7.51543e-10 0)
(2.42925e-10 2.79252e-10 0)
(1.03841e-10 1.21061e-11 0)
(5.69653e-11 -3.27475e-11 0)
(-1.16607e-10 5.30922e-11 0)
(-2.40078e-10 4.65983e-11 0)
(1.73114e-11 4.39719e-10 0)
(-3.0933e-10 5.45442e-10 0)
(-8.63686e-10 -4.59356e-10 0)
(7.05718e-10 5.74932e-10 0)
(1.71321e-10 -6.4204e-12 0)
(1.96551e-10 6.4988e-11 0)
(4.5974e-10 -1.89867e-10 0)
(1.59518e-10 -2.65123e-10 0)
(-1.38647e-10 -2.68489e-10 0)
(-2.89861e-10 -1.66513e-10 0)
(-3.391e-10 -4.08374e-11 0)
(-3.40024e-10 1.45059e-10 0)
(-1.47726e-10 3.06071e-10 0)
(-5.13231e-11 3.82375e-10 0)
(1.81448e-10 5.5672e-10 0)
(3.26971e-10 1.90462e-10 0)
(4.13989e-11 1.50773e-10 0)
(-1.13669e-11 -8.69132e-11 0)
(-2.87572e-10 -1.08463e-10 0)
(-1.76169e-10 4.56977e-12 0)
(-1.43796e-10 2.4263e-10 0)
(4.78148e-10 -1.19787e-09 0)
(-3.24491e-10 2.21717e-09 0)
(-2.81728e-09 -9.45038e-11 0)
(-3.71146e-10 4.77306e-10 0)
(4.255e-10 3.63896e-10 0)
(2.01597e-10 -7.71017e-11 0)
(8.72259e-11 -2.56601e-10 0)
(-5.00972e-11 -2.07319e-10 0)
(-1.65301e-10 -1.08104e-10 0)
(-2.42118e-10 -3.94793e-11 0)
(-2.86261e-10 1.28581e-11 0)
(-1.58685e-10 6.5435e-11 0)
(-5.87922e-11 8.43752e-11 0)
(1.04418e-10 1.85157e-10 0)
(2.22389e-10 1.19088e-10 0)
(-5.18817e-11 8.69788e-11 0)
(-1.53305e-10 -3.8703e-11 0)
(-1.44387e-10 2.1177e-11 0)
(-8.31431e-11 3.50659e-10 0)
(-4.44371e-10 4.17275e-10 0)
(-1.00684e-10 -8.00342e-10 0)
(5.91259e-10 2.98792e-09 0)
(2.23139e-09 -6.84192e-10 0)
(8.17981e-10 6.26045e-10 0)
(-5.48029e-10 1.62481e-10 0)
(-4.0808e-10 -1.98245e-10 0)
(-5.45165e-12 -3.11785e-10 0)
(1.10672e-10 -2.47926e-10 0)
(-1.73863e-11 -1.16558e-10 0)
(-1.72123e-10 -4.93769e-12 0)
(-2.72796e-10 1.27115e-10 0)
(-1.5006e-10 2.09834e-10 0)
(-3.88414e-11 2.31794e-10 0)
(1.56444e-10 2.60823e-10 0)
(2.46268e-10 4.10661e-11 0)
)
;

boundaryField
{
    sides
    {
        type            calculated;
        value           nonuniform List<vector> 
40
(
(-5.18817e-11 0 0)
(-1.53305e-10 0 0)
(-1.44387e-10 0 0)
(-8.31431e-11 0 0)
(-4.44371e-10 0 0)
(-1.00684e-10 0 0)
(5.91259e-10 0 0)
(2.23139e-09 0 0)
(8.17981e-10 0 0)
(-5.48029e-10 0 0)
(-4.0808e-10 0 0)
(-5.45165e-12 0 0)
(1.10672e-10 0 0)
(-1.73863e-11 0 0)
(-1.72123e-10 0 0)
(-2.72796e-10 0 0)
(-1.5006e-10 0 0)
(-3.88414e-11 0 0)
(1.56444e-10 0 0)
(2.46268e-10 0 0)
(-6.68628e-11 0 0)
(-3.48349e-11 0 0)
(3.26551e-10 0 0)
(2.67352e-10 0 0)
(-2.22061e-10 0 0)
(3.03909e-10 0 0)
(1.32273e-09 0 0)
(-2.94285e-09 0 0)
(-1.05212e-09 0 0)
(-4.08826e-10 0 0)
(-4.30623e-10 0 0)
(8.94632e-11 0 0)
(3.84601e-10 0 0)
(4.09521e-10 0 0)
(3.1296e-10 0 0)
(2.20392e-10 0 0)
(5.319e-11 0 0)
(1.34952e-11 0 0)
(-1.33012e-10 0 0)
(-2.46776e-10 0 0)
)
;
    }
    inlet
    {
        type            calculated;
        value           uniform (0 0 0);
    }
    outlet
    {
        type            calculated;
        value           nonuniform List<vector> 
20
(
(-2.46776e-10 4.10739e-11 0)
(-2.17159e-10 1.17947e-10 0)
(-3.32348e-10 1.91046e-10 0)
(-2.66808e-10 2.73647e-10 0)
(-2.3842e-10 2.96579e-10 0)
(-2.83639e-10 3.176e-10 0)
(-3.81541e-11 3.89718e-10 0)
(-1.10562e-10 4.43044e-10 0)
(6.61832e-13 5.24246e-10 0)
(-4.57507e-11 5.22767e-10 0)
(7.18959e-12 5.02736e-10 0)
(-2.31984e-11 4.65586e-10 0)
(1.15318e-10 3.80817e-10 0)
(8.96125e-11 3.8089e-10 0)
(3.23544e-10 3.53286e-10 0)
(2.29218e-10 3.25443e-10 0)
(2.42925e-10 2.79252e-10 0)
(3.26971e-10 1.90462e-10 0)
(2.22389e-10 1.19088e-10 0)
(2.46268e-10 4.10661e-11 0)
)
;
    }
    frontAndBack
    {
        type            empty;
    }
}


// ************************************************************************* //
