/*--------------------------------*- C++ -*----------------------------------*\
  =========                 |
  \\      /  F ield         | OpenFOAM: The Open Source CFD Toolbox
   \\    /   O peration     | Website:  https://openfoam.org
    \\  /    A nd           | Version:  7
     \\/     M anipulation  |
\*---------------------------------------------------------------------------*/
FoamFile
{
    version     2.0;
    format      ascii;
    class       surfaceScalarField;
    location    "64";
    object      ddtCorrDdt0(phi);
}
// * * * * * * * * * * * * * * * * * * * * * * * * * * * * * * * * * * * * * //

dimensions      [0 4 -2 0 0 0 0];

internalField   nonuniform List<scalar> 
760
(
-6.84313e-13
5.17763e-14
8.49321e-13
4.89614e-13
2.81972e-12
-3.24468e-13
1.16267e-12
-1.58505e-12
-6.53844e-12
2.10757e-12
9.72574e-12
-3.3024e-10
-1.49569e-12
2.70544e-10
-1.53688e-11
-2.87368e-10
-1.34529e-12
-1.31922e-11
-2.76721e-12
-2.95398e-13
-7.89621e-13
2.08208e-13
1.36832e-12
6.94721e-13
2.06522e-12
5.23018e-13
1.8692e-12
2.17862e-13
1.34165e-12
-9.21946e-14
6.27768e-13
-1.61039e-13
4.13851e-14
1.30128e-13
-2.73227e-13
5.08348e-13
-9.35952e-13
9.95345e-13
3.83654e-13
3.64751e-13
5.74427e-14
7.64012e-13
3.25509e-13
-4.18473e-13
4.16429e-13
2.42131e-12
3.32839e-13
1.83862e-12
-1.69156e-12
1.04093e-12
7.60453e-12
-4.72117e-12
-1.4676e-11
1.53716e-11
2.27313e-11
2.30397e-13
7.20329e-13
-8.07177e-13
3.68645e-14
-3.63899e-13
6.98044e-14
1.08586e-13
1.31578e-13
6.10928e-13
-1.60463e-13
9.24492e-13
-2.50976e-13
9.39703e-13
-3.32851e-13
7.35847e-13
-4.71694e-14
4.79717e-13
6.82577e-13
1.47096e-13
1.27164e-12
-7.08037e-13
2.05864e-12
8.10098e-13
8.16683e-13
-2.676e-13
1.94058e-13
-1.88939e-14
3.88096e-13
5.80402e-13
7.73912e-13
1.55907e-12
4.55845e-12
5.29946e-14
-7.32153e-12
1.55307e-12
1.75571e-12
2.22522e-12
-3.3751e-13
-1.37374e-12
-1.05687e-12
1.90275e-12
9.34985e-13
3.80969e-13
1.27564e-12
1.42408e-13
3.94593e-13
-6.10718e-13
1.96123e-13
-1.24807e-12
3.92772e-13
-1.16947e-12
5.96574e-13
-7.59388e-13
8.19015e-13
3.78896e-13
7.75896e-13
1.68847e-12
6.81182e-14
2.32011e-12
-1.26887e-12
3.24873e-12
1.16365e-12
7.13098e-13
-1.75051e-13
6.99949e-13
-3.54698e-13
1.29737e-12
3.59553e-13
-5.9056e-13
1.6308e-12
3.60605e-12
2.67294e-12
-3.81457e-12
5.85351e-13
2.90965e-12
4.54811e-12
4.31171e-14
4.31507e-12
-2.29115e-12
-1.54177e-13
3.26444e-13
6.85482e-13
2.22929e-13
-2.05548e-13
-3.66996e-13
-1.66365e-12
-1.49914e-13
-2.15188e-12
2.54754e-13
-1.7588e-12
6.54128e-13
-9.61333e-13
1.12119e-12
8.43643e-13
1.12812e-12
2.54089e-12
3.97453e-13
2.93605e-12
-8.83047e-13
3.94366e-12
1.46064e-12
6.27765e-13
-6.96459e-14
6.28887e-13
-3.52351e-13
6.38154e-13
4.00532e-13
-3.80247e-13
1.03755e-12
1.07881e-12
3.94181e-12
-2.39209e-13
1.8365e-12
2.31451e-12
4.1128e-12
-2.50574e-12
7.90418e-13
4.7589e-13
1.37847e-12
8.5198e-13
1.21124e-12
-6.9444e-13
-1.16743e-12
-6.42507e-13
-2.21809e-12
-2.07293e-13
-2.26283e-12
2.77731e-13
-1.64314e-12
9.16933e-13
-6.93068e-13
1.17916e-12
1.2656e-12
8.11105e-13
2.971e-12
1.24298e-13
3.19277e-12
-8.6571e-13
4.28082e-12
1.49981e-12
4.60159e-13
-1.78445e-13
1.05414e-12
-2.88209e-13
5.19281e-13
4.71529e-13
1.46635e-12
1.24841e-12
-6.80048e-13
2.86843e-12
1.47542e-12
4.16375e-12
-8.32955e-13
3.87425e-12
-1.40303e-12
2.32257e-12
8.19073e-13
2.60336e-12
-1.24998e-12
-2.20501e-13
-1.52803e-12
-2.15971e-12
-1.73716e-13
-2.17916e-12
4.6761e-13
-2.30517e-12
1.12041e-12
-1.54987e-12
2.00137e-12
-3.44578e-13
1.78689e-12
1.55111e-12
5.75343e-13
3.22841e-12
-4.11966e-13
3.63125e-12
-1.17574e-12
4.99106e-12
1.70812e-12
1.46688e-13
-1.88389e-13
7.94801e-13
1.31436e-13
2.3193e-14
2.40657e-13
1.34747e-12
2.05269e-12
-3.49848e-13
2.10399e-12
1.31864e-12
4.04553e-12
-8.59854e-13
3.12991e-12
9.49357e-13
2.88481e-12
-1.86679e-13
1.54614e-12
-1.60865e-12
-9.33726e-13
-3.93146e-13
-1.2446e-12
1.51704e-13
-1.44467e-12
1.35252e-13
-2.28935e-12
5.77783e-13
-1.51285e-12
1.14998e-12
-2.24309e-13
9.11703e-13
1.29216e-12
-2.42431e-14
2.76504e-12
-4.76918e-13
3.47873e-12
-2.62427e-13
5.51135e-12
2.07421e-12
3.06579e-13
-2.82129e-13
1.60893e-13
2.17323e-13
7.43197e-13
5.1526e-13
3.6766e-13
1.68152e-12
7.84261e-13
2.67689e-12
1.73453e-13
3.68739e-12
-4.67547e-13
3.41183e-12
5.14597e-13
3.09807e-12
-1.54123e-12
9.86297e-13
-4.26885e-13
3.21633e-14
5.04174e-13
-7.88924e-13
-1.89656e-13
-2.09419e-12
4.74674e-13
-2.54861e-12
1.27872e-12
-1.53229e-12
1.05206e-12
-5.92304e-13
4.33978e-13
9.2946e-13
-2.25079e-13
2.70734e-12
-6.66423e-13
3.79797e-12
-6.34646e-13
6.29998e-12
2.4688e-12
5.18624e-13
-1.27428e-13
-2.15703e-13
-4.84551e-13
6.45504e-13
8.98982e-13
-1.55394e-13
1.49741e-12
6.43795e-13
3.25319e-12
-3.3691e-13
3.59726e-12
3.57296e-14
3.88651e-12
-1.25011e-13
3.00216e-12
-5.12178e-13
1.07376e-12
6.38057e-13
4.68218e-13
2.01489e-13
-1.38819e-12
-3.4748e-13
-2.62955e-12
4.86321e-13
-2.24292e-12
6.85352e-13
-1.56971e-12
-1.69244e-13
-1.32369e-12
-5.93913e-13
4.79122e-13
-3.54902e-13
2.93773e-12
-6.8525e-14
4.23675e-12
-1.19116e-15
6.66552e-12
2.60936e-12
-1.98914e-13
-4.24781e-13
2.78535e-13
-2.68182e-13
-7.35986e-14
7.748e-13
5.08159e-14
1.7543e-12
-1.59144e-13
3.0933e-12
-1.45279e-13
3.7307e-12
2.44409e-14
3.7755e-12
-4.83724e-13
2.87707e-12
7.20597e-13
1.25611e-12
2.03489e-13
-1.37268e-13
-2.76505e-13
-1.79165e-12
3.44909e-13
-2.79696e-12
3.18502e-14
-2.97887e-12
-5.93269e-13
-2.28771e-12
-5.50514e-13
-1.41718e-12
-1.48964e-13
8.17881e-13
2.94456e-13
3.36911e-12
4.45556e-13
4.61522e-12
-9.11202e-15
6.91506e-12
2.63015e-12
-4.41633e-13
-7.11274e-13
4.04644e-13
3.0887e-13
-3.15905e-13
3.93646e-13
4.13429e-14
1.94223e-12
-4.6249e-13
2.60819e-12
-1.68622e-13
3.93165e-12
-1.31567e-14
3.59094e-12
-6.12018e-13
2.87005e-12
1.09747e-12
1.59753e-12
1.75715e-13
-8.86168e-13
-2.02641e-13
-1.93593e-12
7.65685e-13
-2.63603e-12
-5.59371e-14
-3.70289e-12
-1.06223e-12
-2.74823e-12
-8.53367e-13
-8.64166e-13
-2.60496e-13
1.54829e-12
3.02349e-13
3.66935e-12
6.04317e-13
4.47344e-12
2.29052e-13
6.46989e-12
2.40993e-12
2.13492e-13
-1.80479e-13
-3.63574e-13
-1.32889e-13
4.43919e-14
3.18676e-13
-5.4038e-13
1.60056e-12
1.22918e-13
2.58824e-12
-4.54065e-13
3.84061e-12
3.40165e-13
3.97591e-12
-3.1714e-13
2.89689e-12
2.71036e-13
2.31101e-12
6.66407e-13
-4.26668e-13
-2.00122e-13
-2.04287e-12
-1.96752e-13
-2.29532e-12
2.14126e-13
-3.05943e-12
5.7857e-14
-2.56026e-12
-3.87046e-13
-1.09741e-12
-3.26785e-13
1.46021e-12
3.42739e-13
3.81891e-12
6.53447e-13
4.45562e-12
1.3513e-13
6.01962e-12
2.09791e-12
3.9067e-14
5.70811e-14
-7.73107e-13
-3.51046e-13
1.43193e-13
7.28622e-13
-8.95216e-13
9.00166e-13
4.31507e-13
3.1453e-12
-4.94619e-13
3.16401e-12
1.5929e-13
4.29158e-12
6.62023e-13
2.71989e-12
-8.61575e-13
2.21462e-12
6.42041e-13
1.07741e-12
6.21922e-13
-1.44073e-12
-5.59147e-13
-2.32253e-12
-1.54716e-13
-2.24076e-12
2.35701e-13
-1.7892e-12
-3.25788e-13
-1.12194e-12
-5.92037e-13
1.06993e-12
-1.93107e-13
3.37355e-12
1.84978e-13
3.87249e-12
4.74602e-13
5.28303e-12
1.83224e-12
-5.91902e-13
-8.35965e-14
-4.93019e-13
-1.31557e-13
-7.9595e-13
4.84991e-13
-1.98604e-14
1.35562e-12
-4.4401e-13
3.15235e-12
4.90047e-13
2.48e-12
-8.92495e-13
3.69149e-12
1.29316e-12
2.71858e-12
-8.85683e-13
6.50165e-13
-1.11774e-12
1.08756e-12
2.89387e-13
-1.77608e-13
9.28577e-14
-1.75914e-12
-6.97151e-14
-2.04796e-12
2.22259e-13
-1.48639e-12
3.0687e-13
-8.75353e-13
-6.18968e-14
9.62942e-13
-5.47787e-13
2.92145e-12
-6.50442e-13
3.53008e-12
8.12283e-14
5.11772e-12
1.84264e-12
-8.16119e-13
-3.39096e-13
-7.32514e-13
5.10213e-14
-1.69299e-12
5.84685e-13
1.32168e-13
2.03078e-12
-1.93721e-12
1.37902e-12
1.81986e-12
3.39331e-12
-7.95835e-13
2.34005e-12
1.27576e-12
3.81512e-12
2.02663e-12
2.23007e-13
-5.28244e-13
-4.6774e-13
-6.12457e-13
-9.92821e-14
-2.73755e-13
-7.33711e-13
-8.58139e-13
-1.32764e-12
-1.02858e-12
-9.59711e-13
-6.34155e-13
-4.43778e-13
-6.42203e-13
7.08249e-13
-8.87332e-13
2.13375e-12
-3.74895e-13
2.89659e-12
1.11587e-12
4.55083e-12
1.71852e-12
-4.4245e-13
-5.57984e-13
-5.43303e-13
-1.50851e-13
-9.74965e-13
4.51795e-13
-7.21742e-13
1.60487e-12
-1.23465e-12
1.17359e-12
7.03394e-13
5.53215e-12
3.43129e-13
-3.48516e-14
-2.06316e-12
2.61338e-12
2.088e-12
2.14176e-12
8.08567e-13
-1.1502e-12
-6.98579e-13
-1.1477e-12
-6.42728e-13
-8.71896e-13
-8.19929e-13
-1.13133e-12
-8.28527e-13
-7.15803e-13
-4.731e-13
-1.72226e-13
-4.02941e-13
7.03198e-13
-5.80625e-13
1.84618e-12
-2.89383e-13
2.61844e-12
7.81992e-13
4.03834e-12
1.53824e-12
8.09371e-14
-1.99098e-13
-7.57788e-13
-1.48219e-13
-6.62921e-13
1.64361e-13
-2.65096e-12
5.80155e-13
1.52724e-12
2.61909e-12
-3.8277e-12
3.51506e-12
5.32083e-12
2.97192e-13
-9.96642e-13
-6.14597e-12
3.74413e-13
6.91515e-13
2.63832e-12
6.8069e-14
1.02287e-12
-1.31881e-12
-3.00089e-13
-1.20189e-12
-9.94599e-13
-1.07467e-12
-1.32126e-12
-5.9721e-13
-1.33858e-12
-9.11044e-14
-1.02938e-12
7.03977e-13
-6.04959e-13
1.54612e-12
-1.77558e-13
2.07067e-12
7.86472e-13
3.15536e-12
1.15772e-12
5.85577e-13
3.04737e-13
-5.11398e-13
-4.87794e-13
-6.14225e-13
-3.61467e-13
-2.20803e-12
1.97299e-14
4.42877e-12
3.96538e-12
-9.85985e-12
-7.85585e-12
3.09945e-12
2.16076e-12
2.5181e-12
2.40531e-11
-1.89388e-13
3.06252e-13
2.20221e-12
5.58841e-13
1.66247e-12
-6.92041e-13
-6.48232e-14
-1.27425e-12
-1.11816e-12
-1.23644e-12
-1.59324e-12
-7.66987e-13
-1.74557e-12
-2.46806e-13
-1.23887e-12
4.61506e-13
-4.06438e-13
1.06298e-12
2.96467e-13
1.26502e-12
1.29518e-12
1.96502e-12
8.00273e-13
-1.72696e-13
5.40764e-13
-5.69971e-13
-3.561e-13
-2.02361e-12
3.25557e-14
-3.48772e-13
1.38957e-12
5.04423e-12
5.8631e-13
-1.13727e-11
1.9329e-10
5.93516e-12
4.40781e-10
-1.61378e-11
-1.74527e-10
2.43451e-12
-7.95357e-12
1.35889e-12
1.68053e-12
7.93148e-13
-9.97272e-15
4.55934e-14
-9.62639e-13
-5.46526e-13
-1.03218e-12
-9.92302e-13
-6.45621e-13
-1.34158e-12
-1.99003e-13
-1.17632e-12
2.90753e-13
-4.83739e-13
6.09245e-13
1.33156e-13
6.87951e-13
8.24898e-13
9.93461e-13
3.83003e-13
-1.52835e-12
-8.74639e-13
3.02486e-13
7.37648e-13
-1.2269e-11
2.12773e-11
-1.21679e-11
1.77147e-11
-1.67387e-12
-2.94522e-12
-8.3652e-13
4.85421e-13
2.94496e-13
-4.74421e-13
-1.13568e-12
-1.13587e-12
-4.35744e-13
3.4288e-13
1.02976e-12
)
;

boundaryField
{
    sides
    {
        type            calculated;
        value           uniform 0;
    }
    inlet
    {
        type            calculated;
        value           uniform 0;
    }
    outlet
    {
        type            calculated;
        value           nonuniform List<scalar> 
20
(
-1.19588e-12
-1.10786e-12
-1.7197e-12
-1.44463e-12
-1.26415e-12
-1.39418e-12
1.37288e-14
-3.62746e-13
5.72559e-16
-3.44209e-13
-2.23727e-13
-3.28635e-13
5.35243e-13
6.16266e-13
1.8308e-12
1.26934e-12
1.30435e-12
1.63047e-12
1.05527e-12
1.13955e-12
)
;
    }
    frontAndBack
    {
        type            empty;
        value           nonuniform 0();
    }
}


// ************************************************************************* //
