/*--------------------------------*- C++ -*----------------------------------*\
  =========                 |
  \\      /  F ield         | OpenFOAM: The Open Source CFD Toolbox
   \\    /   O peration     | Website:  https://openfoam.org
    \\  /    A nd           | Version:  7
     \\/     M anipulation  |
\*---------------------------------------------------------------------------*/
FoamFile
{
    version     2.0;
    format      ascii;
    class       volVectorField;
    location    "64";
    object      hU;
}
// * * * * * * * * * * * * * * * * * * * * * * * * * * * * * * * * * * * * * //

dimensions      [0 2 -1 0 0 0 0];

internalField   nonuniform List<vector> 
400
(
(0.001 -8.71524e-09 0)
(0.000999999 -2.36715e-08 0)
(0.001 -3.58586e-08 0)
(0.001 -4.66264e-08 0)
(0.00100001 -5.68782e-08 0)
(0.00100001 -6.73179e-08 0)
(0.00100002 -7.81539e-08 0)
(0.00100003 -8.94295e-08 0)
(0.00100004 -1.00095e-07 0)
(0.00100006 -1.12037e-07 0)
(0.00100007 -1.22708e-07 0)
(0.0010001 -1.36153e-07 0)
(0.00100011 -1.46442e-07 0)
(0.00100015 -1.63192e-07 0)
(0.00100017 -1.71985e-07 0)
(0.00100024 -1.9611e-07 0)
(0.00100026 -2.00708e-07 0)
(0.00100038 -2.43005e-07 0)
(0.00100038 -2.39304e-07 0)
(0.00100061 -3.32042e-07 0)
(0.001 3.97667e-09 0)
(0.001 1.21282e-08 0)
(0.00100001 2.02696e-08 0)
(0.00100001 2.79569e-08 0)
(0.00100002 3.51704e-08 0)
(0.00100002 4.18182e-08 0)
(0.00100003 4.77686e-08 0)
(0.00100004 5.30783e-08 0)
(0.00100005 5.84703e-08 0)
(0.00100007 6.23599e-08 0)
(0.00100008 6.7023e-08 0)
(0.0010001 6.86258e-08 0)
(0.00100012 7.27234e-08 0)
(0.00100016 6.99241e-08 0)
(0.00100018 7.40958e-08 0)
(0.00100023 6.17847e-08 0)
(0.00100026 6.72663e-08 0)
(0.00100035 3.18588e-08 0)
(0.00100037 3.99016e-08 0)
(0.0010005 -5.46507e-08 0)
(0.001 -3.93721e-09 0)
(0.000999999 -1.28921e-08 0)
(0.001 -2.28418e-08 0)
(0.001 -3.33961e-08 0)
(0.00100001 -4.39792e-08 0)
(0.00100001 -5.49006e-08 0)
(0.00100002 -6.56525e-08 0)
(0.00100003 -7.73933e-08 0)
(0.00100004 -8.9026e-08 0)
(0.00100005 -1.02697e-07 0)
(0.00100006 -1.15354e-07 0)
(0.00100009 -1.32398e-07 0)
(0.0010001 -1.46359e-07 0)
(0.00100014 -1.69745e-07 0)
(0.00100016 -1.84785e-07 0)
(0.00100021 -2.20745e-07 0)
(0.00100023 -2.3544e-07 0)
(0.00100031 -2.97435e-07 0)
(0.00100033 -3.06348e-07 0)
(0.00100046 -4.22517e-07 0)
(0.001 -9.69174e-11 0)
(0.001 1.57459e-10 0)
(0.00100001 9.56106e-10 0)
(0.00100001 1.74913e-09 0)
(0.00100001 2.39264e-09 0)
(0.00100002 2.15465e-09 0)
(0.00100003 1.64978e-09 0)
(0.00100004 -3.82044e-10 0)
(0.00100004 -2.53664e-09 0)
(0.00100006 -7.24065e-09 0)
(0.00100007 -1.13327e-08 0)
(0.00100009 -2.04736e-08 0)
(0.00100011 -2.69943e-08 0)
(0.00100013 -4.39092e-08 0)
(0.00100016 -5.30856e-08 0)
(0.00100019 -8.44399e-08 0)
(0.00100022 -9.51312e-08 0)
(0.00100028 -1.54442e-07 0)
(0.0010003 -1.61111e-07 0)
(0.00100039 -2.76304e-07 0)
(0.001 -2.84991e-09 0)
(0.001 -9.06288e-09 0)
(0.001 -1.60149e-08 0)
(0.001 -2.39865e-08 0)
(0.00100001 -3.26493e-08 0)
(0.00100001 -4.2465e-08 0)
(0.00100002 -5.26893e-08 0)
(0.00100002 -6.45413e-08 0)
(0.00100003 -7.65759e-08 0)
(0.00100004 -9.13755e-08 0)
(0.00100005 -1.05707e-07 0)
(0.00100007 -1.25374e-07 0)
(0.00100009 -1.42525e-07 0)
(0.00100011 -1.70532e-07 0)
(0.00100013 -1.9073e-07 0)
(0.00100016 -2.33738e-07 0)
(0.00100018 -2.55381e-07 0)
(0.00100024 -3.26284e-07 0)
(0.00100025 -3.41662e-07 0)
(0.00100033 -4.64873e-07 0)
(0.001 -2.46518e-09 0)
(0.001 -7.22503e-09 0)
(0.001 -1.17265e-08 0)
(0.00100001 -1.63839e-08 0)
(0.00100001 -2.11984e-08 0)
(0.00100001 -2.69254e-08 0)
(0.00100002 -3.31101e-08 0)
(0.00100002 -4.10013e-08 0)
(0.00100003 -4.92116e-08 0)
(0.00100004 -6.04687e-08 0)
(0.00100005 -7.14952e-08 0)
(0.00100006 -8.82362e-08 0)
(0.00100008 -1.02903e-07 0)
(0.0010001 -1.28903e-07 0)
(0.00100011 -1.4765e-07 0)
(0.00100014 -1.89492e-07 0)
(0.00100016 -2.10506e-07 0)
(0.0010002 -2.80213e-07 0)
(0.00100021 -2.94829e-07 0)
(0.00100027 -4.1569e-07 0)
(0.001 -2.79303e-09 0)
(0.001 -8.56148e-09 0)
(0.001 -1.46885e-08 0)
(0.001 -2.16232e-08 0)
(0.00100001 -2.93576e-08 0)
(0.00100001 -3.84747e-08 0)
(0.00100001 -4.84777e-08 0)
(0.00100002 -6.04597e-08 0)
(0.00100002 -7.30384e-08 0)
(0.00100003 -8.88878e-08 0)
(0.00100004 -1.04646e-07 0)
(0.00100005 -1.26356e-07 0)
(0.00100006 -1.46069e-07 0)
(0.00100007 -1.77338e-07 0)
(0.00100009 -2.01187e-07 0)
(0.00100011 -2.48433e-07 0)
(0.00100012 -2.74197e-07 0)
(0.00100015 -3.49205e-07 0)
(0.00100016 -3.67432e-07 0)
(0.00100021 -4.92856e-07 0)
(0.001 -3.07422e-09 0)
(0.001 -9.39465e-09 0)
(0.001 -1.60049e-08 0)
(0.001 -2.32833e-08 0)
(0.001 -3.11747e-08 0)
(0.00100001 -4.02528e-08 0)
(0.00100001 -5.00195e-08 0)
(0.00100001 -6.16272e-08 0)
(0.00100002 -7.378e-08 0)
(0.00100002 -8.91613e-08 0)
(0.00100003 -1.04532e-07 0)
(0.00100004 -1.25955e-07 0)
(0.00100004 -1.45566e-07 0)
(0.00100006 -1.76818e-07 0)
(0.00100006 -2.00951e-07 0)
(0.00100008 -2.48367e-07 0)
(0.00100009 -2.74684e-07 0)
(0.00100011 -3.49468e-07 0)
(0.00100012 -3.67926e-07 0)
(0.00100015 -4.91621e-07 0)
(0.001 -3.23221e-09 0)
(0.001 -9.86615e-09 0)
(0.001 -1.67571e-08 0)
(0.001 -2.43271e-08 0)
(0.001 -3.2514e-08 0)
(0.001 -4.20038e-08 0)
(0.00100001 -5.23057e-08 0)
(0.00100001 -6.46601e-08 0)
(0.00100001 -7.77431e-08 0)
(0.00100001 -9.42598e-08 0)
(0.00100002 -1.10951e-07 0)
(0.00100002 -1.33892e-07 0)
(0.00100003 -1.55076e-07 0)
(0.00100003 -1.88114e-07 0)
(0.00100004 -2.13952e-07 0)
(0.00100005 -2.63314e-07 0)
(0.00100005 -2.91175e-07 0)
(0.00100007 -3.6794e-07 0)
(0.00100007 -3.87418e-07 0)
(0.00100009 -5.13257e-07 0)
(0.001 -3.30889e-09 0)
(0.001 -1.00923e-08 0)
(0.001 -1.71305e-08 0)
(0.001 -2.4868e-08 0)
(0.001 -3.3266e-08 0)
(0.001 -4.30396e-08 0)
(0.001 -5.36966e-08 0)
(0.001 -6.64503e-08 0)
(0.001 -7.99367e-08 0)
(0.001 -9.68441e-08 0)
(0.00100001 -1.13923e-07 0)
(0.00100001 -1.37214e-07 0)
(0.00100001 -1.58778e-07 0)
(0.00100001 -1.92163e-07 0)
(0.00100001 -2.18424e-07 0)
(0.00100002 -2.68077e-07 0)
(0.00100002 -2.96365e-07 0)
(0.00100002 -3.73206e-07 0)
(0.00100002 -3.93015e-07 0)
(0.00100003 -5.18279e-07 0)
(0.001 -3.31839e-09 0)
(0.001 -1.00887e-08 0)
(0.001 -1.71333e-08 0)
(0.000999999 -2.48596e-08 0)
(0.000999999 -3.32635e-08 0)
(0.000999999 -4.30294e-08 0)
(0.000999998 -5.36951e-08 0)
(0.000999997 -6.64476e-08 0)
(0.000999996 -7.99345e-08 0)
(0.000999995 -9.68575e-08 0)
(0.000999994 -1.1393e-07 0)
(0.000999993 -1.37217e-07 0)
(0.000999991 -1.58785e-07 0)
(0.000999989 -1.92159e-07 0)
(0.000999987 -2.18411e-07 0)
(0.000999984 -2.68063e-07 0)
(0.000999982 -2.96354e-07 0)
(0.000999978 -3.73198e-07 0)
(0.000999977 -3.93013e-07 0)
(0.00099997 -5.18277e-07 0)
(0.001 -3.24458e-09 0)
(0.001 -9.86598e-09 0)
(0.000999999 -1.6763e-08 0)
(0.000999998 -2.43156e-08 0)
(0.000999997 -3.25084e-08 0)
(0.000999996 -4.19861e-08 0)
(0.000999994 -5.22989e-08 0)
(0.000999992 -6.46568e-08 0)
(0.000999989 -7.77333e-08 0)
(0.000999986 -9.42836e-08 0)
(0.000999983 -1.10976e-07 0)
(0.000999978 -1.339e-07 0)
(0.000999973 -1.55083e-07 0)
(0.000999967 -1.88102e-07 0)
(0.000999961 -2.13927e-07 0)
(0.000999952 -2.63273e-07 0)
(0.000999946 -2.91135e-07 0)
(0.000999934 -3.67894e-07 0)
(0.00099993 -3.87392e-07 0)
(0.000999911 -5.13205e-07 0)
(0.001 -3.07288e-09 0)
(0.001 -9.40126e-09 0)
(0.000999999 -1.6006e-08 0)
(0.000999997 -2.32901e-08 0)
(0.000999996 -3.11674e-08 0)
(0.000999993 -4.02523e-08 0)
(0.000999991 -5.00084e-08 0)
(0.000999987 -6.16324e-08 0)
(0.000999983 -7.37692e-08 0)
(0.000999977 -8.91661e-08 0)
(0.000999971 -1.04567e-07 0)
(0.000999963 -1.25983e-07 0)
(0.000999956 -1.4558e-07 0)
(0.000999945 -1.76824e-07 0)
(0.000999936 -2.00958e-07 0)
(0.000999921 -2.48357e-07 0)
(0.000999911 -2.74668e-07 0)
(0.00099989 -3.49451e-07 0)
(0.000999882 -3.67932e-07 0)
(0.000999852 -4.91615e-07 0)
(0.001 -2.78386e-09 0)
(0.000999999 -8.56182e-09 0)
(0.000999998 -1.46853e-08 0)
(0.000999996 -2.16376e-08 0)
(0.000999994 -2.93529e-08 0)
(0.000999991 -3.84975e-08 0)
(0.000999987 -4.84707e-08 0)
(0.000999982 -6.04617e-08 0)
(0.000999977 -7.30366e-08 0)
(0.000999969 -8.88521e-08 0)
(0.000999962 -1.04635e-07 0)
(0.000999951 -1.26359e-07 0)
(0.000999941 -1.46065e-07 0)
(0.000999925 -1.77321e-07 0)
(0.000999913 -2.01175e-07 0)
(0.000999891 -2.48389e-07 0)
(0.000999878 -2.74148e-07 0)
(0.000999847 -3.49115e-07 0)
(0.000999839 -3.67356e-07 0)
(0.000999792 -4.92717e-07 0)
(0.001 -2.46035e-09 0)
(0.000999999 -7.21984e-09 0)
(0.000999997 -1.17251e-08 0)
(0.000999995 -1.63873e-08 0)
(0.000999991 -2.1221e-08 0)
(0.000999987 -2.69545e-08 0)
(0.000999982 -3.3132e-08 0)
(0.000999976 -4.0995e-08 0)
(0.000999968 -4.92373e-08 0)
(0.000999959 -6.04561e-08 0)
(0.000999949 -7.14687e-08 0)
(0.000999935 -8.82322e-08 0)
(0.000999922 -1.0292e-07 0)
(0.000999903 -1.28923e-07 0)
(0.000999886 -1.47676e-07 0)
(0.000999859 -1.89511e-07 0)
(0.000999841 -2.1053e-07 0)
(0.000999802 -2.80214e-07 0)
(0.000999788 -2.9483e-07 0)
(0.000999731 -4.15671e-07 0)
(0.001 -2.85511e-09 0)
(0.001 -9.05548e-09 0)
(0.000999999 -1.60085e-08 0)
(0.000999997 -2.39748e-08 0)
(0.000999994 -3.26792e-08 0)
(0.00099999 -4.24352e-08 0)
(0.000999984 -5.2724e-08 0)
(0.000999977 -6.45096e-08 0)
(0.000999969 -7.65646e-08 0)
(0.000999958 -9.13695e-08 0)
(0.000999946 -1.05664e-07 0)
(0.00099993 -1.25317e-07 0)
(0.000999915 -1.42495e-07 0)
(0.000999891 -1.70501e-07 0)
(0.000999872 -1.90716e-07 0)
(0.000999837 -2.33703e-07 0)
(0.000999817 -2.55368e-07 0)
(0.000999764 -3.26206e-07 0)
(0.000999752 -3.41595e-07 0)
(0.00099967 -4.64711e-07 0)
(0.001 -1.09485e-10 0)
(0.000999998 1.61232e-10 0)
(0.000999995 9.55637e-10 0)
(0.000999991 1.72932e-09 0)
(0.000999986 2.35847e-09 0)
(0.00099998 2.23506e-09 0)
(0.000999974 1.58721e-09 0)
(0.000999965 -4.15603e-10 0)
(0.000999955 -2.54131e-09 0)
(0.000999943 -7.25767e-09 0)
(0.00099993 -1.13209e-08 0)
(0.000999911 -2.04351e-08 0)
(0.000999894 -2.69695e-08 0)
(0.000999867 -4.3892e-08 0)
(0.000999845 -5.30839e-08 0)
(0.000999805 -8.44305e-08 0)
(0.000999779 -9.51362e-08 0)
(0.00099972 -1.54415e-07 0)
(0.000999699 -1.61089e-07 0)
(0.000999611 -2.76244e-07 0)
(0.001 -3.93886e-09 0)
(0.001 -1.28974e-08 0)
(0.001 -2.28416e-08 0)
(0.000999998 -3.34177e-08 0)
(0.000999995 -4.39811e-08 0)
(0.000999989 -5.48338e-08 0)
(0.000999983 -6.57089e-08 0)
(0.000999974 -7.74685e-08 0)
(0.000999963 -8.90305e-08 0)
(0.000999949 -1.02691e-07 0)
(0.000999935 -1.15374e-07 0)
(0.000999914 -1.32406e-07 0)
(0.000999896 -1.46366e-07 0)
(0.000999864 -1.69732e-07 0)
(0.000999841 -1.8479e-07 0)
(0.000999791 -2.20723e-07 0)
(0.000999767 -2.35454e-07 0)
(0.000999687 -2.97401e-07 0)
(0.000999672 -3.06353e-07 0)
(0.000999539 -4.22439e-07 0)
(0.001 3.99187e-09 0)
(0.000999996 1.21e-08 0)
(0.000999991 2.02402e-08 0)
(0.000999987 2.80071e-08 0)
(0.000999982 3.53012e-08 0)
(0.000999976 4.16236e-08 0)
(0.000999969 4.80018e-08 0)
(0.000999959 5.3149e-08 0)
(0.000999948 5.8481e-08 0)
(0.000999934 6.23302e-08 0)
(0.000999919 6.69386e-08 0)
(0.000999897 6.85692e-08 0)
(0.000999877 7.27137e-08 0)
(0.000999844 6.9961e-08 0)
(0.000999819 7.41305e-08 0)
(0.000999767 6.18437e-08 0)
(0.000999738 6.73019e-08 0)
(0.000999654 3.19371e-08 0)
(0.000999629 3.99562e-08 0)
(0.000999495 -5.45249e-08 0)
(0.001 -8.70431e-09 0)
(0.001 -2.36919e-08 0)
(0.001 -3.5891e-08 0)
(0.000999997 -4.65815e-08 0)
(0.000999993 -5.67715e-08 0)
(0.000999986 -6.75413e-08 0)
(0.000999979 -7.79172e-08 0)
(0.000999968 -8.9348e-08 0)
(0.000999958 -1.00126e-07 0)
(0.000999942 -1.12117e-07 0)
(0.000999928 -1.22815e-07 0)
(0.000999903 -1.36236e-07 0)
(0.000999885 -1.46496e-07 0)
(0.000999846 -1.63227e-07 0)
(0.000999826 -1.72026e-07 0)
(0.00099976 -1.96156e-07 0)
(0.000999742 -2.00767e-07 0)
(0.000999623 -2.43074e-07 0)
(0.000999618 -2.39381e-07 0)
(0.000999394 -3.3217e-07 0)
)
;

boundaryField
{
    sides
    {
        type            slip;
    }
    inlet
    {
        type            fixedValue;
        value           uniform (0.001 0 0);
    }
    outlet
    {
        type            zeroGradient;
    }
    frontAndBack
    {
        type            empty;
    }
}


// ************************************************************************* //
