/*--------------------------------*- C++ -*----------------------------------*\
  =========                 |
  \\      /  F ield         | OpenFOAM: The Open Source CFD Toolbox
   \\    /   O peration     | Website:  https://openfoam.org
    \\  /    A nd           | Version:  7
     \\/     M anipulation  |
\*---------------------------------------------------------------------------*/
FoamFile
{
    version     2.0;
    format      ascii;
    class       volVectorField;
    location    "64";
    object      hU_0;
}
// * * * * * * * * * * * * * * * * * * * * * * * * * * * * * * * * * * * * * //

dimensions      [0 2 -1 0 0 0 0];

internalField   nonuniform List<vector> 
400
(
(0.001 -8.71688e-09 0)
(0.000999999 -2.36779e-08 0)
(0.001 -3.58586e-08 0)
(0.001 -4.66097e-08 0)
(0.00100001 -5.6925e-08 0)
(0.00100001 -6.74237e-08 0)
(0.00100002 -7.83008e-08 0)
(0.00100003 -8.92891e-08 0)
(0.00100004 -1.00088e-07 0)
(0.00100006 -1.12031e-07 0)
(0.00100007 -1.22709e-07 0)
(0.0010001 -1.36158e-07 0)
(0.00100011 -1.46442e-07 0)
(0.00100015 -1.6319e-07 0)
(0.00100017 -1.71983e-07 0)
(0.00100024 -1.96116e-07 0)
(0.00100026 -2.00722e-07 0)
(0.00100038 -2.43025e-07 0)
(0.00100038 -2.39329e-07 0)
(0.00100061 -3.32047e-07 0)
(0.001 3.97302e-09 0)
(0.001 1.2123e-08 0)
(0.00100001 2.02836e-08 0)
(0.00100001 2.79932e-08 0)
(0.00100002 3.51519e-08 0)
(0.00100002 4.17438e-08 0)
(0.00100003 4.77033e-08 0)
(0.00100004 5.317e-08 0)
(0.00100005 5.84711e-08 0)
(0.00100007 6.23706e-08 0)
(0.00100008 6.70179e-08 0)
(0.0010001 6.86032e-08 0)
(0.00100012 7.27027e-08 0)
(0.00100016 6.99147e-08 0)
(0.00100018 7.4099e-08 0)
(0.00100023 6.17949e-08 0)
(0.00100026 6.72711e-08 0)
(0.00100035 3.18547e-08 0)
(0.00100037 3.98839e-08 0)
(0.0010005 -5.46626e-08 0)
(0.001 -3.93543e-09 0)
(0.000999999 -1.28906e-08 0)
(0.001 -2.28489e-08 0)
(0.001 -3.34238e-08 0)
(0.00100001 -4.39897e-08 0)
(0.00100001 -5.49286e-08 0)
(0.00100002 -6.56067e-08 0)
(0.00100003 -7.74922e-08 0)
(0.00100004 -8.90616e-08 0)
(0.00100005 -1.02693e-07 0)
(0.00100006 -1.1534e-07 0)
(0.00100009 -1.32385e-07 0)
(0.0010001 -1.46344e-07 0)
(0.00100014 -1.69731e-07 0)
(0.00100016 -1.84774e-07 0)
(0.00100021 -2.20749e-07 0)
(0.00100023 -2.35465e-07 0)
(0.00100031 -2.97473e-07 0)
(0.00100033 -3.06405e-07 0)
(0.00100046 -4.22538e-07 0)
(0.001 -9.1326e-11 0)
(0.001 1.61499e-10 0)
(0.00100001 9.42537e-10 0)
(0.00100001 1.71169e-09 0)
(0.00100001 2.37347e-09 0)
(0.00100002 2.11747e-09 0)
(0.00100003 1.61493e-09 0)
(0.00100004 -4.51637e-10 0)
(0.00100004 -2.56609e-09 0)
(0.00100006 -7.25496e-09 0)
(0.00100007 -1.13353e-08 0)
(0.00100009 -2.04542e-08 0)
(0.00100011 -2.69598e-08 0)
(0.00100013 -4.38771e-08 0)
(0.00100016 -5.30649e-08 0)
(0.00100019 -8.44482e-08 0)
(0.00100022 -9.5171e-08 0)
(0.00100028 -1.54494e-07 0)
(0.0010003 -1.61186e-07 0)
(0.00100039 -2.76334e-07 0)
(0.001 -2.84661e-09 0)
(0.001 -9.05733e-09 0)
(0.001 -1.6018e-08 0)
(0.001 -2.40046e-08 0)
(0.00100001 -3.26861e-08 0)
(0.00100001 -4.24888e-08 0)
(0.00100002 -5.27495e-08 0)
(0.00100002 -6.45928e-08 0)
(0.00100003 -7.65861e-08 0)
(0.00100004 -9.13897e-08 0)
(0.00100005 -1.05703e-07 0)
(0.00100007 -1.25343e-07 0)
(0.00100009 -1.42482e-07 0)
(0.00100011 -1.70495e-07 0)
(0.00100013 -1.90709e-07 0)
(0.00100016 -2.33749e-07 0)
(0.00100018 -2.55426e-07 0)
(0.00100024 -3.26337e-07 0)
(0.00100025 -3.4174e-07 0)
(0.00100033 -4.64906e-07 0)
(0.001 -2.46263e-09 0)
(0.001 -7.22006e-09 0)
(0.001 -1.17387e-08 0)
(0.00100001 -1.64151e-08 0)
(0.00100001 -2.12754e-08 0)
(0.00100001 -2.69931e-08 0)
(0.00100002 -3.32013e-08 0)
(0.00100002 -4.10486e-08 0)
(0.00100003 -4.92451e-08 0)
(0.00100004 -6.04823e-08 0)
(0.00100005 -7.1465e-08 0)
(0.00100006 -8.81854e-08 0)
(0.00100008 -1.02847e-07 0)
(0.0010001 -1.28863e-07 0)
(0.00100011 -1.47634e-07 0)
(0.00100014 -1.89518e-07 0)
(0.00100016 -2.1057e-07 0)
(0.0010002 -2.80287e-07 0)
(0.00100021 -2.94932e-07 0)
(0.00100027 -4.15727e-07 0)
(0.001 -2.7904e-09 0)
(0.001 -8.55577e-09 0)
(0.001 -1.46921e-08 0)
(0.001 -2.16409e-08 0)
(0.00100001 -2.94018e-08 0)
(0.00100001 -3.85375e-08 0)
(0.00100001 -4.85465e-08 0)
(0.00100002 -6.05035e-08 0)
(0.00100002 -7.30802e-08 0)
(0.00100003 -8.88906e-08 0)
(0.00100004 -1.04616e-07 0)
(0.00100005 -1.2632e-07 0)
(0.00100006 -1.46025e-07 0)
(0.00100007 -1.77306e-07 0)
(0.00100009 -2.01176e-07 0)
(0.00100011 -2.48454e-07 0)
(0.00100012 -2.74249e-07 0)
(0.00100015 -3.4927e-07 0)
(0.00100016 -3.67536e-07 0)
(0.00100021 -4.92901e-07 0)
(0.001 -3.06906e-09 0)
(0.001 -9.39169e-09 0)
(0.001 -1.60092e-08 0)
(0.001 -2.33148e-08 0)
(0.001 -3.12228e-08 0)
(0.00100001 -4.03307e-08 0)
(0.00100001 -5.00902e-08 0)
(0.00100001 -6.16851e-08 0)
(0.00100002 -7.38104e-08 0)
(0.00100002 -8.91498e-08 0)
(0.00100003 -1.045e-07 0)
(0.00100004 -1.25912e-07 0)
(0.00100004 -1.45515e-07 0)
(0.00100006 -1.76784e-07 0)
(0.00100006 -2.0094e-07 0)
(0.00100008 -2.48391e-07 0)
(0.00100009 -2.74743e-07 0)
(0.00100011 -3.49543e-07 0)
(0.00100012 -3.68047e-07 0)
(0.00100015 -4.91669e-07 0)
(0.001 -3.22442e-09 0)
(0.001 -9.86207e-09 0)
(0.001 -1.67642e-08 0)
(0.001 -2.43592e-08 0)
(0.001 -3.25674e-08 0)
(0.001 -4.2078e-08 0)
(0.00100001 -5.23745e-08 0)
(0.00100001 -6.47223e-08 0)
(0.00100001 -7.77684e-08 0)
(0.00100001 -9.42624e-08 0)
(0.00100002 -1.10932e-07 0)
(0.00100002 -1.33848e-07 0)
(0.00100003 -1.55028e-07 0)
(0.00100003 -1.88083e-07 0)
(0.00100004 -2.13932e-07 0)
(0.00100005 -2.63322e-07 0)
(0.00100005 -2.91227e-07 0)
(0.00100007 -3.68015e-07 0)
(0.00100007 -3.87545e-07 0)
(0.00100009 -5.13312e-07 0)
(0.001 -3.29966e-09 0)
(0.001 -1.00855e-08 0)
(0.001 -1.71396e-08 0)
(0.001 -2.48978e-08 0)
(0.001 -3.33224e-08 0)
(0.001 -4.31135e-08 0)
(0.001 -5.37706e-08 0)
(0.001 -6.65127e-08 0)
(0.001 -7.99619e-08 0)
(0.001 -9.68447e-08 0)
(0.00100001 -1.13893e-07 0)
(0.00100001 -1.37159e-07 0)
(0.00100001 -1.58722e-07 0)
(0.00100001 -1.92125e-07 0)
(0.00100001 -2.18397e-07 0)
(0.00100002 -2.68087e-07 0)
(0.00100002 -2.96424e-07 0)
(0.00100002 -3.73291e-07 0)
(0.00100002 -3.93149e-07 0)
(0.00100003 -5.18334e-07 0)
(0.001 -3.30842e-09 0)
(0.001 -1.00845e-08 0)
(0.001 -1.7141e-08 0)
(0.000999999 -2.48885e-08 0)
(0.000999999 -3.33144e-08 0)
(0.000999999 -4.31006e-08 0)
(0.000999998 -5.37693e-08 0)
(0.000999997 -6.65053e-08 0)
(0.000999996 -7.99656e-08 0)
(0.000999995 -9.68502e-08 0)
(0.000999994 -1.13893e-07 0)
(0.000999993 -1.37164e-07 0)
(0.000999991 -1.58718e-07 0)
(0.000999989 -1.92104e-07 0)
(0.000999987 -2.18382e-07 0)
(0.000999984 -2.68081e-07 0)
(0.000999982 -2.96421e-07 0)
(0.000999978 -3.73286e-07 0)
(0.000999977 -3.93147e-07 0)
(0.00099997 -5.18331e-07 0)
(0.001 -3.23776e-09 0)
(0.001 -9.86126e-09 0)
(0.000999999 -1.67701e-08 0)
(0.000999998 -2.43411e-08 0)
(0.000999997 -3.25574e-08 0)
(0.000999996 -4.20534e-08 0)
(0.000999994 -5.23748e-08 0)
(0.000999992 -6.47115e-08 0)
(0.000999989 -7.7774e-08 0)
(0.000999986 -9.42814e-08 0)
(0.000999983 -1.1094e-07 0)
(0.000999978 -1.33855e-07 0)
(0.000999973 -1.55018e-07 0)
(0.000999967 -1.88043e-07 0)
(0.000999961 -2.13897e-07 0)
(0.000999952 -2.63293e-07 0)
(0.000999946 -2.91203e-07 0)
(0.000999934 -3.67978e-07 0)
(0.00099993 -3.87519e-07 0)
(0.000999911 -5.13258e-07 0)
(0.001 -3.06934e-09 0)
(0.001 -9.39388e-09 0)
(0.000999999 -1.60135e-08 0)
(0.000999998 -2.33106e-08 0)
(0.000999996 -3.12248e-08 0)
(0.000999993 -4.03196e-08 0)
(0.000999991 -5.00921e-08 0)
(0.000999987 -6.16913e-08 0)
(0.000999983 -7.38087e-08 0)
(0.000999977 -8.91751e-08 0)
(0.000999971 -1.04533e-07 0)
(0.000999963 -1.25932e-07 0)
(0.000999956 -1.45521e-07 0)
(0.000999945 -1.76776e-07 0)
(0.000999936 -2.00933e-07 0)
(0.000999921 -2.4838e-07 0)
(0.000999911 -2.74739e-07 0)
(0.00099989 -3.49536e-07 0)
(0.000999882 -3.68052e-07 0)
(0.000999852 -4.9166e-07 0)
(0.001 -2.78001e-09 0)
(0.000999999 -8.55654e-09 0)
(0.000999998 -1.46894e-08 0)
(0.000999996 -2.16564e-08 0)
(0.000999994 -2.93993e-08 0)
(0.000999991 -3.85494e-08 0)
(0.000999987 -4.85367e-08 0)
(0.000999982 -6.05206e-08 0)
(0.000999977 -7.30637e-08 0)
(0.000999969 -8.88723e-08 0)
(0.000999962 -1.04631e-07 0)
(0.000999951 -1.26328e-07 0)
(0.000999941 -1.46025e-07 0)
(0.000999925 -1.7729e-07 0)
(0.000999913 -2.01154e-07 0)
(0.000999891 -2.48401e-07 0)
(0.000999878 -2.74201e-07 0)
(0.000999847 -3.49182e-07 0)
(0.000999839 -3.67459e-07 0)
(0.000999792 -4.92759e-07 0)
(0.001 -2.45493e-09 0)
(0.000999999 -7.21903e-09 0)
(0.000999997 -1.17373e-08 0)
(0.000999995 -1.6431e-08 0)
(0.000999992 -2.12741e-08 0)
(0.000999987 -2.70352e-08 0)
(0.000999982 -3.31957e-08 0)
(0.000999976 -4.10683e-08 0)
(0.000999968 -4.92586e-08 0)
(0.000999959 -6.04531e-08 0)
(0.000999949 -7.14572e-08 0)
(0.000999935 -8.8203e-08 0)
(0.000999922 -1.02881e-07 0)
(0.000999903 -1.28894e-07 0)
(0.000999886 -1.47661e-07 0)
(0.000999859 -1.89529e-07 0)
(0.000999841 -2.10585e-07 0)
(0.000999802 -2.80283e-07 0)
(0.000999788 -2.94935e-07 0)
(0.000999731 -4.1571e-07 0)
(0.001 -2.84874e-09 0)
(0.001 -9.05206e-09 0)
(0.000999999 -1.60111e-08 0)
(0.000999997 -2.39963e-08 0)
(0.000999994 -3.27006e-08 0)
(0.00099999 -4.25027e-08 0)
(0.000999984 -5.27431e-08 0)
(0.000999977 -6.45458e-08 0)
(0.000999969 -7.6593e-08 0)
(0.000999958 -9.13555e-08 0)
(0.000999946 -1.05644e-07 0)
(0.00099993 -1.25299e-07 0)
(0.000999915 -1.42473e-07 0)
(0.000999891 -1.70485e-07 0)
(0.000999872 -1.90708e-07 0)
(0.000999837 -2.33712e-07 0)
(0.000999817 -2.55401e-07 0)
(0.000999764 -3.26252e-07 0)
(0.000999752 -3.41674e-07 0)
(0.00099967 -4.64746e-07 0)
(0.001 -1.0333e-10 0)
(0.000999998 1.65199e-10 0)
(0.000999995 9.50316e-10 0)
(0.000999991 1.70595e-09 0)
(0.000999986 2.30462e-09 0)
(0.00099998 2.15811e-09 0)
(0.000999974 1.5532e-09 0)
(0.000999965 -4.24855e-10 0)
(0.000999955 -2.56799e-09 0)
(0.000999943 -7.25012e-09 0)
(0.00099993 -1.12944e-08 0)
(0.000999911 -2.0411e-08 0)
(0.000999894 -2.69458e-08 0)
(0.000999867 -4.38771e-08 0)
(0.000999845 -5.30791e-08 0)
(0.000999805 -8.44431e-08 0)
(0.000999779 -9.51702e-08 0)
(0.00099972 -1.54462e-07 0)
(0.000999699 -1.61164e-07 0)
(0.000999611 -2.76274e-07 0)
(0.001 -3.94113e-09 0)
(0.001 -1.2895e-08 0)
(0.001 -2.28451e-08 0)
(0.000999998 -3.34218e-08 0)
(0.000999995 -4.40322e-08 0)
(0.000999989 -5.48816e-08 0)
(0.000999983 -6.57743e-08 0)
(0.000999974 -7.75254e-08 0)
(0.000999963 -8.90294e-08 0)
(0.000999949 -1.02698e-07 0)
(0.000999935 -1.15361e-07 0)
(0.000999914 -1.32379e-07 0)
(0.000999896 -1.46336e-07 0)
(0.000999864 -1.69712e-07 0)
(0.000999841 -1.84783e-07 0)
(0.000999791 -2.20735e-07 0)
(0.000999767 -2.35482e-07 0)
(0.000999687 -2.97438e-07 0)
(0.000999672 -3.06408e-07 0)
(0.000999539 -4.2246e-07 0)
(0.001 3.98075e-09 0)
(0.000999996 1.21057e-08 0)
(0.000999991 2.02445e-08 0)
(0.000999987 2.80022e-08 0)
(0.000999982 3.53153e-08 0)
(0.000999976 4.17108e-08 0)
(0.000999969 4.79327e-08 0)
(0.000999959 5.31349e-08 0)
(0.000999948 5.84422e-08 0)
(0.000999934 6.22864e-08 0)
(0.000999919 6.69286e-08 0)
(0.000999897 6.85859e-08 0)
(0.000999877 7.27355e-08 0)
(0.000999844 6.9976e-08 0)
(0.000999819 7.41377e-08 0)
(0.000999767 6.18443e-08 0)
(0.000999738 6.72962e-08 0)
(0.000999654 3.19295e-08 0)
(0.000999629 3.99387e-08 0)
(0.000999495 -5.45368e-08 0)
(0.001 -8.71015e-09 0)
(0.001 -2.36889e-08 0)
(0.001 -3.58978e-08 0)
(0.000999997 -4.6618e-08 0)
(0.000999993 -5.67768e-08 0)
(0.000999986 -6.74789e-08 0)
(0.000999979 -7.79782e-08 0)
(0.000999968 -8.93252e-08 0)
(0.000999958 -1.00177e-07 0)
(0.000999942 -1.12144e-07 0)
(0.000999928 -1.22808e-07 0)
(0.000999903 -1.36211e-07 0)
(0.000999885 -1.4647e-07 0)
(0.000999846 -1.63212e-07 0)
(0.000999826 -1.72023e-07 0)
(0.00099976 -1.96166e-07 0)
(0.000999742 -2.00787e-07 0)
(0.000999623 -2.43097e-07 0)
(0.000999618 -2.39408e-07 0)
(0.000999394 -3.32175e-07 0)
)
;

boundaryField
{
    sides
    {
        type            slip;
    }
    inlet
    {
        type            fixedValue;
        value           uniform (0.001 0 0);
    }
    outlet
    {
        type            zeroGradient;
    }
    frontAndBack
    {
        type            empty;
    }
}


// ************************************************************************* //
