/*--------------------------------*- C++ -*----------------------------------*\
  =========                 |
  \\      /  F ield         | OpenFOAM: The Open Source CFD Toolbox
   \\    /   O peration     | Website:  https://openfoam.org
    \\  /    A nd           | Version:  7
     \\/     M anipulation  |
\*---------------------------------------------------------------------------*/
FoamFile
{
    version     2.0;
    format      ascii;
    class       surfaceScalarField;
    location    "64";
    object      phi;
}
// * * * * * * * * * * * * * * * * * * * * * * * * * * * * * * * * * * * * * //

dimensions      [0 4 -1 0 0 0 0];

internalField   nonuniform List<scalar> 
760
(
4.99999e-06
1.00765e-11
4.99999e-06
-3.99417e-12
5.00001e-06
-1.23797e-11
5.00003e-06
-1.92451e-11
5.00005e-06
-2.63476e-11
5.00009e-06
-3.32479e-11
5.00013e-06
-4.76379e-11
5.00018e-06
-5.9649e-11
5.00025e-06
-6.30341e-11
5.00033e-06
-7.82493e-11
5.00042e-06
-9.00521e-11
5.00053e-06
-1.13799e-10
5.00066e-06
-1.26571e-10
5.00082e-06
-1.67347e-10
5.001e-06
-1.77513e-10
5.00126e-06
-2.56236e-10
5.00151e-06
-2.55793e-10
5.00195e-06
-4.31481e-10
5.00236e-06
-4.14333e-10
-8.92232e-10
5.00002e-06
-1.17409e-11
5.00004e-06
-1.83538e-11
5.00005e-06
-2.82782e-11
5.00007e-06
-4.07234e-11
5.0001e-06
-5.36399e-11
5.00014e-06
-6.85447e-11
5.00018e-06
-8.48866e-11
5.00023e-06
-1.04022e-10
5.00029e-06
-1.24052e-10
5.00037e-06
-1.53633e-10
5.00046e-06
-1.77246e-10
5.00056e-06
-2.21925e-10
5.00069e-06
-2.49744e-10
5.00084e-06
-3.23145e-10
5.00102e-06
-3.52731e-10
5.00125e-06
-4.84778e-10
5.0015e-06
-5.08369e-10
5.00184e-06
-7.67351e-10
5.00218e-06
-7.60239e-10
-1.26312e-09
4.99999e-06
-4.35762e-12
4.99999e-06
-1.96389e-11
5e-06
-3.6324e-11
5.00002e-06
-5.50612e-11
5.00004e-06
-7.51421e-11
5.00007e-06
-9.82729e-11
5.00011e-06
-1.22419e-10
5.00016e-06
-1.52689e-10
5.00022e-06
-1.83072e-10
5.00029e-06
-2.24488e-10
5.00037e-06
-2.6273e-10
5.00047e-06
-3.23208e-10
5.00059e-06
-3.71136e-10
5.00074e-06
-4.65972e-10
5.00091e-06
-5.23831e-10
5.00111e-06
-6.84576e-10
5.00135e-06
-7.46527e-10
5.00162e-06
-1.04025e-09
5.00194e-06
-1.08385e-09
-1.6915e-09
5.00001e-06
-1.23735e-11
5.00002e-06
-3.23147e-11
5.00004e-06
-5.26202e-11
5.00006e-06
-7.542e-11
5.00008e-06
-9.98332e-11
5.00011e-06
-1.29194e-10
5.00015e-06
-1.5965e-10
5.0002e-06
-1.98222e-10
5.00025e-06
-2.37213e-10
5.00032e-06
-2.89822e-10
5.00039e-06
-3.39025e-10
5.00049e-06
-4.15236e-10
5.00059e-06
-4.77275e-10
5.00072e-06
-5.94347e-10
5.00087e-06
-6.70216e-10
5.00105e-06
-8.62128e-10
5.00124e-06
-9.44973e-10
5.00148e-06
-1.27878e-09
5.00173e-06
-1.33223e-09
-1.90045e-09
5e-06
-1.1214e-11
5e-06
-3.51787e-11
5.00001e-06
-6.00391e-11
5.00002e-06
-8.76932e-11
5.00004e-06
-1.17562e-10
5.00006e-06
-1.52878e-10
5.0001e-06
-1.90624e-10
5.00013e-06
-2.36821e-10
5.00018e-06
-2.8449e-10
5.00024e-06
-3.4657e-10
5.00031e-06
-4.07446e-10
5.00039e-06
-4.95469e-10
5.00048e-06
-5.72836e-10
5.00059e-06
-7.0479e-10
5.00072e-06
-8.00495e-10
5.00087e-06
-1.00913e-09
5.00104e-06
-1.11427e-09
5.00122e-06
-1.46018e-09
5.00142e-06
-1.53379e-09
-2.16578e-09
5e-06
-1.34195e-11
5.00001e-06
-4.15959e-11
5.00002e-06
-7.04489e-11
5.00003e-06
-1.02033e-10
5.00005e-06
-1.36124e-10
5.00008e-06
-1.7597e-10
5.00011e-06
-2.19132e-10
5.00014e-06
-2.71423e-10
5.00018e-06
-3.25758e-10
5.00023e-06
-3.96013e-10
5.00029e-06
-4.65109e-10
5.00036e-06
-5.63587e-10
5.00044e-06
-6.51406e-10
5.00053e-06
-7.97e-10
5.00063e-06
-9.05028e-10
5.00075e-06
-1.13033e-09
5.00089e-06
-1.24854e-09
5.00104e-06
-1.61435e-09
5.00121e-06
-1.69858e-09
-2.29707e-09
5e-06
-1.50986e-11
5.00001e-06
-4.57953e-11
5.00001e-06
-7.7469e-11
5.00002e-06
-1.11789e-10
5.00004e-06
-1.49227e-10
5.00005e-06
-1.92899e-10
5.00008e-06
-2.40498e-10
5.0001e-06
-2.97623e-10
5.00013e-06
-3.57765e-10
5.00017e-06
-4.34206e-10
5.00022e-06
-5.10526e-10
5.00027e-06
-6.16895e-10
5.00033e-06
-7.14021e-10
5.00041e-06
-8.6901e-10
5.00049e-06
-9.88029e-10
5.00058e-06
-1.22343e-09
5.00069e-06
-1.35283e-09
5.0008e-06
-1.72486e-09
5.00091e-06
-1.81339e-09
-2.44582e-09
5e-06
-1.60615e-11
5e-06
-4.8667e-11
5.00001e-06
-8.22794e-11
5.00002e-06
-1.19089e-10
5.00003e-06
-1.59122e-10
5.00004e-06
-2.05836e-10
5.00006e-06
-2.56702e-10
5.00008e-06
-3.17585e-10
5.0001e-06
-3.81816e-10
5.00013e-06
-4.62738e-10
5.00016e-06
-5.4408e-10
5.0002e-06
-6.56223e-10
5.00025e-06
-7.59331e-10
5.0003e-06
-9.21173e-10
5.00036e-06
-1.04698e-09
5.00042e-06
-1.28984e-09
5.0005e-06
-1.42568e-09
5.00058e-06
-1.80546e-09
5.00067e-06
-1.9018e-09
-2.52022e-09
5e-06
-1.65838e-11
5e-06
-5.04356e-11
5.00001e-06
-8.52851e-11
5.00001e-06
-1.23675e-10
5.00002e-06
-1.65335e-10
5.00002e-06
-2.13834e-10
5.00003e-06
-2.66564e-10
5.00005e-06
-3.2963e-10
5.00006e-06
-3.96221e-10
5.00008e-06
-4.79826e-10
5.0001e-06
-5.64247e-10
5.00012e-06
-6.79737e-10
5.00015e-06
-7.86472e-10
5.00018e-06
-9.52344e-10
5.00022e-06
-1.08237e-09
5.00026e-06
-1.32948e-09
5.0003e-06
-1.46939e-09
5.00035e-06
-1.85253e-09
5.00039e-06
-1.94915e-09
-2.57627e-09
5e-06
-1.68094e-11
5e-06
-5.10125e-11
5e-06
-8.63398e-11
5e-06
-1.25197e-10
5.00001e-06
-1.67421e-10
5.00001e-06
-2.16451e-10
5.00001e-06
-2.69825e-10
5.00002e-06
-3.33589e-10
5.00002e-06
-4.00995e-10
5.00003e-06
-4.85597e-10
5.00003e-06
-5.71066e-10
5.00004e-06
-6.8767e-10
5.00005e-06
-7.95655e-10
5.00006e-06
-9.62746e-10
5.00007e-06
-1.09412e-09
5.00009e-06
-1.34248e-09
5.0001e-06
-1.48374e-09
5.00011e-06
-1.86769e-09
5.00013e-06
-1.96632e-09
-2.59262e-09
5e-06
-1.66797e-11
5e-06
-5.03963e-11
5e-06
-8.53121e-11
5e-06
-1.23588e-10
4.99999e-06
-1.6531e-10
4.99999e-06
-2.13735e-10
4.99999e-06
-2.66552e-10
4.99998e-06
-3.29607e-10
4.99998e-06
-3.96202e-10
4.99997e-06
-4.7996e-10
4.99997e-06
-5.64332e-10
4.99996e-06
-6.79774e-10
4.99995e-06
-7.86536e-10
4.99994e-06
-9.52311e-10
4.99993e-06
-1.08224e-09
4.99991e-06
-1.32932e-09
4.9999e-06
-1.46927e-09
4.99988e-06
-1.85243e-09
4.99987e-06
-1.94912e-09
-2.57615e-09
5e-06
-1.60897e-11
5e-06
-4.87023e-11
4.99999e-06
-8.23089e-11
4.99999e-06
-1.19057e-10
4.99998e-06
-1.59092e-10
4.99998e-06
-2.05759e-10
4.99997e-06
-2.56646e-10
4.99995e-06
-3.17577e-10
4.99994e-06
-3.8174e-10
4.99992e-06
-4.62841e-10
4.9999e-06
-5.44255e-10
4.99988e-06
-6.56295e-10
4.99985e-06
-7.59352e-10
4.99982e-06
-9.2114e-10
4.99978e-06
-1.04691e-09
4.99974e-06
-1.28967e-09
4.9997e-06
-1.42549e-09
4.99965e-06
-1.80525e-09
4.99961e-06
-1.90171e-09
-2.52005e-09
5e-06
-1.50566e-11
5e-06
-4.58294e-11
4.99999e-06
-7.74523e-11
4.99998e-06
-1.11896e-10
4.99997e-06
-1.49185e-10
4.99996e-06
-1.92966e-10
4.99994e-06
-2.40434e-10
4.99992e-06
-2.97662e-10
4.9999e-06
-3.57708e-10
4.99987e-06
-4.34107e-10
4.99984e-06
-5.10642e-10
4.9998e-06
-6.17029e-10
4.99975e-06
-7.14058e-10
4.9997e-06
-8.69e-10
4.99964e-06
-9.88055e-10
4.99958e-06
-1.22333e-09
4.9995e-06
-1.35268e-09
4.99942e-06
-1.72462e-09
4.99933e-06
-1.81326e-09
-2.44549e-09
5e-06
-1.33684e-11
4.99999e-06
-4.15685e-11
4.99999e-06
-7.0444e-11
4.99998e-06
-1.02079e-10
4.99996e-06
-1.36131e-10
4.99995e-06
-1.7617e-10
4.99992e-06
-2.19169e-10
4.9999e-06
-2.71448e-10
4.99987e-06
-3.25856e-10
4.99983e-06
-3.95831e-10
4.99978e-06
-4.6496e-10
4.99973e-06
-5.63583e-10
4.99967e-06
-6.51449e-10
4.99959e-06
-7.97009e-10
4.99951e-06
-9.05069e-10
4.99942e-06
-1.13027e-09
4.99931e-06
-1.24848e-09
4.9992e-06
-1.61411e-09
4.99909e-06
-1.69837e-09
-2.29665e-09
5e-06
-1.12207e-11
4.99999e-06
-3.51389e-11
4.99998e-06
-6.00083e-11
4.99997e-06
-8.76415e-11
4.99995e-06
-1.17797e-10
4.99992e-06
-1.52907e-10
4.99989e-06
-1.90757e-10
4.99986e-06
-2.36633e-10
4.99982e-06
-2.8457e-10
4.99977e-06
-3.46549e-10
4.99971e-06
-4.0723e-10
4.99964e-06
-4.95286e-10
4.99956e-06
-5.72801e-10
4.99947e-06
-7.04764e-10
4.99937e-06
-8.00523e-10
4.99925e-06
-1.0091e-09
4.99911e-06
-1.11431e-09
4.99896e-06
-1.45998e-09
4.99879e-06
-1.53361e-09
-2.16532e-09
5e-06
-1.24253e-11
5e-06
-3.22898e-11
4.99999e-06
-5.25855e-11
4.99998e-06
-7.5422e-11
4.99996e-06
-1.00055e-10
4.99994e-06
-1.28851e-10
4.9999e-06
-1.5997e-10
4.99987e-06
-1.98222e-10
4.99982e-06
-2.37069e-10
4.99976e-06
-2.89862e-10
4.99969e-06
-3.38913e-10
4.99961e-06
-4.1499e-10
4.99952e-06
-4.77124e-10
4.99941e-06
-5.9421e-10
4.99928e-06
-6.70167e-10
4.99913e-06
-8.62033e-10
4.99896e-06
-9.44989e-10
4.99878e-06
-1.27856e-09
4.99858e-06
-1.33204e-09
-1.89992e-09
4.99999e-06
-4.39001e-12
4.99998e-06
-1.96527e-11
4.99996e-06
-3.63707e-11
4.99994e-06
-5.51796e-11
4.99992e-06
-7.50154e-11
4.99989e-06
-9.80336e-11
4.99985e-06
-1.22749e-10
4.9998e-06
-1.53092e-10
4.99975e-06
-1.83181e-10
4.99968e-06
-2.24589e-10
4.99961e-06
-2.62822e-10
4.99951e-06
-3.23138e-10
4.99941e-06
-3.71053e-10
4.99928e-06
-4.6586e-10
4.99913e-06
-5.23807e-10
4.99895e-06
-6.84473e-10
4.99876e-06
-7.46549e-10
4.99852e-06
-1.04008e-09
4.99827e-06
-1.08378e-09
-1.69112e-09
5.00001e-06
-1.17047e-11
5.00001e-06
-1.84589e-11
5e-06
-2.84063e-11
4.99998e-06
-4.0742e-11
4.99996e-06
-5.30459e-11
4.99993e-06
-6.87007e-11
4.99989e-06
-8.35305e-11
4.99984e-06
-1.04126e-10
4.99978e-06
-1.24189e-10
4.99971e-06
-1.53727e-10
4.99963e-06
-1.7745e-10
4.99953e-06
-2.22034e-10
4.9994e-06
-2.49783e-10
4.99926e-06
-3.23045e-10
4.99909e-06
-3.52688e-10
4.99889e-06
-4.84576e-10
4.99865e-06
-5.08317e-10
4.99838e-06
-7.67072e-10
4.99806e-06
-7.60128e-10
-1.26264e-09
4.99998e-06
1.01354e-11
4.99996e-06
-4.14873e-12
4.99995e-06
-1.24802e-11
4.99993e-06
-1.88226e-11
4.9999e-06
-2.60873e-11
4.99986e-06
-2.88181e-11
4.99982e-06
-3.43804e-11
4.99977e-06
-6.30233e-11
4.99971e-06
-6.30369e-11
4.99963e-06
-7.83445e-11
4.99955e-06
-9.03857e-11
4.99944e-06
-1.14123e-10
4.99931e-06
-1.26771e-10
4.99916e-06
-1.67398e-10
4.99898e-06
-1.77549e-10
4.99875e-06
-2.56197e-10
4.9985e-06
-2.55827e-10
4.99817e-06
-4.31451e-10
4.99782e-06
-4.1439e-10
-8.92229e-10
5.00001e-06
5.00001e-06
4.99999e-06
4.99997e-06
4.99995e-06
4.99992e-06
4.99987e-06
4.99982e-06
4.99975e-06
4.99967e-06
4.99958e-06
4.99947e-06
4.99934e-06
4.99918e-06
4.999e-06
4.99874e-06
4.99849e-06
4.99805e-06
4.99764e-06
)
;

boundaryField
{
    sides
    {
        type            calculated;
        value           uniform 0;
    }
    inlet
    {
        type            calculated;
        value           nonuniform List<scalar> 
20
(
-5e-06
-5e-06
-5e-06
-5e-06
-5e-06
-5e-06
-5e-06
-5e-06
-5e-06
-5e-06
-5e-06
-5e-06
-5e-06
-5e-06
-5e-06
-5e-06
-5e-06
-5e-06
-5e-06
-5e-06
)
;
    }
    outlet
    {
        type            calculated;
        value           nonuniform List<scalar> 
20
(
5.00325e-06
5.00255e-06
5.00237e-06
5.00194e-06
5.00169e-06
5.00134e-06
5.00106e-06
5.00074e-06
5.00045e-06
5.00015e-06
4.99985e-06
4.99955e-06
4.99926e-06
4.99894e-06
4.99866e-06
4.99831e-06
4.99806e-06
4.99763e-06
4.99745e-06
4.99675e-06
)
;
    }
    frontAndBack
    {
        type            empty;
        value           nonuniform 0();
    }
}


// ************************************************************************* //
