/*--------------------------------*- C++ -*----------------------------------*\
  =========                 |
  \\      /  F ield         | OpenFOAM: The Open Source CFD Toolbox
   \\    /   O peration     | Website:  https://openfoam.org
    \\  /    A nd           | Version:  7
     \\/     M anipulation  |
\*---------------------------------------------------------------------------*/
FoamFile
{
    version     2.0;
    format      ascii;
    class       volVectorField;
    location    "12";
    object      ddt0(hU);
}
// * * * * * * * * * * * * * * * * * * * * * * * * * * * * * * * * * * * * * //

dimensions      [0 2 -2 0 0 0 0];

internalField   nonuniform List<vector> 
400
(
(2.49113e-09 -5.59147e-09 0)
(-1.17775e-08 -7.20898e-09 0)
(-1.83588e-08 -6.43918e-09 0)
(-9.30299e-09 -2.6763e-09 0)
(1.59229e-09 -1.97493e-09 0)
(6.58977e-09 7.92902e-09 0)
(1.67316e-08 1.12605e-08 0)
(2.18825e-08 1.19737e-08 0)
(1.42932e-08 1.50823e-08 0)
(-4.04876e-09 1.52474e-08 0)
(-2.17714e-08 1.16826e-08 0)
(-3.32337e-08 7.54901e-09 0)
(-3.98359e-08 3.25977e-09 0)
(-4.15089e-08 -3.26871e-09 0)
(-3.72631e-08 -1.05891e-08 0)
(-2.68894e-08 -1.7547e-08 0)
(-1.12946e-08 -1.49081e-08 0)
(-4.0312e-09 -9.7222e-09 0)
(8.29065e-09 5.19412e-09 0)
(-9.17967e-09 1.29419e-08 0)
(5.4861e-09 -1.62313e-08 0)
(-6.07336e-09 -2.92598e-08 0)
(-1.09494e-08 -3.28494e-08 0)
(-1.70107e-09 -3.74699e-08 0)
(1.4105e-08 -5.70937e-08 0)
(1.753e-08 -5.5277e-08 0)
(7.05022e-09 -3.58378e-08 0)
(1.27199e-08 -8.97947e-09 0)
(1.12249e-08 9.84867e-09 0)
(-6.98865e-09 2.15276e-08 0)
(-2.80226e-08 2.40081e-08 0)
(-4.15551e-08 1.83905e-08 0)
(-4.76823e-08 9.79146e-09 0)
(-4.6367e-08 1.11573e-09 0)
(-3.76763e-08 -6.23353e-09 0)
(-2.40493e-08 -1.28214e-08 0)
(-7.71996e-09 -1.48925e-08 0)
(-7.13997e-10 -1.24103e-08 0)
(7.93493e-09 -5.85968e-09 0)
(-5.70078e-09 7.94527e-09 0)
(1.56159e-09 -2.39014e-08 0)
(-1.42232e-08 -4.74447e-08 0)
(-2.42509e-08 -5.16148e-08 0)
(-2.89678e-08 -5.855e-08 0)
(-1.59887e-08 -5.21994e-08 0)
(1.97535e-08 -5.00184e-08 0)
(4.01131e-08 -3.49986e-08 0)
(3.59256e-08 -7.11215e-09 0)
(2.06896e-08 1.98402e-08 0)
(3.61203e-09 3.52189e-08 0)
(-1.3646e-08 3.67386e-08 0)
(-2.63555e-08 2.59846e-08 0)
(-3.46723e-08 8.18816e-09 0)
(-3.82354e-08 -1.2471e-08 0)
(-3.55947e-08 -2.91872e-08 0)
(-2.71737e-08 -4.06891e-08 0)
(-1.49248e-08 -3.47065e-08 0)
(-9.52238e-09 -2.28242e-08 0)
(-5.42037e-10 2.56591e-09 0)
(-1.4773e-08 2.29641e-08 0)
(3.94541e-09 -2.52028e-08 0)
(-6.64108e-09 -4.7291e-08 0)
(-1.02208e-08 -5.11052e-08 0)
(2.36915e-08 -6.48316e-08 0)
(3.10803e-08 -7.38652e-08 0)
(-3.882e-10 -5.79013e-08 0)
(-7.01512e-10 -3.03367e-08 0)
(1.42494e-08 1.99004e-09 0)
(1.42803e-08 3.09781e-08 0)
(-1.84168e-09 4.41124e-08 0)
(-2.01285e-08 3.95271e-08 0)
(-3.40699e-08 2.30246e-08 0)
(-4.32845e-08 5.99956e-10 0)
(-4.53872e-08 -2.42477e-08 0)
(-3.81699e-08 -4.47272e-08 0)
(-2.37989e-08 -5.86912e-08 0)
(-6.49355e-09 -5.20925e-08 0)
(1.62592e-09 -3.51314e-08 0)
(9.15348e-09 -4.72725e-09 0)
(-5.50799e-09 2.77137e-08 0)
(6.45277e-09 -2.44585e-08 0)
(-4.16029e-09 -4.82651e-08 0)
(-1.70952e-08 -5.9603e-08 0)
(-2.60958e-08 -7.99344e-08 0)
(5.82026e-09 -1.06143e-07 0)
(3.06179e-08 -1.03114e-07 0)
(3.27183e-08 -6.49869e-08 0)
(2.85815e-08 -1.65423e-08 0)
(1.72945e-08 2.30283e-08 0)
(1.28562e-09 4.40916e-08 0)
(-1.2308e-08 4.18878e-08 0)
(-2.11274e-08 2.25476e-08 0)
(-2.81062e-08 -5.28692e-09 0)
(-3.20239e-08 -3.64294e-08 0)
(-3.09008e-08 -6.08129e-08 0)
(-2.49965e-08 -7.51945e-08 0)
(-1.61055e-08 -6.29115e-08 0)
(-1.15795e-08 -4.07977e-08 0)
(-4.96385e-09 -2.03245e-09 0)
(-1.48437e-08 3.16941e-08 0)
(6.54106e-09 -1.92333e-08 0)
(-3.28673e-09 -4.43417e-08 0)
(-1.24703e-08 -6.37633e-08 0)
(1.01365e-08 -7.97571e-08 0)
(1.22381e-08 -8.58265e-08 0)
(1.22961e-08 -8.40068e-08 0)
(1.81035e-08 -5.54825e-08 0)
(2.11504e-08 -1.0109e-08 0)
(2.08534e-08 2.95449e-08 0)
(5.9567e-09 4.66901e-08 0)
(-1.19142e-08 4.07156e-08 0)
(-2.45053e-08 1.6127e-08 0)
(-3.39481e-08 -1.88698e-08 0)
(-3.7513e-08 -5.73441e-08 0)
(-3.21446e-08 -8.67171e-08 0)
(-2.03891e-08 -1.01905e-07 0)
(-7.17431e-09 -8.40549e-08 0)
(-1.51118e-09 -5.26702e-08 0)
(2.87486e-09 -3.61008e-09 0)
(-9.54944e-09 4.07622e-08 0)
(6.75189e-09 -8.36168e-09 0)
(-1.16916e-09 -2.94613e-08 0)
(-7.90746e-09 -5.54451e-08 0)
(3.95738e-09 -8.39793e-08 0)
(1.51882e-08 -1.09771e-07 0)
(1.91303e-08 -1.05027e-07 0)
(2.1336e-08 -7.03205e-08 0)
(2.16147e-08 -1.88018e-08 0)
(1.01747e-08 2.17265e-08 0)
(-2.75823e-10 3.8368e-08 0)
(-7.75277e-09 3.21049e-08 0)
(-1.50431e-08 6.93892e-09 0)
(-2.13924e-08 -2.91907e-08 0)
(-2.42902e-08 -6.92678e-08 0)
(-2.31595e-08 -9.96904e-08 0)
(-1.84603e-08 -1.148e-07 0)
(-1.17848e-08 -9.40989e-08 0)
(-8.31719e-09 -5.98504e-08 0)
(-4.58162e-09 -6.69479e-09 0)
(-1.20028e-08 3.96618e-08 0)
(5.62868e-09 3.07027e-09 0)
(1.03116e-09 -1.6386e-08 0)
(-5.61584e-09 -4.90861e-08 0)
(3.99696e-09 -8.54084e-08 0)
(1.39136e-08 -1.08213e-07 0)
(1.49476e-08 -1.08545e-07 0)
(1.56423e-08 -7.7278e-08 0)
(1.53045e-08 -2.7197e-08 0)
(1.1062e-08 1.871e-08 0)
(4.32975e-09 4.0023e-08 0)
(-4.3508e-09 3.19678e-08 0)
(-1.34998e-08 1.93489e-09 0)
(-2.0356e-08 -4.00884e-08 0)
(-2.22595e-08 -8.65366e-08 0)
(-1.93662e-08 -1.21372e-07 0)
(-1.31285e-08 -1.36552e-07 0)
(-6.04603e-09 -1.10267e-07 0)
(-3.39265e-09 -6.84106e-08 0)
(-1.24118e-09 -6.90518e-09 0)
(-8.27714e-09 4.59201e-08 0)
(3.83411e-09 1.33027e-08 0)
(6.42008e-10 -4.90401e-09 0)
(-3.39897e-09 -4.4965e-08 0)
(3.87128e-09 -8.39029e-08 0)
(9.34467e-09 -1.1173e-07 0)
(1.00263e-08 -1.13994e-07 0)
(1.06971e-08 -8.26077e-08 0)
(1.04086e-08 -3.01854e-08 0)
(6.89397e-09 1.54434e-08 0)
(1.70845e-09 3.4195e-08 0)
(-4.37264e-09 2.4353e-08 0)
(-9.7881e-09 -5.79224e-09 0)
(-1.21386e-08 -4.67972e-08 0)
(-1.16282e-08 -9.30078e-08 0)
(-1.01402e-08 -1.28435e-07 0)
(-7.60432e-09 -1.44101e-07 0)
(-4.62746e-09 -1.17018e-07 0)
(-3.77899e-09 -7.35336e-08 0)
(-2.87157e-09 -9.11924e-09 0)
(-6.0288e-09 4.5715e-08 0)
(1.18302e-09 1.77332e-08 0)
(-3.23642e-10 2.23684e-09 0)
(-1.13492e-09 -4.04965e-08 0)
(1.27823e-09 -8.19023e-08 0)
(3.43478e-09 -1.12982e-07 0)
(3.29673e-09 -1.178e-07 0)
(3.53522e-09 -8.72332e-08 0)
(3.23258e-09 -3.5108e-08 0)
(2.10543e-09 1.15257e-08 0)
(6.66535e-10 3.10931e-08 0)
(-1.56133e-09 2.19106e-08 0)
(-3.23556e-09 -7.64303e-09 0)
(-3.78976e-09 -4.96551e-08 0)
(-4.22406e-09 -9.86512e-08 0)
(-4.34507e-09 -1.36211e-07 0)
(-3.22326e-09 -1.52055e-07 0)
(-1.46654e-09 -1.23306e-07 0)
(-9.20687e-10 -7.72604e-08 0)
(-6.29425e-10 -9.49838e-09 0)
(-1.95958e-09 4.75881e-08 0)
(-1.1747e-09 1.77427e-08 0)
(3.51725e-10 2.24464e-09 0)
(1.16349e-09 -4.04932e-08 0)
(-1.24171e-09 -8.18961e-08 0)
(-3.40486e-09 -1.12981e-07 0)
(-3.27568e-09 -1.17803e-07 0)
(-3.50045e-09 -8.72342e-08 0)
(-3.19203e-09 -3.5108e-08 0)
(-2.07358e-09 1.15322e-08 0)
(-6.31875e-10 3.10967e-08 0)
(1.59046e-09 2.19075e-08 0)
(3.24914e-09 -7.65078e-09 0)
(3.79263e-09 -4.96626e-08 0)
(4.21981e-09 -9.86549e-08 0)
(4.33866e-09 -1.36212e-07 0)
(3.2051e-09 -1.52055e-07 0)
(1.43098e-09 -1.23303e-07 0)
(8.65304e-10 -7.72573e-08 0)
(5.47159e-10 -9.4946e-09 0)
(1.87617e-09 4.75843e-08 0)
(-3.82603e-09 1.33259e-08 0)
(-6.2006e-10 -4.88324e-09 0)
(3.42792e-09 -4.49584e-08 0)
(-3.84345e-09 -8.38929e-08 0)
(-9.31494e-09 -1.11728e-07 0)
(-9.99852e-09 -1.14002e-07 0)
(-1.06716e-08 -8.26163e-08 0)
(-1.03671e-08 -3.02128e-08 0)
(-6.87006e-09 1.54392e-08 0)
(-1.69226e-09 3.42033e-08 0)
(4.38725e-09 2.43499e-08 0)
(9.79642e-09 -5.8112e-09 0)
(1.21444e-08 -4.68234e-08 0)
(1.16297e-08 -9.30267e-08 0)
(1.01363e-08 -1.28443e-07 0)
(7.5868e-09 -1.44094e-07 0)
(4.59412e-09 -1.17004e-07 0)
(3.72691e-09 -7.35167e-08 0)
(2.79479e-09 -9.10786e-09 0)
(5.9506e-09 4.57028e-08 0)
(-5.6203e-09 3.09932e-09 0)
(-1.0168e-09 -1.63553e-08 0)
(5.63774e-09 -4.90776e-08 0)
(-3.9743e-09 -8.53975e-08 0)
(-1.38861e-08 -1.08203e-07 0)
(-1.49146e-08 -1.08559e-07 0)
(-1.56203e-08 -7.73244e-08 0)
(-1.52712e-08 -2.72392e-08 0)
(-1.10038e-08 1.86764e-08 0)
(-4.30147e-09 4.00071e-08 0)
(4.35693e-09 3.19548e-08 0)
(1.34992e-08 1.91266e-09 0)
(2.03605e-08 -4.01181e-08 0)
(2.22668e-08 -8.6563e-08 0)
(1.93687e-08 -1.21392e-07 0)
(1.31154e-08 -1.36556e-07 0)
(6.01872e-09 -1.10256e-07 0)
(3.34921e-09 -6.83927e-08 0)
(1.17554e-09 -6.87906e-09 0)
(8.21474e-09 4.59104e-08 0)
(-6.74462e-09 -8.33182e-09 0)
(1.17997e-09 -2.94348e-08 0)
(7.91743e-09 -5.5432e-08 0)
(-3.93834e-09 -8.39626e-08 0)
(-1.51675e-08 -1.09757e-07 0)
(-1.91105e-08 -1.05048e-07 0)
(-2.13098e-08 -7.03831e-08 0)
(-2.15903e-08 -1.88499e-08 0)
(-1.0161e-08 2.16847e-08 0)
(3.04818e-10 3.83408e-08 0)
(7.77879e-09 3.20798e-08 0)
(1.50591e-08 6.90899e-09 0)
(2.14067e-08 -2.92196e-08 0)
(2.43014e-08 -6.9284e-08 0)
(2.31633e-08 -9.96943e-08 0)
(1.845e-08 -1.14781e-07 0)
(1.17635e-08 -9.40729e-08 0)
(8.27986e-09 -5.98213e-08 0)
(4.53029e-09 -6.67524e-09 0)
(1.19475e-08 3.963e-08 0)
(-6.53836e-09 -1.92161e-08 0)
(3.29693e-09 -4.4336e-08 0)
(1.24754e-08 -6.37552e-08 0)
(-1.01252e-08 -7.97399e-08 0)
(-1.22251e-08 -8.58287e-08 0)
(-1.22806e-08 -8.40417e-08 0)
(-1.80822e-08 -5.55364e-08 0)
(-2.11343e-08 -1.01631e-08 0)
(-2.08272e-08 2.95318e-08 0)
(-5.92416e-09 4.66962e-08 0)
(1.19385e-08 4.07088e-08 0)
(2.45259e-08 1.60981e-08 0)
(3.39648e-08 -1.89145e-08 0)
(3.75195e-08 -5.73899e-08 0)
(3.21425e-08 -8.67527e-08 0)
(2.0378e-08 -1.01914e-07 0)
(7.15947e-09 -8.40402e-08 0)
(1.49175e-09 -5.26435e-08 0)
(-2.89936e-09 -3.56096e-09 0)
(9.52761e-09 4.07626e-08 0)
(-6.45266e-09 -2.44629e-08 0)
(4.17785e-09 -4.82819e-08 0)
(1.71062e-08 -5.96127e-08 0)
(2.60822e-08 -7.99311e-08 0)
(-5.81663e-09 -1.06133e-07 0)
(-3.05978e-08 -1.03148e-07 0)
(-3.26943e-08 -6.50451e-08 0)
(-2.85613e-08 -1.65995e-08 0)
(-1.72737e-08 2.29995e-08 0)
(-1.27275e-09 4.4075e-08 0)
(1.23208e-08 4.18694e-08 0)
(2.1145e-08 2.25213e-08 0)
(2.81241e-08 -5.31642e-09 0)
(3.20355e-08 -3.64463e-08 0)
(3.09101e-08 -6.08162e-08 0)
(2.49962e-08 -7.51733e-08 0)
(1.61001e-08 -6.28837e-08 0)
(1.15635e-08 -4.07666e-08 0)
(4.9483e-09 -2.00622e-09 0)
(1.48198e-08 3.16501e-08 0)
(-3.952e-09 -2.52122e-08 0)
(6.65444e-09 -4.73143e-08 0)
(1.02147e-08 -5.11206e-08 0)
(-2.36903e-08 -6.48338e-08 0)
(-3.10748e-08 -7.38711e-08 0)
(4.06226e-10 -5.79336e-08 0)
(7.26237e-10 -3.03922e-08 0)
(-1.42251e-08 1.95459e-09 0)
(-1.42642e-08 3.09653e-08 0)
(1.85088e-09 4.41142e-08 0)
(2.01412e-08 3.95209e-08 0)
(3.40831e-08 2.29981e-08 0)
(4.32917e-08 5.57844e-10 0)
(4.53861e-08 -2.42861e-08 0)
(3.81643e-08 -4.47523e-08 0)
(2.37914e-08 -5.86892e-08 0)
(6.49513e-09 -5.20677e-08 0)
(-1.61728e-09 -3.50962e-08 0)
(-9.1331e-09 -4.67182e-09 0)
(5.519e-09 2.77194e-08 0)
(-1.54983e-09 -2.39213e-08 0)
(1.42262e-08 -4.74816e-08 0)
(2.42494e-08 -5.16593e-08 0)
(2.89539e-08 -5.85696e-08 0)
(1.60015e-08 -5.22155e-08 0)
(-1.97345e-08 -5.00398e-08 0)
(-4.01129e-08 -3.50465e-08 0)
(-3.59354e-08 -7.16861e-09 0)
(-2.07071e-08 1.98038e-08 0)
(-3.61126e-09 3.52074e-08 0)
(1.36576e-08 3.67362e-08 0)
(2.6373e-08 2.59802e-08 0)
(3.46936e-08 8.18033e-09 0)
(3.82542e-08 -1.24728e-08 0)
(3.56123e-08 -2.91859e-08 0)
(2.71807e-08 -4.06765e-08 0)
(1.4933e-08 -3.46875e-08 0)
(9.51985e-09 -2.2802e-08 0)
(5.50892e-10 2.59984e-09 0)
(1.47855e-08 2.2934e-08 0)
(-5.49118e-09 -1.62534e-08 0)
(6.06914e-09 -2.92875e-08 0)
(1.095e-08 -3.28798e-08 0)
(1.71546e-09 -3.74845e-08 0)
(-1.40876e-08 -5.71111e-08 0)
(-1.75303e-08 -5.53247e-08 0)
(-7.04883e-09 -3.58819e-08 0)
(-1.27085e-08 -9.01434e-09 0)
(-1.12029e-08 9.83639e-09 0)
(6.99884e-09 2.152e-08 0)
(2.80302e-08 2.39929e-08 0)
(4.15619e-08 1.83701e-08 0)
(4.76837e-08 9.77154e-09 0)
(4.63637e-08 1.10597e-09 0)
(3.76715e-08 -6.2317e-09 0)
(2.40518e-08 -1.28014e-08 0)
(7.74041e-09 -1.48636e-08 0)
(7.39632e-10 -1.23803e-08 0)
(-7.89043e-09 -5.83226e-09 0)
(5.71311e-09 7.94086e-09 0)
(-2.48181e-09 -5.59518e-09 0)
(1.17811e-08 -7.20877e-09 0)
(1.8356e-08 -6.43734e-09 0)
(9.30411e-09 -2.67862e-09 0)
(-1.58791e-09 -1.99236e-09 0)
(-6.56682e-09 7.90312e-09 0)
(-1.67129e-08 1.12497e-08 0)
(-2.18871e-08 1.19738e-08 0)
(-1.42912e-08 1.50822e-08 0)
(4.06261e-09 1.52508e-08 0)
(2.17961e-08 1.16878e-08 0)
(3.32576e-08 7.55436e-09 0)
(3.98529e-08 3.26173e-09 0)
(4.15151e-08 -3.27302e-09 0)
(3.72629e-08 -1.06046e-08 0)
(2.6876e-08 -1.75675e-08 0)
(1.12922e-08 -1.49167e-08 0)
(4.01964e-09 -9.72248e-09 0)
(-8.26854e-09 5.24239e-09 0)
(9.22328e-09 1.29627e-08 0)
)
;

boundaryField
{
    sides
    {
        type            calculated;
        value           nonuniform List<vector> 
40
(
(-2.48181e-09 0 0)
(1.17811e-08 0 0)
(1.8356e-08 0 0)
(9.30411e-09 0 0)
(-1.58791e-09 0 0)
(-6.56682e-09 0 0)
(-1.67129e-08 0 0)
(-2.18871e-08 0 0)
(-1.42912e-08 0 0)
(4.06261e-09 0 0)
(2.17961e-08 0 0)
(3.32576e-08 0 0)
(3.98529e-08 0 0)
(4.15151e-08 0 0)
(3.72629e-08 0 0)
(2.6876e-08 0 0)
(1.12922e-08 0 0)
(4.01964e-09 0 0)
(-8.26854e-09 0 0)
(9.22328e-09 0 0)
(2.49113e-09 0 0)
(-1.17775e-08 0 0)
(-1.83588e-08 0 0)
(-9.30299e-09 0 0)
(1.59229e-09 0 0)
(6.58977e-09 0 0)
(1.67316e-08 0 0)
(2.18825e-08 0 0)
(1.42932e-08 0 0)
(-4.04876e-09 0 0)
(-2.17714e-08 0 0)
(-3.32337e-08 0 0)
(-3.98359e-08 0 0)
(-4.15089e-08 0 0)
(-3.72631e-08 0 0)
(-2.68894e-08 0 0)
(-1.12946e-08 0 0)
(-4.0312e-09 0 0)
(8.29065e-09 0 0)
(-9.17967e-09 0 0)
)
;
    }
    inlet
    {
        type            calculated;
        value           uniform (0 0 0);
    }
    outlet
    {
        type            calculated;
        value           nonuniform List<vector> 
20
(
(-9.17967e-09 1.29419e-08 0)
(-5.70078e-09 7.94527e-09 0)
(-1.4773e-08 2.29641e-08 0)
(-5.50799e-09 2.77137e-08 0)
(-1.48437e-08 3.16941e-08 0)
(-9.54944e-09 4.07622e-08 0)
(-1.20028e-08 3.96618e-08 0)
(-8.27714e-09 4.59201e-08 0)
(-6.0288e-09 4.5715e-08 0)
(-1.95958e-09 4.75881e-08 0)
(1.87617e-09 4.75843e-08 0)
(5.9506e-09 4.57028e-08 0)
(8.21474e-09 4.59104e-08 0)
(1.19475e-08 3.963e-08 0)
(9.52761e-09 4.07626e-08 0)
(1.48198e-08 3.16501e-08 0)
(5.519e-09 2.77194e-08 0)
(1.47855e-08 2.2934e-08 0)
(5.71311e-09 7.94086e-09 0)
(9.22328e-09 1.29627e-08 0)
)
;
    }
    frontAndBack
    {
        type            empty;
    }
}


// ************************************************************************* //
