/*--------------------------------*- C++ -*----------------------------------*\
  =========                 |
  \\      /  F ield         | OpenFOAM: The Open Source CFD Toolbox
   \\    /   O peration     | Website:  https://openfoam.org
    \\  /    A nd           | Version:  7
     \\/     M anipulation  |
\*---------------------------------------------------------------------------*/
FoamFile
{
    version     2.0;
    format      ascii;
    class       surfaceScalarField;
    location    "12";
    object      ddtCorrDdt0(phi);
}
// * * * * * * * * * * * * * * * * * * * * * * * * * * * * * * * * * * * * * //

dimensions      [0 4 -2 0 0 0 0];

internalField   nonuniform List<scalar> 
760
(
-5.0805e-11
-7.15805e-11
-5.26633e-11
-1.04763e-10
-7.34472e-11
-1.10239e-10
-1.71324e-11
-1.2079e-10
-1.27719e-11
-9.01384e-11
7.53105e-11
-1.83952e-10
1.04392e-10
-8.96079e-11
8.58603e-11
1.8937e-11
2.20869e-11
3.13342e-11
-6.10997e-11
8.09687e-11
-1.33654e-10
8.14074e-11
-1.82924e-10
6.22518e-11
-2.05154e-10
3.25007e-11
-1.97793e-10
-1.58422e-12
-1.60409e-10
-3.44136e-11
-9.67685e-11
-6.54304e-11
-3.83727e-11
-6.51894e-11
5.61755e-12
-5.12307e-11
4.19679e-12
-3.95204e-12
4.91966e-11
-1.70107e-11
-1.24627e-10
-3.53963e-11
-3.64278e-10
-1.90996e-11
-3.6085e-10
9.98195e-12
-4.4968e-10
8.4916e-11
-1.35112e-10
6.2635e-11
-4.1473e-10
4.72837e-11
-8.45603e-11
6.0262e-11
-2.0425e-10
-1.9228e-12
9.67992e-11
-8.15371e-11
1.45886e-10
-1.64775e-10
1.5669e-10
-2.2132e-10
1.12116e-10
-2.37541e-10
3.89531e-11
-2.1166e-10
-4.21243e-11
-1.54595e-10
-1.07466e-10
-8.22589e-11
-1.54306e-10
-2.24289e-11
-1.40407e-10
1.26336e-11
-9.68258e-11
1.01276e-11
-7.45083e-12
8.06254e-11
-5.79547e-11
-1.61221e-10
-8.99488e-11
-3.00198e-10
-9.07548e-11
-2.77862e-10
-1.71976e-10
-3.87017e-10
-6.57667e-12
-2.00329e-10
1.71946e-10
-4.22444e-10
2.13839e-10
-1.92067e-10
1.31415e-10
1.26122e-11
6.61802e-11
1.22888e-10
-2.4491e-11
2.01128e-10
-1.00465e-10
1.86425e-10
-1.54458e-10
1.20111e-10
-1.85181e-10
2.60585e-11
-1.86102e-10
-8.05373e-11
-1.58384e-10
-1.68626e-10
-1.07912e-10
-2.31965e-10
-6.17274e-11
-2.05651e-10
-2.85932e-11
-1.41669e-10
-3.14653e-11
-1.08401e-11
1.2113e-10
-4.72847e-11
-1.15253e-10
-3.54758e-11
-2.11159e-10
2.63384e-11
-2.56075e-10
1.88445e-10
-3.71427e-10
4.50932e-11
-7.01791e-10
-8.9421e-12
-3.51294e-10
4.30056e-11
-2.27326e-10
7.27028e-11
-5.63429e-11
1.47345e-11
1.44053e-10
-4.56306e-11
2.25959e-10
-1.26673e-10
2.17147e-10
-1.92748e-10
1.23953e-10
-2.2468e-10
-9.52946e-12
-2.11617e-10
-1.57624e-10
-1.57411e-10
-2.76587e-10
-8.04778e-11
-3.48412e-10
-1.3321e-11
-2.96817e-10
2.22932e-11
-1.90865e-10
1.45808e-11
-1.03243e-11
1.53554e-10
-2.6037e-11
-1.23271e-10
-3.96338e-11
-2.54355e-10
-8.21417e-11
-3.21725e-10
-1.10765e-10
-3.80853e-10
1.18707e-10
-6.07772e-10
1.6947e-10
-4.49065e-10
1.58496e-10
-2.95879e-10
1.08394e-10
-4.54001e-11
5.4029e-11
1.19899e-10
-2.87074e-11
2.21349e-10
-8.2395e-11
1.95307e-10
-1.23956e-10
8.84078e-11
-1.53932e-10
-6.22514e-11
-1.5986e-10
-2.29952e-10
-1.42721e-10
-3.59669e-10
-1.0632e-10
-4.33535e-10
-7.09829e-11
-3.62404e-10
-4.42631e-11
-2.34527e-10
-4.32589e-11
-2.00081e-11
1.77875e-10
-2.62036e-11
-6.68992e-11
-3.0022e-11
-1.79816e-10
-8.24855e-13
-3.06906e-10
7.3679e-11
-4.02103e-10
3.63338e-11
-4.04578e-10
9.09142e-11
-4.89582e-10
1.05888e-10
-3.18735e-10
1.04491e-10
-8.35629e-11
5.86405e-11
1.45599e-10
-1.13956e-11
2.17019e-10
-8.65965e-11
1.86721e-10
-1.46405e-10
6.09972e-11
-1.81365e-10
-1.19774e-10
-1.76771e-10
-3.19728e-10
-1.34514e-10
-4.71978e-10
-7.34685e-11
-5.47067e-10
-2.33657e-11
-4.47254e-10
6.87661e-13
-2.79377e-10
-1.1193e-11
-2.07822e-11
2.03098e-10
-1.00918e-11
-1.76381e-11
-2.99922e-11
-1.14385e-10
2.05402e-11
-2.51517e-10
3.28766e-11
-4.29226e-10
8.6866e-11
-5.26959e-10
1.09054e-10
-5.32977e-10
1.17133e-10
-3.71809e-10
7.27162e-11
-1.16033e-10
2.08104e-11
8.99151e-11
-1.71007e-11
1.93267e-10
-5.30732e-11
1.57794e-10
-9.22155e-11
1.87259e-11
-1.17357e-10
-1.77563e-10
-1.20924e-10
-3.92684e-10
-1.06884e-10
-5.53185e-10
-7.8588e-11
-6.27639e-10
-5.17974e-11
-5.10408e-10
-3.48946e-11
-3.20679e-10
-3.71745e-11
-3.51593e-11
2.13621e-10
9.25535e-13
4.69784e-11
-1.25098e-11
-5.13622e-11
7.67194e-12
-2.37208e-10
4.57998e-11
-4.20724e-10
6.848e-11
-5.47779e-10
8.28865e-11
-5.52078e-10
8.45503e-11
-3.95923e-10
6.17812e-11
-1.42384e-10
3.45017e-11
8.39763e-11
3.08747e-12
1.8295e-10
-4.24878e-11
1.37585e-10
-8.71342e-11
-1.27899e-11
-1.0837e-10
-2.19823e-10
-1.04841e-10
-4.50691e-10
-8.3348e-11
-6.26192e-10
-5.01081e-11
-7.02991e-10
-2.47191e-11
-5.68692e-10
-1.44399e-11
-3.55527e-10
-1.9977e-11
-4.15287e-11
2.28002e-10
-1.4348e-14
8.58367e-11
-7.37678e-12
-1.82681e-12
6.91546e-12
-2.12509e-10
3.73958e-11
-4.14894e-10
4.65142e-11
-5.65739e-10
5.50856e-11
-5.82228e-10
5.71212e-11
-4.30282e-10
3.96338e-11
-1.69948e-10
1.96415e-11
6.08083e-11
-4.33096e-12
1.57534e-10
-3.46528e-11
1.10318e-10
-5.69693e-11
-4.00168e-11
-5.99557e-11
-2.47737e-10
-5.4803e-11
-4.85881e-10
-4.60364e-11
-6.68421e-10
-3.13064e-11
-7.46279e-10
-2.15549e-11
-6.04837e-10
-1.95253e-11
-3.7856e-10
-2.06784e-11
-4.57229e-11
2.34402e-10
-3.15955e-12
9.11853e-11
-4.19342e-12
1.9999e-11
2.50907e-12
-1.90577e-10
1.34949e-11
-3.99654e-10
1.79887e-11
-5.62272e-10
1.68302e-11
-5.94852e-10
1.85015e-11
-4.43789e-10
1.16808e-11
-1.83907e-10
6.93858e-12
5.01691e-11
-1.09287e-12
1.45375e-10
-1.25981e-11
9.90435e-11
-1.83639e-11
-4.49259e-11
-1.98999e-11
-2.52246e-10
-2.17401e-11
-4.96031e-10
-1.96502e-11
-6.82162e-10
-1.16456e-11
-7.60387e-10
-5.93041e-12
-6.17564e-10
-5.0213e-12
-3.88466e-10
-5.66766e-12
-4.95061e-11
2.3707e-10
3.22284e-12
8.59314e-11
4.34285e-12
-1.7517e-12
-2.32363e-12
-2.12475e-10
-1.32782e-11
-4.14828e-10
-1.78714e-11
-5.65735e-10
-1.67329e-11
-5.82268e-10
-1.82685e-11
-4.30297e-10
-1.15268e-11
-1.69947e-10
-6.78845e-12
6.08749e-11
1.25687e-12
1.57592e-10
1.2708e-11
1.10314e-10
1.84073e-11
-4.00887e-11
1.99057e-11
-2.47836e-10
2.17335e-11
-4.85953e-10
1.96131e-11
-6.68458e-10
1.15169e-11
-7.46271e-10
5.69354e-12
-6.04798e-10
4.67595e-12
-3.7851e-10
5.22016e-12
-4.56838e-11
2.34364e-10
5.28339e-14
4.71164e-11
7.5075e-12
-5.12352e-11
-6.72749e-12
-2.37173e-10
-3.72365e-11
-4.2069e-10
-4.63856e-11
-5.47763e-10
-5.49554e-11
-5.52123e-10
-5.69287e-11
-3.96e-10
-3.94808e-11
-1.42652e-10
-1.95685e-11
8.38557e-11
4.40973e-12
1.82948e-10
3.47089e-11
1.37553e-10
5.70058e-11
-1.28875e-11
5.99882e-11
-2.19957e-10
5.48181e-11
-4.50795e-10
4.60048e-11
-6.26248e-10
3.11883e-11
-7.02976e-10
2.13312e-11
-5.68628e-10
1.91983e-11
-3.55445e-10
2.026e-11
-4.14502e-11
2.27938e-10
-8.95741e-13
-1.74837e-11
1.25871e-11
-1.14199e-10
-7.52118e-12
-2.51463e-10
-4.5667e-11
-4.29165e-10
-6.83345e-11
-5.26887e-10
-8.26844e-11
-5.33066e-10
-8.45163e-11
-3.722e-10
-6.14901e-11
-1.16249e-10
-3.42984e-11
8.97134e-11
-3.01888e-12
1.93104e-10
4.24992e-11
1.57668e-10
8.71451e-11
1.85778e-11
1.08417e-10
-1.77724e-10
1.04886e-10
-3.92807e-10
8.33391e-11
-5.53263e-10
5.0017e-11
-6.27623e-10
2.45339e-11
-5.10329e-10
1.41551e-11
-3.20563e-10
1.96259e-11
-3.50346e-11
2.13526e-10
1.01571e-11
-6.67548e-11
2.99872e-11
-1.79747e-10
-2.04441e-11
-3.0682e-10
-3.27401e-11
-4.02008e-10
-8.67457e-11
-4.0461e-10
-1.09007e-10
-4.89721e-10
-1.1693e-10
-3.19002e-10
-7.26712e-11
-8.38779e-11
-2.07e-11
1.45441e-10
1.72397e-11
2.16971e-10
5.31746e-11
1.8664e-10
9.22924e-11
6.08485e-11
1.17435e-10
-1.19953e-10
1.20978e-10
-3.19877e-10
1.06882e-10
-4.72073e-10
7.85207e-11
-5.47041e-10
5.16438e-11
-4.47151e-10
3.46624e-11
-2.79241e-10
3.68856e-11
-2.06177e-11
2.03011e-10
2.62286e-11
-1.23238e-10
3.00463e-11
-2.54377e-10
8.70806e-13
-3.21745e-10
-7.36037e-11
-3.80791e-10
-3.62466e-11
-6.07507e-10
-9.08429e-11
-4.49244e-10
-1.0577e-10
-2.96115e-10
-1.04423e-10
-4.57121e-11
-5.84689e-11
1.1982e-10
1.15294e-11
2.21355e-10
8.6707e-11
1.9525e-10
1.46505e-10
8.82665e-11
1.81432e-10
-6.24418e-11
1.76791e-10
-2.30113e-10
1.34496e-10
-3.59771e-10
7.34138e-11
-4.33512e-10
2.32738e-11
-3.6231e-10
-8.07605e-13
-2.34395e-10
1.10533e-11
-1.98262e-11
1.77768e-10
2.60663e-11
-1.15341e-10
3.97043e-11
-2.11301e-10
8.21539e-11
-2.5609e-10
1.10699e-10
-3.71479e-10
-1.18613e-10
-7.01591e-10
-1.69359e-10
-3.5143e-10
-1.58396e-10
-2.27565e-10
-1.08267e-10
-5.65731e-11
-5.39587e-11
1.4398e-10
2.87576e-11
2.25914e-10
8.24749e-11
2.17093e-10
1.24056e-10
1.23828e-10
1.54012e-10
-9.71346e-12
1.59918e-10
-1.57777e-10
1.42757e-10
-2.76672e-10
1.0631e-10
-3.48364e-10
7.0926e-11
-2.96686e-10
4.41788e-11
-1.90694e-10
4.31472e-11
-1.01119e-11
1.53462e-10
4.72666e-11
-1.61062e-10
3.55304e-11
-3.00345e-10
-2.63999e-11
-2.78283e-10
-1.88357e-10
-3.87145e-10
-4.51129e-11
-2.00804e-10
9.10088e-12
-4.22973e-10
-4.28968e-11
-1.92404e-10
-7.25889e-11
1.26884e-11
-1.46727e-11
1.22786e-10
4.56824e-11
2.011e-10
1.26734e-10
1.86403e-10
1.92801e-10
1.20033e-10
2.24698e-10
2.5938e-11
2.11609e-10
-8.06283e-11
1.57393e-10
-1.68674e-10
8.04683e-11
-2.31922e-10
1.33444e-11
-2.05544e-10
-2.22209e-11
-1.41533e-10
-1.4515e-11
-1.06289e-11
1.21059e-10
5.79695e-11
-1.24783e-10
8.99805e-11
-3.64635e-10
9.06914e-11
-3.61845e-10
1.71945e-10
-4.49858e-10
6.71981e-12
-1.35191e-10
-1.71935e-10
-4.15217e-10
-2.13819e-10
-8.43725e-11
-1.31522e-10
-2.02038e-10
-6.62109e-11
9.66552e-11
2.45228e-11
1.4584e-10
1.00541e-10
1.56648e-10
1.54558e-10
1.12051e-10
1.85285e-10
3.88748e-11
1.86194e-10
-4.21621e-11
1.58454e-10
-1.07465e-10
1.0795e-10
-1.54225e-10
6.17468e-11
-1.40279e-10
2.86021e-11
-9.66838e-11
3.15122e-11
-7.28813e-12
8.05473e-11
1.69488e-11
-7.1791e-11
3.5342e-11
-1.04862e-10
1.9181e-11
-1.10228e-10
-9.87898e-12
-1.2064e-10
-8.48758e-11
-8.9627e-11
-6.26452e-11
-1.84609e-10
-4.72911e-11
-8.98058e-11
-6.01221e-11
1.87121e-11
2.00803e-12
3.13225e-11
8.15765e-11
8.09652e-11
1.64802e-10
8.1395e-11
2.21339e-10
6.22204e-11
2.37539e-10
3.24694e-11
2.11645e-10
-1.60329e-12
1.54595e-10
-3.44329e-11
8.2323e-11
-6.54233e-11
2.25526e-11
-6.51423e-11
-1.2463e-11
-5.11616e-11
-9.98355e-12
-3.77891e-12
4.92336e-11
5.08342e-11
5.26289e-11
7.34773e-11
1.71283e-11
1.28213e-11
-7.51513e-11
-1.04391e-10
-8.58526e-11
-2.20363e-11
6.11984e-11
1.33774e-10
1.83025e-10
2.05215e-10
1.97805e-10
1.60379e-10
9.67288e-11
3.83532e-11
-5.60031e-12
-4.02797e-12
)
;

boundaryField
{
    sides
    {
        type            calculated;
        value           uniform 0;
    }
    inlet
    {
        type            calculated;
        value           uniform 0;
    }
    outlet
    {
        type            calculated;
        value           nonuniform List<scalar> 
20
(
-4.76437e-11
-2.34482e-11
-7.40265e-11
-1.98678e-11
-7.01953e-11
-4.14042e-11
-5.45771e-11
-3.66571e-11
-2.49438e-11
-8.56531e-12
8.12595e-12
2.45326e-11
3.63401e-11
5.42859e-11
4.1291e-11
7.006e-11
1.99013e-11
7.40769e-11
2.34741e-11
4.78406e-11
)
;
    }
    frontAndBack
    {
        type            empty;
        value           nonuniform 0();
    }
}


// ************************************************************************* //
