/*--------------------------------*- C++ -*----------------------------------*\
  =========                 |
  \\      /  F ield         | OpenFOAM: The Open Source CFD Toolbox
   \\    /   O peration     | Website:  https://openfoam.org
    \\  /    A nd           | Version:  7
     \\/     M anipulation  |
\*---------------------------------------------------------------------------*/
FoamFile
{
    version     2.0;
    format      ascii;
    class       surfaceScalarField;
    location    "12";
    object      phi_0;
}
// * * * * * * * * * * * * * * * * * * * * * * * * * * * * * * * * * * * * * //

dimensions      [0 4 -1 0 0 0 0];

internalField   nonuniform List<scalar> 
760
(
5.00003e-06
-5.33112e-12
5.00006e-06
-1.95531e-11
5.0001e-06
-3.02755e-11
5.00013e-06
-3.3201e-11
5.00014e-06
-1.76537e-11
5.00013e-06
8.5835e-12
5.0001e-06
1.96535e-11
5.00009e-06
1.11597e-12
5.00011e-06
-3.4999e-11
5.00018e-06
-7.88945e-11
5.0003e-06
-1.23267e-10
5.00046e-06
-1.69068e-10
5.00065e-06
-1.90109e-10
5.00087e-06
-2.24105e-10
5.00108e-06
-2.12832e-10
5.00133e-06
-2.57632e-10
5.00154e-06
-2.13282e-10
5.0019e-06
-3.64329e-10
5.00222e-06
-3.15898e-10
-8.30319e-10
5.00006e-06
-4.78358e-11
5.00011e-06
-5.37748e-11
5.00015e-06
-7.36991e-11
5.00018e-06
-7.54763e-11
5.0002e-06
-4.469e-11
5.0002e-06
-4.06599e-12
5.00019e-06
2.92925e-11
5.00016e-06
2.20145e-11
5.00016e-06
-3.49874e-11
5.00023e-06
-1.44764e-10
5.00035e-06
-2.45362e-10
5.00053e-06
-3.45695e-10
5.00073e-06
-3.95035e-10
5.00095e-06
-4.47058e-10
5.00115e-06
-4.22423e-10
5.00137e-06
-4.78433e-10
5.00156e-06
-4.11408e-10
5.00182e-06
-6.27674e-10
5.00206e-06
-5.64744e-10
-1.14114e-09
5.00001e-06
-3.66431e-11
5.00004e-06
-6.25179e-11
5.00007e-06
-8.54179e-11
5.0001e-06
-8.73421e-11
5.00012e-06
-5.28876e-11
5.0001e-06
1.50968e-11
5.00005e-06
6.14605e-11
5.00006e-06
1.29908e-11
5.00009e-06
-6.73104e-11
5.00015e-06
-2.06027e-10
5.00026e-06
-3.50421e-10
5.0004e-06
-4.86305e-10
5.00056e-06
-5.6703e-10
5.00075e-06
-6.40723e-10
5.00094e-06
-6.28813e-10
5.00114e-06
-6.8591e-10
5.00134e-06
-6.22305e-10
5.00156e-06
-8.52951e-10
5.0018e-06
-8.17338e-10
-1.52195e-09
5.00003e-06
-6.1838e-11
5.00007e-06
-1.02439e-10
5.00011e-06
-1.28326e-10
5.00014e-06
-1.26578e-10
5.00015e-06
-5.30883e-11
5.00016e-06
2.81406e-11
5.00017e-06
8.11875e-11
5.00014e-06
6.08425e-11
5.00014e-06
-5.39617e-11
5.00019e-06
-2.51123e-10
5.0003e-06
-4.50108e-10
5.00045e-06
-6.3896e-10
5.00063e-06
-7.51967e-10
5.00082e-06
-8.40293e-10
5.00099e-06
-8.16608e-10
5.00115e-06
-8.62429e-10
5.00129e-06
-7.72208e-10
5.00145e-06
-1.02252e-09
5.0016e-06
-9.75892e-10
-1.67741e-09
5.00001e-06
-6.34627e-11
5.00003e-06
-1.20106e-10
5.00006e-06
-1.4863e-10
5.0001e-06
-1.31844e-10
5.00012e-06
-6.39733e-11
5.0001e-06
5.75275e-11
5.00007e-06
1.25574e-10
5.00007e-06
7.2958e-11
5.0001e-06
-7.42589e-11
5.00015e-06
-2.95027e-10
5.00024e-06
-5.28978e-10
5.00034e-06
-7.47097e-10
5.00047e-06
-8.87384e-10
5.00061e-06
-9.91618e-10
5.00076e-06
-9.769e-10
5.0009e-06
-1.01833e-09
5.00103e-06
-9.25364e-10
5.00117e-06
-1.17138e-09
5.00131e-06
-1.12904e-09
-1.90812e-09
5e-06
-6.55116e-11
5.00003e-06
-1.40699e-10
5.00006e-06
-1.69504e-10
5.00008e-06
-1.45045e-10
5.00009e-06
-4.33867e-11
5.00011e-06
7.44713e-11
5.00011e-06
1.47899e-10
5.00009e-06
1.10461e-10
5.00009e-06
-5.63803e-11
5.00013e-06
-3.21369e-10
5.0002e-06
-5.98668e-10
5.00031e-06
-8.58312e-10
5.00045e-06
-1.0265e-09
5.00059e-06
-1.1424e-09
5.00071e-06
-1.1174e-09
5.00082e-06
-1.14181e-09
5.0009e-06
-1.02487e-09
5.00099e-06
-1.27635e-09
5.00109e-06
-1.23008e-09
-2.0033e-09
5e-06
-6.61162e-11
5.00002e-06
-1.58231e-10
5.00004e-06
-1.87328e-10
5.00007e-06
-1.49355e-10
5.00008e-06
-3.87719e-11
5.00008e-06
1.00967e-10
5.00006e-06
1.86729e-10
5.00006e-06
1.31919e-10
5.00008e-06
-5.79868e-11
5.00011e-06
-3.46368e-10
5.00017e-06
-6.50343e-10
5.00025e-06
-9.32968e-10
5.00033e-06
-1.11988e-09
5.00043e-06
-1.24518e-09
5.00052e-06
-1.22257e-09
5.0006e-06
-1.24055e-09
5.00068e-06
-1.11656e-09
5.00075e-06
-1.36227e-09
5.00083e-06
-1.31107e-09
-2.12814e-09
4.99999e-06
-6.32328e-11
5.00001e-06
-1.70444e-10
5.00003e-06
-1.99024e-10
5.00005e-06
-1.50551e-10
5.00006e-06
-2.86077e-11
5.00006e-06
1.20461e-10
5.00005e-06
2.08089e-10
5.00005e-06
1.53157e-10
5.00005e-06
-5.03035e-11
5.00008e-06
-3.59459e-10
5.00012e-06
-6.8704e-10
5.00018e-06
-9.92095e-10
5.00025e-06
-1.19677e-09
5.00033e-06
-1.33092e-09
5.0004e-06
-1.30419e-09
5.00046e-06
-1.31104e-09
5.0005e-06
-1.17291e-09
5.00055e-06
-1.41783e-09
5.0006e-06
-1.36571e-09
-2.18382e-09
5e-06
-6.12209e-11
5e-06
-1.77503e-10
5.00002e-06
-2.06243e-10
5.00003e-06
-1.49805e-10
5.00003e-06
-2.03432e-11
5.00004e-06
1.33656e-10
5.00003e-06
2.25303e-10
5.00003e-06
1.67007e-10
5.00003e-06
-4.73273e-11
5.00005e-06
-3.70102e-10
5.00007e-06
-7.10983e-10
5.00011e-06
-1.02722e-09
5.00015e-06
-1.24013e-09
5.0002e-06
-1.37753e-09
5.00023e-06
-1.34935e-09
5.00027e-06
-1.35146e-09
5.00029e-06
-1.20856e-09
5.00032e-06
-1.45207e-09
5.00035e-06
-1.39728e-09
-2.23003e-09
5e-06
-6.08196e-11
5e-06
-1.8038e-10
5.00001e-06
-2.08856e-10
5.00001e-06
-1.48597e-10
5.00001e-06
-1.60068e-11
5.00001e-06
1.40094e-10
5.00001e-06
2.31536e-10
5.00001e-06
1.71251e-10
5.00001e-06
-4.66039e-11
5.00002e-06
-3.73167e-10
5.00002e-06
-7.17187e-10
5.00004e-06
-1.03683e-09
5.00005e-06
-1.25372e-09
5.00006e-06
-1.39408e-09
5.00008e-06
-1.36639e-09
5.00009e-06
-1.36676e-09
5.0001e-06
-1.22105e-09
5.00011e-06
-1.46344e-09
5.00012e-06
-1.40796e-09
-2.24104e-09
5e-06
-6.12121e-11
5e-06
-1.77502e-10
4.99999e-06
-2.06228e-10
4.99999e-06
-1.4979e-10
4.99999e-06
-2.03472e-11
4.99999e-06
1.33636e-10
4.99999e-06
2.25302e-10
4.99999e-06
1.67035e-10
4.99999e-06
-4.72876e-11
4.99998e-06
-3.70077e-10
4.99998e-06
-7.1098e-10
4.99996e-06
-1.02721e-09
4.99995e-06
-1.24011e-09
4.99994e-06
-1.37748e-09
4.99992e-06
-1.3493e-09
4.99991e-06
-1.35138e-09
4.9999e-06
-1.20851e-09
4.99989e-06
-1.45201e-09
4.99988e-06
-1.39729e-09
-2.22999e-09
5e-06
-6.32204e-11
5e-06
-1.70441e-10
4.99998e-06
-1.98997e-10
4.99997e-06
-1.5052e-10
4.99997e-06
-2.86209e-11
4.99996e-06
1.20427e-10
4.99997e-06
2.08105e-10
4.99997e-06
1.53229e-10
4.99997e-06
-5.02239e-11
4.99995e-06
-3.59403e-10
4.99993e-06
-6.87019e-10
4.99989e-06
-9.92073e-10
4.99985e-06
-1.19673e-09
4.9998e-06
-1.33082e-09
4.99977e-06
-1.30408e-09
4.99973e-06
-1.31088e-09
4.99971e-06
-1.17282e-09
4.99968e-06
-1.41771e-09
4.99965e-06
-1.36572e-09
-2.18379e-09
5.00001e-06
-6.61094e-11
4.99999e-06
-1.58229e-10
4.99997e-06
-1.87296e-10
4.99995e-06
-1.49322e-10
4.99994e-06
-3.87924e-11
4.99994e-06
1.00927e-10
4.99995e-06
1.86729e-10
4.99995e-06
1.32012e-10
4.99995e-06
-5.79011e-11
4.99992e-06
-3.463e-10
4.99988e-06
-6.50324e-10
4.99983e-06
-9.32946e-10
4.99975e-06
-1.11984e-09
4.99967e-06
-1.24505e-09
4.9996e-06
-1.22243e-09
4.99954e-06
-1.24033e-09
4.9995e-06
-1.11645e-09
4.99945e-06
-1.36209e-09
4.99941e-06
-1.31111e-09
-2.12804e-09
5e-06
-6.55101e-11
4.99998e-06
-1.40697e-10
4.99996e-06
-1.69473e-10
4.99993e-06
-1.45014e-10
4.99992e-06
-4.34267e-11
4.99992e-06
7.44097e-11
4.99994e-06
1.47913e-10
4.99994e-06
1.10553e-10
4.99992e-06
-5.62574e-11
4.99989e-06
-3.21293e-10
4.99983e-06
-5.98651e-10
4.99975e-06
-8.58288e-10
4.99967e-06
-1.02645e-09
4.99957e-06
-1.14225e-09
4.99948e-06
-1.11723e-09
4.9994e-06
-1.14155e-09
4.99932e-06
-1.02473e-09
4.99925e-06
-1.27613e-09
4.99917e-06
-1.2301e-09
-2.00321e-09
5e-06
-6.34658e-11
4.99997e-06
-1.20105e-10
4.99994e-06
-1.48599e-10
4.99992e-06
-1.31826e-10
4.99991e-06
-6.40201e-11
4.99989e-06
5.74418e-11
4.99989e-06
1.25555e-10
4.99991e-06
7.30543e-11
4.99991e-06
-7.41666e-11
4.99987e-06
-2.9497e-10
4.9998e-06
-5.28989e-10
4.99969e-06
-7.47097e-10
4.99955e-06
-8.87365e-10
4.99941e-06
-9.91489e-10
4.99929e-06
-9.76771e-10
4.99918e-06
-1.01808e-09
4.9991e-06
-9.25263e-10
4.99901e-06
-1.17115e-09
4.99891e-06
-1.1291e-09
-1.908e-09
4.99999e-06
-6.18442e-11
4.99997e-06
-1.02444e-10
4.99994e-06
-1.28309e-10
4.9999e-06
-1.26574e-10
4.99988e-06
-5.31472e-11
4.9999e-06
2.80739e-11
4.99993e-06
8.11715e-11
4.99993e-06
6.09039e-11
4.9999e-06
-5.38509e-11
4.99985e-06
-2.51066e-10
4.99976e-06
-4.50114e-10
4.99966e-06
-6.38948e-10
4.99953e-06
-7.51936e-10
4.99939e-06
-8.40139e-10
4.99924e-06
-8.16458e-10
4.9991e-06
-8.62141e-10
4.99897e-06
-7.72087e-10
4.99883e-06
-1.02225e-09
4.99869e-06
-9.75916e-10
-1.67723e-09
4.99997e-06
-3.66423e-11
4.99993e-06
-6.25296e-11
4.99989e-06
-8.54062e-11
4.99986e-06
-8.73507e-11
4.99985e-06
-5.29679e-11
4.99984e-06
1.49655e-11
4.99983e-06
6.14312e-11
4.99986e-06
1.30388e-11
4.99986e-06
-6.72679e-11
4.99981e-06
-2.06008e-10
4.9997e-06
-3.50468e-10
4.99955e-06
-4.86338e-10
4.99937e-06
-5.67067e-10
4.99918e-06
-6.40654e-10
4.99901e-06
-6.28775e-10
4.99885e-06
-6.85723e-10
4.99871e-06
-6.22282e-10
4.99855e-06
-8.52745e-10
4.9984e-06
-8.1743e-10
-1.52187e-09
4.99999e-06
-4.78443e-11
4.99996e-06
-5.37636e-11
4.99993e-06
-7.36648e-11
4.9999e-06
-7.54775e-11
4.99988e-06
-4.47254e-11
4.9999e-06
-4.11016e-12
4.99995e-06
2.92857e-11
4.99994e-06
2.20433e-11
4.99991e-06
-3.4934e-11
4.99985e-06
-1.4474e-10
4.99974e-06
-2.45383e-10
4.9996e-06
-3.45676e-10
4.99944e-06
-3.95027e-10
4.99925e-06
-4.46936e-10
4.99906e-06
-4.22361e-10
4.99886e-06
-4.78211e-10
4.99866e-06
-4.11393e-10
4.99844e-06
-6.27426e-10
4.9982e-06
-5.64803e-10
-1.1409e-09
4.99994e-06
-5.34157e-12
4.99989e-06
-1.95678e-11
4.99985e-06
-3.02947e-11
4.99982e-06
-3.32383e-11
4.9998e-06
-1.77235e-11
4.9998e-06
8.51758e-12
4.99981e-06
1.96209e-11
4.99984e-06
1.10534e-12
4.99984e-06
-3.50255e-11
4.99977e-06
-7.89509e-11
4.99965e-06
-1.23362e-10
4.99948e-06
-1.69152e-10
4.99927e-06
-1.90207e-10
4.99905e-06
-2.24149e-10
4.99885e-06
-2.12904e-10
4.99864e-06
-2.57611e-10
4.99844e-06
-2.13341e-10
4.99819e-06
-3.64294e-10
4.99794e-06
-3.16e-10
-8.3048e-10
4.99997e-06
4.99994e-06
4.9999e-06
4.99987e-06
4.99986e-06
4.99987e-06
4.9999e-06
4.99991e-06
4.99989e-06
4.99982e-06
4.9997e-06
4.99954e-06
4.99935e-06
4.99913e-06
4.99892e-06
4.99867e-06
4.99846e-06
4.9981e-06
4.99778e-06
)
;

boundaryField
{
    sides
    {
        type            calculated;
        value           uniform 0;
    }
    inlet
    {
        type            calculated;
        value           nonuniform List<scalar> 
20
(
-5e-06
-5e-06
-5e-06
-5e-06
-5e-06
-5e-06
-5e-06
-5e-06
-5e-06
-5e-06
-5e-06
-5e-06
-5e-06
-5e-06
-5e-06
-5e-06
-5e-06
-5e-06
-5e-06
-5e-06
)
;
    }
    outlet
    {
        type            calculated;
        value           nonuniform List<scalar> 
20
(
5.00304e-06
5.00237e-06
5.00218e-06
5.00175e-06
5.00154e-06
5.00118e-06
5.00095e-06
5.00065e-06
5.00039e-06
5.00013e-06
4.99987e-06
4.99961e-06
4.99935e-06
4.99905e-06
4.99882e-06
4.99846e-06
4.99825e-06
4.99782e-06
4.99763e-06
4.99695e-06
)
;
    }
    frontAndBack
    {
        type            empty;
        value           nonuniform 0();
    }
}


// ************************************************************************* //
