/*--------------------------------*- C++ -*----------------------------------*\
  =========                 |
  \\      /  F ield         | OpenFOAM: The Open Source CFD Toolbox
   \\    /   O peration     | Website:  https://openfoam.org
    \\  /    A nd           | Version:  7
     \\/     M anipulation  |
\*---------------------------------------------------------------------------*/
FoamFile
{
    version     2.0;
    format      ascii;
    class       volVectorField;
    location    "12";
    object      U;
}
// * * * * * * * * * * * * * * * * * * * * * * * * * * * * * * * * * * * * * //

dimensions      [0 1 -1 0 0 0 0];

internalField   nonuniform List<vector> 
400
(
(0.0999944 -1.1059e-06 0)
(0.0999949 -2.67013e-06 0)
(0.0999964 -3.91198e-06 0)
(0.0999977 -4.93533e-06 0)
(0.0999977 -5.75302e-06 0)
(0.0999975 -6.39743e-06 0)
(0.0999974 -7.1514e-06 0)
(0.0999973 -8.15402e-06 0)
(0.099997 -9.40091e-06 0)
(0.0999979 -1.12246e-05 0)
(0.0999996 -1.30044e-05 0)
(0.100003 -1.47542e-05 0)
(0.100006 -1.60015e-05 0)
(0.100011 -1.75281e-05 0)
(0.100014 -1.80427e-05 0)
(0.100022 -1.95991e-05 0)
(0.100024 -1.91086e-05 0)
(0.100035 -2.27658e-05 0)
(0.100035 -2.18832e-05 0)
(0.100056 -3.22796e-05 0)
(0.0999956 -1.54677e-07 0)
(0.0999965 5.00087e-07 0)
(0.0999986 1.19716e-06 0)
(0.1 1.99926e-06 0)
(0.1 3.16229e-06 0)
(0.1 4.72785e-06 0)
(0.1 6.182e-06 0)
(0.1 6.86633e-06 0)
(0.0999997 6.9033e-06 0)
(0.0999999 6.53154e-06 0)
(0.100002 6.12669e-06 0)
(0.100005 5.57465e-06 0)
(0.100009 5.69769e-06 0)
(0.100014 5.49923e-06 0)
(0.100018 6.43294e-06 0)
(0.100023 5.82429e-06 0)
(0.100026 7.46227e-06 0)
(0.100034 4.46124e-06 0)
(0.100035 6.30121e-06 0)
(0.100047 -3.58928e-06 0)
(0.0999959 -1.27887e-06 0)
(0.0999959 -2.53026e-06 0)
(0.0999973 -3.68789e-06 0)
(0.0999984 -4.6066e-06 0)
(0.0999984 -4.67691e-06 0)
(0.0999983 -4.35917e-06 0)
(0.0999983 -4.27529e-06 0)
(0.099998 -4.95125e-06 0)
(0.0999981 -6.73227e-06 0)
(0.0999992 -9.63598e-06 0)
(0.100001 -1.27752e-05 0)
(0.100004 -1.59609e-05 0)
(0.100006 -1.81424e-05 0)
(0.10001 -2.01873e-05 0)
(0.100014 -2.05373e-05 0)
(0.100019 -2.22382e-05 0)
(0.100022 -2.14606e-05 0)
(0.100029 -2.64134e-05 0)
(0.10003 -2.58449e-05 0)
(0.100042 -3.91775e-05 0)
(0.0999965 -1.11564e-06 0)
(0.0999969 -1.61389e-06 0)
(0.0999987 -1.68183e-06 0)
(0.1 -1.29998e-06 0)
(0.100001 1.93254e-07 0)
(0.1 2.4721e-06 0)
(0.100001 4.2622e-06 0)
(0.100001 4.49872e-06 0)
(0.100001 3.06418e-06 0)
(0.100001 2.32295e-07 0)
(0.100002 -2.80251e-06 0)
(0.100005 -5.75168e-06 0)
(0.100008 -7.41517e-06 0)
(0.100012 -8.87494e-06 0)
(0.100016 -8.29081e-06 0)
(0.10002 -9.13496e-06 0)
(0.100022 -7.04423e-06 0)
(0.100027 -1.13528e-05 0)
(0.100028 -9.7484e-06 0)
(0.100035 -2.32595e-05 0)
(0.099997 -1.46582e-06 0)
(0.0999968 -2.82474e-06 0)
(0.0999981 -3.72021e-06 0)
(0.0999994 -4.02247e-06 0)
(0.0999997 -3.18898e-06 0)
(0.0999998 -1.5533e-06 0)
(0.0999998 -3.32698e-07 0)
(0.0999995 -9.93783e-07 0)
(0.0999995 -3.6211e-06 0)
(0.1 -7.78695e-06 0)
(0.100002 -1.23741e-05 0)
(0.100004 -1.69118e-05 0)
(0.100006 -2.00775e-05 0)
(0.100009 -2.26668e-05 0)
(0.100012 -2.29405e-05 0)
(0.100016 -2.43131e-05 0)
(0.100017 -2.28145e-05 0)
(0.100022 -2.784e-05 0)
(0.100023 -2.69471e-05 0)
(0.10003 -4.15294e-05 0)
(0.0999975 -1.47191e-06 0)
(0.0999973 -3.0024e-06 0)
(0.0999986 -3.69753e-06 0)
(0.0999999 -3.34713e-06 0)
(0.1 -1.61162e-06 0)
(0.1 8.39796e-07 0)
(0.100001 2.71806e-06 0)
(0.100001 2.64864e-06 0)
(0.100001 1.9945e-07 0)
(0.100001 -4.38839e-06 0)
(0.100002 -9.51661e-06 0)
(0.100004 -1.44454e-05 0)
(0.100006 -1.76656e-05 0)
(0.100009 -1.99779e-05 0)
(0.100012 -1.9526e-05 0)
(0.100015 -2.00405e-05 0)
(0.100016 -1.74359e-05 0)
(0.100019 -2.19547e-05 0)
(0.100019 -2.0366e-05 0)
(0.100024 -3.54657e-05 0)
(0.099998 -1.38023e-06 0)
(0.0999977 -3.24816e-06 0)
(0.0999988 -4.10022e-06 0)
(0.0999999 -3.74966e-06 0)
(0.1 -1.94804e-06 0)
(0.1 7.59253e-07 0)
(0.1 2.62176e-06 0)
(0.1 1.95271e-06 0)
(0.1 -1.45162e-06 0)
(0.100001 -6.76524e-06 0)
(0.100002 -1.25868e-05 0)
(0.100003 -1.82781e-05 0)
(0.100005 -2.23271e-05 0)
(0.100007 -2.5368e-05 0)
(0.100008 -2.55119e-05 0)
(0.100011 -2.63853e-05 0)
(0.100012 -2.4063e-05 0)
(0.100014 -2.88248e-05 0)
(0.100015 -2.74673e-05 0)
(0.100018 -4.29142e-05 0)
(0.0999985 -1.24944e-06 0)
(0.0999983 -3.43838e-06 0)
(0.0999991 -4.36681e-06 0)
(0.0999999 -3.83361e-06 0)
(0.1 -1.74055e-06 0)
(0.1 1.0932e-06 0)
(0.1 3.0795e-06 0)
(0.100001 2.58119e-06 0)
(0.1 -8.21572e-07 0)
(0.100001 -6.63299e-06 0)
(0.100001 -1.31059e-05 0)
(0.100002 -1.93309e-05 0)
(0.100004 -2.36457e-05 0)
(0.100005 -2.65959e-05 0)
(0.100007 -2.62554e-05 0)
(0.100008 -2.64633e-05 0)
(0.100009 -2.34189e-05 0)
(0.100011 -2.78598e-05 0)
(0.100011 -2.61779e-05 0)
(0.100013 -4.20095e-05 0)
(0.0999991 -1.11127e-06 0)
(0.0999989 -3.52941e-06 0)
(0.0999994 -4.52648e-06 0)
(0.1 -3.84902e-06 0)
(0.1 -1.61247e-06 0)
(0.1 1.39336e-06 0)
(0.1 3.50069e-06 0)
(0.1 2.86338e-06 0)
(0.1 -8.96409e-07 0)
(0.1 -7.0155e-06 0)
(0.100001 -1.37341e-05 0)
(0.100002 -2.01747e-05 0)
(0.100002 -2.47253e-05 0)
(0.100003 -2.79326e-05 0)
(0.100004 -2.78373e-05 0)
(0.100005 -2.82143e-05 0)
(0.100005 -2.52585e-05 0)
(0.100006 -2.97845e-05 0)
(0.100006 -2.8122e-05 0)
(0.100008 -4.41336e-05 0)
(0.0999997 -1.04009e-06 0)
(0.0999996 -3.56807e-06 0)
(0.0999998 -4.58012e-06 0)
(0.1 -3.82081e-06 0)
(0.1 -1.50697e-06 0)
(0.1 1.54729e-06 0)
(0.1 3.65628e-06 0)
(0.1 2.99592e-06 0)
(0.1 -8.30725e-07 0)
(0.1 -7.11221e-06 0)
(0.1 -1.40699e-05 0)
(0.100001 -2.07662e-05 0)
(0.100001 -2.55204e-05 0)
(0.100001 -2.87947e-05 0)
(0.100001 -2.85894e-05 0)
(0.100002 -2.87468e-05 0)
(0.100002 -2.5559e-05 0)
(0.100002 -2.99668e-05 0)
(0.100002 -2.82123e-05 0)
(0.100003 -4.43198e-05 0)
(0.1 -1.03994e-06 0)
(0.1 -3.56801e-06 0)
(0.1 -4.57999e-06 0)
(0.1 -3.82061e-06 0)
(0.1 -1.507e-06 0)
(0.0999999 1.54707e-06 0)
(0.0999999 3.6562e-06 0)
(0.0999999 2.99614e-06 0)
(0.0999999 -8.30377e-07 0)
(0.0999998 -7.11196e-06 0)
(0.0999997 -1.40697e-05 0)
(0.0999995 -2.0766e-05 0)
(0.0999993 -2.55201e-05 0)
(0.099999 -2.87942e-05 0)
(0.0999987 -2.85889e-05 0)
(0.0999984 -2.87463e-05 0)
(0.0999982 -2.55588e-05 0)
(0.0999979 -2.99665e-05 0)
(0.0999979 -2.82127e-05 0)
(0.0999974 -4.43204e-05 0)
(0.100001 -1.11089e-06 0)
(0.100001 -3.52924e-06 0)
(0.100001 -4.52608e-06 0)
(0.1 -3.84857e-06 0)
(0.0999999 -1.61263e-06 0)
(0.0999998 1.39284e-06 0)
(0.0999997 3.50057e-06 0)
(0.0999997 2.86401e-06 0)
(0.0999997 -8.95308e-07 0)
(0.0999996 -7.01477e-06 0)
(0.0999991 -1.37341e-05 0)
(0.0999985 -2.01748e-05 0)
(0.0999977 -2.47249e-05 0)
(0.0999968 -2.7931e-05 0)
(0.0999961 -2.78353e-05 0)
(0.0999951 -2.82112e-05 0)
(0.0999948 -2.52565e-05 0)
(0.0999938 -2.97816e-05 0)
(0.0999938 -2.81214e-05 0)
(0.0999923 -4.41313e-05 0)
(0.100001 -1.24902e-06 0)
(0.100002 -3.43818e-06 0)
(0.100001 -4.36619e-06 0)
(0.1 -3.83301e-06 0)
(0.0999999 -1.7409e-06 0)
(0.0999998 1.09228e-06 0)
(0.0999996 3.0793e-06 0)
(0.0999994 2.58209e-06 0)
(0.0999995 -8.2026e-07 0)
(0.0999994 -6.63207e-06 0)
(0.0999988 -1.31061e-05 0)
(0.0999977 -1.93315e-05 0)
(0.0999965 -2.36463e-05 0)
(0.0999948 -2.65953e-05 0)
(0.0999934 -2.62544e-05 0)
(0.0999917 -2.64609e-05 0)
(0.099991 -2.34178e-05 0)
(0.0999895 -2.78583e-05 0)
(0.0999894 -2.61796e-05 0)
(0.0999871 -4.20117e-05 0)
(0.100002 -1.3799e-06 0)
(0.100002 -3.24814e-06 0)
(0.100001 -4.09968e-06 0)
(0.1 -3.74902e-06 0)
(0.0999999 -1.94855e-06 0)
(0.0999997 7.57963e-07 0)
(0.0999995 2.62136e-06 0)
(0.0999996 1.95412e-06 0)
(0.0999997 -1.4497e-06 0)
(0.0999991 -6.76353e-06 0)
(0.0999982 -1.25858e-05 0)
(0.0999967 -1.82766e-05 0)
(0.0999952 -2.23249e-05 0)
(0.0999932 -2.53638e-05 0)
(0.0999916 -2.55076e-05 0)
(0.0999892 -2.6379e-05 0)
(0.0999882 -2.40594e-05 0)
(0.0999856 -2.88187e-05 0)
(0.0999854 -2.74661e-05 0)
(0.0999816 -4.29076e-05 0)
(0.100003 -1.47179e-06 0)
(0.100003 -3.00257e-06 0)
(0.100001 -3.69718e-06 0)
(0.1 -3.34686e-06 0)
(0.1 -1.61275e-06 0)
(0.0999999 8.37962e-07 0)
(0.0999993 2.71741e-06 0)
(0.099999 2.64985e-06 0)
(0.0999994 2.01255e-07 0)
(0.0999993 -4.38787e-06 0)
(0.0999982 -9.51822e-06 0)
(0.0999961 -1.44478e-05 0)
(0.0999938 -1.76677e-05 0)
(0.0999908 -1.9978e-05 0)
(0.0999883 -1.9525e-05 0)
(0.0999852 -2.0037e-05 0)
(0.0999839 -1.7434e-05 0)
(0.099981 -2.19521e-05 0)
(0.0999807 -2.03677e-05 0)
(0.0999765 -3.54694e-05 0)
(0.100003 -1.46592e-06 0)
(0.100003 -2.8249e-06 0)
(0.100002 -3.71974e-06 0)
(0.100001 -4.02201e-06 0)
(0.1 -3.18974e-06 0)
(0.1 -1.55501e-06 0)
(0.1 -3.3354e-07 0)
(0.100001 -9.92908e-07 0)
(0.1 -3.61955e-06 0)
(0.0999995 -7.78546e-06 0)
(0.0999981 -1.23735e-05 0)
(0.0999959 -1.69106e-05 0)
(0.0999938 -2.00762e-05 0)
(0.0999907 -2.26631e-05 0)
(0.0999882 -2.29377e-05 0)
(0.0999843 -2.43073e-05 0)
(0.0999826 -2.28128e-05 0)
(0.0999778 -2.78338e-05 0)
(0.0999773 -2.69479e-05 0)
(0.0999702 -4.15216e-05 0)
(0.100003 -1.1161e-06 0)
(0.100003 -1.6145e-06 0)
(0.100001 -1.68206e-06 0)
(0.0999996 -1.30066e-06 0)
(0.0999995 1.91279e-07 0)
(0.0999996 2.46992e-06 0)
(0.0999991 4.26163e-06 0)
(0.0999988 4.50026e-06 0)
(0.0999995 3.06582e-06 0)
(0.0999994 2.3263e-07 0)
(0.0999978 -2.80402e-06 0)
(0.0999949 -5.75333e-06 0)
(0.0999917 -7.41633e-06 0)
(0.0999876 -8.87353e-06 0)
(0.0999842 -8.28845e-06 0)
(0.0999796 -9.12966e-06 0)
(0.0999775 -7.04068e-06 0)
(0.0999728 -1.13476e-05 0)
(0.0999719 -9.7473e-06 0)
(0.0999651 -2.32596e-05 0)
(0.100004 -1.27926e-06 0)
(0.100004 -2.53068e-06 0)
(0.100003 -3.68826e-06 0)
(0.100002 -4.60709e-06 0)
(0.100002 -4.67833e-06 0)
(0.100002 -4.36104e-06 0)
(0.100002 -4.27688e-06 0)
(0.100002 -4.95202e-06 0)
(0.100002 -6.73256e-06 0)
(0.100001 -9.63613e-06 0)
(0.0999992 -1.27766e-05 0)
(0.0999965 -1.59623e-05 0)
(0.0999938 -1.8145e-05 0)
(0.0999895 -2.01881e-05 0)
(0.0999863 -2.054e-05 0)
(0.0999806 -2.22374e-05 0)
(0.0999783 -2.14643e-05 0)
(0.0999709 -2.64115e-05 0)
(0.0999701 -2.58502e-05 0)
(0.0999582 -3.91761e-05 0)
(0.100004 -1.55015e-07 0)
(0.100003 4.99817e-07 0)
(0.100001 1.19696e-06 0)
(0.0999998 1.99902e-06 0)
(0.0999996 3.16162e-06 0)
(0.0999998 4.72726e-06 0)
(0.0999996 6.18255e-06 0)
(0.0999996 6.86779e-06 0)
(0.1 6.90435e-06 0)
(0.1 6.53208e-06 0)
(0.0999983 6.12678e-06 0)
(0.0999948 5.57594e-06 0)
(0.0999912 5.69972e-06 0)
(0.0999862 5.50381e-06 0)
(0.0999824 6.43741e-06 0)
(0.0999765 5.8314e-06 0)
(0.0999739 7.46658e-06 0)
(0.0999665 4.46879e-06 0)
(0.0999651 6.30474e-06 0)
(0.0999535 -3.58091e-06 0)
(0.100006 -1.10626e-06 0)
(0.100005 -2.67102e-06 0)
(0.100004 -3.91326e-06 0)
(0.100002 -4.93707e-06 0)
(0.100002 -5.75546e-06 0)
(0.100003 -6.40018e-06 0)
(0.100003 -7.1541e-06 0)
(0.100003 -8.15667e-06 0)
(0.100003 -9.40418e-06 0)
(0.100002 -1.12286e-05 0)
(0.1 -1.30099e-05 0)
(0.0999969 -1.47605e-05 0)
(0.099994 -1.60092e-05 0)
(0.0999887 -1.75358e-05 0)
(0.0999856 -1.80515e-05 0)
(0.099978 -1.9606e-05 0)
(0.0999763 -1.91159e-05 0)
(0.0999649 -2.27721e-05 0)
(0.0999652 -2.18907e-05 0)
(0.0999443 -3.22951e-05 0)
)
;

boundaryField
{
    sides
    {
        type            calculated;
        value           nonuniform List<vector> 
40
(
(0.100006 0 0)
(0.100005 0 0)
(0.100004 0 0)
(0.100002 0 0)
(0.100002 0 0)
(0.100003 0 0)
(0.100003 0 0)
(0.100003 0 0)
(0.100003 0 0)
(0.100002 0 0)
(0.1 0 0)
(0.0999969 0 0)
(0.099994 0 0)
(0.0999887 0 0)
(0.0999856 0 0)
(0.099978 0 0)
(0.0999763 0 0)
(0.0999649 0 0)
(0.0999652 0 0)
(0.0999443 0 0)
(0.0999944 0 0)
(0.0999949 0 0)
(0.0999964 0 0)
(0.0999977 0 0)
(0.0999977 0 0)
(0.0999975 0 0)
(0.0999974 0 0)
(0.0999973 0 0)
(0.099997 0 0)
(0.0999979 0 0)
(0.0999996 0 0)
(0.100003 0 0)
(0.100006 0 0)
(0.100011 0 0)
(0.100014 0 0)
(0.100022 0 0)
(0.100024 0 0)
(0.100035 0 0)
(0.100035 0 0)
(0.100056 0 0)
)
;
    }
    inlet
    {
        type            calculated;
        value           nonuniform List<vector> 
20
(
(0.0999949 0 0)
(0.0999959 0 0)
(0.0999963 0 0)
(0.0999968 0 0)
(0.0999972 0 0)
(0.0999976 0 0)
(0.0999981 0 0)
(0.0999986 0 0)
(0.0999991 0 0)
(0.0999997 0 0)
(0.1 0 0)
(0.100001 0 0)
(0.100001 0 0)
(0.100002 0 0)
(0.100002 0 0)
(0.100003 0 0)
(0.100003 0 0)
(0.100004 0 0)
(0.100004 0 0)
(0.100005 0 0)
)
;
    }
    outlet
    {
        type            calculated;
        value           nonuniform List<vector> 
20
(
(0.100056 -3.22798e-05 0)
(0.100047 -3.58929e-06 0)
(0.100042 -3.91776e-05 0)
(0.100035 -2.32595e-05 0)
(0.10003 -4.15295e-05 0)
(0.100024 -3.54657e-05 0)
(0.100019 -4.29143e-05 0)
(0.100013 -4.20096e-05 0)
(0.100008 -4.41337e-05 0)
(0.100003 -4.43198e-05 0)
(0.0999974 -4.43204e-05 0)
(0.0999922 -4.41313e-05 0)
(0.0999871 -4.20117e-05 0)
(0.0999815 -4.29075e-05 0)
(0.0999764 -3.54693e-05 0)
(0.09997 -4.15215e-05 0)
(0.0999649 -2.32596e-05 0)
(0.0999578 -3.91759e-05 0)
(0.0999532 -3.5809e-06 0)
(0.0999435 -3.22948e-05 0)
)
;
    }
    frontAndBack
    {
        type            empty;
    }
}


// ************************************************************************* //
