/*--------------------------------*- C++ -*----------------------------------*\
  =========                 |
  \\      /  F ield         | OpenFOAM: The Open Source CFD Toolbox
   \\    /   O peration     | Website:  https://openfoam.org
    \\  /    A nd           | Version:  7
     \\/     M anipulation  |
\*---------------------------------------------------------------------------*/
FoamFile
{
    version     2.0;
    format      ascii;
    class       volScalarField;
    location    "8";
    object      ddt0(h);
}
// * * * * * * * * * * * * * * * * * * * * * * * * * * * * * * * * * * * * * //

dimensions      [0 1 -1 0 0 0 0];

internalField   nonuniform List<scalar> 
400
(
4.65357e-07
4.71439e-07
4.84131e-07
4.73645e-07
4.27454e-07
3.88863e-07
3.32756e-07
2.54139e-07
1.71555e-07
1.016e-07
2.26793e-08
-5.22349e-08
-1.06543e-07
-1.32939e-07
-1.30124e-07
-1.03617e-07
-6.53376e-08
-2.65538e-08
8.09089e-10
5.46625e-09
4.4766e-07
4.47615e-07
4.461e-07
4.39314e-07
3.94819e-07
3.38912e-07
2.75052e-07
2.01745e-07
1.1823e-07
4.62695e-08
-4.15695e-08
-8.967e-08
-9.95308e-08
-9.39821e-08
-7.97961e-08
-5.79984e-08
-3.24897e-08
-8.61289e-09
7.07415e-09
5.85582e-09
4.2196e-07
4.13897e-07
4.16527e-07
3.9181e-07
3.67711e-07
2.97839e-07
2.50656e-07
2.14298e-07
1.6386e-07
1.15452e-07
8.97655e-08
5.82101e-08
2.80858e-08
9.37999e-09
1.6382e-09
1.27983e-10
3.69191e-09
1.05693e-08
1.3909e-08
7.19455e-09
3.8448e-07
3.65588e-07
3.64316e-07
3.42023e-07
2.74158e-07
2.7497e-07
1.78045e-07
1.62295e-07
1.43773e-07
8.23737e-08
7.10716e-08
7.77585e-08
7.84695e-08
7.06927e-08
5.70583e-08
4.22151e-08
3.18001e-08
2.65395e-08
2.01079e-08
7.86597e-09
3.34779e-07
3.18264e-07
3.09161e-07
2.49713e-07
2.49532e-07
1.49358e-07
1.97652e-07
1.19323e-07
9.28329e-08
1.22525e-07
1.40395e-07
1.4538e-07
1.38702e-07
1.23109e-07
9.87588e-08
7.2679e-08
5.31377e-08
4.0227e-08
2.69346e-08
9.84147e-09
2.84987e-07
2.59912e-07
2.27519e-07
2.19321e-07
1.36247e-07
1.38625e-07
7.66893e-08
1.28766e-07
1.51479e-07
1.36957e-07
1.43895e-07
1.54427e-07
1.57258e-07
1.39763e-07
1.08278e-07
7.85043e-08
5.75584e-08
4.17858e-08
2.53218e-08
8.21082e-09
2.28312e-07
2.08302e-07
1.68491e-07
1.24831e-07
1.01344e-07
6.24094e-08
8.41606e-08
7.97357e-08
8.64985e-08
1.29592e-07
1.51505e-07
1.59833e-07
1.5143e-07
1.26805e-07
9.53859e-08
6.97246e-08
5.17965e-08
3.5122e-08
1.83729e-08
5.36994e-09
1.7093e-07
1.43404e-07
1.07808e-07
7.30421e-08
3.87376e-08
2.75207e-08
5.52023e-08
6.89941e-08
1.05141e-07
1.2694e-07
1.38175e-07
1.34385e-07
1.17066e-07
9.30162e-08
7.00297e-08
5.38141e-08
4.08377e-08
2.45267e-08
9.43135e-09
1.68867e-09
1.14713e-07
8.43175e-08
5.20325e-08
3.35061e-08
7.41199e-09
1.41755e-08
1.41587e-08
4.60594e-08
6.21541e-08
8.08234e-08
9.03896e-08
8.61205e-08
7.05089e-08
5.46668e-08
4.35155e-08
3.56249e-08
2.68205e-08
1.40468e-08
3.93339e-09
4.12572e-10
4.20554e-08
2.90956e-08
1.70196e-08
6.67867e-09
1.69885e-09
8.16039e-11
6.73035e-09
1.17554e-08
1.46225e-08
2.48084e-08
3.14812e-08
3.00172e-08
2.36313e-08
1.79737e-08
1.45273e-08
1.19434e-08
8.84127e-09
4.43262e-09
1.38763e-09
2.87297e-10
-4.19976e-08
-2.90685e-08
-1.70524e-08
-6.67957e-09
-1.62944e-09
-8.71174e-11
-6.58816e-09
-1.16622e-08
-1.44906e-08
-2.46812e-08
-3.14054e-08
-2.995e-08
-2.35401e-08
-1.7878e-08
-1.44186e-08
-1.18006e-08
-8.68115e-09
-4.28236e-09
-1.26686e-09
-2.36821e-10
-1.14612e-07
-8.43244e-08
-5.20163e-08
-3.34433e-08
-7.4114e-09
-1.41092e-08
-1.41245e-08
-4.6014e-08
-6.21551e-08
-8.07992e-08
-9.032e-08
-8.60414e-08
-7.04436e-08
-5.4574e-08
-4.33795e-08
-3.54666e-08
-2.66612e-08
-1.38983e-08
-3.81258e-09
-3.61709e-10
-1.70823e-07
-1.43369e-07
-1.07785e-07
-7.30396e-08
-3.87696e-08
-2.74314e-08
-5.5267e-08
-6.88454e-08
-1.05057e-07
-1.26935e-07
-1.38134e-07
-1.34326e-07
-1.16995e-07
-9.29057e-08
-6.98992e-08
-5.36833e-08
-4.06958e-08
-2.43764e-08
-9.30857e-09
-1.63973e-09
-2.28232e-07
-2.08233e-07
-1.68482e-07
-1.24829e-07
-1.01305e-07
-6.24035e-08
-8.40283e-08
-7.97629e-08
-8.63841e-08
-1.29456e-07
-1.51435e-07
-1.59756e-07
-1.51342e-07
-1.2671e-07
-9.52754e-08
-6.95889e-08
-5.16332e-08
-3.496e-08
-1.82613e-08
-5.33155e-09
-2.84868e-07
-2.59829e-07
-2.27512e-07
-2.19312e-07
-1.36211e-07
-1.38574e-07
-7.66712e-08
-1.28625e-07
-1.51361e-07
-1.36851e-07
-1.43811e-07
-1.54329e-07
-1.57133e-07
-1.39637e-07
-1.0814e-07
-7.83457e-08
-5.73922e-08
-4.16419e-08
-2.52368e-08
-8.18624e-09
-3.34593e-07
-3.18195e-07
-3.09129e-07
-2.49683e-07
-2.49462e-07
-1.4937e-07
-1.97506e-07
-1.19305e-07
-9.27421e-08
-1.22374e-07
-1.40242e-07
-1.45234e-07
-1.38549e-07
-1.22957e-07
-9.86014e-08
-7.25217e-08
-5.29925e-08
-4.01054e-08
-2.68586e-08
-9.81779e-09
-3.84335e-07
-3.65403e-07
-3.64224e-07
-3.41966e-07
-2.74074e-07
-2.74873e-07
-1.77917e-07
-1.62234e-07
-1.43745e-07
-8.23212e-08
-7.09036e-08
-7.75819e-08
-7.82989e-08
-7.05192e-08
-5.68879e-08
-4.20577e-08
-3.16568e-08
-2.64117e-08
-2.00142e-08
-7.83019e-09
-4.21805e-07
-4.13748e-07
-4.16332e-07
-3.91664e-07
-3.67646e-07
-2.97664e-07
-2.50644e-07
-2.14166e-07
-1.63671e-07
-1.15372e-07
-8.96572e-08
-5.80635e-08
-2.79126e-08
-9.1922e-09
-1.45142e-09
4.83458e-11
-3.53e-09
-1.04323e-08
-1.38111e-08
-7.15662e-09
-4.47524e-07
-4.47374e-07
-4.45882e-07
-4.3911e-07
-3.94596e-07
-3.38764e-07
-2.75e-07
-2.01614e-07
-1.18152e-07
-4.64114e-08
4.15911e-08
8.97727e-08
9.96817e-08
9.41622e-08
7.999e-08
5.8195e-08
3.26701e-08
8.75393e-09
-6.98279e-09
-5.82088e-09
-4.65172e-07
-4.71284e-07
-4.83918e-07
-4.73427e-07
-4.27218e-07
-3.88664e-07
-3.32524e-07
-2.54027e-07
-1.7151e-07
-1.01234e-07
-2.25057e-08
5.23629e-08
1.06684e-07
1.33105e-07
1.30311e-07
1.03813e-07
6.55151e-08
2.66861e-08
-7.2974e-10
-5.43917e-09
)
;

boundaryField
{
    sides
    {
        type            calculated;
        value           nonuniform List<scalar> 
40
(
-4.65172e-07
-4.71284e-07
-4.83918e-07
-4.73427e-07
-4.27218e-07
-3.88664e-07
-3.32524e-07
-2.54027e-07
-1.7151e-07
-1.01234e-07
-2.25057e-08
5.23629e-08
1.06684e-07
1.33105e-07
1.30311e-07
1.03813e-07
6.55151e-08
2.66861e-08
-7.2974e-10
-5.43917e-09
4.65357e-07
4.71439e-07
4.84131e-07
4.73645e-07
4.27454e-07
3.88863e-07
3.32756e-07
2.54139e-07
1.71555e-07
1.016e-07
2.26793e-08
-5.22349e-08
-1.06543e-07
-1.32939e-07
-1.30124e-07
-1.03617e-07
-6.53376e-08
-2.65538e-08
8.09089e-10
5.46625e-09
)
;
    }
    inlet
    {
        type            calculated;
        value           nonuniform List<scalar> 
20
(
4.65357e-07
4.4766e-07
4.2196e-07
3.8448e-07
3.34779e-07
2.84987e-07
2.28312e-07
1.7093e-07
1.14713e-07
4.20554e-08
-4.19976e-08
-1.14612e-07
-1.70823e-07
-2.28232e-07
-2.84868e-07
-3.34593e-07
-3.84335e-07
-4.21805e-07
-4.47524e-07
-4.65172e-07
)
;
    }
    outlet
    {
        type            calculated;
        value           uniform 0;
    }
    frontAndBack
    {
        type            empty;
    }
}


// ************************************************************************* //
