/*--------------------------------*- C++ -*----------------------------------*\
  =========                 |
  \\      /  F ield         | OpenFOAM: The Open Source CFD Toolbox
   \\    /   O peration     | Website:  https://openfoam.org
    \\  /    A nd           | Version:  7
     \\/     M anipulation  |
\*---------------------------------------------------------------------------*/
FoamFile
{
    version     2.0;
    format      ascii;
    class       volVectorField;
    location    "8";
    object      ddtCorrDdt0(hU);
}
// * * * * * * * * * * * * * * * * * * * * * * * * * * * * * * * * * * * * * //

dimensions      [0 2 -2 0 0 0 0];

internalField   nonuniform List<vector> 
400
(
(1.0756e-08 3.30313e-09 0)
(6.06454e-09 4.8201e-09 0)
(-2.5299e-08 3.89598e-09 0)
(-4.30935e-08 4.74546e-10 0)
(-3.99468e-08 -3.10397e-09 0)
(-2.68629e-08 -5.62317e-09 0)
(-1.54543e-08 -4.97819e-09 0)
(-3.48795e-09 -5.50714e-09 0)
(1.78568e-08 -2.19761e-09 0)
(4.44258e-08 6.90831e-09 0)
(6.11379e-08 2.29617e-08 0)
(6.4711e-08 3.62046e-08 0)
(5.63662e-08 3.92811e-08 0)
(4.00539e-08 3.04711e-08 0)
(1.93758e-08 1.5239e-08 0)
(2.77648e-09 -1.14449e-09 0)
(-1.17741e-08 -1.37444e-08 0)
(-1.58594e-08 -2.04855e-08 0)
(-2.33157e-08 -2.22342e-08 0)
(-1.81454e-08 -2.14379e-08 0)
(1.06299e-08 7.62678e-09 0)
(8.67405e-09 1.2731e-08 0)
(-2.43784e-08 2.02067e-08 0)
(-4.54887e-08 2.22224e-08 0)
(-4.57066e-08 1.63443e-08 0)
(-3.21554e-08 1.35902e-08 0)
(-1.51868e-08 1.34746e-08 0)
(4.28268e-09 1.86371e-08 0)
(3.03139e-08 2.66088e-08 0)
(5.47776e-08 3.08433e-08 0)
(6.20323e-08 3.08788e-08 0)
(5.6456e-08 3.32892e-08 0)
(4.64511e-08 3.49971e-08 0)
(3.49212e-08 3.14541e-08 0)
(2.12437e-08 2.19051e-08 0)
(9.23557e-09 1.10011e-08 0)
(-2.41123e-09 2.64704e-09 0)
(-6.78265e-09 -9.9787e-10 0)
(-1.38931e-08 8.95137e-10 0)
(-1.1473e-08 4.25495e-09 0)
(9.90468e-09 1.09994e-08 0)
(9.5995e-09 2.28951e-08 0)
(-1.8501e-08 3.1821e-08 0)
(-3.56619e-08 3.21714e-08 0)
(-2.41931e-08 2.01751e-08 0)
(-1.44273e-08 1.09429e-08 0)
(-8.68585e-09 1.14021e-09 0)
(6.45827e-09 9.19113e-11 0)
(2.59092e-08 6.8176e-09 0)
(3.89188e-08 1.49024e-08 0)
(4.70505e-08 2.77135e-08 0)
(5.01791e-08 4.48788e-08 0)
(4.39141e-08 5.18853e-08 0)
(3.1427e-08 4.28148e-08 0)
(1.68805e-08 2.12535e-08 0)
(7.02444e-09 -2.79341e-09 0)
(-2.52588e-09 -2.10881e-08 0)
(-4.25573e-09 -3.14941e-08 0)
(-9.99434e-09 -3.2061e-08 0)
(-4.15145e-09 -2.9661e-08 0)
(1.07433e-08 1.51536e-08 0)
(1.16448e-08 3.38392e-08 0)
(-1.76211e-08 4.21551e-08 0)
(-3.54931e-08 3.55584e-08 0)
(-2.99908e-08 2.162e-08 0)
(-1.4142e-08 2.22118e-09 0)
(-1.22675e-08 -8.59078e-09 0)
(1.07475e-08 -7.19842e-09 0)
(3.57453e-08 -7.03483e-09 0)
(4.88393e-08 6.7831e-09 0)
(5.92811e-08 3.29854e-08 0)
(5.6201e-08 5.81543e-08 0)
(4.12499e-08 7.04723e-08 0)
(2.64255e-08 6.46659e-08 0)
(1.48417e-08 4.49683e-08 0)
(8.51378e-09 2.09399e-08 0)
(3.17763e-09 1.3393e-09 0)
(2.87465e-09 -1.06253e-08 0)
(8.71264e-11 -1.25602e-08 0)
(4.24177e-09 -1.1257e-08 0)
(9.17896e-09 1.89767e-08 0)
(1.45865e-08 4.59211e-08 0)
(-1.07653e-08 5.97394e-08 0)
(-2.40089e-08 5.1395e-08 0)
(-8.71109e-09 3.09987e-08 0)
(-6.89868e-09 7.44999e-09 0)
(1.09431e-08 -3.60466e-09 0)
(1.26272e-08 -1.32213e-08 0)
(2.08836e-08 -1.17695e-08 0)
(3.68825e-08 1.86289e-09 0)
(3.88797e-08 2.77785e-08 0)
(3.50709e-08 5.32098e-08 0)
(2.78854e-08 6.66179e-08 0)
(1.95526e-08 6.20379e-08 0)
(1.12014e-08 4.10863e-08 0)
(7.05337e-09 1.44564e-08 0)
(3.17586e-09 -8.45199e-09 0)
(4.63195e-09 -2.43385e-08 0)
(3.15401e-09 -2.913e-08 0)
(9.98385e-09 -3.16047e-08 0)
(8.83471e-09 2.40606e-08 0)
(1.58871e-08 6.04531e-08 0)
(-8.22577e-09 7.12083e-08 0)
(-1.62983e-08 5.77998e-08 0)
(-1.00887e-08 2.39882e-08 0)
(3.5219e-09 -6.18576e-09 0)
(-7.87676e-10 -3.1495e-08 0)
(1.41799e-08 -4.59622e-08 0)
(3.29079e-08 -4.60029e-08 0)
(3.76049e-08 -2.75875e-08 0)
(3.89514e-08 1.03613e-08 0)
(3.25854e-08 5.13348e-08 0)
(2.33627e-08 7.56454e-08 0)
(1.50987e-08 7.54924e-08 0)
(8.11667e-09 5.57263e-08 0)
(5.19614e-09 2.87657e-08 0)
(3.74818e-09 5.4474e-09 0)
(6.00095e-09 -1.14167e-08 0)
(6.76047e-09 -1.731e-08 0)
(1.22206e-08 -2.15921e-08 0)
(7.50022e-09 2.97078e-08 0)
(1.43707e-08 7.48978e-08 0)
(-3.85099e-09 8.54703e-08 0)
(-1.04382e-08 6.45194e-08 0)
(8.22104e-10 2.69708e-08 0)
(4.3971e-09 -1.08556e-08 0)
(1.16475e-08 -4.03992e-08 0)
(1.51112e-08 -5.87784e-08 0)
(1.61248e-08 -6.61127e-08 0)
(2.45118e-08 -4.45104e-08 0)
(2.46449e-08 -1.04228e-09 0)
(2.17093e-08 4.47035e-08 0)
(1.67412e-08 7.24828e-08 0)
(1.09964e-08 7.36136e-08 0)
(5.76537e-09 5.35218e-08 0)
(3.93604e-09 2.61187e-08 0)
(2.96104e-09 1.92853e-09 0)
(5.61716e-09 -1.61276e-08 0)
(6.15865e-09 -2.39918e-08 0)
(1.15503e-08 -3.09334e-08 0)
(6.66985e-09 3.67677e-08 0)
(1.25319e-08 8.90291e-08 0)
(-1.81462e-09 9.98751e-08 0)
(-4.67508e-09 7.08754e-08 0)
(2.45576e-09 2.31341e-08 0)
(7.9176e-09 -2.28602e-08 0)
(9.05254e-09 -5.80023e-08 0)
(8.20736e-09 -8.85512e-08 0)
(1.58157e-08 -9.18812e-08 0)
(2.03607e-08 -6.4517e-08 0)
(2.02166e-08 -1.02806e-08 0)
(1.63442e-08 4.56083e-08 0)
(1.09085e-08 7.79823e-08 0)
(6.44186e-09 7.98716e-08 0)
(3.41322e-09 5.90052e-08 0)
(2.61669e-09 3.07479e-08 0)
(2.31887e-09 6.36149e-09 0)
(4.22399e-09 -1.22986e-08 0)
(4.63522e-09 -2.09807e-08 0)
(7.50526e-09 -2.91374e-08 0)
(4.56322e-09 4.39363e-08 0)
(7.30566e-09 1.011e-07 0)
(-7.17795e-11 1.09852e-07 0)
(-1.80819e-09 7.53558e-08 0)
(2.22708e-09 1.90939e-08 0)
(6.61231e-09 -3.12573e-08 0)
(5.32532e-09 -7.58272e-08 0)
(7.36782e-09 -1.03843e-07 0)
(8.1176e-09 -1.08381e-07 0)
(1.02397e-08 -7.73349e-08 0)
(1.09572e-08 -1.81233e-08 0)
(9.11369e-09 4.16408e-08 0)
(5.43925e-09 7.6414e-08 0)
(3.02947e-09 7.92442e-08 0)
(2.15648e-09 5.79205e-08 0)
(2.10723e-09 2.88636e-08 0)
(1.85515e-09 4.14302e-09 0)
(2.92918e-09 -1.50543e-08 0)
(2.60924e-09 -2.46656e-08 0)
(3.9222e-09 -3.26754e-08 0)
(1.36709e-09 4.68479e-08 0)
(1.91533e-09 1.09431e-07 0)
(5.63436e-10 1.17516e-07 0)
(-5.55219e-10 7.6776e-08 0)
(1.21272e-09 1.89056e-08 0)
(1.973e-09 -3.72159e-08 0)
(2.21225e-09 -8.14932e-08 0)
(2.65721e-09 -1.15707e-07 0)
(1.41876e-09 -1.19877e-07 0)
(2.6405e-09 -8.46175e-08 0)
(3.64467e-09 -2.09014e-08 0)
(3.14407e-09 4.15794e-08 0)
(1.82524e-09 7.77303e-08 0)
(1.11374e-09 8.09979e-08 0)
(9.11636e-10 5.89456e-08 0)
(8.1889e-10 2.89245e-08 0)
(6.76744e-10 3.7041e-09 0)
(1.00739e-09 -1.60989e-08 0)
(8.48822e-10 -2.62679e-08 0)
(1.10784e-09 -3.37859e-08 0)
(-1.37681e-09 4.68484e-08 0)
(-1.86793e-09 1.09438e-07 0)
(-5.09552e-10 1.1753e-07 0)
(5.83578e-10 7.67762e-08 0)
(-1.18167e-09 1.89047e-08 0)
(-1.93365e-09 -3.7215e-08 0)
(-2.15539e-09 -8.14976e-08 0)
(-2.61217e-09 -1.15702e-07 0)
(-1.36789e-09 -1.1987e-07 0)
(-2.58207e-09 -8.46193e-08 0)
(-3.5927e-09 -2.09075e-08 0)
(-3.09188e-09 4.15773e-08 0)
(-1.76733e-09 7.77286e-08 0)
(-1.06195e-09 8.09945e-08 0)
(-8.73718e-10 5.89443e-08 0)
(-7.93815e-10 2.89264e-08 0)
(-6.58005e-10 3.70582e-09 0)
(-9.98779e-10 -1.60978e-08 0)
(-8.40816e-10 -2.6267e-08 0)
(-1.1185e-09 -3.37847e-08 0)
(-4.57049e-09 4.39376e-08 0)
(-7.26535e-09 1.01121e-07 0)
(1.21452e-10 1.09882e-07 0)
(1.83804e-09 7.53719e-08 0)
(-2.19326e-09 1.91042e-08 0)
(-6.5688e-09 -3.12541e-08 0)
(-5.27951e-09 -7.58135e-08 0)
(-7.31698e-09 -1.03829e-07 0)
(-8.08341e-09 -1.08352e-07 0)
(-1.02004e-08 -7.73199e-08 0)
(-1.09033e-08 -1.81214e-08 0)
(-9.0556e-09 4.16392e-08 0)
(-5.38686e-09 7.64099e-08 0)
(-2.97933e-09 7.92401e-08 0)
(-2.11214e-09 5.79207e-08 0)
(-2.07835e-09 2.88696e-08 0)
(-1.83837e-09 4.1493e-09 0)
(-2.9223e-09 -1.50467e-08 0)
(-2.60244e-09 -2.46574e-08 0)
(-3.93293e-09 -3.26642e-08 0)
(-6.67885e-09 3.67635e-08 0)
(-1.25023e-08 8.90676e-08 0)
(1.85943e-09 9.99267e-08 0)
(4.71176e-09 7.09212e-08 0)
(-2.42157e-09 2.31569e-08 0)
(-7.86322e-09 -2.28511e-08 0)
(-9.0158e-09 -5.79749e-08 0)
(-8.14636e-09 -8.85231e-08 0)
(-1.57594e-08 -9.18604e-08 0)
(-2.03279e-08 -6.44955e-08 0)
(-2.01749e-08 -1.02692e-08 0)
(-1.62971e-08 4.56082e-08 0)
(-1.08596e-08 7.7981e-08 0)
(-6.38968e-09 7.9871e-08 0)
(-3.36835e-09 5.90011e-08 0)
(-2.59009e-09 3.07442e-08 0)
(-2.30281e-09 6.35834e-09 0)
(-4.21629e-09 -1.22984e-08 0)
(-4.62535e-09 -2.09819e-08 0)
(-7.51425e-09 -2.9136e-08 0)
(-7.50671e-09 2.97021e-08 0)
(-1.43407e-08 7.49481e-08 0)
(3.89134e-09 8.55501e-08 0)
(1.04774e-08 6.45812e-08 0)
(-7.80192e-10 2.69913e-08 0)
(-4.35073e-09 -1.08436e-08 0)
(-1.15867e-08 -4.03779e-08 0)
(-1.50795e-08 -5.87423e-08 0)
(-1.60742e-08 -6.6083e-08 0)
(-2.44522e-08 -4.44882e-08 0)
(-2.46022e-08 -1.03284e-09 0)
(-2.16661e-08 4.46974e-08 0)
(-1.66959e-08 7.2473e-08 0)
(-1.0956e-08 7.36043e-08 0)
(-5.73342e-09 5.35117e-08 0)
(-3.9122e-09 2.61179e-08 0)
(-2.94534e-09 1.93668e-09 0)
(-5.61242e-09 -1.61088e-08 0)
(-6.15731e-09 -2.3974e-08 0)
(-1.15606e-08 -3.09071e-08 0)
(-8.83925e-09 2.40648e-08 0)
(-1.58625e-08 6.05139e-08 0)
(8.26231e-09 7.12987e-08 0)
(1.63311e-08 5.7872e-08 0)
(1.01309e-08 2.40116e-08 0)
(-3.46375e-09 -6.18078e-09 0)
(8.38195e-10 -3.14819e-08 0)
(-1.41186e-08 -4.59348e-08 0)
(-3.2847e-08 -4.59753e-08 0)
(-3.75529e-08 -2.75798e-08 0)
(-3.89075e-08 1.03581e-08 0)
(-3.25442e-08 5.13298e-08 0)
(-2.33181e-08 7.56432e-08 0)
(-1.50576e-08 7.54913e-08 0)
(-8.07709e-09 5.57208e-08 0)
(-5.15832e-09 2.87597e-08 0)
(-3.71904e-09 5.4394e-09 0)
(-5.98886e-09 -1.14223e-08 0)
(-6.7508e-09 -1.73156e-08 0)
(-1.22166e-08 -2.15936e-08 0)
(-9.17886e-09 1.89892e-08 0)
(-1.4581e-08 4.59949e-08 0)
(1.07992e-08 5.98282e-08 0)
(2.40466e-08 5.14573e-08 0)
(8.75035e-09 3.10317e-08 0)
(6.94789e-09 7.45187e-09 0)
(-1.08773e-08 -3.60309e-09 0)
(-1.25873e-08 -1.32018e-08 0)
(-2.08378e-08 -1.17478e-08 0)
(-3.68265e-08 1.8703e-09 0)
(-3.88291e-08 2.7773e-08 0)
(-3.50272e-08 5.31969e-08 0)
(-2.78469e-08 6.65989e-08 0)
(-1.95213e-08 6.20202e-08 0)
(-1.11756e-08 4.10724e-08 0)
(-7.03283e-09 1.44514e-08 0)
(-3.16796e-09 -8.45659e-09 0)
(-4.64064e-09 -2.43292e-08 0)
(-3.16388e-09 -2.91166e-08 0)
(-9.99675e-09 -3.15761e-08 0)
(-1.07469e-08 1.51683e-08 0)
(-1.16436e-08 3.39187e-08 0)
(1.76369e-08 4.22484e-08 0)
(3.55319e-08 3.5617e-08 0)
(3.00349e-08 2.16392e-08 0)
(1.41854e-08 2.21655e-09 0)
(1.23286e-08 -8.60203e-09 0)
(-1.0686e-08 -7.20408e-09 0)
(-3.5696e-08 -7.0222e-09 0)
(-4.87866e-08 6.78958e-09 0)
(-5.92097e-08 3.29733e-08 0)
(-5.6143e-08 5.81447e-08 0)
(-4.12081e-08 7.04706e-08 0)
(-2.63908e-08 6.46702e-08 0)
(-1.48125e-08 4.49726e-08 0)
(-8.48717e-09 2.09401e-08 0)
(-3.15573e-09 1.33331e-09 0)
(-2.85526e-09 -1.06241e-08 0)
(-6.32707e-11 -1.25518e-08 0)
(-4.21186e-09 -1.12429e-08 0)
(-9.90604e-09 1.10116e-08 0)
(-9.61104e-09 2.29522e-08 0)
(1.85162e-08 3.18973e-08 0)
(3.56953e-08 3.22266e-08 0)
(2.42318e-08 2.01901e-08 0)
(1.44888e-08 1.09335e-08 0)
(8.72846e-09 1.12311e-09 0)
(-6.38771e-09 7.93947e-11 0)
(-2.58205e-08 6.80409e-09 0)
(-3.88685e-08 1.48984e-08 0)
(-4.70109e-08 2.77019e-08 0)
(-5.01342e-08 4.48603e-08 0)
(-4.38758e-08 5.18703e-08 0)
(-3.13969e-08 4.28062e-08 0)
(-1.68616e-08 2.12466e-08 0)
(-7.01555e-09 -2.79885e-09 0)
(2.52469e-09 -2.10979e-08 0)
(4.24571e-09 -3.14946e-08 0)
(9.98043e-09 -3.20589e-08 0)
(4.12375e-09 -2.96481e-08 0)
(-1.06392e-08 7.64857e-09 0)
(-8.68695e-09 1.27804e-08 0)
(2.43938e-08 2.02594e-08 0)
(4.55271e-08 2.22524e-08 0)
(4.57499e-08 1.63566e-08 0)
(3.2193e-08 1.35726e-08 0)
(1.52349e-08 1.34565e-08 0)
(-4.21232e-09 1.86282e-08 0)
(-3.02429e-08 2.65858e-08 0)
(-5.47194e-08 3.08208e-08 0)
(-6.1963e-08 3.08817e-08 0)
(-5.63948e-08 3.32937e-08 0)
(-4.64077e-08 3.49969e-08 0)
(-3.48971e-08 3.14548e-08 0)
(-2.12357e-08 2.19116e-08 0)
(-9.22905e-09 1.10153e-08 0)
(2.42298e-09 2.66296e-09 0)
(6.81094e-09 -9.75058e-10 0)
(1.39286e-08 9.18202e-10 0)
(1.15189e-08 4.28212e-09 0)
(-1.07607e-08 3.32149e-09 0)
(-6.09491e-09 4.85995e-09 0)
(2.53067e-08 3.93702e-09 0)
(4.31323e-08 5.04355e-10 0)
(3.99873e-08 -3.08353e-09 0)
(2.6905e-08 -5.61929e-09 0)
(1.55192e-08 -4.974e-09 0)
(3.54039e-09 -5.51325e-09 0)
(-1.78022e-08 -2.21421e-09 0)
(-4.43185e-08 6.88523e-09 0)
(-6.10526e-08 2.29476e-08 0)
(-6.46534e-08 3.62004e-08 0)
(-5.63212e-08 3.92837e-08 0)
(-4.00175e-08 3.04725e-08 0)
(-1.9356e-08 1.52283e-08 0)
(-2.77717e-09 -1.17261e-09 0)
(1.17503e-08 -1.37811e-08 0)
(1.58248e-08 -2.05223e-08 0)
(2.32708e-08 -2.22638e-08 0)
(1.8092e-08 -2.1461e-08 0)
)
;

boundaryField
{
    sides
    {
        type            calculated;
        value           nonuniform List<vector> 
40
(
(-1.07607e-08 0 0)
(-6.09491e-09 0 0)
(2.53067e-08 0 0)
(4.31323e-08 0 0)
(3.99873e-08 0 0)
(2.6905e-08 0 0)
(1.55192e-08 0 0)
(3.54039e-09 0 0)
(-1.78022e-08 0 0)
(-4.43185e-08 0 0)
(-6.10526e-08 0 0)
(-6.46534e-08 0 0)
(-5.63212e-08 0 0)
(-4.00175e-08 0 0)
(-1.9356e-08 0 0)
(-2.77717e-09 0 0)
(1.17503e-08 0 0)
(1.58248e-08 0 0)
(2.32708e-08 0 0)
(1.8092e-08 0 0)
(1.0756e-08 0 0)
(6.06454e-09 0 0)
(-2.5299e-08 0 0)
(-4.30935e-08 0 0)
(-3.99468e-08 0 0)
(-2.68629e-08 0 0)
(-1.54543e-08 0 0)
(-3.48795e-09 0 0)
(1.78568e-08 0 0)
(4.44258e-08 0 0)
(6.11379e-08 0 0)
(6.4711e-08 0 0)
(5.63662e-08 0 0)
(4.00539e-08 0 0)
(1.93758e-08 0 0)
(2.77648e-09 0 0)
(-1.17741e-08 0 0)
(-1.58594e-08 0 0)
(-2.33157e-08 0 0)
(-1.81454e-08 0 0)
)
;
    }
    inlet
    {
        type            calculated;
        value           uniform (0 0 0);
    }
    outlet
    {
        type            calculated;
        value           nonuniform List<vector> 
20
(
(-1.81454e-08 -2.14379e-08 0)
(-1.1473e-08 4.25495e-09 0)
(-4.15145e-09 -2.9661e-08 0)
(4.24177e-09 -1.1257e-08 0)
(9.98385e-09 -3.16047e-08 0)
(1.22206e-08 -2.15921e-08 0)
(1.15503e-08 -3.09334e-08 0)
(7.50526e-09 -2.91374e-08 0)
(3.9222e-09 -3.26754e-08 0)
(1.10784e-09 -3.37859e-08 0)
(-1.1185e-09 -3.37847e-08 0)
(-3.93293e-09 -3.26642e-08 0)
(-7.51425e-09 -2.9136e-08 0)
(-1.15606e-08 -3.09071e-08 0)
(-1.22166e-08 -2.15936e-08 0)
(-9.99675e-09 -3.15761e-08 0)
(-4.21186e-09 -1.12429e-08 0)
(4.12375e-09 -2.96481e-08 0)
(1.15189e-08 4.28212e-09 0)
(1.8092e-08 -2.1461e-08 0)
)
;
    }
    frontAndBack
    {
        type            empty;
    }
}


// ************************************************************************* //
