/*--------------------------------*- C++ -*----------------------------------*\
  =========                 |
  \\      /  F ield         | OpenFOAM: The Open Source CFD Toolbox
   \\    /   O peration     | Website:  https://openfoam.org
    \\  /    A nd           | Version:  7
     \\/     M anipulation  |
\*---------------------------------------------------------------------------*/
FoamFile
{
    version     2.0;
    format      ascii;
    class       volVectorField;
    location    "8";
    object      hU;
}
// * * * * * * * * * * * * * * * * * * * * * * * * * * * * * * * * * * * * * //

dimensions      [0 2 -1 0 0 0 0];

internalField   nonuniform List<vector> 
400
(
(0.00100001 -1.27218e-08 0)
(0.000999975 -3.74337e-08 0)
(0.000999955 -5.93408e-08 0)
(0.000999966 -7.69582e-08 0)
(0.000999983 -8.99792e-08 0)
(0.000999994 -9.92721e-08 0)
(0.00100001 -1.0543e-07 0)
(0.00100002 -1.08808e-07 0)
(0.00100004 -1.08844e-07 0)
(0.00100005 -1.07224e-07 0)
(0.00100005 -1.06937e-07 0)
(0.00100006 -1.18599e-07 0)
(0.00100007 -1.37021e-07 0)
(0.0010001 -1.6354e-07 0)
(0.00100012 -1.81432e-07 0)
(0.0010002 -2.07006e-07 0)
(0.00100023 -2.11522e-07 0)
(0.00100036 -2.43288e-07 0)
(0.00100037 -2.36009e-07 0)
(0.00100061 -3.10092e-07 0)
(0.00100001 1.12192e-10 0)
(0.000999979 -8.70033e-10 0)
(0.000999962 -2.30342e-09 0)
(0.000999976 -4.05412e-09 0)
(0.000999997 -2.46414e-09 0)
(0.00100001 6.50643e-09 0)
(0.00100003 2.15067e-08 0)
(0.00100005 3.87419e-08 0)
(0.00100006 5.69432e-08 0)
(0.00100007 7.22684e-08 0)
(0.00100007 8.56437e-08 0)
(0.00100007 9.26841e-08 0)
(0.00100008 9.65434e-08 0)
(0.0010001 8.66463e-08 0)
(0.00100013 8.05001e-08 0)
(0.00100018 5.70547e-08 0)
(0.00100022 5.41046e-08 0)
(0.00100031 1.13426e-08 0)
(0.00100034 1.60883e-08 0)
(0.00100048 -8.49618e-08 0)
(0.00100001 -1.0358e-08 0)
(0.000999977 -3.5539e-08 0)
(0.000999956 -6.32784e-08 0)
(0.000999965 -9.11302e-08 0)
(0.000999979 -1.11864e-07 0)
(0.000999987 -1.19492e-07 0)
(0.000999997 -1.15362e-07 0)
(0.00100001 -1.0452e-07 0)
(0.00100003 -9.13186e-08 0)
(0.00100003 -8.15155e-08 0)
(0.00100004 -7.89158e-08 0)
(0.00100005 -9.23278e-08 0)
(0.00100006 -1.16283e-07 0)
(0.00100009 -1.55476e-07 0)
(0.00100012 -1.88856e-07 0)
(0.00100017 -2.32932e-07 0)
(0.00100021 -2.53593e-07 0)
(0.00100029 -3.05585e-07 0)
(0.00100032 -3.12715e-07 0)
(0.00100045 -4.05953e-07 0)
(0.00100001 -1.04282e-08 0)
(0.000999979 -3.74829e-08 0)
(0.000999962 -6.56007e-08 0)
(0.000999976 -8.96397e-08 0)
(0.000999996 -1.01412e-07 0)
(0.00100001 -9.62553e-08 0)
(0.00100003 -7.61824e-08 0)
(0.00100004 -4.79876e-08 0)
(0.00100006 -1.59516e-08 0)
(0.00100006 1.28209e-08 0)
(0.00100006 3.26731e-08 0)
(0.00100006 2.97971e-08 0)
(0.00100006 1.08661e-08 0)
(0.00100008 -2.85606e-08 0)
(0.00100011 -6.25283e-08 0)
(0.00100015 -1.11297e-07 0)
(0.00100018 -1.33815e-07 0)
(0.00100025 -1.94115e-07 0)
(0.00100027 -2.02209e-07 0)
(0.00100036 -3.09905e-07 0)
(0.00100001 -1.09727e-08 0)
(0.000999981 -4.36281e-08 0)
(0.000999965 -8.1788e-08 0)
(0.000999975 -1.18076e-07 0)
(0.000999989 -1.4172e-07 0)
(0.000999997 -1.4676e-07 0)
(0.00100001 -1.34781e-07 0)
(0.00100002 -1.12938e-07 0)
(0.00100003 -8.63698e-08 0)
(0.00100003 -6.51541e-08 0)
(0.00100004 -5.71657e-08 0)
(0.00100004 -7.30014e-08 0)
(0.00100005 -1.05419e-07 0)
(0.00100007 -1.56766e-07 0)
(0.00100009 -2.02364e-07 0)
(0.00100013 -2.57362e-07 0)
(0.00100016 -2.87493e-07 0)
(0.00100022 -3.47279e-07 0)
(0.00100023 -3.60904e-07 0)
(0.00100032 -4.57759e-07 0)
(0.00100001 -1.07817e-08 0)
(0.000999983 -4.88755e-08 0)
(0.000999969 -9.48422e-08 0)
(0.000999979 -1.35842e-07 0)
(0.000999992 -1.59502e-07 0)
(0.001 -1.59529e-07 0)
(0.00100001 -1.39225e-07 0)
(0.00100003 -1.05544e-07 0)
(0.00100004 -6.60002e-08 0)
(0.00100004 -3.22104e-08 0)
(0.00100004 -1.49293e-08 0)
(0.00100004 -2.89102e-08 0)
(0.00100004 -6.50563e-08 0)
(0.00100006 -1.22132e-07 0)
(0.00100008 -1.72553e-07 0)
(0.00100011 -2.32098e-07 0)
(0.00100013 -2.64853e-07 0)
(0.00100017 -3.28705e-07 0)
(0.00100019 -3.42875e-07 0)
(0.00100025 -4.44637e-07 0)
(0.00100001 -9.84153e-09 0)
(0.000999986 -5.13442e-08 0)
(0.000999975 -1.02677e-07 0)
(0.000999983 -1.48131e-07 0)
(0.000999995 -1.74475e-07 0)
(0.001 -1.77203e-07 0)
(0.00100001 -1.60639e-07 0)
(0.00100002 -1.31242e-07 0)
(0.00100003 -9.47381e-08 0)
(0.00100003 -6.4907e-08 0)
(0.00100003 -5.34683e-08 0)
(0.00100003 -7.26173e-08 0)
(0.00100003 -1.13642e-07 0)
(0.00100005 -1.74998e-07 0)
(0.00100006 -2.292e-07 0)
(0.00100008 -2.9024e-07 0)
(0.0010001 -3.2473e-07 0)
(0.00100014 -3.87025e-07 0)
(0.00100015 -4.02211e-07 0)
(0.0010002 -4.98492e-07 0)
(0.001 -8.38157e-09 0)
(0.00099999 -5.23893e-08 0)
(0.000999981 -1.08448e-07 0)
(0.000999988 -1.58201e-07 0)
(0.000999996 -1.87091e-07 0)
(0.001 -1.91231e-07 0)
(0.00100001 -1.73918e-07 0)
(0.00100002 -1.40739e-07 0)
(0.00100002 -9.84426e-08 0)
(0.00100002 -6.2463e-08 0)
(0.00100002 -4.75645e-08 0)
(0.00100002 -6.80878e-08 0)
(0.00100002 -1.13279e-07 0)
(0.00100003 -1.79042e-07 0)
(0.00100004 -2.3693e-07 0)
(0.00100006 -3.00362e-07 0)
(0.00100007 -3.36691e-07 0)
(0.0010001 -3.99949e-07 0)
(0.00100011 -4.15847e-07 0)
(0.00100014 -5.11953e-07 0)
(0.001 -7.08412e-09 0)
(0.000999993 -5.27056e-08 0)
(0.000999988 -1.12008e-07 0)
(0.000999992 -1.64281e-07 0)
(0.000999998 -1.94586e-07 0)
(0.001 -1.99181e-07 0)
(0.00100001 -1.82473e-07 0)
(0.00100001 -1.49275e-07 0)
(0.00100001 -1.06622e-07 0)
(0.00100001 -7.08609e-08 0)
(0.00100001 -5.72425e-08 0)
(0.00100001 -7.96567e-08 0)
(0.00100001 -1.27081e-07 0)
(0.00100002 -1.94789e-07 0)
(0.00100003 -2.54279e-07 0)
(0.00100004 -3.18453e-07 0)
(0.00100004 -3.55354e-07 0)
(0.00100006 -4.18216e-07 0)
(0.00100006 -4.34199e-07 0)
(0.00100008 -5.28786e-07 0)
(0.001 -6.49994e-09 0)
(0.000999998 -5.26213e-08 0)
(0.000999996 -1.13389e-07 0)
(0.000999997 -1.67103e-07 0)
(0.000999999 -1.9793e-07 0)
(0.001 -2.03288e-07 0)
(0.001 -1.87129e-07 0)
(0.001 -1.54349e-07 0)
(0.001 -1.10983e-07 0)
(0.001 -7.39632e-08 0)
(0.001 -5.96623e-08 0)
(0.001 -8.24113e-08 0)
(0.001 -1.3084e-07 0)
(0.00100001 -1.99701e-07 0)
(0.00100001 -2.60292e-07 0)
(0.00100001 -3.2512e-07 0)
(0.00100001 -3.62488e-07 0)
(0.00100002 -4.25325e-07 0)
(0.00100002 -4.41423e-07 0)
(0.00100003 -5.35362e-07 0)
(0.000999999 -6.4971e-09 0)
(0.001 -5.26166e-08 0)
(0.001 -1.13386e-07 0)
(0.001 -1.67104e-07 0)
(0.001 -1.97932e-07 0)
(0.000999999 -2.03288e-07 0)
(0.000999998 -1.87128e-07 0)
(0.000999997 -1.54348e-07 0)
(0.000999996 -1.10983e-07 0)
(0.000999996 -7.39644e-08 0)
(0.000999996 -5.96629e-08 0)
(0.000999996 -8.24097e-08 0)
(0.000999995 -1.30837e-07 0)
(0.000999993 -1.99698e-07 0)
(0.000999991 -2.60289e-07 0)
(0.000999988 -3.25116e-07 0)
(0.000999985 -3.62484e-07 0)
(0.000999981 -4.25317e-07 0)
(0.000999979 -4.41417e-07 0)
(0.000999973 -5.3535e-07 0)
(0.000999997 -7.07609e-09 0)
(0.00100001 -5.26916e-08 0)
(0.00100001 -1.12e-07 0)
(0.00100001 -1.64284e-07 0)
(0.001 -1.94591e-07 0)
(0.000999999 -1.99182e-07 0)
(0.000999995 -1.8247e-07 0)
(0.00099999 -1.49271e-07 0)
(0.000999987 -1.06618e-07 0)
(0.000999987 -7.08594e-08 0)
(0.000999988 -5.72414e-08 0)
(0.000999988 -7.96521e-08 0)
(0.000999986 -1.27074e-07 0)
(0.000999981 -1.94776e-07 0)
(0.000999974 -2.54265e-07 0)
(0.000999964 -3.18431e-07 0)
(0.000999956 -3.55333e-07 0)
(0.000999942 -4.18184e-07 0)
(0.000999937 -4.34168e-07 0)
(0.000999918 -5.28738e-07 0)
(0.000999996 -8.36953e-09 0)
(0.00100001 -5.2367e-08 0)
(0.00100002 -1.08436e-07 0)
(0.00100001 -1.58202e-07 0)
(0.001 -1.87095e-07 0)
(0.000999998 -1.9123e-07 0)
(0.000999992 -1.73912e-07 0)
(0.000999984 -1.40734e-07 0)
(0.000999979 -9.8443e-08 0)
(0.000999977 -6.24631e-08 0)
(0.000999979 -4.75635e-08 0)
(0.000999979 -6.80826e-08 0)
(0.000999976 -1.13272e-07 0)
(0.000999967 -1.79032e-07 0)
(0.000999957 -2.36922e-07 0)
(0.00099994 -3.00348e-07 0)
(0.000999927 -3.36679e-07 0)
(0.000999904 -3.99921e-07 0)
(0.000999894 -4.15824e-07 0)
(0.000999862 -5.11904e-07 0)
(0.000999995 -9.82544e-09 0)
(0.00100001 -5.13157e-08 0)
(0.00100003 -1.02662e-07 0)
(0.00100002 -1.48133e-07 0)
(0.001 -1.74481e-07 0)
(0.000999998 -1.77199e-07 0)
(0.00099999 -1.60626e-07 0)
(0.000999981 -1.31227e-07 0)
(0.000999974 -9.47306e-08 0)
(0.000999973 -6.49025e-08 0)
(0.000999973 -5.3464e-08 0)
(0.000999971 -7.26053e-08 0)
(0.000999966 -1.13623e-07 0)
(0.000999954 -1.74964e-07 0)
(0.000999939 -2.29161e-07 0)
(0.000999916 -2.90183e-07 0)
(0.000999898 -3.24672e-07 0)
(0.000999864 -3.86939e-07 0)
(0.000999851 -4.02128e-07 0)
(0.000999804 -4.98368e-07 0)
(0.000999994 -1.07614e-08 0)
(0.00100002 -4.88418e-08 0)
(0.00100003 -9.48236e-08 0)
(0.00100002 -1.35844e-07 0)
(0.00100001 -1.59511e-07 0)
(0.000999997 -1.59533e-07 0)
(0.000999985 -1.39222e-07 0)
(0.000999971 -1.05539e-07 0)
(0.000999961 -6.60006e-08 0)
(0.000999958 -3.2214e-08 0)
(0.000999961 -1.49314e-08 0)
(0.000999962 -2.89044e-08 0)
(0.000999957 -6.50494e-08 0)
(0.000999942 -1.22123e-07 0)
(0.000999925 -1.72552e-07 0)
(0.000999894 -2.3209e-07 0)
(0.000999871 -2.64854e-07 0)
(0.000999828 -3.28684e-07 0)
(0.000999809 -3.42863e-07 0)
(0.00099975 -4.4459e-07 0)
(0.000999993 -1.09508e-08 0)
(0.00100002 -4.35926e-08 0)
(0.00100003 -8.17666e-08 0)
(0.00100002 -1.18071e-07 0)
(0.00100001 -1.41717e-07 0)
(0.001 -1.46749e-07 0)
(0.000999994 -1.34763e-07 0)
(0.000999982 -1.12922e-07 0)
(0.000999972 -8.63627e-08 0)
(0.000999967 -6.51532e-08 0)
(0.000999964 -5.71677e-08 0)
(0.000999956 -7.29923e-08 0)
(0.000999947 -1.05401e-07 0)
(0.000999927 -1.56727e-07 0)
(0.000999906 -2.02321e-07 0)
(0.000999868 -2.57291e-07 0)
(0.000999841 -2.87427e-07 0)
(0.000999784 -3.47165e-07 0)
(0.000999766 -3.60802e-07 0)
(0.000999681 -4.57575e-07 0)
(0.000999993 -1.04069e-08 0)
(0.00100002 -3.74513e-08 0)
(0.00100004 -6.55872e-08 0)
(0.00100002 -8.96469e-08 0)
(0.001 -1.01426e-07 0)
(0.00099999 -9.62634e-08 0)
(0.000999975 -7.61836e-08 0)
(0.000999957 -4.79876e-08 0)
(0.000999944 -1.5957e-08 0)
(0.000999939 1.28141e-08 0)
(0.000999942 3.26667e-08 0)
(0.000999943 2.98001e-08 0)
(0.000999938 1.08702e-08 0)
(0.000999918 -2.85494e-08 0)
(0.000999894 -6.25235e-08 0)
(0.000999851 -1.11281e-07 0)
(0.000999818 -1.33808e-07 0)
(0.000999754 -1.94083e-07 0)
(0.000999727 -2.02186e-07 0)
(0.000999636 -3.09852e-07 0)
(0.000999993 -1.03396e-08 0)
(0.00100002 -3.55091e-08 0)
(0.00100004 -6.32575e-08 0)
(0.00100003 -9.11218e-08 0)
(0.00100002 -1.11861e-07 0)
(0.00100001 -1.19487e-07 0)
(0.001 -1.15356e-07 0)
(0.000999987 -1.04516e-07 0)
(0.000999974 -9.13229e-08 0)
(0.000999968 -8.15245e-08 0)
(0.000999963 -7.89303e-08 0)
(0.00099995 -9.23311e-08 0)
(0.000999937 -1.16285e-07 0)
(0.00099991 -1.55459e-07 0)
(0.000999884 -1.88849e-07 0)
(0.000999829 -2.32894e-07 0)
(0.000999794 -2.53577e-07 0)
(0.000999708 -3.05508e-07 0)
(0.000999684 -3.12667e-07 0)
(0.000999546 -4.05804e-07 0)
(0.000999992 1.25361e-10 0)
(0.00100002 -8.54554e-10 0)
(0.00100004 -2.2981e-09 0)
(0.00100002 -4.05566e-09 0)
(0.001 -2.46503e-09 0)
(0.000999986 6.50935e-09 0)
(0.00099997 2.15151e-08 0)
(0.000999952 3.87518e-08 0)
(0.000999939 5.69488e-08 0)
(0.000999932 7.22737e-08 0)
(0.000999933 8.5646e-08 0)
(0.000999931 9.26883e-08 0)
(0.000999924 9.65452e-08 0)
(0.000999897 8.66625e-08 0)
(0.00099987 8.05147e-08 0)
(0.000999815 5.70901e-08 0)
(0.000999777 5.41262e-08 0)
(0.000999688 1.13941e-08 0)
(0.000999657 1.6118e-08 0)
(0.000999518 -8.48931e-08 0)
(0.000999992 -1.2714e-08 0)
(0.00100002 -3.74267e-08 0)
(0.00100004 -5.93449e-08 0)
(0.00100003 -7.69718e-08 0)
(0.00100002 -8.99982e-08 0)
(0.00100001 -9.92942e-08 0)
(0.000999995 -1.05454e-07 0)
(0.000999978 -1.08834e-07 0)
(0.000999964 -1.08874e-07 0)
(0.000999954 -1.07255e-07 0)
(0.000999951 -1.06972e-07 0)
(0.00099994 -1.1863e-07 0)
(0.000999933 -1.37062e-07 0)
(0.000999899 -1.63583e-07 0)
(0.000999876 -1.81489e-07 0)
(0.000999802 -2.07049e-07 0)
(0.00099977 -2.11566e-07 0)
(0.000999642 -2.43302e-07 0)
(0.000999627 -2.36023e-07 0)
(0.000999395 -3.10098e-07 0)
)
;

boundaryField
{
    sides
    {
        type            slip;
    }
    inlet
    {
        type            fixedValue;
        value           uniform (0.001 0 0);
    }
    outlet
    {
        type            zeroGradient;
    }
    frontAndBack
    {
        type            empty;
    }
}


// ************************************************************************* //
