/*--------------------------------*- C++ -*----------------------------------*\
  =========                 |
  \\      /  F ield         | OpenFOAM: The Open Source CFD Toolbox
   \\    /   O peration     | Website:  https://openfoam.org
    \\  /    A nd           | Version:  7
     \\/     M anipulation  |
\*---------------------------------------------------------------------------*/
FoamFile
{
    version     2.0;
    format      ascii;
    class       surfaceScalarField;
    location    "8";
    object      phi;
}
// * * * * * * * * * * * * * * * * * * * * * * * * * * * * * * * * * * * * * //

dimensions      [0 4 -1 0 0 0 0];

internalField   nonuniform List<scalar> 
760
(
4.9999e-06
-1.35917e-11
4.99984e-06
-5.9988e-11
4.99982e-06
-1.04938e-10
4.99985e-06
-1.43994e-10
4.99992e-06
-1.66958e-10
5e-06
-1.67238e-10
5.00007e-06
-1.46691e-10
5.00014e-06
-1.17239e-10
5.00019e-06
-7.84102e-11
5.00023e-06
-4.46727e-11
5.00026e-06
-1.64381e-11
5.00032e-06
-2.89429e-11
5.0004e-06
-5.57057e-11
5.00057e-06
-1.28556e-10
5.00078e-06
-1.80911e-10
5.00108e-06
-2.88965e-10
5.0014e-06
-3.08562e-10
5.00188e-06
-4.79295e-10
5.00233e-06
-4.62068e-10
-9.1281e-10
4.99992e-06
-4.17221e-11
4.99987e-06
-1.23235e-10
4.99986e-06
-2.0988e-10
4.99991e-06
-2.96286e-10
5e-06
-3.52079e-10
5.00011e-06
-3.48796e-10
5.0002e-06
-2.98914e-10
5.00027e-06
-2.23381e-10
5.00031e-06
-1.37896e-10
5.00033e-06
-6.5539e-11
5.00033e-06
-1.13341e-11
5.00037e-06
-3.62255e-11
5.00044e-06
-1.02734e-10
5.00058e-06
-2.46398e-10
5.00077e-06
-3.54887e-10
5.00103e-06
-5.3667e-10
5.00132e-06
-5.96285e-10
5.00168e-06
-8.45043e-10
5.00205e-06
-8.40259e-10
-1.29765e-09
4.9999e-06
-4.73728e-11
4.99984e-06
-1.66372e-10
4.99982e-06
-2.94378e-10
4.99984e-06
-4.12236e-10
4.99989e-06
-4.84848e-10
4.99996e-06
-4.86524e-10
5.00003e-06
-4.26386e-10
5.00009e-06
-3.32705e-10
5.00014e-06
-2.20649e-10
5.00017e-06
-1.26726e-10
5.00022e-06
-7.56837e-11
5.00028e-06
-1.10292e-10
5.00037e-06
-2.06827e-10
5.00051e-06
-3.89498e-10
5.00071e-06
-5.5086e-10
5.00095e-06
-7.76258e-10
5.00123e-06
-8.83924e-10
5.00154e-06
-1.15908e-09
5.0019e-06
-1.20278e-09
-1.73696e-09
4.99991e-06
-5.3642e-11
4.99986e-06
-2.08348e-10
4.99986e-06
-3.81435e-10
4.99991e-06
-5.41495e-10
5e-06
-6.36519e-10
5.00009e-06
-6.42662e-10
5.00018e-06
-5.62996e-10
5.00025e-06
-4.31342e-10
5.00028e-06
-2.8692e-10
5.00029e-06
-1.63416e-10
5.00029e-06
-9.10819e-11
5.0003e-06
-1.43696e-10
5.00036e-06
-2.82012e-10
5.00047e-06
-5.20365e-10
5.00063e-06
-7.25027e-10
5.00083e-06
-9.89221e-10
5.00106e-06
-1.12198e-09
5.00132e-06
-1.42698e-09
5.0016e-06
-1.47922e-09
-1.96195e-09
4.99992e-06
-5.73631e-11
4.99988e-06
-2.37177e-10
4.99987e-06
-4.44642e-10
4.9999e-06
-6.31931e-10
4.99995e-06
-7.42689e-10
5e-06
-7.45707e-10
5.00006e-06
-6.57591e-10
5.00011e-06
-5.22632e-10
5.00015e-06
-3.53212e-10
5.00017e-06
-2.1482e-10
5.0002e-06
-1.53146e-10
5.00024e-06
-2.24544e-10
5.00031e-06
-3.90085e-10
5.00041e-06
-6.55045e-10
5.00056e-06
-8.92641e-10
5.00073e-06
-1.17752e-09
5.00093e-06
-1.33466e-09
5.00114e-06
-1.64149e-09
5.00137e-06
-1.71009e-09
-2.22712e-09
4.99993e-06
-5.34211e-11
4.99988e-06
-2.52466e-10
4.99988e-06
-4.94939e-10
4.99991e-06
-7.11015e-10
4.99997e-06
-8.39053e-10
5.00005e-06
-8.5074e-10
5.00012e-06
-7.65993e-10
5.00017e-06
-6.05101e-10
5.0002e-06
-4.18859e-10
5.0002e-06
-2.62958e-10
5.00019e-06
-1.92389e-10
5.0002e-06
-2.78213e-10
5.00025e-06
-4.74513e-10
5.00033e-06
-7.73291e-10
5.00045e-06
-1.03575e-09
5.00059e-06
-1.33767e-09
5.00075e-06
-1.50551e-09
5.00092e-06
-1.82136e-09
5.0011e-06
-1.8953e-09
-2.37582e-09
4.99994e-06
-4.69702e-11
4.9999e-06
-2.61965e-10
4.99991e-06
-5.30587e-10
4.99994e-06
-7.70758e-10
4.99998e-06
-9.08968e-10
5.00003e-06
-9.23026e-10
5.00008e-06
-8.29125e-10
5.00011e-06
-6.73075e-10
5.00013e-06
-4.73164e-10
5.00014e-06
-3.06101e-10
5.00014e-06
-2.38801e-10
5.00016e-06
-3.37583e-10
5.0002e-06
-5.53683e-10
5.00027e-06
-8.72057e-10
5.00036e-06
-1.1525e-09
5.00047e-06
-1.4639e-09
5.00059e-06
-1.64124e-09
5.00072e-06
-1.9555e-09
5.00085e-06
-2.0321e-09
-2.51789e-09
4.99996e-06
-3.91258e-11
4.99993e-06
-2.65407e-10
4.99993e-06
-5.53878e-10
4.99995e-06
-8.07953e-10
4.99999e-06
-9.55126e-10
5.00003e-06
-9.74725e-10
5.00006e-06
-8.90868e-10
5.00009e-06
-7.27521e-10
5.00011e-06
-5.18609e-10
5.00011e-06
-3.42778e-10
5.0001e-06
-2.73027e-10
5.00011e-06
-3.80707e-10
5.00014e-06
-6.11618e-10
5.00019e-06
-9.44568e-10
5.00025e-06
-1.23737e-09
5.00033e-06
-1.55575e-09
5.00042e-06
-1.73804e-09
5.00051e-06
-2.05229e-09
5.00061e-06
-2.13102e-09
-2.60498e-09
4.99997e-06
-3.42648e-11
4.99995e-06
-2.6494e-10
4.99996e-06
-5.6458e-10
4.99997e-06
-8.2912e-10
4.99999e-06
-9.81474e-10
5.00002e-06
-1.00746e-09
5.00004e-06
-9.24386e-10
5.00006e-06
-7.6111e-10
5.00006e-06
-5.48403e-10
5.00006e-06
-3.66117e-10
5.00006e-06
-2.95493e-10
5.00007e-06
-4.08142e-10
5.00008e-06
-6.47703e-10
5.00011e-06
-9.89055e-10
5.00015e-06
-1.28911e-09
5.0002e-06
-1.61134e-09
5.00025e-06
-1.79647e-09
5.00031e-06
-2.11001e-09
5.00036e-06
-2.18935e-09
-2.65977e-09
4.99999e-06
-3.33567e-11
4.99998e-06
-2.6423e-10
4.99999e-06
-5.67008e-10
4.99999e-06
-8.35743e-10
5e-06
-9.89773e-10
5.00001e-06
-1.01801e-09
5.00001e-06
-9.33942e-10
5.00002e-06
-7.72045e-10
5.00002e-06
-5.57385e-10
5.00002e-06
-3.73516e-10
5.00002e-06
-3.02811e-10
5.00002e-06
-4.17225e-10
5.00003e-06
-6.59485e-10
5.00004e-06
-1.00351e-09
5.00005e-06
-1.30606e-09
5.00007e-06
-1.62971e-09
5.00008e-06
-1.81588e-09
5.0001e-06
-2.12933e-09
5.00012e-06
-2.209e-09
-2.67741e-09
5.00001e-06
-3.42365e-11
5.00002e-06
-2.64893e-10
5.00001e-06
-5.64552e-10
5.00001e-06
-8.2913e-10
5e-06
-9.81493e-10
4.99999e-06
-1.00746e-09
4.99999e-06
-9.24383e-10
4.99998e-06
-7.61103e-10
4.99998e-06
-5.48402e-10
4.99998e-06
-3.66122e-10
4.99998e-06
-2.95495e-10
4.99998e-06
-4.0813e-10
4.99997e-06
-6.47683e-10
4.99996e-06
-9.89022e-10
4.99995e-06
-1.28907e-09
4.99993e-06
-1.61128e-09
4.99992e-06
-1.79641e-09
4.9999e-06
-2.10992e-09
4.99988e-06
-2.18926e-09
-2.65963e-09
5.00003e-06
-3.90737e-11
5.00005e-06
-2.65317e-10
5.00004e-06
-5.53836e-10
5.00003e-06
-8.07965e-10
5.00001e-06
-9.55148e-10
4.99998e-06
-9.74726e-10
4.99996e-06
-8.90832e-10
4.99994e-06
-7.27487e-10
4.99994e-06
-5.18591e-10
4.99994e-06
-3.4277e-10
4.99994e-06
-2.73017e-10
4.99993e-06
-3.80678e-10
4.99992e-06
-6.11574e-10
4.99989e-06
-9.44499e-10
4.99985e-06
-1.23729e-09
4.9998e-06
-1.55564e-09
4.99975e-06
-1.73794e-09
4.99969e-06
-2.05212e-09
4.99964e-06
-2.13085e-09
-2.60472e-09
5.00004e-06
-4.69016e-11
5.00007e-06
-2.61838e-10
5.00007e-06
-5.30519e-10
5.00005e-06
-7.70763e-10
5.00001e-06
-9.08993e-10
4.99997e-06
-9.23025e-10
4.99994e-06
-8.29085e-10
4.99991e-06
-6.73027e-10
4.99989e-06
-4.73151e-10
4.99989e-06
-3.06089e-10
4.9999e-06
-2.38789e-10
4.99989e-06
-3.37545e-10
4.99986e-06
-5.53624e-10
4.99981e-06
-8.71962e-10
4.99974e-06
-1.15241e-09
4.99967e-06
-1.46375e-09
4.99958e-06
-1.6411e-09
4.99949e-06
-1.95526e-09
4.99939e-06
-2.03188e-09
-2.51749e-09
5.00006e-06
-5.33297e-11
5.0001e-06
-2.52316e-10
5.00009e-06
-4.94854e-10
5.00006e-06
-7.11016e-10
5.00002e-06
-8.39079e-10
4.99997e-06
-8.50726e-10
4.99992e-06
-7.65939e-10
4.99989e-06
-6.05045e-10
4.99987e-06
-4.18831e-10
4.99986e-06
-2.62951e-10
4.99986e-06
-1.9238e-10
4.99984e-06
-2.78163e-10
4.9998e-06
-4.7444e-10
4.99973e-06
-7.73173e-10
4.99964e-06
-1.03563e-09
4.99953e-06
-1.3375e-09
4.99941e-06
-1.50535e-09
4.99928e-06
-1.82106e-09
4.99915e-06
-1.89503e-09
-2.37536e-09
5.00007e-06
-5.72526e-11
5.00012e-06
-2.37005e-10
5.00012e-06
-4.44552e-10
5.00009e-06
-6.31933e-10
5.00003e-06
-7.42721e-10
4.99995e-06
-7.45703e-10
4.99988e-06
-6.57547e-10
4.99983e-06
-5.22585e-10
4.9998e-06
-3.53204e-10
4.9998e-06
-2.14833e-10
4.99981e-06
-1.5316e-10
4.9998e-06
-2.24511e-10
4.99975e-06
-3.90028e-10
4.99967e-06
-6.5493e-10
4.99955e-06
-8.92531e-10
4.99941e-06
-1.17732e-09
4.99925e-06
-1.3345e-09
4.99908e-06
-1.64116e-09
4.9989e-06
-1.7098e-09
-2.22655e-09
5.00008e-06
-5.35299e-11
5.00012e-06
-2.08167e-10
5.00013e-06
-3.81334e-10
5.0001e-06
-5.41488e-10
5.00005e-06
-6.36532e-10
5e-06
-6.42643e-10
4.99994e-06
-5.62951e-10
4.99988e-06
-4.31298e-10
4.99985e-06
-2.86906e-10
4.99983e-06
-1.63426e-10
4.9998e-06
-9.11008e-11
4.99976e-06
-1.43659e-10
4.99969e-06
-2.81953e-10
4.99959e-06
-5.20238e-10
4.99944e-06
-7.24914e-10
4.99927e-06
-9.89018e-10
4.99907e-06
-1.12182e-09
4.99886e-06
-1.42664e-09
4.99863e-06
-1.47893e-09
-1.96137e-09
5.00009e-06
-4.72753e-11
5.00014e-06
-1.66221e-10
5.00014e-06
-2.94293e-10
5.00009e-06
-4.12233e-10
5e-06
-4.84881e-10
4.99991e-06
-4.86532e-10
4.99982e-06
-4.26373e-10
4.99975e-06
-3.32698e-10
4.99972e-06
-2.20676e-10
4.99971e-06
-1.26761e-10
4.99971e-06
-7.57264e-11
4.9997e-06
-1.10295e-10
4.99964e-06
-2.06824e-10
4.99953e-06
-3.89426e-10
4.99937e-06
-5.50817e-10
4.99917e-06
-7.76101e-10
4.99894e-06
-8.83833e-10
4.99868e-06
-1.15877e-09
4.9984e-06
-1.20257e-09
-1.73642e-09
5.0001e-06
-4.16294e-11
5.00016e-06
-1.23116e-10
5.00018e-06
-2.09814e-10
5.00016e-06
-2.96274e-10
5.00011e-06
-3.52079e-10
5.00004e-06
-3.48782e-10
4.99997e-06
-2.98884e-10
4.9999e-06
-2.2334e-10
4.99986e-06
-1.37885e-10
4.99983e-06
-6.55442e-11
4.99978e-06
-1.13607e-11
4.99972e-06
-3.62185e-11
4.99963e-06
-1.02731e-10
4.99948e-06
-2.46305e-10
4.99929e-06
-3.54836e-10
4.99905e-06
-5.36491e-10
4.99877e-06
-5.96207e-10
4.99846e-06
-8.44734e-10
4.9981e-06
-8.40079e-10
-1.29713e-09
5.00008e-06
-1.35388e-11
5.00013e-06
-5.99407e-11
5.00014e-06
-1.04932e-10
5.00009e-06
-1.44021e-10
5e-06
-1.66995e-10
4.99989e-06
-1.6728e-10
4.9998e-06
-1.46727e-10
4.99973e-06
-1.17266e-10
4.99969e-06
-7.8456e-11
4.99967e-06
-4.47774e-11
4.99967e-06
-1.65242e-11
4.99963e-06
-2.90121e-11
4.99956e-06
-5.57773e-11
4.99942e-06
-1.28609e-10
4.99923e-06
-1.81e-10
4.99897e-06
-2.88981e-10
4.99868e-06
-3.08612e-10
4.99832e-06
-4.79212e-10
4.99795e-06
-4.62036e-10
-9.12654e-10
5.0001e-06
5.00016e-06
5.00018e-06
5.00015e-06
5.00008e-06
5e-06
4.99993e-06
4.99986e-06
4.99981e-06
4.99977e-06
4.99974e-06
4.99968e-06
4.99959e-06
4.99943e-06
4.99922e-06
4.99892e-06
4.9986e-06
4.99812e-06
4.99767e-06
)
;

boundaryField
{
    sides
    {
        type            calculated;
        value           uniform 0;
    }
    inlet
    {
        type            calculated;
        value           nonuniform List<scalar> 
20
(
-5e-06
-5e-06
-5e-06
-5e-06
-5e-06
-5e-06
-5e-06
-5e-06
-5e-06
-5e-06
-5e-06
-5e-06
-5e-06
-5e-06
-5e-06
-5e-06
-5e-06
-5e-06
-5e-06
-5e-06
)
;
    }
    outlet
    {
        type            calculated;
        value           nonuniform List<scalar> 
20
(
5.00324e-06
5.00243e-06
5.00233e-06
5.00182e-06
5.00163e-06
5.00125e-06
5.00099e-06
5.00069e-06
5.00042e-06
5.00014e-06
4.99986e-06
4.99958e-06
4.99931e-06
4.999e-06
4.99875e-06
4.99837e-06
4.99818e-06
4.99767e-06
4.99757e-06
4.99676e-06
)
;
    }
    frontAndBack
    {
        type            empty;
        value           nonuniform 0();
    }
}


// ************************************************************************* //
