/*--------------------------------*- C++ -*----------------------------------*\
  =========                 |
  \\      /  F ield         | OpenFOAM: The Open Source CFD Toolbox
   \\    /   O peration     | Website:  https://openfoam.org
    \\  /    A nd           | Version:  7
     \\/     M anipulation  |
\*---------------------------------------------------------------------------*/
FoamFile
{
    version     2.0;
    format      ascii;
    class       surfaceScalarField;
    location    "8";
    object      phi_0;
}
// * * * * * * * * * * * * * * * * * * * * * * * * * * * * * * * * * * * * * //

dimensions      [0 4 -1 0 0 0 0];

internalField   nonuniform List<scalar> 
760
(
4.9999e-06
-1.56489e-11
4.99985e-06
-6.45946e-11
4.99984e-06
-1.11946e-10
4.99987e-06
-1.50992e-10
4.99993e-06
-1.71866e-10
5.00001e-06
-1.71889e-10
5.00008e-06
-1.51276e-10
5.00014e-06
-1.22022e-10
5.00018e-06
-8.56127e-11
5.00021e-06
-5.35362e-11
5.00023e-06
-2.98119e-11
5.00028e-06
-4.00631e-11
5.00038e-06
-6.80708e-11
5.00055e-06
-1.39223e-10
5.00077e-06
-1.86606e-10
5.00109e-06
-2.89207e-10
5.00141e-06
-3.04749e-10
5.00189e-06
-4.73507e-10
5.00234e-06
-4.56744e-10
-9.08547e-10
4.99992e-06
-4.72765e-11
4.99988e-06
-1.33913e-10
4.99988e-06
-2.24978e-10
4.99993e-06
-3.12629e-10
5.00002e-06
-3.6265e-10
5.00012e-06
-3.56693e-10
5.0002e-06
-3.01914e-10
5.00026e-06
-2.25519e-10
5.00029e-06
-1.42942e-10
5.0003e-06
-7.55345e-11
5.0003e-06
-2.73613e-11
5.00034e-06
-5.68094e-11
5.00042e-06
-1.22684e-10
5.00057e-06
-2.6221e-10
5.00077e-06
-3.63328e-10
5.00103e-06
-5.3658e-10
5.00132e-06
-5.90111e-10
5.00169e-06
-8.35647e-10
5.00206e-06
-8.31598e-10
-1.29082e-09
4.9999e-06
-5.46385e-11
4.99985e-06
-1.82544e-10
4.99983e-06
-3.15011e-10
4.99986e-06
-4.3277e-10
4.9999e-06
-5.01048e-10
4.99996e-06
-4.9282e-10
5.00003e-06
-4.30135e-10
5.00009e-06
-3.35322e-10
5.00012e-06
-2.23366e-10
5.00015e-06
-1.33342e-10
5.00019e-06
-8.79818e-11
5.00025e-06
-1.3098e-10
5.00035e-06
-2.32044e-10
5.0005e-06
-4.12332e-10
5.0007e-06
-5.65081e-10
5.00095e-06
-7.7986e-10
5.00123e-06
-8.7878e-10
5.00154e-06
-1.14869e-09
5.0019e-06
-1.1919e-09
-1.72701e-09
4.99991e-06
-6.31696e-11
4.99987e-06
-2.30141e-10
4.99987e-06
-4.10382e-10
4.99992e-06
-5.68584e-10
5.00001e-06
-6.53943e-10
5.0001e-06
-6.51575e-10
5.00018e-06
-5.59336e-10
5.00023e-06
-4.2749e-10
5.00026e-06
-2.80779e-10
5.00026e-06
-1.60372e-10
5.00026e-06
-1.01788e-10
5.00028e-06
-1.67955e-10
5.00034e-06
-3.13594e-10
5.00046e-06
-5.4993e-10
5.00062e-06
-7.4506e-10
5.00083e-06
-9.96977e-10
5.00106e-06
-1.11929e-09
5.00132e-06
-1.41725e-09
5.00159e-06
-1.46786e-09
-1.95078e-09
4.99992e-06
-6.86201e-11
4.99988e-06
-2.65357e-10
4.99987e-06
-4.80812e-10
4.9999e-06
-6.62241e-10
4.99995e-06
-7.61557e-10
5.00001e-06
-7.48542e-10
5.00005e-06
-6.56383e-10
5.00011e-06
-5.08078e-10
5.00014e-06
-3.3806e-10
5.00016e-06
-2.07678e-10
5.00018e-06
-1.60299e-10
5.00022e-06
-2.47481e-10
5.0003e-06
-4.23088e-10
5.00041e-06
-6.88724e-10
5.00055e-06
-9.17737e-10
5.00073e-06
-1.1898e-09
5.00093e-06
-1.33529e-09
5.00114e-06
-1.63367e-09
5.00136e-06
-1.69929e-09
-2.2143e-09
4.99993e-06
-6.72608e-11
4.99988e-06
-2.87299e-10
4.99988e-06
-5.36894e-10
4.99991e-06
-7.47668e-10
4.99998e-06
-8.5728e-10
5.00005e-06
-8.52848e-10
5.00012e-06
-7.48439e-10
5.00016e-06
-5.828e-10
5.00018e-06
-3.91945e-10
5.00018e-06
-2.42598e-10
5.00017e-06
-1.92041e-10
5.00019e-06
-3.00354e-10
5.00024e-06
-5.11232e-10
5.00032e-06
-8.1166e-10
5.00044e-06
-1.06491e-09
5.00059e-06
-1.35317e-09
5.00075e-06
-1.50869e-09
5.00092e-06
-1.81528e-09
5.0011e-06
-1.88529e-09
-2.36273e-09
4.99994e-06
-6.32215e-11
4.9999e-06
-3.04539e-10
4.99991e-06
-5.80741e-10
4.99994e-06
-8.09019e-10
4.99998e-06
-9.26968e-10
5.00003e-06
-9.18092e-10
5.00007e-06
-8.08818e-10
5.0001e-06
-6.36518e-10
5.00012e-06
-4.32706e-10
5.00012e-06
-2.77316e-10
5.00013e-06
-2.34012e-10
5.00015e-06
-3.59403e-10
5.00019e-06
-5.92417e-10
5.00026e-06
-9.13042e-10
5.00036e-06
-1.18377e-09
5.00047e-06
-1.48097e-09
5.00059e-06
-1.64568e-09
5.00072e-06
-1.95032e-09
5.00085e-06
-2.02234e-09
-2.50357e-09
4.99995e-06
-5.89051e-11
4.99993e-06
-3.13929e-10
4.99993e-06
-6.09374e-10
4.99995e-06
-8.48929e-10
4.99998e-06
-9.69669e-10
5.00002e-06
-9.64477e-10
5.00006e-06
-8.60096e-10
5.00009e-06
-6.82343e-10
5.0001e-06
-4.70357e-10
5.0001e-06
-3.07617e-10
5.0001e-06
-2.65309e-10
5.0001e-06
-4.02196e-10
5.00013e-06
-6.51216e-10
5.00018e-06
-9.86554e-10
5.00025e-06
-1.26926e-09
5.00033e-06
-1.57308e-09
5.00042e-06
-1.74261e-09
5.00051e-06
-2.04678e-09
5.0006e-06
-2.12027e-09
-2.58974e-09
4.99997e-06
-5.70522e-11
4.99995e-06
-3.18659e-10
4.99995e-06
-6.23982e-10
4.99997e-06
-8.70911e-10
4.99999e-06
-9.94163e-10
5.00002e-06
-9.93182e-10
5.00004e-06
-8.86933e-10
5.00005e-06
-7.08014e-10
5.00006e-06
-4.92313e-10
5.00006e-06
-3.25574e-10
5.00006e-06
-2.85315e-10
5.00006e-06
-4.29189e-10
5.00008e-06
-6.87688e-10
5.00011e-06
-1.03166e-09
5.00015e-06
-1.32141e-09
5.0002e-06
-1.62868e-09
5.00025e-06
-1.80072e-09
5.0003e-06
-2.10369e-09
5.00036e-06
-2.17735e-09
-2.64345e-09
4.99999e-06
-5.69122e-11
4.99998e-06
-3.20482e-10
4.99998e-06
-6.28783e-10
4.99999e-06
-8.77625e-10
5e-06
-1.00242e-09
5.00001e-06
-1.00173e-09
5.00001e-06
-8.95506e-10
5.00002e-06
-7.15966e-10
5.00002e-06
-4.98271e-10
5.00002e-06
-3.31371e-10
5.00002e-06
-2.92354e-10
5.00002e-06
-4.38533e-10
5.00003e-06
-6.99836e-10
5.00004e-06
-1.04644e-09
5.00005e-06
-1.33849e-09
5.00007e-06
-1.64696e-09
5.00008e-06
-1.81988e-09
5.0001e-06
-2.12255e-09
5.00012e-06
-2.19644e-09
-2.66073e-09
5.00001e-06
-5.70221e-11
5.00002e-06
-3.18619e-10
5.00002e-06
-6.23965e-10
5.00001e-06
-8.70921e-10
5e-06
-9.94186e-10
4.99999e-06
-9.9318e-10
4.99999e-06
-8.86933e-10
4.99998e-06
-7.08014e-10
4.99998e-06
-4.92323e-10
4.99998e-06
-3.25584e-10
4.99998e-06
-2.85316e-10
4.99998e-06
-4.29176e-10
4.99997e-06
-6.87667e-10
4.99996e-06
-1.03163e-09
4.99995e-06
-1.32137e-09
4.99993e-06
-1.62862e-09
4.99992e-06
-1.80066e-09
4.9999e-06
-2.1036e-09
4.99988e-06
-2.17727e-09
-2.64332e-09
5.00003e-06
-5.88521e-11
5.00005e-06
-3.13849e-10
5.00005e-06
-6.09348e-10
5.00003e-06
-8.48959e-10
5.00001e-06
-9.69702e-10
4.99998e-06
-9.64482e-10
4.99996e-06
-8.60079e-10
4.99995e-06
-6.82319e-10
4.99994e-06
-4.70354e-10
4.99994e-06
-3.07621e-10
4.99994e-06
-2.65305e-10
4.99994e-06
-4.02166e-10
4.99992e-06
-6.5117e-10
4.99989e-06
-9.86483e-10
4.99985e-06
-1.26919e-09
4.9998e-06
-1.57298e-09
4.99975e-06
-1.7425e-09
4.9997e-06
-2.04661e-09
4.99964e-06
-2.12011e-09
-2.58949e-09
5.00005e-06
-6.31492e-11
5.00007e-06
-3.04431e-10
5.00007e-06
-5.80707e-10
5.00005e-06
-8.09053e-10
5.00002e-06
-9.27003e-10
4.99998e-06
-9.18099e-10
4.99994e-06
-8.0878e-10
4.99991e-06
-6.36489e-10
4.9999e-06
-4.32698e-10
4.9999e-06
-2.77309e-10
4.9999e-06
-2.34004e-10
4.9999e-06
-3.59364e-10
4.99987e-06
-5.92357e-10
4.99982e-06
-9.12945e-10
4.99975e-06
-1.18367e-09
4.99967e-06
-1.48082e-09
4.99958e-06
-1.64553e-09
4.99949e-06
-1.95008e-09
4.9994e-06
-2.02213e-09
-2.50317e-09
5.00006e-06
-6.71657e-11
5.0001e-06
-2.87171e-10
5.00009e-06
-5.36851e-10
5.00006e-06
-7.47702e-10
5.00002e-06
-8.57319e-10
4.99997e-06
-8.5284e-10
4.99993e-06
-7.48401e-10
4.9999e-06
-5.82757e-10
4.99988e-06
-3.91939e-10
4.99988e-06
-2.42602e-10
4.99987e-06
-1.92032e-10
4.99985e-06
-3.00299e-10
4.99981e-06
-5.11152e-10
4.99974e-06
-8.11537e-10
4.99964e-06
-1.06479e-09
4.99953e-06
-1.35299e-09
4.99941e-06
-1.50853e-09
4.99928e-06
-1.81499e-09
4.99915e-06
-1.88503e-09
-2.36228e-09
5.00007e-06
-6.85097e-11
5.00012e-06
-2.65216e-10
5.00012e-06
-4.80763e-10
5.00009e-06
-6.62278e-10
5.00002e-06
-7.616e-10
4.99995e-06
-7.4854e-10
4.99988e-06
-6.56338e-10
4.99984e-06
-5.08046e-10
4.99982e-06
-3.38063e-10
4.99982e-06
-2.07694e-10
4.99983e-06
-1.60308e-10
4.99981e-06
-2.47441e-10
4.99976e-06
-4.23025e-10
4.99968e-06
-6.88603e-10
4.99956e-06
-9.1762e-10
4.99941e-06
-1.1896e-09
4.99925e-06
-1.33513e-09
4.99908e-06
-1.63333e-09
4.9989e-06
-1.69901e-09
-2.21373e-09
5.00008e-06
-6.30632e-11
5.00012e-06
-2.29992e-10
5.00013e-06
-4.10321e-10
5.0001e-06
-5.68604e-10
5.00005e-06
-6.53972e-10
4.99999e-06
-6.51552e-10
4.99995e-06
-5.59286e-10
4.99989e-06
-4.27448e-10
4.99986e-06
-2.80778e-10
4.99984e-06
-1.60389e-10
4.99982e-06
-1.01802e-10
4.99978e-06
-1.67911e-10
4.9997e-06
-3.13528e-10
4.99959e-06
-5.49799e-10
4.99945e-06
-7.44944e-10
4.99927e-06
-9.96772e-10
4.99907e-06
-1.11913e-09
4.99886e-06
-1.41691e-09
4.99864e-06
-1.46757e-09
-1.95021e-09
5.00009e-06
-5.45449e-11
5.00013e-06
-1.82425e-10
5.00013e-06
-3.14963e-10
5.00008e-06
-4.32792e-10
4.99999e-06
-5.01088e-10
4.9999e-06
-4.92825e-10
4.99982e-06
-4.30123e-10
4.99977e-06
-3.35306e-10
4.99974e-06
-2.23382e-10
4.99974e-06
-1.33375e-10
4.99974e-06
-8.80273e-11
4.99972e-06
-1.3098e-10
4.99966e-06
-2.32037e-10
4.99954e-06
-4.12257e-10
4.99938e-06
-5.65034e-10
4.99917e-06
-7.797e-10
4.99894e-06
-8.78684e-10
4.99868e-06
-1.14838e-09
4.99841e-06
-1.19169e-09
-1.72647e-09
5.0001e-06
-4.71951e-11
5.00015e-06
-1.33818e-10
5.00017e-06
-2.24945e-10
5.00014e-06
-3.12637e-10
5.0001e-06
-3.62649e-10
5.00004e-06
-3.56671e-10
4.99997e-06
-3.0187e-10
4.99991e-06
-2.25478e-10
4.99988e-06
-1.42935e-10
4.99985e-06
-7.55365e-11
4.99981e-06
-2.73991e-11
4.99975e-06
-5.67986e-11
4.99965e-06
-1.22678e-10
4.9995e-06
-2.62116e-10
4.9993e-06
-3.63278e-10
4.99905e-06
-5.36402e-10
4.99877e-06
-5.90034e-10
4.99846e-06
-8.35344e-10
4.9981e-06
-8.31424e-10
-1.29031e-09
5.00008e-06
-1.56071e-11
5.00012e-06
-6.45678e-11
5.00012e-06
-1.11957e-10
5.00007e-06
-1.51032e-10
4.99998e-06
-1.71908e-10
4.99988e-06
-1.71923e-10
4.9998e-06
-1.51294e-10
4.99974e-06
-1.22059e-10
4.99971e-06
-8.56712e-11
4.9997e-06
-5.3534e-11
4.9997e-06
-2.9864e-11
4.99966e-06
-4.01118e-11
4.99958e-06
-6.81465e-11
4.99943e-06
-1.39279e-10
4.99923e-06
-1.86695e-10
4.99897e-06
-2.89221e-10
4.99868e-06
-3.04795e-10
4.99832e-06
-4.7342e-10
4.99794e-06
-4.56711e-10
-9.08393e-10
5.0001e-06
5.00015e-06
5.00016e-06
5.00013e-06
5.00007e-06
4.99999e-06
4.99992e-06
4.99986e-06
4.99982e-06
4.99979e-06
4.99977e-06
4.99972e-06
4.99962e-06
4.99945e-06
4.99923e-06
4.99891e-06
4.99859e-06
4.99811e-06
4.99766e-06
)
;

boundaryField
{
    sides
    {
        type            calculated;
        value           uniform 0;
    }
    inlet
    {
        type            calculated;
        value           nonuniform List<scalar> 
20
(
-5e-06
-5e-06
-5e-06
-5e-06
-5e-06
-5e-06
-5e-06
-5e-06
-5e-06
-5e-06
-5e-06
-5e-06
-5e-06
-5e-06
-5e-06
-5e-06
-5e-06
-5e-06
-5e-06
-5e-06
)
;
    }
    outlet
    {
        type            calculated;
        value           nonuniform List<scalar> 
20
(
5.00325e-06
5.00244e-06
5.00234e-06
5.00182e-06
5.00162e-06
5.00124e-06
5.00099e-06
5.00069e-06
5.00041e-06
5.00014e-06
4.99986e-06
4.99959e-06
4.99931e-06
4.99901e-06
4.99875e-06
4.99838e-06
4.99818e-06
4.99766e-06
4.99756e-06
4.99675e-06
)
;
    }
    frontAndBack
    {
        type            empty;
        value           nonuniform 0();
    }
}


// ************************************************************************* //
