/*--------------------------------*- C++ -*----------------------------------*\
  =========                 |
  \\      /  F ield         | OpenFOAM: The Open Source CFD Toolbox
   \\    /   O peration     | Website:  https://openfoam.org
    \\  /    A nd           | Version:  7
     \\/     M anipulation  |
\*---------------------------------------------------------------------------*/
FoamFile
{
    version     2.0;
    format      ascii;
    class       volScalarField;
    location    "85";
    object      ddt0(h);
}
// * * * * * * * * * * * * * * * * * * * * * * * * * * * * * * * * * * * * * //

dimensions      [0 1 -1 0 0 0 0];

internalField   nonuniform List<scalar> 
400
(
7.19132e-10
-8.71181e-10
4.03251e-10
6.80579e-10
2.48859e-09
-5.56028e-09
-9.01808e-09
-1.28288e-08
6.3161e-10
1.32027e-09
2.73599e-10
1.99646e-11
-1.36596e-10
-9.69903e-12
3.30896e-10
3.70753e-10
6.04663e-11
-1.48388e-10
-1.60632e-10
-6.98996e-11
1.24715e-10
3.45348e-10
2.65719e-11
-2.57025e-10
-1.35974e-09
4.56628e-09
1.15532e-08
1.03183e-08
1.75818e-09
-1.36084e-10
-2.16241e-10
2.87676e-11
5.29961e-11
1.33862e-10
2.21953e-10
1.03831e-10
-7.93823e-11
-3.34707e-11
8.9485e-11
6.34186e-11
-1.13563e-10
1.07165e-09
-7.82823e-10
1.23943e-10
-1.99361e-09
4.0939e-09
-4.1315e-09
2.00041e-09
8.22844e-10
-1.36986e-09
-1.18769e-12
1.74584e-10
2.10104e-10
3.39048e-10
1.51983e-10
-1.79427e-10
-2.21239e-10
5.92427e-11
2.88384e-10
1.73874e-10
-3.181e-10
4.13034e-10
-7.51043e-11
2.87246e-10
-1.2092e-10
-2.47124e-10
4.83927e-10
4.21097e-09
-2.91099e-09
-5.59735e-10
5.94909e-10
2.20955e-10
2.36803e-10
3.09004e-10
-7.60592e-12
-3.27769e-10
-2.24498e-10
1.32575e-10
3.23577e-10
1.6566e-10
-3.5727e-10
-1.94762e-10
8.04073e-10
-1.44119e-10
1.99303e-09
-2.25165e-09
1.78842e-09
-2.27891e-09
-1.46329e-09
1.21938e-09
3.91836e-10
8.2738e-11
2.7256e-10
1.01092e-10
-1.53244e-10
-2.16757e-10
-8.39881e-11
8.9349e-11
1.69562e-10
8.20366e-11
7.77682e-11
-3.53716e-10
8.36611e-10
-2.42283e-10
1.22172e-09
-4.26153e-10
8.09979e-10
-1.4954e-09
1.23424e-09
1.09593e-09
-3.35113e-10
1.51984e-10
3.29414e-10
-1.72874e-10
-1.68728e-10
2.37119e-10
2.82558e-10
-2.98527e-11
-9.56463e-11
-4.28272e-12
4.35451e-10
-8.47549e-11
1.45248e-10
4.78974e-10
-6.11683e-10
5.61251e-10
-1.46905e-10
2.60972e-10
1.34092e-09
-3.44053e-10
-2.29079e-10
4.23996e-10
6.86233e-11
-3.77311e-10
-6.14985e-11
6.5571e-10
6.8566e-10
8.42909e-12
-2.84312e-10
-1.01595e-10
2.70702e-10
5.64004e-10
-5.57058e-10
4.59722e-10
-8.29454e-10
4.11177e-10
-6.17816e-10
8.43865e-10
9.89743e-11
-4.84992e-10
5.22376e-10
-3.9556e-11
-5.52848e-10
-2.11772e-10
1.1875e-10
4.69078e-10
6.09054e-10
2.00401e-10
-2.10647e-10
-1.53475e-10
-8.85406e-11
4.14495e-10
-1.11959e-10
-7.47738e-11
-2.05494e-10
6.38401e-11
-1.73658e-10
4.02236e-10
-3.34652e-10
-3.5097e-11
2.13203e-10
-4.86392e-10
-3.70834e-10
2.07909e-10
9.81886e-11
-2.20479e-10
-8.77796e-11
1.41703e-10
2.95643e-11
-6.00713e-11
-1.12818e-10
-3.18703e-10
2.99663e-10
-8.39644e-11
4.14117e-10
-5.26295e-11
4.34287e-10
-2.12133e-10
-9.45677e-11
1.20127e-10
-3.3994e-10
7.86495e-11
3.57443e-10
6.23096e-11
-2.29885e-10
-5.33346e-10
-5.39835e-10
-1.2175e-10
2.49857e-11
-2.9203e-11
-3.98667e-11
-5.1275e-10
3.58331e-10
-1.58264e-10
4.93447e-10
-1.65798e-10
5.53819e-10
-4.08077e-10
-4.38597e-11
1.6638e-10
-4.63595e-10
2.67699e-10
5.63348e-10
6.44836e-11
-1.7431e-10
-4.2105e-10
-5.25654e-10
-1.92929e-10
-5.19959e-11
-5.99801e-11
-2.48008e-11
6.81801e-11
3.71815e-11
-4.41741e-10
-1.96933e-11
-2.43381e-10
8.04842e-11
1.03199e-11
-3.84833e-10
1.64565e-10
-1.44685e-11
-3.19966e-10
2.42486e-11
4.55376e-10
3.24572e-10
-1.33535e-10
-1.96007e-10
1.37347e-11
-5.0883e-11
-9.27721e-11
9.22056e-11
5.38385e-10
-7.36574e-10
3.80647e-13
-7.0895e-10
1.48004e-10
-6.27077e-10
6.85352e-10
-4.34035e-10
-2.70012e-10
6.24961e-10
-2.53076e-10
-5.18614e-10
1.85162e-10
4.44325e-10
4.10308e-10
4.22653e-10
1.44808e-10
-2.34613e-10
-1.85484e-10
1.69912e-10
-7.63539e-11
-5.52723e-10
6.7517e-10
-1.0799e-09
7.19882e-10
-8.24919e-10
5.7693e-10
5.64867e-10
-8.52817e-10
6.68811e-11
2.39864e-10
-2.63954e-10
-3.09691e-10
6.892e-11
6.00572e-10
6.05658e-10
5.09204e-12
-2.84342e-10
-1.15207e-10
-1.70728e-10
-6.50799e-10
3.88265e-10
4.47157e-11
2.07951e-10
2.1306e-10
-1.72802e-10
-1.05195e-09
1.50937e-09
1.59885e-10
-6.77854e-10
-2.10058e-12
-3.13225e-11
-4.86255e-10
-3.25627e-10
2.2163e-10
2.92811e-10
-5.20556e-11
-6.36882e-11
3.98278e-11
-5.1369e-10
-6.53674e-10
8.32855e-10
-4.09165e-10
1.64307e-09
-2.33441e-09
1.32605e-09
-3.22945e-09
1.55894e-11
1.20442e-09
-2.21806e-10
-2.26212e-10
-4.66457e-11
-3.67733e-10
-5.11301e-10
-3.28836e-10
-9.63529e-11
7.28877e-11
2.0371e-10
1.22548e-10
-3.56833e-10
9.5448e-11
2.478e-10
-7.0422e-10
5.17594e-10
-2.63532e-09
2.6572e-09
-1.75437e-10
-3.32021e-09
5.07432e-10
4.32108e-10
-4.84718e-11
-6.28164e-12
-1.09147e-10
-4.34569e-10
-5.83526e-10
-3.12247e-10
1.27066e-10
3.18902e-10
1.54165e-10
-2.21657e-10
9.90376e-10
-3.56395e-10
-1.32213e-09
-1.63839e-09
1.63961e-09
2.23178e-11
7.81685e-09
-2.46913e-09
-1.13066e-09
5.07807e-10
3.04841e-10
1.40458e-10
8.2023e-11
-2.05654e-10
-4.75408e-10
-3.75241e-10
-9.80619e-13
2.31527e-10
1.34659e-10
-1.26194e-10
3.21087e-10
-3.05764e-10
-3.58569e-10
-2.68766e-09
-8.0492e-09
-4.52548e-09
5.55929e-09
3.1943e-09
-6.35612e-10
-5.52035e-11
8.01731e-12
-8.5004e-11
9.00564e-12
8.02441e-11
-4.54849e-11
-2.09602e-10
-1.42919e-10
1.14886e-11
3.38212e-11
5.53465e-10
-1.10622e-09
-9.02507e-10
1.4441e-09
2.27483e-09
9.5476e-09
5.27329e-10
-1.10066e-08
2.8373e-10
-1.40121e-10
-1.0736e-09
-6.26255e-10
-2.43438e-10
9.60265e-11
4.33681e-10
3.97875e-10
-5.74845e-12
-2.71763e-10
-2.53598e-10
-9.77621e-11
)
;

boundaryField
{
    sides
    {
        type            calculated;
        value           nonuniform List<scalar> 
40
(
5.53465e-10
-1.10622e-09
-9.02507e-10
1.4441e-09
2.27483e-09
9.5476e-09
5.27329e-10
-1.10066e-08
2.8373e-10
-1.40121e-10
-1.0736e-09
-6.26255e-10
-2.43438e-10
9.60265e-11
4.33681e-10
3.97875e-10
-5.74845e-12
-2.71763e-10
-2.53598e-10
-9.77621e-11
7.19132e-10
-8.71181e-10
4.03251e-10
6.80579e-10
2.48859e-09
-5.56028e-09
-9.01808e-09
-1.28288e-08
6.3161e-10
1.32027e-09
2.73599e-10
1.99646e-11
-1.36596e-10
-9.69903e-12
3.30896e-10
3.70753e-10
6.04663e-11
-1.48388e-10
-1.60632e-10
-6.98996e-11
)
;
    }
    inlet
    {
        type            calculated;
        value           nonuniform List<scalar> 
20
(
7.19132e-10
1.24715e-10
-1.13563e-10
-3.181e-10
-3.5727e-10
7.77682e-11
4.35451e-10
2.70702e-10
-8.85406e-11
-1.12818e-10
-3.98667e-11
-2.48008e-11
9.22056e-11
1.69912e-10
-1.70728e-10
-5.1369e-10
-3.56833e-10
-2.21657e-10
-1.26194e-10
5.53465e-10
)
;
    }
    outlet
    {
        type            calculated;
        value           uniform 0;
    }
    frontAndBack
    {
        type            empty;
    }
}


// ************************************************************************* //
