/*--------------------------------*- C++ -*----------------------------------*\
  =========                 |
  \\      /  F ield         | OpenFOAM: The Open Source CFD Toolbox
   \\    /   O peration     | Website:  https://openfoam.org
    \\  /    A nd           | Version:  7
     \\/     M anipulation  |
\*---------------------------------------------------------------------------*/
FoamFile
{
    version     2.0;
    format      ascii;
    class       volVectorField;
    location    "85";
    object      ddtCorrDdt0(hU);
}
// * * * * * * * * * * * * * * * * * * * * * * * * * * * * * * * * * * * * * //

dimensions      [0 2 -2 0 0 0 0];

internalField   nonuniform List<vector> 
400
(
(1.66652e-10 1.41279e-10 0)
(2.07531e-10 7.89227e-14 0)
(5.46184e-11 -2.04212e-10 0)
(-1.88495e-10 -8.37036e-11 0)
(-2.40134e-10 1.8462e-10 0)
(-5.52911e-10 4.04619e-10 0)
(-1.2656e-09 3.24644e-10 0)
(-1.71123e-09 1.43018e-09 0)
(8.31339e-10 4.3605e-10 0)
(5.39536e-10 1.83059e-10 0)
(9.73708e-11 -5.03052e-12 0)
(-5.30202e-11 -1.1633e-11 0)
(-9.72235e-11 1.39343e-11 0)
(-6.77933e-11 3.18117e-11 0)
(2.88401e-11 2.12497e-11 0)
(6.56324e-11 -1.94396e-11 0)
(9.53323e-12 -5.27024e-11 0)
(-6.33988e-11 -6.38227e-11 0)
(-4.1244e-11 -6.43689e-11 0)
(2.21348e-11 -1.80533e-11 0)
(-1.56139e-11 2.91848e-10 0)
(4.14945e-12 5.82725e-11 0)
(-4.73144e-11 -3.25591e-10 0)
(1.22244e-10 -6.90132e-11 0)
(-1.36496e-10 -6.91146e-11 0)
(5.9772e-10 6.97103e-10 0)
(1.81932e-09 -2.57806e-10 0)
(7.60455e-10 5.97063e-10 0)
(-3.80673e-10 6.61323e-10 0)
(-7.04623e-11 8.44649e-11 0)
(-1.56124e-10 -9.43376e-11 0)
(-3.11713e-11 -5.89181e-11 0)
(-2.03289e-11 -1.42234e-11 0)
(-2.25811e-11 4.18239e-11 0)
(-4.84365e-12 5.61321e-11 0)
(-7.91917e-12 4.58187e-12 0)
(-3.75757e-11 -6.03574e-11 0)
(-6.14226e-11 -8.88e-11 0)
(-1.88258e-13 -9.36094e-11 0)
(8.06079e-11 -4.36384e-11 0)
(-1.15478e-10 6.87942e-11 0)
(-2.15267e-10 5.83308e-11 0)
(-1.8828e-10 -8.06465e-11 0)
(2.27652e-11 3.44754e-12 0)
(6.46723e-11 -3.87602e-10 0)
(2.60579e-10 1.88203e-10 0)
(-9.04955e-10 -6.32851e-10 0)
(7.37899e-10 -4.53356e-10 0)
(3.2917e-10 5.26813e-11 0)
(-5.1062e-10 -2.60739e-10 0)
(-7.89293e-11 -7.0434e-11 0)
(3.55284e-11 2.15802e-12 0)
(2.96146e-11 2.19859e-11 0)
(3.44959e-11 4.67322e-11 0)
(-2.34026e-11 4.68001e-11 0)
(-9.6222e-11 -2.01668e-11 0)
(-1.00016e-10 -1.01194e-10 0)
(-6.06909e-11 -1.18641e-10 0)
(6.21193e-11 -1.06657e-10 0)
(1.61416e-10 -3.09116e-11 0)
(-5.48546e-11 -1.62575e-10 0)
(-1.16908e-10 -1.51819e-11 0)
(-8.47588e-11 1.08458e-10 0)
(-8.89106e-11 2.57569e-11 0)
(1.84402e-10 4.58348e-12 0)
(-8.57415e-11 -3.13619e-10 0)
(1.56625e-11 1.28051e-10 0)
(8.12962e-10 3.00269e-10 0)
(-6.61746e-10 -5.19168e-10 0)
(-2.83872e-10 -1.6591e-10 0)
(1.67851e-10 5.7848e-11 0)
(6.57486e-11 3.95464e-11 0)
(4.8262e-11 5.32505e-11 0)
(4.79984e-11 4.67279e-11 0)
(-4.8832e-11 1.5721e-11 0)
(-1.44043e-10 -4.24263e-11 0)
(-1.15693e-10 -9.69853e-11 0)
(-2.3484e-11 -7.06222e-11 0)
(8.0684e-11 -3.02428e-11 0)
(1.36886e-10 1.21632e-11 0)
(-9.23202e-12 -1.04772e-10 0)
(-3.23618e-11 -4.52255e-11 0)
(5.08925e-11 1.05734e-10 0)
(-5.43124e-11 -1.98933e-11 0)
(1.69915e-10 2.03889e-10 0)
(-2.4829e-10 -3.89201e-10 0)
(3.06526e-10 1.81302e-10 0)
(-3.65157e-10 -3.5961e-10 0)
(-4.5234e-10 -3.59441e-10 0)
(2.84198e-10 1.42772e-10 0)
(1.24752e-10 1.02445e-10 0)
(-3.4428e-12 3.8738e-11 0)
(5.65682e-11 7.07095e-11 0)
(1.93741e-11 3.77259e-11 0)
(-7.18093e-11 -1.81774e-11 0)
(-1.24945e-10 -4.93611e-11 0)
(-5.84452e-11 -5.3224e-11 0)
(5.24686e-11 6.5361e-12 0)
(8.4223e-11 4.32678e-11 0)
(2.39483e-11 4.3511e-11 0)
(2.30856e-11 -1.89057e-11 0)
(1.57768e-11 -4.77968e-11 0)
(6.45384e-11 5.95715e-11 0)
(-2.92466e-12 -6.96172e-11 0)
(4.80812e-12 3.05572e-11 0)
(-1.28811e-10 -1.60215e-10 0)
(1.0772e-10 -2.26991e-11 0)
(-3.46493e-10 -3.46639e-10 0)
(2.13242e-10 1.25284e-10 0)
(3.103e-10 1.53695e-10 0)
(-7.965e-11 1.80925e-11 0)
(-4.18179e-12 7.73255e-11 0)
(5.65904e-11 8.59851e-11 0)
(-6.19203e-11 8.203e-12 0)
(-9.85597e-11 -5.00581e-11 0)
(-4.53644e-11 -7.09324e-11 0)
(5.00184e-11 -4.68613e-11 0)
(1.13156e-10 9.27928e-12 0)
(5.36284e-11 -7.45202e-12 0)
(-1.04634e-10 1.56163e-11 0)
(3.01683e-11 3.33914e-11 0)
(5.55953e-11 8.19258e-12 0)
(3.12694e-11 -3.81619e-11 0)
(4.62433e-11 -1.02656e-11 0)
(-1.18683e-10 -1.67877e-10 0)
(-3.8995e-12 6.84098e-12 0)
(-8.04657e-11 -1.26528e-10 0)
(-3.26509e-11 -6.34719e-11 0)
(2.71979e-10 1.65681e-10 0)
(-6.06253e-11 -6.2124e-11 0)
(-7.92252e-11 -7.8223e-13 0)
(7.26393e-11 1.23826e-10 0)
(-1.44248e-11 3.6472e-11 0)
(-1.02995e-10 -3.16703e-11 0)
(-4.38444e-11 -2.33311e-11 0)
(8.63728e-11 -3.73976e-11 0)
(1.76893e-10 -5.06941e-11 0)
(1.43622e-10 -5.95151e-11 0)
(-2.64374e-11 -1.42763e-10 0)
(-2.0741e-10 -6.93967e-11 0)
(1.3231e-11 4.17153e-11 0)
(4.71509e-11 6.771e-11 0)
(-3.47865e-11 -9.65743e-11 0)
(1.21415e-11 -5.44179e-11 0)
(-1.29566e-10 -2.17889e-10 0)
(3.57629e-11 -7.218e-11 0)
(-1.21273e-10 -1.76086e-10 0)
(1.33931e-10 8.66172e-12 0)
(3.90296e-11 -2.96206e-11 0)
(-1.03937e-10 -7.29255e-11 0)
(1.30185e-10 8.7137e-11 0)
(-1.91818e-11 9.81091e-11 0)
(-1.82814e-10 3.19658e-11 0)
(-7.20392e-11 3.3727e-11 0)
(1.90727e-11 5.9971e-11 0)
(7.33105e-11 1.37296e-11 0)
(1.47055e-10 -8.79176e-11 0)
(1.14428e-10 -2.14604e-10 0)
(-2.38684e-11 -3.47803e-10 0)
(-1.29722e-10 -1.59383e-10 0)
(1.61886e-11 4.0297e-11 0)
(1.26105e-11 1.86877e-11 0)
(-5.91937e-11 -2.12526e-11 0)
(-5.06106e-11 -1.1965e-10 0)
(-3.64017e-11 -1.08443e-10 0)
(2.91587e-11 -1.34331e-10 0)
(-1.8986e-11 -1.20235e-10 0)
(8.4181e-11 -2.23948e-11 0)
(-5.73152e-11 -1.22231e-10 0)
(-1.74997e-12 2.76664e-11 0)
(7.10972e-11 3.13199e-11 0)
(-1.14977e-10 -1.92463e-11 0)
(-1.16483e-10 1.13869e-10 0)
(4.35097e-11 1.56347e-10 0)
(5.53573e-11 9.654e-11 0)
(-1.57541e-11 4.29118e-11 0)
(-3.53806e-11 -6.04734e-11 0)
(-3.03906e-11 -2.47454e-10 0)
(-3.60695e-12 -4.25849e-10 0)
(6.04706e-11 -2.02908e-10 0)
(-1.42589e-11 2.99517e-11 0)
(-4.71647e-11 -3.80556e-11 0)
(-2.24743e-11 1.51923e-11 0)
(-5.47581e-11 -8.52025e-11 0)
(5.11292e-11 -4.19977e-11 0)
(1.15539e-11 -1.18511e-10 0)
(8.39968e-11 -8.59407e-11 0)
(-2.46357e-11 -5.78913e-11 0)
(-1.78628e-11 -9.07137e-11 0)
(2.57545e-11 4.66061e-11 0)
(-7.7264e-11 3.82598e-13 0)
(3.03228e-11 -7.0291e-12 0)
(9.84457e-11 1.55105e-10 0)
(2.44588e-12 1.58701e-10 0)
(-2.33585e-11 5.47399e-11 0)
(-4.28132e-11 9.70433e-13 0)
(-1.60388e-10 -5.34045e-11 0)
(-2.10531e-10 -1.6028e-10 0)
(-2.60095e-11 -2.91582e-10 0)
(2.38842e-10 -1.30626e-10 0)
(-1.6828e-11 -2.89065e-11 0)
(-5.07206e-11 8.64462e-12 0)
(1.00459e-11 -3.56068e-11 0)
(-4.12432e-11 9.55392e-13 0)
(7.41843e-11 -5.69033e-11 0)
(-4.732e-12 -5.11788e-11 0)
(1.04007e-10 -9.31316e-11 0)
(-5.70188e-11 -6.44121e-11 0)
(-1.01999e-11 -1.42813e-11 0)
(2.25262e-11 -1.09217e-11 0)
(-1.28036e-10 6.56918e-11 0)
(7.11473e-11 9.1504e-11 0)
(1.58709e-10 4.97164e-11 0)
(-6.38374e-12 3.43265e-11 0)
(-2.21538e-11 3.27806e-11 0)
(-6.44162e-14 -3.52825e-11 0)
(-1.40236e-10 -9.30188e-11 0)
(-2.24955e-10 -5.25995e-11 0)
(-5.22608e-11 -4.8943e-11 0)
(2.18962e-10 5.35456e-12 0)
(2.93969e-11 -3.724e-11 0)
(2.14592e-11 -9.45469e-13 0)
(7.17367e-12 -4.51378e-11 0)
(-2.99686e-11 5.26563e-11 0)
(2.40814e-11 -6.59484e-11 0)
(-6.30505e-12 -3.32441e-11 0)
(2.18552e-11 -1.01304e-10 0)
(2.1149e-11 -1.12467e-10 0)
(-7.5979e-11 4.02854e-11 0)
(1.65595e-11 -5.52305e-11 0)
(-1.48905e-11 6.65086e-11 0)
(-6.71531e-11 1.61153e-10 0)
(1.75643e-11 3.09622e-11 0)
(9.02238e-11 -2.12467e-11 0)
(7.35461e-11 2.83314e-12 0)
(1.33118e-11 -7.80526e-11 0)
(-4.56011e-11 -1.24936e-10 0)
(-7.06847e-11 9.994e-12 0)
(-3.85159e-11 9.01815e-11 0)
(3.79809e-11 7.86389e-11 0)
(1.95973e-11 -8.56191e-12 0)
(7.51108e-11 -5.73576e-11 0)
(1.57552e-11 4.35783e-11 0)
(3.74373e-11 -2.7014e-11 0)
(-6.79348e-11 -1.64621e-11 0)
(2.97378e-11 -1.36446e-10 0)
(-1.07089e-10 -7.22689e-11 0)
(1.38017e-10 -2.00704e-10 0)
(-6.80559e-11 1.39326e-11 0)
(-9.14364e-11 3.65598e-11 0)
(1.27875e-10 1.45945e-11 0)
(-5.44321e-11 1.1348e-10 0)
(-1.25655e-10 1.25695e-10 0)
(4.11881e-11 5.50984e-11 0)
(9.28133e-11 -1.52333e-11 0)
(9.32412e-11 -1.0582e-10 0)
(1.37125e-10 -1.42372e-10 0)
(1.07481e-10 -4.37033e-11 0)
(-5.89712e-11 1.24976e-11 0)
(-1.87126e-10 4.34159e-11 0)
(7.25188e-12 2.26302e-12 0)
(8.55484e-11 -1.71615e-11 0)
(4.35395e-11 4.85799e-11 0)
(9.43992e-11 -1.27948e-10 0)
(-1.2297e-10 2.57909e-11 0)
(6.44795e-11 -2.51442e-10 0)
(-1.38057e-10 -2.72636e-11 0)
(1.0591e-10 -1.8634e-10 0)
(1.86509e-10 -1.81293e-10 0)
(-1.72198e-10 1.06696e-10 0)
(-2.54488e-12 5.26779e-11 0)
(6.2641e-11 1.91367e-11 0)
(-6.06558e-11 1.18001e-10 0)
(-6.91325e-11 1.06788e-10 0)
(-1.13015e-11 2.99442e-11 0)
(9.17094e-11 -4.85208e-11 0)
(1.88996e-10 -1.3313e-10 0)
(1.6349e-10 -1.56406e-10 0)
(-2.83443e-11 -1.5941e-10 0)
(-2.32621e-10 -4.78622e-11 0)
(-6.55074e-12 3.02446e-11 0)
(4.28488e-11 4.89372e-11 0)
(7.72864e-11 -8.29934e-11 0)
(8.19852e-11 -1.32116e-10 0)
(-2.9272e-11 -1.49422e-10 0)
(2.32642e-12 -1.89248e-10 0)
(6.51761e-12 -7.23303e-11 0)
(-2.44167e-10 5.09397e-11 0)
(3.46441e-10 -3.17686e-10 0)
(1.15689e-10 -4.7159e-11 0)
(-1.59708e-10 1.18293e-10 0)
(-3.26136e-12 6.48343e-11 0)
(2.20883e-11 8.47066e-11 0)
(-5.97571e-11 8.70478e-11 0)
(-4.72551e-11 5.86727e-11 0)
(3.43845e-11 -1.06864e-11 0)
(1.01562e-10 -1.3042e-10 0)
(1.31428e-10 -2.31431e-10 0)
(1.74691e-11 -2.86569e-10 0)
(-1.69841e-10 -1.10455e-10 0)
(-2.32769e-11 8.7551e-11 0)
(-3.238e-11 7.09753e-11 0)
(5.95326e-11 -1.56725e-10 0)
(-9.58373e-12 -2.87237e-11 0)
(1.48615e-10 -2.70037e-10 0)
(-1.42857e-10 2.63977e-10 0)
(3.04688e-10 -2.7972e-10 0)
(-5.65928e-10 4.69868e-10 0)
(-5.676e-11 4.33753e-13 0)
(4.01602e-10 -2.3758e-10 0)
(2.31877e-11 -1.61735e-11 0)
(-5.12584e-11 5.7598e-11 0)
(1.83269e-12 4.45892e-11 0)
(-3.77272e-11 4.64692e-11 0)
(-6.83337e-11 5.55598e-11 0)
(-6.88201e-11 2.23127e-11 0)
(-2.48505e-11 -5.36014e-11 0)
(6.86651e-11 -1.50255e-10 0)
(7.27732e-11 -2.52447e-10 0)
(-2.02817e-11 -1.23641e-10 0)
(-4.08761e-11 1.39278e-10 0)
(-1.24677e-10 4.53832e-11 0)
(-6.10214e-12 -2.15518e-10 0)
(-5.16093e-11 -4.58784e-11 0)
(3.20596e-10 -1.41998e-10 0)
(-2.45187e-10 4.48221e-10 0)
(4.654e-10 -5.44052e-10 0)
(1.34031e-10 6.6512e-12 0)
(-9.05864e-10 3.99298e-10 0)
(7.84535e-11 -1.57747e-10 0)
(2.11524e-10 -1.36766e-10 0)
(2.37179e-11 5.07374e-12 0)
(1.01736e-11 3.9658e-11 0)
(1.71728e-11 4.25965e-11 0)
(-2.69922e-11 3.80402e-11 0)
(-7.79502e-11 1.59525e-11 0)
(-7.24569e-11 -6.05075e-12 0)
(7.1423e-13 -5.84097e-11 0)
(5.93362e-11 -1.58138e-10 0)
(7.01728e-11 -8.1531e-11 0)
(-9.30987e-11 -4.02116e-11 0)
(-2.36106e-10 -5.40915e-11 0)
(-1.01263e-10 6.58643e-11 0)
(3.51828e-11 -2.07853e-11 0)
(3.44017e-10 2.40983e-10 0)
(-1.00937e-10 -2.21233e-11 0)
(-3.23167e-10 -8.4854e-10 0)
(1.46784e-09 -1.94219e-09 0)
(-5.09738e-10 5.21571e-11 0)
(-4.46833e-10 1.73096e-10 0)
(2.20819e-10 -8.06189e-12 0)
(1.60663e-10 -6.17238e-12 0)
(6.88882e-11 8.02901e-12 0)
(4.96217e-11 9.56775e-13 0)
(5.83709e-12 -1.37871e-11 0)
(-3.94098e-11 -1.3077e-11 0)
(-6.83531e-11 1.27265e-11 0)
(-4.87469e-11 1.7537e-11 0)
(1.53988e-12 -3.21051e-11 0)
(6.28021e-11 -1.39758e-11 0)
(-4.34465e-11 -2.70521e-10 0)
(6.64212e-12 -1.06236e-10 0)
(1.54083e-12 4.63221e-10 0)
(1.88209e-10 1.77834e-10 0)
(3.80037e-11 9.23901e-11 0)
(-1.86817e-09 -1.11986e-09 0)
(-2.19153e-09 1.8134e-09 0)
(1.53752e-09 9.46792e-10 0)
(1.89855e-09 -3.14961e-10 0)
(-1.47647e-10 3.02702e-10 0)
(-5.37486e-11 9.90713e-11 0)
(3.30272e-11 -8.55274e-11 0)
(1.78673e-11 -1.0922e-10 0)
(3.66004e-11 -7.95592e-11 0)
(5.67113e-11 -4.17462e-11 0)
(5.8223e-11 5.17609e-12 0)
(4.46654e-12 4.67903e-11 0)
(-4.51609e-11 6.78171e-11 0)
(-3.99908e-11 5.12662e-11 0)
(3.40431e-12 1.86109e-11 0)
(1.2791e-10 -1.53874e-10 0)
(2.8122e-10 -4.42828e-11 0)
(1.28179e-10 2.60517e-10 0)
(-6.79501e-11 1.21023e-10 0)
(-5.42706e-10 -1.84711e-10 0)
(2.35677e-09 -9.62192e-10 0)
(1.91569e-09 2.32927e-09 0)
(-2.58632e-09 2.54022e-09 0)
(-9.19501e-10 -1.19675e-10 0)
(9.49119e-11 1.21116e-10 0)
(-3.44445e-10 5.42811e-11 0)
(-1.53318e-10 -5.75779e-11 0)
(3.102e-11 -6.61428e-11 0)
(1.17627e-10 -4.16346e-11 0)
(1.58453e-10 -1.53539e-11 0)
(1.46958e-10 -2.54093e-12 0)
(4.31262e-11 1.25854e-12 0)
(-5.6158e-11 3.04966e-12 0)
(-9.26932e-11 -1.72547e-12 0)
(-6.61509e-11 1.02585e-11 0)
)
;

boundaryField
{
    sides
    {
        type            calculated;
        value           nonuniform List<vector> 
40
(
(1.2791e-10 0 0)
(2.8122e-10 0 0)
(1.28179e-10 0 0)
(-6.79501e-11 0 0)
(-5.42706e-10 0 0)
(2.35677e-09 0 0)
(1.91569e-09 0 0)
(-2.58632e-09 0 0)
(-9.19501e-10 0 0)
(9.49119e-11 0 0)
(-3.44445e-10 0 0)
(-1.53318e-10 0 0)
(3.102e-11 0 0)
(1.17627e-10 0 0)
(1.58453e-10 0 0)
(1.46958e-10 0 0)
(4.31262e-11 0 0)
(-5.6158e-11 0 0)
(-9.26932e-11 0 0)
(-6.61509e-11 0 0)
(1.66652e-10 0 0)
(2.07531e-10 0 0)
(5.46184e-11 0 0)
(-1.88495e-10 0 0)
(-2.40134e-10 0 0)
(-5.52911e-10 0 0)
(-1.2656e-09 0 0)
(-1.71123e-09 0 0)
(8.31339e-10 0 0)
(5.39536e-10 0 0)
(9.73708e-11 0 0)
(-5.30202e-11 0 0)
(-9.72235e-11 0 0)
(-6.77933e-11 0 0)
(2.88401e-11 0 0)
(6.56324e-11 0 0)
(9.53323e-12 0 0)
(-6.33988e-11 0 0)
(-4.1244e-11 0 0)
(2.21348e-11 0 0)
)
;
    }
    inlet
    {
        type            calculated;
        value           uniform (0 0 0);
    }
    outlet
    {
        type            calculated;
        value           nonuniform List<vector> 
20
(
(2.21348e-11 -1.80533e-11 0)
(8.06079e-11 -4.36384e-11 0)
(1.61416e-10 -3.09116e-11 0)
(1.36886e-10 1.21632e-11 0)
(2.39483e-11 4.3511e-11 0)
(-1.04634e-10 1.56163e-11 0)
(-2.0741e-10 -6.93967e-11 0)
(-1.29722e-10 -1.59383e-10 0)
(6.04706e-11 -2.02908e-10 0)
(2.38842e-10 -1.30626e-10 0)
(2.18962e-10 5.35456e-12 0)
(3.79809e-11 7.86389e-11 0)
(-1.87126e-10 4.34159e-11 0)
(-2.32621e-10 -4.78622e-11 0)
(-1.69841e-10 -1.10455e-10 0)
(-2.02817e-11 -1.23641e-10 0)
(7.01728e-11 -8.1531e-11 0)
(6.28021e-11 -1.39758e-11 0)
(3.40431e-12 1.86109e-11 0)
(-6.61509e-11 1.02585e-11 0)
)
;
    }
    frontAndBack
    {
        type            empty;
    }
}


// ************************************************************************* //
