/*--------------------------------*- C++ -*----------------------------------*\
  =========                 |
  \\      /  F ield         | OpenFOAM: The Open Source CFD Toolbox
   \\    /   O peration     | Website:  https://openfoam.org
    \\  /    A nd           | Version:  7
     \\/     M anipulation  |
\*---------------------------------------------------------------------------*/
FoamFile
{
    version     2.0;
    format      ascii;
    class       surfaceScalarField;
    location    "85";
    object      ddtCorrDdt0(phi);
}
// * * * * * * * * * * * * * * * * * * * * * * * * * * * * * * * * * * * * * //

dimensions      [0 4 -2 0 0 0 0];

internalField   nonuniform List<scalar> 
760
(
9.05475e-13
1.19795e-12
1.93251e-12
-6.87946e-14
-1.39577e-12
-1.33155e-12
-5.56913e-13
-9.80162e-14
-4.31773e-12
1.1771e-12
8.21698e-13
2.97589e-10
-1.47136e-11
2.72242e-10
2.47023e-12
3.81766e-10
3.00617e-12
1.30113e-11
1.30203e-12
5.84097e-13
1.53316e-15
-2.61991e-14
-4.05693e-13
-1.1448e-13
-4.80828e-13
-5.53709e-14
-1.33366e-13
1.10955e-13
3.09329e-13
1.96034e-13
2.85716e-13
5.63706e-14
-1.51781e-13
-1.97123e-13
-3.6187e-13
-4.14938e-13
-4.85593e-14
-5.00453e-13
-2.11958e-13
-2.42435e-13
-1.98059e-14
1.72979e-14
4.68297e-13
-5.76868e-13
-1.3266e-12
2.1016e-12
-5.56813e-13
-1.84823e-12
-1.81154e-12
7.43334e-12
3.95812e-12
9.4379e-12
-1.3911e-11
-3.65641e-12
-1.85501e-11
9.78112e-13
2.51469e-12
-1e-12
-3.53195e-13
-3.689e-13
-6.04431e-13
-8.55392e-14
-1.74401e-13
-1.08006e-13
9.32071e-15
-1.03704e-13
1.57489e-13
-1.04999e-14
2.37446e-13
-3.1682e-14
5.30869e-15
-2.62669e-13
-3.7904e-13
-2.93595e-13
-5.85151e-13
2.11757e-13
-6.43779e-13
-2.63822e-13
-1.15138e-12
-2.18509e-13
-1.87778e-12
2.49158e-13
7.25613e-13
-2.44719e-13
-1.04525e-12
7.11106e-14
3.80119e-12
-1.54944e-12
-5.18403e-12
1.73108e-12
1.6017e-13
-3.35387e-13
5.20553e-12
7.57286e-12
-2.47662e-12
-4.11296e-14
-1.30306e-12
-1.78519e-12
9.61654e-14
-2.07958e-13
1.41766e-13
1.41706e-13
2.07383e-13
2.02401e-13
4.27179e-14
2.33649e-13
-3.20635e-13
1.74762e-13
-4.67701e-13
-1.53324e-13
-4.32591e-13
-5.26244e-13
-1.50156e-13
-5.05472e-13
5.96238e-13
-3.60799e-13
-6.17229e-14
-3.37824e-13
-7.37254e-13
-1.2519e-12
-1.10484e-13
6.90921e-13
4.09629e-13
-1.73669e-12
1.26608e-13
3.71436e-12
3.95332e-13
-4.45215e-12
-2.7251e-12
5.55975e-12
1.46804e-12
-5.68473e-13
-4.63995e-13
-3.42511e-12
-3.69941e-12
4.4722e-13
-1.0951e-13
5.81528e-13
6.46219e-13
2.15385e-13
2.65691e-13
3.07502e-13
3.5543e-13
5.13799e-14
2.80047e-13
-5.28747e-13
4.27959e-14
-7.13826e-13
-2.30973e-13
-3.59375e-13
-4.22026e-13
8.70606e-14
-1.72903e-13
5.69258e-13
1.11186e-13
2.03781e-13
2.36899e-13
-4.09781e-13
-4.42807e-13
-3.51244e-13
5.09276e-13
5.85164e-13
-3.1035e-13
-2.91634e-13
3.62217e-13
1.31256e-12
-6.85926e-13
-1.8761e-12
1.6656e-12
3.35935e-13
-4.14576e-12
-3.07858e-12
3.89266e-13
-4.32711e-13
1.31183e-12
1.28423e-12
1.43844e-14
4.2066e-13
1.76178e-13
1.84665e-13
2.62118e-13
3.94158e-13
-9.37828e-14
1.46331e-13
-5.51557e-13
-2.04546e-13
-6.02876e-13
-3.21802e-13
2.14512e-14
-2.07049e-13
5.01952e-13
1.6846e-13
2.70604e-13
2.883e-13
2.48418e-13
1.25542e-13
5.6786e-14
3.89045e-13
-2.22382e-13
-2.99711e-13
2.29664e-13
9.60919e-13
-2.55874e-13
-1.76567e-12
-4.16482e-13
1.26328e-12
1.30887e-13
-1.13694e-12
-3.82454e-13
-9.22976e-13
-7.91686e-13
2.30968e-12
1.39025e-12
2.39309e-13
2.56094e-13
-4.28323e-13
-2.22596e-13
3.2525e-13
4.94086e-13
5.25036e-16
3.69406e-13
-4.26149e-13
-8.99416e-14
-4.06612e-13
-2.91042e-13
-1.37542e-13
-3.67414e-13
5.08896e-13
-2.24912e-13
7.45921e-13
1.11454e-14
-1.77257e-13
-2.40529e-13
-8.73695e-14
-1.00198e-13
3.01873e-13
8.57883e-13
2.3065e-13
-5.20508e-13
-6.34769e-13
6.43524e-13
4.62194e-14
-1.27436e-12
-1.32037e-12
7.72157e-13
-6.30386e-14
-1.3093e-12
-9.29652e-13
1.2454e-12
6.72194e-14
6.23469e-13
2.95964e-13
-7.49904e-13
-7.13578e-13
1.87918e-13
3.13138e-13
1.98182e-13
7.97901e-13
-3.80919e-13
8.65451e-14
-3.76373e-13
-1.62451e-13
6.01892e-14
4.63969e-14
5.71855e-13
-8.15507e-14
9.68634e-13
-3.76312e-13
6.14467e-13
-6.96661e-13
-6.83896e-13
-1.24791e-12
-5.89215e-13
-1.81721e-14
1.35412e-13
9.07326e-14
4.57165e-13
1.4685e-13
-3.71306e-13
-6.14642e-13
-5.64338e-13
-1.38742e-14
-8.35606e-13
-2.03921e-13
-6.16745e-13
-3.57972e-13
-7.82944e-13
1.1164e-12
2.132e-14
-7.70128e-13
-5.54511e-13
2.39583e-13
-2.73549e-14
6.033e-13
4.4609e-13
-8.32968e-13
1.09269e-13
-7.02007e-13
2.29357e-13
4.588e-15
4.94588e-13
1.80684e-13
5.43009e-13
5.01972e-13
2.7596e-13
7.87432e-13
-3.91763e-13
3.86034e-13
-1.36116e-12
-4.62543e-13
-2.20269e-12
-1.03003e-12
3.29199e-13
2.561e-13
-5.37981e-13
-2.08681e-13
1.22947e-13
1.96721e-13
-6.56989e-13
-6.31313e-13
4.18475e-13
-2.52958e-13
-2.75587e-13
-7.71076e-13
3.00382e-13
-4.68583e-13
1.69338e-13
-2.73407e-13
-4.69605e-13
-6.17849e-13
4.72718e-13
3.136e-13
-6.39293e-14
-8.85318e-14
-8.46699e-13
-2.178e-13
-1.55156e-13
9.12362e-13
3.72335e-13
1.01088e-12
1.14427e-13
3.70746e-13
-1.14707e-13
1.22674e-13
-2.22078e-13
-2.06353e-13
-1.96206e-13
-1.09015e-12
1.75174e-13
-2.03811e-12
-9.7749e-13
-1.50823e-13
2.60661e-14
-9.14074e-14
-1.54875e-13
-4.13031e-13
2.141e-15
1.05073e-13
-2.25678e-13
1.65859e-13
-1.8042e-13
1.85444e-13
-4.22477e-13
3.49984e-13
-3.97081e-13
-4.00897e-13
-2.97449e-13
2.8665e-13
-2.71444e-13
-2.44243e-13
1.18416e-13
-2.70333e-13
1.00131e-13
5.5774e-13
1.59372e-13
2.19519e-13
5.75505e-13
-2.16293e-13
5.26314e-13
1.35342e-15
1.89168e-13
-3.04594e-13
-8.75422e-14
-1.18768e-12
-3.09741e-13
-1.00205e-12
-4.86668e-13
6.69122e-13
-8.50904e-13
-3.22205e-13
-2.7868e-13
-3.12128e-13
1.67046e-13
2.21802e-13
-4.62448e-13
-3.91837e-13
3.56642e-13
2.34218e-13
5.61201e-14
-3.68737e-13
2.51713e-13
-5.99327e-14
3.35621e-13
-4.97226e-13
-5.648e-13
-3.2758e-13
4.65165e-13
1.33789e-13
-5.18794e-13
-2.25854e-13
-3.51477e-13
5.21763e-13
9.79019e-13
7.2816e-13
3.30621e-13
-5.86055e-14
-3.38927e-13
-1.61979e-13
1.4222e-13
1.322e-13
-8.81299e-14
-2.71053e-13
-1.19697e-12
-6.17771e-13
-1.13558e-12
-3.87168e-14
5.57073e-13
3.61839e-13
3.6779e-13
3.86035e-13
-4.63482e-14
-2.29578e-13
-2.86931e-13
1.94422e-13
-1.05926e-13
-2.67544e-13
3.19625e-13
3.58677e-13
-2.68718e-13
-2.9452e-13
-2.54669e-13
4.12215e-13
-5.0295e-13
-3.12423e-13
-8.00203e-13
-1.54495e-13
2.50819e-13
1.23391e-13
-2.58851e-13
-3.34559e-13
1.63151e-13
-1.22143e-13
8.71153e-13
3.25729e-13
4.28446e-13
3.77986e-13
8.67445e-16
2.54964e-13
-1.28063e-13
1.15994e-14
-5.74346e-13
-3.8483e-13
-7.00716e-13
-4.12815e-13
7.82394e-14
4.61167e-14
5.23797e-13
4.35502e-13
2.85256e-13
-4.87146e-14
5.81392e-15
-3.22176e-13
7.02915e-13
5.69282e-13
-7.29817e-13
-5.88666e-13
4.68348e-13
1.24874e-13
-6.02111e-13
-1.07077e-12
7.89743e-14
-1.8865e-13
6.37947e-13
-1.19374e-12
-9.96348e-13
-1.95494e-13
3.77043e-13
5.74248e-13
3.57332e-13
-5.25163e-14
-7.4304e-13
1.65258e-13
-1.74821e-13
7.43407e-13
4.4038e-13
5.53905e-13
3.66185e-13
3.99479e-14
5.48483e-13
-4.18894e-13
7.45092e-13
-6.91545e-13
2.82108e-13
-4.82937e-13
-6.9218e-13
-3.52488e-13
-7.74251e-15
-4.06314e-14
6.06616e-14
9.16305e-13
2.26034e-13
-8.87535e-14
-1.16565e-13
2.27105e-13
-8.09318e-13
-5.35655e-13
5.79274e-15
3.58206e-13
-1.692e-12
-9.92043e-13
-1.91704e-13
1.72877e-12
-6.71122e-13
-3.61139e-13
-1.66709e-12
-6.45593e-13
4.87826e-13
4.4401e-13
7.19796e-13
-7.82605e-14
1.64752e-13
-3.59934e-13
4.88391e-13
-1.71036e-13
5.39597e-13
8.95266e-14
2.91951e-13
6.19672e-13
-8.24267e-14
1.08466e-12
-6.95531e-13
6.50094e-13
-1.13845e-12
-7.68042e-13
-1.28197e-12
-4.52511e-13
6.95165e-14
3.7407e-13
8.53395e-13
4.37712e-13
-5.35659e-13
-8.12083e-13
1.44066e-12
-3.53333e-13
-1.82042e-12
-1.61839e-12
1.81734e-12
2.06458e-13
-1.93569e-12
-2.23768e-13
5.33093e-13
1.70059e-12
1.83355e-12
-1.36354e-12
-6.17658e-13
-1.13829e-12
-4.38223e-13
3.37012e-13
1.829e-13
4.35872e-13
-1.18323e-13
2.97618e-13
-2.72664e-13
2.89485e-13
-8.31938e-14
3.31467e-13
1.98736e-13
1.07388e-13
6.90312e-13
-4.49097e-13
7.01223e-13
-1.0606e-12
-4.39391e-13
-1.51728e-12
-6.69355e-13
2.15544e-13
6.10279e-13
-7.64718e-14
2.53493e-13
-1.03783e-13
-8.79927e-13
7.62153e-13
-2.18763e-13
-8.00425e-13
-1.32333e-12
1.44337e-12
3.05591e-12
-6.23822e-13
-2.96998e-12
-2.9814e-12
3.42565e-12
2.06944e-12
1.60512e-12
1.00653e-12
-1.22673e-12
-3.3471e-13
-5.28331e-13
-6.70855e-14
2.02839e-13
-9.58312e-14
2.09969e-13
-2.21182e-13
1.69922e-13
-3.40832e-13
2.12283e-13
-3.7916e-13
1.16844e-13
1.09318e-13
-1.04194e-13
5.29656e-13
-5.20256e-13
1.35388e-13
-1.12474e-12
-5.79953e-13
-4.66105e-14
2.45482e-13
-1.23463e-12
-2.54606e-13
8.43392e-13
-3.44051e-14
-9.2037e-13
9.62493e-14
3.13607e-12
7.99993e-13
-3.42396e-12
-3.34595e-14
6.01028e-12
-1.23957e-12
-5.11548e-12
-7.59569e-12
-1.64863e-12
2.72634e-12
1.38039e-12
5.91304e-13
4.47362e-13
-6.387e-13
4.79308e-15
-2.58015e-13
5.10649e-14
2.12308e-14
3.41051e-14
9.67878e-14
-2.40315e-13
6.14361e-14
-4.42517e-13
3.68052e-14
-2.30973e-13
1.01339e-13
1.1409e-13
-7.17619e-15
3.57434e-13
-4.15599e-13
-2.25674e-13
-6.45397e-13
-1.88933e-12
-2.42472e-12
-6.05524e-13
1.45134e-12
1.6083e-12
-7.72482e-13
7.78744e-13
5.25861e-12
1.91894e-12
-7.81654e-12
-6.0125e-12
7.24764e-12
-2.67156e-12
2.36827e-12
-1.47764e-11
-4.27668e-12
-2.95207e-12
2.90702e-13
1.15347e-12
1.11389e-12
2.29162e-13
4.91235e-13
-2.14052e-13
2.67145e-13
-1.39927e-13
1.47198e-13
-7.56861e-14
-7.93825e-14
-1.40832e-13
-2.43159e-13
-1.3075e-13
-3.39284e-13
7.04399e-14
-2.65413e-13
2.44498e-13
1.83916e-13
1.58349e-13
8.46124e-14
-1.73672e-13
-1.21404e-12
1.79638e-14
-1.0147e-13
-1.07655e-13
1.96581e-12
1.76305e-12
4.14913e-13
-2.05857e-12
-1.61094e-12
-1.53555e-11
1.35247e-10
-4.06655e-12
4.6057e-10
1.67612e-11
3.98441e-10
7.89227e-13
1.34351e-11
-6.61147e-13
5.76181e-13
8.40472e-14
5.16351e-13
1.23286e-13
-8.65286e-14
1.36772e-13
-3.00272e-13
1.95963e-13
-2.86015e-13
2.84956e-13
-2.22919e-13
2.42208e-13
-1.33168e-13
-1.10074e-13
3.44804e-14
-3.42907e-13
2.22376e-13
-9.42807e-14
2.57532e-13
1.41131e-13
6.32748e-13
2.91988e-12
-8.82305e-13
-7.48352e-13
-3.30352e-12
2.39488e-11
-6.42115e-12
-1.35663e-11
1.82904e-12
-1.4498e-12
-1.34077e-12
-2.14268e-13
4.67325e-13
6.865e-13
7.57349e-13
5.44841e-13
-3.84579e-14
-4.53065e-13
-4.07081e-13
)
;

boundaryField
{
    sides
    {
        type            calculated;
        value           uniform 0;
    }
    inlet
    {
        type            calculated;
        value           uniform 0;
    }
    outlet
    {
        type            calculated;
        value           nonuniform List<scalar> 
20
(
1.83815e-13
5.67731e-13
1.04712e-12
8.37075e-13
-3.0604e-14
-9.65349e-13
-1.52745e-12
-9.21861e-13
4.51558e-13
1.75478e-12
1.67904e-12
3.42499e-13
-1.21929e-12
-1.63645e-12
-1.27434e-12
-2.60058e-13
4.90824e-13
5.7064e-13
1.8541e-13
-2.76356e-13
)
;
    }
    frontAndBack
    {
        type            empty;
        value           nonuniform 0();
    }
}


// ************************************************************************* //
