/*--------------------------------*- C++ -*----------------------------------*\
  =========                 |
  \\      /  F ield         | OpenFOAM: The Open Source CFD Toolbox
   \\    /   O peration     | Website:  https://openfoam.org
    \\  /    A nd           | Version:  7
     \\/     M anipulation  |
\*---------------------------------------------------------------------------*/
FoamFile
{
    version     2.0;
    format      ascii;
    class       volVectorField;
    location    "85";
    object      hU_0;
}
// * * * * * * * * * * * * * * * * * * * * * * * * * * * * * * * * * * * * * //

dimensions      [0 2 -1 0 0 0 0];

internalField   nonuniform List<vector> 
400
(
(0.001 -8.74069e-09 0)
(0.000999999 -2.37651e-08 0)
(0.001 -3.60239e-08 0)
(0.001 -4.67639e-08 0)
(0.00100001 -5.69321e-08 0)
(0.00100001 -6.73289e-08 0)
(0.00100002 -7.81055e-08 0)
(0.00100003 -8.91185e-08 0)
(0.00100004 -9.99049e-08 0)
(0.00100006 -1.11918e-07 0)
(0.00100007 -1.22656e-07 0)
(0.0010001 -1.3617e-07 0)
(0.00100011 -1.46545e-07 0)
(0.00100015 -1.63375e-07 0)
(0.00100017 -1.72205e-07 0)
(0.00100024 -1.96335e-07 0)
(0.00100026 -2.00815e-07 0)
(0.00100038 -2.43036e-07 0)
(0.00100038 -2.39144e-07 0)
(0.00100061 -3.31812e-07 0)
(0.001 3.97287e-09 0)
(0.001 1.21127e-08 0)
(0.00100001 2.02209e-08 0)
(0.00100001 2.79167e-08 0)
(0.00100002 3.51308e-08 0)
(0.00100002 4.1699e-08 0)
(0.00100003 4.76802e-08 0)
(0.00100004 5.31114e-08 0)
(0.00100005 5.84015e-08 0)
(0.00100007 6.22712e-08 0)
(0.00100008 6.69417e-08 0)
(0.0010001 6.85599e-08 0)
(0.00100012 7.26687e-08 0)
(0.00100016 6.98507e-08 0)
(0.00100018 7.39991e-08 0)
(0.00100023 6.16476e-08 0)
(0.00100026 6.71484e-08 0)
(0.00100035 3.17622e-08 0)
(0.00100037 3.98682e-08 0)
(0.0010005 -5.4564e-08 0)
(0.001 -3.98316e-09 0)
(0.000999999 -1.3051e-08 0)
(0.001 -2.3099e-08 0)
(0.001 -3.37012e-08 0)
(0.00100001 -4.42319e-08 0)
(0.00100001 -5.50695e-08 0)
(0.00100002 -6.5616e-08 0)
(0.00100003 -7.73402e-08 0)
(0.00100004 -8.88779e-08 0)
(0.00100005 -1.02508e-07 0)
(0.00100006 -1.15246e-07 0)
(0.00100009 -1.32417e-07 0)
(0.0010001 -1.46534e-07 0)
(0.00100014 -1.70072e-07 0)
(0.00100016 -1.85188e-07 0)
(0.00100021 -2.21196e-07 0)
(0.00100023 -2.35716e-07 0)
(0.00100031 -2.97597e-07 0)
(0.00100033 -3.06182e-07 0)
(0.00100046 -4.22108e-07 0)
(0.001 -1.71852e-10 0)
(0.001 -8.92461e-11 0)
(0.00100001 5.64974e-10 0)
(0.00100001 1.26975e-09 0)
(0.00100001 1.96879e-09 0)
(0.00100002 1.86158e-09 0)
(0.00100003 1.5312e-09 0)
(0.00100004 -3.73495e-10 0)
(0.00100004 -2.37638e-09 0)
(0.00100006 -7.02961e-09 0)
(0.00100007 -1.12016e-08 0)
(0.00100009 -2.04794e-08 0)
(0.00100011 -2.72028e-08 0)
(0.00100013 -4.43287e-08 0)
(0.00100016 -5.36134e-08 0)
(0.00100019 -8.50493e-08 0)
(0.00100022 -9.5533e-08 0)
(0.00100028 -1.54703e-07 0)
(0.0010003 -1.60949e-07 0)
(0.00100039 -2.75785e-07 0)
(0.001 -2.90916e-09 0)
(0.001 -9.26747e-09 0)
(0.001 -1.63475e-08 0)
(0.001 -2.44129e-08 0)
(0.00100001 -3.309e-08 0)
(0.00100001 -4.27836e-08 0)
(0.00100002 -5.28699e-08 0)
(0.00100002 -6.45479e-08 0)
(0.00100003 -7.64196e-08 0)
(0.00100004 -9.11992e-08 0)
(0.00100005 -1.05603e-07 0)
(0.00100007 -1.25409e-07 0)
(0.00100009 -1.42772e-07 0)
(0.00100011 -1.70998e-07 0)
(0.00100013 -1.91302e-07 0)
(0.00100016 -2.34404e-07 0)
(0.00100018 -2.55839e-07 0)
(0.00100024 -3.26596e-07 0)
(0.00100025 -3.41532e-07 0)
(0.00100033 -4.64328e-07 0)
(0.001 -2.56871e-09 0)
(0.001 -7.58607e-09 0)
(0.001 -1.23009e-08 0)
(0.00100001 -1.70387e-08 0)
(0.00100001 -2.18052e-08 0)
(0.00100001 -2.72855e-08 0)
(0.00100002 -3.32016e-08 0)
(0.00100002 -4.07854e-08 0)
(0.00100003 -4.8852e-08 0)
(0.00100004 -6.01017e-08 0)
(0.00100005 -7.12633e-08 0)
(0.00100006 -8.82532e-08 0)
(0.00100008 -1.03248e-07 0)
(0.0010001 -1.29554e-07 0)
(0.00100011 -1.48445e-07 0)
(0.00100014 -1.90391e-07 0)
(0.00100016 -2.11075e-07 0)
(0.0010002 -2.80561e-07 0)
(0.00100021 -2.94527e-07 0)
(0.00100027 -4.14885e-07 0)
(0.001 -2.90993e-09 0)
(0.001 -8.92899e-09 0)
(0.001 -1.52639e-08 0)
(0.001 -2.23104e-08 0)
(0.00100001 -3.0033e-08 0)
(0.00100001 -3.89866e-08 0)
(0.00100001 -4.87356e-08 0)
(0.00100002 -6.04417e-08 0)
(0.00100002 -7.28694e-08 0)
(0.00100003 -8.86455e-08 0)
(0.00100004 -1.04491e-07 0)
(0.00100005 -1.26407e-07 0)
(0.00100006 -1.4639e-07 0)
(0.00100007 -1.77939e-07 0)
(0.00100009 -2.0194e-07 0)
(0.00100011 -2.49326e-07 0)
(0.00100012 -2.74798e-07 0)
(0.00100015 -3.49604e-07 0)
(0.00100016 -3.67224e-07 0)
(0.00100021 -4.92089e-07 0)
(0.001 -3.22053e-09 0)
(0.001 -9.82358e-09 0)
(0.001 -1.66536e-08 0)
(0.001 -2.405e-08 0)
(0.001 -3.18712e-08 0)
(0.00100001 -4.07276e-08 0)
(0.00100001 -5.01605e-08 0)
(0.00100001 -6.14676e-08 0)
(0.00100002 -7.34411e-08 0)
(0.00100002 -8.87797e-08 0)
(0.00100003 -1.04318e-07 0)
(0.00100004 -1.26016e-07 0)
(0.00100004 -1.45966e-07 0)
(0.00100005 -1.77555e-07 0)
(0.00100006 -2.01862e-07 0)
(0.00100008 -2.49409e-07 0)
(0.00100009 -2.75343e-07 0)
(0.00100011 -3.49867e-07 0)
(0.00100012 -3.67597e-07 0)
(0.00100015 -4.90704e-07 0)
(0.001 -3.3997e-09 0)
(0.001 -1.03302e-08 0)
(0.001 -1.74356e-08 0)
(0.001 -2.51099e-08 0)
(0.001 -3.32302e-08 0)
(0.001 -4.25039e-08 0)
(0.00100001 -5.24953e-08 0)
(0.00100001 -6.45678e-08 0)
(0.00100001 -7.74546e-08 0)
(0.00100001 -9.3921e-08 0)
(0.00100002 -1.10739e-07 0)
(0.00100002 -1.339e-07 0)
(0.00100003 -1.55407e-07 0)
(0.00100003 -1.88792e-07 0)
(0.00100004 -2.14823e-07 0)
(0.00100005 -2.64357e-07 0)
(0.00100005 -2.91876e-07 0)
(0.00100007 -3.68401e-07 0)
(0.00100007 -3.87159e-07 0)
(0.00100009 -5.12351e-07 0)
(0.001 -3.47516e-09 0)
(0.001 -1.05654e-08 0)
(0.001 -1.78308e-08 0)
(0.001 -2.5681e-08 0)
(0.001 -3.40276e-08 0)
(0.001 -4.35724e-08 0)
(0.001 -5.38946e-08 0)
(0.001 -6.63279e-08 0)
(0.001 -7.96025e-08 0)
(0.001 -9.64643e-08 0)
(0.00100001 -1.13685e-07 0)
(0.00100001 -1.37227e-07 0)
(0.00100001 -1.5915e-07 0)
(0.00100001 -1.92898e-07 0)
(0.00100001 -2.19344e-07 0)
(0.00100002 -2.69153e-07 0)
(0.00100002 -2.97071e-07 0)
(0.00100002 -3.7366e-07 0)
(0.00100002 -3.92714e-07 0)
(0.00100003 -5.1733e-07 0)
(0.001 -3.46925e-09 0)
(0.001 -1.05554e-08 0)
(0.001 -1.78361e-08 0)
(0.000999999 -2.56861e-08 0)
(0.000999999 -3.40391e-08 0)
(0.000999999 -4.35764e-08 0)
(0.000999998 -5.39021e-08 0)
(0.000999997 -6.63214e-08 0)
(0.000999996 -7.96022e-08 0)
(0.000999995 -9.64636e-08 0)
(0.000999994 -1.13678e-07 0)
(0.000999993 -1.37233e-07 0)
(0.000999991 -1.59159e-07 0)
(0.000999989 -1.92894e-07 0)
(0.000999987 -2.19332e-07 0)
(0.000999984 -2.69136e-07 0)
(0.000999982 -2.97055e-07 0)
(0.000999978 -3.73651e-07 0)
(0.000999977 -3.92711e-07 0)
(0.00099997 -5.17327e-07 0)
(0.001 -3.38682e-09 0)
(0.001 -1.03151e-08 0)
(0.000999999 -1.74464e-08 0)
(0.000999998 -2.51118e-08 0)
(0.000999997 -3.32501e-08 0)
(0.000999996 -4.25064e-08 0)
(0.000999994 -5.2509e-08 0)
(0.000999992 -6.45537e-08 0)
(0.000999989 -7.74468e-08 0)
(0.000999986 -9.39203e-08 0)
(0.000999983 -1.10725e-07 0)
(0.000999978 -1.33899e-07 0)
(0.000999973 -1.55418e-07 0)
(0.000999967 -1.88784e-07 0)
(0.000999961 -2.14797e-07 0)
(0.000999952 -2.64307e-07 0)
(0.000999946 -2.91829e-07 0)
(0.000999934 -3.68357e-07 0)
(0.00099993 -3.87133e-07 0)
(0.000999911 -5.12299e-07 0)
(0.001 -3.21526e-09 0)
(0.001 -9.82534e-09 0)
(0.000999999 -1.66518e-08 0)
(0.000999997 -2.4038e-08 0)
(0.000999996 -3.18732e-08 0)
(0.000999993 -4.07214e-08 0)
(0.000999991 -5.01653e-08 0)
(0.000999987 -6.1466e-08 0)
(0.000999983 -7.34221e-08 0)
(0.000999977 -8.87804e-08 0)
(0.000999971 -1.04319e-07 0)
(0.000999964 -1.26009e-07 0)
(0.000999956 -1.45972e-07 0)
(0.000999945 -1.77568e-07 0)
(0.000999936 -2.01866e-07 0)
(0.000999921 -2.49389e-07 0)
(0.000999911 -2.75328e-07 0)
(0.000999889 -3.49861e-07 0)
(0.000999882 -3.67606e-07 0)
(0.000999852 -4.90696e-07 0)
(0.001 -2.92338e-09 0)
(0.000999999 -8.94333e-09 0)
(0.000999998 -1.52449e-08 0)
(0.000999996 -2.22987e-08 0)
(0.000999994 -3.00036e-08 0)
(0.000999991 -3.89853e-08 0)
(0.000999987 -4.87246e-08 0)
(0.000999982 -6.0464e-08 0)
(0.000999977 -7.28514e-08 0)
(0.000999969 -8.86194e-08 0)
(0.000999962 -1.04487e-07 0)
(0.000999951 -1.26384e-07 0)
(0.000999941 -1.46365e-07 0)
(0.000999925 -1.77918e-07 0)
(0.000999913 -2.01928e-07 0)
(0.000999891 -2.49284e-07 0)
(0.000999878 -2.74759e-07 0)
(0.000999847 -3.49523e-07 0)
(0.000999839 -3.67146e-07 0)
(0.000999792 -4.91947e-07 0)
(0.001 -2.5907e-09 0)
(0.000999999 -7.59572e-09 0)
(0.000999997 -1.22869e-08 0)
(0.000999995 -1.70386e-08 0)
(0.000999991 -2.17787e-08 0)
(0.000999987 -2.73162e-08 0)
(0.000999982 -3.3196e-08 0)
(0.000999975 -4.08306e-08 0)
(0.000999968 -4.88928e-08 0)
(0.000999959 -6.00946e-08 0)
(0.000999949 -7.1268e-08 0)
(0.000999935 -8.82613e-08 0)
(0.000999922 -1.03253e-07 0)
(0.000999903 -1.29561e-07 0)
(0.000999886 -1.48473e-07 0)
(0.000999859 -1.90421e-07 0)
(0.000999841 -2.11106e-07 0)
(0.000999802 -2.80556e-07 0)
(0.000999787 -2.94518e-07 0)
(0.000999731 -4.14862e-07 0)
(0.001 -2.90955e-09 0)
(0.001 -9.25856e-09 0)
(0.000999999 -1.63551e-08 0)
(0.000999997 -2.44227e-08 0)
(0.000999994 -3.31022e-08 0)
(0.00099999 -4.27886e-08 0)
(0.000999984 -5.28563e-08 0)
(0.000999977 -6.45076e-08 0)
(0.000999969 -7.6466e-08 0)
(0.000999958 -9.12088e-08 0)
(0.000999946 -1.05587e-07 0)
(0.00099993 -1.25389e-07 0)
(0.000999915 -1.42755e-07 0)
(0.000999891 -1.70962e-07 0)
(0.000999872 -1.91288e-07 0)
(0.000999837 -2.34376e-07 0)
(0.000999817 -2.55823e-07 0)
(0.000999764 -3.26504e-07 0)
(0.000999752 -3.41452e-07 0)
(0.00099967 -4.64161e-07 0)
(0.001 -1.52262e-10 0)
(0.000999998 -6.86664e-11 0)
(0.000999995 5.32788e-10 0)
(0.000999991 1.22975e-09 0)
(0.000999986 1.91425e-09 0)
(0.00099998 1.91316e-09 0)
(0.000999973 1.51376e-09 0)
(0.000999965 -2.84842e-10 0)
(0.000999955 -2.37808e-09 0)
(0.000999943 -7.06635e-09 0)
(0.00099993 -1.12097e-08 0)
(0.000999912 -2.04764e-08 0)
(0.000999894 -2.72023e-08 0)
(0.000999867 -4.43144e-08 0)
(0.000999845 -5.36083e-08 0)
(0.000999805 -8.5038e-08 0)
(0.000999779 -9.55341e-08 0)
(0.00099972 -1.5467e-07 0)
(0.000999698 -1.60919e-07 0)
(0.000999611 -2.75721e-07 0)
(0.001 -3.97632e-09 0)
(0.001 -1.30463e-08 0)
(0.001 -2.3101e-08 0)
(0.000999998 -3.37097e-08 0)
(0.000999995 -4.42551e-08 0)
(0.000999989 -5.49544e-08 0)
(0.000999983 -6.57206e-08 0)
(0.000999973 -7.73381e-08 0)
(0.000999963 -8.88011e-08 0)
(0.00099995 -1.02501e-07 0)
(0.000999936 -1.1526e-07 0)
(0.000999915 -1.32423e-07 0)
(0.000999896 -1.46549e-07 0)
(0.000999864 -1.70064e-07 0)
(0.000999841 -1.85189e-07 0)
(0.000999791 -2.21169e-07 0)
(0.000999767 -2.3573e-07 0)
(0.000999687 -2.97568e-07 0)
(0.000999671 -3.06195e-07 0)
(0.000999539 -4.22035e-07 0)
(0.001 3.9776e-09 0)
(0.000999996 1.20783e-08 0)
(0.000999991 2.02246e-08 0)
(0.000999987 2.79709e-08 0)
(0.000999982 3.51888e-08 0)
(0.000999976 4.15587e-08 0)
(0.000999969 4.77655e-08 0)
(0.000999959 5.29914e-08 0)
(0.000999948 5.84142e-08 0)
(0.000999934 6.2302e-08 0)
(0.000999919 6.69312e-08 0)
(0.000999897 6.85539e-08 0)
(0.000999878 7.26653e-08 0)
(0.000999845 6.98753e-08 0)
(0.000999819 7.40309e-08 0)
(0.000999767 6.17116e-08 0)
(0.000999738 6.7182e-08 0)
(0.000999654 3.18273e-08 0)
(0.000999629 3.99057e-08 0)
(0.000999495 -5.44468e-08 0)
(0.001 -8.73151e-09 0)
(0.001 -2.37911e-08 0)
(0.001 -3.60365e-08 0)
(0.000999997 -4.67308e-08 0)
(0.000999993 -5.68882e-08 0)
(0.000999986 -6.75543e-08 0)
(0.000999979 -7.7953e-08 0)
(0.000999968 -8.92231e-08 0)
(0.000999958 -9.99775e-08 0)
(0.000999942 -1.11944e-07 0)
(0.000999928 -1.22704e-07 0)
(0.000999903 -1.36218e-07 0)
(0.000999886 -1.46594e-07 0)
(0.000999846 -1.63417e-07 0)
(0.000999826 -1.72249e-07 0)
(0.00099976 -1.96379e-07 0)
(0.000999742 -2.00876e-07 0)
(0.000999623 -2.43114e-07 0)
(0.000999618 -2.39231e-07 0)
(0.000999394 -3.31944e-07 0)
)
;

boundaryField
{
    sides
    {
        type            slip;
    }
    inlet
    {
        type            fixedValue;
        value           uniform (0.001 0 0);
    }
    outlet
    {
        type            zeroGradient;
    }
    frontAndBack
    {
        type            empty;
    }
}


// ************************************************************************* //
