/*--------------------------------*- C++ -*----------------------------------*\
  =========                 |
  \\      /  F ield         | OpenFOAM: The Open Source CFD Toolbox
   \\    /   O peration     | Website:  https://openfoam.org
    \\  /    A nd           | Version:  7
     \\/     M anipulation  |
\*---------------------------------------------------------------------------*/
FoamFile
{
    version     2.0;
    format      ascii;
    class       surfaceScalarField;
    location    "85";
    object      phi_0;
}
// * * * * * * * * * * * * * * * * * * * * * * * * * * * * * * * * * * * * * //

dimensions      [0 4 -1 0 0 0 0];

internalField   nonuniform List<scalar> 
760
(
4.99999e-06
9.9715e-12
4.99999e-06
-4.33831e-12
5.00001e-06
-1.29674e-11
5.00003e-06
-1.96552e-11
5.00005e-06
-2.66693e-11
5.00009e-06
-3.436e-11
5.00013e-06
-3.82463e-11
5.00018e-06
-5.17587e-11
5.00025e-06
-6.22804e-11
5.00032e-06
-7.81323e-11
5.00041e-06
-9.01133e-11
5.00053e-06
-1.14011e-10
5.00065e-06
-1.2694e-10
5.00082e-06
-1.6791e-10
5.001e-06
-1.78186e-10
5.00126e-06
-2.57016e-10
5.00151e-06
-2.5628e-10
5.00195e-06
-4.31774e-10
5.00236e-06
-4.14065e-10
-8.91478e-10
5.00002e-06
-1.18595e-11
5.00004e-06
-1.90304e-11
5.00005e-06
-2.93746e-11
5.00008e-06
-4.19424e-11
5.0001e-06
-5.45841e-11
5.00014e-06
-6.92273e-11
5.00018e-06
-8.4294e-11
5.00023e-06
-1.04664e-10
5.00029e-06
-1.23714e-10
5.00037e-06
-1.5326e-10
5.00045e-06
-1.77048e-10
5.00056e-06
-2.22087e-10
5.00069e-06
-2.5038e-10
5.00084e-06
-3.24275e-10
5.00102e-06
-3.54134e-10
5.00125e-06
-4.86378e-10
5.0015e-06
-5.09417e-10
5.00184e-06
-7.68011e-10
5.00218e-06
-7.59848e-10
-1.26182e-09
4.99999e-06
-4.75987e-12
4.99999e-06
-2.04829e-11
5e-06
-3.77264e-11
5.00002e-06
-5.68008e-11
5.00004e-06
-7.65809e-11
5.00007e-06
-9.95196e-11
5.00011e-06
-1.22632e-10
5.00016e-06
-1.52289e-10
5.00021e-06
-1.82719e-10
5.00029e-06
-2.23769e-10
5.00037e-06
-2.62289e-10
5.00047e-06
-3.23315e-10
5.00059e-06
-3.72032e-10
5.00074e-06
-4.67715e-10
5.00091e-06
-5.26017e-10
5.00111e-06
-6.87102e-10
5.00135e-06
-7.4817e-10
5.00162e-06
-1.04133e-09
5.00194e-06
-1.08313e-09
-1.68927e-09
5.00001e-06
-1.26948e-11
5.00002e-06
-3.34969e-11
5.00004e-06
-5.45233e-11
5.00006e-06
-7.78082e-11
5.00008e-06
-1.02019e-10
5.00012e-06
-1.30718e-10
5.00015e-06
-1.60308e-10
5.0002e-06
-1.98229e-10
5.00025e-06
-2.36127e-10
5.00032e-06
-2.88607e-10
5.00039e-06
-3.38316e-10
5.00048e-06
-4.15296e-10
5.00059e-06
-4.78454e-10
5.00072e-06
-5.96664e-10
5.00087e-06
-6.73097e-10
5.00105e-06
-8.65449e-10
5.00124e-06
-9.47194e-10
5.00148e-06
-1.28022e-09
5.00173e-06
-1.3314e-09
-1.89771e-09
5e-06
-1.1648e-11
5e-06
-3.66267e-11
5.00001e-06
-6.23169e-11
5.00002e-06
-9.04004e-11
5.00004e-06
-1.20271e-10
5.00006e-06
-1.54591e-10
5.0001e-06
-1.91469e-10
5.00013e-06
-2.36361e-10
5.00018e-06
-2.83302e-10
5.00024e-06
-3.45357e-10
5.00031e-06
-4.06686e-10
5.00039e-06
-4.95593e-10
5.00048e-06
-5.74247e-10
5.00059e-06
-7.07474e-10
5.00072e-06
-8.03785e-10
5.00087e-06
-1.01293e-09
5.00104e-06
-1.1168e-09
5.00122e-06
-1.46186e-09
5.00142e-06
-1.53281e-09
-2.16247e-09
5e-06
-1.3902e-11
5.00001e-06
-4.33354e-11
5.00002e-06
-7.32696e-11
5.00003e-06
-1.05322e-10
5.00005e-06
-1.39338e-10
5.00008e-06
-1.78147e-10
5.00011e-06
-2.19968e-10
5.00014e-06
-2.70748e-10
5.00018e-06
-3.24407e-10
5.00023e-06
-3.94464e-10
5.00029e-06
-4.64118e-10
5.00036e-06
-5.63793e-10
5.00043e-06
-6.53173e-10
5.00053e-06
-8.00253e-10
5.00063e-06
-9.09014e-10
5.00075e-06
-1.13488e-09
5.00089e-06
-1.25148e-09
5.00104e-06
-1.61618e-09
5.00121e-06
-1.6972e-09
-2.29308e-09
5e-06
-1.57678e-11
5.00001e-06
-4.78201e-11
5.00001e-06
-8.05735e-11
5.00002e-06
-1.15412e-10
5.00004e-06
-1.52561e-10
5.00005e-06
-1.95279e-10
5.00008e-06
-2.41389e-10
5.0001e-06
-2.97115e-10
5.00013e-06
-3.56466e-10
5.00017e-06
-4.32593e-10
5.00022e-06
-5.09578e-10
5.00027e-06
-6.17175e-10
5.00033e-06
-7.15802e-10
5.00041e-06
-8.72311e-10
5.00049e-06
-9.92155e-10
5.00058e-06
-1.22825e-09
5.00069e-06
-1.35597e-09
5.0008e-06
-1.72685e-09
5.00091e-06
-1.81208e-09
-2.44163e-09
5e-06
-1.68785e-11
5e-06
-5.0926e-11
5.00001e-06
-8.5568e-11
5.00002e-06
-1.22952e-10
5.00003e-06
-1.62681e-10
5.00004e-06
-2.0836e-10
5.00006e-06
-2.57623e-10
5.00008e-06
-3.17055e-10
5.0001e-06
-3.80298e-10
5.00013e-06
-4.60974e-10
5.00016e-06
-5.43056e-10
5.0002e-06
-6.56394e-10
5.00025e-06
-7.61122e-10
5.0003e-06
-9.24677e-10
5.00036e-06
-1.05143e-09
5.00042e-06
-1.29507e-09
5.0005e-06
-1.42911e-09
5.00058e-06
-1.80763e-09
5.00067e-06
-1.90033e-09
-2.51567e-09
5e-06
-1.74532e-11
5e-06
-5.27993e-11
5.00001e-06
-8.87517e-11
5.00001e-06
-1.27669e-10
5.00002e-06
-1.69052e-10
5.00002e-06
-2.16412e-10
5.00003e-06
-2.67512e-10
5.00005e-06
-3.29057e-10
5.00006e-06
-3.94615e-10
5.00008e-06
-4.78029e-10
5.0001e-06
-5.63147e-10
5.00012e-06
-6.79826e-10
5.00015e-06
-7.88296e-10
5.00018e-06
-9.55945e-10
5.00022e-06
-1.08687e-09
5.00026e-06
-1.33475e-09
5.0003e-06
-1.47286e-09
5.00035e-06
-1.85477e-09
5.00039e-06
-1.94772e-09
-2.57163e-09
5e-06
-1.76136e-11
5e-06
-5.33818e-11
5e-06
-8.9878e-11
5e-06
-1.29311e-10
5.00001e-06
-1.7126e-10
5.00001e-06
-2.19134e-10
5.00001e-06
-2.70852e-10
5.00002e-06
-3.33026e-10
5.00002e-06
-3.99399e-10
5.00003e-06
-4.83711e-10
5.00003e-06
-5.6983e-10
5.00004e-06
-6.87674e-10
5.00005e-06
-7.97434e-10
5.00006e-06
-9.66347e-10
5.00007e-06
-1.09868e-09
5.00009e-06
-1.34787e-09
5.0001e-06
-1.48733e-09
5.00012e-06
-1.87005e-09
5.00013e-06
-1.96488e-09
-2.58789e-09
5e-06
-1.73949e-11
5e-06
-5.2699e-11
5e-06
-8.8805e-11
5e-06
-1.27724e-10
4.99999e-06
-1.69167e-10
4.99999e-06
-2.16451e-10
4.99999e-06
-2.67585e-10
4.99998e-06
-3.28992e-10
4.99998e-06
-3.94612e-10
4.99997e-06
-4.78024e-10
4.99997e-06
-5.63087e-10
4.99996e-06
-6.79881e-10
4.99995e-06
-7.88382e-10
4.99994e-06
-9.55906e-10
4.99993e-06
-1.08675e-09
4.99991e-06
-1.33458e-09
4.9999e-06
-1.4727e-09
4.99988e-06
-1.85465e-09
4.99987e-06
-1.94768e-09
-2.57151e-09
5e-06
-1.68061e-11
5e-06
-5.08768e-11
4.99999e-06
-8.56306e-11
4.99999e-06
-1.22921e-10
4.99998e-06
-1.62761e-10
4.99998e-06
-2.08341e-10
4.99997e-06
-2.57678e-10
4.99995e-06
-3.16978e-10
4.99994e-06
-3.80221e-10
4.99992e-06
-4.60975e-10
4.9999e-06
-5.42985e-10
4.99988e-06
-6.56344e-10
4.99985e-06
-7.61163e-10
4.99982e-06
-9.24686e-10
4.99978e-06
-1.05134e-09
4.99974e-06
-1.29483e-09
4.9997e-06
-1.42889e-09
4.99965e-06
-1.80746e-09
4.99961e-06
-1.90025e-09
-2.51548e-09
5e-06
-1.5786e-11
5e-06
-4.7898e-11
4.99999e-06
-8.05002e-11
4.99998e-06
-1.15324e-10
4.99997e-06
-1.52497e-10
4.99996e-06
-1.95226e-10
4.99994e-06
-2.41369e-10
4.99992e-06
-2.9716e-10
4.9999e-06
-3.56331e-10
4.99987e-06
-4.32555e-10
4.99984e-06
-5.09612e-10
4.9998e-06
-6.17091e-10
4.99975e-06
-7.15745e-10
4.9997e-06
-8.72318e-10
4.99964e-06
-9.92165e-10
4.99958e-06
-1.22811e-09
4.9995e-06
-1.35586e-09
4.99942e-06
-1.72669e-09
4.99933e-06
-1.81196e-09
-2.44128e-09
5e-06
-1.40209e-11
4.99999e-06
-4.34051e-11
4.99999e-06
-7.31482e-11
4.99998e-06
-1.05309e-10
4.99996e-06
-1.39115e-10
4.99995e-06
-1.78229e-10
4.99992e-06
-2.19924e-10
4.9999e-06
-2.70989e-10
4.99987e-06
-3.24438e-10
4.99983e-06
-3.94318e-10
4.99978e-06
-4.64124e-10
4.99973e-06
-5.63768e-10
4.99967e-06
-6.53115e-10
4.99959e-06
-8.00212e-10
4.99951e-06
-9.09059e-10
4.99942e-06
-1.13487e-09
4.99931e-06
-1.25148e-09
4.9992e-06
-1.61596e-09
4.99909e-06
-1.69697e-09
-2.29265e-09
5e-06
-1.1735e-11
4.99999e-06
-3.662e-11
4.99998e-06
-6.22912e-11
4.99997e-06
-9.04185e-11
4.99995e-06
-1.20229e-10
4.99992e-06
-1.54842e-10
4.99989e-06
-1.91393e-10
4.99986e-06
-2.36509e-10
4.99982e-06
-2.83648e-10
4.99977e-06
-3.45369e-10
4.99971e-06
-4.06632e-10
4.99964e-06
-4.9557e-10
4.99957e-06
-5.74228e-10
4.99947e-06
-7.07405e-10
4.99937e-06
-8.0383e-10
4.99925e-06
-1.01296e-09
4.99911e-06
-1.11684e-09
4.99896e-06
-1.4616e-09
4.99879e-06
-1.53258e-09
-2.16199e-09
5e-06
-1.26416e-11
5e-06
-3.34142e-11
4.99999e-06
-5.46246e-11
4.99998e-06
-7.79082e-11
4.99996e-06
-1.02305e-10
4.99994e-06
-1.30526e-10
4.9999e-06
-1.60258e-10
4.99987e-06
-1.97631e-10
4.99982e-06
-2.36274e-10
4.99976e-06
-2.8878e-10
4.99969e-06
-3.38301e-10
4.99961e-06
-4.15236e-10
4.99952e-06
-4.78411e-10
4.99941e-06
-5.96532e-10
4.99928e-06
-6.73054e-10
4.99913e-06
-8.65364e-10
4.99896e-06
-9.47175e-10
4.99878e-06
-1.27993e-09
4.99858e-06
-1.33115e-09
-1.89716e-09
4.99999e-06
-4.63567e-12
4.99998e-06
-2.04468e-11
4.99996e-06
-3.78675e-11
4.99994e-06
-5.69179e-11
4.99992e-06
-7.67477e-11
4.99988e-06
-9.89601e-11
4.99985e-06
-1.23139e-10
4.9998e-06
-1.52118e-10
4.99975e-06
-1.82306e-10
4.99968e-06
-2.23862e-10
4.99961e-06
-2.62382e-10
4.99952e-06
-3.23322e-10
4.99941e-06
-3.72046e-10
4.99928e-06
-4.67636e-10
4.99913e-06
-5.25978e-10
4.99896e-06
-6.86979e-10
4.99876e-06
-7.48177e-10
4.99852e-06
-1.04113e-09
4.99827e-06
-1.08305e-09
-1.68888e-09
5.00001e-06
-1.17918e-11
5.00001e-06
-1.91195e-11
5e-06
-2.94309e-11
4.99998e-06
-4.18356e-11
4.99996e-06
-5.42628e-11
4.99993e-06
-6.91872e-11
4.99989e-06
-8.49015e-11
4.99984e-06
-1.05393e-10
4.99979e-06
-1.23469e-10
4.99971e-06
-1.53087e-10
4.99963e-06
-1.77075e-10
4.99953e-06
-2.22093e-10
4.99941e-06
-2.50418e-10
4.99926e-06
-3.24199e-10
4.99909e-06
-3.54075e-10
4.99889e-06
-4.86153e-10
4.99865e-06
-5.09381e-10
4.99838e-06
-7.67776e-10
4.99805e-06
-7.59785e-10
-1.26137e-09
4.99998e-06
9.96415e-12
4.99996e-06
-4.49723e-12
4.99995e-06
-1.29012e-11
4.99992e-06
-1.93729e-11
4.9999e-06
-2.66427e-11
4.99986e-06
-3.05625e-11
4.99982e-06
-4.39458e-11
4.99977e-06
-5.53431e-11
4.99971e-06
-6.2647e-11
4.99963e-06
-7.81542e-11
4.99955e-06
-9.02222e-11
4.99944e-06
-1.14133e-10
4.99932e-06
-1.27071e-10
4.99916e-06
-1.67972e-10
4.99898e-06
-1.78225e-10
4.99875e-06
-2.56968e-10
4.9985e-06
-2.56332e-10
4.99817e-06
-4.31797e-10
4.99782e-06
-4.1418e-10
-8.91511e-10
5.00001e-06
5.00001e-06
4.99999e-06
4.99997e-06
4.99995e-06
4.99991e-06
4.99987e-06
4.99982e-06
4.99975e-06
4.99968e-06
4.99959e-06
4.99947e-06
4.99934e-06
4.99918e-06
4.999e-06
4.99874e-06
4.99848e-06
4.99805e-06
4.99764e-06
)
;

boundaryField
{
    sides
    {
        type            calculated;
        value           uniform 0;
    }
    inlet
    {
        type            calculated;
        value           nonuniform List<scalar> 
20
(
-5e-06
-5e-06
-5e-06
-5e-06
-5e-06
-5e-06
-5e-06
-5e-06
-5e-06
-5e-06
-5e-06
-5e-06
-5e-06
-5e-06
-5e-06
-5e-06
-5e-06
-5e-06
-5e-06
-5e-06
)
;
    }
    outlet
    {
        type            calculated;
        value           nonuniform List<scalar> 
20
(
5.00325e-06
5.00255e-06
5.00237e-06
5.00194e-06
5.00169e-06
5.00134e-06
5.00106e-06
5.00074e-06
5.00045e-06
5.00015e-06
4.99985e-06
4.99955e-06
4.99926e-06
4.99894e-06
4.99866e-06
4.99831e-06
4.99806e-06
4.99763e-06
4.99745e-06
4.99675e-06
)
;
    }
    frontAndBack
    {
        type            empty;
        value           nonuniform 0();
    }
}


// ************************************************************************* //
