/*--------------------------------*- C++ -*----------------------------------*\
  =========                 |
  \\      /  F ield         | OpenFOAM: The Open Source CFD Toolbox
   \\    /   O peration     | Website:  https://openfoam.org
    \\  /    A nd           | Version:  7
     \\/     M anipulation  |
\*---------------------------------------------------------------------------*/
FoamFile
{
    version     2.0;
    format      ascii;
    class       volVectorField;
    location    "85";
    object      U;
}
// * * * * * * * * * * * * * * * * * * * * * * * * * * * * * * * * * * * * * //

dimensions      [0 1 -1 0 0 0 0];

internalField   nonuniform List<vector> 
400
(
(0.0999931 -8.72629e-07 0)
(0.099993 -2.37668e-06 0)
(0.0999931 -3.60368e-06 0)
(0.0999934 -4.67647e-06 0)
(0.0999939 -5.69001e-06 0)
(0.0999947 -6.7378e-06 0)
(0.0999955 -7.80123e-06 0)
(0.0999966 -8.9131e-06 0)
(0.0999978 -9.98718e-06 0)
(0.0999996 -1.11888e-05 0)
(0.100001 -1.22645e-05 0)
(0.100004 -1.36162e-05 0)
(0.100006 -1.46536e-05 0)
(0.10001 -1.63364e-05 0)
(0.100013 -1.72195e-05 0)
(0.10002 -1.96327e-05 0)
(0.100022 -2.00812e-05 0)
(0.100035 -2.43035e-05 0)
(0.100036 -2.39146e-05 0)
(0.10006 -3.31811e-05 0)
(0.0999943 3.99887e-07 0)
(0.0999947 1.21116e-06 0)
(0.0999952 2.01987e-06 0)
(0.0999958 2.79099e-06 0)
(0.0999963 3.51413e-06 0)
(0.099997 4.16862e-06 0)
(0.0999978 4.77169e-06 0)
(0.0999988 5.30794e-06 0)
(0.1 5.84457e-06 0)
(0.100002 6.22898e-06 0)
(0.100003 6.69346e-06 0)
(0.100006 6.85511e-06 0)
(0.100008 7.26626e-06 0)
(0.100012 6.98498e-06 0)
(0.100014 7.40019e-06 0)
(0.10002 6.16486e-06 0)
(0.100024 6.71429e-06 0)
(0.100033 3.17529e-06 0)
(0.100036 3.98574e-06 0)
(0.10005 -5.45689e-06 0)
(0.0999948 -3.97576e-07 0)
(0.0999947 -1.30455e-06 0)
(0.0999947 -2.31028e-06 0)
(0.099995 -3.37033e-06 0)
(0.0999953 -4.42631e-06 0)
(0.099996 -5.50184e-06 0)
(0.0999967 -6.56827e-06 0)
(0.0999977 -7.73304e-06 0)
(0.0999988 -8.88537e-06 0)
(0.1 -1.02519e-05 0)
(0.100002 -1.1525e-05 0)
(0.100004 -1.32413e-05 0)
(0.100006 -1.46527e-05 0)
(0.10001 -1.70062e-05 0)
(0.100013 -1.85177e-05 0)
(0.100018 -2.2119e-05 0)
(0.100021 -2.35718e-05 0)
(0.100029 -2.97603e-05 0)
(0.100032 -3.0619e-05 0)
(0.100046 -4.2211e-05 0)
(0.0999956 -1.83134e-08 0)
(0.0999958 -8.67922e-09 0)
(0.0999962 5.67763e-08 0)
(0.0999966 1.27196e-07 0)
(0.0999972 1.95396e-07 0)
(0.0999978 1.86077e-07 0)
(0.0999986 1.5158e-07 0)
(0.0999995 -3.4101e-08 0)
(0.100001 -2.40397e-07 0)
(0.100002 -7.05397e-07 0)
(0.100003 -1.1201e-06 0)
(0.100005 -2.04752e-06 0)
(0.100007 -2.71971e-06 0)
(0.10001 -4.4322e-06 0)
(0.100013 -5.36089e-06 0)
(0.100017 -8.50507e-06 0)
(0.10002 -9.55405e-06 0)
(0.100027 -1.54708e-05 0)
(0.100029 -1.60951e-05 0)
(0.100039 -2.75784e-05 0)
(0.0999963 -2.91889e-07 0)
(0.0999963 -9.26854e-07 0)
(0.0999964 -1.63423e-06 0)
(0.0999966 -2.44107e-06 0)
(0.0999969 -3.30806e-06 0)
(0.0999974 -4.28073e-06 0)
(0.099998 -5.28625e-06 0)
(0.0999988 -6.4552e-06 0)
(0.0999997 -7.64578e-06 0)
(0.100001 -9.1197e-06 0)
(0.100002 -1.05589e-05 0)
(0.100004 -1.254e-05 0)
(0.100006 -1.42762e-05 0)
(0.100008 -1.70988e-05 0)
(0.100011 -1.91298e-05 0)
(0.100014 -2.34406e-05 0)
(0.100017 -2.55843e-05 0)
(0.100022 -3.26592e-05 0)
(0.100024 -3.41526e-05 0)
(0.100033 -4.64323e-05 0)
(0.099997 -2.57366e-07 0)
(0.099997 -7.58997e-07 0)
(0.0999972 -1.22946e-06 0)
(0.0999975 -1.70446e-06 0)
(0.0999979 -2.17956e-06 0)
(0.0999984 -2.73071e-06 0)
(0.099999 -3.32003e-06 0)
(0.0999997 -4.0818e-06 0)
(0.1 -4.88575e-06 0)
(0.100002 -6.00847e-06 0)
(0.100003 -7.1255e-06 0)
(0.100004 -8.82444e-06 0)
(0.100006 -1.03236e-05 0)
(0.100008 -1.29548e-05 0)
(0.10001 -1.48446e-05 0)
(0.100013 -1.90398e-05 0)
(0.100015 -2.11081e-05 0)
(0.100019 -2.80559e-05 0)
(0.100021 -2.94526e-05 0)
(0.100027 -4.14884e-05 0)
(0.0999976 -2.90829e-07 0)
(0.0999977 -8.93109e-07 0)
(0.0999978 -1.52616e-06 0)
(0.099998 -2.23137e-06 0)
(0.0999983 -3.00377e-06 0)
(0.0999986 -3.89914e-06 0)
(0.0999991 -4.87402e-06 0)
(0.0999996 -6.0456e-06 0)
(0.1 -7.2855e-06 0)
(0.100001 -8.86403e-06 0)
(0.100002 -1.04491e-05 0)
(0.100003 -1.26394e-05 0)
(0.100004 -1.46379e-05 0)
(0.100006 -1.77937e-05 0)
(0.100007 -2.0194e-05 0)
(0.10001 -2.49327e-05 0)
(0.100011 -2.74801e-05 0)
(0.100015 -3.49609e-05 0)
(0.100016 -3.67236e-05 0)
(0.100021 -4.92095e-05 0)
(0.0999983 -3.21478e-07 0)
(0.0999984 -9.81975e-07 0)
(0.0999985 -1.6659e-06 0)
(0.0999986 -2.40539e-06 0)
(0.0999988 -3.18896e-06 0)
(0.099999 -4.07347e-06 0)
(0.0999994 -5.01746e-06 0)
(0.0999998 -6.14699e-06 0)
(0.1 -7.34364e-06 0)
(0.100001 -8.87835e-06 0)
(0.100002 -1.04312e-05 0)
(0.100002 -1.26002e-05 0)
(0.100003 -1.45958e-05 0)
(0.100004 -1.7755e-05 0)
(0.100005 -2.01855e-05 0)
(0.100007 -2.49403e-05 0)
(0.100008 -2.75346e-05 0)
(0.100011 -3.49884e-05 0)
(0.100012 -3.6763e-05 0)
(0.100015 -4.90719e-05 0)
(0.099999 -3.39445e-07 0)
(0.099999 -1.03248e-06 0)
(0.0999991 -1.74401e-06 0)
(0.0999992 -2.51179e-06 0)
(0.0999993 -3.32454e-06 0)
(0.0999994 -4.25151e-06 0)
(0.0999996 -5.25104e-06 0)
(0.0999999 -6.45679e-06 0)
(0.1 -7.7462e-06 0)
(0.100001 -9.39216e-06 0)
(0.100001 -1.10733e-05 0)
(0.100001 -1.33899e-05 0)
(0.100002 -1.55399e-05 0)
(0.100003 -1.88778e-05 0)
(0.100003 -2.14811e-05 0)
(0.100004 -2.64348e-05 0)
(0.100005 -2.91876e-05 0)
(0.100006 -3.6842e-05 0)
(0.100007 -3.87197e-05 0)
(0.100009 -5.12371e-05 0)
(0.0999997 -3.47285e-07 0)
(0.0999997 -1.0564e-06 0)
(0.0999997 -1.78319e-06 0)
(0.0999997 -2.56874e-06 0)
(0.0999998 -3.40355e-06 0)
(0.0999998 -4.35825e-06 0)
(0.0999999 -5.39063e-06 0)
(0.1 -6.63314e-06 0)
(0.1 -7.96106e-06 0)
(0.1 -9.64625e-06 0)
(0.1 -1.13681e-05 0)
(0.1 -1.37228e-05 0)
(0.100001 -1.59141e-05 0)
(0.100001 -1.92884e-05 0)
(0.100001 -2.19336e-05 0)
(0.100001 -2.69151e-05 0)
(0.100002 -2.97074e-05 0)
(0.100002 -3.73673e-05 0)
(0.100002 -3.9274e-05 0)
(0.100003 -5.17343e-05 0)
(0.1 -3.47172e-07 0)
(0.1 -1.05567e-06 0)
(0.1 -1.78377e-06 0)
(0.1 -2.56855e-06 0)
(0.1 -3.40424e-06 0)
(0.1 -4.35814e-06 0)
(0.1 -5.39098e-06 0)
(0.1 -6.63293e-06 0)
(0.0999999 -7.96039e-06 0)
(0.0999998 -9.64647e-06 0)
(0.0999997 -1.13674e-05 0)
(0.0999995 -1.37223e-05 0)
(0.0999993 -1.59152e-05 0)
(0.0999991 -1.92891e-05 0)
(0.0999989 -2.19331e-05 0)
(0.0999986 -2.69142e-05 0)
(0.0999983 -2.97066e-05 0)
(0.0999979 -3.73658e-05 0)
(0.0999977 -3.92718e-05 0)
(0.0999971 -5.17328e-05 0)
(0.100001 -3.39041e-07 0)
(0.100001 -1.03197e-06 0)
(0.100001 -1.7446e-06 0)
(0.100001 -2.51094e-06 0)
(0.100001 -3.32508e-06 0)
(0.100001 -4.25121e-06 0)
(0.1 -5.25146e-06 0)
(0.1 -6.45684e-06 0)
(0.0999998 -7.74459e-06 0)
(0.0999995 -9.39227e-06 0)
(0.0999991 -1.10724e-05 0)
(0.0999986 -1.33885e-05 0)
(0.099998 -1.55409e-05 0)
(0.0999973 -1.88785e-05 0)
(0.0999967 -2.148e-05 0)
(0.0999957 -2.64318e-05 0)
(0.099995 -2.91846e-05 0)
(0.0999936 -3.68361e-05 0)
(0.0999932 -3.87129e-05 0)
(0.0999912 -5.12294e-05 0)
(0.100002 -3.2169e-07 0)
(0.100002 -9.82888e-07 0)
(0.100002 -1.66476e-06 0)
(0.100001 -2.40441e-06 0)
(0.100001 -3.18731e-06 0)
(0.100001 -4.07373e-06 0)
(0.100001 -5.01719e-06 0)
(0.1 -6.14853e-06 0)
(0.0999997 -7.34292e-06 0)
(0.0999991 -8.8776e-06 0)
(0.0999985 -1.04318e-05 0)
(0.0999976 -1.26002e-05 0)
(0.0999968 -1.45961e-05 0)
(0.0999956 -1.7756e-05 0)
(0.0999945 -2.01867e-05 0)
(0.0999929 -2.49402e-05 0)
(0.0999917 -2.75347e-05 0)
(0.0999894 -3.49869e-05 0)
(0.0999885 -3.67608e-05 0)
(0.0999853 -4.90694e-05 0)
(0.100002 -2.92178e-07 0)
(0.100002 -8.93997e-07 0)
(0.100002 -1.52461e-06 0)
(0.100002 -2.23093e-06 0)
(0.100002 -3.00095e-06 0)
(0.100001 -3.90058e-06 0)
(0.100001 -4.87337e-06 0)
(0.1 -6.04738e-06 0)
(0.0999998 -7.28747e-06 0)
(0.099999 -8.86184e-06 0)
(0.0999981 -1.0448e-05 0)
(0.0999969 -1.26383e-05 0)
(0.0999957 -1.46359e-05 0)
(0.0999941 -1.77909e-05 0)
(0.0999926 -2.01923e-05 0)
(0.0999903 -2.4929e-05 0)
(0.0999887 -2.74773e-05 0)
(0.0999853 -3.49539e-05 0)
(0.0999843 -3.67164e-05 0)
(0.0999793 -4.91954e-05 0)
(0.100003 -2.58509e-07 0)
(0.100003 -7.58971e-07 0)
(0.100003 -1.22984e-06 0)
(0.100002 -1.70481e-06 0)
(0.100002 -2.18029e-06 0)
(0.100002 -2.73232e-06 0)
(0.100001 -3.32131e-06 0)
(0.1 -4.08177e-06 0)
(0.0999995 -4.8913e-06 0)
(0.0999985 -6.01092e-06 0)
(0.0999973 -7.12613e-06 0)
(0.0999959 -8.82551e-06 0)
(0.0999944 -1.03247e-05 0)
(0.0999923 -1.29555e-05 0)
(0.0999904 -1.48467e-05 0)
(0.0999874 -1.90421e-05 0)
(0.0999853 -2.11117e-05 0)
(0.0999811 -2.80579e-05 0)
(0.0999793 -2.94548e-05 0)
(0.0999733 -4.14875e-05 0)
(0.100004 -2.90183e-07 0)
(0.100004 -9.25574e-07 0)
(0.100004 -1.63666e-06 0)
(0.100003 -2.44254e-06 0)
(0.100003 -3.31234e-06 0)
(0.100003 -4.2766e-06 0)
(0.100002 -5.28847e-06 0)
(0.100001 -6.44875e-06 0)
(0.1 -7.64494e-06 0)
(0.0999991 -9.12278e-06 0)
(0.0999978 -1.05597e-05 0)
(0.099996 -1.25389e-05 0)
(0.0999942 -1.42754e-05 0)
(0.0999916 -1.70963e-05 0)
(0.0999895 -1.91287e-05 0)
(0.0999856 -2.34375e-05 0)
(0.0999833 -2.55829e-05 0)
(0.0999776 -3.26522e-05 0)
(0.099976 -3.41479e-05 0)
(0.0999673 -4.64174e-05 0)
(0.100004 -1.4254e-08 0)
(0.100004 -7.05658e-09 0)
(0.100004 5.20479e-08 0)
(0.100003 1.22833e-07 0)
(0.100003 1.91658e-07 0)
(0.100002 1.92824e-07 0)
(0.100001 1.48534e-07 0)
(0.100001 -3.21044e-08 0)
(0.0999994 -2.34644e-07 0)
(0.0999981 -7.0672e-07 0)
(0.0999966 -1.12229e-06 0)
(0.0999946 -2.04798e-06 0)
(0.0999926 -2.72007e-06 0)
(0.0999897 -4.43135e-06 0)
(0.0999871 -5.36074e-06 0)
(0.0999828 -8.50378e-06 0)
(0.0999798 -9.55356e-06 0)
(0.0999734 -1.54677e-05 0)
(0.0999707 -1.60935e-05 0)
(0.0999614 -2.7573e-05 0)
(0.100005 -3.98118e-07 0)
(0.100005 -1.30519e-06 0)
(0.100005 -2.3096e-06 0)
(0.100005 -3.37128e-06 0)
(0.100005 -4.42295e-06 0)
(0.100004 -5.49884e-06 0)
(0.100003 -6.56975e-06 0)
(0.100002 -7.74144e-06 0)
(0.100001 -8.88276e-06 0)
(0.0999996 -1.02491e-05 0)
(0.099998 -1.15262e-05 0)
(0.0999957 -1.32429e-05 0)
(0.0999936 -1.46554e-05 0)
(0.0999901 -1.70071e-05 0)
(0.0999875 -1.85199e-05 0)
(0.0999821 -2.21179e-05 0)
(0.0999791 -2.35736e-05 0)
(0.0999706 -2.97572e-05 0)
(0.0999684 -3.062e-05 0)
(0.0999544 -4.22038e-05 0)
(0.100006 3.95286e-07 0)
(0.100005 1.20772e-06 0)
(0.100005 2.02641e-06 0)
(0.100004 2.79802e-06 0)
(0.100004 3.51804e-06 0)
(0.100003 4.15054e-06 0)
(0.100002 4.7813e-06 0)
(0.100001 5.30417e-06 0)
(0.1 5.83855e-06 0)
(0.0999984 6.23218e-06 0)
(0.0999967 6.69498e-06 0)
(0.0999943 6.85553e-06 0)
(0.0999921 7.26609e-06 0)
(0.0999885 6.98707e-06 0)
(0.0999855 7.40269e-06 0)
(0.0999799 6.171e-06 0)
(0.0999764 6.71858e-06 0)
(0.0999674 3.18348e-06 0)
(0.0999642 3.99125e-06 0)
(0.09995 -5.44446e-06 0)
(0.100007 -8.74694e-07 0)
(0.100007 -2.37919e-06 0)
(0.100007 -3.60157e-06 0)
(0.100007 -4.67297e-06 0)
(0.100006 -5.69263e-06 0)
(0.100005 -6.759e-06 0)
(0.100005 -7.79533e-06 0)
(0.100003 -8.91545e-06 0)
(0.100002 -9.99845e-06 0)
(0.1 -1.11944e-05 0)
(0.0999988 -1.22702e-05 0)
(0.0999961 -1.36227e-05 0)
(0.0999941 -1.46607e-05 0)
(0.0999898 -1.6343e-05 0)
(0.0999874 -1.72261e-05 0)
(0.0999803 -1.9639e-05 0)
(0.0999779 -2.00885e-05 0)
(0.0999653 -2.4312e-05 0)
(0.0999638 -2.39235e-05 0)
(0.0999402 -3.31945e-05 0)
)
;

boundaryField
{
    sides
    {
        type            calculated;
        value           nonuniform List<vector> 
40
(
(0.100007 0 0)
(0.100007 0 0)
(0.100007 0 0)
(0.100007 0 0)
(0.100006 0 0)
(0.100005 0 0)
(0.100005 0 0)
(0.100003 0 0)
(0.100002 0 0)
(0.1 0 0)
(0.0999988 0 0)
(0.0999961 0 0)
(0.0999941 0 0)
(0.0999898 0 0)
(0.0999874 0 0)
(0.0999803 0 0)
(0.0999779 0 0)
(0.0999653 0 0)
(0.0999638 0 0)
(0.0999402 0 0)
(0.0999931 0 0)
(0.099993 0 0)
(0.0999931 0 0)
(0.0999934 0 0)
(0.0999939 0 0)
(0.0999947 0 0)
(0.0999955 0 0)
(0.0999966 0 0)
(0.0999978 0 0)
(0.0999996 0 0)
(0.100001 0 0)
(0.100004 0 0)
(0.100006 0 0)
(0.10001 0 0)
(0.100013 0 0)
(0.10002 0 0)
(0.100022 0 0)
(0.100035 0 0)
(0.100036 0 0)
(0.10006 0 0)
)
;
    }
    inlet
    {
        type            calculated;
        value           nonuniform List<vector> 
20
(
(0.0999931 0 0)
(0.0999943 0 0)
(0.0999948 0 0)
(0.0999956 0 0)
(0.0999963 0 0)
(0.0999969 0 0)
(0.0999976 0 0)
(0.0999983 0 0)
(0.099999 0 0)
(0.0999997 0 0)
(0.1 0 0)
(0.100001 0 0)
(0.100002 0 0)
(0.100002 0 0)
(0.100003 0 0)
(0.100004 0 0)
(0.100004 0 0)
(0.100005 0 0)
(0.100006 0 0)
(0.100007 0 0)
)
;
    }
    outlet
    {
        type            calculated;
        value           nonuniform List<vector> 
20
(
(0.100061 -3.31814e-05 0)
(0.10005 -5.45692e-06 0)
(0.100046 -4.22112e-05 0)
(0.100039 -2.75784e-05 0)
(0.100033 -4.64324e-05 0)
(0.100027 -4.14884e-05 0)
(0.100021 -4.92096e-05 0)
(0.100015 -4.90719e-05 0)
(0.100009 -5.12371e-05 0)
(0.100003 -5.17343e-05 0)
(0.099997 -5.17328e-05 0)
(0.0999911 -5.12294e-05 0)
(0.0999852 -4.90694e-05 0)
(0.0999792 -4.91953e-05 0)
(0.0999731 -4.14874e-05 0)
(0.099967 -4.64173e-05 0)
(0.0999611 -2.75729e-05 0)
(0.0999539 -4.22036e-05 0)
(0.0999495 -5.44444e-06 0)
(0.0999394 -3.31943e-05 0)
)
;
    }
    frontAndBack
    {
        type            empty;
    }
}


// ************************************************************************* //
