/*--------------------------------*- C++ -*----------------------------------*\
  =========                 |
  \\      /  F ield         | OpenFOAM: The Open Source CFD Toolbox
   \\    /   O peration     | Website:  https://openfoam.org
    \\  /    A nd           | Version:  7
     \\/     M anipulation  |
\*---------------------------------------------------------------------------*/
FoamFile
{
    version     2.0;
    format      ascii;
    class       volScalarField;
    location    "100";
    object      epsilon;
}
// * * * * * * * * * * * * * * * * * * * * * * * * * * * * * * * * * * * * * //

dimensions      [0 2 -3 0 0 0 0];

internalField   nonuniform List<scalar> 
96800
(
0.000413595
0.000413165
0.000411765
0.000411098
0.000411352
0.000412012
0.00041261
0.000412806
0.000412544
0.000411976
0.000411313
0.000410676
0.000410287
0.000410426
0.000411391
0.000412948
0.000414685
0.000416212
0.000417824
0.000420208
0.000423831
0.000429161
0.000416191
0.000417368
0.000415684
0.000414462
0.000414096
0.000414348
0.000414714
0.000414804
0.000414493
0.000413943
0.000413325
0.000412748
0.000412378
0.000412525
0.000413387
0.00041488
0.000416553
0.000418072
0.000419758
0.000422261
0.000425736
0.000429025
0.000419888
0.000421112
0.00041847
0.000415838
0.000414173
0.000413483
0.000413261
0.000413064
0.000412728
0.000412255
0.000411777
0.000411356
0.000411081
0.000411218
0.000411932
0.000413158
0.000414569
0.000415994
0.000417814
0.000420604
0.000424138
0.000426591
0.000423829
0.0004247
0.000420882
0.000416778
0.000413777
0.00041209
0.000411265
0.000410824
0.000410459
0.000410086
0.000409756
0.000409526
0.00040945
0.000409638
0.000410192
0.000411053
0.00041202
0.000413174
0.000415044
0.000418152
0.000422057
0.000424654
0.000426555
0.000427057
0.000422287
0.00041708
0.000413124
0.000410741
0.000409515
0.000408927
0.000408572
0.000408299
0.000408087
0.000408033
0.000408189
0.000408521
0.000408999
0.000409503
0.000409977
0.000410741
0.000412498
0.000415815
0.000420136
0.00042306
0.000427989
0.000428172
0.000422698
0.000416769
0.000412291
0.000409582
0.000408179
0.000407549
0.000407296
0.000407142
0.000407048
0.000407132
0.000407477
0.000408028
0.000408529
0.000408798
0.000408881
0.000409285
0.000410893
0.000414385
0.000419094
0.000422349
0.00042882
0.0004287
0.000422619
0.000416126
0.000411319
0.000408498
0.000407086
0.000406536
0.000406465
0.000406507
0.000406595
0.000406823
0.000407312
0.000408008
0.000408571
0.000408743
0.000408627
0.000408872
0.000410497
0.000414251
0.000419402
0.000423047
0.000429811
0.000429369
0.000422608
0.000415543
0.000410416
0.0004075
0.000406166
0.000405773
0.000405908
0.000406244
0.00040661
0.000407054
0.000407658
0.000408354
0.000408885
0.000409
0.000408821
0.000409118
0.000410969
0.000415185
0.000420988
0.000425185
0.000431194
0.000430441
0.000422964
0.000415298
0.000409831
0.00040681
0.00040554
0.000405304
0.000405647
0.00040631
0.000407024
0.000407723
0.000408387
0.000408955
0.000409281
0.000409225
0.00040899
0.000409395
0.000411599
0.000416452
0.000423037
0.000427828
0.000432839
0.000431797
0.000423675
0.00041543
0.000409665
0.000406586
0.00040535
0.000405199
0.000405696
0.000406641
0.000407711
0.000408636
0.000409294
0.00040963
0.000409542
0.00040913
0.000408734
0.000409201
0.000411758
0.000417242
0.000424554
0.000429848
0.000434522
0.000433234
0.00042458
0.000415856
0.000409863
0.000406804
0.00040564
0.000405543
0.000406116
0.000407192
0.000408461
0.000409519
0.000410096
0.000410068
0.000409487
0.000408647
0.000408051
0.000408552
0.000411366
0.000417343
0.000425207
0.000430906
0.000436137
0.000434653
0.000425564
0.000416503
0.00041041
0.000407432
0.000406411
0.000406365
0.000406885
0.000407879
0.000409073
0.00041006
0.000410482
0.000410102
0.000409126
0.000407963
0.000407258
0.000407827
0.000410859
0.000417198
0.000425499
0.000431545
0.000437616
0.000436022
0.000426649
0.000417381
0.000411285
0.000408422
0.000407561
0.000407549
0.000407892
0.000408584
0.000409422
0.000410081
0.000410259
0.000409709
0.000408604
0.000407388
0.000406762
0.000407493
0.000410771
0.000417405
0.000426099
0.000432502
0.000439156
0.000437492
0.000427987
0.000418604
0.000412483
0.000409686
0.000408888
0.00040886
0.000408986
0.000409202
0.000409478
0.000409691
0.000409624
0.000409092
0.000408159
0.000407206
0.000406824
0.00040777
0.000411313
0.000418319
0.000427504
0.000434339
0.000441358
0.000439588
0.000429869
0.000420252
0.000413908
0.00041097
0.000410076
0.00040993
0.000409774
0.000409503
0.000409232
0.000409064
0.000408917
0.000408583
0.000408025
0.000407477
0.00040743
0.000408664
0.000412579
0.000420101
0.000429917
0.000437255
0.000444735
0.000442775
0.000432499
0.000422251
0.000415346
0.000411986
0.000410792
0.000410409
0.000410033
0.000409441
0.000408837
0.000408516
0.000408485
0.000408432
0.000408269
0.000408144
0.000408431
0.000410029
0.000414434
0.000422645
0.000433286
0.000441239
0.000448889
0.000446627
0.000435492
0.000424272
0.000416559
0.000412611
0.000411037
0.000410415
0.000409962
0.000409319
0.000408697
0.000408437
0.000408496
0.000408604
0.000408732
0.000408941
0.000409575
0.000411625
0.000416614
0.00042564
0.000437291
0.000446026
0.000452604
0.000449984
0.000438018
0.000425865
0.000417388
0.000412967
0.000411127
0.000410455
0.000410051
0.000409561
0.000409156
0.000409045
0.000409085
0.000409239
0.000409494
0.000409902
0.000410831
0.000413268
0.000418796
0.000428653
0.000441375
0.00045104
0.000455356
0.000452473
0.000439875
0.00042704
0.000418049
0.000413407
0.000411626
0.000411209
0.00041102
0.000410732
0.000410503
0.000410435
0.000410452
0.000410564
0.00041081
0.000411262
0.000412321
0.000414919
0.000420764
0.000431254
0.000444952
0.00045559
0.000458559
0.000455427
0.000442202
0.000428731
0.000419337
0.000414611
0.00041307
0.000412945
0.000413054
0.000413042
0.00041284
0.000412663
0.000412584
0.000412591
0.000412689
0.000413014
0.000413981
0.000416523
0.000422436
0.000433252
0.000447734
0.000459197
0.000464698
0.000461116
0.00044686
0.000432327
0.000422226
0.000417195
0.000415657
0.000415616
0.000415857
0.000416113
0.000416015
0.000415595
0.000415168
0.000414959
0.000414896
0.000415038
0.000415718
0.000418069
0.000423904
0.000434876
0.00044989
0.000461885
0.00047559
0.000471285
0.000455333
0.00043896
0.000427474
0.000421602
0.000419592
0.000419381
0.000419591
0.000419862
0.000419885
0.000419298
0.000418418
0.00041764
0.000417237
0.000417202
0.000417618
0.0004197
0.000425443
0.000436627
0.000452024
0.000464354
0.000492171
0.000486923
0.00046857
0.000449454
0.000435692
0.000428286
0.000425271
0.000424474
0.000424458
0.00042453
0.00042434
0.000423573
0.000422375
0.000421134
0.000420181
0.000419768
0.00042003
0.000421868
0.000427539
0.000439029
0.000454999
0.000467809
0.000515754
0.000509146
0.000487454
0.000464586
0.000447556
0.000437811
0.000433229
0.000431287
0.000430481
0.000430137
0.000429694
0.000428721
0.000427295
0.000425751
0.000424355
0.000423528
0.00042361
0.00042522
0.000430889
0.000442804
0.00045964
0.000473325
0.000548062
0.000539688
0.000513525
0.00048546
0.000463799
0.000450674
0.000443925
0.000440497
0.000438544
0.000437401
0.000436586
0.000435424
0.000433805
0.000432026
0.000430284
0.000429027
0.000428893
0.000430362
0.000436062
0.000448581
0.000466614
0.000481437
0.000590942
0.000580618
0.000548724
0.000513419
0.000485351
0.000467586
0.00045797
0.000452776
0.000449579
0.000447508
0.000446014
0.000444393
0.000442503
0.000440492
0.000438448
0.000436865
0.000436429
0.000437657
0.000443317
0.000456518
0.000475995
0.000492193
0.000646979
0.000634365
0.00059525
0.000550582
0.000514023
0.00049007
0.000476572
0.000469142
0.000464484
0.00046126
0.000458784
0.000456395
0.00045399
0.000451599
0.000449218
0.000447321
0.000446443
0.000447359
0.000452878
0.000466627
0.00048752
0.000505247
0.00072256
0.000706309
0.000658204
0.000601987
0.000554321
0.000521793
0.000502656
0.000491808
0.000484894
0.000479958
0.000475996
0.000472401
0.000469121
0.000466044
0.000463198
0.000460854
0.000459349
0.000459833
0.00046494
0.000479027
0.000501219
0.000520759
0.000833933
0.000812596
0.000753388
0.000681638
0.000617615
0.000571262
0.000542254
0.000524969
0.000513926
0.000506143
0.000499847
0.000494225
0.000489354
0.000485034
0.000481392
0.000478275
0.000475847
0.000475658
0.000479992
0.000494286
0.000518005
0.000539632
0.00101552
0.000987857
0.000914309
0.000819318
0.000728104
0.000656591
0.00060809
0.000577538
0.000558079
0.000544656
0.000534085
0.000524962
0.000517212
0.000510607
0.000505253
0.000500727
0.000497028
0.000495648
0.00049917
0.000513564
0.000539187
0.000563312
0.00131725
0.00128285
0.00119073
0.00106221
0.000928557
0.000813146
0.000726654
0.000668026
0.000629864
0.000604193
0.000585084
0.000569578
0.000556795
0.000546159
0.000537459
0.000530274
0.0005245
0.000521477
0.000523999
0.000538296
0.00056626
0.00059404
0.00180076
0.00175693
0.00164012
0.00146841
0.00127919
0.0011001
0.000948751
0.000834183
0.000754921
0.000701893
0.000664682
0.000636516
0.00061432
0.000596429
0.000581947
0.000570083
0.000560705
0.000554964
0.000556045
0.000570195
0.000601239
0.000634146
0.00255306
0.00249111
0.00233827
0.00211012
0.00185178
0.00159388
0.00135375
0.00114694
0.000986595
0.000873415
0.000795854
0.00074095
0.000700205
0.000668927
0.000644441
0.000624781
0.000609369
0.000599099
0.000597721
0.000611487
0.00064642
0.000685616
0.00371195
0.00361834
0.00340983
0.00309874
0.00274266
0.00238072
0.00203148
0.00170581
0.00141916
0.00119097
0.00102667
0.000913511
0.000834325
0.000776914
0.000733915
0.000700898
0.000675761
0.000658221
0.000652321
0.000664745
0.000703821
0.000751108
0.00548128
0.00534166
0.005049
0.00461063
0.00410677
0.0035915
0.00309074
0.00261404
0.00216834
0.00177085
0.00144899
0.00121561
0.0010558
0.000945702
0.000867172
0.000809917
0.000768204
0.000738727
0.000724683
0.000734035
0.000777026
0.000834193
0.00815095
0.00795058
0.00753691
0.00691034
0.00618833
0.0054458
0.0047191
0.00402226
0.00336254
0.00274834
0.00220083
0.00175819
0.00143926
0.00122273
0.00107491
0.000972209
0.000900426
0.000850488
0.000822123
0.000825132
0.000871081
0.00094058
0.0121346
0.0118516
0.011277
0.0103899
0.00936161
0.00829396
0.0072343
0.00620487
0.0052224
0.00429905
0.00344761
0.00270143
0.00211054
0.00169098
0.00140906
0.00122088
0.00109418
0.00100834
0.000956343
0.000947005
0.000993037
0.00107806
0.0180187
0.0176389
0.0168818
0.015658
0.0142173
0.0126939
0.0111482
0.00961874
0.00814041
0.00673615
0.00542705
0.00424457
0.00324791
0.00248609
0.0019584
0.00161089
0.00138422
0.00123608
0.00114546
0.00111456
0.00115614
0.0012556
0.0266745
0.0262129
0.0253039
0.0236791
0.0216965
0.0195363
0.0172861
0.0150087
0.012768
0.0106088
0.00857012
0.00670707
0.00509905
0.00381301
0.00287278
0.00223866
0.00182917
0.00157062
0.00141548
0.00134838
0.00138007
0.00148794
0.0395117
0.0390201
0.0380846
0.0360333
0.0333589
0.030319
0.0270474
0.0236481
0.02023
0.0168765
0.0136575
0.0106917
0.00810597
0.0059879
0.0043872
0.00326801
0.00253537
0.0020769
0.00180552
0.00167711
0.0016901
0.00179985
0.0588261
0.0584716
0.0578249
0.0553994
0.0518817
0.0476473
0.0428652
0.0377345
0.0324584
0.0271789
0.022037
0.0172657
0.0130722
0.00958754
0.00689493
0.00496966
0.00367981
0.00286902
0.00238715
0.00214631
0.00212201
0.00223046
0.0882554
0.0886008
0.0889529
0.0863825
0.0819037
0.0759965
0.068836
0.0609228
0.0526567
0.0442564
0.0359916
0.0282564
0.0213984
0.0156424
0.0111089
0.00780144
0.00555534
0.00412822
0.00327933
0.00283596
0.00273589
0.00283407
0.133403
0.135649
0.138946
0.13663
0.131101
0.122567
0.111503
0.0991778
0.086145
0.0727061
0.0593368
0.0466644
0.0353674
0.0258502
0.0182489
0.0125851
0.00867807
0.00616512
0.0046617
0.00386918
0.00362654
0.00369533
0.202794
0.209238
0.21936
0.218294
0.211388
0.198734
0.181683
0.162446
0.141655
0.119867
0.097913
0.0769315
0.0583062
0.0426627
0.0301101
0.0206248
0.0139122
0.00954149
0.0068881
0.0054529
0.00493754
0.00494183
0.309115
0.324102
0.347686
0.350097
0.341788
0.323625
0.297172
0.266111
0.232119
0.19651
0.160543
0.126223
0.0958645
0.0703067
0.0497066
0.0340249
0.0226466
0.0150559
0.0104711
0.0079661
0.00692549
0.00677379
0.470957
0.501964
0.550653
0.562714
0.553553
0.525593
0.481811
0.430013
0.374475
0.317068
0.25925
0.204593
0.156479
0.115686
0.0823522
0.0566013
0.0375362
0.0242792
0.01616
0.0118547
0.00997624
0.00949594
0.714263
0.775529
0.870396
0.902071
0.887705
0.838237
0.765555
0.680507
0.590991
0.499665
0.409117
0.32489
0.25082
0.187381
0.134655
0.0929515
0.0617875
0.0398329
0.0256381
0.0178964
0.0146196
0.013591
1.07777
1.19169
1.36358
1.42018
1.3857
1.299
1.18176
1.04414
0.903707
0.765689
0.631644
0.507153
0.395761
0.29841
0.216753
0.151043
0.100523
0.0645741
0.0412666
0.0277168
0.0217798
0.0196077
1.61573
1.80999
2.08969
2.16827
2.0942
1.94743
1.76013
1.54759
1.33983
1.14075
0.94842
0.769114
0.60692
0.463256
0.342436
0.244352
0.165654
0.10585
0.0668389
0.0439502
0.0332543
0.0283027
2.39058
2.69774
3.10809
3.20868
3.07434
2.82959
2.54179
2.23303
1.93755
1.65664
1.38686
1.13547
0.906463
0.702978
0.531039
0.387949
0.271
0.176818
0.109876
0.0703857
0.0517981
0.0416253
3.47104
3.928
4.48241
4.62028
4.39697
3.99183
3.56466
3.13299
2.72961
2.35246
1.99013
1.64526
1.32588
1.04327
0.805144
0.604328
0.432158
0.29192
0.184917
0.114329
0.0810837
0.0625512
4.92939
5.58075
6.28227
6.43147
6.04763
5.39731
4.78971
4.23645
3.73344
3.25411
2.77572
2.30981
1.88025
1.50121
1.1764
0.902295
0.666971
0.463927
0.304155
0.191229
0.130807
0.0947389
6.84047
7.73321
8.50342
8.51391
7.88226
7.01137
6.28917
5.68359
5.10762
4.51419
3.89227
3.27389
2.69346
2.16542
1.70039
1.3075
0.983893
0.709766
0.482791
0.314752
0.216887
0.14719
9.22592
10.3974
11.048
10.8086
10.0631
9.20087
8.53212
7.95022
7.30272
6.55534
5.72994
4.87466
4.04115
3.25513
2.54076
1.92913
1.44032
1.05954
0.752563
0.508538
0.355515
0.23927
12.0398
13.4972
13.9651
13.6907
13.169
12.6302
12.2263
11.7115
10.9396
9.9265
8.72186
7.4196
6.14527
4.95514
3.90135
3.00225
2.23115
1.60218
1.15103
0.818099
0.587213
0.401591
15.3213
17.09
17.5586
17.6564
17.8775
18.2453
18.3544
17.9701
17.0214
15.5596
13.6898
11.5839
9.46083
7.50763
5.84251
4.50618
3.4529
2.55145
1.81418
1.31206
0.986078
0.723059
19.2141
21.4749
22.3687
23.5647
25.544
27.6385
28.5336
28.1266
26.7858
24.5155
21.592
18.2824
14.8088
11.562
8.83588
6.66582
5.02525
3.82
2.86002
2.15747
1.73458
1.45696
23.9702
27.1383
29.3585
32.9909
38.0271
42.3781
44.0655
43.5004
41.4653
38.0243
33.6097
28.6506
23.3748
18.2735
13.8245
10.2786
7.56632
5.57215
4.24014
3.42549
3.05009
3.00557
30.3276
35.0693
40.1603
48.041
57.3178
64.208
66.8618
66.0567
62.8705
57.54
50.8507
43.487
35.7933
28.1936
21.3294
15.7508
11.5754
8.37088
6.2614
5.24949
5.09035
5.79123
40.0453
47.3583
57.4427
71.6033
86.3409
96.5144
100.283
98.5768
92.7383
84.0645
73.9888
63.3853
52.6522
41.9994
32.0918
23.6728
17.2343
12.4701
9.23878
7.86803
8.22537
10.4272
56.6092
67.983
85.7644
108.613
130.563
144.183
147.322
142.757
132.159
118.257
103.213
88.3593
74.0994
60.3784
47.4268
35.9215
26.3195
18.8432
13.8545
11.8984
13.412
18.112
86.5833
104.027
133.004
166.835
196.348
210.979
210.509
199.749
181.712
160.245
138.418
118.036
99.3458
82.0954
66.1525
51.9922
39.8465
29.3613
21.6305
18.7625
22.589
31.4465
142.7
168.003
211.238
255.454
288.977
299.396
291.023
268.461
239.129
207.756
177.726
150.69
126.84
105.755
86.9249
70.6954
57.0479
44.8668
35.2343
31.5363
40.7043
56.2118
250.38
282.746
337.555
382.983
408.988
406.608
381.245
341.083
296.587
253.039
213.905
180.512
152.722
129.314
108.665
91.1857
77.7224
66.2478
57.5936
56.8215
79.8578
104.297
459.921
489.232
530.098
549.061
547.724
520.412
468.948
406.121
343.815
287.695
240.803
203.005
173.17
149.386
129.324
112.804
101.496
96.0562
98.0101
112.733
161.59
213.869
847.093
855.897
781.902
723.076
679.081
618.048
536.476
449.682
371.975
307.313
255.623
215.36
184.632
161.146
143.135
130.444
125.463
131.885
162.869
221.425
310.374
428.349
3037.42
2291.18
1473.7
1069.33
859.484
761.038
724.288
721.144
733.835
740.948
737.628
731.761
724.898
708.065
671.143
613.348
546.13
493.784
473.126
475.6
480.939
478.362
470.085
457.672
447.257
440.457
431.861
420.111
405.775
391.574
383.594
380.561
382.724
394.867
421.499
452.227
471.208
475.85
474.691
469.926
465.457
468.491
481.255
500.116
523.312
548.719
569.346
573.618
562.353
539.221
514.801
494.425
476.134
463.956
456.605
449.893
446.589
447.09
447.225
443.879
431.7
409.301
384.423
369.268
363.467
363.776
363.603
364.865
368.221
372.05
382.292
400.193
417.187
425.765
426.462
424.081
422.012
427.303
440.767
455.43
466.416
472.86
484.188
514.117
558.105
602.778
635.963
651.088
648.733
633.755
597.289
542.537
507.676
510.285
531.854
544.658
541.106
521.871
493.373
464.727
446.221
444.779
453.574
467.037
487.338
518.423
560.262
620.089
722.052
903.929
1171.07
1088.73
912.587
813.078
743.536
661.625
560.824
460.021
375.098
306.824
252.874
211.267
180.243
158.921
144.401
135.915
138.324
162.309
235.863
360.951
504.758
646.718
803.069
606.194
595.5
657.055
739.173
782.478
766.655
700.548
611.784
529.235
479.943
469.314
483.719
505.301
512.689
506.856
489.148
458.249
424.449
401.819
388.17
384.597
395.892
427.688
474.082
519.317
548.251
554.673
546.594
523.769
493.721
461.948
432.906
414.269
411.203
423.1
452.302
490.794
526.927
548.2
548.04
529.007
489.065
440.08
398.617
378.309
381.511
401.499
423.674
433.752
432.305
426.264
419.806
415.259
409.104
400.315
390.935
380.287
369.458
360.689
356.826
357.826
359.535
357.943
353.526
347.533
341.16
338.359
342.647
351.307
360.962
373.678
386.718
394.854
398.193
398.471
396.085
387.916
374.374
361.051
351.532
348.166
352.515
362.97
372.897
377.223
376.679
373.978
370.998
375.145
396.988
435.492
475.131
506.811
525.595
532.19
538.862
553.046
567.258
576.409
579.412
575.852
562.049
535.149
502.498
478.868
501.317
621.956
849.806
1182.73
966.338
1537.92
1276.6
1034.96
900.514
839.832
816.783
816.703
828.221
831.297
821.459
811.661
802.05
778.322
732.215
662.117
585.583
536.422
526.686
531.814
535.088
527.768
516.936
506.191
496.264
485.22
470.385
453.833
435.517
418.661
411.236
407.566
408.462
419.686
451.454
490.305
515.303
524.273
527.869
527.761
528.791
535.801
550.774
570.409
595.908
624.3
647.061
649.275
628.098
595.981
569.299
542.336
514.75
495.913
485.098
475.032
469.867
469.973
469.306
464.397
451.366
429.132
402.865
388.997
387.804
390.155
391.472
396.507
402.557
406.749
418.048
438.709
456.746
463.143
461.416
455.251
449.937
453.378
465.893
480.653
492.176
498.191
510.267
544.38
597.416
651.331
695.852
717.409
713.207
690.081
635.509
565.888
529.489
539.964
572.585
591.931
589.78
572.531
542.893
512.915
492.406
486.359
485.292
487.738
501.322
537.616
595.874
671.543
779.52
889.318
829.842
793.495
795.641
781.187
733.209
649.351
539.703
432.454
344.917
277.515
225.147
185.218
156.752
139.398
130.85
129.107
135.323
164.344
245.814
385.108
497.948
545.205
620.739
614.441
668.321
746.683
842.002
899.369
870.799
777.287
669.155
574.129
515.548
499.427
511.914
536.377
547.584
545.754
531.545
500.994
469.224
449.099
429.245
415.872
422.967
458.897
515.387
568.796
604.15
614.563
605.776
581.488
546.409
508.959
473.384
451.189
444.103
449.825
476.645
518.324
556.917
578.472
577.974
558.683
517.296
464.33
420.076
401.373
409.239
436.749
466.916
480.324
477.766
470.736
465.968
462.528
456.998
450.146
444.368
437.788
428.645
420.723
415.808
413.541
411.602
406.96
399.18
390.494
380.587
375.546
379.75
388.299
398.042
414.369
432
443.088
447.953
452.21
453.092
443.724
427.213
412.172
401.286
394.778
397.33
408.92
419.555
425.226
426.74
424.533
421.415
423.497
446.752
489.014
530.371
566.851
591.829
600.462
609.093
626.504
640.326
648.419
653.997
650.209
635.85
605.606
565.556
538.184
565.921
700.101
932.128
1205.64
161.93
591.742
719.694
697.989
659.473
634.55
615.078
601
589.918
581.098
567.006
552.142
543.25
529.512
506.815
468.423
416.548
374.421
352.451
347.205
352.64
352.909
352.219
353.365
352.384
345.453
333.66
322.481
309.183
296.015
287.654
279.648
273.117
272.999
285.145
309.274
333.893
353.324
366.127
373.956
382.336
391.229
400.73
410.866
424.678
441.534
457.718
463.4
451.677
427.874
405.447
382.635
354.284
330.966
317.852
307.163
298.449
295.491
294.559
294.149
291.18
280.209
263.619
251.395
246.834
248.849
255.234
263.088
267.675
267.856
273.102
284.4
297.07
305.279
306.294
303.98
299.269
297.118
299.085
304.341
310.927
313.452
314.652
327.042
353.262
388.9
426.166
455.107
466.329
468.945
443.258
390.525
351.252
342.938
355.808
375.384
389.247
389.467
377.755
356.418
334.83
319.122
306.777
295.902
292.765
312.292
356.107
424.114
522.379
619.544
662.788
669.922
708.776
715.216
670.333
576.415
463.489
361.293
281.405
221.739
176.907
144.06
121.5
108.562
104.023
105.441
114.603
142.485
212.278
345.27
468.628
496.186
495.023
484.345
499.047
541.992
597.643
646.256
653.81
604.441
524.544
446.581
384.586
345.956
330.37
331.161
341.173
355.061
361.675
350.37
326.052
305.601
286.229
269.366
268.157
284.432
315.077
349.988
381.504
404.93
414.078
409.57
392.945
368.066
340.874
318.727
302.277
291.419
293.639
309.787
329.922
349.097
359.971
359.826
346.709
319.117
288.694
268.093
264.96
275.697
295.178
312.548
320.353
321.207
321.377
323.057
324.351
323.468
323.621
327.803
328.354
326.417
320.636
312.377
304.159
294.504
284.418
275.553
265.825
257.392
255.024
257.797
263.138
272.828
285.212
295.054
302.171
309.727
317.885
318.04
312.342
303.289
293.097
283.465
278.346
280.224
286.35
293.584
300.784
304.366
302.909
298.667
300.479
315.577
336.551
362.15
388.075
404.469
413.548
423.278
430.718
436.182
442.761
448.742
450.112
445.107
430.073
421.275
449.826
569.918
755.67
931.297
7.05441
146.387
292.669
340.697
341.359
332.587
323.764
316.025
305.664
295.313
286.033
278.481
276.498
276.089
270.812
257.61
234.239
208.928
186.621
171.546
166.321
166.237
169.879
175.305
182.403
185.436
184.519
180.958
173.421
166.122
161.969
155.461
146.947
139.71
136.678
140.018
149.784
161.068
171.173
178.307
184.461
189.759
193.142
195.07
197.015
201.533
209.261
219.627
222.244
217.812
211.126
205.443
193.942
179.061
168.353
160.579
154.034
149.455
147.137
146.25
145.106
141.963
134.987
127.367
121.172
118.85
119.321
120.444
121.717
123.001
126.047
130.506
135.904
141.488
146.365
148.214
147.899
147.609
147.315
147.059
146.765
145.948
143.647
142.386
145.932
156.784
172.058
196.419
229.797
254.239
253.456
234.267
206.805
186.842
179.057
178.013
182.03
184.43
183.051
176.574
166.184
155.866
147.565
140.065
133.474
137.123
177.824
271.453
408.187
573.184
708.126
736.504
718.342
658.838
563.222
451.753
347.618
263.841
200.872
154.909
122.083
99.259
83.9091
75.3612
73.9817
76.4896
84.23
102.75
146.817
239.024
361.933
441.823
462.081
436.29
402.602
379.462
375.065
385.368
394.568
383.263
347.067
301.759
258.623
221.599
194.412
177.635
168.936
167.522
172.179
175.021
170.093
156.98
148.266
141.463
137.846
141.042
150.474
162.534
174.786
186.003
194.491
198.969
198.729
194.348
185.652
175.812
164.401
151.457
141.997
139.323
143.217
152.65
163.047
170.966
172.572
168.267
157.234
143.355
133.281
129.724
132.866
141.428
148.802
153.641
156.368
158.617
161.181
161.08
160.557
160.739
160.722
160.462
161.293
160.44
157.698
152.727
146.417
140.001
134.531
129.151
125.612
123.965
123.28
123.646
126.641
130.947
135.912
141.731
148.677
154.771
157.215
157.214
156.647
154.535
151.725
150.508
151.073
154.093
157.624
159.633
158.659
154.903
150.9
149.248
151.043
157.763
167.908
178.131
185.933
192.29
197.798
202.251
206.467
212.469
220.386
225.385
225.017
223.255
231.429
285.006
393.866
499.412
0.0191436
8.33975
68.1959
124.322
147.413
151.235
149.536
147.092
142.665
135.701
129.389
124.96
124.396
126.81
126.818
122.459
114.894
110.865
101.699
86.5297
83.1294
85.5691
85.199
85.2789
86.0925
85.9682
84.9786
83.0656
79.1956
74.6772
72.3945
71.0814
68.4135
64.4091
60.2703
57.2534
56.4853
57.7537
60.339
62.6479
65.0836
68.0197
70.631
72.3352
73.7481
75.5784
78.4216
83.8983
90.0438
92.2299
91.4421
91.1563
90.4584
87.0952
84.4024
82.0988
79.2256
75.6132
72.4364
70.6597
70.0316
69.0682
66.491
64.1948
60.4938
55.859
52.6088
51.2957
51.4801
52.5052
53.8608
55.8903
57.6781
59.3934
60.9279
61.1172
60.1509
59.2192
58.7512
58.6705
58.5058
57.9374
56.8001
55.3467
53.5972
53.9227
59.0252
71.5594
91.2938
111.778
121.026
117.988
104.849
92.714
87.7674
83.2756
80.0843
78.9288
78.8172
77.9502
73.9838
68.8864
64.3881
59.9027
59.0422
75.7978
120.008
197.848
314.94
463.862
592.37
606.402
552.475
465.149
370.345
285.139
217.446
165.828
126.283
97.0055
76.4879
62.5283
53.1868
47.5927
47.2367
49.5398
55.0293
64.8438
85.9436
133.88
217.972
312.661
375.95
390.36
385.088
365.636
331.869
290.517
276.134
269.116
245.059
213.317
182.998
155.461
131.002
110.34
93.6062
81.6798
76.897
76.5777
76.9878
74.065
70.4153
66.5199
66.0834
69.293
73.6957
77.6675
81.0279
83.7711
85.6621
86.5787
86.3019
84.437
81.1001
77.863
74.7362
70.8875
65.7055
60.1848
57.486
57.8405
61.5688
66.8792
71.019
71.8009
70.6535
68.485
66.818
63.1086
58.4421
58.5223
61.0618
63.1157
64.4168
65.2274
66.4324
67.0572
66.7874
66.1942
65.9045
66.2611
67.8747
68.9673
69.5718
69.2777
67.892
65.326
63.2713
61.2896
59.5991
58.1015
56.4032
54.7547
54.0855
54.8607
58.4496
63.4549
70.4374
78.6555
85.4597
91.811
97.3557
101.113
104.021
107.981
110.458
110.279
108.476
104.872
99.1297
92.2406
85.9863
80.8305
76.2852
72.9038
71.5192
71.9222
73.7746
76.0689
78.2641
80.2917
82.2978
85.2663
89.3906
93.1858
95.222
94.7809
95.4104
105.154
143.996
199.841
0.00998374
0.0188496
1.88364
14.6402
38.1506
50.1369
55.3355
57.378
57.208
55.8246
53.8908
51.8147
50.9014
51.6435
51.3256
49.3543
47.4698
46.9375
45.4282
41.2508
40.6805
43.1701
44.5126
45.4077
45.1156
43.9972
42.2426
39.9856
37.1003
34.0059
31.821
30.2642
28.847
27.2912
25.1368
22.5802
20.1229
18.5655
18.1365
18.1145
18.4827
19.3419
20.3292
21.2681
22.4802
24.2878
27.2134
30.4632
33.1659
35.321
36.5661
37.5953
39.5403
39.2626
39.432
40.9197
42.1567
42.2149
41.4951
41.1746
40.9254
39.6565
38.2386
37.4042
36.1395
34.047
31.3653
27.805
25.2201
25.2263
26.7914
28.2663
29.1145
29.0865
28.1783
26.5907
24.7992
23.3022
22.1926
21.4531
20.8327
20.0418
19.2161
18.7466
18.6675
19.5342
23.4557
28.9466
36.4647
45.092
51.3964
51.4098
47.2861
43.1456
42.2651
40.9034
38.8683
37.3647
36.4401
35.4286
33.9904
32.2824
30.5552
29.3015
34.8652
62.3122
95.9801
130.512
170.236
209.635
240.33
238.168
215.842
189.933
164.189
139.401
115.632
94.1077
75.4043
60.306
49.2417
41.7283
36.7897
33.7778
33.0035
34.0881
36.7651
40.5502
47.0393
64.1036
104.485
168.519
233.057
270.312
284.489
285.007
270.76
233.074
210.815
203.866
183.781
159.585
136.859
116.753
98.4447
80.2591
62.7956
47.5283
37.2835
32.5022
30.7392
29.4361
28.8097
30.9777
35.0189
39.1087
42.3399
44.0813
44.6476
44.5185
43.57
41.7903
39.4915
36.806
34.2108
32.1298
30.4886
29.2766
27.6185
24.7852
22.6137
21.9653
22.3273
23.5734
24.5826
25.1618
25.5047
26.2039
27.4168
27.7064
25.678
22.9974
21.8267
22.1127
23.3987
24.7235
25.8497
27.064
27.334
27.3045
27.2453
26.994
27.1622
27.9522
29.2381
30.66
31.2713
30.5675
29.4262
28.3545
27.2085
26.2805
25.6406
25.3278
25.0523
25.2325
27.0159
30.0147
33.4518
38.5068
44.5349
51.9704
59.2579
66.2309
72.7175
79.1941
82.9487
82.8332
80.3653
76.0457
70.3345
63.5335
56.9221
51.2584
46.5463
42.8329
39.5251
36.6676
34.5403
33.0297
31.8457
30.9975
30.7562
30.9381
31.8106
33.0392
34.1218
34.9466
34.8015
35.3127
39.8876
56.7069
0.00998582
0.00992175
0.010141
0.0613987
1.91194
10.6658
18.0082
22.1807
24.1872
24.7394
24.6895
24.0433
23.2017
22.861
22.5776
21.3379
19.6469
18.5812
17.974
17.653
18.2993
21.1091
24.4497
26.5286
26.9635
26.3965
25.1196
23.4594
21.3002
19.0807
17.1501
15.6098
14.33
13.1691
11.6413
9.67845
7.98751
6.94428
6.34393
6.07679
6.0997
6.19867
6.31406
6.65945
7.23366
8.0911
9.47643
11.3594
13.3028
15.4275
17.3322
18.2845
19.0874
19.9361
20.9102
22.8709
24.4696
25.9262
27.045
27.4933
27.478
27.0494
26.4064
25.3369
24.0989
22.6121
21.0819
18.8653
16.6947
16.2067
16.782
17.0547
16.716
15.6926
14.2476
12.7225
11.3787
10.3339
9.53318
9.10432
8.87036
8.48305
8.098
7.97402
8.16372
9.18735
11.5398
14.7384
19.0996
22.3831
24.1044
23.7112
22.8596
22.5131
22.2958
22.5626
22.6336
22.5542
22.5443
22.1076
21.3231
20.3949
19.2018
18.8756
24.3802
43.589
68.2596
88.7159
97.1532
97.4453
96.4361
98.6449
104.289
106.708
104.21
96.7243
84.5861
71.2803
58.7143
48.7143
42.2346
38.2383
35.6913
33.7636
31.8977
30.5516
29.807
30.1677
31.2361
34.3709
44.4546
71.0038
110.754
146.858
169
179.123
179.267
168.356
155.127
140.104
124.886
111.405
98.9142
85.7278
72.7607
58.7425
43.939
30.6846
21.7131
16.9898
14.5397
13.5929
13.845
16.7661
21.8624
26.4071
28.6288
29.3353
29.4352
28.9999
27.5587
25.3129
22.7035
20.1435
17.913
16.0042
14.4813
13.3155
11.5535
9.60719
8.82016
8.67072
8.62775
8.65137
8.72452
8.74698
8.89297
9.09385
9.38062
9.38054
9.16746
8.93139
8.8649
9.01955
9.43289
9.84201
10.2149
10.5745
11.3469
11.9949
12.489
12.6828
12.8863
13.4117
14.2143
15.1627
15.8958
16.3909
16.5156
16.2304
16.0223
16.0188
16.2486
16.6493
17.1357
17.9226
19.0413
20.3802
21.9088
23.8381
26.7264
30.1732
33.7539
37.9087
41.4459
44.7567
48.8661
52.6189
53.8238
52.8263
49.6909
45.1945
40.0998
35.1057
30.7778
27.4935
25.1961
23.4121
21.826
20.4894
19.241
18.1462
17.213
16.5852
15.8738
15.1335
14.4498
13.7806
12.9658
12.2258
12.2143
13.2397
0.00998304
0.00990113
0.00982513
0.0173139
0.776377
5.25206
9.83562
13.0892
15.1712
16.2789
16.5932
16.5017
16.1911
15.642
15.0382
14.2974
13.5439
12.8891
12.2157
11.9915
13.0609
16.4298
19.2783
20.6349
20.6047
19.6247
18.5275
17.2378
15.6765
14.08
12.5916
11.2986
10.2459
9.31115
7.90149
5.84569
4.40875
3.81906
3.59954
3.51905
3.60078
3.76409
4.08918
4.54065
5.16299
5.85788
6.65054
7.54846
8.38675
9.3683
10.6019
12.0189
13.7658
15.3391
16.5635
17.8289
18.7005
19.1731
19.7587
20.4186
21.1905
21.4611
21.155
20.4538
19.5396
18.0696
15.89
12.7061
9.86915
8.6849
8.50895
8.50908
8.29754
7.82666
7.27086
6.78925
6.26637
5.91845
5.74427
5.61221
5.39221
5.18501
5.09563
5.08516
5.20535
5.77586
6.68595
7.72424
9.64454
11.6323
12.5589
12.7147
13.5528
15.026