/*--------------------------------*- C++ -*----------------------------------*\
  =========                 |
  \\      /  F ield         | OpenFOAM: The Open Source CFD Toolbox
   \\    /   O peration     | Website:  https://openfoam.org
    \\  /    A nd           | Version:  7
     \\/     M anipulation  |
\*---------------------------------------------------------------------------*/
FoamFile
{
    version     2.0;
    format      ascii;
    class       volScalarField;
    location    "100";
    object      k;
}
// * * * * * * * * * * * * * * * * * * * * * * * * * * * * * * * * * * * * * //

dimensions      [0 2 -2 0 0 0 0];

internalField   nonuniform List<scalar> 
96800
(
0.00070504
0.000704516
0.000703229
0.000702591
0.000702845
0.000703495
0.000704062
0.00070422
0.000703938
0.000703372
0.000702723
0.000702097
0.000701712
0.000701875
0.000702843
0.000704407
0.000706127
0.000707631
0.000709189
0.000711406
0.000714585
0.000718738
0.000707307
0.000707814
0.000706152
0.000704951
0.000704603
0.000704847
0.000705177
0.000705225
0.000704905
0.000704362
0.000703761
0.000703201
0.000702845
0.000702999
0.000703876
0.000705362
0.00070701
0.0007085
0.000710131
0.000712496
0.000715672
0.000718541
0.000710886
0.000711293
0.000708615
0.000706015
0.000704386
0.000703699
0.000703454
0.000703236
0.000702893
0.000702428
0.000701962
0.000701554
0.000701292
0.000701439
0.000702166
0.000703383
0.00070477
0.000706166
0.000707942
0.000710646
0.000714065
0.000716534
0.000714645
0.000714658
0.000710798
0.00070675
0.000703815
0.000702157
0.00070133
0.000700875
0.000700503
0.000700133
0.000699808
0.00069958
0.000699516
0.000699721
0.000700287
0.000701142
0.000702092
0.000703222
0.000705054
0.000708102
0.00071197
0.000714706
0.000717212
0.000716847
0.000712052
0.000706932
0.000703072
0.000700739
0.000699524
0.000698928
0.000698564
0.000698288
0.000698077
0.000698024
0.000698192
0.000698543
0.000699025
0.000699521
0.000699984
0.000700734
0.000702461
0.000705725
0.000710023
0.000713109
0.000718488
0.000717811
0.000712341
0.000706545
0.000702187
0.000699542
0.000698162
0.000697529
0.000697255
0.000697098
0.000697006
0.000697102
0.000697462
0.000698022
0.000698514
0.000698765
0.000698844
0.000699244
0.000700827
0.00070426
0.00070893
0.000712339
0.000719135
0.000718171
0.000712136
0.000705822
0.000701168
0.000698432
0.000697054
0.000696505
0.000696416
0.000696452
0.00069654
0.000696781
0.000697283
0.000697978
0.000698522
0.00069867
0.000698551
0.000698795
0.000700391
0.00070407
0.000709156
0.00071293
0.000719907
0.000718641
0.000711984
0.00070514
0.000700208
0.000697403
0.000696114
0.000695732
0.000695866
0.000696202
0.000696563
0.000697003
0.000697606
0.000698292
0.000698797
0.000698882
0.0006987
0.000698994
0.000700809
0.000704921
0.000710613
0.0007149
0.000721068
0.000719505
0.000712189
0.000704787
0.000699548
0.000696665
0.000695454
0.000695235
0.000695602
0.000696284
0.000696993
0.000697669
0.000698306
0.000698842
0.000699127
0.000699048
0.000698806
0.000699206
0.000701365
0.000706078
0.0007125
0.00071734
0.000722501
0.000720663
0.00071275
0.00070482
0.000699312
0.000696391
0.000695227
0.000695102
0.000695643
0.000696614
0.000697673
0.000698561
0.000699168
0.000699441
0.000699321
0.000698902
0.00069851
0.000698963
0.000701456
0.000706772
0.000713882
0.000719199
0.000723982
0.000721912
0.000713514
0.000705161
0.000699463
0.00069657
0.00069547
0.000695401
0.000696029
0.000697138
0.000698396
0.000699406
0.000699911
0.000699819
0.000699218
0.000698393
0.000697803
0.000698289
0.000701034
0.000706816
0.00071446
0.000720177
0.000725402
0.000723149
0.00071436
0.000705719
0.000699952
0.000697144
0.000696172
0.000696149
0.00069673
0.000697767
0.000698956
0.000699889
0.000700219
0.000699802
0.000698831
0.000697687
0.000696987
0.000697546
0.000700517
0.000706658
0.000714729
0.000720791
0.000726705
0.000724351
0.000715312
0.000706503
0.000700755
0.000698066
0.000697243
0.000697241
0.000697635
0.000698376
0.000699219
0.000699837
0.000699944
0.000699367
0.000698277
0.000697081
0.000696454
0.000697183
0.000700407
0.000706875
0.000715351
0.000721754
0.000728083
0.000725656
0.00071651
0.000707616
0.00070187
0.000699252
0.000698485
0.000698439
0.000698587
0.000698853
0.000699148
0.000699335
0.000699236
0.000698699
0.000697782
0.000696849
0.000696473
0.000697446
0.000700964
0.00070781
0.000716759
0.000723563
0.00073005
0.00072752
0.000718196
0.000709118
0.00070319
0.000700454
0.000699584
0.000699412
0.000699283
0.000699065
0.000698817
0.000698623
0.000698446
0.000698111
0.000697566
0.000697065
0.000697057
0.000698349
0.000702242
0.000709582
0.000719113
0.000726378
0.000733056
0.000730346
0.000720538
0.000710912
0.000704493
0.000701376
0.000700232
0.000699826
0.000699488
0.000698959
0.000698395
0.000698041
0.00069794
0.000697863
0.000697721
0.000697644
0.000698016
0.000699702
0.000704077
0.000712055
0.000722332
0.000730148
0.000736774
0.000733772
0.00072319
0.000712691
0.000705541
0.00070189
0.000700405
0.000699796
0.000699357
0.000698771
0.000698166
0.000697847
0.000697866
0.000697979
0.000698128
0.000698397
0.000699145
0.000701278
0.000706199
0.000714911
0.000726077
0.00073458
0.000740111
0.000736762
0.000725404
0.000714046
0.000706202
0.000702132
0.000700432
0.000699785
0.00069938
0.00069891
0.000698455
0.000698261
0.000698347
0.000698556
0.000698897
0.000699383
0.000700404
0.000702891
0.000708291
0.000717723
0.000729807
0.000739104
0.000742481
0.00073888
0.000726929
0.000714957
0.000706684
0.000702462
0.000700842
0.000700411
0.00070021
0.000699907
0.000699616
0.000699503
0.000699551
0.000699749
0.00070012
0.000700683
0.000701845
0.000704472
0.000710132
0.000720091
0.000732991
0.000743101
0.000744954
0.000741121
0.000728652
0.000716192
0.000707657
0.000703458
0.000702114
0.000702
0.000702096
0.000702001
0.000701743
0.000701568
0.000701517
0.00070158
0.000701762
0.000702242
0.000703351
0.000705934
0.000711643
0.000721866
0.000735419
0.000746214
0.000749567
0.000745353
0.000732108
0.000718901
0.000709938
0.000705631
0.000704422
0.000704475
0.000704797
0.000705001
0.000704803
0.000704402
0.000704024
0.000703791
0.000703717
0.000703952
0.000704829
0.000707275
0.00071294
0.000723318
0.000737334
0.000748582
0.000757762
0.000752966
0.000738482
0.000723999
0.00071414
0.000709333
0.000707873
0.000707854
0.000708206
0.000708508
0.000708464
0.000707903
0.000707137
0.000706398
0.000705934
0.000705882
0.000706444
0.000708689
0.000714354
0.000724999
0.00073939
0.000750928
0.000770023
0.000764507
0.000748353
0.00073203
0.000720688
0.000714897
0.000712761
0.000712337
0.00071243
0.000712578
0.000712523
0.000711866
0.000710831
0.000709698
0.000708772
0.000708314
0.000708643
0.000710706
0.000716425
0.000727463
0.000742436
0.000754423
0.0007869
0.000780383
0.000762014
0.000743322
0.000729959
0.000722709
0.000719534
0.000718293
0.000717796
0.000717597
0.000717334
0.000716588
0.000715389
0.000714032
0.000712762
0.000711955
0.000712095
0.000713997
0.000719837
0.000731368
0.000747165
0.000759931
0.000809135
0.000801364
0.000780136
0.000758301
0.000742217
0.000732981
0.000728479
0.000726231
0.000724898
0.000724105
0.000723569
0.000722718
0.000721416
0.000719928
0.000718437
0.000717361
0.000717343
0.000719115
0.000725064
0.000737192
0.000754031
0.000767745
0.000837458
0.000828349
0.000803515
0.00077734
0.000757643
0.000745891
0.000739853
0.000736587
0.000734449
0.000733025
0.000732013
0.000730853
0.00072942
0.000727842
0.000726205
0.000724957
0.000724707
0.000726288
0.00073225
0.000744976
0.000762981
0.000777769
0.000872291
0.000861657
0.000832295
0.00080067
0.000776498
0.000761804
0.000754062
0.000749836
0.000746974
0.000744872
0.000743222
0.000741564
0.000739848
0.0007381
0.00073633
0.000734949
0.000734402
0.000735681
0.000741542
0.00075471
0.000773803
0.000789753
0.000913957
0.000900975
0.000866167
0.000828469
0.000799358
0.000781528
0.000772082
0.000766906
0.000763262
0.000760367
0.000757873
0.000755502
0.000753309
0.000751214
0.00074926
0.000747662
0.000746703
0.000747572
0.000753117
0.000766581
0.000786691
0.000804047
0.000965425
0.000949314
0.000908241
0.000863344
0.000828271
0.000806719
0.000795347
0.000789066
0.000784561
0.000780801
0.000777282
0.000773854
0.000770815
0.000768073
0.000765759
0.00076373
0.000762163
0.000762492
0.000767461
0.00078122
0.000802619
0.000821631
0.00104042
0.00102037
0.000971139
0.000915054
0.000869496
0.00084105
0.00082625
0.00081844
0.000813045
0.000808246
0.000803372
0.000798453
0.000794013
0.000790102
0.00078689
0.000784045
0.000781692
0.000781269
0.000785603
0.000799711
0.000822784
0.000843801
0.00116444
0.0011399
0.00107923
0.00100441
0.000938228
0.000893586
0.000869755
0.000858259
0.000851366
0.000845246
0.000838615
0.000831691
0.000825232
0.000819464
0.000814501
0.000810138
0.000806525
0.000805081
0.000808809
0.000823245
0.000848377
0.000872282
0.00136344
0.00133338
0.0012586
0.00115921
0.00106159
0.000985425
0.000938225
0.000914572
0.000903048
0.000894933
0.000886215
0.000876594
0.000867186
0.000858583
0.000850955
0.000844125
0.000838468
0.000835525
0.00083836
0.000853112
0.000880822
0.000908552
0.00165738
0.00161949
0.00152933
0.00140458
0.00127216
0.00115337
0.00106244
0.00100561
0.000976806
0.000961998
0.00094993
0.000936792
0.000923231
0.000910487
0.000899034
0.000888656
0.00087989
0.000874423
0.000875876
0.000890884
0.000921586
0.000953671
0.00207238
0.0020236
0.00191579
0.00176413
0.00159644
0.00143364
0.00128948
0.00117559
0.00110048
0.00105986
0.0010369
0.0010178
0.000998368
0.000979483
0.000962209
0.000946767
0.000933727
0.000924608
0.000923753
0.000938265
0.000971955
0.00100931
0.00264827
0.00258568
0.00245512
0.00226932
0.00206014
0.00185026
0.00165248
0.00147519
0.00132918
0.00122672
0.00116672
0.00113035
0.00110068
0.00107252
0.00104628
0.0010232
0.00100404
0.000989675
0.000985021
0.00099784
0.00103444
0.00107789
0.00343587
0.00335654
0.00319531
0.00296325
0.00269999
0.00243217
0.00217361
0.00193074
0.0017099
0.00152301
0.00138598
0.00130037
0.00124511
0.00120043
0.00116015
0.00112517
0.00109649
0.00107438
0.00106341
0.00107299
0.00111228
0.00116303
0.00449523
0.0043947
0.00419387
0.00390152
0.0035684
0.00322662
0.0028918
0.00257067
0.00226825
0.00199183
0.00175578
0.00157878
0.00146155
0.00138051
0.00131576
0.00126192
0.00121842
0.00118468
0.00116473
0.00116893
0.00120948
0.00126888
0.00589521
0.00577128
0.00552556
0.00515958
0.00473954
0.00430405
0.00387101
0.00344934
0.00304552
0.00266509
0.00231895
0.00202468
0.00180072
0.00164458
0.00153261
0.00144649
0.00137948
0.00132882
0.00129697
0.00129385
0.00133347
0.00139944
0.00771915
0.00757555
0.00728798
0.00683893
0.00631451
0.00576195
0.00520387
0.00465218
0.00411594
0.00360185
0.00312076
0.00268695
0.00232199
0.00204396
0.00184524
0.00170116
0.00159434
0.00151741
0.00146895
0.00145637
0.00149308
0.00156148
0.0100854
0.00993047
0.00961458
0.00908161
0.00843897
0.00774576
0.00703185
0.00631359
0.00560326
0.0049103
0.00424828
0.00363337
0.00308779
0.00264036
0.00230396
0.00206179
0.00188867
0.00176789
0.00169214
0.00166546
0.00169804
0.00176612
0.0131722
0.0130204
0.0127088
0.0121047
0.0113396
0.0104858
0.00957823
0.00864262
0.00769855
0.00675945
0.00584724
0.0049841
0.00419329
0.00351352
0.00297683
0.00258034
0.00229904
0.00210759
0.00198661
0.00193516
0.0019603
0.00202931
0.0172602
0.0171449
0.0169085
0.0162629
0.0153811
0.0143407
0.0131762
0.0119427
0.0106759
0.00939447
0.00813488
0.00692573
0.00579198
0.00478691
0.00396114
0.00333023
0.00287628
0.0025709
0.00238024
0.00228944
0.00230083
0.00236951
0.0227819
0.0227886
0.0227312
0.0220992
0.0211046
0.0198121
0.0182836
0.0166419
0.0149308
0.0131723
0.0114223
0.00971762
0.00809812
0.00663824
0.00539964
0.00442151
0.00370117
0.00321149
0.00290792
0.00275895
0.00275055
0.00281426
0.030328
0.0305891
0.0309158
0.03037
0.0292313
0.0275864
0.02557
0.0233711
0.0210291
0.0185788
0.0161033
0.0136723
0.0113637
0.00927133
0.00746619
0.00600061
0.00488811
0.00411925
0.00363738
0.00338993
0.00334587
0.00339963
0.0406632
0.041404
0.0424759
0.0420856
0.0407901
0.0387173
0.0360234
0.0329772
0.0296819
0.0262179
0.0226964
0.0192506
0.015992
0.0130166
0.0104219
0.00827916
0.00659685
0.00539133
0.00463684
0.00425223
0.00414279
0.00417435
0.0548017
0.0563704
0.0587383
0.0587306
0.0573311
0.0545705
0.0507443
0.0463532
0.0416592
0.0367672
0.0318004
0.0270043
0.022505
0.0183562
0.0146779
0.0115856
0.00909762
0.00721723
0.00599346
0.00539301
0.00520889
0.00520302
0.0740527
0.0770774
0.0816379
0.082393
0.0805902
0.0764825
0.0709208
0.0645651
0.0578706
0.0509694
0.0440606
0.0375257
0.0314394
0.0257667
0.0206357
0.0162102
0.0126132
0.00984814
0.00791778
0.00691361
0.00661829
0.00657007
0.100273
0.105643
0.113556
0.115149
0.111997
0.105739
0.0976931
0.0884832
0.079034
0.069607
0.0603706
0.0517155
0.0435943
0.0359089
0.028878
0.022696
0.0175197
0.0134851
0.0106373
0.00902055
0.00850091
0.00832987
0.135897
0.14451
0.156628
0.158667
0.153062
0.143555
0.13187
0.11886
0.106002
0.0935044
0.0813911
0.070086
0.059465
0.049369
0.0401163
0.0319001
0.0247216
0.0187706
0.014505
0.0120112
0.0111012
0.010565
0.183435
0.196157
0.21278
0.214907
0.205744
0.191327
0.174702
0.157036
0.139968
0.123597
0.107902
0.0933605
0.0797536
0.066919
0.0551692
0.0445057
0.0349803
0.0266502
0.0201349
0.0161818
0.0146772
0.0135819
0.245463
0.263096
0.284037
0.286291
0.27217
0.25029
0.22708
0.203651
0.181581
0.160847
0.141135
0.122706
0.105381
0.0892464
0.0746354
0.0612834
0.0488234
0.0377993
0.0285368
0.0221613
0.0195501
0.0177111
0.324502
0.347906
0.372494
0.373388
0.351058
0.318183
0.286457
0.257034
0.2302
0.204991
0.180643
0.157693
0.13633
0.116537
0.0984148
0.0819867
0.0666742
0.0524603
0.0401146
0.0310521
0.0266742
0.0232688
0.422971
0.452808
0.477373
0.470687
0.436226
0.392099
0.353271
0.319826
0.289177
0.259468
0.230212
0.202538
0.176533
0.151756
0.12842
0.10728
0.0884236
0.0711516
0.0553931
0.0433373
0.037081
0.0312656
0.541318
0.577742
0.595233
0.575077
0.530988
0.481298
0.439624
0.404025
0.369717
0.334948
0.300002
0.266239
0.23359
0.201433
0.170134
0.141342
0.116405
0.0951001
0.0759027
0.0602351
0.0515374
0.043556
0.678307
0.720542
0.727785
0.697923
0.650825
0.601924
0.561711
0.524161
0.484386
0.441817
0.397144
0.352795
0.310002
0.268282
0.228378
0.191478
0.157599
0.127876
0.103179
0.0839354
0.0727154
0.0630766
0.837314
0.884918
0.884632
0.852766
0.810705
0.77236
0.738897
0.699098
0.651881
0.597283
0.536588
0.474102
0.412776
0.354383
0.300614
0.253264
0.21245
0.175612
0.142312
0.117772
0.105652
0.0986514
1.02706
1.08315
1.08195
1.05904
1.03903
1.02318
0.997713
0.953072
0.893209
0.819025
0.734775
0.646203
0.557138
0.47263
0.397017
0.331124
0.276114
0.232309
0.194368
0.16747
0.161509
0.166549
1.26001
1.33268
1.34604
1.35422
1.37715
1.38522
1.36409
1.30847
1.22749
1.12579
1.00996
0.887396
0.76348
0.644473
0.536343
0.44332
0.365243
0.302883
0.25637
0.233007
0.244923
0.277081
1.56092
1.66241
1.71882
1.78806
1.86551
1.89467
1.87132
1.79629
1.68103
1.53683
1.37524
1.20639
1.03718
0.87401
0.723368
0.593299
0.48732
0.399861
0.337102
0.318244
0.357207
0.434376
1.97947
2.12602
2.26139
2.41806
2.55634
2.60586
2.5732
2.45471
2.27464
2.06095
1.83429
1.60617
1.38232
1.16752
0.967453
0.790136
0.643849
0.527007
0.44267
0.427506
0.511536
0.651815
2.60306
2.81637
3.07016
3.33941
3.54587
3.59831
3.51393
3.30141
3.01556
2.69933
2.38206
2.07952
1.79536
1.53031
1.28499
1.06286
0.867138
0.70501
0.590143
0.580554
0.738002
0.96793
3.57417
3.87899
4.29372
4.68611
4.93276
4.92759
4.70905
4.33977
3.90049
3.44407
3.00849
2.61283
2.25642
1.93598
1.64868
1.39321
1.16569
0.962871
0.812325
0.818124
1.10033
1.47159
5.11657
5.52267
6.11389
6.57838
6.76839
6.60151
6.1461
5.53546
4.88401
4.2527
3.67853
3.17468
2.73748
2.35964
2.03413
1.75731
1.5195
1.30486
1.15323
1.22264
1.75122
2.32708
7.56636
8.03078
8.70465
9.06169
9.00666
8.50369
7.69215
6.7582
5.84401
5.01037
4.28844
3.68264
3.18337
2.77166
2.42576
2.14271
1.92405
1.74207
1.6753
1.96465
2.94411
3.75156
11.4052
11.7544
12.1156
11.9786
11.3992
10.3916
9.12571
7.81781
6.62062
5.58967
4.74418
4.06742
3.53616
3.1224
2.79239
2.53625
2.37032
2.31664
2.50318
3.35286
4.89986
6.1864
17.0689
17.0683
15.9615
14.7332
13.4464
11.8866
10.1536
8.48955
7.06616
5.90703
4.99015
4.27886
3.73959
3.34022
3.04864
2.85933
2.80315
2.95427
3.67464
5.35188
7.53614
9.6717
39.207
36.5102
30.2395
25.3775
21.4311
18.5277
16.5948
15.4492
14.8201
14.4075
14.0466
13.7451
13.4623
13.0432
12.366
11.4493
10.5045
9.89279
9.77946
9.92289
9.98348
9.90218
9.7331
9.58999
9.56981
9.62454
9.61667
9.53895
9.38369
9.23723
9.20297
9.25462
9.36691
9.57426
9.9119
10.2671
10.4757
10.556
10.5875
10.6062
10.6622
10.7791
10.9358
11.1075
11.3316
11.6046
11.8305
11.8757
11.7281
11.4723
11.2208
11.0291
10.8614
10.7557
10.6833
10.5954
10.5312
10.492
10.4038
10.1916
9.80753
9.28294
8.78079
8.49411
8.38053
8.32843
8.25399
8.20357
8.24485
8.40899
8.75002
9.18579
9.57012
9.82092
9.95221
9.99855
10.0368
10.1447
10.2952
10.4264
10.5048
10.5526
10.7148
11.1227
11.6917
12.249
12.6402
12.8152
12.7713
12.5367
12.0257
11.3254
10.9353
10.9936
11.164
11.1534
10.908
10.4358
9.89092
9.44721
9.27569
9.44037
9.81068
10.2879
10.9469
11.8779
13.0705
14.5912
16.5718
19.1093
21.6232
20.308
17.9434
16.0688
14.3351
12.4424
10.4413
8.60242
7.08694
5.88857
4.95113
4.23315
3.70436
3.34137
3.10289
2.98566
3.04783
3.47884
4.74441
7.12149
9.86435
12.2984
14.9616
13.9276
14.7445
16.0036
17.0077
17.1423
16.3392
14.8321
13.1242
11.6838
10.8827
10.695
10.7964
10.8861
10.8078
10.5094
10.0597
9.46066
8.89838
8.56091
8.41589
8.46836
8.76606
9.30964
9.98605
10.5638
10.874
10.8931
10.6809
10.2791
9.82186
9.43104
9.20464
9.22346
9.44879
9.77304
10.2025
10.6751
11.0862
11.3342
11.331
11.0529
10.5228
9.90744
9.44728
9.33303
9.54211
9.92628
10.2584
10.3714
10.3116
10.1549
9.99585
9.83845
9.6439
9.44906
9.30368
9.19698
9.1224
9.09307
9.1236
9.19181
9.23453
9.20937
9.12311
8.98874
8.84241
8.74987
8.77924
8.89941
9.08026
9.31477
9.53942
9.69314
9.79267
9.83616
9.80683
9.65693
9.42038
9.18084
9.00833
8.93164
8.97119
9.06246
9.11452
9.10768
9.05636
8.94954
8.84836
8.8838
9.17377
9.67156
10.1873
10.6424
10.9785
11.1913
11.4019
11.6778
11.9463
12.1509
12.2273
12.1426
11.8379
11.344
10.8284
10.6861
11.7
14.8628
19.7343
25.1875
17.1603
27.8942
27.1444
24.3349
21.5427
19.2324
17.4731
16.3069
15.5772
15.0546
14.5742
14.191
13.8776
13.4153
12.6671
11.6611
10.6453
10.0776
10.0827
10.2637
10.3343
10.2171
10.0407
9.91203
9.88723
9.89009
9.81934
9.69758
9.51077
9.35242
9.3285
9.35511
9.44177
9.6576
10.0229
10.4627
10.6996
10.8301
10.9241
11.0116
11.1387
11.305
11.4835
11.653
11.8736
12.1585
12.3696
12.3778
12.1243
11.7821
11.5043
11.2509
10.9932
10.8278
10.7176
10.593
10.5104
10.4695
10.3794
10.1785
9.82464
9.29743
8.78232
8.50877
8.44668
8.42064
8.371
8.37763
8.44437
8.58828
8.91373
9.36778
9.75815
9.97618
10.0719
10.0817
10.0842
10.1733
10.3201
10.4508
10.5273
10.5479
10.7039
11.1246
11.7652
12.41
12.8897
13.1272
13.0897
12.7877
12.1366
11.2935
10.9163
11.0919
11.3666
11.4174
11.2051
10.7653
10.2085
9.73611
9.51124
9.58122
9.78829
10.0994
10.66
11.694
13.0995
14.8405
16.8869
18.5385
17.7088
16.9747
16.4566
15.402
13.8475
11.9563
9.92219
8.07258
6.58388
5.43417
4.54291
3.86622
3.378
3.06923
2.91322
2.88247
3.01471
3.55459
4.89038
7.19364
9.42911
10.7819
12.5313
13.5408
15.1791
16.6655
17.838
18.131
17.2249
15.4641
13.573
11.9938
11.0628
10.7851
10.8603
10.9705
10.9137
10.6944
10.3199
9.72367
9.19391
8.87693
8.65892
8.62656
8.87788
9.49704
10.2541
10.88
11.2156
11.2603
11.0602
10.6505
10.1425
9.68033
9.37032
9.34263
9.5125
9.78419
10.1994
10.6895
11.0685
11.322
11.3146
11.0529
10.5453
9.89777
9.42268
9.34389
9.61989
10.097
10.5359
10.679
10.6097
10.4577
10.327
10.1961
10.0244
9.8463
9.73573
9.6779
9.64079
9.63252
9.65351
9.68515
9.68769
9.61532
9.48259
9.3198
9.13335
9.01951
9.04379
9.14549
9.31516
9.57263
9.84826
10.0277
10.155
10.264
10.2974
10.1575
9.90531
9.65877
9.46899
9.35318
9.36949
9.45309
9.50254
9.50917
9.46697
9.37482
9.2725
9.27686
9.54525
10.0395
10.5203
10.9862
11.3717
11.5955
11.8288
12.1238
12.3773
12.5816
12.6991
12.6234
12.3479
11.8441
11.2595
11.0631
12.0464
15.2371
20.0359
24.7437
4.74333
14.269
17.9675
18.1194
17.0555
15.6993
14.3516
13.2332
12.3738
11.7446
11.2107
10.7849
10.4956
10.1786
9.74324
9.09726
8.31065
7.72528
7.48773
7.53465
7.70859
7.75307
7.74123
7.7395
7.7399
7.70356
7.6244
7.54614
7.41345
7.27329
7.1957
7.1122
7.04887
7.08726
7.27252
7.57593
7.86582
8.11032
8.30113
8.46593
8.66616
8.86311
9.01591
9.11853
9.23836
9.39884
9.56208
9.60992
9.44069
9.14335
8.88478
8.62568
8.28911
8.01579
7.86238
7.7181
7.59236
7.54192
7.50368
7.4305
7.25928
6.93463
6.54235
6.26206
6.14508
6.13343
6.18155
6.25722
6.31472
6.37518
6.55273
6.8311
7.11724
7.32677
7.43627
7.45213
7.44199
7.45939
7.51425
7.55671
7.58708
7.57191
7.57012
7.74388
8.10697
8.58933
9.06943
9.45389
9.66075
9.7322
9.38469
8.66925
8.17374
8.10232
8.26191
8.40641
8.42442
8.28109
7.94408
7.5273
7.18143
6.99372
6.92137
6.92683
7.14358
7.89973
9.18793
10.9386
12.9796
14.5686
14.8804
14.5595
14.4001
13.7285
12.3422
10.5187
8.6076
6.92992
5.60531
4.59773
3.82759
3.24488
2.82588
2.57176
2.46813
2.48737
2.66742
3.21497
4.40612
6.44701
8.49253
9.48917
10.0861
10.6437
11.6669
12.8194
13.7873
14.3049
14.0975
12.9698
11.4535
10.0294
8.93693
8.27349
7.97853
7.88678
7.86892
7.91371
7.86439
7.55218
7.10498
6.75923
6.51141
6.42767
6.63439
7.03677
7.50791
7.94441
8.27695
8.46996
8.4753
8.31554
8.00042
7.61437
7.27039
7.08558
7.02585
7.04239
7.20779
7.4479
7.68937
7.92024
8.05845
8.05182
7.85717
7.478
7.08654
6.88138
6.95725
7.2382
7.59005
7.85741
7.95683
7.94721
7.91031
7.8828
7.83519
7.74863
7.70512
7.74221
7.8137
7.83012
7.80849
7.74753
7.65612
7.51333
7.34482
7.18076
6.99168
6.82611
6.7645
6.7754
6.8589
7.03638
7.25559
7.43099
7.57947
7.75053
7.92714
7.96283
7.88503
7.73623
7.55656
7.3808
7.28469
7.27677
7.30389
7.33997
7.38207
7.38125
7.31797
7.21379
7.21219
7.38071
7.62212
7.94795
8.3114
8.58502
8.79092
8.99995
9.16897
9.31804
9.4628
9.54447
9.5285
9.37226
9.08236
8.98967
9.72173
12.3096
16.188
19.645
0.263949
5.0924
9.23377
10.6865
10.6665
10.095
9.38448
8.70737
8.07212
7.54096
7.12107
6.80946
6.65579
6.54897
6.35537
6.04923
5.60486
5.17711
4.84094
4.6833
4.75092
4.91643
5.00133
5.06131
5.13123
5.14148
5.12458
5.07758
4.97572
4.88363
4.83356
4.72389
4.57318
4.44885
4.39731
4.45024
4.5941
4.75981
4.91497
5.04193
5.17683
5.3071
5.39478
5.42895
5.43962
5.49804
5.61314
5.77093
5.80433
5.73319
5.64022
5.56773
5.39681
5.17335
5.02
4.9043
4.80191
4.73102
4.69465
4.66632
4.59898
4.45566
4.23309
4.01283
3.83867
3.75875
3.74135
3.7443
3.793
3.86861
3.97474
4.09691
4.22632
4.35264
4.47072
4.53577
4.54346
4.55674
4.56364
4.56273
4.54919
4.5102
4.44215
4.40614
4.46149
4.65055
4.92605
5.37957
5.98591
6.41108
6.40243
6.07587
5.62869
5.3288
5.22899
5.20636
5.19377
5.15106
5.02642
4.81077
4.55686
4.33897
4.19378
4.09989
4.11042
4.59447
6.1164
8.38825
10.9216
13.2178
14.4117
14.1695
13.2666
11.9308
10.2586
8.47197
6.82113
5.45633
4.39269
3.58235
2.96746
2.5095
2.18325
1.98826
1.92842
1.96037
2.1129
2.50814
3.3745
4.91994
6.79909
8.15543
8.80773
8.77626
8.77725
8.98618
9.37924
9.7731
9.87416
9.50955
8.658
7.66348
6.7465
5.99059
5.44999
5.10598
4.90205
4.81885
4.80491
4.78178
4.63002
4.37914
4.2977
4.37237
4.54453
4.73108
4.89905
5.0422
5.14899
5.21649
5.22564
5.21497
5.14144
4.98275
4.78674
4.62039
4.47444
4.3386
4.26847
4.29046
4.40107
4.55517
4.71716
4.84461
4.86802
4.78585
4.59665
4.37816
4.25184
4.25711
4.40825
4.62744
4.7924
4.86865
4.88521
4.89584
4.89848
4.87126
4.81215
4.78604
4.77353
4.78882
4.84067
4.85394
4.82948
4.75173
4.63239
4.50141
4.38164
4.26073
4.17638
4.12802
4.09403
4.0998
4.1818
4.29576
4.42755
4.58827
4.78934
4.98165
5.08891
5.12147
5.10242
5.03319
4.94968
4.90438
4.89341
4.89019
4.90066
4.89658
4.84736
4.72838
4.61144
4.53943
4.51753
4.57422
4.71952
4.88264
5.03008
5.16956
5.29682
5.40832
5.51724
5.64001
5.76167
5.7955
5.75171
5.69159
5.91396
7.18517
9.6435
12.0272
0.00171587
0.407729
3.01804
4.94677
5.69622
5.77114
5.57609
5.29074
4.95469
4.60212
4.30412
4.07798
3.96225
3.92544
3.85737
3.70215
3.51548
3.42327
3.2472
3.05834
3.215
3.48786
3.50825
3.46714
3.40387
3.31611
3.22686
3.13815
3.03301
2.93043
2.87792
2.83414
2.75454
2.64513
2.5411
2.46947
2.44106
2.45246
2.49266
2.52658
2.57442
2.64641
2.71837
2.77052
2.8148
2.87119
2.95724
3.10128
3.2459
3.29176
3.28151
3.27741
3.26341
3.19986
3.15495
3.12415
3.08015
3.02456
2.98307
2.96424
2.94945
2.90019
2.78724
2.67093
2.51705
2.35398
2.254
2.24275
2.33635
2.43517
2.48404
2.51676
2.5335
2.54708
2.56169
2.55621
2.52732
2.50077
2.48698
2.48399
2.48027
2.47004
2.44569
2.41079
2.36805
2.37984
2.5521
2.89529
3.36223
3.79212
3.96246
3.88548
3.60345
3.37538
3.32431
3.27038
3.2098
3.15593
3.10564
3.01318
2.84908
2.67802
2.54124
2.43678
2.55748
3.5599
5.09018
6.92091
8.95836
10.8807
11.9452
11.5981
10.405
8.95236
7.46406
6.09872
4.94495
4.00306
3.24204
2.6443
2.18932
1.85507
1.61637
1.46474
1.41871
1.44353
1.54215
1.76111
2.25347
3.23627
4.69046
6.17797
7.18777
7.52428
7.58839
7.53792
7.3882
7.16967
7.17153
7.08976
6.58716
5.87981
5.19121
4.5685
4.02652
3.57781
3.22254
2.9793
2.87886
2.85438
2.84751
2.79705
2.81318
2.94585
3.13535
3.29072
3.36961
3.38252
3.35733
3.30693
3.24147
3.17107
3.08864
2.96792
2.82657
2.70651
2.61004
2.52968
2.46393
2.42239
2.43382
2.49238
2.5788
2.68849
2.76152
2.75636
2.71321
2.65712
2.62833
2.56157
2.51038
2.60902
2.74949
2.80747
2.811
2.81121
2.81217
2.80169
2.75764
2.70463
2.67026
2.66941
2.71685
2.77134
2.81054
2.82116
2.79948
2.74043
2.69007
2.63549
2.58154
2.52721
2.46778
2.41965
2.41013
2.46779
2.60126
2.76833
3.00349
3.28435
3.52657
3.7252
3.85073
3.89952
3.92047
3.97189
3.98511
3.95916
3.88638
3.77336
3.61017
3.41971
3.24245
3.08632
2.93534
2.80408
2.71676
2.68909
2.69726
2.73621
2.78534
2.83504
2.88879
2.9667
3.06211
3.12995
3.13696
3.11911
3.13204
3.42335
4.49201
5.92983
0.000999366
0.00166398
0.125571
0.926738
2.0418
2.69347
2.96565
2.99712
2.92171
2.78009
2.6221
2.45964
2.33692
2.28434
2.22012
2.12828
2.06779
2.05545
2.03937
2.04426
2.26054
2.50539
2.56919
2.55628
2.47294
2.35701
2.23103
2.10594
1.97939
1.85883
1.77045
1.69644
1.62366
1.54875
1.46837
1.3949
1.32859
1.27849
1.25122
1.23208
1.22992
1.24283
1.26984
1.30455
1.36287
1.45571
1.59697
1.73573
1.8368
1.90984
1.94536
1.96667
2.00756
1.98843
1.98061
2.02289
2.07024
2.11648
2.15973
2.20502
2.20634
2.15196
2.0657
1.98227
1.87971
1.76056
1.66626
1.6205
1.64807
1.72809
1.77388
1.77986
1.76248
1.71035
1.63601
1.55506
1.48232
1.42848
1.38984
1.36741
1.36104
1.36045
1.35769
1.35628
1.36858
1.43309
1.62815
1.85349
2.11177
2.342
2.45834
2.42439
2.28472
2.1913
2.24156
2.28767
2.26978
2.21742
2.15195
2.07153
1.97562
1.87426
1.77717
1.74711
2.16386
3.49047
4.58377
5.37234
6.02556
6.46809
6.61823
6.32675
5.77958
5.20961
4.63196
4.0327
3.43322
2.875
2.3877
1.98956
1.68276
1.46083
1.30264
1.19607
1.13678
1.14103
1.1712
1.24504
1.41798
1.86884
2.76039
3.94605
5.01608
5.62961
5.89569
5.94585
5.82073
5.44665
5.31407
5.2907
4.98891
4.52468
4.04362
3.59153
3.16893
2.75781
2.37563
2.05474
1.86062
1.78114
1.75639
1.75522
1.82349
2.085
2.3509
2.51625
2.57062
2.55025
2.47262
2.37356
2.25725
2.12495
1.98665
1.84451
1.71237
1.60145
1.50886
1.44193
1.417
1.4197
1.46603
1.49405
1.51866
1.53884
1.53744
1.51787
1.49337
1.48885
1.50505
1.49934
1.46633
1.48078
1.5434
1.58622
1.61191
1.63241
1.64296
1.65447
1.63776
1.61151
1.59135
1.56793
1.57382
1.61565
1.67787
1.74004
1.762
1.74137
1.70432
1.66423
1.61613
1.57304
1.54284
1.53205
1.53608
1.57305
1.67072
1.78753
1.9151
2.11267
2.35731
2.62745
2.84117
2.99965
3.12577
3.25382
3.32137
3.31002
3.23345
3.09874
2.91706
2.70675
2.5039
2.32447
2.1644
2.02492
1.89134
1.76948
1.67188
1.59807
1.54311
1.50514
1.4854
1.48967
1.51453
1.54573
1.56667
1.57194
1.5662
1.59117
1.77251
2.35527
0.000999083
0.000995587
0.00101765
0.00596978
0.192575
1.18508
1.7217
1.91653
1.9428
1.90443
1.82252
1.70596
1.59098
1.5115
1.45226
1.38845
1.34222
1.33618
1.35161
1.42534
1.60987
1.83902
1.99119
2.0223
1.98385
1.88063
1.76666
1.6487
1.51804
1.39007
1.27706
1.18088
1.09598
1.01923
0.947108
0.892455
0.854928
0.823847
0.792059
0.766395
0.761672
0.758396
0.757822
0.776353
0.827439
0.90015
0.996425
1.10305
1.19648
1.29112
1.36445
1.38581
1.40123
1.40866
1.42066
1.47573
1.52384
1.59954
1.70018
1.76806
1.77886
1.74773
1.67902
1.58293
1.4805
1.3746
1.30323
1.2903
1.32768
1.38302
1.39832
1.37328
1.30949
1.22185
1.13125
1.05566
0.998989
0.95897
0.930815
0.93029
0.957023
0.979417
0.981673
0.982962
0.99961
1.07222
1.21869
1.39477
1.60015
1.70588
1.7115
1.6529
1.60176
1.62446
1.75142
1.86697
1.89371
1.87479
1.8375
1.76307
1.67196
1.57641
1.47539
1.48325
1.95883
2.97045
3.7986
4.24453
4.26988
4.10547
3.96458
3.9748
4.0025
3.9397
3.73447
3.36582
2.91141
2.4623
2.07263
1.77527
1.5669
1.42803
1.32657
1.24332
1.16296
1.09318
1.04172
1.02437
1.03996
1.13632
1.45494
2.11861
2.94834
3.62561
4.03398
4.2279
4.2366
4.10529
3.97363
3.79407
3.57588
3.34276
3.09141
2.80696
2.52505
2.23165
1.92439
1.6373
1.45251
1.36029
1.29744
1.28926
1.37061
1.62262
1.92449
2.11124
2.14095
2.1037
2.03222
1.94189
1.81878
1.66926
1.51167
1.36229
1.23101
1.11588
1.01741
0.940015
0.910164
0.934861
0.993408
1.00932
1.00367
0.985843
0.958072
0.925692
0.896004
0.872887
0.856936
0.848677
0.865524
0.951343
1.01956
1.04472
1.05603
1.0574
1.0581
1.06154
1.08978
1.11217
1.12187
1.11895
1.1219
1.14299
1.17716
1.21717
1.24
1.25045
1.24533
1.22501
1.21005
1.20407
1.21641
1.242
1.29279
1.3416
1.38498
1.42775
1.46512
1.53165
1.66309
1.8297
1.98114
2.12014
2.22064
2.33595
2.49849
2.62713
2.64325
2.57273
2.42792
2.24811
2.06095
1.88317
1.72641
1.59941
1.49869
1.40817
1.31987
1.24068
1.16782
1.10437
1.05201
1.01189
0.971219
0.932693
0.898704
0.869248
0.843472
0.83352
0.840886
0.913204
0.000999242
0.0009949
0.000991655
0.00433004
0.25603
1.00069
1.42502
1.60529
1.64756
1.62781
1.561
1.47493
1.3754
1.28092
1.2081
1.16876
1.17422
1.20689
1.21893
1.25755
1.43817
1.70525
1.84532
1.85522
1.78669
1.66574
1.55775
1.44677
1.32509
1.20397
1.09053
0.990088
0.903954
0.824478
0.752827
0.708776
0.688566
0.677762
0.667148
0.659149
0.662217
0.671495