/*--------------------------------*- C++ -*----------------------------------*\
  =========                 |
  \\      /  F ield         | OpenFOAM: The Open Source CFD Toolbox
   \\    /   O peration     | Website:  https://openfoam.org
    \\  /    A nd           | Version:  7
     \\/     M anipulation  |
\*---------------------------------------------------------------------------*/
FoamFile
{
    version     2.0;
    format      ascii;
    class       volScalarField;
    location    "100";
    object      nut;
}
// * * * * * * * * * * * * * * * * * * * * * * * * * * * * * * * * * * * * * //

dimensions      [0 2 -1 0 0 0 0];

internalField   nonuniform List<scalar> 
96800
(
0.000108167
0.000108119
0.00010809
0.000108069
0.000108081
0.000108107
0.000108124
0.000108122
0.000108104
0.000108079
0.000108053
0.000108028
0.000108012
0.000108026
0.00010807
0.000108142
0.000108216
0.000108278
0.000108336
0.000108396
0.000108432
0.000108334
0.000108185
0.000108034
0.000107963
0.000107914
0.000107902
0.000107911
0.000107917
0.000107908
0.000107891
0.000107868
0.000107845
0.000107824
0.000107812
0.000107821
0.000107864
0.000107931
0.000108
0.000108062
0.000108124
0.0001082
0.000108276
0.000108309
0.00010832
0.000108129
0.000107994
0.000107881
0.000107816
0.000107785
0.000107768
0.000107752
0.000107735
0.000107716
0.000107698
0.000107683
0.000107674
0.000107684
0.00010772
0.000107773
0.00010783
0.000107887
0.000107958
0.000108063
0.000108196
0.000108319
0.000108451
0.000108232
0.000108037
0.000107862
0.000107744
0.000107676
0.000107638
0.000107614
0.000107595
0.000107579
0.000107566
0.000107556
0.000107556
0.00010757
0.000107599
0.000107636
0.000107674
0.00010772
0.000107793
0.00010792
0.000108092
0.000108259
0.000108533
0.000108295
0.000108058
0.00010784
0.000107687
0.000107594
0.000107542
0.000107513
0.000107494
0.000107481
0.000107472
0.00010747
0.000107481
0.000107502
0.000107524
0.000107544
0.000107562
0.000107592
0.000107662
0.000107799
0.000107993
0.000108181
0.000108555
0.000108304
0.000108041
0.000107802
0.000107632
0.00010753
0.000107474
0.000107445
0.000107427
0.00010742
0.000107416
0.000107424
0.000107444
0.000107471
0.000107491
0.000107497
0.000107499
0.000107516
0.000107581
0.000107722
0.000107929
0.00010813
0.00010854
0.000108279
0.000107999
0.000107748
0.000107574
0.000107473
0.000107421
0.000107397
0.000107388
0.000107388
0.000107392
0.000107406
0.000107432
0.000107462
0.000107482
0.000107482
0.000107476
0.000107487
0.000107551
0.000107699
0.000107918
0.00010813
0.000108522
0.000108252
0.000107956
0.00010769
0.000107516
0.000107419
0.000107374
0.00010736
0.000107366
0.000107381
0.000107395
0.000107414
0.00010744
0.000107468
0.000107484
0.00010748
0.000107471
0.000107483
0.000107555
0.000107716
0.000107954
0.000108182
0.000108523
0.000108242
0.000107927
0.000107646
0.000107466
0.000107374
0.000107336
0.000107331
0.000107353
0.000107389
0.000107418
0.000107442
0.000107464
0.000107479
0.000107481
0.000107472
0.000107459
0.000107476
0.000107561
0.000107742
0.000108003
0.000108249
0.000108541
0.00010825
0.000107916
0.000107622
0.000107437
0.000107349
0.000107316
0.000107318
0.000107353
0.000107403
0.000107447
0.000107477
0.00010749
0.000107486
0.000107472
0.000107452
0.000107435
0.000107452
0.000107548
0.000107749
0.000108034
0.000108299
0.000108564
0.000108265
0.000107917
0.000107616
0.000107432
0.000107346
0.000107315
0.000107319
0.000107361
0.000107419
0.000107472
0.000107504
0.000107508
0.000107488
0.000107455
0.000107422
0.000107397
0.000107415
0.000107521
0.000107736
0.000108043
0.000108328
0.000108587
0.000108282
0.000107923
0.000107619
0.000107439
0.000107358
0.000107327
0.000107332
0.000107374
0.000107432
0.000107483
0.000107511
0.000107502
0.000107473
0.000107431
0.000107385
0.000107355
0.000107377
0.000107495
0.000107726
0.00010805
0.000108351
0.000108609
0.000108301
0.000107935
0.000107631
0.000107457
0.000107381
0.000107354
0.000107356
0.000107388
0.000107434
0.000107472
0.00010749
0.000107476
0.000107443
0.000107398
0.00010735
0.000107322
0.000107354
0.000107484
0.000107738
0.000108086
0.000108401
0.000108639
0.000108326
0.000107958
0.000107655
0.000107485
0.000107414
0.000107387
0.000107381
0.000107393
0.000107418
0.000107436
0.000107438
0.000107425
0.000107399
0.000107363
0.000107326
0.000107311
0.000107362
0.000107513
0.000107788
0.000108156
0.000108484
0.000108682
0.000108365
0.000107992
0.000107688
0.000107519
0.000107446
0.000107413
0.000107399
0.0001074
0.000107404
0.000107399
0.000107383
0.000107368
0.000107352
0.000107331
0.000107321
0.000107331
0.000107404
0.000107575
0.000107868
0.000108256
0.000108601
0.000108747
0.000108422
0.000108037
0.000107722
0.000107544
0.000107464
0.000107425
0.0001074
0.000107395
0.000107388
0.000107373
0.000107348
0.000107325
0.000107316
0.000107315
0.000107324
0.000107363
0.000107462
0.000107653
0.000107968
0.000108378
0.00010874
0.000108836
0.000108498
0.000108085
0.000107746
0.00010755
0.000107458
0.000107414
0.00010739
0.000107373
0.000107362
0.000107339
0.000107309
0.0001073
0.000107306
0.000107319
0.000107346
0.00010741
0.000107528
0.000107737
0.00010807
0.000108502
0.000108883
0.000108923
0.000108568
0.000108121
0.000107751
0.000107538
0.00010744
0.000107399
0.000107376
0.000107357
0.000107341
0.000107307
0.000107277
0.000107293
0.000107317
0.000107355
0.000107397
0.000107467
0.000107594
0.000107811
0.000108156
0.000108605
0.000109003
0.000108959
0.000108592
0.000108118
0.00010773
0.000107514
0.000107426
0.000107394
0.000107371
0.000107359
0.000107341
0.000107311
0.000107294
0.000107305
0.000107336
0.000107386
0.00010744
0.00010752
0.000107648
0.000107866
0.000108214
0.000108674
0.000109085
0.00010892
0.000108543
0.000108059
0.000107675
0.000107479
0.000107418
0.000107407
0.000107405
0.000107406
0.00010738
0.000107354
0.000107346
0.000107351
0.000107369
0.000107399
0.000107461
0.000107549
0.000107679
0.000107896
0.000108247
0.000108716
0.000109136
0.000108816
0.000108432
0.000107949
0.000107589
0.000107433
0.000107414
0.000107442
0.000107469
0.000107505
0.0001075
0.000107466
0.000107452
0.000107447
0.00010743
0.000107423
0.000107458
0.00010755
0.000107689
0.000107915
0.000108277
0.000108759
0.000109191
0.000108661
0.00010827
0.000107794
0.000107472
0.000107374
0.000107409
0.00010748
0.000107528
0.000107581
0.000107603
0.000107584
0.000107564
0.000107557
0.000107532
0.000107495
0.000107488
0.000107552
0.0001077
0.000107951
0.000108344
0.00010885
0.000109292
0.000108426
0.00010803
0.000107567
0.000107304
0.00010729
0.000107398
0.000107514
0.000107588
0.00010762
0.000107646
0.000107678
0.000107674
0.000107666
0.000107639
0.000107602
0.000107568
0.000107601
0.000107757
0.000108046
0.000108485
0.000109031
0.000109497
0.000108053
0.00010765
0.00010721
0.000107036
0.00010715
0.00010737
0.000107554
0.000107666
0.000107719
0.000107745
0.000107777
0.000107797
0.000107795
0.000107776
0.000107746
0.000107712
0.000107734
0.0001079
0.00010823
0.000108718
0.000109309
0.000109807
0.000107512
0.000107093
0.000106665
0.000106604
0.000106899
0.000107291
0.000107589
0.000107758
0.000107841
0.000107886
0.000107928
0.000107961
0.000107974
0.000107972
0.000107961
0.000107953
0.000107981
0.000108145
0.000108504
0.000109034
0.000109664
0.000110189
0.000106813
0.00010636
0.000105895
0.000105923
0.000106443
0.000107086
0.000107571
0.000107847
0.000107984
0.000108064
0.000108127
0.000108177
0.000108214
0.000108238
0.000108254
0.000108273
0.000108306
0.000108474
0.000108855
0.000109413
0.00011007
0.000110614
0.000105846
0.000105335
0.000104736
0.000104792
0.00010557
0.000106579
0.000107381
0.000107863
0.000108114
0.000108258
0.000108361
0.000108442
0.000108513
0.000108573
0.000108625
0.000108677
0.000108729
0.000108884
0.000109278
0.000109858
0.000110538
0.000111102
0.000104045
0.000103436
0.000102585
0.000102614
0.000103744
0.00010535
0.000106733
0.00010763
0.000108129
0.000108414
0.000108601
0.000108744
0.000108869
0.000108979
0.000109079
0.000109167
0.000109243
0.000109382
0.000109792
0.000110408
0.000111128
0.00011173
0.000100589
9.98132e-05
9.8543e-05
9.84139e-05
9.99698e-05
0.00010253
0.000104991
0.000106742
0.000107794
0.000108405
0.000108784
0.000109053
0.000109275
0.000109465
0.00010963
0.00010976
0.000109868
0.000110006
0.000110439
0.000111125
0.000111925
0.00011259
9.59341e-05
9.48557e-05
9.28352e-05
9.19778e-05
9.3451e-05
9.69598e-05
0.000101041
0.000104384
0.000106605
0.000107946
0.000108759
0.000109299
0.000109706
0.000110033
0.000110296
0.00011049
0.000110645
0.000110833
0.000111276
0.000112076
0.000112999
0.000113756
9.26416e-05
9.11587e-05
8.80352e-05
8.54783e-05
8.532e-05
8.83785e-05
9.36934e-05
9.92398e-05
0.000103569
0.000106422
0.000108181
0.000109298
0.000110078
0.000110658
0.000111091
0.000111393
0.000111618
0.000111863
0.000112358
0.000113313
0.000114394
0.000115277
9.29091e-05
9.10738e-05
8.69245e-05
8.23603e-05
7.92906e-05
7.94437e-05
8.35034e-05
9.02437e-05
9.72216e-05
0.000102696
0.000106342
0.00010865
0.000110172
0.000111237
0.000111988
0.000112491
0.000112845
0.000113213
0.000113761
0.000114877
0.000116137
0.000117153
9.68339e-05
9.47562e-05
9.00226e-05
8.41447e-05
7.86566e-05
7.51145e-05
7.50436e-05
7.93519e-05
8.70403e-05
9.53609e-05
0.000102045
0.000106596
0.000109556
0.000111535
0.000112879
0.000113758
0.000114345
0.000114865
0.000115513
0.000116815
0.00011825
0.000119387
0.00010413
0.000101855
9.68735e-05
9.03893e-05
8.36326e-05
7.76982e-05
7.36645e-05
7.29166e-05
7.68028e-05
8.4887e-05
9.425e-05
0.00010206
0.00010752
0.000111138
0.000113536
0.0001151
0.000116115
0.000116893
0.000117732
0.00011919
0.000120802
0.000122065
0.000115155
0.000112646
0.000107444
0.000100525
9.3011e-05
8.57893e-05
7.95154e-05
7.49252e-05
7.33299e-05
7.64809e-05
8.4549e-05
9.45954e-05
0.000103271
0.00010947
0.000113615
0.000116339
0.000118104
0.000119328
0.000120499
0.000122081
0.000123941
0.00012535
0.000130349
0.000127535
0.00012192
0.000114362
0.000106021
9.77616e-05
9.01048e-05
8.34102e-05
7.82558e-05
7.59583e-05
7.85538e-05
8.65592e-05
9.69428e-05
0.000106069
0.000112694
0.000117198
0.000120173
0.000122149
0.000123795
0.000125576
0.000127825
0.000129428
0.000149873
0.000146664
0.000140371
0.000131856
0.000122416
0.000112973
0.000104036
9.58522e-05
8.86652e-05
8.30571e-05
8.04758e-05
8.30411e-05
9.10904e-05
0.000101434
0.000110578
0.00011739
0.000122108
0.000125267
0.000127666
0.000129858
0.000132579
0.000134413
0.000173587
0.000169948
0.000162771
0.000153015
0.000142199
0.000131341
0.000120972
0.000111326
0.000102546
9.48977e-05
8.91788e-05
8.69206e-05
8.98528e-05
9.79113e-05
0.000107945
0.000116899
0.000123729
0.000128568
0.000132166
0.000135178
0.000138421
0.000140378
0.000201042
0.000197041
0.000188917
0.000177768
0.000165398
0.000152946
0.000140993
0.000129781
0.000119415
0.000110059
0.000102277
9.68787e-05
9.51646e-05
9.861e-05
0.000106671
0.000116344
0.000125069
0.000131941
0.0001372
0.000141571
0.000145381
0.000147479
0.000231688
0.000227454
0.000218451
0.000205999
0.000192136
0.000178096
0.000164534
0.000151704
0.000139678
0.000128581
0.000118932
0.000111125
0.00010586
0.000104784
0.000108895
0.00011707
0.000126623
0.000135437
0.000142729
0.00014885
0.000153542
0.000155972
0.000265452
0.000260942
0.000251385
0.000238038
0.00022306
0.000207687
0.000192623
0.000178154
0.000164336
0.000151298
0.000139634
0.000129489
0.000121061
0.000115883
0.00011567
0.000120578
0.000129274
0.000139342
0.000148795
0.00015703
0.000162982
0.000166167
0.000303804
0.000298589
0.000289263
0.000275559
0.000259964
0.000243549
0.00022699
0.0002107
0.000194803
0.000179478
0.000165479
0.000152777
0.000141096
0.00013184
0.000127119
0.000127943
0.000134028
0.000144096
0.000155488
0.000166341
0.000174145
0.0001783
0.000350153
0.000344559
0.00033469
0.000321701
0.000305766
0.000288224
0.000269824
0.000251324
0.000232906
0.00021478
0.00019789
0.000182128
0.000166881
0.000153421
0.000143792
0.000139806
0.000142068
0.000150562
0.000163254
0.000177056
0.000187753
0.000192894
0.000408202
0.000402472
0.000392144
0.000380269
0.000363797
0.000344637
0.000323885
0.000302617
0.000280965
0.000259166
0.00023836
0.000218686
0.000199328
0.000181333
0.000166621
0.000157124
0.000154571
0.000160052
0.000172871
0.000189669
0.000204056
0.000210483
0.000481421
0.000476042
0.000467026
0.000455325
0.000438123
0.000416879
0.000393009
0.000367797
0.000341598
0.000314814
0.000288777
0.000264235
0.000240099
0.00021689
0.000196663
0.000181309
0.000172947
0.000173751
0.000184797
0.000204282
0.000223038
0.000231521
0.000573917
0.000569735
0.000563907
0.000551676
0.000534397
0.000509928
0.000480995
0.000449697
0.000417102
0.000383717
0.000351068
0.000320788
0.000291303
0.000262137
0.000235447
0.000213427
0.000198449
0.000193086
0.000200058
0.000220807
0.000244775
0.000256576
0.00069098
0.000689443
0.000689143
0.000677302
0.000658473
0.000628059
0.000591307
0.000551323
0.000510009
0.000467932
0.000427067
0.00039009
0.000354674
0.000318886
0.000284614
0.000254428
0.000231736
0.000219134
0.000220071
0.000240374
0.00026965
0.000285845
0.00083962
0.000842876
0.000851106
0.000840273
0.000814686
0.000774641
0.000726842
0.000674848
0.000622075
0.000569503
0.000519304
0.000474619
0.000432184
0.000388896
0.000346268
0.000306929
0.00027481
0.000253452
0.000246777
0.00026422
0.000298621
0.000318487
0.00102871
0.00103839
0.00105657
0.00104497
0.00100684
0.000952398
0.000889185
0.00082159
0.000754779
0.000689791
0.000628631
0.000574796
0.000524365
0.000473511
0.000422965
0.000374809
0.000332044
0.000299576
0.000283303
0.000295431
0.000333527
0.000354942
0.00126679
0.00128366
0.00131102
0.00129544
0.0012392
0.00116432
0.00108068
0.000993906
0.000910016
0.000829906
0.000755562
0.000690865
0.000631529
0.000573323
0.000515832
0.000459515
0.000406368
0.000361506
0.000332075
0.00033482
0.000374295
0.000398845
0.00156226
0.00158599
0.00161987
0.00159658
0.00151625
0.0014124
0.00130192
0.0011914
0.00108714
0.000989797
0.000900807
0.000823637
0.00075382
0.000687111
0.000622672
0.000559314
0.000496427
0.0004405
0.000396348
0.000386613
0.000424236
0.000451336
0.00192258
0.00195198
0.00198777
0.00195098
0.00183406
0.00168818
0.00154189
0.00140353
0.00127745
0.00116219
0.00105806
0.000968934
0.000889635
0.000814198
0.000740983
0.000670473
0.000599862
0.000533893
0.000476159
0.000453806
0.000489546
0.000514354
0.00235385
0.00238622
0.00241193
0.00234195
0.00217278
0.00197347
0.00178593
0.00161974
0.0014735
0.00134224
0.00122545
0.00112769
0.00104132
0.00095718
0.000872883
0.000792209
0.000715205
0.000641944
0.000571998
0.000537029
0.000570573
0.000597718
0.0028585
0.00288926
0.00288625
0.00275376
0.00252163
0.00226591
0.00203868
0.00184791
0.0016846
0.00154029
0.00141365
0.00130871
0.0012152
0.00112185
0.00102532
0.000932012
0.000846695
0.000768218
0.000688991
0.000642124
0.000672403
0.000713593
0.00343934
0.00346191
0.00341353
0.00320209
0.00289479
0.00258176
0.0023226
0.00211135
0.0019303
0.00176983
0.00162753
0.00150976
0.00140744
0.00130728
0.0012032
0.00109909
0.00100189
0.000918563
0.000832417
0.000775046
0.000810402
0.000891651
0.00411834
0.00412388
0.00401123
0.00370682
0.00330873
0.0029426
0.00267713
0.00244775
0.00224689
0.0020635
0.0018929
0.00174636
0.00162084
0.00150551
0.00139208
0.0012811
0.00117645
0.00108784
0.00100471
0.000951414
0.0010188
0.00121137
0.004941
0.00491688
0.00471
0.00428354
0.00380372
0.00340907
0.00313976
0.00290654
0.00268068
0.00246262
0.00225039
0.00205564
0.00188647
0.00173881
0.0016055
0.00148037
0.00136541
0.00127149
0.00118885
0.00116996
0.00135345
0.00171347
0.00596098
0.00588991
0.00555425
0.00500299
0.00448858
0.0040751
0.00380041
0.00354226
0.00327033
0.00299983
0.00273142
0.00247368
0.00224435
0.00204565
0.00187274
0.00172084
0.0015868
0.00148173
0.00139507
0.00142646
0.00177007
0.00229895
0.00723043
0.00709236
0.00662076
0.00598954
0.0054645
0.00503176
0.00471368
0.0043962
0.00404528
0.00369424
0.00334735
0.00301205
0.00270488
0.00243851
0.00220791
0.00201136
0.00184645
0.00171905
0.0016334
0.00173638
0.00225598
0.00293227
0.00880621
0.00858973
0.00801229
0.00734923
0.00681182
0.00633216
0.00594242
0.00550134
0.00502122
0.00454742
0.00409274
0.003663
0.00326621
0.00292097
0.00262487
0.00237354
0.0021648
0.0020045
0.00190892
0.00209055
0.00286312
0.00366709
0.0107727
0.0105008
0.0098914
0.00924057
0.00866697
0.00808215
0.0075433
0.00687138
0.00619272
0.00554535
0.00494782
0.0044047
0.00391499
0.00349076
0.00313343
0.00283036
0.00257123
0.00237399
0.00226238
0.00254941
0.0036548
0.00465548
0.0132788
0.0130177
0.0124751
0.0118463
0.0111531
0.0103579
0.00948068
0.00848576
0.00753523
0.00666193
0.00588498
0.00520536
0.00461247
0.00410888
0.00369801
0.00336001
0.00306915
0.00284186
0.00274559
0.00321063
0.00482386
0.00619792
0.0165111
0.0163389
0.0159259
0.0152464
0.0142676
0.0131003
0.0116819
0.0102723
0.00897769
0.00783462
0.00685236
0.00601948
0.00531728
0.0047384
0.00428406
0.00393139
0.00364256
0.0034154
0.0033971
0.00426609
0.00678086
0.0086704
0.0205787
0.0205287
0.0202023
0.0192966
0.0178509
0.0160059
0.013968
0.0120516
0.0103637
0.00892883
0.00773785
0.00676169
0.00597192
0.0053466
0.00487358
0.0045315
0.00428675
0.00412291
0.00438584
0.00611362
0.00976864
0.0121449
0.0254546
0.0254171
0.0249217
0.0235197
0.0213516
0.0186748
0.0159828
0.0135443
0.011474
0.00977422
0.00841205
0.00733453
0.00649881
0.00587367
0.00542644
0.00513218
0.00498204
0.00502846
0.00575382
0.00897475
0.0133719
0.0161053
0.0309544
0.0306339
0.029325
0.0270181
0.0239626
0.0205749
0.0172954
0.0144247
0.0120808
0.0102188
0.00876737
0.00765127
0.00681685
0.00623121
0.00584399
0.00564087
0.00563667
0.00595592
0.00746163
0.011642
0.0164686
0.019654
0.0455475
0.0523613
0.055845
0.0542038
0.0480944
0.0405956
0.0342198
0.0297872
0.0269368
0.0252135
0.0240741
0.0232363
0.0225011
0.0216241
0.0205061
0.0192351
0.0181843
0.0178379
0.0181926
0.0186327
0.0186516
0.0184479
0.0181371
0.0180853
0.0184286
0.0189278
0.0192729
0.019493
0.0195301
0.0196116
0.0198713
0.0202552
0.0206324
0.0208931
0.0209778
0.0209789
0.0209603
0.0210752
0.021253
0.0215441
0.0219814
0.0223207
0.0223649
0.0222026
0.0220832
0.0220877
0.0221246
0.0221279
0.0220134
0.0219672
0.0220114
0.0221424
0.0222989
0.0224411
0.0224964
0.0224579
0.0223506
0.0221595
0.0217823
0.02106
0.020053
0.0189483
0.0180509
0.0175848
0.0173908
0.0171607
0.0168633
0.0166003
0.016615
0.0171052
0.0180246
0.0189761
0.0197581
0.0203881
0.0209027
0.0212162
0.0214838
0.0216765
0.0216425
0.0214827
0.0212933
0.0211949
0.0213402
0.0216572
0.0220436
0.0224022
0.0226109
0.0227016
0.0226281
0.0223196
0.0217911
0.0212774
0.0211993
0.0213163
0.0210907
0.0205557
0.0197903
0.0187815
0.017846
0.0172843
0.0173534
0.0180333
0.0190982
0.0203959
0.0221306
0.0244929
0.0274432
0.0309007
0.0342305
0.0363578
0.0359334
0.0340925
0.0317524
0.0285809
0.0248738
0.021059
0.0174954
0.0144779
0.0120508
0.0101712
0.00872464
0.00763374
0.00685187
0.00632283
0.00600073
0.00590278
0.00604405
0.00671068
0.00858909
0.0126455
0.0173499
0.0210488
0.0250869
0.0287995
0.0328563
0.0350813
0.03522
0.0337996
0.0313404
0.0282624
0.025339
0.0232146
0.0222087
0.0219353
0.0216874
0.0211076
0.0205051
0.0196118
0.0186198
0.0175786
0.0167895
0.0164154
0.0164218
0.0167817
0.0174693
0.0182382
0.0189311
0.0193396
0.0194107
0.0192533
0.0187841
0.0181558
0.0175852
0.0173288
0.0176142
0.0184819
0.0195406
0.020317
0.0207121
0.0208973
0.0209921
0.0210905
0.0210845
0.0207844
0.0203769
0.020074
0.0201512
0.0207224
0.0214795
0.0220867
0.0223548
0.0223191
0.0221364
0.0217729
0.0214207
0.0209786
0.0204604
0.0200733
0.0199273
0.020018
0.0202719
0.0206315
0.0209951
0.0212507
0.0213467
0.021325
0.0211888
0.020924
0.0206265
0.0203642
0.0202446
0.0202898
0.0205579
0.0208972
0.0211783
0.0214158
0.0216746
0.0218523
0.021853
0.0216363
0.021334
0.0210106
0.0207762
0.0206214
0.0205478
0.020364
0.0200503
0.0197907
0.0195965
0.0192752
0.0189931
0.018934
0.0190793
0.019331
0.0196582
0.0201128
0.0206384
0.0211803
0.0217131
0.0221923
0.0226428
0.0230531
0.0232227
0.0230437
0.0224398
0.0216423
0.0210008
0.0214619
0.0245755
0.0319655
0.0412447
0.0482755
0.0274262
0.0455341
0.0519456
0.0514968
0.0463822
0.0396386
0.0336417
0.0293037
0.026368
0.0245372
0.0232717
0.0223304
0.0216108
0.0208104
0.0197223
0.0184836
0.017417
0.0170392
0.0173716
0.0178276
0.0179631
0.0178016
0.0175522
0.0174684
0.0177288
0.0181428
0.0184482
0.0186498
0.0186926
0.018803
0.0190448
0.019326
0.0196426
0.0200012
0.020027
0.020094
0.0199948
0.0201348
0.0203464
0.020678
0.0211168
0.0214673
0.0215484
0.0214254
0.0212926
0.0213113
0.0212818
0.0212375
0.0210635
0.0209632
0.020923
0.0210062
0.0211299
0.0212773
0.0213112
0.0212599
0.0211596
0.0209906
0.0206599
0.0200782
0.0192463
0.0181291
0.0172306
0.0167506
0.0165577
0.0163567
0.0161101
0.0159307
0.0159422
0.0163203
0.0171055
0.0180028
0.018763
0.0193399
0.0197866
0.0200937
0.020341
0.0205451
0.0205742
0.0204509
0.0202656
0.0200991
0.0202082
0.0204602
0.0208528
0.0212805
0.0214886
0.0216183
0.0216216
0.0213269
0.0208598
0.0202848
0.0202552
0.0205063
0.0203076
0.01982
0.0191596
0.0182177
0.0172762
0.0166329
0.0165346
0.0169874
0.0177686
0.0188212
0.0204003
0.0228926
0.0259177
0.0295168
0.0329243
0.0347806
0.0340115
0.0326817
0.0306343
0.02733
0.0235373
0.0198134
0.0164173
0.0135621
0.0113108
0.00957687
0.00824983
0.00726326
0.0065516
0.00608195
0.00583735
0.00579188
0.00604454
0.00691939
0.00875631
0.0120937
0.0160694
0.0191898
0.0227679
0.0268567
0.0310277
0.0334767
0.0340111
0.0328964
0.0306648
0.0276891
0.0247779
0.0225499
0.0213649
0.0209612
0.020736
0.0201942
0.0195764
0.0188608
0.0180325
0.0169852
0.016213
0.0157916
0.0157204
0.0161049
0.0167708
0.017689
0.0183614
0.0187304
0.0187387
0.0185685
0.0181743
0.0175567
0.0169438
0.0165707
0.0166931
0.0174109
0.0183378
0.0191535
0.0196425
0.0198405
0.0197984
0.0199439
0.0199347
0.0196803
0.0193475
0.0189885
0.0190223
0.0195771
0.020352
0.0210087
0.0213968
0.0213684
0.021205
0.0209094
0.0205984
0.0202287
0.0197899
0.0193836
0.0191972
0.0192549
0.0195151
0.0198484
0.0201707
0.0204144
0.0205213
0.0204465
0.0202734
0.020019
0.0197264
0.019496
0.0193841
0.0193861
0.0196198
0.019903
0.0202059
0.0204247
0.020719
0.0209669
0.0210625
0.0209267
0.0206697
0.0203708
0.0201092
0.0199438
0.0198848
0.0196676
0.0193702
0.0191385
0.0189017
0.0186319
0.0183623
0.0182892
0.0183548
0.0185499
0.0187809
0.0191634
0.019665
0.0201527
0.0206746
0.0211153
0.0215325
0.0219714
0.0221927
0.0220567
0.021581
0.0208478
0.0201745
0.0204676
0.0230781
0.0298459
0.0387599
0.045704
0.012505
0.0309668
0.040371
0.042333
0.0396986
0.0349573
0.030138
0.0262239
0.0233591
0.0213633
0.0199489
0.0189595
0.0182498
0.0176094
0.0168578
0.015901
0.0149227
0.0143453
0.0143167
0.0147158
0.0151656
0.0153294
0.0153126
0.0152562
0.0153002
0.015461
0.0156801
0.0158924
0.0159981
0.0160839
0.0162001
0.0162794
0.0163732
0.0165591
0.0166935
0.0167021
0.0166772
0.016755
0.0169389
0.0172493
0.0176787
0.0180711
0.0182561
0.0182134
0.0180872
0.0180064
0.0179783
0.017936
0.0177592
0.0175848
0.0175228
0.0175003
0.0174545
0.0174724
0.0175035
0.017454
0.0173831
0.0173246
0.0172036
0.0168932
0.016288
0.0154456
0.0146128
0.0140385
0.0137687
0.0136055
0.013474
0.0133938
0.0134073
0.0136561
0.0141502
0.014767
0.0153464
0.015826
0.0162485
0.0164421
0.0166555
0.0168547
0.016991
0.0168868
0.0166623
0.016462
0.0163915
0.0165027
0.0167441
0.0170735
0.017371
0.0176746
0.0180124
0.0181778
0.0178824
0.0173203
0.0171185
0.0172284
0.0172658
0.0169429
0.0164096
0.015847
0.0150355
0.0143074
0.0138624
0.0137944
0.0140541
0.0145936
0.0156875
0.0179848
0.0213352
0.0253913
0.0290254
0.0308324
0.0300676
0.0284781
0.0263307
0.0237165
0.0204521
0.0172755
0.0143869
0.011963
0.0100487
0.00857998
0.00745333
0.00657802
0.00591527
0.00548311
0.00527046
0.00528097
0.00558767
0.00652873
0.00823096
0.0108343
0.0138512
0.0163326
0.0184955
0.021051
0.024548
0.0272887
0.0286259
0.0284976
0.0273575
0.0250468
0.0225081
0.0202717
0.0186907
0.0178073
0.0173416
0.0169045
0.0163343
0.0158745
0.0153906
0.0146508
0.0139342
0.013455
0.0133315
0.0138041
0.0147725
0.0156679
0.0161014
0.0162298
0.0161616
0.015945
0.0156125
0.0151948
0.0146601
0.014177
0.0139561
0.0141767
0.0146972
0.0153167
0.0159233
0.0161156
0.0161292
0.0161723
0.0162359
0.0162158
0.0160254
0.0157712
0.0156557
0.0158967
0.0164413
0.017103
0.017565
0.0177781
0.0177866
0.0176965
0.0175232
0.0173111
0.0170344
0.0167056
0.0165107
0.0164573
0.0167345
0.0169047
0.0171145
0.0172938
0.0173444
0.0172511
0.0170706
0.0168414
0.0165504
0.0162928
0.0161485
0.0160263
0.0160904
0.0163325
0.0166119
0.0168436
0.0171107
0.0174552
0.0177912
0.017943
0.0179151
0.01776
0.0175339
0.0172961
0.0171585
0.0170065
0.016767
0.0165158
0.0163058
0.0161104
0.0159115
0.0156813
0.0155798
0.0155358
0.0155361
0.0156987
0.0160205
0.0163998
0.0168184
0.0172225
0.0175667
0.0179153
0.0182017
0.0182705
0.0181539
0.017761
0.0172623
0.0172649
0.0189097
0.0239287
0.0312103
0.0372955
0.000888834
0.0159435
0.0262195
0.0301681
0.0299968
0.0275774
0.0244813
0.0215921
0.0191855
0.0173306
0.0159557
0.0149856
0.0144195
0.0139811
0.0134232
0.0127844
0.0120702
0.0115457
0.0113017
0.0115071
0.0122138
0.0130863
0.0132518
0.0131515
0.0129913
0.0128299
0.0128091
0.0128227
0.0128485
0.0129211
0.0129821
0.0129187
0.0128091
0.01275
0.0127326
0.0127299
0.0126817
0.0126594
0.0127013
0.0128312
0.0130757
0.0133584
0.0135617
0.0135983
0.013517
0.0134994
0.0135508
0.0136474
0.0136432
0.0135817
0.013561
0.0135802
0.0135159
0.013452
0.0134719
0.0134806
0.0134727
0.0134785
0.0134812
0.0133997
0.0131184
0.0125861
0.0119472
0.0113785
0.0109447
0.0106987
0.0105581
0.0104761
0.0106379
0.0109508
0.0112804
0.0115751
0.0118286
0.0120511
0.0122903
0.0124927
0.0125617
0.0126601
0.0127238
0.0127409
0.0126908
0.0125439
0.0123632
0.0122713
0.0122758
0.0124151
0.0126931
0.0132603
0.0140333
0.01455
0.0145556
0.0141823
0.0137878
0.0136782
0.0137432
0.0137044
0.0133372
0.0129481
0.0124219
0.0117963
0.0112457
0.0108709
0.0107268
0.0108009
0.0113925
0.0138549
0.0189341
0.0233287
0.0262998
0.0274325
0.0263974
0.0245344
0.0220512
0.0194447
0.0168167
0.0142991
0.0120463
0.0101555
0.0086454
0.00745589
0.00649169
0.00571013
0.00511256
0.00472109
0.00452398
0.00452183
0.00477015
0.00551021
0.00698047
0.00911424
0.0114952
0.0135484
0.0151096
0.0158886
0.017222
0.0191525
0.0211091
0.0223065
0.0222393
0.0212356
0.0194386
0.017516
0.0158391
0.0145752
0.0137503
0.0132091
0.0128019
0.0124755
0.0120679
0.011758
0.0113428
0.0109945
0.0112117
0.0121628
0.0134842
0.0142829
0.014355
0.014078
0.0136515
0.0131668
0.0126364
0.0123016
0.0119716
0.0114974
0.0111076
0.0109283
0.0109601
0.0111855
0.011548
0.0118913
0.012172
0.0122336
0.0122826
0.0123552
0.0123588
0.0122507
0.0120942
0.0120341
0.0122075
0.0125734
0.0131632
0.0136266
0.0138912
0.0138852
0.013736
0.0136002
0.0133984
0.0132582
0.0129805
0.0128255
0.0127599
0.0128625
0.0130749
0.0132166
0.0133112
0.0133055
0.0131905
0.0130259
0.0128438
0.0126507
0.0124972
0.0123716
0.0122364
0.0122345
0.0124278
0.0126831
0.0129811
0.0133683
0.0138851
0.0144311
0.0148251
0.0150155
0.014958
0.0147537
0.0145324
0.0143831
0.0142652
0.0139672
0.0137129
0.0135178
0.0133287
0.0129899
0.0126831
0.0124262
0.0121603
0.0119364
0.011939
0.0120452
0.0122472
0.0125081
0.0127659
0.013016
0.0132689
0.0134743
0.0135567
0.0134122
0.0132318
0.0130589
0.0136013
0.0163028
0.0212502
0.0260684
1.38417e-05
0.00179404
0.0120208
0.0177148
0.0198099
0.0198204
0.0187135
0.0171272
0.0154867
0.0140468
0.0128859
0.0119774
0.0113585
0.0109362
0.0105596
0.010073
0.00968088
0.00951325
0.00933137
0.00972858
0.0111905
0.0127951
0.0130014
0.0126865
0.0121122
0.0115123
0.0110279
0.0106701
0.0104542
0.0103494
0.0102966
0.0101702
0.0099816
0.00977659
0.00964235
0.00958626
0.00949433
0.00937273
0.00926768
0.00917069
0.00916491
0.00926662
0.00941597
0.00955027
0.00966915
0.0098168
0.0100364
0.0103174
0.0105308
0.0105737
0.0105985
0.0106052
0.0105958
0.0105806
0.0106139
0.0106996
0.0107776
0.0108885
0.0110564
0.0111917
0.0111797
0.0109602
0.0105155
0.0100015
0.00942576
0.00892799
0.00869144
0.00882517
0.00954284
0.0101648
0.0103107
0.0101997
0.0100156
0.00983079
0.00969347
0.00962216
0.00955696
0.00950447
0.00947483
0.00946506
0.00946331
0.00947744
0.00947754
0.00945082
0.00941631
0.00945296
0.00993114
0.0105429
0.0111444
0.0115785
0.011676
0.0115158
0.011146
0.0110597
0.0113321
0.011559
0.0115785
0.0113569
0.0110134
0.0104828
0.00987451
0.00936991
0.0090267
0.00892135
0.00997024
0.0150474
0.0194312
0.0217889
0.0229336
0.0229704
0.0216787
0.0199644
0.0176364
0.0155069
0.013539
0.0117398
0.0101208
0.00869699
0.00749092
0.00648737
0.00563987
0.00495321
0.00442097
0.00405716
0.00383487
0.00378567
0.0038896
0.00430475
0.00531779
0.00704073
0.00908389
0.0109865
0.012368
0.0130529
0.013458
0.0139861
0.0148031
0.0159246
0.0167628
0.0168099
0.0159356
0.0145862
0.0132536
0.0120828
0.0111384
0.0104411
0.00998468
0.00978041
0.00970002
0.00957557
0.00947875
0.0095067
0.0101151
0.0117412
0.0133882
0.0140649
0.0138663
0.0132582
0.0125197
0.011749
0.0110392
0.010453
0.0099485
0.00938889
0.00886625
0.00846702
0.0082036
0.00812463
0.00831564
0.00877493
0.00927378
0.00966586
0.00972112
0.00972675
0.00966416
0.00952327
0.00937722
0.0092783
0.00930485
0.00935766
0.009705
0.0104683
0.0111424
0.0112392
0.0110399
0.0109043
0.0107139
0.010535
0.0102476
0.00994576
0.00973717
0.00967864
0.00978733
0.0100225
0.0102186
0.0103396
0.0103891
0.0103465
0.0102935
0.0101995
0.0100638
0.00989322
0.00971743
0.00962338
0.00966589
0.00999074
0.010419
0.0108696
0.0115263
0.0123427
0.0130974
0.0136034
0.0137078
0.013535
0.0132984
0.0131489
0.0129397
0.0127925
0.0125314
0.0122191
0.0118329
0.0114104
0.0110043
0.0106059
0.0101653
0.00970672
0.009288
0.00904876
0.00887529
0.00885798
0.00892147
0.00900927
0.00912614
0.00928995
0.00944046
0.00946166
0.00930084
0.00923811
0.00925341
0.0100304
0.0126117
0.0158359
9.00324e-06
1.32201e-05
0.000753391
0.00527969
0.00983489
0.0130229
0.0143047
0.0140898
0.0134295
0.0124605
0.0114822
0.0105083
0.00965604
0.00909384
0.00864292
0.00825991
0.00810656
0.00810095
0.00823968
0.00911761
0.0113053
0.0130861
0.013346
0.0129518
0.0121996
0.0113642
0.0106048
0.00998228