/*--------------------------------*- C++ -*----------------------------------*\
  =========                 |
  \\      /  F ield         | OpenFOAM: The Open Source CFD Toolbox
   \\    /   O peration     | Website:  https://openfoam.org
    \\  /    A nd           | Version:  7
     \\/     M anipulation  |
\*---------------------------------------------------------------------------*/
FoamFile
{
    version     2.0;
    format      ascii;
    class       volScalarField;
    location    "100";
    object      p;
}
// * * * * * * * * * * * * * * * * * * * * * * * * * * * * * * * * * * * * * //

dimensions      [0 2 -2 0 0 0 0];

internalField   nonuniform List<scalar> 
96800
(
56.055
56.055
56.055
56.0549
56.0549
56.0549
56.055
56.055
56.055
56.055
56.055
56.055
56.0549
56.0549
56.055
56.055
56.055
56.055
56.055
56.055
56.0549
56.0549
56.055
56.055
56.055
56.0549
56.0549
56.0549
56.055
56.055
56.055
56.055
56.055
56.055
56.055
56.055
56.055
56.055
56.055
56.055
56.055
56.055
56.0549
56.0549
56.055
56.055
56.055
56.055
56.0549
56.0549
56.0549
56.055
56.055
56.055
56.055
56.055
56.055
56.055
56.055
56.055
56.055
56.055
56.055
56.055
56.055
56.0549
56.055
56.055
56.055
56.055
56.055
56.0549
56.0549
56.055
56.055
56.055
56.055
56.055
56.055
56.055
56.055
56.055
56.055
56.055
56.055
56.055
56.055
56.055
56.055
56.055
56.055
56.055
56.055
56.055
56.055
56.055
56.055
56.055
56.055
56.055
56.055
56.055
56.055
56.055
56.055
56.055
56.055
56.055
56.055
56.055
56.055
56.055
56.055
56.055
56.055
56.055
56.055
56.055
56.055
56.055
56.055
56.055
56.055
56.055
56.0551
56.0551
56.0551
56.0551
56.0551
56.055
56.055
56.055
56.055
56.055
56.055
56.055
56.055
56.055
56.055
56.055
56.055
56.055
56.0551
56.0551
56.0551
56.0551
56.0551
56.0551
56.0551
56.0551
56.0551
56.0551
56.0551
56.0551
56.055
56.055
56.055
56.055
56.055
56.055
56.055
56.0551
56.0551
56.0551
56.0551
56.0551
56.0551
56.0551
56.0551
56.0551
56.0551
56.0551
56.0551
56.0551
56.0551
56.0551
56.055
56.055
56.055
56.055
56.055
56.0551
56.0551
56.0551
56.0551
56.0551
56.0551
56.0551
56.0551
56.0551
56.0551
56.0551
56.0551
56.0551
56.0552
56.0552
56.0552
56.0552
56.055
56.055
56.055
56.055
56.0551
56.0551
56.0551
56.0551
56.0551
56.0551
56.0551
56.0552
56.0552
56.0552
56.0552
56.0552
56.0552
56.0552
56.0552
56.0552
56.0552
56.0552
56.055
56.055
56.055
56.0551
56.0551
56.0551
56.0551
56.0551
56.0552
56.0552
56.0552
56.0552
56.0552
56.0552
56.0552
56.0552
56.0552
56.0552
56.0553
56.0553
56.0553
56.0553
56.0551
56.0551
56.0551
56.0551
56.0551
56.0551
56.0551
56.0551
56.0552
56.0552
56.0552
56.0552
56.0552
56.0552
56.0553
56.0553
56.0553
56.0553
56.0553
56.0553
56.0553
56.0554
56.0551
56.0551
56.0551
56.0551
56.0551
56.0551
56.0551
56.0552
56.0552
56.0552
56.0552
56.0553
56.0553
56.0553
56.0553
56.0553
56.0553
56.0554
56.0554
56.0554
56.0554
56.0554
56.0551
56.0551
56.0551
56.0551
56.0551
56.0551
56.0552
56.0552
56.0552
56.0552
56.0553
56.0553
56.0553
56.0553
56.0554
56.0554
56.0554
56.0554
56.0554
56.0555
56.0555
56.0555
56.0551
56.0551
56.0551
56.0551
56.0551
56.0552
56.0552
56.0552
56.0552
56.0553
56.0553
56.0553
56.0554
56.0554
56.0554
56.0554
56.0555
56.0555
56.0555
56.0555
56.0555
56.0556
56.0552
56.0551
56.0551
56.0551
56.0552
56.0552
56.0552
56.0552
56.0553
56.0553
56.0553
56.0554
56.0554
56.0554
56.0555
56.0555
56.0555
56.0556
56.0556
56.0556
56.0556
56.0556
56.0551
56.0551
56.0551
56.0552
56.0552
56.0552
56.0552
56.0553
56.0553
56.0553
56.0554
56.0554
56.0555
56.0555
56.0556
56.0556
56.0556
56.0557
56.0557
56.0557
56.0557
56.0557
56.0551
56.0551
56.0551
56.0551
56.0552
56.0552
56.0552
56.0552
56.0553
56.0553
56.0554
56.0555
56.0555
56.0556
56.0556
56.0557
56.0557
56.0558
56.0558
56.0558
56.0558
56.0558
56.0551
56.0551
56.0551
56.0551
56.0551
56.0552
56.0552
56.0552
56.0553
56.0554
56.0554
56.0555
56.0556
56.0556
56.0557
56.0558
56.0558
56.0559
56.0559
56.0559
56.0559
56.0559
56.055
56.055
56.055
56.0551
56.0551
56.0551
56.0552
56.0552
56.0553
56.0554
56.0554
56.0555
56.0556
56.0557
56.0558
56.0559
56.0559
56.056
56.056
56.056
56.056
56.056
56.0549
56.0549
56.055
56.055
56.055
56.0551
56.0552
56.0552
56.0553
56.0554
56.0555
56.0556
56.0557
56.0558
56.0559
56.0559
56.056
56.0561
56.0561
56.0561
56.0561
56.0561
56.0548
56.0548
56.0549
56.0549
56.055
56.055
56.0551
56.0552
56.0553
56.0554
56.0555
56.0556
56.0557
56.0558
56.0559
56.056
56.0561
56.0562
56.0562
56.0563
56.0563
56.0563
56.0547
56.0547
56.0548
56.0548
56.0549
56.055
56.055
56.0551
56.0552
56.0554
56.0555
56.0556
56.0557
56.0559
56.056
56.0561
56.0562
56.0563
56.0563
56.0564
56.0564
56.0564
56.0546
56.0546
56.0546
56.0547
56.0548
56.0549
56.055
56.0551
56.0552
56.0554
56.0555
56.0556
56.0558
56.0559
56.0561
56.0562
56.0563
56.0564
56.0565
56.0565
56.0565
56.0566
56.0545
56.0545
56.0545
56.0546
56.0546
56.0547
56.0549
56.055
56.0552
56.0553
56.0555
56.0557
56.0558
56.056
56.0561
56.0563
56.0564
56.0565
56.0566
56.0566
56.0567
56.0567
56.0543
56.0543
56.0543
56.0544
56.0545
56.0546
56.0547
56.0549
56.0551
56.0553
56.0555
56.0557
56.0559
56.0561
56.0562
56.0564
56.0565
56.0566
56.0567
56.0568
56.0569
56.0569
56.054
56.054
56.0541
56.0542
56.0543
56.0544
56.0546
56.0548
56.055
56.0552
56.0554
56.0557
56.0559
56.0561
56.0563
56.0565
56.0566
56.0568
56.0569
56.057
56.0571
56.0571
56.0538
56.0538
56.0538
56.0539
56.054
56.0542
56.0544
56.0546
56.0549
56.0551
56.0554
56.0556
56.0559
56.0561
56.0564
56.0566
56.0568
56.0569
56.0571
56.0572
56.0573
56.0573
56.0534
56.0534
56.0535
56.0536
56.0537
56.0539
56.0541
56.0544
56.0547
56.055
56.0553
56.0556
56.0559
56.0562
56.0565
56.0567
56.0569
56.0571
56.0573
56.0574
56.0575
56.0576
56.0531
56.0531
56.0531
56.0533
56.0534
56.0536
56.0538
56.0541
56.0544
56.0548
56.0551
56.0555
56.0558
56.0562
56.0565
56.0568
56.0571
56.0573
56.0575
56.0577
56.0578
56.0579
56.0527
56.0527
56.0528
56.0529
56.053
56.0532
56.0535
56.0538
56.0542
56.0546
56.055
56.0554
56.0558
56.0562
56.0566
56.057
56.0573
56.0576
56.0578
56.058
56.0581
56.0582
56.0522
56.0522
56.0523
56.0525
56.0526
56.0529
56.0532
56.0535
56.0539
56.0543
56.0548
56.0553
56.0558
56.0562
56.0567
56.0571
56.0575
56.0578
56.0581
56.0583
56.0584
56.0585
56.0517
56.0517
56.0518
56.052
56.0522
56.0524
56.0528
56.0531
56.0536
56.054
56.0546
56.0551
56.0557
56.0562
56.0567
56.0572
56.0577
56.0581
56.0584
56.0586
56.0587
56.0588
56.051
56.0509
56.0511
56.0513
56.0516
56.0519
56.0523
56.0527
56.0532
56.0537
56.0543
56.0549
56.0556
56.0562
56.0568
56.0574
56.0579
56.0583
56.0587
56.0589
56.0591
56.0592
56.05
56.05
56.0502
56.0504
56.0508
56.0512
56.0517
56.0522
56.0528
56.0534
56.054
56.0547
56.0554
56.0561
56.0568
56.0575
56.0581
56.0586
56.059
56.0593
56.0595
56.0596
56.0488
56.0487
56.0489
56.0493
56.0497
56.0503
56.0509
56.0516
56.0522
56.053
56.0537
56.0545
56.0552
56.056
56.0568
56.0576
56.0583
56.0588
56.0593
56.0596
56.0599
56.06
56.0471
56.0471
56.0473
56.0478
56.0483
56.049
56.0498
56.0506
56.0515
56.0524
56.0533
56.0542
56.055
56.0559
56.0568
56.0577
56.0584
56.0591
56.0596
56.06
56.0603
56.0604
56.0449
56.0448
56.0452
56.0458
56.0465
56.0474
56.0484
56.0494
56.0505
56.0516
56.0527
56.0537
56.0548
56.0558
56.0568
56.0577
56.0586
56.0593
56.0599
56.0603
56.0607
56.0608
56.0419
56.0418
56.0423
56.0431
56.044
56.0452
56.0464
56.0477
56.0491
56.0504
56.0518
56.0531
56.0543
56.0555
56.0567
56.0577
56.0586
56.0595
56.0601
56.0606
56.061
56.0612
56.038
56.0379
56.0386
56.0395
56.0408
56.0422
56.0438
56.0455
56.0472
56.0489
56.0505
56.0521
56.0537
56.0551
56.0564
56.0576
56.0587
56.0596
56.0603
56.0609
56.0613
56.0615
56.0328
56.0327
56.0336
56.0349
56.0365
56.0384
56.0404
56.0425
56.0446
56.0467
56.0488
56.0507
56.0526
56.0543
56.0559
56.0573
56.0586
56.0596
56.0604
56.061
56.0615
56.0617
56.0259
56.0258
56.027
56.0287
56.0309
56.0333
56.0358
56.0385
56.0412
56.0438
56.0463
56.0488
56.0511
56.0532
56.0551
56.0568
56.0582
56.0594
56.0603
56.061
56.0615
56.0617
56.0167
56.0166
56.0182
56.0205
56.0233
56.0264
56.0297
56.0331
56.0364
56.0398
56.0429
56.046
56.0488
56.0514
56.0537
56.0558
56.0575
56.0589
56.0599
56.0607
56.0612
56.0614
56.0044
56.0043
56.0065
56.0095
56.0131
56.0171
56.0213
56.0256
56.0299
56.0341
56.0381
56.0419
56.0455
56.0487
56.0516
56.054
56.0561
56.0578
56.0591
56.0599
56.0604
56.0606
55.9877
55.9877
55.9906
55.9947
55.9994
56.0045
56.0099
56.0154
56.0209
56.0262
56.0313
56.0361
56.0406
56.0446
56.0482
56.0513
56.0538
56.0559
56.0574
56.0583
56.0589
56.0591
55.9652
55.9651
55.969
55.9745
55.9807
55.9874
55.9943
56.0013
56.0083
56.0151
56.0216
56.0277
56.0334
56.0386
56.0431
56.047
56.0502
56.0527
56.0545
56.0556
56.0561
56.0562
55.9344
55.9343
55.9396
55.947
55.9551
55.9638
55.9726
55.9816
55.9907
55.9995
56.0079
56.0157
56.023
56.0296
56.0354
56.0404
56.0445
56.0476
56.0499
56.051
56.0515
56.0514
55.8923
55.8923
55.8995
55.9094
55.9199
55.931
55.9426
55.9543
55.9661
55.9776
55.9885
55.9987
56.0081
56.0167
56.0241
56.0305
56.0356
56.0396
56.0424
56.0438
56.044
56.0436
55.8351
55.8345
55.8439
55.8571
55.8709
55.8855
55.9008
55.9162
55.9318
55.947
55.9612
55.9746
55.9869
55.998
56.0077
56.0159
56.0224
56.0274
56.0309
56.0325
56.0323
56.0314
55.757
55.7552
55.767
55.785
55.8035
55.8227
55.8432
55.8639
55.8846
55.9045
55.9232
55.9409
55.957
55.9713
55.9837
55.9942
56.0026
56.009
56.0133
56.0151
56.0144
56.0126
55.6504
55.6463
55.661
55.6861
55.7114
55.7369
55.7645
55.7923
55.8198
55.8463
55.871
55.894
55.9148
55.9331
55.9491
55.9626
55.9733
55.9814
55.9869
55.9889
55.9874
55.9844
55.5046
55.4975
55.5161
55.5509
55.5851
55.6191
55.6563
55.6941
55.7314
55.7667
55.7991
55.8289
55.8556
55.8793
55.8998
55.9168
55.9303
55.9405
55.9476
55.9502
55.9474
55.942
55.307
55.2946
55.3178
55.3639
55.4104
55.4576
55.5094
55.5622
55.6131
55.6606
55.7035
55.7419
55.7757
55.8053
55.8308
55.8519
55.8686
55.8811
55.8897
55.8928
55.8882
55.8791
55.041
55.0206
55.048
55.1078
55.1743
55.2439
55.3174
55.3911
55.4608
55.5245
55.5801
55.6284
55.6703
55.7064
55.7369
55.7619
55.7816
55.7962
55.8064
55.8096
55.8019
55.7867
54.6814
54.6516
54.6849
54.7673
54.8651
54.9675
55.0716
55.1729
55.2665
55.3492
55.4187
55.4781
55.5293
55.5722
55.6082
55.6377
55.6604
55.6763
55.6871
55.6899
55.6772
55.6515
54.1986
54.1559
54.2004
54.3189
54.463
54.6126
54.7588
54.8975
55.021
55.1251
55.21
55.2806
55.3392
55.3868
55.4264
55.46
55.4876
55.5073
55.519
55.5201
55.4991
55.4547
53.5525
53.4923
53.556
53.7297
53.9446
54.1604
54.364
54.5514
54.7105
54.8396
54.942
55.0235
55.0878
55.1385
55.1796
55.2133
55.2415
55.2635
55.2778
55.2779
55.244
55.165
52.6736
52.5995
52.6982
52.9565
53.2722
53.5767
53.8596
54.111
54.3158
54.4776
54.6015
54.6952
54.764
54.8138
54.8516
54.8806
54.9034
54.9206
54.9328
54.9268
54.8654
54.7321
51.4606
51.3794
51.5419
51.9281
52.3831
52.8132
53.2111
53.5499
53.8157
54.019
54.1677
54.2723
54.3412
54.3836
54.4094
54.4274
54.4404
54.4468
54.4477
54.4204
54.3031
54.0975
49.7656
49.6842
49.9584
50.5403
51.202
51.8224
52.3838
52.8363
53.1801
53.434
53.6122
53.729
53.7976
53.8296
53.8373
53.8329
53.8225
53.8029
53.7732
53.698
53.4896
53.1867
47.358
47.2874
47.7681
48.6621
49.6445
50.5458
51.3286
51.9283
52.3732
52.6892
52.9013
53.0338
53.1057
53.1292
53.115
53.0745
53.0165
52.9399
52.8457
52.6825
52.3302
51.8825
43.8162
43.8011
44.7174
46.1277
47.5936
48.9043
49.9839
50.785
51.3606
51.7513
52.0021
52.1499
52.2187
52.2245
52.1761
52.0809
51.9479
51.7761
51.5638
51.2431
50.6625
50.0009
38.3907
38.5021
40.5095
42.7921
44.9238
46.8206
48.2977
49.3647
50.1012
50.5825
50.878
51.0387
51.0964
51.0712
50.9683
50.7852
50.5223
50.1817
49.7603
49.1641
48.188
47.2824
29.8678
29.9091
35.2462
38.8699
41.5312
44.2024
46.2164
47.6093
48.5333
49.117
49.4667
49.6523
49.7075
49.643
49.4533
49.1282
48.6504
47.9986
47.1561
46.0544
43.209
40.9654
16.5193
14.4111
23.3331
31.5376
37.0825
41.0189
43.7381
45.4937
46.6128
47.3108
47.7345
47.9581
48.0137
47.9025
47.6008
47.0735
46.2612
45.0594
43.1615
39.3372
33.8647
29.5352
6.04471
-17.5014
7.78943
23.2663
31.8699
37.5505
40.9451
43.0268
44.3421
45.1634
45.6601
45.9182
45.973
45.8122
45.3804
44.6044
43.3411
41.3094
37.8079
30.3501
15.9473
-1.7392
-50.3085
79.6652
56.4818
40.9229
36.5516
35.5554
34.6148
34.1811
33.8451
33.5933
32.9424
32.3805
32.1344
31.9366
31.3418
30.6519
30.2205
29.6796
29.7982
29.8882
29.9651
29.5864
29.8448
30.1575
29.9643
29.8246
29.536
29.1326
28.7579
28.6502
28.9497
29.0817
29.4382
29.6948
29.911
29.8349
29.6604
29.5136
29.3253
29.0163
28.7818
28.7925
28.8809
28.9748
28.7584
28.8605
28.988
29.1778
29.0764
29.2519
29.1878
28.9242
28.5242
27.9712
28.0069
27.6316
27.596
27.3435
26.9823
26.6546
26.2272
26.0643
25.3886
25.6721
25.8762
25.6791
25.4592
25.1433
24.9793
24.6515
24.6484
24.647
24.6186
24.3877
24.2281
24.1547
24.0273
23.9842
24.1541
23.624
23.8193
23.9507
23.8348
24.0568
23.8223
24.0209
24.1029
23.7723
23.6233
23.0383
22.4726
21.7144
20.8416
21.3348
21.8356
21.6663
21.5677
21.4078
21.1602
20.7374
20.3064
20.1991
19.8927
19.3071
18.3304
17.503
15.4918
12.5812
11.0208
3.08479
-177.052
1.60366
7.27992
20.0445
28.7525
34.3932
37.9827
40.2579
41.7178
42.6383
43.1947
43.4898
43.5578
43.3636
42.8105
41.7597
39.9715
36.9461
31.2468
18.4699
-10.0127
-72.2744
-259.384
-134.475
-21.6671
-12.4448
-3.97668
2.43105
5.87134
8.06853
9.43153
9.88265
10.6084
11.5791
12.3521
12.5054
12.3011
12.099
11.7057
11.1465
10.44
9.90125
9.36667
9.21519
9.41686
9.82078
10.3389
10.6969
10.7942
11.0012
10.792
10.4006
10.4163
9.93799
9.62472
9.18248
9.06137
9.05931
9.70726
9.88175
9.97463
9.61846
9.20139
8.73586
8.07271
7.68959
7.22344
7.44459
7.57536
7.73628
7.70462
7.64374
7.94593
8.25437
8.1548
8.16138
8.06404
7.57566
7.74893
7.70335
7.47026
7.3283
7.12014
7.01304
7.02712
6.71129
6.4934
6.11504
6.03622
5.91451
5.8602
5.71305
5.31444
5.30446
5.4194
5.38778
5.59737
5.76474
5.77217
5.49034
5.28481
5.08355
4.83827
4.75383
5.17743
5.21656
5.14494
5.21329
5.27142
5.21455
5.30999
5.45578
5.74905
5.87757
6.12007
5.86954
6.17604
6.45704
6.83397
7.08526
7.35372
7.59768
8.24266
8.69723
9.63521
10.2508
11.0977
11.9575
12.7259
12.5391
7.03413
-6.43146
30.9242
44.9588
30.0409
30.4057
31.2009
31.336
31.7488
32.3421
32.6335
32.6489
32.345
32.143
31.9405
31.6069
30.914
30.1837
29.6994
29.7198
29.9551
29.9913
29.6773
29.5287
29.7733
30.1152
30.3022
30.0567
29.5858
29.1431
28.7838
28.7355
29.0415
29.3088
29.5099
29.7065
29.914
29.9464
29.7714
29.5953
29.4222
29.1149
28.9841
28.9294
28.8279
28.7229
28.7757
28.9096
29.0958
29.2063
29.0875
29.255
29.2699
28.888
28.4036
28.1085
27.9836
27.689
27.5148
27.2702
26.8896
26.3841
25.8247
25.3868
25.2676
25.5777
25.8663
25.6218
25.2757
25.1138
24.9661
24.8779
24.9843
24.9777
24.834
24.5768
24.3911
24.2351
24.0674
24.0131
24.023
23.9415
23.8209
23.8244
23.7974
24.0494
24.1176
24.1492
24.1806
23.9434
23.7886
23.0595
21.963
21.0309
20.8389
21.2597
21.6521
21.6372
21.3723
21.1211
20.9062
20.6492
20.5583
20.6831
20.4787
20.0249
19.3435
18.6305
17.3301
15.8574
18.3031
32.1844
-80.4691
-24.2533
7.26758
17.8551
25.9318
31.4245
34.9314
37.2395
38.7797
39.7711
40.3828
40.7255
40.8161
40.6017
39.9503
38.6889
36.519
32.8273
26.2197
13.5051
-10.7898
-51.8155
-107.471
-84.4042
-19.9341
-10.2968
-2.44448
2.87068
5.6645
7.30792
8.47702
9.39551
10.4693
11.5453
12.2316
12.3825
12.2441
11.967
11.4332
10.7239
10.1253
9.73299
9.36164
9.24286
9.51418
10.0979
10.6348
10.8767
10.8939
10.808
10.5879
10.3416
10.1935
9.94975
9.66755
9.48399
9.31491
9.34003
9.85812
10.1133
10.0656
9.70456
9.21061
8.62069
7.95882
7.54425
7.37832
7.58517
7.82017
7.88194
7.78945
7.78876
7.841
8.07415
8.18207
8.02926
7.78134
7.65734
7.72869
7.72611
7.55783
7.38805
7.23562
7.14095
7.04257
6.74446
6.39806
6.08146
5.88902
5.81541
5.83227
5.65014
5.45591
5.48799
5.50746
5.55844
5.73631
5.87784
5.79831
5.42121
5.04907
4.81568
4.68598
4.75176
4.99701
5.13717
5.10675
5.14511
5.12619
5.10073
5.16229
5.36899
5.78334
6.0964
6.18716
6.20359
6.35291
6.56187
6.88594
7.24909
7.44272
7.69194
8.13334
8.61256
9.32455
10.0085
10.7467
11.6599
13.7734
14.2184
12.8541
36.552
34.9557
36.0604
31.9672
30.7326
27.5374
27.8619
29.1623
30.4235
31.1697
31.4827
31.454
31.7486
31.681
31.1711
30.2731
29.4605
29.1271
29.7485
30.2135
30.3031
29.6991
29.3063
29.7329
30.1242
30.4118
30.1539
29.6275
29.1415
28.7465
28.8234
29.2082
29.4041
29.5307
29.7856
30.0962
30.1387
29.9086
29.6977
29.5259
29.3097
29.1967
29.0435
28.8378
28.6715
28.8046
29.0181
29.3275
29.2229
28.9348
29.1358
29.1584
28.7879
28.2894
28.066
27.9235
27.6244
27.498
27.2079
26.7357
26.101
25.4007
24.8897
25.0332
25.4688
25.7748
25.5784
25.3156
25.1194
24.9026
25.0183
25.234
25.2973
25.1772
24.841
24.5219
24.2736
24.1666
24.1989
24.1696
24.0852
23.7234
23.6112
23.7961
24.1871
24.4145
24.5314
24.8094
24.4198
23.743
22.8157
21.2897
20.3812
20.8324
21.5222
21.7516
21.6124
21.1996
20.7436
20.4726
20.4492
20.698
21.0191
20.9043
20.6548
20.4355
20.4672
20.1943
21.1858
18.9522
6.1925
-21.9028
-1.80833
10.5448
18.111
24.3894
28.9024
31.9943
34.1719
35.7045
36.7365
37.4034
37.7907
37.894
37.6625
36.9462
35.5619
33.232
29.38
23.0564
12.5997
-3.95813
-25.8638
-44.857
-35.9378
-15.069
-5.50962
0.627422
4.2155
5.64159
6.67973
7.79371
9.00183
10.3141
11.4841
12.3131
12.4397
12.2436
11.911
11.2078
10.4407
9.87525
9.43465
9.22603
9.26115
9.81609
10.4865
10.9702
11.1222
10.9819
10.7558
10.4309
10.0806
9.83349
9.63418
9.57487
9.62115
9.54598
9.65811
10.2343
10.3587
10.1552
9.7037
9.16863
8.48458
7.75241
7.32661
7.36239
7.77776
8.18759
8.36641
8.48743
7.99649
7.71259
8.01394
8.10417
7.97467
7.68769
7.5737
7.72339
7.72518
7.68208
7.58257
7.4124
7.28402
7.00505
6.62437
6.27052
5.91633
5.66884
5.67854
5.74221
5.60909
5.6119
5.76573
6.00457
5.97991
6.08327
6.0917
5.78085
5.24215
4.82999
4.61358
4.55172
4.63129
4.89265
5.0707
5.00841
4.9981
5.04283
4.99613
5.02019
5.28798
5.77676
6.18031
6.33113
6.40858
6.47984
6.69718
7.021
7.39405
7.45598
7.65872
8.05131
8.28779
8.73346
9.09681
9.73131
11.0129
13.2621
16.3173
19.8155
26.5623
37.7486
35.3249
32.4934
30.1381
30.1281
29.62
29.3859
29.9526
30.5475
31.0168
31.1215
31.6978
31.5694
30.8597
29.9097
29.1869
28.9749
29.37
29.5201
29.5207
29.6752
29.9435
30.0627
30.2868
30.3139
30.068
29.627
29.2607
28.9448
28.9972
29.2022
29.2617
29.419
29.7474
30.1368
30.2476
30.109
29.8659
29.5912
29.4884
29.4567
29.1863
28.9266
28.755
28.8859
29.1625
29.2992
29.1022
28.7819
28.8236
28.9428
28.5257
27.9891
27.8896
27.8082
27.5962
27.3764
27.058
26.5377
25.958
25.3231
24.9895
25.0533
25.3796
25.6007
25.533
25.4575
25.247
25.2169
25.1734
25.275
25.3742
25.285
24.9862
24.654
24.3829
24.299
24.3175
24.2976
24.1156
23.8264
23.5693
23.7236
24.0201
24.254
24.4118
24.7984
24.3757
23.7013
22.2634
20.4032
19.8996
20.6382
21.577
22.0519
21.7079
21.2992
20.8638
20.4599
20.6084
20.826
21.0125
21.0793
21.0572
21.1598
21.1052
19.9069
18.0853
16.8951
16.8076
2.66944
8.74033
15.1466
19.8636
23.8664
27.06
29.5317
31.4222
32.8327
33.8457
34.5316
34.9252
35.015
34.7494
33.9868
32.5808
30.2817
26.6969
21.2691
13.5126
3.27167
-8.16953
-16.642
-14.6114
-6.36781
0.7199
4.85433
6.18837
6.99147
7.35529
8.40922
9.44941
10.4807
11.4613
12.1196
12.4213
12.3238
12.057
11.3732
10.464
9.94773
9.2224
9.20248
9.47171
10.1273
10.5418
10.8593
10.958
10.7994
10.6143
10.313
9.95272
9.58813
9.34382
9.47773
9.61337
9.49965
9.73645
9.92467
10.1392
10.0298
9.70867
9.16301
8.4848
7.82685
7.42137
7.41858
7.82884
8.23316
8.21667
8.27885
8.10826
8.39903
8.28066
8.25119
8.10242
7.90035
7.73446
7.52153
7.75105
7.76618
7.67629
7.44523
7.20398
6.86859
6.46493
6.12297
5.76977
5.51252
5.53693
5.65806
5.67268
5.74817
5.88297
5.89695
5.69683
5.80087
5.94026
5.8745
5.56636
5.36432
4.89085
4.6513
4.53812
4.65982
4.85542
5.00823
4.92676
5.09097
5.1164
5.10411
5.33865
5.7102
5.92348
6.09417
6.33651
6.56791
6.6661
6.81311
6.99255
7.12738
7.33622
7.70736
8.04109
7.96616
7.95972
8.30233
9.1904
10.4355
11.3729
13.2866
16.637
35.3125
34.4415
32.7532
31.5494
30.9373
30.5418
30.1511
30.2195
30.5152
30.8616
31.136
31.4082
31.372
30.7211
29.8813
29.4076
29.4403
29.4566
29.1374
29.3605
29.6824
30.0213
30.1533
30.1761
30.0964
29.9759
29.5382
29.343
29.2369
29.3352
29.4374
29.3059
29.3675
29.6001
29.979
30.1018
30.157
29.9959
29.7154
29.3959
29.3444
29.1913
28.8977
28.7867
28.8766
28.987
29.0875
28.9797
28.5142
28.5602
28.6316
28.3424
27.9687
27.8489
27.9573
27.5634
27.2058
26.8636
26.2702
25.7941
25.4456
25.1551
25.074
25.3414
25.2815
25.3581
25.5642
25.3548
25.1275
25.1744
25.1961
25.3482
25.2651
25.0435
24.8226
24.613
24.4983
24.5246
24.3508
24.1473
23.9299
23.6254
23.54
23.6938
24.06
24.1233
24.2343
23.8243
23.1426
22.0941
20.2063
19.5959
20.488
21.4395
21.8341
21.599
21.2945
21.0791
20.9514
20.9632
21.0105
21.0727
21.3045
21.573
22.0876
21.1048
19.0969
17.5239
16.0344
15.4636
13.6439
15.7756
19.5013
21.8194
23.9518
26.0061
27.8236
29.3419
30.549
31.4705
32.108
32.4299
32.4171
32.0446
31.2118
29.8221
27.6899
24.5843
20.2552
14.7259
8.45092
2.50214
-1.22632
-0.302946
2.01671
5.20397
7.19889
7.55584
8.23132
8.93817
9.7756
10.4725
11.0397
11.5097
11.9863
12.2724
12.282
12.1344
11.5143
10.6182
9.72882
9.48789
9.59549
9.78519
10.1252
10.4913
10.6728
10.6836
10.746
10.5246
10.2834
9.98965
9.65416
9.43622
9.40117
9.5247
9.48429
9.63657
9.87856
9.97912
9.80585
9.53908
9.18766
8.70688
8.20224
7.82273
7.69849
7.93648
8.16628
8.04279
8.06554
8.00379
8.44391
8.42688
8.28478
8.16135
8.03885
7.74824
7.5652
7.633
7.69761
7.60517
7.36566
7.06766
6.72329
6.3079
5.89094
5.72261
5.58123
5.64763
5.65787
5.66179
5.7221
5.81802
5.92292
6.05455
5.75507
5.52404
5.73529
5.41494
5.14466
5.00282
4.73058
4.37761
4.58114
4.85524
5.02191
5.20213
5.20289
5.27105
5.19301
5.32202
5.53274
5.69751
5.84016
6.10449
6.36563
6.4791
6.53983
6.65847
6.75904
6.95179
7.25623
7.40497
7.16512
6.93133
6.88612
7.31004
7.78717
7.67725
7.15757
5.98696
33.768
33.3452
32.2687
31.3498
31.4197
30.9626
30.5573
30.4031
30.546
30.7716
31.018
31.2166
31.266
30.8826
30.2941
29.6929
29.9518
29.7021
29.4718
29.6298
30.0396
30.1371
29.9056
29.906
29.8873
29.8464
29.8037
29.6007
29.6203
29.737
29.6766
29.6164
29.5611
29.6198
29.8337
29.9659
29.9921
29.8801
29.6732
29.4104
29.1697
29.0167
28.7883
28.7387
28.6969
28.7631
28.8633
28.7652
28.5511
28.5908
28.3446
28.439
27.9023
28.0521
27.3739
27.358
26.9744
26.631
26.1265
25.6546
25.5213
25.3703
25.4284
25.3283
25.2055
25.186
25.3435
25.0292
25.0969
25.2007
25.3343
25.3193
25.1949
25.0652
24.8979
24.7168
24.5789
24.473
24.3352
24.1398
23.9737
23.7353
23.6573
23.6362
23.8514
23.8614
23.8047
23.5192
22.8628
22.0733
20.82
20.2814
20.7898
21.4106
21.5011
21.409
21.2244
21.1651
21.102
21.0254
21.11
21.3032
21.4587
21.8359
22.675
21.3419
18.7892
16.6013
15.4122
16.3534
16.5747
19.0459
20.985
22.3058
23.7916
25.3227
26.7333
27.9665
28.9814
29.7648
30.28
30.4739
30.3158
29.7706
28.7985
27.3602
25.3912
22.8147
19.5313
15.6468
11.6844
8.39498
6.47236
6.3746
7.28723
8.5257
9.21681
9.04927
9.60569
10.4545
11.1315
11.5391
11.6914
11.7219
11.9012
12.0361
12.0202
11.8646
11.4364
10.9886
10.6809
10.5166
10.5756
10.521
10.4542
10.2581
10.3563
10.4272
10.4666
10.4328
10.2484
9.96767
9.66717
9.4512
9.40003
9.42313
9.43044
9.54646
9.70749
9.73824
9.64116
9.4284
9.17452
8.8475
8.4706
8.16465
8.01147
8.04932
8.13008
7.86224
8.00356
8.27068
8.43679
8.37306
8.27713
8.14933
8.04417
7.80207
7.60075
7.43285
7.50111
7.46997
7.25323
7.06897
6.74534
6.38672
5.87121
5.69571
5.64557
5.61521
5.71077
5.77432
5.77337
5.85029
5.91672
5.98289
5.79361
5.86459
5.89922
5.75977
5.49551
5.2203
4.75658
4.67807
4.65323
4.81969
4.98038
5.12248
5.17416
5.15489
5.15544
5.22643
5.38499
5.5559
5.63801
5.80216
6.02123
6.17
6.24697
6.31985
6.40955
6.5183
6.75175
6.74547
6.44695
6.09967
5.89389
5.82492
5.78886
5.55718
4.61068
4.31989
32.9875
32.7648
32.1511
31.4516
30.8887
30.8462
30.8714
30.889
30.9035
30.8931
31.1037
31.1953
31.1347
30.8965
30.5549
30.2424
30.2033
30.2734
30.4516
30.695
30.5289
30.1454
29.9963
29.8993
29.8667
29.9477
29.9758
29.9978
29.9008
29.917
29.8916
29.8568
29.8164
29.8213
29.9142
29.9642
29.8932
29.7435
29.5273
29.2449
29.0085
28.7502
28.538
28.4275
28.4181
28.4391
28.542
28.5896
28.5667
28.534
28.3619
28.1783
27.9613
27.5368
27.4196
27.3991
27.0221
26.6535
25.9646
25.7747
25.7595
25.5491
25.5292
25.4491
25.3102
25.2515
25.3115
25.2976
25.2683
25.2968
25.3148
25.1674
25.0924
24.9649
24.7839
24.6665
24.6188
24.5295
24.312
24.0511
23.9083
23.6871
23.57
23.6759
23.7548
23.7738
23.7581
23.5078
22.955
22.3685
21.478
21.3837
21.8319
22.135
21.2596
20.9915
21.2192
21.3856
21.2962
21.2333
21.152
21.1477
21.0963
21.7992
22.1192
20.5584
17.8451
15.6827
14.956
15.4983
17.3867
19.2303
20.8291
22.2331
23.5363
24.7569
25.8739
26.8675
27.7012
28.3448
28.7356
28.7941
28.4745
27.741
26.6091
25.1184
23.3003
21.2039
18.8123
16.1897
13.6415
11.7182
10.6775
10.4607
10.6599
10.916
10.8618
10.3951
10.6507
11.4524
12.0036
12.2742
12.2917
12.0569
12.0604
12.0096
11.9685
11.5445
11.3073
11.1703
11.1324
11.0392
11.0961
10.8906
10.5535
10.2934
10.2476
10.2941
10.3593
10.3139
10.1273
9.86049
9.58538
9.38342
9.29457
9.30352
9.34606
9.47685
9.62966
9.66097
9.52852
9.34757
9.08058
8.78321
8.46945
8.23315
8.09532
8.09701
8.14738
8.2915
8.52753
8.60265
8.44187
8.35705
8.25525
8.1061
7.91531
7.61636
7.43436
7.28889
7.48365
7.27893
7.10757
7.00214
6.7068
6.43359
6.31274
5.92109
5.84568
5.69413
5.63854
5.73951
5.67345
5.778
5.81735
5.93099
5.76956
5.69308
5.64631
5.40292
5.34035
5.31628
4.96142
4.95082
4.95753
4.9622
5.25736
5.25255
5.14945
5.12756
5.15802
5.17756
5.25326
5.3397
5.50263
5.62673
5.7663
5.86662
5.95284
5.92015
6.00377
6.13561
6.16436
6.12639
5.84514
5.46754
5.1305
4.81335
4.54255
4.19935
3.41013
2.48206
32.6341
32.5059
32.1184
31.6911
30.925
31.1824
31.1607
31.1853
30.9737
31.1119
31.1815
31.1807
31.157
31.0154
30.7283
30.4574
30.3715
30.4122
30.5824
30.8812
30.9749
30.6633
30.4074
30.3144
30.3392
30.3388
30.1512
30.1776
30.1341
30.0969
30.0931
30.0876
30.0662
30.0457
30.0757
30.0769
29.9046
29.7507
29.5073
29.1979
28.8573
28.5714
28.408
28.426
28.3871
28.2924
28.5351
28.4935
28.4749
28.4338
28.3343
28.1245
27.8427
27.4543
27.6362
27.38
26.9095
26.4591
26.3463
26.0148
25.8813
25.7378
25.6052
25.7103
25.5366
25.4432
25.4386
25.4811
25.4711
25.383
25.2843
25.1834
25.0695
24.8812
24.7272
24.6199
24.5604
24.4825
24.3802
24.1383
23.8896
23.7833
23.5912
23.6771
23.7361
23.8013
23.7579
23.5888
23.26
22.7926
22.4111
22.4871
22.9154
22.9994
22.1607
21.7663
21.7735
21.6611
21.3767
21.3335
21.1848
21.1329
20.9042
20.8959
20.977
19.637
17.1362
15.4227
14.9672
15.9938
17.9591
19.7622
21.1119
22.2157
23.1564
24.0853
24.9827
25.8213
26.5349
27.0639
27.3106
27.2121
26.7123
25.7987
24.531
23.0038
21.3785
19.7468
18.0775
16.384
14.7951
13.5907
12.9807
12.8593
12.8268
12.7407
12.4832
12.222
12.0144
12.1996
12.3982
12.5022
12.501
12.2842
12.09
11.991
11.8501
11.4951
11.3238
11.2681
11.3605
11.2925
11.3025
10.9578
10.4135
10.141
10.0632
10.1031
10.1413
10.074
9.89147
9.65348
9.41732
9.26581
9.19904
9.20488
9.25348
9.36591
9.50001
9.49513
9.30315
9.11255
8.90318
8.68843
8.51093
8.27027
8.17539
8.16181
8.29061
8.5878
8.80939
8.69195
8.4918
8.35405
8.1874
8.00011
7.87356
7.60015
7.34849
7.25455
7.4057
7.11296
7.16961
7.08143
6.69495
6.55426
6.35993
6.23304
5.79276
5.86723
5.78651
5.77726
5.7722
5.85196
5.81961
5.76834
5.66076
5.54724
5.49459
5.46484
5.26027
5.3587
5.13699
5.06673
5.15583
5.21171
5.24296
5.30079
5.12667
5.06335
4.86607
5.12799
5.18377
5.29853
5.41445
5.48557
5.5926
5.58051
5.63607
5.63304
5.62881
5.68295
5.59596
5.49265
5.24472
4.90214
4.53367
4.15254
3.80389
3.3231
2.48164
1.04529
32.5483
32.474
32.2544
32.0295
31.7368
31.5606
31.7151
31.543
31.5787
31.5613
31.4244
31.408
31.216
31.0784
30.9204
30.703
30.5463
30.5539
30.6721
31.1147
31.562
31.1714
30.7234
30.4393
30.2723
30.2575
30.2893
30.3129
30.2909
30.257
30.2455
30.2392
30.243
30.2607
30.2558
30.2273
30.0018
29.7113
29.4427
29.2019
28.8102
28.5607
28.5322
28.5564
28.5786
28.1675
28.6956
28.3926
28.5045
28.3969
28.2421
28.0746
27.7795
27.2925
27.2339
27.1563
26.9854
26.6921
26.3871
26.1337
25.9443
25.8269
25.7555
25.7218
25.6468
25.6015
25.5935
25.6211
25.6142
25.5184
25.4016
25.3111
25.1659
24.9199
24.7967
24.7178
24.6921
24.5393
24.4029
24.234
24.0218
23.8541
23.7809
23.7358
23.7142
23.7755
23.751
23.7091
23.5346
23.3597
23.17
23.2522
23.6153
23.7068
23.0205
22.3438
21.8942
21.7626
21.3692
21.4389
21.1212
20.9441
20.6258
20.1569
20.0923
19.3101
18.233
16.9361
16.8469
18.0313
19.581
20.629
21.3258
21.9399
22.5454
23.24
23.9717
24.6501
25.3925
25.7891
25.9336
25.7261
25.1026
24.0927
22.7989
21.3543
19.9514
18.6622
17.4569
16.3496
15.3993
14.6321
14.1869
14.1324
14.0801
13.9658
13.7605
13.4676
12.9861
12.6997
12.7104
12.64
12.5387
12.3432
12.1828
12.0441
11.8708
11.5709
11.34
11.2411
11.3084
11.2599
11.1116
10.8755
9.89982
9.62977
9.63835
9.74086
9.80454
9.76108
9.61235
9.41711
9.23627
9.15534
9.12495
9.13448
9.17032
9.23571
9.27842
9.2331
8.93914
8.77891
8.66586
8.56207
8.46024
8.3835
8.27176
8.24295
8.34471
8.54652
8.57195
8.50848
8.38111
8.28113
8.1402
7.97358
7.82754
7.71438
7.37884
7.30536
7.36717
7.28228
7.08947
6.94268
6.68668
6.69278
6.44895
6.08266
5.94377
5.92078
6.22258
5.97626
6.16556
5.83898
5.76598
5.66083
5.54549
5.48301
5.4653
5.38294
5.23881
5.15572
5.07227
5.12035
5.22014
5.22344
5.16043
5.1658
5.18185
5.12518
5.06783
5.11982
5.14409
5.22073
5.3769
5.45377
5.45024
5.46162
5.46565
5.37049
5.26937
5.07865
5.10673
5.00194
4.78098
4.43977
4.08565
3.6818
3.23858
2.6119
1.74285
0.807328
32.6192
32.5563
32.3924
32.2727
32.2909
31.7914
31.8703
31.7771
31.63
31.6041
31.5685
31.5262
31.4881
31.3687
31.1671
30.9849
30.8254
30.6362
30.7557
31.1127
31.2388
31.0487
30.7352
30.4373
30.37
30.3095
30.3003
30.3275
30.3328
30.3043
30.2995
30.2974
30.3212
30.3528
30.3796
30.3269
30.0861
29.7817
29.5039
29.3288
28.9677
28.8125
28.7715
28.745
28.8092
28.7779
28.703
28.4607
28.4453
28.351
28.1742
27.9568
27.7281
27.489
27.4325
27.265
27.0428
26.7252
26.4621
26.2607
26.1109
25.9848
25.8868
25.7834
25.7277
25.7336
25.7237
25.73
25.7174
25.6371
25.5234
25.4336
25.3066
25.1486
24.9344
24.794
24.7099
24.5558
24.4468
24.2977
24.1208
23.954
23.8359
23.7842
23.7993
23.8107
23.8276
23.8531
23.7366
23.6617
23.6164
23.635