/*--------------------------------*- C++ -*----------------------------------*\
  =========                 |
  \\      /  F ield         | OpenFOAM: The Open Source CFD Toolbox
   \\    /   O peration     | Website:  https://openfoam.org
    \\  /    A nd           | Version:  7
     \\/     M anipulation  |
\*---------------------------------------------------------------------------*/
FoamFile
{
    version     2.0;
    format      ascii;
    class       surfaceScalarField;
    location    "100";
    object      phi;
}
// * * * * * * * * * * * * * * * * * * * * * * * * * * * * * * * * * * * * * //

dimensions      [0 3 -1 0 0 0 0];

internalField   nonuniform List<scalar> 
240592
(
2.80504e-11
1.25629e-12
-2.93071e-11
-6.71847e-11
1.07703e-10
3.53652e-11
-7.58845e-11
-1.42774e-10
1.67505e-10
1.97462e-11
-4.44793e-11
1.79661e-10
1.27696e-12
-2.78153e-12
-1.78157e-10
-1.82088e-10
1.9071e-10
7.94048e-12
-1.65626e-11
-2.01001e-10
2.14554e-10
9.72819e-12
-2.32811e-11
-2.29087e-10
2.44466e-10
1.40268e-11
-2.94049e-11
-2.58394e-10
2.68703e-10
1.17032e-11
-2.20113e-11
-2.74549e-10
2.68471e-10
-4.57396e-12
1.0653e-11
-2.55595e-10
2.43757e-10
-7.88771e-12
1.9729e-11
-2.39181e-10
2.40866e-10
2.23363e-12
-3.91812e-12
-2.49341e-10
2.62094e-10
1.12349e-11
-2.39886e-11
-2.73814e-10
2.80266e-10
8.20854e-12
-1.46609e-11
2.85987e-10
4.36215e-12
-7.00826e-12
-2.83343e-10
-2.88125e-10
2.85198e-10
-5.23603e-13
3.44749e-12
-2.76633e-10
2.67044e-10
-6.5435e-12
1.61315e-11
-2.56375e-10
2.46291e-10
-7.43657e-12
1.75201e-11
-2.34564e-10
2.17173e-10
-1.58112e-11
3.3202e-11
-1.88296e-10
1.57373e-10
-2.75361e-11
5.84588e-11
-1.2954e-10
1.07195e-10
-1.71695e-11
3.95148e-11
-8.84286e-11
7.29884e-11
-1.19334e-11
2.73736e-11
-5.7098e-11
3.10429e-11
-1.40807e-11
4.01365e-11
6.375e-11
5.29888e-11
-2.36814e-11
-9.30586e-11
1.54955e-10
-1.18617e-10
1.76854e-10
1.89774e-12
-2.15095e-10
1.01419e-10
-2.29375e-10
2.79985e-10
3.18268e-12
-1.55216e-10
2.42674e-11
-3.26352e-10
3.66313e-10
2.89744e-12
-6.71299e-11
4.35109e-11
-3.98248e-10
4.31062e-10
2.71912e-12
-7.90517e-11
6.56527e-11
-4.70452e-10
5.17423e-10
3.19448e-12
-1.15819e-10
6.53646e-11
-5.64488e-10
6.00513e-10
2.89569e-12
-1.04281e-10
4.22684e-11
-6.2182e-10
6.35519e-10
2.57042e-12
-5.85356e-11
-8.00223e-12
-6.46461e-10
6.61085e-10
2.4196e-12
-9.03569e-12
-2.59305e-11
-6.77396e-10
6.90466e-10
2.24507e-12
1.06167e-11
1.00129e-11
-6.99092e-10
7.0219e-10
2.36188e-12
-1.54749e-11
4.11179e-11
-6.98667e-10
6.90296e-10
2.63401e-12
-3.53831e-11
2.14499e-11
-6.77668e-10
6.64996e-10
2.32818e-12
-1.11139e-11
9.49051e-12
-6.51401e-10
6.36903e-10
2.53443e-12
2.46603e-12
-1.30546e-11
-6.18487e-10
5.96292e-10
2.23296e-12
3.30121e-11
-3.72258e-11
-5.70958e-10
5.4494e-10
2.01991e-12
6.122e-11
-3.6806e-11
-5.1944e-10
4.94993e-10
2.11448e-12
5.91392e-11
-6.74592e-11
-4.68837e-10
4.40025e-10
1.87649e-12
9.43955e-11
-1.12512e-10
-4.08467e-10
3.70942e-10
1.45524e-12
1.48585e-10
-9.24185e-11
-3.19841e-10
2.6101e-10
1.3453e-12
1.49904e-10
-6.20287e-11
-2.06542e-10
1.55443e-10
1.74695e-12
1.1138e-10
-9.13813e-11
3.67949e-11
7.1008e-12
1.43248e-10
-9.57645e-11
1.22412e-10
5.70661e-11
-2.6715e-11
-1.52764e-10
-1.20994e-10
2.66837e-10
1.75904e-10
5.58867e-13
-3.22304e-10
2.0743e-10
-2.24625e-10
2.72849e-10
2.05779e-12
-2.57712e-10
1.24268e-10
-3.2593e-10
3.83553e-10
2.101e-12
-1.83994e-10
1.18618e-10
-4.36223e-10
4.78803e-10
2.11935e-12
-1.63317e-10
1.63521e-10
-5.16524e-10
5.56179e-10
2.15464e-12
-2.05335e-10
1.48286e-10
-5.98249e-10
6.3644e-10
2.15078e-12
-1.88631e-10
7.90717e-11
-6.65889e-10
6.89495e-10
2.14546e-12
-1.04822e-10
3.19238e-11
-7.101e-10
7.33188e-10
2.24533e-12
-5.72612e-11
1.12652e-11
-7.57063e-10
7.75648e-10
2.16907e-12
-3.20242e-11
2.06048e-11
-7.83391e-10
7.83435e-10
2.25164e-12
-2.29028e-11
2.30815e-11
-7.77327e-10
7.64904e-10
2.27631e-12
-1.29374e-11
-5.2922e-12
-7.47291e-10
7.28466e-10
2.28397e-12
2.18301e-11
-2.08552e-11
-7.0721e-10
6.83215e-10
2.39294e-12
4.24559e-11
-5.55854e-11
-6.56213e-10
6.29806e-10
2.47294e-12
7.95195e-11
-8.50875e-11
-6.03752e-10
5.76509e-10
2.43387e-12
1.09895e-10
-8.5215e-11
-5.46015e-10
5.1334e-10
2.42916e-12
1.15458e-10
-1.18684e-10
-4.79889e-10
4.49292e-10
2.41864e-12
1.46866e-10
-1.7877e-10
-4.22207e-10
3.8905e-10
2.37839e-12
2.0955e-10
-2.08082e-10
-3.4212e-10
2.85534e-10
2.32428e-12
2.62343e-10
-1.72855e-10
-2.25426e-10
1.54827e-10
2.49782e-12
2.40953e-10
-1.90396e-10
2.46688e-11
7.11656e-12
2.37357e-10
-7.87516e-11
1.83377e-10
5.50352e-11
-2.44315e-11
-2.13982e-10
-1.24052e-10
3.8596e-10
1.88966e-10
4.74453e-13
-4.51348e-10
3.10125e-10
-2.46533e-10
3.0181e-10
2.07853e-12
-3.67477e-10
2.43442e-10
-3.56784e-10
4.13691e-10
2.0914e-12
-3.02441e-10
2.15083e-10
-4.70442e-10
5.22834e-10
2.16526e-12
-2.69642e-10
2.42513e-10
-5.6658e-10
5.99312e-10
2.23764e-12
-2.77487e-10
2.21385e-10
-6.23784e-10
6.49954e-10
2.18686e-12
-2.49747e-10
1.36896e-10
-6.81896e-10
7.1623e-10
2.16134e-12
-1.73397e-10
8.67627e-11
-7.48178e-10
7.77268e-10
2.27015e-12
-1.1813e-10
5.15874e-11
-7.99626e-10
8.15288e-10
2.28044e-12
-6.95329e-11
2.52664e-11
-8.21675e-10
8.23018e-10
2.32302e-12
-2.89365e-11
6.41262e-12
-8.20243e-10
8.14608e-10
2.34401e-12
-3.12578e-12
-3.70633e-11
-8.04411e-10
7.88304e-10
2.32017e-12
5.08489e-11
-6.63736e-11
-7.63938e-10
7.3468e-10
2.32202e-12
9.33087e-11
-1.03892e-10
-7.02546e-10
6.72766e-10
2.35804e-12
1.31314e-10
-1.32909e-10
-6.46171e-10
6.20403e-10
2.41315e-12
1.56265e-10
-1.47113e-10
-5.90653e-10
5.54526e-10
2.38076e-12
1.80861e-10
-1.83219e-10
-5.11522e-10
4.64488e-10
2.34436e-12
2.2791e-10
-2.43718e-10
-4.16773e-10
3.70853e-10
2.31227e-12
2.87321e-10
-3.04764e-10
-3.28536e-10
2.87297e-10
2.25469e-12
3.43744e-10
-3.03252e-10
-2.41321e-10
1.90967e-10
2.44568e-12
3.51157e-10
-2.91932e-10
6.33744e-11
1.05077e-11
3.50999e-10
-1.32953e-10
2.44028e-10
5.35702e-11
-2.43455e-11
-2.73255e-10
-1.17711e-10
5.14721e-10
1.80415e-10
5.81535e-13
-5.78008e-10
4.30246e-10
-2.43404e-10
3.08877e-10
2.14234e-12
-4.97859e-10
3.63578e-10
-3.73112e-10
4.33575e-10
2.19745e-12
-4.26243e-10
3.25321e-10
-4.90036e-10
5.42426e-10
2.22091e-12
-3.79935e-10
3.14756e-10
-5.89016e-10
6.28018e-10
2.23921e-12
-3.55996e-10
2.8028e-10
-6.5964e-10
6.91121e-10
2.23643e-12
-3.14001e-10
2.1304e-10
-7.26591e-10
7.65144e-10
2.26662e-12
-2.53867e-10
1.50577e-10
-8.00997e-10
8.31667e-10
2.25615e-12
-1.83505e-10
8.77399e-11
-8.54637e-10
8.71276e-10
2.34875e-12
-1.06731e-10
3.52735e-11
-8.81486e-10
8.87773e-10
2.41089e-12
-4.3979e-11
4.06983e-12
-8.90402e-10
8.90907e-10
2.35005e-12
-6.92872e-12
-6.1637e-11
-8.86663e-10
8.75142e-10
2.37384e-12
7.0783e-11
-1.21874e-10
-8.52555e-10
8.20066e-10
2.32315e-12
1.52038e-10
-1.59826e-10
-7.83156e-10
7.52615e-10
2.315e-12
1.88055e-10
-1.82884e-10
-7.25159e-10
6.91722e-10
2.40276e-12
2.13922e-10
-2.1681e-10
-6.51654e-10
6.06632e-10
2.33098e-12
2.59503e-10
-2.76061e-10
-5.55604e-10
5.00682e-10
2.26285e-12
3.28718e-10
-3.37616e-10
-4.4273e-10
3.86618e-10
2.26814e-12
3.91457e-10
-3.90521e-10
-3.32204e-10
2.75075e-10
2.23132e-12
4.45416e-10
-3.94896e-10
-2.16944e-10
1.659e-10
2.41785e-12
4.43518e-10
-4.05268e-10
5.60853e-11
1.00872e-11
4.55389e-10
-1.16298e-10
3.01216e-10
5.24724e-11
-2.39537e-11
-3.29735e-10
-1.15754e-10
6.45371e-10
1.81228e-10
5.73125e-13
-7.11419e-10
5.71455e-10
-2.52502e-10
3.29047e-10
2.13179e-12
-6.50135e-10
4.91429e-10
-4.0325e-10
4.70029e-10
2.22165e-12
-5.60433e-10
4.33703e-10
-5.28456e-10
5.81632e-10
2.26647e-12
-4.89147e-10
4.03608e-10
-6.33924e-10
6.85611e-10
2.30462e-12
-4.57602e-10
3.51192e-10
-7.30416e-10
7.66722e-10
2.29897e-12
-3.898e-10
2.95569e-10
-8.00951e-10
8.3918e-10
2.24926e-12
-3.36048e-10
2.19026e-10
-8.78995e-10
9.16442e-10
2.23088e-12
-2.58705e-10
1.28064e-10
-9.46115e-10
9.66292e-10
2.3541e-12
-1.50599e-10
5.58061e-11
-9.79692e-10
9.88546e-10
2.37577e-12
-6.70357e-11
8.66474e-12
-9.89878e-10
9.86792e-10
2.35797e-12
-7.93481e-12
-7.76964e-11
-9.83214e-10
9.77506e-10
2.35012e-12
8.10517e-11
-1.80035e-10
-9.63052e-10
9.36684e-10
2.33875e-12
2.04059e-10
-2.16654e-10
-9.02288e-10
8.65373e-10
2.37881e-12
2.51193e-10
-2.49341e-10
-8.22784e-10
7.7253e-10
2.31287e-12
2.97284e-10
-3.10878e-10
-7.14916e-10
6.55293e-10
2.30205e-12
3.68196e-10
-3.80771e-10
-5.9899e-10
5.50754e-10
2.31191e-12
4.26691e-10
-4.40672e-10
-5.05818e-10
4.59395e-10
2.23292e-12
4.84865e-10
-5.03755e-10
-4.07655e-10
3.47107e-10
2.23082e-12
5.62071e-10
-5.06552e-10
-2.7451e-10
1.92844e-10
2.58195e-12
5.8563e-10
-5.06064e-10
4.59529e-11
9.98387e-12
5.63133e-10
-1.13007e-10
3.5724e-10
5.29974e-11
-2.46906e-11
-3.85546e-10
-1.20518e-10
7.79919e-10
1.93411e-10
4.79632e-13
-8.53296e-10
7.34189e-10
-2.74725e-10
3.57296e-10
2.14538e-12
-8.18913e-10
6.30802e-10
-4.30371e-10
4.9435e-10
2.23417e-12
-6.97016e-10
5.50496e-10
-5.54239e-10
6.18331e-10
2.25262e-12
-6.16841e-10
5.21236e-10
-6.8736e-10
7.56595e-10
2.283e-12
-5.92759e-10
4.33148e-10
-8.18838e-10
8.70091e-10
2.28058e-12
-4.86683e-10
3.75653e-10
-9.10964e-10
9.49895e-10
2.21139e-12
-4.16794e-10
3.02987e-10
-9.90974e-10
1.03184e-09
2.25517e-12
-3.46111e-10
1.7109e-10
-1.06096e-09
1.07009e-09
2.27641e-12
-1.82496e-10
7.57993e-11
-1.06858e-09
1.07259e-09
2.28893e-12
-8.20886e-11
1.09079e-11
-1.08049e-09
1.08535e-09
2.3612e-12
-1.81274e-11
-8.14433e-11
-1.08446e-09
1.07896e-09
2.32115e-12
8.46248e-11
-2.23938e-10
-1.06756e-09
1.0486e-09
2.34528e-12
2.40556e-10
-2.89545e-10
-1.02186e-09
9.83356e-10
2.29128e-12
3.25755e-10
-3.56314e-10
-9.29034e-10
8.67557e-10
2.18616e-12
4.15602e-10
-4.25988e-10
-8.03041e-10
7.39023e-10
2.27526e-12
4.8773e-10
-4.68479e-10
-6.77128e-10
6.20367e-10
2.30159e-12
5.22936e-10
-5.3241e-10
-5.65732e-10
5.08224e-10
2.24739e-12
5.87669e-10
-6.16823e-10
-4.53395e-10
4.05107e-10
2.29597e-12
6.62811e-10
-6.68255e-10
-3.43824e-10
2.56688e-10
2.6776e-12
7.52711e-10
-6.31001e-10
6.44916e-11
1.21885e-11
7.10345e-10
-1.56026e-10
4.19871e-10
6.28554e-11
-2.83441e-11
-4.54382e-10
-1.44479e-10
9.33125e-10
2.28383e-10
1.59153e-13
-1.01719e-09
8.98942e-10
-3.10383e-10
3.8729e-10
2.16081e-12
-9.78017e-10
7.59245e-10
-4.57625e-10
5.25858e-10
2.27783e-12
-8.29758e-10
6.87754e-10
-5.96004e-10
6.71056e-10
2.25704e-12
-7.65066e-10
6.68784e-10
-7.48393e-10
8.22404e-10
2.20899e-12
-7.45005e-10
5.51724e-10
-8.90855e-10
9.56958e-10
2.18213e-12
-6.20008e-10
4.64484e-10
-1.0162e-09
1.06564e-09
2.24448e-12
-5.16172e-10
3.84239e-10
-1.10462e-09
1.13339e-09
2.27017e-12
-4.15276e-10
1.85644e-10
-1.14732e-09
1.15017e-09
2.20204e-12
-1.90686e-10
9.02804e-11
-1.15324e-09
1.16348e-09
2.22093e-12
-1.02739e-10
2.79213e-11
-1.17453e-09
1.17868e-09
2.25267e-12
-3.43196e-11
-9.05003e-11
-1.17193e-09
1.16189e-09
2.29849e-12
9.824e-11
-2.53766e-10
-1.1509e-09
1.13557e-09
2.26426e-12
2.66832e-10
-3.58545e-10
-1.11004e-09
1.07604e-09
2.19465e-12
3.9035e-10
-4.63691e-10
-1.03701e-09
9.94799e-10
2.18795e-12
5.03707e-10
-5.52401e-10
-9.44493e-10
8.79383e-10
2.22011e-12
6.1529e-10
-6.02327e-10
-7.93151e-10
6.90593e-10
2.1884e-12
7.02695e-10
-6.50521e-10
-5.88583e-10
5.05193e-10
2.26612e-12
7.3164e-10
-6.98735e-10
-4.44355e-10
3.97655e-10
2.3384e-12
7.43096e-10
-8.34417e-10
-3.41692e-10
2.62902e-10
2.65061e-12
9.10555e-10
-7.9731e-10
6.92331e-11
1.28321e-11
8.80472e-10
-1.65235e-10
4.89e-10
6.54245e-11
-2.92368e-11
-5.25189e-10
-1.51162e-10
1.10286e-09
2.39396e-10
4.58237e-14
-1.19114e-09
1.06204e-09
-3.261e-10
4.13114e-10
2.09872e-12
-1.15115e-09
9.15711e-10
-5.03642e-10
5.97375e-10
2.17172e-12
-1.01162e-09
8.49886e-10
-6.89385e-10
7.75657e-10
2.24431e-12
-9.38405e-10
8.21422e-10
-8.5283e-10
9.2418e-10
2.19255e-12
-8.94962e-10
6.86714e-10
-9.91907e-10
1.05635e-09
2.17905e-12
-7.53339e-10
5.66214e-10
-1.11345e-09
1.15987e-09
2.27726e-12
-6.14914e-10
4.42636e-10
-1.19339e-09
1.21897e-09
2.22504e-12
-4.70436e-10
2.14153e-10
-1.24625e-09
1.28313e-09
2.1637e-12
-2.53195e-10
1.1946e-10
-1.31674e-09
1.33313e-09
2.16324e-12
-1.38016e-10
3.18073e-11
-1.33252e-09
1.32326e-09
2.15512e-12
-2.47074e-11
-1.07022e-10
-1.30997e-09
1.29338e-09
2.19229e-12
1.21421e-10
-2.81514e-10
-1.2733e-09
1.25027e-09
2.16259e-12
3.02386e-10
-4.23309e-10
-1.22033e-09
1.18346e-09
2.17547e-12
4.58002e-10
-5.40373e-10
-1.14285e-09
1.10042e-09
2.23334e-12
5.80568e-10
-6.76337e-10
-1.05094e-09
9.88811e-10
2.16054e-12
7.36297e-10
-8.09421e-10
-9.0922e-10
8.11386e-10
2.14168e-12
9.05111e-10
-8.32815e-10
-6.99933e-10
5.87372e-10
2.24683e-12
9.43129e-10
-8.13187e-10
-4.79998e-10
3.80364e-10
2.29034e-12
9.10533e-10
-9.76835e-10
-2.9091e-10
2.18428e-10
2.52818e-12
1.04678e-09
-9.51364e-10
7.44972e-11
1.21714e-11
1.01729e-09
-1.52604e-10
5.64535e-10
7.76316e-11
-3.5243e-11
-6.06927e-10
-1.75014e-10
1.28385e-09
2.73467e-10
-2.34597e-13
-1.38207e-09
1.24576e-09
-3.70427e-10
4.6893e-10
2.06558e-12
-1.34633e-09
1.11727e-09
-5.71928e-10
6.79264e-10
2.14998e-12
-1.22676e-09
1.03142e-09
-7.83341e-10
8.7898e-10
2.22408e-12
-1.12928e-09
9.66533e-10
-9.62674e-10
1.04012e-09
2.20144e-12
-1.04619e-09
8.23174e-10
-1.11476e-09
1.18476e-09
2.25662e-12
-8.95431e-10
6.66809e-10
-1.24523e-09
1.29521e-09
2.2269e-12
-7.19016e-10
5.0317e-10
-1.33544e-09
1.37023e-09
2.13277e-12
-5.40096e-10
2.95729e-10
-1.40589e-09
1.44445e-09
2.0998e-12
-3.3639e-10
1.57286e-10
-1.47509e-09
1.49052e-09
2.06987e-12
-1.74792e-10
1.97683e-11
-1.49215e-09
1.48588e-09
2.08024e-12
-1.55723e-11
-1.40657e-10
-1.47152e-09
1.4493e-09
2.12282e-12
1.60754e-10
-3.28803e-10
-1.41995e-09
1.38762e-09
2.16086e-12
3.58967e-10
-4.95074e-10
-1.3511e-09
1.30692e-09
2.14539e-12
5.37113e-10
-6.28533e-10
-1.25415e-09
1.19447e-09
2.13798e-12
6.86073e-10
-7.97477e-10
-1.12807e-09
1.05744e-09
2.11061e-12
8.65988e-10
-9.81879e-10
-9.85532e-10
9.12289e-10
2.15593e-12
1.05296e-09
-1.04672e-09
-8.29481e-10
7.30618e-10
2.25353e-12
1.14333e-09
-1.02635e-09
-6.13558e-10
4.84062e-10
2.31672e-12
1.15353e-09
-1.13795e-09
-3.54972e-10
2.41541e-10
2.6445e-12
1.24873e-09
-1.08577e-09
6.09538e-11
1.17686e-11
1.15863e-09
-1.45586e-10
6.52439e-10
8.93269e-11
-4.09443e-11
-7.00823e-10
-2.03121e-10
1.48872e-09
3.19594e-10
-5.74295e-13
-1.60462e-09
1.4538e-09
-4.34184e-10
5.46419e-10
2.11707e-12
-1.56816e-09
1.33761e-09
-6.58144e-10
7.69785e-10
2.21238e-12
-1.45147e-09
1.23217e-09
-8.7862e-10
9.84717e-10
2.17939e-12
-1.34044e-09
1.13923e-09
-1.08741e-09
1.18588e-09
2.21052e-12
-1.23991e-09
9.71114e-10
-1.27399e-09
1.35014e-09
2.21968e-12
-1.04949e-09
7.72203e-10
-1.41414e-09
1.46885e-09
2.06771e-12
-8.28983e-10
5.82044e-10
-1.51664e-09
1.56151e-09
2.07012e-12
-6.2898e-10
3.7579e-10
-1.6032e-09
1.63984e-09
2.09378e-12
-4.14532e-10
1.90913e-10
-1.66518e-09
1.67743e-09
2.02985e-12
-2.05198e-10
1.24063e-11
-1.67824e-09
1.67327e-09
2.03802e-12
-9.47616e-12
-1.78379e-10
-1.66286e-09
1.64551e-09
2.0797e-12
1.93642e-10
-3.90776e-10
-1.61805e-09
1.58182e-09
2.11183e-12
4.249e-10
-5.84096e-10
-1.53616e-09
1.48041e-09
2.06597e-12
6.37788e-10
-7.519e-10
-1.41347e-09
1.33729e-09
2.07823e-12
8.26003e-10
-9.4235e-10
-1.25456e-09
1.16775e-09
2.12348e-12
1.02703e-09
-1.12875e-09
-1.079e-09
9.91223e-10
2.15743e-12
1.21437e-09
-1.23816e-09
-9.01326e-10
8.01786e-10
2.21254e-12
1.33549e-09
-1.28157e-09
-6.86503e-10
5.57956e-10
2.28248e-12
1.40783e-09
-1.36933e-09
-4.25021e-10
2.99411e-10
2.60474e-12
1.49234e-09
-1.23856e-09
7.97009e-11
1.39141e-11
1.32979e-09
-1.84849e-10
7.5218e-10
1.09738e-10
-4.99847e-11
-8.11934e-10
-2.44772e-10
1.73085e-09
3.77319e-10
-9.88585e-13
-1.86241e-09
1.69099e-09
-5.07461e-10
6.3585e-10
2.13562e-12
-1.82152e-09
1.57174e-09
-7.62968e-10
8.89726e-10
2.13501e-12
-1.70064e-09
1.45582e-09
-1.01448e-09
1.1346e-09
2.09607e-12
-1.57804e-09
1.3438e-09
-1.2459e-09
1.34688e-09
2.16936e-12
-1.44695e-09
1.13187e-09
-1.43738e-09
1.5214e-09
2.12082e-12
-1.218e-09
8.93568e-10
-1.59905e-09
1.66973e-09
2.07577e-12
-9.66328e-10
6.81099e-10
-1.73103e-09
1.78473e-09
2.11302e-12
-7.36907e-10
4.53496e-10
-1.83044e-09
1.86698e-09
2.04781e-12
-4.92079e-10
2.19209e-10
-1.89162e-09
1.9038e-09
2.02264e-12
-2.33411e-10
6.93962e-12
-1.90514e-09
1.90105e-09
2.04474e-12
-4.90245e-12
-2.06646e-10
-1.8942e-09
1.88122e-09
2.04906e-12
2.17575e-10
-4.61241e-10
-1.8541e-09
1.81132e-09
2.00111e-12
5.02021e-10
-6.98567e-10
-1.75301e-09
1.68098e-09
2.06102e-12
7.6854e-10
-9.06612e-10
-1.59671e-09
1.50683e-09
2.07822e-12
9.94413e-10
-1.1172e-09
-1.41326e-09
1.31678e-09
2.10004e-12
1.21158e-09
-1.30806e-09
-1.21647e-09
1.11446e-09
2.14839e-12
1.40792e-09
-1.43648e-09
-1.00923e-09
8.98885e-10
2.14386e-12
1.54468e-09
-1.53257e-09
-7.79077e-10
6.49787e-10
2.17136e-12
1.65969e-09
-1.61837e-09
-5.13799e-10
3.76831e-10
2.53964e-12
1.7528e-09
-1.43325e-09
1.06496e-10
1.77545e-11
1.54988e-09
-2.40883e-10
8.76781e-10
1.19731e-10
-5.42435e-11
-9.4227e-10
-2.77978e-10
2.00512e-09
4.38645e-10
-1.58262e-12
-2.16421e-09
1.96378e-09
-5.94149e-10
7.46854e-10
2.14925e-12
-2.11864e-09
1.84062e-09
-8.96245e-10
1.04167e-09
2.02518e-12
-1.98807e-09
1.70726e-09
-1.18091e-09
1.3118e-09
2.0637e-12
-1.84022e-09
1.55148e-09
-1.43165e-09
1.54121e-09
2.12039e-12
-1.66316e-09
1.30908e-09
-1.64165e-09
1.73703e-09
2.10106e-12
-1.40657e-09
1.04731e-09
-1.82873e-09
1.91406e-09
2.20095e-12
-1.13484e-09
7.9664e-10
-1.98783e-09
2.04889e-09
2.12857e-12
-8.59829e-10
5.31654e-10
-2.0976e-09
2.13622e-09
2.02147e-12
-5.72299e-10
2.50292e-10
-2.16457e-09
2.18342e-09
2.08556e-12
-2.71234e-10
6.12838e-12
-2.19265e-09
2.19515e-09
2.08531e-12
-1.07202e-11
-2.26661e-10
-2.19047e-09
2.17482e-09
2.00213e-12
2.40304e-10
-5.47984e-10
-2.1401e-09
2.08512e-09
1.99593e-12
6.00959e-10
-8.48111e-10
-2.01105e-09
1.92148e-09
2.1191e-12
9.35553e-10
-1.08872e-09
-1.82157e-09
1.72032e-09
2.03072e-12
1.18793e-09
-1.30903e-09
-1.61888e-09
1.51529e-09
1.99694e-12
1.41062e-09
-1.51303e-09
-1.40671e-09
1.29114e-09
2.08333e-12
1.62651e-09
-1.66218e-09
-1.16638e-09
1.03375e-09
2.04514e-12
1.79277e-09
-1.79253e-09
-8.93998e-10
7.49831e-10
2.01456e-12
1.93469e-09
-1.89506e-09
-6.02421e-10
4.52754e-10
2.48785e-12
2.04224e-09
-1.67931e-09
1.34284e-10
2.14005e-11
1.82123e-09
-2.97607e-10
1.01229e-09
1.44834e-10
-6.6818e-11
-1.09031e-09
-3.27193e-10
2.33778e-09
5.12175e-10
-2.21555e-12
-2.52055e-09
2.28643e-09
-6.95566e-10
8.74319e-10
2.03087e-12
-2.46721e-09
2.14191e-09
-1.04353e-09
1.20155e-09
1.98707e-12
-2.30192e-09
1.97831e-09
-1.34903e-09
1.49159e-09
2.06298e-12
-2.12293e-09
1.78582e-09
-1.62901e-09
1.75975e-09
2.074e-12
-1.91864e-09
1.51435e-09
-1.88261e-09
1.99916e-09
2.10806e-12
-1.63301e-09
1.22964e-09
-2.10805e-09
2.20789e-09
2.19414e-12
-1.33168e-09
9.28402e-10
-2.29429e-09
2.36638e-09
2.14657e-12
-1.00264e-09
6.16853e-10
-2.42361e-09
2.46936e-09
2.11527e-12
-6.64715e-10
2.98124e-10
-2.50506e-09
2.53178e-09
2.14407e-12
-3.2699e-10
1.60478e-11
-2.54638e-09
2.54413e-09
2.11587e-12
-1.59128e-11
-2.67405e-10
-2.51898e-09
2.47474e-09
2.01649e-12
3.09624e-10
-6.60827e-10
-2.41784e-09
2.34991e-09
2.02739e-12
7.2673e-10
-1.02436e-09
-2.2704e-09
2.18316e-09
2.00151e-12
1.1096e-09
-1.28713e-09
-2.0909e-09
1.99177e-09
1.93233e-12
1.38433e-09
-1.51785e-09
-1.88117e-09
1.76119e-09
1.90708e-12
1.63592e-09
-1.75026e-09
-1.63203e-09
1.49218e-09
1.92941e-12
1.88817e-09
-1.93756e-09
-1.34024e-09
1.17806e-09
1.94246e-12
2.0978e-09
-2.08853e-09
-1.0093e-09
8.39174e-10
1.93284e-12
2.25672e-09
-2.19507e-09
-6.6976e-10
5.02678e-10
2.44744e-12
2.35971e-09
-1.97163e-09
1.51136e-10
2.36725e-11
2.12929e-09
-3.32464e-10
1.1735e-09
1.57204e-10
-7.20688e-11
-1.25863e-09
-3.60682e-10
2.71549e-09
5.72851e-10
-3.05952e-12
-2.92459e-09
2.66119e-09
-7.84013e-10
9.86293e-10
1.81272e-12
-2.86529e-09
2.47126e-09
-1.17632e-09
1.35595e-09
1.99738e-12
-2.6529e-09
2.27897e-09
-1.52871e-09
1.6989e-09
2.0206e-12
-2.45118e-09
2.0637e-09
-1.86377e-09
2.01992e-09
2.03811e-12
-2.22189e-09
1.76341e-09
-2.16589e-09
2.30399e-09
2.14281e-12
-1.90365e-09
1.44186e-09
-2.43141e-09
2.54667e-09
2.13057e-12
-1.55926e-09
1.08412e-09
-2.64789e-09
2.73419e-09
2.17212e-12
-1.1726e-09
7.16353e-10
-2.80357e-09
2.85653e-09
2.16484e-12
-7.71474e-10
3.54259e-10
-2.89345e-09
2.91592e-09
2.09339e-12
-3.78812e-10
9.28547e-12
-2.92183e-09
2.90885e-09
2.04092e-12
1.64392e-12
-3.5864e-10
-2.87355e-09
2.81924e-09
2.0215e-12
4.10915e-10
-7.94792e-10
-2.75328e-09
2.68198e-09
1.97729e-12
8.64112e-10
-1.1892e-09
-2.60606e-09
2.52455e-09
1.79841e-12
1.2689e-09
-1.48279e-09
-2.43202e-09
2.32046e-09
1.82372e-12
1.59251e-09
-1.76829e-09
-2.1867e-09
2.03668e-09
1.86595e-12
1.91645e-09
-2.04289e-09
-1.87314e-09
1.70062e-09
1.80574e-12
2.21361e-09
-2.27084e-09
-1.52016e-09
1.33447e-09
1.84024e-12
2.45469e-09
-2.43606e-09
-1.14487e-09
9.52233e-10
1.8448e-12
2.62684e-09
-2.53754e-09
-7.562e-10
5.60846e-10
2.47975e-12
2.73041e-09
-2.29474e-09
1.63136e-10
2.55693e-11
2.47033e-09
-3.64292e-10
1.3484e-09
1.79706e-10
-8.20421e-11
-1.44607e-09
-4.11898e-10
3.14623e-09
6.49959e-10
-3.79771e-12
-3.38048e-09
3.07838e-09
-8.81824e-10
1.10463e-09
1.66394e-12
-3.30285e-09
2.85283e-09
-1.32198e-09
1.53871e-09
1.90126e-12
-3.07146e-09
2.64279e-09
-1.75255e-09
1.95758e-09
1.88557e-12
-2.84971e-09
2.39367e-09
-2.14987e-09
2.33081e-09
1.95811e-12
-2.57657e-09
2.05296e-09
-2.50043e-09
2.65773e-09
2.09061e-12
-2.21236e-09
1.68489e-09
-2.80078e-09
2.93203e-09
2.05776e-12
-1.8182e-09
1.26923e-09
-3.0501e-09
3.15163e-09
2.10361e-12
-1.37287e-09
8.30568e-10
-3.23213e-09
3.29244e-09
2.10775e-12
-8.92996e-10
4.03826e-10
-3.33268e-09
3.35509e-09
1.9986e-12
-4.28232e-10
-1.40915e-11
-3.35794e-09
3.3406e-09
1.9392e-12
2.94892e-11
-4.6482e-10
-3.30209e-09
3.24565e-09
1.97905e-12
5.19279e-10
-9.34574e-10
-3.17755e-09
3.10468e-09
1.89873e-12
1.00555e-09
-1.3534e-09
-3.02366e-09
2.92865e-09
1.77315e-12
1.44663e-09
-1.71683e-09
-2.81216e-09
2.67261e-09
1.8041e-12
1.85457e-09
-2.07741e-09
-2.51327e-09
2.33836e-09
1.79154e-12
2.25053e-09
-2.39645e-09
-2.15049e-09
1.95404e-09
1.74458e-12
2.59115e-09
-2.64943e-09
-1.7506e-09
1.54036e-09
1.77381e-12
2.85789e-09
-2.83278e-09
-1.32129e-09
1.09345e-09
1.75767e-12
3.05885e-09
-2.93909e-09
-8.61432e-10
6.31252e-10
2.44476e-12
3.16682e-09
-2.65667e-09
1.78459e-10
2.79974e-11
2.85415e-09
-4.03944e-10
1.54992e-09
2.11523e-10
-9.68423e-11
-1.6646e-09
-4.82973e-10
3.63433e-09
7.56356e-10
-4.69712e-12
-3.90301e-09
3.54574e-09
-1.0243e-09
1.2859e-09
1.58905e-12
-3.80893e-09
3.30622e-09
-1.54112e-09
1.79195e-09
1.71635e-12
-3.55876e-09
3.06937e-09
-2.03584e-09
2.26928e-09
1.79535e-12
-3.3046e-09
2.77227e-09
-2.48927e-09
2.69628e-09
1.84047e-12
-2.98113e-09
2.38371e-09
-2.88965e-09
3.06866e-09
1.86781e-12
-2.56459e-09
1.95879e-09
-3.22964e-09
3.37391e-09
1.93639e-12
-2.105e-09
1.48296e-09
-3.50213e-09
3.61392e-09
1.96973e-12
-1.59673e-09
9.603e-10
-3.70559e-09
3.77623e-09
1.97869e-12
-1.03292e-09
4.51783e-10
-3.82371e-09
3.84626e-09
1.87582e-12
-4.76213e-10
-4.83886e-11
-3.84321e-09
3.81979e-09
1.85824e-12
6.99496e-11
-5.71434e-10
-3.78015e-09
3.72819e-09
1.88969e-12
6.21501e-10
-1.07492e-09
-3.66672e-09
3.59547e-09
1.82926e-12
1.14433e-09
-1.54965e-09
-3.50449e-09
3.38672e-09
1.8116e-12
1.66561e-09
-2.00323e-09
-3.24335e-09
3.07969e-09
1.7449e-12
2.16513e-09
-2.43607e-09
-2.89681e-09
2.6967e-09
1.67128e-12
2.63451e-09
-2.79871e-09
-2.48206e-09
2.25643e-09
1.72363e-12
3.02261e-09
-3.08165e-09
-2.02193e-09
1.77889e-09
1.7522e-12
3.32294e-09
-3.30568e-09
-1.52364e-09
1.25515e-09
1.67534e-12
3.57249e-09
-3.41563e-09
-9.78319e-10
7.03789e-10
2.43771e-12
3.68772e-09
-3.06071e-09
1.90392e-10
3.05586e-11
3.27909e-09
-4.3933e-10
1.79243e-09
2.59014e-10
-1.19772e-10
-1.93168e-09
-5.71293e-10
4.18165e-09
8.72652e-10
-5.56147e-12
-4.47745e-09
4.09478e-09
-1.1743e-09
1.48076e-09
1.59335e-12
-4.40284e-09
3.83397e-09
-1.78531e-09
2.08184e-09
1.66019e-12
-4.13216e-09
3.55921e-09
-2.36654e-09
2.63735e-09
1.69352e-12
-3.83171e-09
3.20533e-09
-2.89331e-09
3.13097e-09
1.70117e-12
-3.4447e-09
2.75592e-09
-3.34927e-09
3.55032e-09
1.71972e-12
-2.95869e-09
2.25927e-09
-3.73298e-09
3.89467e-09
1.73229e-12
-2.42271e-09
1.71226e-09
-4.03273e-09
4.15006e-09
1.76564e-12
-1.83135e-09
1.11135e-09
-4.2492e-09
4.32988e-09
1.84303e-12
-1.19387e-09
5.05255e-10
-4.38924e-09
4.42358e-09
1.85989e-12
-5.41464e-10
-8.63686e-11
-4.43275e-09
4.4225e-09
1.81705e-12
9.48064e-11
-6.6847e-10
-4.39317e-09
4.34364e-09
1.78733e-12
7.16212e-10
-1.22064e-09
-4.27134e-09
4.17396e-09
1.77701e-12
1.31624e-09
-1.79916e-09
-4.04829e-09
3.89614e-09
1.78886e-12
1.94953e-09
-2.34345e-09
-3.71976e-09
3.52548e-09
1.73087e-12
2.536e-09
-2.84223e-09
-3.31751e-09
3.09808e-09
1.66871e-12
3.05998e-09
-3.26011e-09
-2.86363e-09
2.61288e-09
1.67375e-12
3.50919e-09
-3.58205e-09
-2.34661e-09
2.0683e-09
1.61513e-12
3.85874e-09
-3.85747e-09
-1.77606e-09
1.47216e-09
1.59467e-12
4.15978e-09
-3.98342e-09
-1.15923e-09
8.41658e-10
2.55732e-12
4.29843e-09
-3.51598e-09
2.26048e-10
3.63775e-11
3.77982e-09
-5.26269e-10
2.07823e-09
2.86081e-10
-1.315e-10
-2.23282e-09
-6.44423e-10
4.79902e-09
1.00202e-09
-6.8385e-12
-5.14979e-09
4.73478e-09
-1.3582e-09
1.71412e-09
1.58865e-12
-5.09229e-09
4.45392e-09
-2.06634e-09
2.40949e-09
1.6292e-12
-4.79871e-09
4.12388e-09
-2.73828e-09
3.04868e-09
1.50261e-12
-4.43577e-09
3.6996e-09
-3.33805e-09
3.60722e-09
1.55045e-12
-3.97032e-09
3.17445e-09
-3.85496e-09
4.08252e-09
1.5497e-12
-3.40356e-09
2.59736e-09
-4.28993e-09
4.47576e-09
1.56364e-12
-2.78477e-09
1.95907e-09
-4.63702e-09
4.77614e-09
1.6171e-12
-2.09981e-09
1.28321e-09
-4.894e-09
4.98933e-09
1.71901e-12
-1.38025e-09
5.85692e-10
-5.05934e-09
5.10448e-09
1.83963e-12
-6.32674e-10
-9.82291e-11
-5.12378e-09
5.11688e-09
1.81637e-12
1.03316e-10
-7.69316e-10
-5.08216e-09
5.01846e-09
1.77137e-12
8.31242e-10
-1.43138e-09
-4.92187e-09
4.79368e-09
1.73488e-12
1.55784e-09
-2.10972e-09
-4.64225e-09
4.47318e-09
1.72089e-12
2.27706e-09
-2.73895e-09
-4.28191e-09
4.06519e-09
1.71459e-12
2.95396e-09
-3.29233e-09
-3.82697e-09
3.57373e-09
1.74873e-12
3.54382e-09
-3.77109e-09
-3.30715e-09
3.02718e-09
1.7003e-12
4.04935e-09
-4.15109e-09
-2.73205e-09
2.41943e-09
1.52388e-12
4.46218e-09
-4.47879e-09
-2.09086e-09
1.75306e-09
1.52458e-12
4.81507e-09
-4.63003e-09
-1.40824e-09
1.05505e-09
2.64758e-12
4.98055e-09
-4.07556e-09
3.09681e-10
4.71875e-11
4.40852e-09
-6.89837e-10
2.39322e-09
3.071e-10
-1.40066e-10
-2.56025e-09
-7.15699e-10
5.53436e-09
1.14242e-09
-8.42378e-12
-5.95266e-09
5.47999e-09
-1.56725e-09
1.98503e-09
1.41361e-12
-5.89919e-09
5.16907e-09
-2.39424e-09
2.79039e-09
1.52914e-12
-5.56675e-09
4.76817e-09
-3.16682e-09
3.51978e-09
1.45994e-12
-5.1226e-09
4.25799e-09
-3.84807e-09
4.15513e-09
1.4518e-12
-4.5665e-09
3.65089e-09
-4.44302e-09
4.71036e-09
1.39204e-12
-3.91962e-09
2.98654e-09
-4.95121e-09
5.16518e-09
1.4933e-12
-3.202e-09
2.25584e-09
-5.3547e-09
5.52026e-09
1.55499e-12
-2.42296e-09
1.48372e-09
-5.65679e-09
5.76258e-09
1.60359e-12
-1.59111e-09
6.81065e-10
-5.83741e-09
5.88541e-09
1.68564e-12
-7.30749e-10
-1.10478e-10
-5.90623e-09
5.89615e-09
1.71959e-12
1.18844e-10
-8.99418e-10
-5.85302e-09
5.77862e-09
1.71923e-12
9.72104e-10
-1.68965e-09
-5.67165e-09
5.53306e-09
1.68853e-12
1.82654e-09
-2.45192e-09
-5.36762e-09
5.17914e-09
1.65826e-12
2.63875e-09
-3.18118e-09
-4.96542e-09
4.72267e-09
1.64114e-12
3.42229e-09
-3.81579e-09
-4.45061e-09
4.15545e-09
1.70967e-12
4.10923e-09
-4.34685e-09
-3.84399e-09
3.51985e-09
1.58184e-12
4.66941e-09
-4.79336e-09
-3.1809e-09
2.8265e-09
1.46287e-12
5.14629e-09
-5.16966e-09
-2.45939e-09
2.08283e-09
1.43421e-12
5.54478e-09
-5.35519e-09
-1.69397e-09
1.28618e-09
2.75414e-12
5.76023e-09
-4.78031e-09
3.8193e-10
5.7851e-11
5.19057e-09
-8.50042e-10
2.74134e-09
3.69232e-10
-1.68912e-10
-2.94166e-09
-8.4869e-10
6.40176e-09
1.33877e-09
-1.00789e-11
-6.88176e-09
6.34833e-09
-1.82402e-09
2.30072e-09
1.23761e-12
-6.82627e-09
5.99246e-09
-2.76605e-09
3.21677e-09
1.40957e-12
-6.44459e-09
5.50389e-09
-3.64896e-09
4.05986e-09
1.43198e-12
-5.91622e-09
4.90142e-09
-4.44617e-09
4.80915e-09
1.27518e-12
-5.26567e-09
4.21086e-09
-5.14776e-09
5.45937e-09
1.2664e-12
-4.52373e-09
3.43353e-09
-5.73984e-09
5.98865e-09
1.39767e-12
-3.68374e-09
2.59943e-09
-6.20569e-09
6.38827e-09
1.45598e-12
-2.78346e-09
1.70219e-09
-6.53553e-09
6.65038e-09
1.53933e-12
-1.81858e-09
7.82774e-10
-6.73404e-09
6.78657e-09
1.54232e-12
-8.36851e-10
-1.28666e-10
-6.80572e-09
6.78947e-09
1.56363e-12
1.43352e-10
-1.04763e-09
-6.73865e-09
6.65674e-09
1.52825e-12
1.12802e-09
-1.96745e-09
-6.54296e-09
6.39585e-09
1.57318e-12
2.11299e-09
-2.8397e-09
-6.21192e-09
5.99349e-09
1.57782e-12
3.05656e-09
-3.6791e-09
-5.74267e-09
5.46441e-09
1.54558e-12
3.95582e-09
-4.42184e-09
-5.15826e-09
4.82567e-09
1.53213e-12
4.7529e-09
-5.02059e-09
-4.46696e-09
4.08574e-09
1.46068e-12
5.40034e-09
-5.52698e-09
-3.68274e-09
3.26411e-09
1.46645e-12
5.94413e-09
-5.94571e-09
-2.83546e-09
2.39534e-09
1.42701e-12
6.3844e-09
-6.20016e-09
-1.93674e-09
1.45551e-09
2.98711e-12
6.6784e-09
-5.62954e-09
4.21334e-10
6.47336e-11
6.09025e-09
-9.46787e-10
3.16554e-09
4.52245e-10
-2.06883e-10
-3.4109e-09
-1.01962e-09
7.39582e-09
1.58773e-09
-1.20838e-11
-7.95185e-09
7.3356e-09
-2.14662e-09
2.69318e-09
1.12045e-12
-7.88328e-09
6.92316e-09
-3.22021e-09
3.72703e-09
1.27783e-12
-7.43126e-09
6.36129e-09
-4.21682e-09
4.6905e-09
1.29796e-12
-6.83627e-09
5.66198e-09
-5.14297e-09
5.56798e-09
1.18579e-12
-6.08818e-09
4.85867e-09
-5.95986e-09
6.3186e-09
1.25499e-12
-5.21867e-09
3.95419e-09
-6.64372e-09
6.93331e-09
1.26879e-12
-4.24505e-09
2.97919e-09
-7.18358e-09
7.39485e-09
1.35294e-12
-3.19182e-09
1.94533e-09
-7.56913e-09
7.70832e-09
1.41323e-12
-2.08595e-09
8.94371e-10
-7.80999e-09
7.87067e-09
1.42712e-12
-9.56485e-10
-1.64241e-10
-7.88734e-09
7.86017e-09
1.42663e-12
1.89989e-10
-1.21751e-09
-7.79216e-09
7.68862e-09
1.36506e-12
1.31968e-09
-2.26708e-09
-7.55151e-09
7.37891e-09
1.40805e-12
2.43827e-09
-3.28892e-09
-7.16783e-09
6.91686e-09
1.41729e-12
3.53847e-09
-4.25381e-09
-6.62846e-09
6.30741e-09
1.45327e-12
4.5734e-09
-5.10368e-09
-5.95791e-09
5.58102e-09
1.39469e-12
5.47918e-09
-5.80612e-09
-5.17451e-09
4.73814e-09
1.38814e-12
6.2411e-09
-6.3993e-09
-4.27137e-09
3.77802e-09
1.43916e-12
6.89121e-09
-6.8701e-09
-3.26218e-09
2.72662e-09
1.46297e-12
7.40419e-09
-7.19466e-09
-2.17518e-09
1.61255e-09
3.20289e-12
7.75408e-09
-6.57322e-09
4.59947e-10
7.03652e-11
7.08166e-09
-1.03875e-09
3.6732e-09
5.19791e-10
-2.38069e-10
-3.95492e-09