/*--------------------------------*- C++ -*----------------------------------*\
  =========                 |
  \\      /  F ield         | OpenFOAM: The Open Source CFD Toolbox
   \\    /   O peration     | Website:  https://openfoam.org
    \\  /    A nd           | Version:  7
     \\/     M anipulation  |
\*---------------------------------------------------------------------------*/
FoamFile
{
    version     2.0;
    format      ascii;
    class       volVectorField;
    location    "100";
    object      U;
}
// * * * * * * * * * * * * * * * * * * * * * * * * * * * * * * * * * * * * * //

dimensions      [0 1 -1 0 0 0 0];

internalField   nonuniform List<vector> 
96800
(
(4.26637e-05 -2.26535e-07 -4.39209e-05)
(0.00016563 -5.36751e-07 -5.07879e-05)
(0.000295471 -5.37511e-07 -2.84307e-05)
(0.000336839 1.47641e-07 -9.19232e-08)
(0.000344932 -1.80167e-07 -9.31517e-06)
(0.000381933 -2.44874e-07 -1.3913e-05)
(0.000438134 -2.2548e-07 -1.83555e-05)
(0.000489653 -1.32995e-07 -1.44114e-05)
(0.000511363 1.85222e-07 8.49995e-06)
(0.000464421 5.55923e-07 1.40059e-05)
(0.000446573 7.80973e-08 -2.06444e-06)
(0.000478605 -3.86358e-07 -1.57311e-05)
(0.000521815 -1.1526e-07 -1.00345e-05)
(0.000532108 -6.35215e-08 -4.91603e-06)
(0.000539938 6.91273e-08 1.60226e-06)
(0.000507821 2.78192e-07 9.70419e-06)
(0.000467708 3.17992e-07 1.09361e-05)
(0.000425524 3.52197e-07 2.00242e-05)
(0.000319768 8.60542e-07 3.82512e-05)
(0.000216593 5.06184e-07 2.4134e-05)
(0.000145639 3.36754e-07 1.8109e-05)
(8.8766e-05 4.34147e-07 2.9078e-05)
(3.379e-05 5.81234e-07 -0.000154699)
(0.00013215 -1.69717e-07 -0.000171497)
(0.000223476 -1.94341e-07 -0.000115702)
(0.000308197 1.62369e-07 -3.67948e-05)
(0.000359157 2.76654e-07 -5.49463e-05)
(0.000424702 2.28387e-07 -7.72386e-05)
(0.000510712 4.69633e-07 -7.13821e-05)
(0.000548669 4.33402e-07 -4.4615e-05)
(0.000568648 3.83307e-07 4.66544e-06)
(0.000597972 5.91523e-07 2.24789e-05)
(0.000608708 1.14338e-07 -9.73339e-06)
(0.00060531 -1.59435e-07 -3.79172e-05)
(0.000582561 -2.73753e-08 -2.19931e-05)
(0.000555552 -7.20969e-08 -1.13791e-05)
(0.000524031 -4.29755e-09 1.41503e-05)
(0.00047992 1.84429e-07 4.06191e-05)
(0.000435109 1.98655e-07 4.1451e-05)
(0.000394165 -2.17879e-07 7.53322e-05)
(0.000345597 -1.14093e-07 0.000120734)
(0.00025764 -5.10408e-08 0.000107752)
(0.000161943 4.79737e-08 7.29496e-05)
(5.8708e-05 3.7752e-08 0.00011426)
(3.64966e-05 6.95276e-07 -0.000265098)
(0.00013224 -2.0685e-07 -0.000257066)
(0.000220979 3.68738e-08 -0.000206655)
(0.000312759 1.03751e-07 -0.000139528)
(0.000405556 -5.11764e-08 -0.000126393)
(0.000471855 2.10221e-07 -0.00016315)
(0.000541465 1.59503e-07 -0.000147852)
(0.000598994 -4.99996e-08 -7.68836e-05)
(0.000635185 5.52954e-07 -3.59694e-05)
(0.000673231 1.71976e-07 -1.91458e-05)
(0.000686339 2.54749e-07 -2.0165e-05)
(0.000673197 4.64274e-07 -1.65481e-05)
(0.000641886 -5.60507e-08 6.54062e-06)
(0.000605378 -4.40144e-08 2.0885e-05)
(0.000559515 1.09793e-07 5.31347e-05)
(0.000515622 6.40286e-08 8.13236e-05)
(0.0004615 2.02669e-07 8.5837e-05)
(0.000406411 1.64509e-07 0.000117152)
(0.000363388 6.43542e-08 0.00017731)
(0.000282324 8.0654e-08 0.000215004)
(0.000176221 1.07809e-08 0.000182894)
(4.26446e-05 5.62044e-08 0.00020283)
(3.49467e-05 3.84444e-07 -0.000382322)
(0.000138707 -1.04574e-07 -0.00036395)
(0.00024414 2.34682e-07 -0.000296352)
(0.000340428 1.35371e-07 -0.000241418)
(0.000441975 3.19045e-08 -0.000215065)
(0.000519752 3.60111e-07 -0.000233618)
(0.000560507 2.19201e-07 -0.00020976)
(0.000618073 2.40245e-07 -0.000136392)
(0.000672477 3.75029e-07 -9.53224e-05)
(0.000711905 1.69299e-07 -5.83626e-05)
(0.000723639 3.98214e-07 -2.77259e-05)
(0.000714545 3.63836e-07 -8.54957e-06)
(0.000696856 5.53885e-08 3.5786e-05)
(0.000655185 -5.92853e-08 6.61587e-05)
(0.00060072 3.99967e-08 9.85106e-05)
(0.000556881 2.13639e-07 0.000123417)
(0.000505451 1.17964e-08 0.000143323)
(0.000435359 -7.89796e-08 0.000183833)
(0.000353359 1.85454e-07 0.000238137)
(0.000275432 3.83645e-07 0.00028746)
(0.000194688 1.2876e-07 0.000289752)
(9.31268e-05 -3.59017e-07 0.000305083)
(3.44769e-05 5.06883e-07 -0.000498511)
(0.000129143 4.89681e-08 -0.000473887)
(0.000244297 1.64404e-07 -0.00040564)
(0.000358129 1.10411e-07 -0.000347774)
(0.000456051 3.89393e-08 -0.000312144)
(0.000539041 2.28639e-08 -0.000298217)
(0.000597429 2.18561e-08 -0.000267078)
(0.000656496 4.46768e-07 -0.0002142)
(0.000718937 1.76934e-07 -0.000157169)
(0.000762562 3.05259e-07 -9.48542e-05)
(0.000777372 2.90552e-07 -4.51857e-05)
(0.000782207 1.76238e-07 -1.41973e-05)
(0.000775568 4.03045e-07 5.44966e-05)
(0.000733284 1.19752e-07 0.000120236)
(0.000670037 -3.63016e-08 0.000152709)
(0.000626663 1.38804e-07 0.000173733)
(0.000559348 7.12268e-08 0.000210514)
(0.000471519 2.12653e-07 0.000269041)
(0.000368732 2.9083e-07 0.000320287)
(0.000273374 6.51998e-08 0.000365357)
(0.000170941 2.4612e-07 0.000365023)
(8.16729e-05 -5.45967e-08 0.000403831)
(3.37659e-05 6.28893e-07 -0.00060692)
(0.000130533 3.61055e-08 -0.000590676)
(0.000255892 1.06704e-09 -0.000531804)
(0.000387139 1.07911e-07 -0.000463609)
(0.000489311 2.19926e-07 -0.000408732)
(0.000581094 2.63044e-07 -0.000380007)
(0.000658205 2.26569e-07 -0.000333403)
(0.000718597 1.10715e-07 -0.000290931)
(0.000791294 1.03331e-07 -0.000220448)
(0.000843138 1.62206e-07 -0.000136068)
(0.000867041 1.13553e-08 -6.81314e-05)
(0.000872017 1.31274e-07 -1.72188e-05)
(0.000867602 1.81577e-07 6.35484e-05)
(0.000838687 5.56101e-07 0.000167697)
(0.000775407 1.12608e-07 0.00020576)
(0.000705799 -6.01263e-11 0.000240282)
(0.000609759 2.10511e-07 0.000301513)
(0.000506746 2.61688e-07 0.000358936)
(0.000428736 2.7056e-08 0.000408402)
(0.000342069 2.2805e-07 0.000468778)
(0.000209362 5.07022e-07 0.000469972)
(6.88729e-05 3.34356e-07 0.00049419)
(3.35311e-05 5.14465e-07 -0.000712772)
(0.000140928 -1.15101e-08 -0.000709266)
(0.000279047 1.30742e-07 -0.000680185)
(0.000405187 6.67356e-08 -0.00058842)
(0.000514949 2.173e-07 -0.000517578)
(0.00063345 5.76999e-07 -0.000497327)
(0.000740281 2.62299e-07 -0.000411427)
(0.000815873 -1.22667e-07 -0.000356021)
(0.000889959 6.3275e-08 -0.000297227)
(0.000941371 5.19523e-08 -0.000170307)
(0.000943453 1.85276e-07 -7.92867e-05)
(0.000958754 1.25584e-07 -1.94737e-05)
(0.000957047 -5.6778e-08 6.49508e-05)
(0.000939163 2.4487e-07 0.000198502)
(0.000889634 2.9276e-07 0.000272876)
(0.000793467 -5.29607e-08 0.000346438)
(0.00068318 2.96778e-07 0.000401552)
(0.000572531 3.17561e-07 0.000430861)
(0.000477496 1.84313e-07 0.000493379)
(0.000380837 3.89305e-07 0.000561682)
(0.000269202 1.02608e-07 0.000610642)
(9.79438e-05 -3.66613e-07 0.000622995)
(4.04049e-05 6.58165e-07 -0.000845463)
(0.000167218 1.22885e-07 -0.000850971)
(0.000305958 2.14813e-07 -0.000826338)
(0.000428574 2.2027e-07 -0.000699048)
(0.000552736 3.01989e-07 -0.000644392)
(0.000687248 -8.82171e-08 -0.000634874)
(0.000812491 1.32619e-07 -0.000525091)
(0.000915701 1.22097e-07 -0.000437207)
(0.000984684 -9.13262e-08 -0.0003592)
(0.00101251 1.2009e-07 -0.000168904)
(0.00102224 1.17314e-07 -9.03071e-05)
(0.00104432 1.29797e-07 -3.56069e-05)
(0.0010293 2.44876e-07 7.72958e-05)
(0.00101696 1.27387e-08 0.00022344)
(0.000973964 4.09103e-07 0.000326129)
(0.000896518 2.78509e-07 0.000427908)
(0.000806827 1.23691e-07 0.000513535)
(0.000658951 2.86075e-07 0.000568629)
(0.000476705 4.49017e-07 0.000598117)
(0.000368937 1.55972e-07 0.000620191)
(0.000275223 -6.00171e-08 0.000754601)
(0.000106319 -2.12666e-07 0.000789879)
(4.17428e-05 6.99124e-07 -0.000980182)
(0.000171991 -1.69028e-08 -0.00100335)
(0.000322973 7.21876e-08 -0.0009764)
(0.000481908 1.2135e-07 -0.000851311)
(0.000639454 1.97258e-07 -0.000792228)
(0.000777408 -3.54306e-07 -0.000761409)
(0.000902772 -3.34824e-08 -0.000637696)
(0.00100124 3.39042e-07 -0.000525755)
(0.00106111 2.10183e-07 -0.000406434)
(0.00111068 2.12401e-07 -0.000208256)
(0.00117274 -1.02544e-07 -0.000117079)
(0.00117487 5.7168e-08 -3.09826e-05)
(0.00115153 1.74589e-07 9.40486e-05)
(0.00111898 9.23481e-08 0.000253206)
(0.00106771 2.36692e-07 0.000379706)
(0.000992028 4.40144e-07 0.000483647)
(0.000901211 1.89932e-07 0.000618463)
(0.000762039 1.73587e-07 0.000754009)
(0.000563033 2.60255e-07 0.000773693)
(0.000377449 -1.33338e-07 0.000746375)
(0.000225486 7.46618e-08 0.000870423)
(0.000108749 -7.75114e-08 0.000916762)
(4.96036e-05 8.09934e-07 -0.00113337)
(0.000196019 -2.73974e-07 -0.00116701)
(0.000368275 6.29252e-08 -0.0011413)
(0.000548768 2.32556e-07 -0.00103866)
(0.00073023 1.48192e-07 -0.000956687)
(0.00087999 2.73175e-07 -0.00088348)
(0.00100871 1.94394e-07 -0.00075879)
(0.00111759 6.75042e-08 -0.000617755)
(0.00119169 2.88628e-08 -0.000465766)
(0.00125686 3.01483e-08 -0.000284864)
(0.00131097 1.31408e-07 -0.000149465)
(0.00131547 -1.16887e-07 -1.90119e-05)
(0.00129663 -4.80994e-08 0.00012938)
(0.00124131 3.44154e-07 0.000297786)
(0.00117557 9.18893e-08 0.000445916)
(0.00108582 3.87208e-07 0.000568698)
(0.000963572 2.5122e-07 0.0007232)
(0.000834514 6.55942e-08 0.000887108)
(0.000690202 1.46818e-07 0.000957509)
(0.000486349 1.972e-07 0.000951343)
(0.000258658 3.77014e-07 0.00102614)
(9.23523e-05 -7.89696e-08 0.00104322)
(5.67628e-05 9.69951e-07 -0.00130998)
(0.000230441 -4.34651e-07 -0.00135438)
(0.000433168 3.1019e-07 -0.0013302)
(0.000625709 4.38313e-07 -0.00123419)
(0.000819726 4.07159e-08 -0.00113839)
(0.00100243 5.58176e-07 -0.00105327)
(0.00115052 1.73256e-07 -0.000894124)
(0.00126727 -2.29191e-07 -0.000706848)
(0.00135478 -6.13443e-08 -0.000536733)
(0.00143293 -1.59871e-07 -0.000354609)
(0.00147857 2.08309e-07 -0.000180843)
(0.00148093 1.68649e-07 -1.22369e-05)
(0.001465 2.98779e-07 0.000161273)
(0.00141335 1.75003e-07 0.000351481)
(0.00133438 4.38365e-08 0.000530745)
(0.0012174 3.3161e-07 0.000685657)
(0.00106812 2.00468e-07 0.000857119)
(0.000909484 1.15185e-07 0.00102179)
(0.000754429 1.33007e-07 0.00112564)
(0.000548332 3.61985e-07 0.00117432)
(0.000313976 1.9711e-07 0.00123511)
(0.000120226 -4.47815e-07 0.00119527)
(7.06414e-05 1.40504e-06 -0.00150777)
(0.000274943 -2.67099e-07 -0.00157327)
(0.000504992 1.34548e-07 -0.00154903)
(0.000727281 1.81411e-07 -0.00144899)
(0.000946621 -2.78415e-08 -0.00134104)
(0.00114386 1.12042e-07 -0.00123729)
(0.00130171 9.10307e-08 -0.00103899)
(0.00143767 -4.0163e-08 -0.000819132)
(0.00154774 1.03683e-07 -0.000625991)
(0.00163219 2.19413e-08 -0.000418931)
(0.00167871 -1.24894e-07 -0.000202224)
(0.00168196 1.12487e-07 -9.60456e-06)
(0.00166791 1.24646e-07 0.000179429)
(0.00162184 -3.63746e-08 0.000416664)
(0.00151813 3.5742e-07 0.000638358)
(0.00136854 1.17801e-07 0.00082595)
(0.00120575 4.23548e-07 0.00101526)
(0.00102705 1.85274e-07 0.00118801)
(0.000841737 9.71733e-08 0.00130272)
(0.000626948 2.8057e-07 0.00139112)
(0.000389575 1.42712e-07 0.0014566)
(0.000159332 -2.46424e-07 0.0013903)
(7.53628e-05 1.32806e-06 -0.00175837)
(0.00031672 -1.23351e-07 -0.00182216)
(0.000589536 -8.92188e-08 -0.00179814)
(0.000857592 -3.07746e-07 -0.00169607)
(0.00110181 -8.89273e-09 -0.00156944)
(0.001312 -2.73309e-07 -0.00141774)
(0.00148939 1.78196e-07 -0.00119731)
(0.00164633 2.82176e-07 -0.000963255)
(0.00177951 -1.13458e-07 -0.000731645)
(0.00186915 1.52459e-07 -0.000487683)
(0.00191981 1.20001e-07 -0.000230846)
(0.00193486 6.51188e-08 -1.16594e-05)
(0.00192919 -8.7854e-08 0.000198027)
(0.00187166 7.58178e-08 0.000498947)
(0.00173513 3.1353e-07 0.000776291)
(0.00155813 -2.23038e-07 0.000992481)
(0.00138515 1.20302e-07 0.00118574)
(0.00119242 2.94276e-07 0.00136993)
(0.000967516 2.99583e-08 0.00150815)
(0.000721315 4.8688e-08 0.00162657)
(0.000462397 3.01826e-07 0.00170584)
(0.000198936 -2.6129e-07 0.00163462)
(9.2407e-05 1.64147e-06 -0.00202931)
(0.000369747 -2.40473e-07 -0.00212718)
(0.000693278 -2.6967e-08 -0.0020896)
(0.000995644 -1.39966e-07 -0.00196074)
(0.00125668 1.11453e-07 -0.00181079)
(0.00149655 4.60001e-08 -0.00163527)
(0.00171126 1.16155e-07 -0.00139071)
(0.00190122 2.36545e-07 -0.00113138)
(0.00205535 5.70656e-09 -0.000852135)
(0.0021585 -9.67557e-08 -0.000570341)
(0.00222241 1.4225e-07 -0.00028426)
(0.00224914 1.25417e-07 -2.18748e-05)
(0.0022069 1.47136e-07 0.000248425)
(0.00210543 2.16363e-07 0.000602684)
(0.00196251 3.81612e-08 0.000930944)
(0.00179899 -1.08842e-07 0.0011695)
(0.00160723 -2.39239e-07 0.00137765)
(0.00138164 1.14149e-07 0.00158716)
(0.00110995 6.95475e-08 0.00176312)
(0.000811633 -5.89392e-08 0.00189902)
(0.000512106 2.30722e-07 0.00197349)
(0.000223302 -2.22041e-07 0.00192023)
(9.88311e-05 1.92619e-06 -0.00235002)
(0.00041254 -4.35803e-07 -0.00246146)
(0.00078879 -6.87275e-08 -0.00242479)
(0.00112148 3.92727e-07 -0.00225634)
(0.00142452 2.51099e-07 -0.00208452)
(0.00171343 2.79694e-07 -0.00189297)
(0.00197197 4.77136e-08 -0.00162214)
(0.00219769 6.06276e-08 -0.00132702)
(0.00237312 1.42673e-07 -0.000996649)
(0.00249424 -1.75429e-07 -0.00065994)
(0.00256398 7.21594e-08 -0.000330916)
(0.00257882 3.55216e-07 -1.14002e-05)
(0.00251361 2.26957e-07 0.00032999)
(0.00239415 6.61148e-08 0.000718734)
(0.00226349 -2.132e-07 0.00107165)
(0.00209956 1.17698e-07 0.0013437)
(0.00186221 2.37555e-09 0.0016135)
(0.00157749 5.75432e-08 0.00186206)
(0.00125938 1.97583e-07 0.00206871)
(0.000922845 1.62387e-07 0.00221411)
(0.000574942 1.59352e-07 0.00228349)
(0.000241194 -1.41103e-07 0.00223052)
(0.000114088 1.27947e-06 -0.00269335)
(0.000473392 -1.60972e-07 -0.00283703)
(0.000881518 2.54589e-08 -0.00279613)
(0.00126409 1.18542e-07 -0.00261055)
(0.00163817 1.1484e-07 -0.0024214)
(0.0019754 1.88216e-07 -0.00219203)
(0.00227701 1.47177e-07 -0.00188212)
(0.00253221 1.87672e-08 -0.00154625)
(0.00273829 2.73683e-07 -0.00116455)
(0.00287456 2.49812e-07 -0.000760935)
(0.00294884 -7.93432e-08 -0.000371776)
(0.00295885 8.63213e-08 8.80989e-06)
(0.00288865 1.10457e-07 0.00042096)
(0.00276852 1.85448e-07 0.000842231)
(0.00262971 1.39058e-07 0.00121824)
(0.00242353 2.67081e-07 0.00155765)
(0.00213859 1.76111e-08 0.00189248)
(0.00181031 -1.38413e-07 0.00218326)
(0.0014524 1.51695e-07 0.00241022)
(0.00106342 1.08768e-07 0.00257177)
(0.000652746 1.60773e-07 0.00264484)
(0.000265132 -7.62733e-07 0.00258262)
(0.000134223 2.50963e-06 -0.00309224)
(0.000550636 -1.33563e-07 -0.00327351)
(0.00101927 1.37551e-08 -0.00321391)
(0.00147121 -4.44783e-08 -0.00301714)
(0.00190013 2.82267e-08 -0.00280557)
(0.00228741 -1.85356e-07 -0.0025325)
(0.00263109 -1.03462e-07 -0.00217774)
(0.00291894 -6.96391e-09 -0.00178789)
(0.00314089 3.54241e-07 -0.00135798)
(0.00329664 2.58758e-07 -0.000880219)
(0.00338108 -1.8493e-07 -0.000410687)
(0.00337768 -2.31078e-07 4.4343e-05)
(0.0033105 1.17063e-07 0.000514021)
(0.00320245 1.51269e-07 0.000964113)
(0.00304403 -1.01057e-07 0.00139749)
(0.00279216 1.02545e-07 0.00181524)
(0.00246838 -1.04108e-08 0.00221521)
(0.0020909 2.46017e-07 0.00254563)
(0.00167572 3.35035e-07 0.00279956)
(0.00122648 -6.93246e-08 0.0030048)
(0.000739573 1.21974e-07 0.00307946)
(0.000285365 -6.3844e-07 0.00297284)
(0.00016669 3.24802e-06 -0.00358466)
(0.000640246 -5.47216e-07 -0.0037576)
(0.00116877 1.26871e-07 -0.0037102)
(0.00170305 -4.20613e-08 -0.0034954)
(0.00220758 -1.98846e-07 -0.00324709)
(0.00266064 2.29424e-08 -0.00292023)
(0.00304619 -1.03166e-07 -0.00250923)
(0.00336828 -1.27895e-08 -0.00205722)
(0.00360723 -8.01676e-08 -0.00156169)
(0.00378228 4.27368e-08 -0.00101678)
(0.00388352 3.91967e-08 -0.0004599)
(0.00389813 -2.31859e-07 7.74053e-05)
(0.00385049 -9.61145e-09 0.000599758)
(0.00372596 -6.82332e-08 0.00109933)
(0.00350566 1.85413e-07 0.00163501)
(0.00319507 7.66398e-08 0.00212912)
(0.00283353 -6.07858e-08 0.00258138)
(0.00241575 1.33366e-07 0.00296198)
(0.00194729 -9.36956e-08 0.00325421)
(0.00143779 1.84079e-07 0.00350663)
(0.000884448 1.09299e-07 0.00359395)
(0.000341066 -4.52097e-07 0.00341462)
(0.000182531 3.54834e-06 -0.00414967)
(0.000726413 -8.42098e-07 -0.00431355)
(0.00135284 1.36257e-07 -0.00429128)
(0.00197006 -6.87236e-08 -0.00405829)
(0.00255382 -1.82857e-07 -0.00375406)
(0.00306527 1.08492e-07 -0.00336672)
(0.00350275 -2.3701e-07 -0.00288963)
(0.00386746 3.34343e-08 -0.00236452)
(0.00414998 -2.34156e-07 -0.00178007)
(0.00435956 8.74271e-09 -0.00116857)
(0.00447643 3.16581e-07 -0.000537216)
(0.00450775 3.42146e-08 8.50359e-05)
(0.00444894 -1.10672e-07 0.00069634)
(0.00428515 -2.27471e-07 0.00130488)
(0.00401739 2.74002e-07 0.00191605)
(0.00368353 -1.28779e-07 0.00249014)
(0.00326782 3.49089e-07 0.00299306)
(0.00279204 5.04813e-08 0.00342207)
(0.00227635 -3.37025e-07 0.00377319)
(0.00170045 3.10446e-07 0.00406685)
(0.00108848 2.17677e-07 0.00416772)
(0.000461961 -1.14728e-06 0.00396704)
(0.00019312 3.65631e-06 -0.00476854)
(0.000815966 -9.22054e-07 -0.00498105)
(0.00156429 -2.19798e-07 -0.00496608)
(0.00228581 1.47977e-09 -0.00470564)
(0.00294837 1.71272e-07 -0.00433667)
(0.00352676 -1.91589e-08 -0.00387227)
(0.00403869 -1.11177e-07 -0.00332062)
(0.00446423 1.5918e-07 -0.00271465)
(0.00479651 1.5994e-07 -0.00204976)
(0.00503309 1.38329e-07 -0.00134896)
(0.00516109 1.07401e-07 -0.000620661)
(0.00519527 2.60432e-07 9.92321e-05)
(0.00512167 1.57374e-08 0.00082007)
(0.00493663 7.1377e-08 0.00154088)
(0.00464662 -2.08019e-07 0.00222693)
(0.00427798 5.16709e-08 0.00289331)
(0.00379412 3.05154e-07 0.00347158)
(0.00324778 -2.2159e-07 0.00394761)
(0.00265463 -2.63082e-08 0.00435647)
(0.00200577 5.00248e-08 0.00468905)
(0.00131947 9.55019e-08 0.00482083)
(0.000570427 -1.47718e-06 0.00466793)
(0.00023355 4.50518e-06 -0.005467)
(0.000963651 -6.94009e-07 -0.00576045)
(0.00181648 -1.35329e-08 -0.00574988)
(0.00263818 1.80398e-07 -0.0054533)
(0.00339494 1.32528e-07 -0.00500606)
(0.00407927 -2.29427e-07 -0.00445486)
(0.00467992 2.15962e-07 -0.00382722)
(0.00517356 2.09206e-07 -0.00312029)
(0.00555582 2.6315e-07 -0.00236279)
(0.00580864 1.16243e-07 -0.00154548)
(0.00595364 3.96631e-09 -0.000710283)
(0.00598444 1.12443e-07 0.000118991)
(0.0058982 -5.48304e-08 0.00095672)
(0.00569709 2.93464e-07 0.00179105)
(0.0053792 -3.23883e-07 0.00258689)
(0.00494403 1.4771e-07 0.00334802)
(0.00440154 1.01618e-07 0.00402488)
(0.00377417 -4.86714e-08 0.00456982)
(0.00306647 1.7711e-07 0.00502539)
(0.00230965 -1.51875e-07 0.00539306)
(0.00150307 7.26428e-08 0.0055869)
(0.000631484 -1.23799e-06 0.00549326)
(0.00028953 5.761e-06 -0.00633138)
(0.00114958 -6.47014e-07 -0.0066551)
(0.00213158 -1.78367e-07 -0.0066433)
(0.00306397 -1.84542e-09 -0.0062956)
(0.00392325 3.21146e-08 -0.00578731)
(0.00472211 -1.77057e-08 -0.00514922)
(0.00541279 3.99733e-07 -0.00441711)
(0.00598405 7.74966e-08 -0.00359583)
(0.0064273 2.47514e-07 -0.00270894)
(0.00673045 3.13318e-07 -0.00177227)
(0.00690603 2.07305e-07 -0.000815003)
(0.00693602 1.60843e-07 0.000153928)
(0.00681513 1.81561e-07 0.00111277)
(0.00657354 -1.02985e-07 0.00206408)
(0.00620883 -4.58291e-08 0.0029999)
(0.00570027 -8.53275e-08 0.00387613)
(0.00508563 -1.35172e-07 0.00464506)
(0.00437359 3.51943e-08 0.00528484)
(0.00355324 1.3233e-07 0.00582912)
(0.00264254 2.26665e-08 0.00624742)
(0.00167355 6.68987e-08 0.00648374)
(0.000689194 -1.21102e-06 0.00639761)
(0.000331394 6.46973e-06 -0.00734614)
(0.00132868 -1.01052e-06 -0.00770142)
(0.00247667 -3.91377e-08 -0.00768011)
(0.00355616 2.00267e-07 -0.0072523)
(0.00453614 3.14995e-07 -0.00667436)
(0.00543401 2.01075e-07 -0.00595357)
(0.00622993 2.33833e-07 -0.00510194)
(0.00689609 9.30679e-08 -0.00415058)
(0.00741744 8.28241e-08 -0.00312005)
(0.00778599 1.38324e-07 -0.00204913)
(0.008002 9.82686e-08 -0.000940218)
(0.00804605 4.66549e-08 0.000197156)
(0.0079057 3.59515e-07 0.00131001)
(0.00760483 -5.17705e-08 0.00240138)
(0.00716183 1.54673e-07 0.00347081)
(0.00657518 8.19572e-08 0.0044744)
(0.00586711 -4.54712e-08 0.00535842)
(0.00503577 6.86334e-08 0.00610908)
(0.00409343 2.31514e-07 0.00675377)
(0.00304564 1.07766e-07 0.00726118)
(0.00192202 1.20623e-07 0.00754102)
(0.000774847 -1.3316e-06 0.00741635)
(0.000391012 7.66837e-06 -0.00851901)
(0.00156098 -1.10537e-06 -0.0089057)
(0.0028613 1.11552e-07 -0.0088731)
(0.00409394 6.96965e-08 -0.00836116)
(0.00524266 -3.24997e-09 -0.00768817)
(0.00627765 1.13864e-07 -0.00687241)
(0.00719657 8.83683e-08 -0.00589794)
(0.00796805 1.43283e-07 -0.0047978)
(0.00856501 1.82464e-07 -0.00360073)
(0.00898848 2.56252e-08 -0.00236984)
(0.00924109 1.72784e-07 -0.00109026)
(0.00929588 7.40893e-08 0.000240887)
(0.00914504 -1.42294e-07 0.00154335)
(0.00879956 -3.40568e-08 0.00280013)
(0.00827855 1.26175e-08 0.0040245)
(0.00759929 2.01361e-07 0.00516373)
(0.00677379 3.04581e-07 0.00618867)
(0.00579702 -8.19396e-09 0.0070676)
(0.00470146 7.72642e-08 0.00781027)
(0.0035003 1.73887e-07 0.00841482)
(0.00222037 4.8692e-07 0.00874875)
(0.000908978 -1.68401e-06 0.00860512)
(0.000461333 9.25736e-06 -0.00991754)
(0.00182535 -1.25713e-06 -0.0102793)
(0.00329669 -1.53286e-07 -0.0102166)
(0.00472088 6.53552e-08 -0.00965199)
(0.00606118 -7.23091e-08 -0.00886869)
(0.00727174 -1.3563e-07 -0.00793847)
(0.00833819 -2.02376e-08 -0.00681871)
(0.00921696 1.06091e-07 -0.00552989)
(0.00988611 -9.47143e-09 -0.00414136)
(0.010376 -4.90451e-08 -0.00273425)
(0.0106625 -1.22246e-07 -0.00125688)
(0.010722 8.07423e-08 0.000290212)
(0.0105592 -2.94227e-08 0.001802)
(0.0101789 -1.19763e-07 0.00325606)
(0.00958049 1.69628e-07 0.00465896)
(0.00880317 1.22593e-07 0.00596237)
(0.00784248 7.82604e-08 0.00715914)
(0.00669525 1.12676e-07 0.00819197)
(0.0054112 -1.77133e-07 0.00905296)
(0.00403221 2.42697e-07 0.00973713)
(0.00255106 6.8782e-07 0.0101264)
(0.00104708 -1.44791e-06 0.00997448)
(0.000525617 1.05002e-05 -0.0115275)
(0.00208452 -1.64667e-06 -0.0118691)
(0.00382045 -3.2778e-07 -0.0117713)
(0.00547766 -1.42136e-07 -0.0111396)
(0.00701925 2.35719e-07 -0.0102379)
(0.0084095 1.91735e-07 -0.00916216)
(0.00963156 4.75517e-08 -0.00787956)
(0.0106418 1.11981e-08 -0.00636595)
(0.0114209 -5.91734e-08 -0.0047638)
(0.0119939 -1.23682e-08 -0.00315163)
(0.012315 -2.57674e-08 -0.0014367)
(0.0123821 -3.3151e-07 0.000347291)
(0.0122056 -1.08081e-07 0.00208369)
(0.0117771 -2.62043e-08 0.00377863)
(0.0110916 1.66715e-07 0.00538981)
(0.0101902 -9.29999e-08 0.00689226)
(0.00907197 -9.49921e-08 0.00829348)
(0.00775233 3.1051e-07 0.0094927)
(0.00627685 -3.49535e-08 0.0104766)
(0.00469138 -4.62552e-08 0.011262)
(0.00297352 3.69933e-07 0.0117362)
(0.00122443 -1.98813e-06 0.0115467)
(0.000575696 1.1152e-05 -0.0133201)
(0.00236266 -1.88884e-06 -0.0137325)
(0.00442491 -1.97395e-07 -0.0136222)
(0.00635737 -1.86963e-07 -0.0128665)
(0.00813339 8.07183e-08 -0.011818)
(0.0097246 3.49415e-07 -0.0105663)
(0.011112 -1.41218e-07 -0.00907982)
(0.0122632 -2.93167e-07 -0.00732225)
(0.0131887 -3.09621e-07 -0.00550167)
(0.013856 -3.14855e-08 -0.00363531)
(0.0142213 2.08138e-07 -0.00163894)
(0.0143021 -9.72001e-08 0.00040549)
(0.0141054 -1.96894e-07 0.00240443)
(0.0136109 5.60328e-08 0.00437798)
(0.0128328 -5.02551e-08 0.00624222)
(0.0117927 -2.48082e-07 0.00798249)
(0.0105084 -1.17559e-07 0.00959772)
(0.00900314 7.75078e-08 0.0109834)
(0.00729371 1.61225e-07 0.012121)
(0.00543236 -1.52193e-08 0.0130324)
(0.00344579 5.01172e-07 0.0136143)
(0.00140326 -2.26586e-06 0.0133846)
(0.000694024 1.34193e-05 -0.0153833)
(0.00280781 -2.0758e-06 -0.0159132)
(0.00517249 -2.1687e-07 -0.0157646)
(0.00737502 1.83924e-07 -0.014854)
(0.00940137 -1.02984e-07 -0.0136249)
(0.0112239 1.70161e-07 -0.0121675)
(0.0128059 -2.09353e-07 -0.0104311)
(0.0141465 -7.58875e-08 -0.00843942)
(0.0152318 -6.89849e-08 -0.00636651)
(0.0159884 -1.90234e-07 -0.00418783)
(0.0164184 -3.04006e-07 -0.00188125)
(0.0165235 1.38692e-07 0.00045661)
(0.0162902 -1.21067e-07 0.00278679)
(0.0157065 -1.08603e-08 0.00506917)
(0.0148242 -9.39713e-08 0.00721728)
(0.0136287 1.59778e-09 0.00923354)
(0.0121539 -3.39178e-08 0.0110884)
(0.0104273 -4.22214e-10 0.012705)
(0.00844971 1.25916e-07 0.0140448)
(0.00628601 2.77611e-07 0.0150924)
(0.00399309 8.38657e-07 0.0157669)
(0.00165686 -2.64326e-06 0.0155166)
(0.000848388 1.68086e-05 -0.017908)
(0.0033598 -2.35742e-06 -0.0184439)
(0.00605302 -3.14452e-07 -0.0181896)
(0.00855889 2.248e-07 -0.0171144)
(0.0108701 1.72569e-07 -0.0156926)
(0.0129622 -1.81364e-07 -0.0139968)
(0.0147885 -1.50528e-07 -0.0119988)
(0.0163441 1.0696e-07 -0.0097559)
(0.0175773 -2.90285e-08 -0.00735203)
(0.0184441 -9.21586e-08 -0.00481382)
(0.0189401 -1.01403e-07 -0.00216281)
(0.0190523 -4.11033e-08 0.000515947)
(0.0187925 9.56085e-08 0.00321991)
(0.0181524 1.78375e-08 0.00585385)
(0.0171359 -3.15659e-08 0.00833328)
(0.0157494 3.90032e-08 0.0106757)
(0.0140472 -1.42088e-07 0.0128063)
(0.0120535 3.29663e-07 0.0146836)
(0.0097939 1.53698e-07 0.0162519)
(0.00731589 1.60895e-07 0.0174773)
(0.0046592 7.28289e-07 0.0182549)
(0.00194531 -3.28838e-06 0.0180021)
(0.0010122 2.05211e-05 -0.0209336)
(0.00394509 -2.31913e-06 -0.021367)
(0.00702484 -1.38636e-07 -0.020965)
(0.00990043 9.88038e-08 -0.0197006)
(0.0125575 6.462e-08 -0.0180657)
(0.0149661 1.62729e-08 -0.0161013)
(0.0170725 -5.76812e-08 -0.0138142)
(0.0188547 -1.08992e-07 -0.0112533)
(0.0202644 8.81822e-08 -0.00848007)
(0.0212853 -3.12628e-08 -0.00555138)
(0.0218625 1.09706e-07 -0.00248631)
(0.0219809 1.04338e-07 0.000601595)
(0.021673 1.37596e-07 0.00368662)
(0.0209584 2.40478e-07 0.00672345)
(0.0197934 1.11199e-07 0.00962765)
(0.0182033 6.50369e-08 0.0123338)
(0.0162382 6.90917e-08 0.014784)
(0.0139389 1.70259e-07 0.0169526)
(0.0113486 3.24279e-07 0.0187805)
(0.00849132 6.71931e-08 0.0202367)
(0.00541438 3.8146e-07 0.0211589)
(0.00224377 -3.78122e-06 0.0208998)
(0.00113697 2.29566e-05 -0.0244418)
(0.00449423 -3.02201e-06 -0.0247384)
(0.00810067 -3.63624e-07 -0.0241724)
(0.0114374 -3.15282e-08 -0.0226788)
(0.0144927 6.48048e-08 -0.0207924)
(0.0172565 1.15625e-07 -0.0185273)
(0.0196814 3.4667e-07 -0.0159065)
(0.0217344 -1.22079e-07 -0.0129707)
(0.0233793 6.53016e-08 -0.00980184)
(0.0245597 -1.13006e-07 -0.00641752)
(0.0252165 1.40464e-08 -0.00286237)
(0.025376 3.03451e-07 0.000697166)
(0.0250346 7.70623e-08 0.00423604)
(0.0241925 6.20626e-08 0.00771952)
(0.0228615 2.95352e-07 0.0110924)
(0.0210483 4.35475e-08 0.0142352)
(0.0187833 -6.88462e-08 0.0170673)
(0.0161321 -2.58307e-07 0.0195756)
(0.013135 3.12049e-07 0.0217037)
(0.00984215 2.82151e-07 0.0234157)
(0.00630596 9.48109e-07 0.0245192)
(0.00263634 -4.69803e-06 0.024276)
(0.00128443 2.55327e-05 -0.0283722)
(0.00516205 -3.55258e-06 -0.028677)
(0.00938971 -2.71217e-07 -0.0279139)
(0.0132529 -2.89958e-07 -0.0261043)
(0.0167464 1.87755e-08 -0.0239171)
(0.0199022 -6.36113e-08 -0.0213151)
(0.0226878 4.68862e-07 -0.0183164)
(0.0250552 5.25683e-08 -0.0149666)
(0.0269563 1.39306e-08 -0.0113281)
(0.0283174 3.12093e-08 -0.0074101)
(0.0291137 7.90429e-08 -0.00331775)
(0.0293328 1.97596e-07 0.000772753)
(0.0289501 1.97574e-07 0.00486913)
(0.0279682 3.26074e-08 0.00889091)
(0.0264188 6.28739e-08 0.0127734)
(0.0243308 1.88967e-07 0.0164204)
(0.0217316 -6.13561e-08 0.019706)
(0.0186784 -2.50254e-07 0.0226133)
(0.0152268 -2.09519e-07 0.025077)
(0.011444 2.81892e-07 0.0270602)
(0.00737054 1.23079e-06 0.0283751)
(0.00310979 -5.6546e-06 0.0282275)
(0.00151648 3.02569e-05 -0.0329308)
(0.00606121 -4.1301e-06 -0.0332795)
(0.0109479 -5.091e-07 -0.0322382)
(0.0153837 -3.09719e-07 -0.0300213)
(0.0193853 -1.49403e-07 -0.0274595)
(0.0229751 9.74755e-08 -0.0245)
(0.0261501 2.98253e-08 -0.0210847)
(0.0288568 1.04633e-07 -0.0172595)
(0.0310341 4.88226e-08 -0.0130862)
(0.0326254 -7.83786e-08 -0.00859049)
(0.0336028 -1.55475e-07 -0.00389963)
(0.0338972 -1.32662e-07 0.000847984)
(0.0334758 -2.16194e-07 0.00559278)
(0.0323641 2.54243e-09 0.0102514)
(0.0305708 -1.03559e-08 0.0147374)
(0.0281451 1.9222e-07 0.0189375)
(0.025156 1.40903e-07 0.0227414)
(0.0216485 2.53797e-08 0.0261062)
(0.0176841 -3.27993e-07 0.0289626)
(0.0133181 1.43606e-07 0.0312668)
(0.00859802 1.1231e-06 0.0328529)
(0.0036308 -6.42154e-06 0.0328452)
(0.00180562 3.63694e-05 -0.0383439)
(0.00712782 -4.76843e-06 -0.0386016)
(0.0127211 -8.19364e-07 -0.0371929)
(0.0178027 -3.15552e-07 -0.0345263)
(0.0224028 -2.28193e-07 -0.0315109)
(0.0265088 -2.35832e-07 -0.028108)
(0.0301148 -3.65804e-07 -0.024223)
(0.0331946 1.50477e-07 -0.0198817)
(0.0356973 -2.51233e-07 -0.0151226)
(0.0375566 -5.35616e-08 -0.00999011)
(0.0387154 -1.75945e-07 -0.00461152)
(0.0391024 -3.8048e-07 0.000897633)
(0.0386683 -2.92563e-07 0.00639611)
(0.0374237 -4.07274e-07 0.0117998)
(0.0353801 -2.00263e-07 0.0170053)
(0.0325979 -2.12237e-07 0.0218427)
(0.0291496 6.00435e-08 0.026234)
(0.0250957 -7.44818e-08 0.0301293)
(0.0205149 9.3366e-08 0.0334476)
(0.0154723 1.13081e-07 0.0361378)
(0.0100205 1.23591e-06 0.0380392)
(0.00426313 -7.84987e-06 0.0382399)
(0.00211364 4.26822e-05 -0.0447292)
(0.00829419 -5.56113e-06 -0.0447247)
(0.0147299 -5.78811e-07 -0.0428674)
(0.0205741 -9.43371e-08 -0.0397019)
(0.0258582 -6.49944e-08 -0.0361644)
(0.0305754 -1.01966e-07 -0.0322277)
(0.0347167 5.11989e-08 -0.0278047)
(0.0382501 1.36052e-07 -0.0228805)
(0.0411172 -1.75774e-07 -0.0174658)
(0.0432567 2.32659e-07 -0.0116246)
(0.0445979 1.52515e-07 -0.00545937)
(0.0450779 -2.94303e-08 0.000899194)
(0.0446258 -2.04029e-08 0.0072726)
(0.0432308 -1.38081e-07 0.0135459)
(0.0409243 -1.2407e-07 0.0195743)
(0.0377665 -3.67718e-07 0.0251792)
(0.0337972 -1.02887e-07 0.0302718)
(0.0291032 -2.09381e-07 0.0347799)
(0.0237986 3.50071e-07 0.0386239)
(0.0179707 1.71558e-07 0.0417643)
(0.0116619 1.67695e-06 0.0440292)
(0.00498399 -9.08643e-06 0.0445364)
(0.00241632 4.84022e-05 -0.0520933)
(0.00955097 -6.54487e-06 -0.0518284)
(0.0170529 -6.85679e-07 -0.0494402)
(0.0238373 -1.57212e-07 -0.0456775)
(0.0299589 -3.30735e-08 -0.04153)
(0.0354127 9.23763e-08 -0.0369731)
(0.0401843 8.28278e-08 -0.0319246)
(0.0442468 -7.93952e-08 -0.0263148)
(0.0475307 1.20066e-08 -0.0201534)
(0.0499745 -1.00122e-07 -0.0134924)
(0.0515005 1.8631e-07 -0.00643559)
(0.0520528 1.74148e-08 0.00086514)
(0.0515722 1.32115e-07 0.00823862)
(0.0500144 2.09809e-07 0.0155016)
(0.0474182 5.48233e-08 0.0224725)
(0.04382 -2.55383e-07 0.0289991)
(0.0392433 -2.10982e-07 0.0349472)
(0.0337786 -5.16906e-08 0.0401779)
(0.027608 -5.72171e-08 0.0446118)
(0.0208674 2.7204e-07 0.0482657)
(0.0135854 2.01602e-06 0.0509692)
(0.00582677 -1.08886e-05 0.0518763)
(0.00279116 5.57221e-05 -0.060541)
(0.0110713 -7.52413e-06 -0.0600926)
(0.019797 -7.37406e-07 -0.0570804)