/*--------------------------------*- C++ -*----------------------------------*\
  =========                 |
  \\      /  F ield         | OpenFOAM: The Open Source CFD Toolbox
   \\    /   O peration     | Website:  https://openfoam.org
    \\  /    A nd           | Version:  7
     \\/     M anipulation  |
\*---------------------------------------------------------------------------*/
FoamFile
{
    version     2.0;
    format      ascii;
    class       volVectorField;
    location    "7";
    object      ddt0(hU);
}
// * * * * * * * * * * * * * * * * * * * * * * * * * * * * * * * * * * * * * //

dimensions      [0 2 -2 0 0 0 0];

internalField   nonuniform List<vector> 
400
(
(1.27602e-08 -3.27138e-10 0)
(-2.39418e-08 -7.02201e-09 0)
(-6.04218e-08 -1.73208e-08 0)
(-5.99619e-08 -2.23393e-08 0)
(-4.31165e-08 -2.65136e-08 0)
(-4.25724e-08 -3.77834e-08 0)
(-3.70877e-08 -2.45861e-08 0)
(-1.42489e-08 -1.31133e-08 0)
(1.23128e-09 -4.13085e-09 0)
(2.33799e-09 -1.75034e-09 0)
(-8.53113e-09 7.44926e-09 0)
(-2.31707e-08 7.16497e-09 0)
(-3.59495e-08 -1.52202e-09 0)
(-4.00497e-08 -1.19243e-08 0)
(-3.59055e-08 -1.9582e-08 0)
(-2.22218e-08 -2.34422e-08 0)
(-7.38811e-09 -2.36815e-08 0)
(1.11902e-08 -2.24639e-08 0)
(2.22587e-08 -2.1513e-08 0)
(4.25709e-08 -2.11576e-08 0)
(1.29572e-08 2.02649e-09 0)
(-3.153e-08 -1.92637e-09 0)
(-7.14159e-08 -1.5914e-08 0)
(-6.52308e-08 -3.29103e-08 0)
(-5.73421e-08 -4.34175e-08 0)
(-2.72049e-08 -4.95667e-08 0)
(6.89378e-09 -4.79756e-08 0)
(4.14564e-09 -5.9748e-08 0)
(-4.48251e-09 -5.22118e-08 0)
(-5.4237e-09 -3.27776e-08 0)
(-7.57854e-09 -1.54733e-08 0)
(-1.94243e-08 -2.6328e-09 0)
(-2.74099e-08 4.65199e-09 0)
(-2.82177e-08 6.86818e-09 0)
(-2.41151e-08 7.47492e-09 0)
(-1.31612e-08 8.89828e-09 0)
(-1.04535e-09 1.03028e-08 0)
(1.45121e-08 1.14149e-08 0)
(2.3632e-08 9.806e-09 0)
(3.99055e-08 6.3411e-09 0)
(1.12056e-08 4.20665e-09 0)
(-2.69218e-08 -5.17497e-09 0)
(-6.16903e-08 -2.44225e-08 0)
(-5.46906e-08 -5.29049e-08 0)
(-4.90873e-08 -7.8299e-08 0)
(-4.64714e-08 -7.53022e-08 0)
(-5.8318e-08 -9.21118e-08 0)
(-4.06835e-08 -7.17978e-08 0)
(-1.57079e-10 -5.19893e-08 0)
(4.90889e-09 -2.32622e-08 0)
(-9.95516e-09 -2.9663e-09 0)
(-1.97318e-08 7.44385e-09 0)
(-2.81812e-08 6.38888e-09 0)
(-3.10988e-08 -1.42641e-09 0)
(-2.77153e-08 -8.65727e-09 0)
(-1.74946e-08 -1.22786e-08 0)
(-6.85575e-09 -1.37345e-08 0)
(8.11343e-09 -1.54683e-08 0)
(1.50043e-08 -1.95992e-08 0)
(3.14269e-08 -2.70566e-08 0)
(8.77119e-09 2.8035e-09 0)
(-3.55926e-08 -1.4756e-08 0)
(-6.33313e-08 -4.45171e-08 0)
(-7.42081e-08 -7.71805e-08 0)
(-4.49296e-08 -1.02085e-07 0)
(-4.30532e-08 -1.20979e-07 0)
(-7.73971e-09 -1.0713e-07 0)
(3.00429e-08 -9.92579e-08 0)
(5.99473e-09 -7.51663e-08 0)
(-8.68789e-09 -3.91517e-08 0)
(-1.28322e-08 -2.33951e-10 0)
(-1.78366e-08 2.1165e-08 0)
(-2.27388e-08 2.53781e-08 0)
(-2.2833e-08 2.05081e-08 0)
(-1.9311e-08 1.48285e-08 0)
(-1.17417e-08 1.17461e-08 0)
(-3.90817e-09 9.5687e-09 0)
(6.67062e-09 6.60109e-09 0)
(1.092e-08 4.99669e-10 0)
(2.12157e-08 -8.40387e-09 0)
(7.62948e-09 2.29025e-09 0)
(-3.10368e-08 -1.49285e-08 0)
(-5.94956e-08 -4.6471e-08 0)
(-5.53536e-08 -8.19647e-08 0)
(-5.86625e-08 -1.05046e-07 0)
(-3.5786e-08 -1.19264e-07 0)
(-4.25341e-08 -1.22971e-07 0)
(-6.21247e-08 -1.1872e-07 0)
(-1.28832e-08 -8.45784e-08 0)
(4.41868e-09 -3.29628e-08 0)
(-1.59886e-09 1.13641e-08 0)
(-1.0439e-08 3.21265e-08 0)
(-1.68814e-08 3.36376e-08 0)
(-1.85083e-08 2.39264e-08 0)
(-1.71329e-08 1.22464e-08 0)
(-1.22091e-08 3.8121e-09 0)
(-7.97874e-09 -4.02321e-09 0)
(-6.51243e-11 -1.15277e-08 0)
(1.49583e-09 -2.02288e-08 0)
(1.11528e-08 -3.14914e-08 0)
(5.88737e-09 2.10517e-09 0)
(-2.99377e-08 -2.31228e-08 0)
(-5.45939e-08 -6.00441e-08 0)
(-5.80232e-08 -9.76092e-08 0)
(-4.47964e-08 -1.24106e-07 0)
(-4.84159e-08 -1.31842e-07 0)
(-3.09465e-08 -1.3961e-07 0)
(1.23696e-08 -1.02064e-07 0)
(-2.74664e-09 -5.38844e-08 0)
(-1.2496e-09 -1.92933e-09 0)
(-3.77619e-09 4.01236e-08 0)
(-8.17738e-09 5.71159e-08 0)
(-1.15045e-08 5.31958e-08 0)
(-1.24708e-08 3.84108e-08 0)
(-1.21683e-08 2.25482e-08 0)
(-1.02752e-08 1.05768e-08 0)
(-8.75555e-09 5.70299e-10 0)
(-4.82832e-09 -7.93153e-09 0)
(-4.24359e-09 -1.45461e-08 0)
(1.66007e-09 -2.38166e-08 0)
(3.54689e-09 1.78844e-09 0)
(-2.54172e-08 -2.67008e-08 0)
(-4.61853e-08 -7.05325e-08 0)
(-4.59543e-08 -1.05474e-07 0)
(-4.27874e-08 -1.23824e-07 0)
(-3.95094e-08 -1.39332e-07 0)
(-3.1716e-08 -1.27041e-07 0)
(-3.25863e-08 -1.0859e-07 0)
(-7.12601e-09 -5.39198e-08 0)
(2.43929e-09 7.21823e-09 0)
(1.15104e-09 5.09847e-08 0)
(-2.4817e-09 6.45432e-08 0)
(-4.94731e-09 5.47198e-08 0)
(-6.4729e-09 3.3046e-08 0)
(-8.37829e-09 1.10675e-08 0)
(-9.41879e-09 -4.85244e-09 0)
(-1.08187e-08 -1.73129e-08 0)
(-8.42139e-09 -2.53172e-08 0)
(-8.06402e-09 -2.96474e-08 0)
(-1.84501e-09 -3.57442e-08 0)
(2.29136e-09 1.89616e-09 0)
(-1.96645e-08 -3.01028e-08 0)
(-3.58685e-08 -7.79774e-08 0)
(-3.39999e-08 -1.1335e-07 0)
(-3.34298e-08 -1.33227e-07 0)
(-3.11096e-08 -1.38873e-07 0)
(-2.7072e-08 -1.35447e-07 0)
(-1.17522e-08 -9.53293e-08 0)
(-6.19123e-09 -3.12858e-08 0)
(-6.13391e-10 3.2043e-08 0)
(1.87324e-09 7.21798e-08 0)
(2.35506e-09 7.82335e-08 0)
(9.90075e-10 5.93198e-08 0)
(-1.83835e-09 2.93706e-08 0)
(-5.39235e-09 2.07877e-09 0)
(-8.53016e-09 -1.55628e-08 0)
(-1.14432e-08 -2.69174e-08 0)
(-1.04052e-08 -3.19636e-08 0)
(-9.00168e-09 -3.21447e-08 0)
(-3.8441e-09 -3.60624e-08 0)
(1.21267e-09 1.91499e-09 0)
(-1.34257e-08 -3.37784e-08 0)
(-2.16748e-08 -8.25388e-08 0)
(-2.15475e-08 -1.17552e-07 0)
(-2.05926e-08 -1.35802e-07 0)
(-2.15338e-08 -1.42023e-07 0)
(-1.85982e-08 -1.32143e-07 0)
(-7.08112e-09 -9.02042e-08 0)
(-1.79633e-09 -2.29367e-08 0)
(4.13526e-10 4.4903e-08 0)
(1.94586e-09 8.38562e-08 0)
(3.18997e-09 8.31332e-08 0)
(2.452e-09 5.5332e-08 0)
(1.99251e-10 1.80829e-08 0)
(-2.82867e-09 -1.32036e-08 0)
(-6.10086e-09 -3.11251e-08 0)
(-9.13622e-09 -3.99829e-08 0)
(-8.81152e-09 -4.09573e-08 0)
(-7.24468e-09 -3.7145e-08 0)
(-2.89045e-09 -3.90314e-08 0)
(5.01737e-11 1.54316e-09 0)
(-4.8864e-09 -3.42995e-08 0)
(-7.04919e-09 -8.56801e-08 0)
(-7.50053e-09 -1.2087e-07 0)
(-6.89862e-09 -1.37723e-07 0)
(-7.7377e-09 -1.44955e-07 0)
(-5.47187e-09 -1.30041e-07 0)
(-3.13296e-09 -8.65707e-08 0)
(-1.49799e-09 -1.57237e-08 0)
(-1.15775e-11 5.26346e-08 0)
(8.1155e-10 9.03659e-08 0)
(1.66151e-09 8.54744e-08 0)
(1.50528e-09 5.23828e-08 0)
(4.68668e-10 1.0925e-08 0)
(-9.10982e-10 -2.2542e-08 0)
(-2.37377e-09 -4.02211e-08 0)
(-3.64796e-09 -4.70361e-08 0)
(-3.56237e-09 -4.49936e-08 0)
(-2.76228e-09 -3.84458e-08 0)
(-1.00625e-09 -3.94739e-08 0)
(-3.35982e-11 1.54723e-09 0)
(4.88459e-09 -3.42882e-08 0)
(7.03108e-09 -8.56714e-08 0)
(7.50009e-09 -1.20879e-07 0)
(6.92247e-09 -1.37725e-07 0)
(7.76353e-09 -1.44953e-07 0)
(5.50541e-09 -1.3004e-07 0)
(3.16061e-09 -8.65709e-08 0)
(1.53318e-09 -1.57203e-08 0)
(4.90354e-11 5.26299e-08 0)
(-7.89105e-10 9.0364e-08 0)
(-1.64198e-09 8.54803e-08 0)
(-1.49051e-09 5.23847e-08 0)
(-4.76816e-10 1.09209e-08 0)
(8.86016e-10 -2.25443e-08 0)
(2.34545e-09 -4.02195e-08 0)
(3.62066e-09 -4.70338e-08 0)
(3.52893e-09 -4.4992e-08 0)
(2.72471e-09 -3.84454e-08 0)
(9.61698e-10 -3.94725e-08 0)
(-1.19139e-09 1.93276e-09 0)
(1.34318e-08 -3.37569e-08 0)
(2.16556e-08 -8.25295e-08 0)
(2.15439e-08 -1.17558e-07 0)
(2.06154e-08 -1.35803e-07 0)
(2.15668e-08 -1.42023e-07 0)
(1.86261e-08 -1.32137e-07 0)
(7.1199e-09 -9.02028e-08 0)
(1.82915e-09 -2.29359e-08 0)
(-3.85967e-10 4.48936e-08 0)
(-1.90968e-09 8.38478e-08 0)
(-3.16935e-09 8.31318e-08 0)
(-2.45709e-09 5.53307e-08 0)
(-2.17443e-10 1.80816e-08 0)
(2.80994e-09 -1.31974e-08 0)
(6.07949e-09 -3.11131e-08 0)
(9.10938e-09 -3.99722e-08 0)
(8.77777e-09 -4.09482e-08 0)
(7.20954e-09 -3.7139e-08 0)
(2.8499e-09 -3.90223e-08 0)
(-2.27351e-09 1.92976e-09 0)
(1.96726e-08 -3.0079e-08 0)
(3.58622e-08 -7.79824e-08 0)
(3.39997e-08 -1.1335e-07 0)
(3.34495e-08 -1.33223e-07 0)
(3.11481e-08 -1.38866e-07 0)
(2.71043e-08 -1.35415e-07 0)
(1.18194e-08 -9.53469e-08 0)
(6.22024e-09 -3.13102e-08 0)
(6.3602e-10 3.20273e-08 0)
(-1.84803e-09 7.21677e-08 0)
(-2.33646e-09 7.8222e-08 0)
(-9.84749e-10 5.93158e-08 0)
(1.83404e-09 2.9375e-08 0)
(5.3818e-09 2.08876e-09 0)
(8.50758e-09 -1.55536e-08 0)
(1.14109e-08 -2.69124e-08 0)
(1.03687e-08 -3.19581e-08 0)
(8.9705e-09 -3.21426e-08 0)
(3.80765e-09 -3.6057e-08 0)
(-3.53707e-09 1.83075e-09 0)
(2.54298e-08 -2.66729e-08 0)
(4.61905e-08 -7.05386e-08 0)
(4.59659e-08 -1.05487e-07 0)
(4.28028e-08 -1.23814e-07 0)
(3.95563e-08 -1.39292e-07 0)
(3.17158e-08 -1.27026e-07 0)
(3.2544e-08 -1.08545e-07 0)
(7.16584e-09 -5.39179e-08 0)
(-2.39884e-09 7.21423e-09 0)
(-1.12408e-09 5.09737e-08 0)
(2.49936e-09 6.45314e-08 0)
(4.95644e-09 5.47174e-08 0)
(6.46699e-09 3.30547e-08 0)
(8.35669e-09 1.10822e-08 0)
(9.38461e-09 -4.83681e-09 0)
(1.07789e-08 -1.7296e-08 0)
(8.38503e-09 -2.52922e-08 0)
(8.03291e-09 -2.96231e-08 0)
(1.81157e-09 -3.57149e-08 0)
(-5.89041e-09 2.1466e-09 0)
(2.99567e-08 -2.3095e-08 0)
(5.46076e-08 -6.00365e-08 0)
(5.80491e-08 -9.76201e-08 0)
(4.48375e-08 -1.24094e-07 0)
(4.84375e-08 -1.31805e-07 0)
(3.10413e-08 -1.39593e-07 0)
(-1.2295e-08 -1.02042e-07 0)
(2.76866e-09 -5.38745e-08 0)
(1.27654e-09 -1.93404e-09 0)
(3.78501e-09 4.012e-08 0)
(8.18719e-09 5.71128e-08 0)
(1.15177e-08 5.3191e-08 0)
(1.24693e-08 3.84044e-08 0)
(1.21487e-08 2.25424e-08 0)
(1.02445e-08 1.05731e-08 0)
(8.72598e-09 5.70083e-10 0)
(4.80296e-09 -7.92362e-09 0)
(4.22244e-09 -1.4539e-08 0)
(-1.68867e-09 -2.38116e-08 0)
(-7.63511e-09 2.3186e-09 0)
(3.10655e-08 -1.49e-08 0)
(5.95373e-08 -4.64777e-08 0)
(5.53853e-08 -8.1973e-08 0)
(5.8694e-08 -1.05043e-07 0)
(3.58169e-08 -1.19244e-07 0)
(4.25589e-08 -1.22901e-07 0)
(6.21486e-08 -1.18687e-07 0)
(1.29217e-08 -8.45441e-08 0)
(-4.393e-09 -3.2969e-08 0)
(1.61438e-09 1.13519e-08 0)
(1.04374e-08 3.21211e-08 0)
(1.68762e-08 3.36338e-08 0)
(1.84927e-08 2.39269e-08 0)
(1.71021e-08 1.22543e-08 0)
(1.21685e-08 3.82894e-09 0)
(7.93437e-09 -4.0038e-09 0)
(2.14477e-11 -1.14982e-08 0)
(-1.54097e-09 -2.02044e-08 0)
(-1.12039e-08 -3.14588e-08 0)
(-8.76966e-09 2.82456e-09 0)
(3.56222e-08 -1.47462e-08 0)
(6.33763e-08 -4.45326e-08 0)
(7.42645e-08 -7.72131e-08 0)
(4.49663e-08 -1.0211e-07 0)
(4.31212e-08 -1.20963e-07 0)
(7.79715e-09 -1.07139e-07 0)
(-3.00178e-08 -9.92678e-08 0)
(-6.01739e-09 -7.51752e-08 0)
(8.68078e-09 -3.91476e-08 0)
(1.2846e-08 -2.2828e-10 0)
(1.78368e-08 2.11775e-08 0)
(2.27347e-08 2.53876e-08 0)
(2.28279e-08 2.05111e-08 0)
(1.92995e-08 1.48308e-08 0)
(1.17242e-08 1.17503e-08 0)
(3.88609e-09 9.57463e-09 0)
(-6.69056e-09 6.61058e-09 0)
(-1.09402e-08 5.07911e-10 0)
(-2.12324e-08 -8.39341e-09 0)
(-1.12178e-08 4.22074e-09 0)
(2.69665e-08 -5.16933e-09 0)
(6.17484e-08 -2.44255e-08 0)
(5.47245e-08 -5.29343e-08 0)
(4.91517e-08 -7.8323e-08 0)
(4.64831e-08 -7.52809e-08 0)
(5.83127e-08 -9.20739e-08 0)
(4.077e-08 -7.17856e-08 0)
(2.35712e-10 -5.19765e-08 0)
(-4.89386e-09 -2.32379e-08 0)
(9.9532e-09 -2.95258e-09 0)
(1.97174e-08 7.45646e-09 0)
(2.8161e-08 6.40446e-09 0)
(3.10768e-08 -1.41237e-09 0)
(2.76853e-08 -8.6497e-09 0)
(1.74512e-08 -1.22715e-08 0)
(6.79786e-09 -1.37323e-08 0)
(-8.17805e-09 -1.54616e-08 0)
(-1.5074e-08 -1.95959e-08 0)
(-3.14976e-08 -2.70443e-08 0)
(-1.29642e-08 2.02802e-09 0)
(3.15696e-08 -1.91593e-09 0)
(7.14824e-08 -1.59345e-08 0)
(6.52818e-08 -3.29271e-08 0)
(5.73982e-08 -4.34195e-08 0)
(2.72874e-08 -4.95882e-08 0)
(-6.8754e-09 -4.79449e-08 0)
(-4.1492e-09 -5.96976e-08 0)
(4.49381e-09 -5.21897e-08 0)
(5.45825e-09 -3.27694e-08 0)
(7.56479e-09 -1.54662e-08 0)
(1.94038e-08 -2.62247e-09 0)
(2.73862e-08 4.66837e-09 0)
(2.81937e-08 6.88739e-09 0)
(2.40959e-08 7.49266e-09 0)
(1.31514e-08 8.91811e-09 0)
(1.03566e-09 1.0321e-08 0)
(-1.45158e-08 1.14357e-08 0)
(-2.36374e-08 9.82191e-09 0)
(-3.98941e-08 6.36117e-09 0)
(-1.27562e-08 -3.26087e-10 0)
(2.40064e-08 -7.01477e-09 0)
(6.04935e-08 -1.73336e-08 0)
(6.0024e-08 -2.23506e-08 0)
(4.31613e-08 -2.65183e-08 0)
(4.26018e-08 -3.78211e-08 0)
(3.71642e-08 -2.46353e-08 0)
(1.42771e-08 -1.31394e-08 0)
(-1.21218e-09 -4.15398e-09 0)
(-2.35079e-09 -1.76488e-09 0)
(8.53457e-09 7.45008e-09 0)
(2.31658e-08 7.17561e-09 0)
(3.59276e-08 -1.52028e-09 0)
(4.00116e-08 -1.19408e-08 0)
(3.58546e-08 -1.96107e-08 0)
(2.21613e-08 -2.3472e-08 0)
(7.31114e-09 -2.37046e-08 0)
(-1.12736e-08 -2.24823e-08 0)
(-2.23493e-08 -2.15257e-08 0)
(-4.26519e-08 -2.11724e-08 0)
)
;

boundaryField
{
    sides
    {
        type            calculated;
        value           nonuniform List<vector> 
40
(
(-1.27562e-08 0 0)
(2.40064e-08 0 0)
(6.04935e-08 0 0)
(6.0024e-08 0 0)
(4.31613e-08 0 0)
(4.26018e-08 0 0)
(3.71642e-08 0 0)
(1.42771e-08 0 0)
(-1.21218e-09 0 0)
(-2.35079e-09 0 0)
(8.53457e-09 0 0)
(2.31658e-08 0 0)
(3.59276e-08 0 0)
(4.00116e-08 0 0)
(3.58546e-08 0 0)
(2.21613e-08 0 0)
(7.31114e-09 0 0)
(-1.12736e-08 0 0)
(-2.23493e-08 0 0)
(-4.26519e-08 0 0)
(1.27602e-08 0 0)
(-2.39418e-08 0 0)
(-6.04218e-08 0 0)
(-5.99619e-08 0 0)
(-4.31165e-08 0 0)
(-4.25724e-08 0 0)
(-3.70877e-08 0 0)
(-1.42489e-08 0 0)
(1.23128e-09 0 0)
(2.33799e-09 0 0)
(-8.53113e-09 0 0)
(-2.31707e-08 0 0)
(-3.59495e-08 0 0)
(-4.00497e-08 0 0)
(-3.59055e-08 0 0)
(-2.22218e-08 0 0)
(-7.38811e-09 0 0)
(1.11902e-08 0 0)
(2.22587e-08 0 0)
(4.25709e-08 0 0)
)
;
    }
    inlet
    {
        type            calculated;
        value           uniform (0 0 0);
    }
    outlet
    {
        type            calculated;
        value           nonuniform List<vector> 
20
(
(4.25709e-08 -2.11576e-08 0)
(3.99055e-08 6.3411e-09 0)
(3.14269e-08 -2.70566e-08 0)
(2.12157e-08 -8.40387e-09 0)
(1.11528e-08 -3.14914e-08 0)
(1.66007e-09 -2.38166e-08 0)
(-1.84501e-09 -3.57442e-08 0)
(-3.8441e-09 -3.60624e-08 0)
(-2.89045e-09 -3.90314e-08 0)
(-1.00625e-09 -3.94739e-08 0)
(9.61698e-10 -3.94725e-08 0)
(2.8499e-09 -3.90223e-08 0)
(3.80765e-09 -3.6057e-08 0)
(1.81157e-09 -3.57149e-08 0)
(-1.68867e-09 -2.38116e-08 0)
(-1.12039e-08 -3.14588e-08 0)
(-2.12324e-08 -8.39341e-09 0)
(-3.14976e-08 -2.70443e-08 0)
(-3.98941e-08 6.36117e-09 0)
(-4.26519e-08 -2.11724e-08 0)
)
;
    }
    frontAndBack
    {
        type            empty;
    }
}


// ************************************************************************* //
