/*--------------------------------*- C++ -*----------------------------------*\
  =========                 |
  \\      /  F ield         | OpenFOAM: The Open Source CFD Toolbox
   \\    /   O peration     | Website:  https://openfoam.org
    \\  /    A nd           | Version:  7
     \\/     M anipulation  |
\*---------------------------------------------------------------------------*/
FoamFile
{
    version     2.0;
    format      ascii;
    class       volScalarField;
    location    "7";
    object      ddt0(h);
}
// * * * * * * * * * * * * * * * * * * * * * * * * * * * * * * * * * * * * * //

dimensions      [0 1 -1 0 0 0 0];

internalField   nonuniform List<scalar> 
400
(
7.35588e-08
1.35848e-07
1.9787e-07
2.27159e-07
2.47515e-07
2.1934e-07
2.24432e-07
2.50732e-07
2.4809e-07
2.42456e-07
2.49724e-07
2.36336e-07
2.17496e-07
1.95212e-07
1.68102e-07
1.35977e-07
9.93094e-08
6.01948e-08
2.50771e-08
4.94001e-09
8.07343e-08
1.34827e-07
1.89869e-07
2.51747e-07
2.25418e-07
2.73805e-07
3.39581e-07
2.84686e-07
2.8131e-07
2.81957e-07
2.53076e-07
2.28596e-07
2.03173e-07
1.71088e-07
1.35068e-07
9.90568e-08
6.42158e-08
3.29107e-08
8.92259e-09
-1.03671e-10
8.34963e-08
1.54091e-07
1.94298e-07
2.61022e-07
2.29047e-07
2.47036e-07
1.67111e-07
1.28325e-07
1.64088e-07
1.9401e-07
2.01077e-07
1.87699e-07
1.57414e-07
1.18036e-07
7.73289e-08
4.21648e-08
1.52634e-08
-2.08391e-09
-8.98322e-09
-4.73767e-09
9.16157e-08
1.48358e-07
2.57601e-07
2.08661e-07
3.12771e-07
2.23232e-07
2.92727e-07
4.10614e-07
3.18214e-07
1.91567e-07
1.4482e-07
1.16582e-07
8.02417e-08
3.88595e-08
1.17118e-09
-2.53405e-08
-3.76654e-08
-3.60483e-08
-2.49779e-08
-8.85517e-09
8.49899e-08
1.60096e-07
2.18673e-07
2.5744e-07
2.2058e-07
2.91669e-07
2.04922e-07
-2.43637e-08
5.97247e-08
9.06469e-08
6.94427e-08
2.9558e-08
-1.12431e-08
-4.35998e-08
-6.45662e-08
-7.1717e-08
-6.42809e-08
-4.62249e-08
-2.59173e-08
-7.8683e-09
7.39945e-08
1.29162e-07
2.03098e-07
2.39601e-07
2.65276e-07
2.21509e-07
2.14647e-07
3.58706e-07
1.46733e-07
5.73295e-08
-9.78468e-09
-5.65944e-08
-9.03796e-08
-1.06686e-07
-1.0515e-07
-8.97587e-08
-6.50335e-08
-3.86866e-08
-1.87832e-08
-5.59929e-09
5.51437e-08
1.10302e-07
1.54869e-07
1.95352e-07
2.22749e-07
2.10797e-07
1.95414e-07
3.8079e-08
5.50099e-08
-5.88636e-11
-6.07688e-08
-1.08772e-07
-1.3386e-07
-1.33281e-07
-1.12022e-07
-8.06239e-08
-4.87077e-08
-2.34228e-08
-9.29246e-09
-2.37194e-09
3.17297e-08
8.4666e-08
1.20606e-07
1.53951e-07
1.56274e-07
1.76828e-07
1.33524e-07
1.32637e-07
3.48038e-08
-2.5604e-08
-8.20204e-08
-1.18564e-07
-1.3428e-07
-1.24899e-07
-9.4162e-08
-5.88117e-08
-3.06675e-08
-1.29076e-08
-5.48945e-09
-2.08432e-09
1.76158e-08
4.14676e-08
7.92399e-08
9.3393e-08
9.69434e-08
1.08992e-07
9.51609e-08
8.35632e-08
3.11816e-08
-2.46449e-08
-6.60308e-08
-9.00789e-08
-9.85276e-08
-8.71235e-08
-6.01452e-08
-3.43072e-08
-1.71888e-08
-7.93047e-09
-4.63964e-09
-2.14687e-09
5.94753e-09
1.07492e-08
2.49271e-08
2.93691e-08
3.43114e-08
3.40385e-08
3.91107e-08
2.47548e-08
8.38112e-09
-1.11791e-08
-2.61824e-08
-3.37547e-08
-3.55349e-08
-3.06838e-08
-2.04345e-08
-1.1247e-08
-5.58216e-09
-2.58523e-09
-1.62049e-09
-8.2914e-10
-5.30991e-09
-1.01158e-08
-2.44137e-08
-2.89676e-08
-3.39558e-08
-3.38565e-08
-3.89749e-08
-2.47586e-08
-8.38858e-09
1.11785e-08
2.61488e-08
3.3759e-08
3.55587e-08
3.06559e-08
2.03546e-08
1.1158e-08
5.49866e-09
2.48955e-09
1.51963e-09
7.81384e-10
-1.70191e-08
-4.09233e-08
-7.86753e-08
-9.29331e-08
-9.66695e-08
-1.08758e-07
-9.50827e-08
-8.3513e-08
-3.1194e-08
2.45998e-08
6.60412e-08
9.00714e-08
9.84685e-08
8.70569e-08
6.0093e-08
3.42576e-08
1.71277e-08
7.85446e-09
4.56703e-09
2.11513e-09
-3.11634e-08
-8.41712e-08
-1.20106e-07
-1.53531e-07
-1.5591e-07
-1.76527e-07
-1.33486e-07
-1.32315e-07
-3.4841e-08
2.55507e-08
8.19772e-08
1.1854e-07
1.34254e-07
1.24887e-07
9.41541e-08
5.87801e-08
3.0611e-08
1.28471e-08
5.448e-09
2.07007e-09
-5.46468e-08
-1.09807e-07
-1.54451e-07
-1.94978e-07
-2.22451e-07
-2.10598e-07
-1.95461e-07
-3.84105e-08
-5.50689e-08
2.70689e-11
6.07254e-08
1.08746e-07
1.33846e-07
1.33267e-07
1.11992e-07
8.05758e-08
4.86591e-08
2.33935e-08
9.29009e-09
2.37743e-09
-7.36323e-08
-1.28735e-07
-2.02774e-07
-2.39286e-07
-2.65037e-07
-2.21309e-07
-2.1414e-07
-3.58426e-07
-1.4652e-07
-5.72778e-08
9.73497e-09
5.65426e-08
9.03473e-08
1.06638e-07
1.05077e-07
8.96861e-08
6.49894e-08
3.86815e-08
1.88084e-08
5.61714e-09
-8.46921e-08
-1.59841e-07
-2.18381e-07
-2.57157e-07
-2.20382e-07
-2.91485e-07
-2.04646e-07
2.45049e-08
-5.96434e-08
-9.05859e-08
-6.94201e-08
-2.96032e-08
1.119e-08
4.3537e-08
6.44945e-08
7.16497e-08
6.42374e-08
4.62162e-08
2.59359e-08
7.8822e-09
-9.13871e-08
-1.48189e-07
-2.57441e-07
-2.08447e-07
-3.12658e-07
-2.22987e-07
-2.92765e-07
-4.10686e-07
-3.18356e-07
-1.91577e-07
-1.44794e-07
-1.16617e-07
-8.02976e-08
-3.89121e-08
-1.22668e-09
2.52795e-08
3.76089e-08
3.6013e-08
2.49677e-08
8.85612e-09
-8.331e-08
-1.53931e-07
-1.94238e-07
-2.61001e-07
-2.28912e-07
-2.47079e-07
-1.67024e-07
-1.27893e-07
-1.63854e-07
-1.94031e-07
-2.01054e-07
-1.87728e-07
-1.57468e-07
-1.18083e-07
-7.73769e-08
-4.2227e-08
-1.53352e-08
2.01909e-09
8.9392e-09
4.72223e-09
-8.05776e-08
-1.34864e-07
-1.8983e-07
-2.51674e-07
-2.25482e-07
-2.73824e-07
-3.39867e-07
-2.8486e-07
-2.81396e-07
-2.81713e-07
-2.53148e-07
-2.28642e-07
-2.0322e-07
-1.71137e-07
-1.35116e-07
-9.91034e-08
-6.4266e-08
-3.29662e-08
-8.9735e-09
8.23975e-11
-7.33889e-08
-1.35655e-07
-1.97835e-07
-2.27268e-07
-2.47523e-07
-2.19454e-07
-2.24286e-07
-2.509e-07
-2.48135e-07
-2.42734e-07
-2.49787e-07
-2.36396e-07
-2.17575e-07
-1.95298e-07
-1.68171e-07
-1.36023e-07
-9.93516e-08
-6.02476e-08
-2.5133e-08
-4.96493e-09
)
;

boundaryField
{
    sides
    {
        type            calculated;
        value           nonuniform List<scalar> 
40
(
-7.33889e-08
-1.35655e-07
-1.97835e-07
-2.27268e-07
-2.47523e-07
-2.19454e-07
-2.24286e-07
-2.509e-07
-2.48135e-07
-2.42734e-07
-2.49787e-07
-2.36396e-07
-2.17575e-07
-1.95298e-07
-1.68171e-07
-1.36023e-07
-9.93516e-08
-6.02476e-08
-2.5133e-08
-4.96493e-09
7.35588e-08
1.35848e-07
1.9787e-07
2.27159e-07
2.47515e-07
2.1934e-07
2.24432e-07
2.50732e-07
2.4809e-07
2.42456e-07
2.49724e-07
2.36336e-07
2.17496e-07
1.95212e-07
1.68102e-07
1.35977e-07
9.93094e-08
6.01948e-08
2.50771e-08
4.94001e-09
)
;
    }
    inlet
    {
        type            calculated;
        value           nonuniform List<scalar> 
20
(
7.35588e-08
8.07343e-08
8.34963e-08
9.16157e-08
8.49899e-08
7.39945e-08
5.51437e-08
3.17297e-08
1.76158e-08
5.94753e-09
-5.30991e-09
-1.70191e-08
-3.11634e-08
-5.46468e-08
-7.36323e-08
-8.46921e-08
-9.13871e-08
-8.331e-08
-8.05776e-08
-7.33889e-08
)
;
    }
    outlet
    {
        type            calculated;
        value           uniform 0;
    }
    frontAndBack
    {
        type            empty;
    }
}


// ************************************************************************* //
