/*--------------------------------*- C++ -*----------------------------------*\
  =========                 |
  \\      /  F ield         | OpenFOAM: The Open Source CFD Toolbox
   \\    /   O peration     | Website:  https://openfoam.org
    \\  /    A nd           | Version:  7
     \\/     M anipulation  |
\*---------------------------------------------------------------------------*/
FoamFile
{
    version     2.0;
    format      ascii;
    class       surfaceScalarField;
    location    "7";
    object      ddtCorrDdt0(phi);
}
// * * * * * * * * * * * * * * * * * * * * * * * * * * * * * * * * * * * * * //

dimensions      [0 4 -2 0 0 0 0];

internalField   nonuniform List<scalar> 
760
(
-1.12788e-10
5.65936e-12
-2.16298e-10
-2.65888e-11
-2.80759e-10
-8.3692e-11
-2.76628e-10
-6.74017e-11
-2.14707e-10
-8.65104e-11
-2.21259e-10
-3.03265e-10
-1.12162e-10
-1.01622e-10
-3.18124e-11
-2.48808e-10
1.12882e-11
-2.27648e-10
-1.91375e-11
-2.51267e-11
-8.10334e-11
-2.32917e-11
-1.50034e-10
7.05319e-12
-1.92262e-10
6.44543e-12
-1.92645e-10
-9.02139e-12
-1.47067e-10
-2.15305e-11
-7.21881e-11
-2.55956e-11
1.05115e-11
-2.25838e-11
9.13925e-11
-1.89394e-11
1.63428e-10
-2.2154e-11
-3.40341e-11
-1.29098e-10
1.94513e-11
-2.75282e-10
-2.00752e-11
-3.13194e-10
-9.96034e-11
-3.06559e-10
-2.53181e-10
-2.79929e-10
-3.39676e-10
-1.39833e-11
-3.30699e-10
3.8911e-11
-4.98294e-10
1.76343e-11
-3.41905e-10
-5.91805e-11
-2.14662e-10
-2.49813e-11
-1.53435e-10
-7.43862e-11
-5.04473e-11
-1.13758e-10
7.18036e-12
-1.38944e-10
2.42311e-11
-1.34006e-10
8.39749e-12
-9.38176e-11
-9.23196e-12
-3.33572e-11
-1.35469e-11
3.64258e-11
-1.28533e-11
1.03468e-10
-1.30214e-11
1.6041e-10
-2.73635e-11
-5.3338e-11
-1.23466e-10
1.75925e-11
-2.32e-10
-5.86096e-11
-2.75264e-10
-1.78211e-10
-2.63029e-10
-2.98436e-10
-2.60934e-10
-4.95923e-10
-2.44758e-10
-3.94817e-10
-2.89312e-10
-5.97407e-10
-8.14391e-11
-4.96448e-10
2.82544e-11
-1.52867e-10
-2.17917e-11
-1.59967e-10
-7.17722e-11
-2.60738e-12
-1.24116e-10
7.46305e-11
-1.51298e-10
8.15932e-11
-1.46951e-10
5.52086e-11
-1.1241e-10
2.7917e-11
-5.7496e-11
1.37047e-11
5.34328e-12
5.74716e-12
6.57673e-11
-7.23958e-12
1.13529e-10
-3.59231e-11
-8.34794e-11
-1.55822e-10
1.55298e-11
-2.50886e-10
-6.3887e-11
-3.19147e-10
-2.31891e-10
-3.49259e-10
-4.12027e-10
-1.80428e-10
-4.69185e-10
-2.19826e-10
-7.4033e-10
1.58852e-10
-5.07931e-10
6.46261e-11
-5.84597e-10
-1.62972e-11
-5.13142e-10
-6.39161e-11
-1.88585e-10
-7.40696e-11
2.50391e-11
-9.62228e-11
1.41997e-10
-1.12676e-10
1.58835e-10
-1.04495e-10
1.19785e-10
-7.53182e-11
7.5089e-11
-3.5889e-11
4.58926e-11
1.01248e-11
1.95818e-11
5.00568e-11
-8.75458e-12
7.84134e-11
-4.91244e-11
-1.01142e-10
-1.33302e-10
8.61664e-12
-2.36278e-10
-1.02808e-10
-2.77401e-10
-2.60622e-10
-2.69581e-10
-4.46905e-10
-3.28849e-10
-6.25692e-10
-8.87511e-11
-5.24581e-10
-3.52046e-10
-8.13802e-10
-1.65188e-10
-6.27297e-10
-1.51557e-11
-3.8681e-10
1.63448e-11
-8.80756e-11
-2.58427e-11
1.47446e-10
-6.89514e-11
2.38475e-10
-8.72888e-11
2.33464e-10
-8.60962e-11
1.7425e-10
-7.06395e-11
1.04818e-10
-4.71979e-11
5.16578e-11
-1.9668e-11
4.12828e-12
6.38173e-12
-3.86966e-11
2.5715e-11
-7.98622e-11
-1.34419e-10
-1.30539e-10
8.54909e-12
-2.06556e-10
-1.29061e-10
-2.725e-10
-3.29819e-10
-2.94432e-10
-5.02166e-10
-1.97615e-10
-5.84394e-10
-2.75455e-10
-7.32373e-10
9.44514e-12
-5.95673e-10
-8.75734e-13
-5.01106e-10
3.39343e-13
-2.61869e-10
-1.38324e-11
1.67411e-11
-2.34305e-11
2.2397e-10
-4.23284e-11
3.08234e-10
-5.48903e-11
2.78484e-10
-5.76887e-11
1.8964e-10
-5.39655e-11
9.44915e-11
-4.63204e-11
2.09895e-11
-3.62853e-11
-4.06706e-11
-2.27408e-11
-8.74041e-11
-7.98869e-12
-1.17856e-10
-1.53473e-10
-1.13691e-10
7.69869e-12
-1.74189e-10
-1.38547e-10
-2.26297e-10
-3.76753e-10
-2.23376e-10
-5.5394e-10
-2.41347e-10
-6.52945e-10
-1.65096e-10
-6.76782e-10
-1.78084e-10
-6.69437e-10
-9.90777e-11
-4.92131e-10
-1.22996e-11
-2.16339e-10
2.05896e-11
1.07176e-10
4.37184e-12
3.17642e-10
-1.09733e-11
3.63347e-10
-2.11845e-11
2.92959e-10
-3.30224e-11
1.65129e-10
-4.41175e-11
4.13479e-11
-5.24069e-11
-4.44784e-11
-5.3572e-11
-1.06663e-10
-4.41455e-11
-1.40923e-10
-2.71888e-11
-1.51936e-10
-1.77786e-10
-7.88329e-11
8.24404e-12
-1.44002e-10
-1.63885e-10
-1.69614e-10
-4.00955e-10
-1.70829e-10
-5.74957e-10
-1.78703e-10
-6.70879e-10
-1.50677e-10
-6.95726e-10
-1.03944e-10
-6.70924e-10
-4.60419e-11
-4.67347e-10
-1.67479e-11
-1.41331e-10
8.8024e-12
1.91901e-10
1.89519e-11
3.90842e-10
1.86703e-11
4.04559e-10
6.17093e-12
2.86119e-10
-1.45623e-11
1.15584e-10
-3.59289e-11
-3.27823e-11
-5.40044e-11
-1.22785e-10
-6.17289e-11
-1.73459e-10
-5.20779e-11
-1.88024e-10
-3.10559e-11
-1.78099e-10
-1.89973e-10
-5.16291e-11
7.54767e-12
-9.11011e-11
-1.76739e-10
-1.04373e-10
-4.21409e-10
-1.10169e-10
-5.95315e-10
-1.04469e-10
-6.8101e-10
-1.19069e-10
-7.15895e-10
-6.26086e-11
-6.46746e-10
-2.44388e-11
-4.30597e-10
-2.43461e-12
-8.53577e-11
8.55179e-12
2.52997e-10
1.99171e-11
4.41457e-10
2.2605e-11
4.2228e-10
1.26934e-11
2.64604e-10
-4.23726e-12
6.36331e-11
-2.38809e-11
-1.00241e-10
-4.19802e-11
-1.88715e-10
-5.0853e-11
-2.25319e-10
-4.33315e-11
-2.19366e-10
-2.41799e-11
-1.90782e-10
-1.96344e-10
-2.22826e-11
4.97842e-12
-2.77534e-11
-1.69724e-10
-3.61205e-11
-4.33003e-10
-3.77334e-11
-6.08244e-10
-3.58761e-11
-6.9119e-10
-4.06689e-11
-7.25569e-10
-1.84813e-11
-6.5096e-10
-1.53137e-11
-4.35574e-10
-2.65201e-12
-6.9164e-11
2.96255e-12
2.73405e-10
9.00876e-12
4.57734e-10
1.1328e-11
4.25352e-10
7.15636e-12
2.51298e-10
-3.11583e-13
3.82274e-11
-8.98187e-12
-1.30932e-10
-1.66096e-11
-2.17099e-10
-2.04174e-11
-2.46363e-10
-1.72064e-11
-2.30309e-10
-8.73704e-12
-1.93137e-10
-1.9691e-10
2.21932e-11
7.58662e-12
2.76454e-11
-1.76619e-10
3.61556e-11
-4.21316e-10
3.77827e-11
-5.9541e-10
3.60194e-11
-6.81034e-10
4.08194e-11
-7.15875e-10
1.86782e-11
-6.46733e-10
1.5447e-11
-4.30598e-10
2.85563e-12
-8.53225e-11
-2.82826e-12
2.5296e-10
-8.92181e-12
4.41444e-10
-1.1234e-11
4.22333e-10
-7.13642e-12
2.64622e-10
2.19067e-13
6.35998e-11
8.84371e-12
-1.00256e-10
1.64737e-11
-1.88694e-10
2.0272e-11
-2.25292e-10
1.70296e-11
-2.19344e-10
8.53109e-12
-1.90771e-10
-1.96322e-10
5.16215e-11
8.37704e-12
9.10455e-11
-1.6379e-10
1.04291e-10
-4.00949e-10
1.10269e-10
-5.74919e-10
1.04626e-10
-6.70866e-10
1.19217e-10
-6.95752e-10
6.28067e-11
-6.70863e-10
2.46266e-11
-4.67353e-10
2.56841e-12
-1.41397e-10
-8.39612e-12
1.91839e-10
-1.97623e-11
3.90782e-10
-2.25773e-11
4.04502e-10
-1.27661e-11
2.86095e-10
4.14463e-12
1.15604e-10
2.37856e-11
-3.27168e-11
4.18605e-11
-1.22708e-10
5.07027e-11
-1.73405e-10
4.31576e-11
-1.87981e-10
2.399e-11
-1.78075e-10
-1.89934e-10
7.88208e-11
7.89792e-12
1.43984e-10
-1.38412e-10
1.69615e-10
-3.76806e-10
1.70907e-10
-5.53973e-10
1.78807e-10
-6.52935e-10
1.50918e-10
-6.76703e-10
1.04214e-10
-6.69147e-10
4.62641e-11
-4.92574e-10
1.68774e-11
-2.16354e-10
-8.68747e-12
1.07102e-10
-1.88371e-11
3.17579e-10
-1.86164e-11
3.63293e-10
-6.17738e-12
2.92957e-10
1.45296e-11
1.6518e-10
3.58494e-11
4.14199e-11
5.38613e-11
-4.44173e-11
6.15532e-11
-1.06616e-10
5.1905e-11
-1.40858e-10
3.08932e-11
-1.51883e-10
-1.77707e-10
1.13684e-10
8.77158e-12
1.7418e-10
-1.28916e-10
2.26407e-10
-3.29819e-10
2.23449e-10
-5.02248e-10
2.41427e-10
-5.843e-10
1.65427e-10
-7.32054e-10
1.77758e-10
-5.95792e-10
9.91967e-11
-5.00827e-10
1.24857e-11
-2.61928e-10
-2.04306e-11
1.67623e-11
-4.26589e-12
2.23954e-10
1.1045e-11
3.08197e-10
2.1193e-11
2.7847e-10
3.29548e-11
1.89655e-10
4.39734e-11
9.45188e-11
5.22142e-11
2.10191e-11
5.33785e-11
-4.063e-11
4.39721e-11
-8.73191e-11
2.70276e-11
-1.17774e-10
-1.53385e-10
1.30524e-10
8.80503e-12
2.06605e-10
-1.02679e-10
2.72621e-10
-2.60542e-10
2.94629e-10
-4.4693e-10
1.97867e-10
-6.25683e-10
2.75496e-10
-5.24539e-10
-8.68844e-12
-8.13235e-10
9.05144e-13
-6.27595e-10
-1.44655e-13
-3.85838e-10
1.38969e-11
-8.81628e-11
2.34666e-11
1.47362e-10
4.24009e-11
2.38441e-10
5.49294e-11
2.33426e-10
5.76335e-11
1.74215e-10
5.38292e-11
1.04809e-10
4.61614e-11
5.1687e-11
3.615e-11
4.18273e-12
2.26181e-11
-3.85907e-11
7.86655e-12
-7.97705e-11
-1.34318e-10
1.33307e-10
1.56269e-11
2.36488e-10
-6.37194e-11
2.77558e-10
-2.32035e-10
2.69792e-10
-4.12091e-10
3.29003e-10
-4.69195e-10
8.89443e-11
-7.40232e-10
3.52055e-10
-5.07933e-10
1.65427e-10
-5.85196e-10
1.5286e-11
-5.1374e-10
-1.62211e-11
-1.88535e-10
2.58614e-11
2.50391e-11
6.89341e-11
1.42015e-10
8.72459e-11
1.5884e-10
8.59809e-11
1.19784e-10
7.04518e-11
7.51086e-11
4.69806e-11
4.59444e-11
1.94493e-11
1.96476e-11
-6.60722e-12
-8.65637e-12
-2.5956e-11
-4.90439e-11
-1.01039e-10
1.55966e-10
1.7707e-11
2.50972e-10
-5.86867e-11
3.19479e-10
-1.78146e-10
3.49515e-10
-2.98626e-10
1.80635e-10
-4.96069e-10
2.20178e-10
-3.94609e-10
-1.58574e-10
-5.97606e-10
-6.46284e-11
-4.94756e-10
1.61256e-11
-1.52808e-10
6.39601e-11
-1.59905e-10
7.41143e-11
-2.58248e-12
9.62077e-11
7.46935e-11
1.1266e-10
8.16575e-11
1.04457e-10
5.52533e-11
7.52418e-11
2.79505e-11
3.57856e-11
1.37467e-11
-1.02324e-11
5.77983e-12
-5.01623e-11
-7.18761e-12
-7.85134e-11
-3.58843e-11
-8.34138e-11
1.23519e-10
1.94861e-11
2.32318e-10
-1.9991e-11
2.75467e-10
-9.97087e-11
2.63263e-10
-2.53328e-10
2.61291e-10
-3.39731e-10
2.44597e-10
-3.30662e-10
2.89522e-10
-4.96545e-10
8.19091e-11
-3.42426e-10
-2.80054e-11
-2.16438e-10
2.18116e-11
-1.53346e-10
7.17283e-11
-5.03417e-11
1.24015e-10
7.23923e-12
1.51194e-10
2.431e-11
1.46826e-10
8.48628e-12
1.12224e-10
-9.17051e-12
5.72372e-11
-1.34939e-11
-5.65212e-12
-1.2821e-11
-6.61072e-11
-1.29701e-11
-1.13881e-10
-2.73271e-11
-5.32653e-11
1.29222e-10
5.64128e-12
2.7556e-10
-2.62376e-11
3.13461e-10
-8.4412e-11
3.06811e-10
-6.7192e-11
2.80342e-10
-8.63776e-11
1.43156e-11
-3.04149e-10
-3.89836e-11
-1.00041e-10
-1.75673e-11
-2.49583e-10
5.92993e-11
-2.27584e-10
2.49897e-11
-2.77246e-11
7.43058e-11
-2.3283e-11
1.13658e-10
7.0929e-12
1.38819e-10
6.49854e-12
1.33896e-10
-8.99957e-12
9.37412e-11
-2.15507e-11
3.33078e-11
-2.56186e-11
-3.64729e-11
-2.25957e-11
-1.0349e-10
-1.89315e-11
-1.60405e-10
-2.21447e-11
-3.40182e-11
1.13086e-10
2.16567e-10
2.81106e-10
2.76981e-10
2.14795e-10
2.21581e-10
1.1246e-10
3.18888e-11
-1.12805e-11
1.91294e-11
8.10345e-11
1.49968e-10
1.92099e-10
1.92415e-10
1.46787e-10
7.18434e-11
-1.09281e-11
-9.18324e-11
-1.63859e-10
)
;

boundaryField
{
    sides
    {
        type            calculated;
        value           uniform 0;
    }
    inlet
    {
        type            calculated;
        value           uniform 0;
    }
    outlet
    {
        type            calculated;
        value           nonuniform List<scalar> 
20
(
2.17276e-10
1.98531e-10
1.55812e-10
9.8473e-11
5.27794e-11
3.18677e-12
-5.66534e-12
-1.57042e-11
-9.40736e-12
-2.77613e-12
2.53752e-12
9.19749e-12
1.55178e-11
5.51019e-12
-3.3208e-12
-5.30338e-11
-9.85477e-11
-1.56172e-10
-1.98465e-10
-2.17686e-10
)
;
    }
    frontAndBack
    {
        type            empty;
        value           nonuniform 0();
    }
}


// ************************************************************************* //
