/*--------------------------------*- C++ -*----------------------------------*\
  =========                 |
  \\      /  F ield         | OpenFOAM: The Open Source CFD Toolbox
   \\    /   O peration     | Website:  https://openfoam.org
    \\  /    A nd           | Version:  7
     \\/     M anipulation  |
\*---------------------------------------------------------------------------*/
FoamFile
{
    version     2.0;
    format      ascii;
    class       surfaceScalarField;
    location    "7";
    object      phi;
}
// * * * * * * * * * * * * * * * * * * * * * * * * * * * * * * * * * * * * * //

dimensions      [0 4 -1 0 0 0 0];

internalField   nonuniform List<scalar> 
760
(
4.99999e-06
-1.58852e-11
5e-06
-6.26356e-11
5.00004e-06
-9.87631e-11
5.00009e-06
-1.11394e-10
5.00012e-06
-1.04818e-10
5.00014e-06
-9.37752e-11
5.00015e-06
-6.99527e-11
5.00014e-06
-5.61344e-11
5.00011e-06
-4.47314e-11
5.00009e-06
-5.27635e-11
5.0001e-06
-8.35964e-11
5.00018e-06
-1.47209e-10
5.00033e-06
-2.00879e-10
5.00055e-06
-2.6667e-10
5.00079e-06
-2.83669e-10
5.00111e-06
-3.4994e-10
5.00143e-06
-3.31642e-10
5.0019e-06
-4.77337e-10
5.00234e-06
-4.45404e-10
-8.8266e-10
5.00001e-06
-5.29463e-11
5.00004e-06
-1.49411e-10
5.00011e-06
-2.25062e-10
5.00018e-06
-2.58818e-10
5.00025e-06
-2.39966e-10
5.00028e-06
-1.91741e-10
5.00026e-06
-1.46528e-10
5.00022e-06
-1.0312e-10
5.00016e-06
-7.73134e-11
5.00014e-06
-1.04142e-10
5.00016e-06
-1.71273e-10
5.00023e-06
-2.78386e-10
5.00035e-06
-3.75083e-10
5.00053e-06
-4.89667e-10
5.00076e-06
-5.32031e-10
5.00103e-06
-6.38167e-10
5.00132e-06
-6.34896e-10
5.00168e-06
-8.38036e-10
5.00205e-06
-8.10077e-10
-1.24637e-09
4.99998e-06
-7.06856e-11
4.99999e-06
-2.10282e-10
5.00002e-06
-3.10722e-10
5.00004e-06
-3.52881e-10
5.00007e-06
-3.34659e-10
5.00008e-06
-2.6749e-10
5.00008e-06
-2.04972e-10
5.00008e-06
-1.40651e-10
5.00008e-06
-1.07824e-10
5.00007e-06
-1.43948e-10
5.00009e-06
-2.44957e-10
5.00018e-06
-4.06131e-10
5.00032e-06
-5.48382e-10
5.0005e-06
-6.9574e-10
5.00072e-06
-7.67636e-10
5.00097e-06
-8.93087e-10
5.00126e-06
-9.16812e-10
5.00156e-06
-1.13415e-09
5.00191e-06
-1.14885e-09
-1.65352e-09
5e-06
-1.02812e-10
5.00003e-06
-2.96184e-10
5.00008e-06
-4.31646e-10
5.00014e-06
-4.82919e-10
5.0002e-06
-4.50372e-10
5.00023e-06
-3.7845e-10
5.00024e-06
-2.64294e-10
5.00018e-06
-1.76563e-10
5.00011e-06
-1.30612e-10
5.00009e-06
-1.80874e-10
5.00011e-06
-3.05539e-10
5.00018e-06
-4.96981e-10
5.00029e-06
-6.76363e-10
5.00045e-06
-8.56526e-10
5.00064e-06
-9.46865e-10
5.00085e-06
-1.09385e-09
5.00108e-06
-1.13318e-09
5.00133e-06
-1.37618e-09
5.00159e-06
-1.40174e-09
-1.85928e-09
5e-06
-1.33926e-10
5.00002e-06
-3.6857e-10
5.00004e-06
-5.20959e-10
5.00007e-06
-5.75054e-10
5.00008e-06
-5.36624e-10
5.00009e-06
-4.28535e-10
5.00007e-06
-3.13258e-10
5.00007e-06
-1.9508e-10
5.00008e-06
-1.39616e-10
5.00007e-06
-1.83481e-10
5.00009e-06
-3.40051e-10
5.00016e-06
-5.71648e-10
5.00028e-06
-7.80062e-10
5.00042e-06
-9.81615e-10
5.00058e-06
-1.09467e-09
5.00076e-06
-1.25509e-09
5.00096e-06
-1.31661e-09
5.00116e-06
-1.56152e-09
5.00137e-06
-1.60755e-09
-2.09599e-09
4.99999e-06
-1.58992e-10
5.00002e-06
-4.34614e-10
5.00005e-06
-6.11003e-10
5.00008e-06
-6.70403e-10
5.00011e-06
-6.27481e-10
5.00013e-06
-5.15945e-10
5.00013e-06
-3.53066e-10
5.00009e-06
-2.01332e-10
5.00005e-06
-1.22748e-10
5.00005e-06
-1.86726e-10
5.00008e-06
-3.59244e-10
5.00014e-06
-6.1238e-10
5.00023e-06
-8.48594e-10
5.00035e-06
-1.07306e-09
5.00048e-06
-1.20382e-09
5.00062e-06
-1.3806e-09
5.00078e-06
-1.45679e-09
5.00093e-06
-1.71445e-09
5.0011e-06
-1.77079e-09
-2.23123e-09
5e-06
-1.79969e-10
5.00002e-06
-4.89816e-10
5.00004e-06
-6.83436e-10
5.00006e-06
-7.46742e-10
5.00008e-06
-6.99913e-10
5.00008e-06
-5.6562e-10
5.00006e-06
-3.79649e-10
5.00005e-06
-2.04793e-10
5.00004e-06
-1.15347e-10
5.00003e-06
-1.70558e-10
5.00006e-06
-3.6377e-10
5.00011e-06
-6.39543e-10
5.00019e-06
-8.95795e-10
5.00029e-06
-1.13844e-09
5.00039e-06
-1.28673e-09
5.0005e-06
-1.47681e-09
5.00061e-06
-1.56736e-09
5.00073e-06
-1.82791e-09
5.00085e-06
-1.89083e-09
-2.35399e-09
5e-06
-1.94984e-10
5.00001e-06
-5.32416e-10
5.00003e-06
-7.37025e-10
5.00004e-06
-8.00809e-10
5.00005e-06
-7.51224e-10
5.00006e-06
-6.09354e-10
5.00005e-06
-4.0543e-10
5.00004e-06
-2.06355e-10
5.00002e-06
-1.00352e-10
5.00002e-06
-1.57637e-10
5.00004e-06
-3.57893e-10
5.00008e-06
-6.4894e-10
5.00014e-06
-9.22969e-10
5.00021e-06
-1.18229e-09
5.00028e-06
-1.3457e-09
5.00036e-06
-1.54687e-09
5.00044e-06
-1.64665e-09
5.00052e-06
-1.90903e-09
5.0006e-06
-1.9759e-09
-2.43167e-09
5e-06
-2.03601e-10
5.00001e-06
-5.57953e-10
5.00002e-06
-7.69976e-10
5.00003e-06
-8.34437e-10
5.00003e-06
-7.83436e-10
5.00004e-06
-6.39534e-10
5.00003e-06
-4.19122e-10
5.00002e-06
-2.0427e-10
5.00001e-06
-9.11506e-11
5.00001e-06
-1.4581e-10
5.00002e-06
-3.51876e-10
5.00005e-06
-6.52996e-10
5.00009e-06
-9.38523e-10
5.00013e-06
-1.20862e-09
5.00017e-06
-1.38181e-09
5.00022e-06
-1.58982e-09
5.00026e-06
-1.69478e-09
5.00031e-06
-1.95726e-09
5.00036e-06
-2.02545e-09
-2.4785e-09
5e-06
-2.06459e-10
5e-06
-5.6557e-10
5.00001e-06
-7.81037e-10
5.00001e-06
-8.4603e-10
5.00001e-06
-7.95112e-10
5.00001e-06
-6.49597e-10
5.00001e-06
-4.23925e-10
5.00001e-06
-2.05601e-10
5e-06
-8.78379e-11
5e-06
-1.4173e-10
5.00001e-06
-3.49403e-10
5.00002e-06
-6.53802e-10
5.00003e-06
-9.43431e-10
5.00004e-06
-1.21752e-09
5.00006e-06
-1.39428e-09
5.00007e-06
-1.6046e-09
5.00009e-06
-1.71112e-09
5.0001e-06
-1.97334e-09
5.00012e-06
-2.04173e-09
-2.4936e-09
5e-06
-2.03625e-10
5e-06
-5.58026e-10
4.99999e-06
-7.70053e-10
4.99999e-06
-8.34497e-10
4.99999e-06
-7.83465e-10
4.99999e-06
-6.39541e-10
4.99999e-06
-4.19132e-10
4.99999e-06
-2.04279e-10
5e-06
-9.11576e-11
5e-06
-1.45813e-10
4.99999e-06
-3.51867e-10
4.99998e-06
-6.52974e-10
4.99997e-06
-9.38503e-10
4.99996e-06
-1.20859e-09
4.99994e-06
-1.38178e-09
4.99993e-06
-1.58977e-09
4.99991e-06
-1.69473e-09
4.9999e-06
-1.95718e-09
4.99988e-06
-2.02538e-09
-2.47839e-09
5e-06
-1.95023e-10
4.99999e-06
-5.32561e-10
4.99998e-06
-7.37191e-10
4.99997e-06
-8.00918e-10
4.99997e-06
-7.51271e-10
4.99996e-06
-6.09379e-10
4.99997e-06
-4.05448e-10
4.99998e-06
-2.06372e-10
4.99999e-06
-1.00379e-10
4.99999e-06
-1.57641e-10
4.99997e-06
-3.57877e-10
4.99995e-06
-6.48905e-10
4.99991e-06
-9.22929e-10
4.99987e-06
-1.18223e-09
4.99983e-06
-1.34564e-09
4.99978e-06
-1.54678e-09
4.99974e-06
-1.64655e-09
4.99969e-06
-1.90889e-09
4.99964e-06
-1.97576e-09
-2.43145e-09
5e-06
-1.80025e-10
4.99999e-06
-4.90016e-10
4.99997e-06
-6.83675e-10
4.99995e-06
-7.46909e-10
4.99995e-06
-6.9999e-10
4.99994e-06
-5.65657e-10
4.99995e-06
-3.79673e-10
4.99996e-06
-2.0483e-10
4.99998e-06
-1.15385e-10
4.99998e-06
-1.70563e-10
4.99996e-06
-3.6375e-10
4.99991e-06
-6.39493e-10
4.99986e-06
-8.95738e-10
4.99979e-06
-1.13835e-09
4.99972e-06
-1.28665e-09
4.99964e-06
-1.47668e-09
4.99956e-06
-1.56723e-09
4.99948e-06
-1.82771e-09
4.9994e-06
-1.89064e-09
-2.35365e-09
5e-06
-1.59067e-10
4.99998e-06
-4.34857e-10
4.99996e-06
-6.11285e-10
4.99994e-06
-6.7061e-10
4.99992e-06
-6.27574e-10
4.99992e-06
-5.1596e-10
4.99994e-06
-3.53108e-10
4.99995e-06
-2.01336e-10
4.99996e-06
-1.22765e-10
4.99997e-06
-1.86708e-10
4.99994e-06
-3.59205e-10
4.99988e-06
-6.12313e-10
4.99981e-06
-8.48529e-10
4.99971e-06
-1.07297e-09
4.99961e-06
-1.20373e-09
4.9995e-06
-1.38046e-09
4.99938e-06
-1.45666e-09
4.99927e-06
-1.7142e-09
4.99915e-06
-1.77056e-09
-2.23085e-09
5.00001e-06
-1.34009e-10
4.99998e-06
-3.68834e-10
4.99995e-06
-5.21262e-10
4.99992e-06
-5.75284e-10
4.99989e-06
-5.36743e-10
4.99987e-06
-4.28596e-10
4.99986e-06
-3.13288e-10
4.99991e-06
-1.9515e-10
4.99995e-06
-1.39642e-10
4.99995e-06
-1.83505e-10
4.99992e-06
-3.40031e-10
4.99986e-06
-5.71584e-10
4.99977e-06
-7.80001e-10
4.99965e-06
-9.81516e-10
4.99952e-06
-1.09459e-09
4.99938e-06
-1.25493e-09
4.99922e-06
-1.31646e-09
4.99907e-06
-1.56123e-09
4.9989e-06
-1.60731e-09
-2.0955e-09
5e-06
-1.02893e-10
4.99998e-06
-2.96428e-10
4.99996e-06
-4.31954e-10
4.99993e-06
-4.83156e-10
4.99992e-06
-4.50509e-10
4.99991e-06
-3.78533e-10
4.99993e-06
-2.64374e-10
4.99993e-06
-1.76641e-10
4.99992e-06
-1.30678e-10
4.99993e-06
-1.80882e-10
4.99991e-06
-3.05515e-10
4.99983e-06
-4.96906e-10
4.99972e-06
-6.76292e-10
4.99958e-06
-8.56412e-10
4.99942e-06
-9.46774e-10
4.99924e-06
-1.09368e-09
4.99904e-06
-1.13305e-09
4.99884e-06
-1.3759e-09
4.99863e-06
-1.40151e-09
-1.8588e-09
5e-06
-7.07547e-11
4.99997e-06
-2.10506e-10
4.99992e-06
-3.10992e-10
4.99986e-06
-3.5312e-10
4.9998e-06
-3.34816e-10
4.99977e-06
-2.67586e-10
4.99976e-06
-2.05079e-10
4.99982e-06
-1.40727e-10
4.99989e-06
-1.07922e-10
4.99991e-06
-1.43988e-10
4.99989e-06
-2.44966e-10
4.99982e-06
-4.06091e-10
4.99971e-06
-5.48353e-10
4.99955e-06
-6.95659e-10
4.99936e-06
-7.67589e-10
4.99915e-06
-8.92939e-10
4.99892e-06
-9.16724e-10
4.99867e-06
-1.13388e-09
4.99841e-06
-1.14868e-09
-1.65305e-09
5.00002e-06
-5.29956e-11
5.00001e-06
-1.49568e-10
4.99998e-06
-2.25267e-10
4.99996e-06
-2.58986e-10
4.99993e-06
-2.40067e-10
4.99992e-06
-1.91799e-10
4.99992e-06
-1.46526e-10
4.99991e-06
-1.03165e-10
4.99992e-06
-7.73857e-11
4.99993e-06
-1.04166e-10
4.99991e-06
-1.71278e-10
4.99982e-06
-2.78337e-10
4.99968e-06
-3.75039e-10
4.9995e-06
-4.8956e-10
4.99928e-06
-5.31979e-10
4.99903e-06
-6.3801e-10
4.99874e-06
-6.34836e-10
4.99844e-06
-8.3778e-10
4.99809e-06
-8.09943e-10
-1.24594e-09
4.99999e-06
-1.59257e-11
4.99996e-06
-6.27425e-11
4.99989e-06
-9.89158e-11
4.99982e-06
-1.11511e-10
4.99975e-06
-1.04918e-10
4.99972e-06
-9.38894e-11
4.99974e-06
-7.0029e-11
4.99978e-06
-5.61688e-11
4.99984e-06
-4.48322e-11
4.99986e-06
-5.27858e-11
4.99984e-06
-8.36675e-11
4.99977e-06
-1.47265e-10
4.99965e-06
-2.00952e-10
4.99947e-06
-2.66703e-10
4.99925e-06
-2.83719e-10
4.99897e-06
-3.49905e-10
4.99868e-06
-3.31647e-10
4.99832e-06
-4.77232e-10
4.99795e-06
-4.45367e-10
-8.8252e-10
5.00001e-06
5e-06
4.99996e-06
4.99991e-06
4.99988e-06
4.99986e-06
4.99985e-06
4.99986e-06
4.99989e-06
4.99991e-06
4.9999e-06
4.99982e-06
4.99967e-06
4.99945e-06
4.99921e-06
4.99889e-06
4.99857e-06
4.9981e-06
4.99766e-06
)
;

boundaryField
{
    sides
    {
        type            calculated;
        value           uniform 0;
    }
    inlet
    {
        type            calculated;
        value           nonuniform List<scalar> 
20
(
-5e-06
-5e-06
-5e-06
-5e-06
-5e-06
-5e-06
-5e-06
-5e-06
-5e-06
-5e-06
-5e-06
-5e-06
-5e-06
-5e-06
-5e-06
-5e-06
-5e-06
-5e-06
-5e-06
-5e-06
)
;
    }
    outlet
    {
        type            calculated;
        value           nonuniform List<scalar> 
20
(
5.00322e-06
5.00242e-06
5.00232e-06
5.0018e-06
5.00161e-06
5.00124e-06
5.00097e-06
5.00068e-06
5.00041e-06
5.00014e-06
4.99986e-06
4.99959e-06
4.99932e-06
4.99903e-06
4.99876e-06
4.99839e-06
4.9982e-06
4.99768e-06
4.99759e-06
4.99677e-06
)
;
    }
    frontAndBack
    {
        type            empty;
        value           nonuniform 0();
    }
}


// ************************************************************************* //
