/*--------------------------------*- C++ -*----------------------------------*\
  =========                 |
  \\      /  F ield         | OpenFOAM: The Open Source CFD Toolbox
   \\    /   O peration     | Website:  https://openfoam.org
    \\  /    A nd           | Version:  7
     \\/     M anipulation  |
\*---------------------------------------------------------------------------*/
FoamFile
{
    version     2.0;
    format      ascii;
    class       volVectorField;
    location    "7";
    object      U;
}
// * * * * * * * * * * * * * * * * * * * * * * * * * * * * * * * * * * * * * //

dimensions      [0 1 -1 0 0 0 0];

internalField   nonuniform List<vector> 
400
(
(0.0999967 -1.29446e-06 0)
(0.0999952 -3.57713e-06 0)
(0.0999966 -5.29331e-06 0)
(0.0999985 -6.4582e-06 0)
(0.0999987 -7.28255e-06 0)
(0.0999983 -7.82313e-06 0)
(0.0999982 -8.02217e-06 0)
(0.0999982 -8.29522e-06 0)
(0.0999974 -8.8246e-06 0)
(0.0999965 -9.9425e-06 0)
(0.099996 -1.17756e-05 0)
(0.0999972 -1.43566e-05 0)
(0.099999 -1.64146e-05 0)
(0.100004 -1.82983e-05 0)
(0.100007 -1.89384e-05 0)
(0.100015 -2.03478e-05 0)
(0.100019 -1.99687e-05 0)
(0.100033 -2.26547e-05 0)
(0.100036 -2.16927e-05 0)
(0.100059 -2.89699e-05 0)
(0.0999977 -6.34258e-08 0)
(0.0999966 -3.3875e-07 0)
(0.0999986 -4.34003e-07 0)
(0.100001 4.44949e-08 0)
(0.100002 1.14825e-06 0)
(0.100002 2.49861e-06 0)
(0.100002 3.68985e-06 0)
(0.100001 4.73361e-06 0)
(0.1 5.82312e-06 0)
(0.099999 6.45569e-06 0)
(0.0999982 6.65596e-06 0)
(0.099999 6.14409e-06 0)
(0.100001 5.66083e-06 0)
(0.100005 4.49639e-06 0)
(0.100008 4.36909e-06 0)
(0.100015 2.79245e-06 0)
(0.100019 3.2847e-06 0)
(0.100029 -3.85776e-07 0)
(0.100033 4.66851e-07 0)
(0.100047 -9.24069e-06 0)
(0.0999981 -1.37017e-06 0)
(0.0999967 -4.29073e-06 0)
(0.0999977 -6.77569e-06 0)
(0.0999991 -8.31806e-06 0)
(0.099999 -8.70569e-06 0)
(0.0999983 -8.33599e-06 0)
(0.0999982 -7.83742e-06 0)
(0.0999983 -7.35546e-06 0)
(0.0999977 -7.56467e-06 0)
(0.0999971 -8.92536e-06 0)
(0.0999972 -1.14167e-05 0)
(0.0999985 -1.47684e-05 0)
(0.1 -1.77437e-05 0)
(0.100004 -2.07452e-05 0)
(0.100008 -2.22075e-05 0)
(0.100014 -2.45992e-05 0)
(0.100018 -2.50171e-05 0)
(0.100027 -2.90634e-05 0)
(0.100031 -2.92012e-05 0)
(0.100044 -3.79657e-05 0)
(0.0999986 -1.77017e-06 0)
(0.0999975 -4.91832e-06 0)
(0.0999992 -6.87872e-06 0)
(0.100001 -7.28769e-06 0)
(0.100002 -6.14758e-06 0)
(0.100002 -4.0912e-06 0)
(0.100002 -1.6441e-06 0)
(0.100001 4.51105e-07 0)
(0.0999999 1.73477e-06 0)
(0.0999988 1.4599e-06 0)
(0.0999982 -3.67114e-07 0)
(0.0999991 -3.66372e-06 0)
(0.100001 -6.69514e-06 0)
(0.100004 -9.88447e-06 0)
(0.100008 -1.13937e-05 0)
(0.100013 -1.41891e-05 0)
(0.100017 -1.47359e-05 0)
(0.100023 -1.96155e-05 0)
(0.100027 -1.98832e-05 0)
(0.100036 -3.01345e-05 0)
(0.099999 -2.32308e-06 0)
(0.099998 -6.59645e-06 0)
(0.0999991 -9.64439e-06 0)
(0.1 -1.0972e-05 0)
(0.1 -1.06816e-05 0)
(0.0999994 -9.37324e-06 0)
(0.099999 -7.6459e-06 0)
(0.0999988 -6.13614e-06 0)
(0.0999984 -5.59103e-06 0)
(0.0999979 -6.8868e-06 0)
(0.0999982 -9.90437e-06 0)
(0.0999995 -1.41879e-05 0)
(0.100001 -1.81367e-05 0)
(0.100004 -2.20028e-05 0)
(0.100007 -2.41049e-05 0)
(0.100012 -2.71218e-05 0)
(0.100015 -2.81593e-05 0)
(0.100021 -3.28183e-05 0)
(0.100023 -3.3622e-05 0)
(0.100031 -4.26829e-05 0)
(0.0999993 -2.91302e-06 0)
(0.0999984 -8.07716e-06 0)
(0.0999995 -1.14138e-05 0)
(0.100001 -1.24807e-05 0)
(0.100001 -1.14774e-05 0)
(0.1 -8.96002e-06 0)
(0.1 -5.68754e-06 0)
(0.0999999 -2.5559e-06 0)
(0.0999991 -9.78398e-07 0)
(0.0999985 -1.89886e-06 0)
(0.0999985 -5.16148e-06 0)
(0.0999995 -1.00591e-05 0)
(0.100001 -1.45629e-05 0)
(0.100004 -1.8871e-05 0)
(0.100006 -2.13428e-05 0)
(0.10001 -2.47981e-05 0)
(0.100012 -2.62314e-05 0)
(0.100017 -3.14358e-05 0)
(0.100019 -3.24913e-05 0)
(0.100025 -4.21912e-05 0)
(0.0999995 -3.37314e-06 0)
(0.0999989 -9.24786e-06 0)
(0.0999998 -1.29532e-05 0)
(0.100001 -1.41638e-05 0)
(0.1 -1.32526e-05 0)
(0.1 -1.08967e-05 0)
(0.0999997 -7.6786e-06 0)
(0.0999993 -4.66322e-06 0)
(0.0999988 -3.1356e-06 0)
(0.0999984 -4.41911e-06 0)
(0.0999987 -8.09727e-06 0)
(0.0999998 -1.33767e-05 0)
(0.100001 -1.82883e-05 0)
(0.100003 -2.29452e-05 0)
(0.100005 -2.5722e-05 0)
(0.100008 -2.93483e-05 0)
(0.10001 -3.09853e-05 0)
(0.100013 -3.6087e-05 0)
(0.100015 -3.72683e-05 0)
(0.100019 -4.64726e-05 0)
(0.0999997 -3.72607e-06 0)
(0.0999992 -1.02211e-05 0)
(0.0999999 -1.42231e-05 0)
(0.100001 -1.54931e-05 0)
(0.1 -1.4545e-05 0)
(0.1 -1.18251e-05 0)
(0.0999998 -7.90151e-06 0)
(0.0999994 -4.00612e-06 0)
(0.099999 -1.98861e-06 0)
(0.0999988 -3.07753e-06 0)
(0.0999991 -6.98956e-06 0)
(0.0999999 -1.26871e-05 0)
(0.100001 -1.80353e-05 0)
(0.100003 -2.30934e-05 0)
(0.100004 -2.62408e-05 0)
(0.100006 -3.01766e-05 0)
(0.100007 -3.21053e-05 0)
(0.100009 -3.73622e-05 0)
(0.10001 -3.8699e-05 0)
(0.100013 -4.79063e-05 0)
(0.0999998 -3.95785e-06 0)
(0.0999996 -1.09053e-05 0)
(0.1 -1.50922e-05 0)
(0.1 -1.63833e-05 0)
(0.1 -1.53971e-05 0)
(0.1 -1.2531e-05 0)
(0.0999998 -8.32397e-06 0)
(0.0999996 -4.14018e-06 0)
(0.0999993 -1.90279e-06 0)
(0.0999992 -3.029e-06 0)
(0.0999994 -7.14929e-06 0)
(0.0999999 -1.31143e-05 0)
(0.100001 -1.87312e-05 0)
(0.100002 -2.40301e-05 0)
(0.100003 -2.73978e-05 0)
(0.100004 -3.14909e-05 0)
(0.100004 -3.35496e-05 0)
(0.100006 -3.88055e-05 0)
(0.100006 -4.01767e-05 0)
(0.100008 -4.92771e-05 0)
(0.0999999 -4.07201e-06 0)
(0.0999999 -1.12389e-05 0)
(0.1 -1.55354e-05 0)
(0.1 -1.68344e-05 0)
(0.1 -1.5829e-05 0)
(0.1 -1.29238e-05 0)
(0.0999999 -8.55928e-06 0)
(0.0999998 -4.19723e-06 0)
(0.0999997 -1.81404e-06 0)
(0.0999997 -2.87995e-06 0)
(0.0999998 -7.03171e-06 0)
(0.1 -1.31071e-05 0)
(0.1 -1.88777e-05 0)
(0.100001 -2.43326e-05 0)
(0.100001 -2.78425e-05 0)
(0.100001 -3.20333e-05 0)
(0.100001 -3.41622e-05 0)
(0.100002 -3.94171e-05 0)
(0.100002 -4.08045e-05 0)
(0.100003 -4.98637e-05 0)
(0.1 -4.07225e-06 0)
(0.1 -1.12397e-05 0)
(0.1 -1.55362e-05 0)
(0.0999999 -1.68351e-05 0)
(0.0999999 -1.58293e-05 0)
(0.1 -1.29239e-05 0)
(0.1 -8.5594e-06 0)
(0.1 -4.19731e-06 0)
(0.1 -1.81414e-06 0)
(0.1 -2.88e-06 0)
(0.1 -7.03159e-06 0)
(0.1 -1.31069e-05 0)
(0.0999997 -1.88775e-05 0)
(0.0999994 -2.43325e-05 0)
(0.0999991 -2.78423e-05 0)
(0.0999988 -3.20329e-05 0)
(0.0999985 -3.41618e-05 0)
(0.0999981 -3.94165e-05 0)
(0.0999979 -4.08039e-05 0)
(0.0999973 -4.98626e-05 0)
(0.1 -3.95847e-06 0)
(0.1 -1.09075e-05 0)
(0.1 -1.50947e-05 0)
(0.0999997 -1.63851e-05 0)
(0.0999998 -1.5398e-05 0)
(0.1 -1.25315e-05 0)
(0.1 -8.32441e-06 0)
(0.1 -4.14045e-06 0)
(0.100001 -1.9031e-06 0)
(0.100001 -3.02919e-06 0)
(0.100001 -7.14921e-06 0)
(0.1 -1.31138e-05 0)
(0.0999993 -1.87307e-05 0)
(0.0999983 -2.40292e-05 0)
(0.0999975 -2.73968e-05 0)
(0.0999964 -3.14894e-05 0)
(0.0999956 -3.3548e-05 0)
(0.0999943 -3.88031e-05 0)
(0.0999937 -4.01744e-05 0)
(0.0999919 -4.92734e-05 0)
(0.1 -3.72701e-06 0)
(0.100001 -1.02246e-05 0)
(0.1 -1.42273e-05 0)
(0.0999995 -1.5496e-05 0)
(0.0999996 -1.45466e-05 0)
(0.1 -1.1826e-05 0)
(0.1 -7.90229e-06 0)
(0.100001 -4.00743e-06 0)
(0.100001 -1.9894e-06 0)
(0.100001 -3.07766e-06 0)
(0.100001 -6.98945e-06 0)
(0.1 -1.26869e-05 0)
(0.0999989 -1.80352e-05 0)
(0.0999974 -2.3093e-05 0)
(0.0999959 -2.62404e-05 0)
(0.0999941 -3.01756e-05 0)
(0.0999927 -3.21042e-05 0)
(0.0999905 -3.73598e-05 0)
(0.0999895 -3.86968e-05 0)
(0.0999865 -4.79017e-05 0)
(0.1 -3.37442e-06 0)
(0.100001 -9.25235e-06 0)
(0.1 -1.29586e-05 0)
(0.0999993 -1.41678e-05 0)
(0.0999995 -1.32545e-05 0)
(0.1 -1.08973e-05 0)
(0.1 -7.67897e-06 0)
(0.100001 -4.6639e-06 0)
(0.100001 -3.13628e-06 0)
(0.100002 -4.41916e-06 0)
(0.100001 -8.09677e-06 0)
(0.1 -1.33755e-05 0)
(0.0999987 -1.82868e-05 0)
(0.0999966 -2.29428e-05 0)
(0.0999946 -2.57193e-05 0)
(0.099992 -2.93444e-05 0)
(0.09999 -3.09812e-05 0)
(0.0999867 -3.60807e-05 0)
(0.0999853 -3.72621e-05 0)
(0.0999809 -4.6463e-05 0)
(0.100001 -2.91455e-06 0)
(0.100002 -8.08226e-06 0)
(0.1 -1.14199e-05 0)
(0.0999993 -1.24856e-05 0)
(0.0999993 -1.14803e-05 0)
(0.0999995 -8.96161e-06 0)
(0.0999996 -5.68877e-06 0)
(0.1 -2.5565e-06 0)
(0.100001 -9.78865e-07 0)
(0.100001 -1.89885e-06 0)
(0.100001 -5.16127e-06 0)
(0.1 -1.00589e-05 0)
(0.0999987 -1.45634e-05 0)
(0.0999962 -1.88715e-05 0)
(0.0999937 -2.13438e-05 0)
(0.0999903 -2.47983e-05 0)
(0.0999876 -2.62318e-05 0)
(0.0999833 -3.14341e-05 0)
(0.0999812 -3.24903e-05 0)
(0.0999755 -4.21867e-05 0)
(0.100001 -2.32472e-06 0)
(0.100002 -6.60152e-06 0)
(0.100001 -9.65049e-06 0)
(0.0999996 -1.09767e-05 0)
(0.0999999 -1.06842e-05 0)
(0.100001 -9.37468e-06 0)
(0.100001 -7.64729e-06 0)
(0.100001 -6.13786e-06 0)
(0.100002 -5.59266e-06 0)
(0.100002 -6.8878e-06 0)
(0.100002 -9.90449e-06 0)
(0.100001 -1.41867e-05 0)
(0.0999987 -1.81351e-05 0)
(0.0999957 -2.19999e-05 0)
(0.0999927 -2.41021e-05 0)
(0.0999884 -2.71169e-05 0)
(0.099985 -2.81546e-05 0)
(0.0999793 -3.28097e-05 0)
(0.0999769 -3.36141e-05 0)
(0.0999688 -4.26678e-05 0)
(0.100001 -1.77178e-06 0)
(0.100002 -4.9235e-06 0)
(0.100001 -6.88532e-06 0)
(0.0999988 -7.29337e-06 0)
(0.0999982 -6.1514e-06 0)
(0.0999983 -4.09367e-06 0)
(0.0999984 -1.64659e-06 0)
(0.0999989 4.48965e-07 0)
(0.1 1.73357e-06 0)
(0.100001 1.45971e-06 0)
(0.100002 -3.66931e-07 0)
(0.100001 -3.6633e-06 0)
(0.0999989 -6.69548e-06 0)
(0.0999957 -9.88457e-06 0)
(0.0999923 -1.13945e-05 0)
(0.0999874 -1.41888e-05 0)
(0.0999835 -1.47361e-05 0)
(0.0999768 -1.96137e-05 0)
(0.0999734 -1.98822e-05 0)
(0.0999643 -3.01306e-05 0)
(0.100002 -1.37121e-06 0)
(0.100003 -4.29431e-06 0)
(0.100002 -6.78033e-06 0)
(0.100001 -8.32219e-06 0)
(0.100001 -8.70851e-06 0)
(0.100002 -8.33794e-06 0)
(0.100002 -7.83927e-06 0)
(0.100002 -7.35756e-06 0)
(0.100002 -7.56705e-06 0)
(0.100003 -8.92707e-06 0)
(0.100003 -1.1418e-05 0)
(0.100001 -1.47686e-05 0)
(0.0999995 -1.77442e-05 0)
(0.0999958 -2.07444e-05 0)
(0.099992 -2.22077e-05 0)
(0.0999859 -2.45966e-05 0)
(0.0999815 -2.50163e-05 0)
(0.0999726 -2.90571e-05 0)
(0.0999692 -2.91973e-05 0)
(0.0999556 -3.79524e-05 0)
(0.100002 -6.43131e-08 0)
(0.100003 -3.41481e-07 0)
(0.100001 -4.3737e-07 0)
(0.0999987 4.17697e-08 0)
(0.0999979 1.14659e-06 0)
(0.099998 2.49762e-06 0)
(0.0999983 3.68957e-06 0)
(0.0999989 4.73355e-06 0)
(0.0999999 5.82315e-06 0)
(0.100001 6.45599e-06 0)
(0.100002 6.65638e-06 0)
(0.100001 6.14526e-06 0)
(0.0999991 5.66207e-06 0)
(0.0999954 4.49858e-06 0)
(0.0999917 4.37047e-06 0)
(0.0999854 2.795e-06 0)
(0.0999807 3.28562e-06 0)
(0.0999713 -3.8276e-07 0)
(0.099967 4.67876e-07 0)
(0.099953 -9.23631e-06 0)
(0.100003 -1.29506e-06 0)
(0.100005 -3.57942e-06 0)
(0.100003 -5.29671e-06 0)
(0.100001 -6.46188e-06 0)
(0.100001 -7.28617e-06 0)
(0.100002 -7.82695e-06 0)
(0.100002 -8.02622e-06 0)
(0.100002 -8.29891e-06 0)
(0.100003 -8.82821e-06 0)
(0.100003 -9.94643e-06 0)
(0.100004 -1.17801e-05 0)
(0.100003 -1.43614e-05 0)
(0.100001 -1.64206e-05 0)
(0.0999964 -1.83036e-05 0)
(0.0999927 -1.89437e-05 0)
(0.0999845 -2.03505e-05 0)
(0.0999805 -1.99711e-05 0)
(0.0999673 -2.26544e-05 0)
(0.0999644 -2.16927e-05 0)
(0.099941 -2.89692e-05 0)
)
;

boundaryField
{
    sides
    {
        type            calculated;
        value           nonuniform List<vector> 
40
(
(0.100003 0 0)
(0.100005 0 0)
(0.100003 0 0)
(0.100001 0 0)
(0.100001 0 0)
(0.100002 0 0)
(0.100002 0 0)
(0.100002 0 0)
(0.100003 0 0)
(0.100003 0 0)
(0.100004 0 0)
(0.100003 0 0)
(0.100001 0 0)
(0.0999964 0 0)
(0.0999927 0 0)
(0.0999845 0 0)
(0.0999805 0 0)
(0.0999673 0 0)
(0.0999644 0 0)
(0.099941 0 0)
(0.0999967 0 0)
(0.0999952 0 0)
(0.0999966 0 0)
(0.0999985 0 0)
(0.0999987 0 0)
(0.0999983 0 0)
(0.0999982 0 0)
(0.0999982 0 0)
(0.0999974 0 0)
(0.0999965 0 0)
(0.099996 0 0)
(0.0999972 0 0)
(0.099999 0 0)
(0.100004 0 0)
(0.100007 0 0)
(0.100015 0 0)
(0.100019 0 0)
(0.100033 0 0)
(0.100036 0 0)
(0.100059 0 0)
)
;
    }
    inlet
    {
        type            calculated;
        value           nonuniform List<vector> 
20
(
(0.0999972 0 0)
(0.0999981 0 0)
(0.0999986 0 0)
(0.0999991 0 0)
(0.0999994 0 0)
(0.0999997 0 0)
(0.0999999 0 0)
(0.1 0 0)
(0.1 0 0)
(0.1 0 0)
(0.1 0 0)
(0.1 0 0)
(0.1 0 0)
(0.1 0 0)
(0.1 0 0)
(0.100001 0 0)
(0.100001 0 0)
(0.100001 0 0)
(0.100002 0 0)
(0.100003 0 0)
)
;
    }
    outlet
    {
        type            calculated;
        value           nonuniform List<vector> 
20
(
(0.10006 -2.89702e-05 0)
(0.100048 -9.24074e-06 0)
(0.100045 -3.79659e-05 0)
(0.100036 -3.01346e-05 0)
(0.100031 -4.2683e-05 0)
(0.100025 -4.21913e-05 0)
(0.100019 -4.64727e-05 0)
(0.100014 -4.79063e-05 0)
(0.100008 -4.92771e-05 0)
(0.100003 -4.98637e-05 0)
(0.0999973 -4.98626e-05 0)
(0.0999919 -4.92734e-05 0)
(0.0999864 -4.79017e-05 0)
(0.0999807 -4.64629e-05 0)
(0.0999753 -4.21866e-05 0)
(0.0999685 -4.26677e-05 0)
(0.099964 -3.01305e-05 0)
(0.0999551 -3.79522e-05 0)
(0.0999524 -9.23626e-06 0)
(0.09994 -2.89689e-05 0)
)
;
    }
    frontAndBack
    {
        type            empty;
    }
}


// ************************************************************************* //
