/*--------------------------------*- C++ -*----------------------------------*\
  =========                 |
  \\      /  F ield         | OpenFOAM: The Open Source CFD Toolbox
   \\    /   O peration     | Website:  https://openfoam.org
    \\  /    A nd           | Version:  7
     \\/     M anipulation  |
\*---------------------------------------------------------------------------*/
FoamFile
{
    version     2.0;
    format      ascii;
    class       volScalarField;
    location    "21";
    object      ddt0(h);
}
// * * * * * * * * * * * * * * * * * * * * * * * * * * * * * * * * * * * * * //

dimensions      [0 1 -1 0 0 0 0];

internalField   nonuniform List<scalar> 
400
(
5.70895e-08
5.33188e-08
5.06882e-08
3.57142e-08
3.59664e-08
3.50098e-08
2.80912e-08
2.8031e-08
2.29614e-08
1.94468e-08
1.57812e-08
1.33748e-08
1.03385e-08
5.88902e-09
1.28435e-09
-1.70075e-09
-3.24257e-09
-4.3707e-09
-5.20666e-09
-2.37361e-09
5.1053e-08
4.27799e-08
3.2413e-08
3.51086e-08
2.83197e-08
1.65975e-08
1.41823e-08
8.04402e-09
1.0487e-08
1.01691e-08
8.27848e-09
7.4049e-09
6.24621e-09
3.30928e-09
-4.25487e-10
-2.93529e-09
-4.19609e-09
-4.58108e-09
-4.66737e-09
-1.92861e-09
3.97553e-08
3.36969e-08
2.91633e-08
2.87586e-08
2.2657e-08
1.69227e-08
1.22252e-08
1.35444e-08
1.57416e-08
1.56098e-08
1.43518e-08
1.27115e-08
1.03349e-08
6.29577e-09
1.26642e-09
-2.85493e-09
-5.05606e-09
-4.76296e-09
-3.30376e-09
-9.30993e-10
4.04249e-08
2.42744e-08
8.71789e-09
6.30653e-09
1.62692e-09
-1.7914e-09
-3.76301e-09
-1.37845e-09
1.94601e-09
3.60951e-09
4.60856e-09
4.85396e-09
4.27279e-09
2.46622e-09
-5.43306e-10
-3.56284e-09
-5.11734e-09
-4.0529e-09
-2.47959e-09
-6.51697e-10
2.86935e-08
1.28474e-08
6.32383e-10
-7.43624e-09
-1.10797e-08
-1.43165e-08
-1.1161e-08
-5.17098e-09
-1.97557e-09
8.08394e-10
3.42369e-09
3.82694e-09
2.8222e-09
1.41272e-09
-5.66774e-10
-2.62572e-09
-3.84134e-09
-3.32646e-09
-2.30147e-09
-6.37265e-10
1.8297e-08
-2.6612e-09
-1.57701e-08
-2.3647e-08
-2.52352e-08
-2.33393e-08
-2.00301e-08
-1.22661e-08
-6.32593e-09
-2.29011e-09
3.07315e-10
4.72382e-10
-5.68189e-10
-1.08526e-09
-7.87492e-10
-2.91665e-10
-3.93261e-10
-6.91401e-10
-1.57251e-09
-9.17145e-10
1.15667e-08
-1.03599e-09
-1.75437e-08
-2.38898e-08
-2.48062e-08
-2.69843e-08
-1.799e-08
-1.05092e-08
-8.46021e-09
-5.35323e-09
-6.63554e-10
2.00836e-09
1.43489e-09
-4.28488e-11
-2.24922e-10
5.34018e-10
5.4169e-10
3.05623e-11
-5.67539e-10
-2.31877e-10
9.69276e-09
-4.91651e-09
-1.4438e-08
-1.65991e-08
-1.96935e-08
-1.46844e-08
-1.12884e-08
-8.98087e-09
-3.18799e-10
2.94413e-09
1.68085e-09
1.84261e-09
3.18537e-09
3.49046e-09
2.93927e-09
1.84634e-09
-4.31732e-11
-6.39056e-10
1.4299e-10
4.34333e-10
4.53612e-09
-1.54278e-09
-8.504e-09
-1.00132e-08
-9.12178e-09
-7.49303e-09
-6.67945e-09
-8.427e-10
1.99809e-09
1.05984e-10
9.08686e-10
4.18226e-09
6.14086e-09
6.14763e-09
4.86156e-09
2.19995e-09
-8.69357e-10
-1.4848e-09
-1.34643e-10
3.72599e-10
-2.17511e-09
2.1275e-09
1.219e-09
-7.97248e-11
3.883e-10
-3.53512e-09
-1.48918e-09
-3.38989e-10
-3.10318e-09
-4.27533e-10
4.95071e-09
6.68775e-09
4.83188e-09
2.50068e-09
1.20475e-09
2.40216e-10
-9.078e-10
-1.00389e-09
2.69309e-11
3.95303e-10
2.12271e-09
-2.18644e-09
-1.27138e-09
4.66141e-11
-3.96214e-10
3.5564e-09
1.53357e-09
3.95044e-10
3.16492e-09
4.7811e-10
-4.9136e-09
-6.66146e-09
-4.82062e-09
-2.49985e-09
-1.20729e-09
-2.44024e-10
9.08573e-10
1.01345e-09
-6.18902e-12
-3.81532e-10
-4.57587e-09
1.48255e-09
8.45825e-09
9.97322e-09
9.12385e-09
7.51178e-09
6.7333e-09
9.06558e-10
-1.93752e-09
-4.15522e-11
-8.61166e-10
-4.15559e-09
-6.12779e-09
-6.14513e-09
-4.86663e-09
-2.20717e-09
8.67845e-10
1.49218e-09
1.53561e-10
-3.58684e-10
-9.73682e-09
4.86887e-09
1.44042e-08
1.65853e-08
1.96966e-08
1.47215e-08
1.13441e-08
9.04992e-09
3.91197e-10
-2.88959e-09
-1.63927e-09
-1.80677e-09
-3.16609e-09
-3.49231e-09
-2.9504e-09
-1.85476e-09
4.31696e-11
6.46791e-10
-1.26928e-10
-4.2397e-10
-1.16147e-08
1.01405e-09
1.75179e-08
2.38773e-08
2.4817e-08
2.70255e-08
1.80467e-08
1.05826e-08
8.52932e-09
5.41325e-09
7.0962e-10
-1.98262e-09
-1.42563e-09
4.17207e-11
2.16677e-10
-5.45505e-10
-5.49452e-10
-3.18151e-11
5.76218e-10
2.40306e-10
-1.83369e-08
2.6523e-09
1.57649e-08
2.36551e-08
2.52477e-08
2.33795e-08
2.00846e-08
1.2324e-08
6.3872e-09
2.34379e-09
-2.65331e-10
-4.44342e-10
5.81688e-10
1.08509e-09
7.7536e-10
2.73927e-10
3.79507e-10
6.83998e-10
1.57315e-09
9.20239e-10
-2.87576e-08
-1.28789e-08
-6.40799e-10
7.44815e-09
1.11111e-08
1.43497e-08
1.12065e-08
5.2213e-09
2.0276e-09
-7.56895e-10
-3.37986e-09
-3.79819e-09
-2.8107e-09
-1.4141e-09
5.5552e-10
2.60797e-09
3.82431e-09
3.31172e-09
2.29034e-09
6.33241e-10
-4.04035e-08
-2.42669e-08
-8.69348e-09
-6.26995e-09
-1.57128e-09
1.83727e-09
3.80818e-09
1.41722e-09
-1.90422e-09
-3.56394e-09
-4.56849e-09
-4.82465e-09
-4.25596e-09
-2.46079e-09
5.37019e-10
3.54647e-09
5.09619e-09
4.03134e-09
2.4636e-09
6.47014e-10
-3.97899e-08
-3.36766e-08
-2.91459e-08
-2.87294e-08
-2.25864e-08
-1.68592e-08
-1.2178e-08
-1.35099e-08
-1.5704e-08
-1.55678e-08
-1.43109e-08
-1.26752e-08
-1.0307e-08
-6.27786e-09
-1.26089e-09
2.84812e-09
5.04006e-09
4.74231e-09
3.28765e-09
9.24923e-10
-5.10238e-08
-4.27471e-08
-3.23568e-08
-3.50011e-08
-2.82441e-08
-1.65214e-08
-1.41124e-08
-7.94699e-09
-1.04067e-08
-1.01339e-08
-8.23737e-09
-7.3678e-09
-6.21477e-09
-3.28598e-09
4.35498e-10
2.92939e-09
4.17768e-09
4.5604e-09
4.6527e-09
1.92562e-09
-5.70887e-08
-5.33151e-08
-5.06497e-08
-3.5712e-08
-3.59746e-08
-3.49873e-08
-2.80582e-08
-2.80247e-08
-2.29549e-08
-1.94025e-08
-1.57426e-08
-1.3337e-08
-1.02991e-08
-5.85236e-09
-1.26019e-09
1.70833e-09
3.23562e-09
4.35723e-09
5.19541e-09
2.36915e-09
)
;

boundaryField
{
    sides
    {
        type            calculated;
        value           nonuniform List<scalar> 
40
(
-5.70887e-08
-5.33151e-08
-5.06497e-08
-3.5712e-08
-3.59746e-08
-3.49873e-08
-2.80582e-08
-2.80247e-08
-2.29549e-08
-1.94025e-08
-1.57426e-08
-1.3337e-08
-1.02991e-08
-5.85236e-09
-1.26019e-09
1.70833e-09
3.23562e-09
4.35723e-09
5.19541e-09
2.36915e-09
5.70895e-08
5.33188e-08
5.06882e-08
3.57142e-08
3.59664e-08
3.50098e-08
2.80912e-08
2.8031e-08
2.29614e-08
1.94468e-08
1.57812e-08
1.33748e-08
1.03385e-08
5.88902e-09
1.28435e-09
-1.70075e-09
-3.24257e-09
-4.3707e-09
-5.20666e-09
-2.37361e-09
)
;
    }
    inlet
    {
        type            calculated;
        value           nonuniform List<scalar> 
20
(
5.70895e-08
5.1053e-08
3.97553e-08
4.04249e-08
2.86935e-08
1.8297e-08
1.15667e-08
9.69276e-09
4.53612e-09
-2.17511e-09
2.12271e-09
-4.57587e-09
-9.73682e-09
-1.16147e-08
-1.83369e-08
-2.87576e-08
-4.04035e-08
-3.97899e-08
-5.10238e-08
-5.70887e-08
)
;
    }
    outlet
    {
        type            calculated;
        value           uniform 0;
    }
    frontAndBack
    {
        type            empty;
    }
}


// ************************************************************************* //
