/*--------------------------------*- C++ -*----------------------------------*\
  =========                 |
  \\      /  F ield         | OpenFOAM: The Open Source CFD Toolbox
   \\    /   O peration     | Website:  https://openfoam.org
    \\  /    A nd           | Version:  7
     \\/     M anipulation  |
\*---------------------------------------------------------------------------*/
FoamFile
{
    version     2.0;
    format      ascii;
    class       volVectorField;
    location    "21";
    object      ddtCorrDdt0(hU);
}
// * * * * * * * * * * * * * * * * * * * * * * * * * * * * * * * * * * * * * //

dimensions      [0 2 -2 0 0 0 0];

internalField   nonuniform List<vector> 
400
(
(-2.64016e-09 -1.07226e-09 0)
(4.83556e-09 5.35717e-10 0)
(1.02325e-08 6.05282e-09 0)
(2.05054e-09 1.04001e-08 0)
(-2.18567e-09 9.16694e-09 0)
(-1.17562e-09 5.64332e-09 0)
(-1.44727e-09 2.05873e-09 0)
(-1.40433e-09 -1.05641e-09 0)
(1.56881e-09 -3.08029e-09 0)
(7.46695e-09 -3.95497e-09 0)
(1.33995e-08 -2.8244e-09 0)
(1.72856e-08 -5.78924e-10 0)
(2.01355e-08 1.97284e-09 0)
(2.03857e-08 4.82019e-09 0)
(1.93732e-08 6.66867e-09 0)
(1.55937e-08 8.91223e-09 0)
(7.20921e-09 8.1115e-09 0)
(3.52472e-09 6.99997e-09 0)
(-8.43622e-09 1.48668e-09 0)
(-1.74964e-10 -5.59192e-09 0)
(-2.53597e-09 -1.3065e-09 0)
(4.87063e-09 -2.86849e-09 0)
(1.14992e-08 6.64095e-10 0)
(5.5181e-09 7.4399e-09 0)
(-2.38472e-09 1.21104e-08 0)
(-4.7416e-09 1.32326e-08 0)
(-6.02323e-09 1.14048e-08 0)
(-6.82008e-09 7.82459e-09 0)
(-2.12523e-09 4.9909e-09 0)
(5.95727e-09 3.34517e-09 0)
(1.36506e-08 3.29561e-09 0)
(1.80928e-08 3.93926e-09 0)
(2.12297e-08 4.7741e-09 0)
(2.13754e-08 6.41642e-09 0)
(1.98716e-08 7.51224e-09 0)
(1.50544e-08 1.11351e-08 0)
(5.29126e-09 1.11282e-08 0)
(1.3573e-09 1.19223e-08 0)
(-1.13869e-08 7.92038e-09 0)
(-3.51996e-09 -5.53383e-09 0)
(-2.22576e-09 -1.33935e-09 0)
(5.52554e-09 -1.28778e-10 0)
(9.73974e-09 9.98075e-09 0)
(5.88718e-09 1.81655e-08 0)
(1.28741e-09 2.10278e-08 0)
(8.08379e-10 1.8297e-08 0)
(3.99286e-10 1.20914e-08 0)
(5.25218e-10 4.27062e-09 0)
(2.99327e-09 -1.77159e-09 0)
(6.87629e-09 -4.48285e-09 0)
(1.11293e-08 -2.98466e-09 0)
(1.38322e-08 6.13259e-10 0)
(1.59967e-08 5.09783e-09 0)
(1.63306e-08 1.09872e-08 0)
(1.57395e-08 1.49345e-08 0)
(1.32296e-08 2.27444e-08 0)
(6.64825e-09 2.1995e-08 0)
(4.40246e-09 2.17225e-08 0)
(-5.18203e-09 1.12893e-08 0)
(1.3668e-09 -1.30982e-08 0)
(-1.53316e-09 -3.36598e-09 0)
(7.40514e-09 -9.52521e-10 0)
(1.09981e-08 1.46578e-08 0)
(4.8365e-09 2.70557e-08 0)
(-1.61012e-09 3.00775e-08 0)
(-4.49796e-09 2.56041e-08 0)
(-6.84596e-09 1.66982e-08 0)
(-7.27411e-09 6.43968e-09 0)
(-3.01217e-09 -1.48538e-09 0)
(4.60456e-09 -5.18826e-09 0)
(1.22394e-08 -3.37272e-09 0)
(1.6629e-08 1.10747e-09 0)
(1.95692e-08 6.64177e-09 0)
(1.96634e-08 1.40759e-08 0)
(1.79772e-08 1.92306e-08 0)
(1.2825e-08 2.99978e-08 0)
(3.07738e-09 2.98463e-08 0)
(-1.52383e-09 2.98378e-08 0)
(-1.30149e-08 1.5977e-08 0)
(-4.00166e-09 -1.70582e-08 0)
(-1.77045e-09 -1.0518e-09 0)
(6.21317e-09 2.63957e-09 0)
(9.28301e-09 1.46505e-08 0)
(6.24749e-09 2.72734e-08 0)
(3.53691e-09 3.29896e-08 0)
(2.30782e-09 3.02136e-08 0)
(1.26251e-09 2.03554e-08 0)
(5.15813e-10 7.83907e-09 0)
(1.27009e-09 -2.00943e-09 0)
(3.90146e-09 -6.68043e-09 0)
(7.1548e-09 -4.74755e-09 0)
(8.81323e-09 4.41573e-10 0)
(1.02421e-08 7.055e-09 0)
(1.09471e-08 1.60466e-08 0)
(1.14217e-08 2.23748e-08 0)
(1.06339e-08 3.57899e-08 0)
(5.9711e-09 3.59882e-08 0)
(4.30889e-09 3.63051e-08 0)
(-3.63062e-09 2.00822e-08 0)
(1.46225e-10 -2.01871e-08 0)
(-7.50405e-10 3.27053e-09 0)
(7.39539e-09 1.38901e-08 0)
(8.02244e-09 2.93203e-08 0)
(3.5326e-09 4.1084e-08 0)
(-2.30346e-10 4.37529e-08 0)
(-2.10411e-09 3.58794e-08 0)
(-3.71e-09 2.07711e-08 0)
(-3.96241e-09 3.85424e-09 0)
(-1.50974e-09 -8.70605e-09 0)
(3.88128e-09 -1.4147e-08 0)
(9.6362e-09 -1.10468e-08 0)
(1.25979e-08 -3.52599e-09 0)
(1.43238e-08 6.0798e-09 0)
(1.41774e-08 1.84267e-08 0)
(1.31042e-08 2.68856e-08 0)
(9.4838e-09 4.32373e-08 0)
(1.95986e-09 4.29639e-08 0)
(-2.0956e-09 4.27907e-08 0)
(-1.10824e-08 2.24365e-08 0)
(-3.94472e-09 -2.5525e-08 0)
(-9.62185e-10 4.87301e-09 0)
(6.48466e-09 1.74906e-08 0)
(6.14468e-09 3.16206e-08 0)
(3.62867e-09 4.38706e-08 0)
(2.35466e-09 4.88525e-08 0)
(8.77974e-10 4.20615e-08 0)
(4.551e-10 2.64938e-08 0)
(-1.73979e-10 7.60514e-09 0)
(-5.59888e-11 -6.07191e-09 0)
(2.08999e-09 -1.19583e-08 0)
(4.89119e-09 -9.64968e-09 0)
(6.37434e-09 -3.08866e-09 0)
(7.33142e-09 5.82869e-09 0)
(7.60015e-09 1.82334e-08 0)
(7.87634e-09 2.69429e-08 0)
(7.47177e-09 4.47435e-08 0)
(4.1988e-09 4.52926e-08 0)
(2.4626e-09 4.57028e-08 0)
(-3.70526e-09 2.52339e-08 0)
(-1.57539e-09 -2.65309e-08 0)
(-3.55498e-10 6.44575e-09 0)
(4.84924e-09 2.31119e-08 0)
(5.00833e-09 3.76112e-08 0)
(3.64573e-09 4.93685e-08 0)
(1.79645e-09 5.29707e-08 0)
(9.96524e-10 4.41898e-08 0)
(-5.00099e-10 2.48127e-08 0)
(-2.06055e-09 2.64431e-09 0)
(-2.38509e-10 -1.26652e-08 0)
(2.55875e-09 -1.9214e-08 0)
(4.83721e-09 -1.58228e-08 0)
(6.61853e-09 -6.92099e-09 0)
(8.48887e-09 4.80263e-09 0)
(8.91222e-09 2.00655e-08 0)
(8.14123e-09 3.06769e-08 0)
(5.6966e-09 5.06119e-08 0)
(1.03561e-09 5.01442e-08 0)
(-1.37614e-09 4.93631e-08 0)
(-6.98808e-09 2.47868e-08 0)
(-3.40909e-09 -3.16252e-08 0)
(-6.13521e-10 7.04399e-09 0)
(3.0119e-09 2.7031e-08 0)
(3.06573e-09 4.13164e-08 0)
(1.99821e-09 5.17842e-08 0)
(1.63695e-09 5.53358e-08 0)
(1.08355e-09 4.64188e-08 0)
(1.66079e-11 2.59329e-08 0)
(1.73132e-10 4.07474e-09 0)
(9.34874e-10 -1.14588e-08 0)
(1.47793e-09 -1.88897e-08 0)
(2.65979e-09 -1.57989e-08 0)
(4.03103e-09 -7.08593e-09 0)
(5.04972e-09 3.73131e-09 0)
(5.05333e-09 1.7814e-08 0)
(4.22612e-09 2.75951e-08 0)
(2.7292e-09 4.8469e-08 0)
(5.6282e-10 4.96692e-08 0)
(-1.95118e-10 5.02539e-08 0)
(-2.20159e-09 2.67643e-08 0)
(-9.24607e-10 -3.15461e-08 0)
(-3.15386e-10 6.85526e-09 0)
(1.37671e-09 2.83828e-08 0)
(9.6861e-10 4.31437e-08 0)
(7.90357e-10 5.4058e-08 0)
(9.58808e-10 5.7964e-08 0)
(2.34169e-10 4.83003e-08 0)
(2.67829e-10 2.74457e-08 0)
(1.7968e-10 3.87422e-09 0)
(-6.68819e-10 -1.2739e-08 0)
(-4.9473e-11 -1.98243e-08 0)
(1.53091e-09 -1.63493e-08 0)
(2.24973e-09 -7.64664e-09 0)
(2.26741e-09 3.44861e-09 0)
(2.11983e-09 1.81879e-08 0)
(2.12245e-09 2.84195e-08 0)
(1.75281e-09 4.98836e-08 0)
(5.1874e-10 5.07041e-08 0)
(-2.02759e-10 5.09642e-08 0)
(-2.04012e-09 2.60001e-08 0)
(-1.34249e-09 -3.36059e-08 0)
(3.14868e-10 6.85563e-09 0)
(-1.37076e-09 2.83853e-08 0)
(-9.64822e-10 4.31459e-08 0)
(-7.86787e-10 5.40595e-08 0)
(-9.58023e-10 5.79634e-08 0)
(-2.39897e-10 4.82989e-08 0)
(-2.77037e-10 2.74434e-08 0)
(-1.90677e-10 3.87394e-09 0)
(6.56498e-10 -1.27396e-08 0)
(3.45651e-11 -1.98256e-08 0)
(-1.54378e-09 -1.6351e-08 0)
(-2.25738e-09 -7.64965e-09 0)
(-2.27264e-09 3.44577e-09 0)
(-2.12323e-09 1.81842e-08 0)
(-2.12882e-09 2.84154e-08 0)
(-1.75568e-09 4.9878e-08 0)
(-5.20366e-10 5.06997e-08 0)
(2.10559e-10 5.09641e-08 0)
(2.06515e-09 2.59986e-08 0)
(1.37577e-09 -3.36051e-08 0)
(6.14054e-10 7.04496e-09 0)
(-3.00777e-09 2.7039e-08 0)
(-3.06275e-09 4.13237e-08 0)
(-1.99755e-09 5.17885e-08 0)
(-1.6374e-09 5.53356e-08 0)
(-1.091e-09 4.64145e-08 0)
(-2.47836e-11 2.5927e-08 0)
(-1.82708e-10 4.07091e-09 0)
(-9.47726e-10 -1.14604e-08 0)
(-1.49017e-09 -1.88924e-08 0)
(-2.67076e-09 -1.58057e-08 0)
(-4.04037e-09 -7.0952e-09 0)
(-5.05725e-09 3.72734e-09 0)
(-5.05855e-09 1.78101e-08 0)
(-4.23281e-09 2.75934e-08 0)
(-2.72801e-09 4.84601e-08 0)
(-5.58697e-10 4.96527e-08 0)
(2.08736e-10 5.02396e-08 0)
(2.22631e-09 2.67346e-08 0)
(9.53646e-10 -3.15496e-08 0)
(3.5622e-10 6.44829e-09 0)
(-4.84568e-09 2.31223e-08 0)
(-5.00805e-09 3.76223e-08 0)
(-3.64601e-09 4.93758e-08 0)
(-1.80076e-09 5.29728e-08 0)
(-1.00518e-09 4.41878e-08 0)
(4.893e-10 2.48092e-08 0)
(2.05034e-09 2.64215e-09 0)
(2.2774e-10 -1.26654e-08 0)
(-2.57403e-09 -1.9218e-08 0)
(-4.85023e-09 -1.58333e-08 0)
(-6.62413e-09 -6.93507e-09 0)
(-8.49086e-09 4.79604e-09 0)
(-8.91326e-09 2.00592e-08 0)
(-8.14563e-09 3.06743e-08 0)
(-5.69456e-09 5.06021e-08 0)
(-1.03255e-09 5.01236e-08 0)
(1.3861e-09 4.93478e-08 0)
(7.00904e-09 2.47433e-08 0)
(3.43455e-09 -3.164e-08 0)
(9.60197e-10 4.8777e-09 0)
(-6.48293e-09 1.7503e-08 0)
(-6.14568e-09 3.16354e-08 0)
(-3.63237e-09 4.38808e-08 0)
(-2.3604e-09 4.88565e-08 0)
(-8.86076e-10 4.20598e-08 0)
(-4.65372e-10 2.64907e-08 0)
(1.64438e-10 7.60532e-09 0)
(4.42164e-11 -6.07057e-09 0)
(-2.10461e-09 -1.19594e-08 0)
(-4.90386e-09 -9.65808e-09 0)
(-6.38443e-09 -3.10423e-09 0)
(-7.33986e-09 5.81791e-09 0)
(-7.60572e-09 1.82191e-08 0)
(-7.88229e-09 2.69328e-08 0)
(-7.46742e-09 4.47177e-08 0)
(-4.19195e-09 4.52573e-08 0)
(-2.44656e-09 4.56747e-08 0)
(3.72759e-09 2.51848e-08 0)
(1.59885e-09 -2.6527e-08 0)
(7.47722e-10 3.27585e-09 0)
(-7.39675e-09 1.39068e-08 0)
(-8.02429e-09 2.93365e-08 0)
(-3.53824e-09 4.1095e-08 0)
(2.18086e-10 4.37595e-08 0)
(2.08841e-09 3.58795e-08 0)
(3.69315e-09 2.07682e-08 0)
(3.94544e-09 3.85378e-09 0)
(1.49485e-09 -8.70785e-09 0)
(-3.89751e-09 -1.41541e-08 0)
(-9.65109e-09 -1.10591e-08 0)
(-1.26089e-08 -3.54075e-09 0)
(-1.43292e-08 6.0769e-09 0)
(-1.41756e-08 1.84234e-08 0)
(-1.31021e-08 2.68867e-08 0)
(-9.47072e-09 4.32278e-08 0)
(-1.9483e-09 4.29358e-08 0)
(2.11462e-09 4.27687e-08 0)
(1.10988e-08 2.23653e-08 0)
(3.95543e-09 -2.55546e-08 0)
(1.76644e-09 -1.05128e-09 0)
(-6.22164e-09 2.65775e-09 0)
(-9.2945e-09 1.46636e-08 0)
(-6.25856e-09 2.72804e-08 0)
(-3.54791e-09 3.29944e-08 0)
(-2.32332e-09 3.02169e-08 0)
(-1.27813e-09 2.03567e-08 0)
(-5.30524e-10 7.84296e-09 0)
(-1.28422e-09 -2.0055e-09 0)
(-3.9155e-09 -6.67935e-09 0)
(-7.16606e-09 -4.75434e-09 0)
(-8.82216e-09 4.27113e-10 0)
(-1.025e-08 7.04524e-09 0)
(-1.09518e-08 1.60317e-08 0)
(-1.14271e-08 2.23643e-08 0)
(-1.06284e-08 3.57594e-08 0)
(-5.96442e-09 3.59487e-08 0)
(-4.29393e-09 3.6273e-08 0)
(3.65139e-09 2.00246e-08 0)
(-1.2434e-10 -2.01797e-08 0)
(1.5399e-09 -3.36005e-09 0)
(-7.41448e-09 -9.3624e-10 0)
(-1.1014e-08 1.46776e-08 0)
(-4.84561e-09 2.70703e-08 0)
(1.60186e-09 3.0084e-08 0)
(4.4804e-09 2.56059e-08 0)
(6.82302e-09 1.66981e-08 0)
(7.2502e-09 6.44117e-09 0)
(2.99289e-09 -1.48601e-09 0)
(-4.62066e-09 -5.19445e-09 0)
(-1.22531e-08 -3.38159e-09 0)
(-1.66417e-08 1.10037e-09 0)
(-1.95766e-08 6.64788e-09 0)
(-1.96611e-08 1.40797e-08 0)
(-1.79711e-08 1.92354e-08 0)
(-1.28032e-08 2.99867e-08 0)
(-3.06288e-09 2.98172e-08 0)
(1.5482e-09 2.98129e-08 0)
(1.30225e-08 1.59018e-08 0)
(3.99716e-09 -1.70841e-08 0)
(2.22244e-09 -1.33184e-09 0)
(-5.53568e-09 -1.19465e-10 0)
(-9.757e-09 9.98998e-09 0)
(-5.90761e-09 1.81733e-08 0)
(-1.3005e-09 2.10312e-08 0)
(-8.24919e-10 1.83016e-08 0)
(-4.2106e-10 1.20978e-08 0)
(-5.46332e-10 4.27711e-09 0)
(-3.00988e-09 -1.76521e-09 0)
(-6.89096e-09 -4.48136e-09 0)
(-1.11421e-08 -2.98796e-09 0)
(-1.38436e-08 6.05369e-10 0)
(-1.6006e-08 5.09295e-09 0)
(-1.63331e-08 1.09776e-08 0)
(-1.574e-08 1.49273e-08 0)
(-1.32186e-08 2.27253e-08 0)
(-6.63717e-09 2.19713e-08 0)
(-4.38316e-09 2.17083e-08 0)
(5.20093e-09 1.12559e-08 0)
(-1.35005e-09 -1.30914e-08 0)
(2.53966e-09 -1.3104e-09 0)
(-4.88729e-09 -2.86336e-09 0)
(-1.15214e-08 6.69272e-10 0)
(-5.53192e-09 7.45161e-09 0)
(2.3732e-09 1.21169e-08 0)
(4.73128e-09 1.32266e-08 0)
(6.00597e-09 1.13949e-08 0)
(6.80478e-09 7.81999e-09 0)
(2.11272e-09 4.98866e-09 0)
(-5.97075e-09 3.34402e-09 0)
(-1.36567e-08 3.29452e-09 0)
(-1.80995e-08 3.94091e-09 0)
(-2.12335e-08 4.7832e-09 0)
(-2.13731e-08 6.42178e-09 0)
(-1.98678e-08 7.5182e-09 0)
(-1.50381e-08 1.11236e-08 0)
(-5.2882e-09 1.1107e-08 0)
(-1.34351e-09 1.19016e-08 0)
(1.13849e-08 7.86631e-09 0)
(3.51999e-09 -5.54321e-09 0)
(2.64378e-09 -1.07551e-09 0)
(-4.85059e-09 5.37581e-10 0)
(-1.02472e-08 6.06046e-09 0)
(-2.06619e-09 1.04153e-08 0)
(2.15645e-09 9.18052e-09 0)
(1.14194e-09 5.64567e-09 0)
(1.42002e-09 2.0539e-09 0)
(1.38046e-09 -1.05908e-09 0)
(-1.58837e-09 -3.08373e-09 0)
(-7.48201e-09 -3.95782e-09 0)
(-1.34156e-08 -2.82744e-09 0)
(-1.73008e-08 -5.82155e-10 0)
(-2.01439e-08 1.97304e-09 0)
(-2.03817e-08 4.8215e-09 0)
(-1.93627e-08 6.66865e-09 0)
(-1.55682e-08 8.9149e-09 0)
(-7.19034e-09 8.11419e-09 0)
(-3.48936e-09 7.00726e-09 0)
(8.45487e-09 1.47775e-09 0)
(1.71731e-10 -5.603e-09 0)
)
;

boundaryField
{
    sides
    {
        type            calculated;
        value           nonuniform List<vector> 
40
(
(2.64378e-09 0 0)
(-4.85059e-09 0 0)
(-1.02472e-08 0 0)
(-2.06619e-09 0 0)
(2.15645e-09 0 0)
(1.14194e-09 0 0)
(1.42002e-09 0 0)
(1.38046e-09 0 0)
(-1.58837e-09 0 0)
(-7.48201e-09 0 0)
(-1.34156e-08 0 0)
(-1.73008e-08 0 0)
(-2.01439e-08 0 0)
(-2.03817e-08 0 0)
(-1.93627e-08 0 0)
(-1.55682e-08 0 0)
(-7.19034e-09 0 0)
(-3.48936e-09 0 0)
(8.45487e-09 0 0)
(1.71731e-10 0 0)
(-2.64016e-09 0 0)
(4.83556e-09 0 0)
(1.02325e-08 0 0)
(2.05054e-09 0 0)
(-2.18567e-09 0 0)
(-1.17562e-09 0 0)
(-1.44727e-09 0 0)
(-1.40433e-09 0 0)
(1.56881e-09 0 0)
(7.46695e-09 0 0)
(1.33995e-08 0 0)
(1.72856e-08 0 0)
(2.01355e-08 0 0)
(2.03857e-08 0 0)
(1.93732e-08 0 0)
(1.55937e-08 0 0)
(7.20921e-09 0 0)
(3.52472e-09 0 0)
(-8.43622e-09 0 0)
(-1.74964e-10 0 0)
)
;
    }
    inlet
    {
        type            calculated;
        value           uniform (0 0 0);
    }
    outlet
    {
        type            calculated;
        value           nonuniform List<vector> 
20
(
(-1.74964e-10 -5.59192e-09 0)
(-3.51996e-09 -5.53383e-09 0)
(1.3668e-09 -1.30982e-08 0)
(-4.00166e-09 -1.70582e-08 0)
(1.46225e-10 -2.01871e-08 0)
(-3.94472e-09 -2.5525e-08 0)
(-1.57539e-09 -2.65309e-08 0)
(-3.40909e-09 -3.16252e-08 0)
(-9.24607e-10 -3.15461e-08 0)
(-1.34249e-09 -3.36059e-08 0)
(1.37577e-09 -3.36051e-08 0)
(9.53646e-10 -3.15496e-08 0)
(3.43455e-09 -3.164e-08 0)
(1.59885e-09 -2.6527e-08 0)
(3.95543e-09 -2.55546e-08 0)
(-1.2434e-10 -2.01797e-08 0)
(3.99716e-09 -1.70841e-08 0)
(-1.35005e-09 -1.30914e-08 0)
(3.51999e-09 -5.54321e-09 0)
(1.71731e-10 -5.603e-09 0)
)
;
    }
    frontAndBack
    {
        type            empty;
    }
}


// ************************************************************************* //
