/*--------------------------------*- C++ -*----------------------------------*\
  =========                 |
  \\      /  F ield         | OpenFOAM: The Open Source CFD Toolbox
   \\    /   O peration     | Website:  https://openfoam.org
    \\  /    A nd           | Version:  7
     \\/     M anipulation  |
\*---------------------------------------------------------------------------*/
FoamFile
{
    version     2.0;
    format      ascii;
    class       volVectorField;
    location    "21";
    object      hU;
}
// * * * * * * * * * * * * * * * * * * * * * * * * * * * * * * * * * * * * * //

dimensions      [0 2 -1 0 0 0 0];

internalField   nonuniform List<vector> 
400
(
(0.001 -8.87238e-09 0)
(0.001 -2.30121e-08 0)
(0.000999993 -3.61357e-08 0)
(0.000999991 -5.04933e-08 0)
(0.000999999 -6.52082e-08 0)
(0.00100001 -7.86654e-08 0)
(0.00100002 -8.97915e-08 0)
(0.00100003 -9.93434e-08 0)
(0.00100005 -1.06731e-07 0)
(0.00100007 -1.14407e-07 0)
(0.00100008 -1.20901e-07 0)
(0.0010001 -1.31608e-07 0)
(0.00100012 -1.40225e-07 0)
(0.00100015 -1.57303e-07 0)
(0.00100017 -1.67518e-07 0)
(0.00100023 -1.94463e-07 0)
(0.00100025 -2.03189e-07 0)
(0.00100037 -2.47627e-07 0)
(0.00100038 -2.48296e-07 0)
(0.00100062 -3.36606e-07 0)
(0.001 3.13803e-09 0)
(0.00100001 1.24077e-08 0)
(0.001 2.17155e-08 0)
(0.001 2.95248e-08 0)
(0.00100001 3.4998e-08 0)
(0.00100002 3.88171e-08 0)
(0.00100003 4.27773e-08 0)
(0.00100005 4.74853e-08 0)
(0.00100007 5.40268e-08 0)
(0.00100008 6.02665e-08 0)
(0.0010001 6.78042e-08 0)
(0.00100012 7.16074e-08 0)
(0.00100013 7.7645e-08 0)
(0.00100016 7.51759e-08 0)
(0.00100018 7.90347e-08 0)
(0.00100022 6.48138e-08 0)
(0.00100026 6.51454e-08 0)
(0.00100034 2.73521e-08 0)
(0.00100037 2.63442e-08 0)
(0.00100052 -6.53699e-08 0)
(0.001 -3.97658e-09 0)
(0.001 -1.01417e-08 0)
(0.000999993 -1.97654e-08 0)
(0.000999992 -3.42891e-08 0)
(0.000999998 -5.09412e-08 0)
(0.00100001 -6.73892e-08 0)
(0.00100002 -8.11914e-08 0)
(0.00100003 -9.20009e-08 0)
(0.00100004 -9.87924e-08 0)
(0.00100006 -1.05484e-07 0)
(0.00100007 -1.10614e-07 0)
(0.00100009 -1.22251e-07 0)
(0.00100011 -1.32212e-07 0)
(0.00100013 -1.55953e-07 0)
(0.00100015 -1.7322e-07 0)
(0.0010002 -2.14838e-07 0)
(0.00100023 -2.40637e-07 0)
(0.00100031 -3.07792e-07 0)
(0.00100033 -3.32831e-07 0)
(0.00100047 -4.40818e-07 0)
(0.001 2.23012e-10 0)
(0.001 4.30223e-09 0)
(0.000999997 5.71423e-09 0)
(0.000999997 4.94772e-10 0)
(0.001 -8.3025e-09 0)
(0.00100001 -1.69121e-08 0)
(0.00100003 -2.19546e-08 0)
(0.00100004 -2.26948e-08 0)
(0.00100006 -1.84137e-08 0)
(0.00100007 -1.38263e-08 0)
(0.00100009 -7.8223e-09 0)
(0.0010001 -9.70117e-09 0)
(0.00100011 -1.063e-08 0)
(0.00100013 -2.74878e-08 0)
(0.00100015 -3.90147e-08 0)
(0.00100018 -7.72155e-08 0)
(0.00100021 -1.0243e-07 0)
(0.00100027 -1.68576e-07 0)
(0.00100031 -1.96959e-07 0)
(0.00100041 -3.01481e-07 0)
(0.001 -1.54934e-09 0)
(0.001 -3.4448e-09 0)
(0.000999997 -8.88507e-09 0)
(0.000999997 -2.05886e-08 0)
(0.001 -3.77597e-08 0)
(0.00100001 -5.69702e-08 0)
(0.00100001 -7.34061e-08 0)
(0.00100002 -8.51431e-08 0)
(0.00100004 -9.10522e-08 0)
(0.00100005 -9.59722e-08 0)
(0.00100006 -9.90679e-08 0)
(0.00100007 -1.10592e-07 0)
(0.00100009 -1.21418e-07 0)
(0.00100011 -1.49567e-07 0)
(0.00100013 -1.72637e-07 0)
(0.00100016 -2.23929e-07 0)
(0.00100018 -2.6336e-07 0)
(0.00100023 -3.42754e-07 0)
(0.00100025 -3.84824e-07 0)
(0.00100034 -4.95736e-07 0)
(0.001 1.4235e-09 0)
(0.001 2.32195e-09 0)
(0.000999996 -2.89601e-09 0)
(0.000999996 -1.57441e-08 0)
(0.001 -3.35325e-08 0)
(0.00100001 -5.17112e-08 0)
(0.00100002 -6.48828e-08 0)
(0.00100003 -7.11191e-08 0)
(0.00100004 -6.99539e-08 0)
(0.00100005 -6.73932e-08 0)
(0.00100006 -6.35187e-08 0)
(0.00100007 -6.97174e-08 0)
(0.00100008 -7.64624e-08 0)
(0.00100009 -1.02911e-07 0)
(0.00100011 -1.25688e-07 0)
(0.00100013 -1.78246e-07 0)
(0.00100015 -2.21163e-07 0)
(0.00100019 -3.01186e-07 0)
(0.00100021 -3.47469e-07 0)
(0.00100028 -4.52141e-07 0)
(0.001 2.67966e-09 0)
(0.001 2.90986e-09 0)
(0.000999997 -3.10707e-09 0)
(0.000999998 -1.65061e-08 0)
(0.001 -3.64333e-08 0)
(0.00100001 -5.88936e-08 0)
(0.00100001 -7.74731e-08 0)
(0.00100002 -8.93231e-08 0)
(0.00100003 -9.37304e-08 0)
(0.00100004 -9.66263e-08 0)
(0.00100004 -9.78008e-08 0)
(0.00100005 -1.08929e-07 0)
(0.00100006 -1.20218e-07 0)
(0.00100008 -1.51382e-07 0)
(0.00100009 -1.78634e-07 0)
(0.00100011 -2.36215e-07 0)
(0.00100012 -2.8511e-07 0)
(0.00100015 -3.71142e-07 0)
(0.00100016 -4.24071e-07 0)
(0.00100021 -5.33443e-07 0)
(0.001 4.09515e-09 0)
(0.001 4.60533e-09 0)
(0.000999998 -2.51931e-09 0)
(0.000999998 -1.74134e-08 0)
(0.001 -3.93823e-08 0)
(0.001 -6.36274e-08 0)
(0.00100001 -8.28034e-08 0)
(0.00100002 -9.35757e-08 0)
(0.00100002 -9.54723e-08 0)
(0.00100003 -9.5092e-08 0)
(0.00100003 -9.31045e-08 0)
(0.00100004 -1.02213e-07 0)
(0.00100005 -1.12648e-07 0)
(0.00100005 -1.4483e-07 0)
(0.00100006 -1.74164e-07 0)
(0.00100007 -2.34815e-07 0)
(0.00100008 -2.87851e-07 0)
(0.00100011 -3.75304e-07 0)
(0.00100012 -4.3166e-07 0)
(0.00100015 -5.35565e-07 0)
(0.001 5.12111e-09 0)
(0.001 5.6976e-09 0)
(0.000999999 -2.25883e-09 0)
(0.000999999 -1.7741e-08 0)
(0.001 -4.02291e-08 0)
(0.001 -6.54348e-08 0)
(0.00100001 -8.58603e-08 0)
(0.00100001 -9.78017e-08 0)
(0.00100001 -1.01124e-07 0)
(0.00100002 -1.02602e-07 0)
(0.00100002 -1.02454e-07 0)
(0.00100002 -1.1326e-07 0)
(0.00100003 -1.24903e-07 0)
(0.00100003 -1.58059e-07 0)
(0.00100004 -1.88014e-07 0)
(0.00100005 -2.49443e-07 0)
(0.00100005 -3.0412e-07 0)
(0.00100007 -3.93724e-07 0)
(0.00100007 -4.52961e-07 0)
(0.00100009 -5.59787e-07 0)
(0.001 5.63196e-09 0)
(0.001 6.22674e-09 0)
(0.001 -2.05276e-09 0)
(0.001 -1.77953e-08 0)
(0.001 -4.09454e-08 0)
(0.001 -6.71876e-08 0)
(0.001 -8.84417e-08 0)
(0.001 -1.00769e-07 0)
(0.001 -1.03875e-07 0)
(0.00100001 -1.04573e-07 0)
(0.00100001 -1.03537e-07 0)
(0.00100001 -1.13884e-07 0)
(0.00100001 -1.25633e-07 0)
(0.00100001 -1.59686e-07 0)
(0.00100001 -1.90977e-07 0)
(0.00100001 -2.54023e-07 0)
(0.00100002 -3.10444e-07 0)
(0.00100002 -4.0066e-07 0)
(0.00100002 -4.6106e-07 0)
(0.00100003 -5.6571e-07 0)
(0.001 5.63287e-09 0)
(0.001 6.22818e-09 0)
(0.001 -2.05159e-09 0)
(0.001 -1.77944e-08 0)
(0.001 -4.09447e-08 0)
(0.000999999 -6.71866e-08 0)
(0.000999998 -8.84405e-08 0)
(0.000999997 -1.00768e-07 0)
(0.000999996 -1.03875e-07 0)
(0.000999994 -1.04573e-07 0)
(0.000999993 -1.03539e-07 0)
(0.000999992 -1.13886e-07 0)
(0.00099999 -1.25634e-07 0)
(0.000999988 -1.59686e-07 0)
(0.000999987 -1.90977e-07 0)
(0.000999985 -2.54021e-07 0)
(0.000999983 -3.10439e-07 0)
(0.000999979 -4.00655e-07 0)
(0.000999977 -4.61055e-07 0)
(0.000999969 -5.65702e-07 0)
(0.000999999 5.12366e-09 0)
(0.001 5.70198e-09 0)
(0.001 -2.25518e-09 0)
(0.001 -1.77384e-08 0)
(0.000999999 -4.02277e-08 0)
(0.000999996 -6.54336e-08 0)
(0.000999994 -8.58585e-08 0)
(0.000999991 -9.7799e-08 0)
(0.000999987 -1.01123e-07 0)
(0.000999983 -1.02601e-07 0)
(0.00099998 -1.02454e-07 0)
(0.000999976 -1.13255e-07 0)
(0.000999973 -1.24899e-07 0)
(0.000999967 -1.58053e-07 0)
(0.000999962 -1.88009e-07 0)
(0.000999954 -2.49436e-07 0)
(0.000999948 -3.04106e-07 0)
(0.000999934 -3.93696e-07 0)
(0.000999929 -4.52922e-07 0)
(0.000999908 -5.59702e-07 0)
(0.000999999 4.09912e-09 0)
(0.001 4.61178e-09 0)
(0.001 -2.51355e-09 0)
(0.001 -1.74089e-08 0)
(0.000999999 -3.93791e-08 0)
(0.000999995 -6.36251e-08 0)
(0.000999991 -8.28019e-08 0)
(0.000999985 -9.35751e-08 0)
(0.000999978 -9.54753e-08 0)
(0.000999971 -9.50962e-08 0)
(0.000999965 -9.31108e-08 0)
(0.000999959 -1.02214e-07 0)
(0.000999954 -1.12652e-07 0)
(0.000999946 -1.44835e-07 0)
(0.000999939 -1.74173e-07 0)
(0.000999926 -2.34832e-07 0)
(0.000999915 -2.87864e-07 0)
(0.000999893 -3.75312e-07 0)
(0.000999882 -4.3166e-07 0)
(0.000999845 -5.35519e-07 0)
(0.000999998 2.68494e-09 0)
(0.000999999 2.91789e-09 0)
(0.001 -3.10035e-09 0)
(0.001 -1.65011e-08 0)
(0.000999998 -3.64291e-08 0)
(0.000999993 -5.88884e-08 0)
(0.000999988 -7.74668e-08 0)
(0.000999981 -8.93153e-08 0)
(0.000999973 -9.37258e-08 0)
(0.000999964 -9.66211e-08 0)
(0.000999957 -9.77996e-08 0)
(0.000999947 -1.08918e-07 0)
(0.000999938 -1.20209e-07 0)
(0.000999925 -1.51363e-07 0)
(0.000999913 -1.78616e-07 0)
(0.000999894 -2.36184e-07 0)
(0.000999881 -2.85064e-07 0)
(0.000999849 -3.7106e-07 0)
(0.000999838 -4.23969e-07 0)
(0.000999785 -5.33253e-07 0)
(0.000999998 1.42917e-09 0)
(0.000999999 2.33051e-09 0)
(0.001 -2.8893e-09 0)
(0.001 -1.57407e-08 0)
(0.000999998 -3.35324e-08 0)
(0.00099999 -5.17131e-08 0)
(0.000999982 -6.48858e-08 0)
(0.000999971 -7.11232e-08 0)
(0.000999959 -6.99628e-08 0)
(0.000999947 -6.74016e-08 0)
(0.000999938 -6.35289e-08 0)
(0.000999928 -6.97208e-08 0)
(0.000999919 -7.64689e-08 0)
(0.000999905 -1.02921e-07 0)
(0.000999892 -1.25704e-07 0)
(0.000999869 -1.78274e-07 0)
(0.000999849 -2.21186e-07 0)
(0.000999808 -3.01202e-07 0)
(0.000999786 -3.47475e-07 0)
(0.000999719 -4.52074e-07 0)
(0.000999998 -1.54301e-09 0)
(0.000999999 -3.43333e-09 0)
(0.001 -8.8744e-09 0)
(0.001 -2.05786e-08 0)
(0.000999998 -3.775e-08 0)
(0.000999992 -5.69596e-08 0)
(0.000999986 -7.3396e-08 0)
(0.000999976 -8.51326e-08 0)
(0.000999965 -9.10474e-08 0)
(0.000999952 -9.59674e-08 0)
(0.00099994 -9.907e-08 0)
(0.000999926 -1.10582e-07 0)
(0.000999912 -1.21414e-07 0)
(0.00099989 -1.49548e-07 0)
(0.000999873 -1.72625e-07 0)
(0.000999841 -2.23898e-07 0)
(0.000999821 -2.63321e-07 0)
(0.000999767 -3.42667e-07 0)
(0.000999752 -3.84725e-07 0)
(0.000999661 -4.95519e-07 0)
(0.000999998 2.28048e-10 0)
(0.000999997 4.30913e-09 0)
(0.001 5.71828e-09 0)
(0.001 4.93943e-10 0)
(0.000999996 -8.30739e-09 0)
(0.000999985 -1.69176e-08 0)
(0.000999974 -2.196e-08 0)
(0.000999959 -2.26995e-08 0)
(0.000999942 -1.84218e-08 0)
(0.000999926 -1.38307e-08 0)
(0.000999914 -7.82714e-09 0)
(0.0009999 -9.69662e-09 0)
(0.000999887 -1.06303e-08 0)
(0.000999867 -2.74882e-08 0)
(0.00099985 -3.9023e-08 0)
(0.000999816 -7.72248e-08 0)
(0.000999788 -1.02432e-07 0)
(0.000999725 -1.68558e-07 0)
(0.000999695 -1.96927e-07 0)
(0.000999593 -3.01362e-07 0)
(0.000999998 -3.97218e-09 0)
(0.001 -1.01341e-08 0)
(0.00100001 -1.97578e-08 0)
(0.00100001 -3.42824e-08 0)
(0.001 -5.09356e-08 0)
(0.000999993 -6.73844e-08 0)
(0.000999985 -8.119e-08 0)
(0.000999973 -9.20011e-08 0)
(0.000999959 -9.87997e-08 0)
(0.000999943 -1.05492e-07 0)
(0.000999929 -1.1063e-07 0)
(0.00099991 -1.22256e-07 0)
(0.000999894 -1.32227e-07 0)
(0.000999866 -1.55954e-07 0)
(0.000999846 -1.73237e-07 0)
(0.0009998 -2.14834e-07 0)
(0.000999775 -2.40649e-07 0)
(0.000999694 -3.0776e-07 0)
(0.000999673 -3.32821e-07 0)
(0.000999529 -4.40708e-07 0)
(0.000999998 3.13911e-09 0)
(0.000999995 1.24102e-08 0)
(0.000999999 2.17157e-08 0)
(0.001 2.95236e-08 0)
(0.000999993 3.49947e-08 0)
(0.000999982 3.88152e-08 0)
(0.00099997 4.27778e-08 0)
(0.000999953 4.74902e-08 0)
(0.000999935 5.40317e-08 0)
(0.000999916 6.02767e-08 0)
(0.000999903 6.78124e-08 0)
(0.000999885 7.1625e-08 0)
(0.00099987 7.76541e-08 0)
(0.000999844 7.51939e-08 0)
(0.000999823 7.90394e-08 0)
(0.000999777 6.48356e-08 0)
(0.000999745 6.51656e-08 0)
(0.000999658 2.74151e-08 0)
(0.000999626 2.64119e-08 0)
(0.000999477 -6.51996e-08 0)
(0.000999998 -8.87259e-09 0)
(0.001 -2.30128e-08 0)
(0.00100001 -3.61394e-08 0)
(0.00100001 -5.05006e-08 0)
(0.001 -6.52219e-08 0)
(0.00099999 -7.86836e-08 0)
(0.00099998 -8.9815e-08 0)
(0.000999965 -9.93706e-08 0)
(0.00099995 -1.06765e-07 0)
(0.00099993 -1.14442e-07 0)
(0.000999917 -1.20941e-07 0)
(0.000999895 -1.31648e-07 0)
(0.000999881 -1.40269e-07 0)
(0.000999847 -1.5735e-07 0)
(0.000999831 -1.67571e-07 0)
(0.000999769 -1.9452e-07 0)
(0.00099975 -2.03257e-07 0)
(0.000999629 -2.47707e-07 0)
(0.000999617 -2.48389e-07 0)
(0.000999379 -3.36734e-07 0)
)
;

boundaryField
{
    sides
    {
        type            slip;
    }
    inlet
    {
        type            fixedValue;
        value           uniform (0.001 0 0);
    }
    outlet
    {
        type            zeroGradient;
    }
    frontAndBack
    {
        type            empty;
    }
}


// ************************************************************************* //
