/*--------------------------------*- C++ -*----------------------------------*\
  =========                 |
  \\      /  F ield         | OpenFOAM: The Open Source CFD Toolbox
   \\    /   O peration     | Website:  https://openfoam.org
    \\  /    A nd           | Version:  7
     \\/     M anipulation  |
\*---------------------------------------------------------------------------*/
FoamFile
{
    version     2.0;
    format      ascii;
    class       volVectorField;
    location    "21";
    object      U;
}
// * * * * * * * * * * * * * * * * * * * * * * * * * * * * * * * * * * * * * //

dimensions      [0 1 -1 0 0 0 0];

internalField   nonuniform List<vector> 
400
(
(0.0999926 -8.87171e-07 0)
(0.0999924 -2.30103e-06 0)
(0.0999916 -3.61329e-06 0)
(0.0999914 -5.04894e-06 0)
(0.0999922 -6.52032e-06 0)
(0.0999934 -7.86595e-06 0)
(0.0999945 -8.97849e-06 0)
(0.0999962 -9.93362e-06 0)
(0.0999979 -1.06724e-05 0)
(0.1 -1.14399e-05 0)
(0.100002 -1.20893e-05 0)
(0.100004 -1.316e-05 0)
(0.100006 -1.40216e-05 0)
(0.10001 -1.57294e-05 0)
(0.100012 -1.67509e-05 0)
(0.100018 -1.94453e-05 0)
(0.100021 -2.0318e-05 0)
(0.100034 -2.47619e-05 0)
(0.100036 -2.48291e-05 0)
(0.100061 -3.36603e-05 0)
(0.0999938 3.13783e-07 0)
(0.0999941 1.24069e-06 0)
(0.0999937 2.17141e-06 0)
(0.0999936 2.95229e-06 0)
(0.0999944 3.49958e-06 0)
(0.0999956 3.88147e-06 0)
(0.0999969 4.27747e-06 0)
(0.0999987 4.74825e-06 0)
(0.100001 5.40236e-06 0)
(0.100003 6.02631e-06 0)
(0.100004 6.78005e-06 0)
(0.100006 7.16037e-06 0)
(0.100008 7.76412e-06 0)
(0.100011 7.51725e-06 0)
(0.100014 7.90315e-06 0)
(0.100019 6.48115e-06 0)
(0.100023 6.51435e-06 0)
(0.100032 2.73515e-06 0)
(0.100036 2.63438e-06 0)
(0.100052 -6.53696e-06 0)
(0.0999942 -3.97634e-07 0)
(0.099994 -1.01411e-06 0)
(0.0999933 -1.97642e-06 0)
(0.0999932 -3.4287e-06 0)
(0.0999939 -5.09381e-06 0)
(0.0999949 -6.73852e-06 0)
(0.0999958 -8.11867e-06 0)
(0.0999971 -9.19957e-06 0)
(0.0999986 -9.87871e-06 0)
(0.1 -1.05479e-05 0)
(0.100002 -1.10609e-05 0)
(0.100004 -1.22245e-05 0)
(0.100006 -1.32206e-05 0)
(0.100009 -1.55947e-05 0)
(0.100012 -1.73213e-05 0)
(0.100017 -2.14831e-05 0)
(0.10002 -2.4063e-05 0)
(0.100029 -3.07785e-05 0)
(0.100031 -3.32827e-05 0)
(0.100047 -4.40816e-05 0)
(0.0999951 2.23001e-08 0)
(0.0999952 4.30201e-07 0)
(0.0999946 5.71394e-07 0)
(0.0999946 4.94747e-08 0)
(0.0999955 -8.30209e-07 0)
(0.0999966 -1.69113e-06 0)
(0.0999979 -2.19536e-06 0)
(0.0999995 -2.26937e-06 0)
(0.100001 -1.84129e-06 0)
(0.100003 -1.38257e-06 0)
(0.100005 -7.82198e-07 0)
(0.100006 -9.7008e-07 0)
(0.100008 -1.06296e-06 0)
(0.10001 -2.74868e-06 0)
(0.100012 -3.90136e-06 0)
(0.100016 -7.72135e-06 0)
(0.100019 -1.02428e-05 0)
(0.100026 -1.68574e-05 0)
(0.10003 -1.96957e-05 0)
(0.10004 -3.0148e-05 0)
(0.0999957 -1.54927e-07 0)
(0.0999956 -3.44465e-07 0)
(0.0999952 -8.88468e-07 0)
(0.0999953 -2.05877e-06 0)
(0.0999959 -3.77581e-06 0)
(0.0999966 -5.69679e-06 0)
(0.0999974 -7.34031e-06 0)
(0.0999984 -8.51397e-06 0)
(0.0999997 -9.10487e-06 0)
(0.100001 -9.59687e-06 0)
(0.100002 -9.90644e-06 0)
(0.100004 -1.10588e-05 0)
(0.100006 -1.21415e-05 0)
(0.100008 -1.49563e-05 0)
(0.10001 -1.72633e-05 0)
(0.100014 -2.23924e-05 0)
(0.100016 -2.63356e-05 0)
(0.100022 -3.42749e-05 0)
(0.100024 -3.84821e-05 0)
(0.100034 -4.95735e-05 0)
(0.0999965 1.42345e-07 0)
(0.0999964 2.32187e-07 0)
(0.099996 -2.8959e-07 0)
(0.0999961 -1.57436e-06 0)
(0.0999967 -3.35313e-06 0)
(0.0999976 -5.17095e-06 0)
(0.0999985 -6.48806e-06 0)
(0.0999997 -7.11169e-06 0)
(0.100001 -6.99518e-06 0)
(0.100002 -6.73912e-06 0)
(0.100003 -6.35169e-06 0)
(0.100005 -6.97155e-06 0)
(0.100006 -7.64605e-06 0)
(0.100007 -1.02909e-05 0)
(0.100009 -1.25685e-05 0)
(0.100011 -1.78243e-05 0)
(0.100014 -2.2116e-05 0)
(0.100018 -3.01183e-05 0)
(0.100021 -3.47467e-05 0)
(0.100028 -4.5214e-05 0)
(0.0999973 2.67959e-07 0)
(0.0999972 2.90978e-07 0)
(0.0999969 -3.10698e-07 0)
(0.099997 -1.65057e-06 0)
(0.0999975 -3.64323e-06 0)
(0.0999981 -5.8892e-06 0)
(0.0999987 -7.74711e-06 0)
(0.0999995 -8.93209e-06 0)
(0.1 -9.37282e-06 0)
(0.100001 -9.66241e-06 0)
(0.100002 -9.77987e-06 0)
(0.100003 -1.08927e-05 0)
(0.100004 -1.20216e-05 0)
(0.100006 -1.51379e-05 0)
(0.100007 -1.78632e-05 0)
(0.100009 -2.36212e-05 0)
(0.100011 -2.85107e-05 0)
(0.100014 -3.71139e-05 0)
(0.100016 -4.24069e-05 0)
(0.100021 -5.33442e-05 0)
(0.0999981 4.09506e-07 0)
(0.099998 4.60523e-07 0)
(0.0999978 -2.51926e-07 0)
(0.0999978 -1.74131e-06 0)
(0.0999982 -3.93815e-06 0)
(0.0999986 -6.36262e-06 0)
(0.0999991 -8.28019e-06 0)
(0.0999998 -9.3574e-06 0)
(0.100001 -9.54707e-06 0)
(0.100001 -9.50905e-06 0)
(0.100002 -9.31031e-06 0)
(0.100003 -1.02211e-05 0)
(0.100003 -1.12647e-05 0)
(0.100004 -1.44828e-05 0)
(0.100005 -1.74162e-05 0)
(0.100006 -2.34813e-05 0)
(0.100008 -2.87849e-05 0)
(0.10001 -3.75302e-05 0)
(0.100011 -4.31659e-05 0)
(0.100015 -5.35564e-05 0)
(0.0999988 5.12104e-07 0)
(0.0999988 5.69753e-07 0)
(0.0999986 -2.25881e-07 0)
(0.0999987 -1.77407e-06 0)
(0.0999989 -4.02287e-06 0)
(0.0999992 -6.54341e-06 0)
(0.0999995 -8.58594e-06 0)
(0.0999999 -9.78007e-06 0)
(0.1 -1.01123e-05 0)
(0.100001 -1.02601e-05 0)
(0.100001 -1.02454e-05 0)
(0.100002 -1.13259e-05 0)
(0.100002 -1.24902e-05 0)
(0.100003 -1.58058e-05 0)
(0.100003 -1.88013e-05 0)
(0.100004 -2.49441e-05 0)
(0.100005 -3.04119e-05 0)
(0.100006 -3.93723e-05 0)
(0.100007 -4.52961e-05 0)
(0.100009 -5.59786e-05 0)
(0.0999996 5.63194e-07 0)
(0.0999996 6.22671e-07 0)
(0.0999995 -2.05275e-07 0)
(0.0999996 -1.77952e-06 0)
(0.0999996 -4.09452e-06 0)
(0.0999997 -6.71873e-06 0)
(0.0999998 -8.84413e-06 0)
(0.0999999 -1.00768e-05 0)
(0.1 -1.03875e-05 0)
(0.1 -1.04572e-05 0)
(0.1 -1.03537e-05 0)
(0.100001 -1.13884e-05 0)
(0.100001 -1.25633e-05 0)
(0.100001 -1.59685e-05 0)
(0.100001 -1.90977e-05 0)
(0.100001 -2.54023e-05 0)
(0.100002 -3.10443e-05 0)
(0.100002 -4.0066e-05 0)
(0.100002 -4.6106e-05 0)
(0.100003 -5.6571e-05 0)
(0.1 5.63289e-07 0)
(0.1 6.22821e-07 0)
(0.1 -2.0516e-07 0)
(0.1 -1.77945e-06 0)
(0.1 -4.09448e-06 0)
(0.1 -6.71869e-06 0)
(0.1 -8.84408e-06 0)
(0.1 -1.00768e-05 0)
(0.0999999 -1.03875e-05 0)
(0.0999998 -1.04574e-05 0)
(0.0999996 -1.03539e-05 0)
(0.0999994 -1.13886e-05 0)
(0.0999993 -1.25635e-05 0)
(0.0999991 -1.59687e-05 0)
(0.0999989 -1.90977e-05 0)
(0.0999987 -2.54022e-05 0)
(0.0999985 -3.1044e-05 0)
(0.099998 -4.00655e-05 0)
(0.0999978 -4.61055e-05 0)
(0.0999969 -5.65702e-05 0)
(0.100001 5.12373e-07 0)
(0.100001 5.70205e-07 0)
(0.100001 -2.25521e-07 0)
(0.100001 -1.77386e-06 0)
(0.100001 -4.02281e-06 0)
(0.100001 -6.54343e-06 0)
(0.1 -8.58594e-06 0)
(0.1 -9.78e-06 0)
(0.0999997 -1.01124e-05 0)
(0.0999993 -1.02602e-05 0)
(0.0999989 -1.02455e-05 0)
(0.0999985 -1.13256e-05 0)
(0.0999981 -1.249e-05 0)
(0.0999974 -1.58054e-05 0)
(0.0999969 -1.8801e-05 0)
(0.0999959 -2.49437e-05 0)
(0.0999952 -3.04108e-05 0)
(0.0999937 -3.93697e-05 0)
(0.0999931 -4.52923e-05 0)
(0.0999909 -5.59702e-05 0)
(0.100002 4.09921e-07 0)
(0.100002 4.61187e-07 0)
(0.100002 -2.5136e-07 0)
(0.100002 -1.74092e-06 0)
(0.100002 -3.93799e-06 0)
(0.100001 -6.36263e-06 0)
(0.100001 -8.28034e-06 0)
(0.1 -9.35767e-06 0)
(0.0999995 -9.54769e-06 0)
(0.0999987 -9.50977e-06 0)
(0.0999981 -9.31122e-06 0)
(0.0999974 -1.02216e-05 0)
(0.0999967 -1.12653e-05 0)
(0.0999958 -1.44837e-05 0)
(0.0999949 -1.74175e-05 0)
(0.0999935 -2.34834e-05 0)
(0.0999923 -2.87866e-05 0)
(0.0999898 -3.75314e-05 0)
(0.0999885 -4.31661e-05 0)
(0.0999846 -5.35519e-05 0)
(0.100003 2.68502e-07 0)
(0.100003 2.91798e-07 0)
(0.100003 -3.10044e-07 0)
(0.100003 -1.65016e-06 0)
(0.100002 -3.64301e-06 0)
(0.100002 -5.889e-06 0)
(0.100001 -7.74688e-06 0)
(0.100001 -8.93176e-06 0)
(0.0999997 -9.3728e-06 0)
(0.0999987 -9.66233e-06 0)
(0.0999978 -9.78017e-06 0)
(0.0999968 -1.0892e-05 0)
(0.0999957 -1.20212e-05 0)
(0.0999942 -1.51365e-05 0)
(0.0999929 -1.78619e-05 0)
(0.0999907 -2.36187e-05 0)
(0.0999891 -2.85067e-05 0)
(0.0999856 -3.71063e-05 0)
(0.0999843 -4.23971e-05 0)
(0.0999787 -5.33254e-05 0)
(0.100003 1.42922e-07 0)
(0.100004 2.3306e-07 0)
(0.100004 -2.8894e-07 0)
(0.100004 -1.57412e-06 0)
(0.100003 -3.35336e-06 0)
(0.100002 -5.17148e-06 0)
(0.100001 -6.4888e-06 0)
(0.1 -7.11255e-06 0)
(0.0999989 -6.9965e-06 0)
(0.0999976 -6.74035e-06 0)
(0.0999966 -6.35306e-06 0)
(0.0999954 -6.97226e-06 0)
(0.0999943 -7.64708e-06 0)
(0.0999927 -1.02924e-05 0)
(0.0999912 -1.25707e-05 0)
(0.0999886 -1.78277e-05 0)
(0.0999862 -2.21188e-05 0)
(0.0999817 -3.01205e-05 0)
(0.0999792 -3.47477e-05 0)
(0.0999721 -4.52075e-05 0)
(0.100004 -1.54308e-07 0)
(0.100004 -3.43348e-07 0)
(0.100005 -8.87479e-07 0)
(0.100005 -2.05795e-06 0)
(0.100004 -3.77516e-06 0)
(0.100003 -5.6962e-06 0)
(0.100003 -7.3399e-06 0)
(0.100002 -8.5136e-06 0)
(0.1 -9.10509e-06 0)
(0.0999989 -9.5971e-06 0)
(0.0999976 -9.90735e-06 0)
(0.0999959 -1.10586e-05 0)
(0.0999943 -1.21418e-05 0)
(0.0999919 -1.49552e-05 0)
(0.0999899 -1.7263e-05 0)
(0.0999863 -2.23902e-05 0)
(0.0999839 -2.63326e-05 0)
(0.0999781 -3.42672e-05 0)
(0.0999761 -3.84728e-05 0)
(0.0999664 -4.9552e-05 0)
(0.100005 2.2806e-08 0)
(0.100005 4.30935e-07 0)
(0.100005 5.71857e-07 0)
(0.100005 4.93967e-08 0)
(0.100005 -8.3078e-07 0)
(0.100003 -1.69184e-06 0)
(0.100002 -2.19611e-06 0)
(0.1 -2.27006e-06 0)
(0.0999987 -1.84226e-06 0)
(0.0999969 -1.38313e-06 0)
(0.0999955 -7.82746e-07 0)
(0.0999939 -9.697e-07 0)
(0.0999924 -1.06306e-06 0)
(0.09999 -2.74891e-06 0)
(0.0999879 -3.90241e-06 0)
(0.0999841 -7.72268e-06 0)
(0.0999808 -1.02434e-05 0)
(0.099974 -1.68561e-05 0)
(0.0999704 -1.96929e-05 0)
(0.0999596 -3.01363e-05 0)
(0.100006 -3.97242e-07 0)
(0.100006 -1.01347e-06 0)
(0.100007 -1.9759e-06 0)
(0.100007 -3.42844e-06 0)
(0.100006 -5.09386e-06 0)
(0.100005 -6.73884e-06 0)
(0.100004 -8.11947e-06 0)
(0.100003 -9.20063e-06 0)
(0.100001 -9.88051e-06 0)
(0.0999995 -1.05497e-05 0)
(0.0999979 -1.10635e-05 0)
(0.0999958 -1.22262e-05 0)
(0.0999939 -1.32233e-05 0)
(0.0999908 -1.5596e-05 0)
(0.0999883 -1.73243e-05 0)
(0.0999833 -2.14841e-05 0)
(0.0999802 -2.40655e-05 0)
(0.0999714 -3.07767e-05 0)
(0.0999686 -3.32825e-05 0)
(0.0999534 -4.4071e-05 0)
(0.100006 3.13931e-07 0)
(0.100006 1.2411e-06 0)
(0.100006 2.17171e-06 0)
(0.100006 2.95255e-06 0)
(0.100006 3.49969e-06 0)
(0.100004 3.88176e-06 0)
(0.100003 4.27804e-06 0)
(0.100001 4.7493e-06 0)
(0.0999993 5.40348e-06 0)
(0.0999972 6.02801e-06 0)
(0.0999957 6.7816e-06 0)
(0.0999936 7.16287e-06 0)
(0.0999918 7.76578e-06 0)
(0.0999888 7.51973e-06 0)
(0.0999863 7.90426e-06 0)
(0.0999812 6.48379e-06 0)
(0.0999774 6.51675e-06 0)
(0.099968 2.74156e-06 0)
(0.0999639 2.64122e-06 0)
(0.0999481 -6.51999e-06 0)
(0.100007 -8.87326e-07 0)
(0.100008 -2.30146e-06 0)
(0.100008 -3.61422e-06 0)
(0.100009 -5.05045e-06 0)
(0.100008 -6.52269e-06 0)
(0.100007 -7.86895e-06 0)
(0.100005 -8.98217e-06 0)
(0.100004 -9.93778e-06 0)
(0.100002 -1.06772e-05 0)
(0.0999999 -1.1445e-05 0)
(0.0999984 -1.20949e-05 0)
(0.0999959 -1.31656e-05 0)
(0.0999942 -1.40277e-05 0)
(0.0999904 -1.57359e-05 0)
(0.0999883 -1.6758e-05 0)
(0.0999816 -1.94529e-05 0)
(0.099979 -2.03265e-05 0)
(0.0999661 -2.47715e-05 0)
(0.0999638 -2.48394e-05 0)
(0.0999388 -3.36737e-05 0)
)
;

boundaryField
{
    sides
    {
        type            calculated;
        value           nonuniform List<vector> 
40
(
(0.100007 0 0)
(0.100008 0 0)
(0.100008 0 0)
(0.100009 0 0)
(0.100008 0 0)
(0.100007 0 0)
(0.100005 0 0)
(0.100004 0 0)
(0.100002 0 0)
(0.0999999 0 0)
(0.0999984 0 0)
(0.0999959 0 0)
(0.0999942 0 0)
(0.0999904 0 0)
(0.0999883 0 0)
(0.0999816 0 0)
(0.099979 0 0)
(0.0999661 0 0)
(0.0999638 0 0)
(0.0999388 0 0)
(0.0999926 0 0)
(0.0999924 0 0)
(0.0999916 0 0)
(0.0999914 0 0)
(0.0999922 0 0)
(0.0999934 0 0)
(0.0999945 0 0)
(0.0999962 0 0)
(0.0999979 0 0)
(0.1 0 0)
(0.100002 0 0)
(0.100004 0 0)
(0.100006 0 0)
(0.10001 0 0)
(0.100012 0 0)
(0.100018 0 0)
(0.100021 0 0)
(0.100034 0 0)
(0.100036 0 0)
(0.100061 0 0)
)
;
    }
    inlet
    {
        type            calculated;
        value           nonuniform List<vector> 
20
(
(0.0999924 0 0)
(0.0999936 0 0)
(0.0999941 0 0)
(0.0999949 0 0)
(0.0999956 0 0)
(0.0999963 0 0)
(0.0999971 0 0)
(0.0999979 0 0)
(0.0999988 0 0)
(0.0999996 0 0)
(0.1 0 0)
(0.100001 0 0)
(0.100002 0 0)
(0.100003 0 0)
(0.100004 0 0)
(0.100004 0 0)
(0.100005 0 0)
(0.100006 0 0)
(0.100006 0 0)
(0.100008 0 0)
)
;
    }
    outlet
    {
        type            calculated;
        value           nonuniform List<vector> 
20
(
(0.100062 -3.36606e-05 0)
(0.100052 -6.53699e-06 0)
(0.100047 -4.40818e-05 0)
(0.100041 -3.01481e-05 0)
(0.100034 -4.95736e-05 0)
(0.100028 -4.52141e-05 0)
(0.100021 -5.33443e-05 0)
(0.100015 -5.35565e-05 0)
(0.100009 -5.59787e-05 0)
(0.100003 -5.6571e-05 0)
(0.0999969 -5.65702e-05 0)
(0.0999908 -5.59702e-05 0)
(0.0999845 -5.35519e-05 0)
(0.0999785 -5.33253e-05 0)
(0.0999719 -4.52074e-05 0)
(0.0999661 -4.95519e-05 0)
(0.0999593 -3.01362e-05 0)
(0.0999529 -4.40708e-05 0)
(0.0999477 -6.51996e-06 0)
(0.0999379 -3.36734e-05 0)
)
;
    }
    frontAndBack
    {
        type            empty;
    }
}


// ************************************************************************* //
