/*--------------------------------*- C++ -*----------------------------------*\
  =========                 |
  \\      /  F ield         | OpenFOAM: The Open Source CFD Toolbox
   \\    /   O peration     | Website:  https://openfoam.org
    \\  /    A nd           | Version:  7
     \\/     M anipulation  |
\*---------------------------------------------------------------------------*/
FoamFile
{
    version     2.0;
    format      ascii;
    class       volScalarField;
    location    "22";
    object      ddt0(h);
}
// * * * * * * * * * * * * * * * * * * * * * * * * * * * * * * * * * * * * * //

dimensions      [0 1 -1 0 0 0 0];

internalField   nonuniform List<scalar> 
400
(
-5.35293e-08
-6.3824e-08
-7.72958e-08
-7.64869e-08
-7.69065e-08
-7.18953e-08
-7.49016e-08
-7.0835e-08
-6.83656e-08
-6.67987e-08
-6.55041e-08
-6.31008e-08
-6.00427e-08
-5.53483e-08
-4.85411e-08
-4.0273e-08
-3.1848e-08
-2.23608e-08
-1.21246e-08
-3.89828e-09
-5.14624e-08
-5.9807e-08
-7.24289e-08
-7.02363e-08
-7.35991e-08
-6.99906e-08
-6.33116e-08
-6.31894e-08
-6.03536e-08
-5.9836e-08
-5.94088e-08
-5.76633e-08
-5.47609e-08
-5.03923e-08
-4.41501e-08
-3.65387e-08
-2.83849e-08
-1.96466e-08
-1.11286e-08
-3.83004e-09
-4.76926e-08
-5.98764e-08
-6.06957e-08
-8.4856e-08
-7.09038e-08
-5.96325e-08
-5.8532e-08
-5.7623e-08
-5.64377e-08
-5.65183e-08
-5.64357e-08
-5.48866e-08
-5.17629e-08
-4.74051e-08
-4.20175e-08
-3.46866e-08
-2.63248e-08
-1.84533e-08
-1.1617e-08
-4.64747e-09
-3.07334e-08
-3.59893e-08
-3.31153e-08
-4.55605e-08
-1.25659e-08
-4.52886e-08
-5.0534e-08
-5.09261e-08
-5.03817e-08
-5.01824e-08
-5.01221e-08
-4.87633e-08
-4.54254e-08
-4.15721e-08
-3.72488e-08
-3.0762e-08
-2.27864e-08
-1.53903e-08
-9.18791e-09
-3.35642e-09
-3.21714e-08
-2.85301e-08
-4.22306e-08
-1.24799e-08
-3.95792e-08
-2.33185e-08
-2.82976e-08
-3.19417e-08
-3.49988e-08
-3.72319e-08
-3.94633e-08
-4.027e-08
-3.81687e-08
-3.48951e-08
-3.17883e-08
-2.74778e-08
-2.17874e-08
-1.5407e-08
-8.73235e-09
-3.0193e-09
-2.87989e-08
-2.82019e-08
-1.11875e-08
-1.52916e-08
-3.13956e-08
-2.65243e-08
-2.50479e-08
-2.71805e-08
-2.8842e-08
-2.90967e-08
-3.09007e-08
-3.33154e-08
-3.32241e-08
-3.06438e-08
-2.74558e-08
-2.4249e-08
-2.06603e-08
-1.53709e-08
-8.68211e-09
-2.79294e-09
-2.57483e-08
-1.73813e-08
-2.32293e-08
-1.40772e-08
-1.02625e-09
-5.41876e-09
-9.346e-09
-1.1748e-08
-1.44578e-08
-1.78204e-08
-2.05351e-08
-2.20283e-08
-2.2399e-08
-2.17439e-08
-2.0704e-08
-1.96082e-08
-1.80701e-08
-1.49335e-08
-9.7303e-09
-3.54337e-09
-2.0061e-08
-9.71856e-09
-6.80137e-09
-4.95973e-09
2.04481e-10
1.75718e-10
-5.82529e-11
-3.98003e-09
-5.77012e-09
-7.41308e-09
-1.10975e-08
-1.43413e-08
-1.48771e-08
-1.3385e-08
-1.25487e-08
-1.28953e-08
-1.30136e-08
-1.17659e-08
-8.39643e-09
-3.18438e-09
-1.00605e-08
-6.10831e-09
-8.43546e-10
4.95072e-10
1.3852e-09
2.6813e-09
1.12959e-09
4.52475e-10
-6.32353e-10
-4.18045e-09
-6.9805e-09
-8.55093e-09
-9.05365e-09
-7.82068e-09
-6.45868e-09
-6.25462e-09
-6.53968e-09
-6.63009e-09
-5.32837e-09
-2.18072e-09
-4.79585e-09
-1.74138e-09
-2.59839e-10
4.36868e-10
2.07915e-09
2.39815e-09
1.05996e-09
3.21269e-09
8.49574e-10
-1.27028e-09
7.5351e-10
7.42733e-10
-2.43096e-09
-4.42103e-09
-3.89879e-09
-2.56843e-09
-1.85855e-09
-1.89479e-09
-1.62287e-09
-6.12157e-10
4.80522e-09
1.76483e-09
2.99673e-10
-4.03117e-10
-2.04928e-09
-2.369e-09
-1.02535e-09
-3.18828e-09
-8.33684e-10
1.27133e-09
-7.65907e-10
-7.60307e-10
2.40933e-09
4.39451e-09
3.86589e-09
2.52888e-09
1.82288e-09
1.8645e-09
1.59559e-09
6.02658e-10
1.00802e-08
6.15744e-09
9.24355e-10
-4.18468e-10
-1.33318e-09
-2.64373e-09
-1.09795e-09
-4.22592e-10
6.48791e-10
4.18687e-09
6.97864e-09
8.53544e-09
9.02823e-09
7.79307e-09
6.42937e-09
6.21919e-09
6.50377e-09
6.59719e-09
5.30115e-09
2.17279e-09
2.01175e-08
9.77763e-09
6.84803e-09
5.02884e-09
-1.27579e-10
-1.23549e-10
9.73015e-11
4.00893e-09
5.7927e-09
7.42871e-09
1.11001e-08
1.43334e-08
1.48603e-08
1.3359e-08
1.25173e-08
1.28594e-08
1.2977e-08
1.17324e-08
8.37246e-09
3.1785e-09
2.57679e-08
1.74159e-08
2.32748e-08
1.41114e-08
1.07079e-09
5.48015e-09
9.38816e-09
1.17798e-08
1.44841e-08
1.78391e-08
2.05471e-08
2.2026e-08
2.23801e-08
2.17162e-08
2.06734e-08
1.95697e-08
1.80246e-08
1.48904e-08
9.70023e-09
3.53532e-09
2.88154e-08
2.82713e-08
1.11289e-08
1.5422e-08
3.14582e-08
2.65809e-08
2.51e-08
2.72165e-08
2.88632e-08
2.9111e-08
3.09071e-08
3.33075e-08
3.32019e-08
3.06111e-08
2.7415e-08
2.41996e-08
2.06069e-08
1.53224e-08
8.65034e-09
2.78446e-09
3.22223e-08
2.84841e-08
4.23926e-08
1.23753e-08
3.96196e-08
2.33751e-08
2.83539e-08
3.19825e-08
3.50209e-08
3.72392e-08
3.94584e-08
4.02525e-08
3.81367e-08
3.485e-08
3.17365e-08
2.74222e-08
2.17295e-08
1.53532e-08
8.696e-09
3.00814e-09
3.07684e-08
3.61435e-08
3.31915e-08
4.5711e-08
1.26254e-08
4.53081e-08
5.0564e-08
5.09631e-08
5.04057e-08
5.01869e-08
5.01099e-08
4.87372e-08
4.53847e-08
4.15171e-08
3.71851e-08
3.06954e-08
2.27194e-08
1.53287e-08
9.14681e-09
3.34376e-09
4.77561e-08
5.99096e-08
6.06976e-08
8.49046e-08
7.09758e-08
5.96686e-08
5.85733e-08
5.76706e-08
5.64727e-08
5.65265e-08
5.642e-08
5.48518e-08
5.17105e-08
4.73366e-08
4.19388e-08
3.46081e-08
2.62545e-08
1.83947e-08
1.158e-08
4.63513e-09
5.15192e-08
5.98571e-08
7.24763e-08
7.02685e-08
7.36611e-08
7.00221e-08
6.34713e-08
6.31623e-08
6.034e-08
5.98495e-08
5.93985e-08
5.76292e-08
5.47039e-08
5.03148e-08
4.40608e-08
3.64494e-08
2.83064e-08
1.95847e-08
1.1086e-08
3.8137e-09
5.35906e-08
6.38606e-08
7.73871e-08
7.65599e-08
7.69219e-08
7.19956e-08
7.48503e-08
7.09409e-08
6.84347e-08
6.68132e-08
6.54954e-08
6.30618e-08
5.99753e-08
5.52593e-08
4.84412e-08
4.01759e-08
3.17661e-08
2.23005e-08
1.20857e-08
3.88091e-09
)
;

boundaryField
{
    sides
    {
        type            calculated;
        value           nonuniform List<scalar> 
40
(
5.35906e-08
6.38606e-08
7.73871e-08
7.65599e-08
7.69219e-08
7.19956e-08
7.48503e-08
7.09409e-08
6.84347e-08
6.68132e-08
6.54954e-08
6.30618e-08
5.99753e-08
5.52593e-08
4.84412e-08
4.01759e-08
3.17661e-08
2.23005e-08
1.20857e-08
3.88091e-09
-5.35293e-08
-6.3824e-08
-7.72958e-08
-7.64869e-08
-7.69065e-08
-7.18953e-08
-7.49016e-08
-7.0835e-08
-6.83656e-08
-6.67987e-08
-6.55041e-08
-6.31008e-08
-6.00427e-08
-5.53483e-08
-4.85411e-08
-4.0273e-08
-3.1848e-08
-2.23608e-08
-1.21246e-08
-3.89828e-09
)
;
    }
    inlet
    {
        type            calculated;
        value           nonuniform List<scalar> 
20
(
-5.35293e-08
-5.14624e-08
-4.76926e-08
-3.07334e-08
-3.21714e-08
-2.87989e-08
-2.57483e-08
-2.0061e-08
-1.00605e-08
-4.79585e-09
4.80522e-09
1.00802e-08
2.01175e-08
2.57679e-08
2.88154e-08
3.22223e-08
3.07684e-08
4.77561e-08
5.15192e-08
5.35906e-08
)
;
    }
    outlet
    {
        type            calculated;
        value           uniform 0;
    }
    frontAndBack
    {
        type            empty;
    }
}


// ************************************************************************* //
