/*--------------------------------*- C++ -*----------------------------------*\
  =========                 |
  \\      /  F ield         | OpenFOAM: The Open Source CFD Toolbox
   \\    /   O peration     | Website:  https://openfoam.org
    \\  /    A nd           | Version:  7
     \\/     M anipulation  |
\*---------------------------------------------------------------------------*/
FoamFile
{
    version     2.0;
    format      ascii;
    class       volVectorField;
    location    "22";
    object      ddtCorrDdt0(hU);
}
// * * * * * * * * * * * * * * * * * * * * * * * * * * * * * * * * * * * * * //

dimensions      [0 2 -2 0 0 0 0];

internalField   nonuniform List<vector> 
400
(
(-2.33978e-09 1.16682e-09 0)
(2.10301e-09 2.36486e-09 0)
(8.25922e-09 3.06007e-09 0)
(9.55369e-09 6.7156e-09 0)
(4.52367e-09 1.15594e-08 0)
(9.54141e-11 1.46651e-08 0)
(-3.99357e-09 1.35206e-08 0)
(-7.51738e-09 8.74381e-09 0)
(-1.06758e-08 3.56046e-09 0)
(-1.0184e-08 -8.44364e-10 0)
(-5.69615e-09 -3.82214e-09 0)
(-4.53036e-10 -4.69009e-09 0)
(4.31157e-09 -4.22443e-09 0)
(8.54427e-09 -2.04952e-09 0)
(1.04009e-08 -3.52017e-11 0)
(1.23945e-08 2.90147e-09 0)
(7.21456e-09 5.25202e-09 0)
(5.02917e-09 6.39752e-09 0)
(-4.79261e-09 9.04801e-09 0)
(-1.36642e-08 2.56271e-09 0)
(-1.98245e-09 2.87333e-09 0)
(2.27547e-09 7.09259e-09 0)
(8.74089e-09 5.89091e-09 0)
(1.16273e-08 3.20746e-09 0)
(8.48224e-09 2.53468e-09 0)
(3.50261e-09 -7.11482e-11 0)
(-4.10072e-09 2.11309e-09 0)
(-1.19282e-08 2.82142e-09 0)
(-1.61103e-08 9.39802e-10 0)
(-1.49593e-08 -2.21267e-09 0)
(-8.45411e-09 -4.88034e-09 0)
(-1.22946e-09 -5.81073e-09 0)
(4.93287e-09 -5.73569e-09 0)
(9.95037e-09 -4.00462e-09 0)
(1.204e-08 -3.03792e-09 0)
(1.42621e-08 -2.59212e-10 0)
(8.29692e-09 3.47648e-09 0)
(5.14553e-09 5.03914e-09 0)
(-5.30864e-09 1.27875e-08 0)
(-1.49608e-08 6.70713e-09 0)
(-1.46092e-09 5.79506e-10 0)
(1.3581e-09 3.15883e-09 0)
(6.16929e-09 2.26145e-09 0)
(1.40628e-09 5.29043e-09 0)
(-5.45402e-09 1.7389e-08 0)
(-4.9438e-09 2.27932e-08 0)
(-1.84809e-10 1.93421e-08 0)
(-2.3037e-09 1.26675e-08 0)
(-5.43078e-09 4.06373e-09 0)
(-5.62678e-09 -4.63537e-09 0)
(-2.65665e-09 -1.08441e-08 0)
(9.38944e-10 -1.27379e-08 0)
(4.25476e-09 -1.19733e-08 0)
(7.37279e-09 -7.12806e-09 0)
(8.74821e-09 -3.5188e-09 0)
(1.08296e-08 3.16159e-09 0)
(7.04156e-09 1.04671e-08 0)
(5.52872e-09 1.34293e-08 0)
(-2.36304e-09 2.56428e-08 0)
(-9.86555e-09 1.1027e-08 0)
(-2.21405e-09 2.89466e-09 0)
(-4.29797e-10 5.86525e-09 0)
(9.30985e-09 4.62374e-09 0)
(1.69373e-08 1.31904e-08 0)
(1.8621e-08 1.8709e-08 0)
(1.42967e-09 2.84989e-08 0)
(-9.79394e-09 2.96406e-08 0)
(-1.48118e-08 2.2056e-08 0)
(-1.72631e-08 1.04711e-08 0)
(-1.49878e-08 -1.47555e-09 0)
(-8.22466e-09 -1.031e-08 0)
(-1.00739e-09 -1.3485e-08 0)
(5.33921e-09 -1.32549e-08 0)
(1.02766e-08 -7.42761e-09 0)
(1.22753e-08 -3.12276e-09 0)
(1.43701e-08 5.21018e-09 0)
(9.10735e-09 1.4667e-08 0)
(6.2669e-09 1.8624e-08 0)
(-4.80518e-09 3.51534e-08 0)
(-1.36203e-08 1.53973e-08 0)
(-2.05003e-09 3.75598e-09 0)
(-9.38041e-10 7.85788e-09 0)
(5.64011e-09 8.30567e-09 0)
(2.03724e-09 1.00715e-08 0)
(-8.12716e-09 1.87596e-08 0)
(1.47382e-09 2.21712e-08 0)
(3.36295e-09 2.46431e-08 0)
(-9.97526e-10 1.98314e-08 0)
(-4.59097e-09 9.0668e-09 0)
(-4.98641e-09 -3.55429e-09 0)
(-2.82999e-09 -1.3297e-08 0)
(-2.66475e-10 -1.66149e-08 0)
(2.38212e-09 -1.60211e-08 0)
(4.97558e-09 -8.9231e-09 0)
(5.92499e-09 -3.69505e-09 0)
(7.80723e-09 6.52567e-09 0)
(5.7267e-09 1.83554e-08 0)
(5.51006e-09 2.32171e-08 0)
(7.91824e-10 4.31565e-08 0)
(-5.39381e-09 1.91678e-08 0)
(-2.2226e-09 -9.52309e-10 0)
(-1.73523e-09 -3.39305e-10 0)
(5.34066e-09 4.60543e-09 0)
(1.12482e-08 1.36882e-08 0)
(6.09043e-09 3.23822e-08 0)
(-4.86658e-09 4.41994e-08 0)
(-7.19682e-09 4.27452e-08 0)
(-9.77772e-09 3.14525e-08 0)
(-1.14429e-08 1.48261e-08 0)
(-9.52541e-09 -2.43627e-09 0)
(-4.68976e-09 -1.51555e-08 0)
(2.77441e-10 -1.9182e-08 0)
(4.93344e-09 -1.79886e-08 0)
(8.75888e-09 -8.75689e-09 0)
(1.02146e-08 -1.95987e-09 0)
(1.15056e-08 1.07883e-08 0)
(7.23404e-09 2.50715e-08 0)
(4.93073e-09 3.06892e-08 0)
(-3.5133e-09 5.35138e-08 0)
(-9.35541e-09 2.2751e-08 0)
(-2.3933e-09 -2.68657e-09 0)
(-1.40805e-09 -3.56595e-09 0)
(4.10032e-09 6.93644e-10 0)
(2.0524e-09 1.31832e-08 0)
(-2.85711e-11 2.12401e-08 0)
(8.93489e-10 3.42161e-08 0)
(-7.82966e-10 3.92713e-08 0)
(-3.28664e-09 3.20744e-08 0)
(-4.97934e-09 1.70745e-08 0)
(-4.71347e-09 1.4003e-10 0)
(-2.62892e-09 -1.30129e-08 0)
(-2.75564e-10 -1.75686e-08 0)
(1.7594e-09 -1.68871e-08 0)
(3.4788e-09 -7.77217e-09 0)
(4.17132e-09 -1.30143e-09 0)
(5.6578e-09 1.14983e-08 0)
(4.33683e-09 2.67958e-08 0)
(3.98905e-09 3.30317e-08 0)
(3.44417e-10 5.86021e-08 0)
(-3.83942e-09 2.60177e-08 0)
(-1.65768e-09 -5.23189e-09 0)
(-1.6309e-09 -8.2303e-09 0)
(2.86111e-09 -2.00142e-09 0)
(3.26981e-09 1.09258e-08 0)
(1.12178e-09 2.92271e-08 0)
(9.12387e-11 4.1555e-08 0)
(-1.10282e-09 4.42859e-08 0)
(-3.60749e-09 3.44629e-08 0)
(-5.02812e-09 1.65974e-08 0)
(-4.63806e-09 -3.03304e-09 0)
(-2.75989e-09 -1.76656e-08 0)
(-1.86788e-10 -2.20779e-08 0)
(2.65919e-09 -2.03962e-08 0)
(5.08456e-09 -9.04033e-09 0)
(6.12007e-09 -5.18291e-10 0)
(7.19885e-09 1.49791e-08 0)
(4.92409e-09 3.21127e-08 0)
(3.433e-09 3.88033e-08 0)
(-2.02558e-09 6.56808e-08 0)
(-6.06416e-09 2.77244e-08 0)
(-8.57474e-10 -7.64466e-09 0)
(-1.1153e-09 -1.25999e-08 0)
(2.02492e-09 -3.63273e-09 0)
(1.90753e-09 1.09819e-08 0)
(1.84604e-10 2.77934e-08 0)
(-2.61873e-10 4.14359e-08 0)
(-8.17704e-10 4.51748e-08 0)
(-1.59025e-09 3.60432e-08 0)
(-2.11804e-09 1.85307e-08 0)
(-2.22692e-09 -1.16022e-09 0)
(-1.22113e-09 -1.56772e-08 0)
(1.62271e-10 -1.98851e-08 0)
(1.26792e-09 -1.86062e-08 0)
(2.23574e-09 -8.08981e-09 0)
(2.7713e-09 -7.40468e-10 0)
(3.31664e-09 1.38117e-08 0)
(2.39499e-09 3.11568e-08 0)
(1.64313e-09 3.81808e-08 0)
(-6.52343e-10 6.71901e-08 0)
(-2.63005e-09 2.94525e-08 0)
(-3.359e-10 -8.95759e-09 0)
(-7.64977e-11 -1.51022e-08 0)
(7.62161e-10 -5.8847e-09 0)
(4.37061e-10 9.83215e-09 0)
(1.22429e-10 2.76529e-08 0)
(5.52164e-12 4.19761e-08 0)
(-2.52829e-10 4.65e-08 0)
(1.94615e-11 3.70482e-08 0)
(-6.02885e-10 1.81437e-08 0)
(-1.09159e-09 -2.19586e-09 0)
(-2.65854e-10 -1.71353e-08 0)
(2.89431e-10 -2.18461e-08 0)
(7.23823e-11 -2.02967e-08 0)
(1.06133e-10 -8.30091e-09 0)
(7.26278e-10 4.40401e-10 0)
(1.90247e-09 1.60153e-08 0)
(1.96849e-09 3.34752e-08 0)
(1.79905e-09 4.00438e-08 0)
(5.77651e-11 6.8884e-08 0)
(-1.6674e-09 2.94097e-08 0)
(3.3542e-10 -8.95817e-09 0)
(6.82221e-11 -1.51051e-08 0)
(-7.71741e-10 -5.89018e-09 0)
(-4.51312e-10 9.82961e-09 0)
(-1.38709e-10 2.76522e-08 0)
(-2.12706e-11 4.19762e-08 0)
(2.39432e-10 4.6499e-08 0)
(-3.0874e-11 3.70476e-08 0)
(5.95376e-10 1.81445e-08 0)
(1.08438e-09 -2.19406e-09 0)
(2.56395e-10 -1.71319e-08 0)
(-2.96553e-10 -2.18431e-08 0)
(-7.63172e-11 -2.02951e-08 0)
(-1.04201e-10 -8.30086e-09 0)
(-7.24833e-10 4.40122e-10 0)
(-1.90131e-09 1.60158e-08 0)
(-1.96517e-09 3.34735e-08 0)
(-1.79575e-09 4.00439e-08 0)
(-4.19582e-11 6.88827e-08 0)
(1.69924e-09 2.94073e-08 0)
(8.5746e-10 -7.65162e-09 0)
(1.10605e-09 -1.2614e-08 0)
(-2.0322e-09 -3.64727e-09 0)
(-1.91459e-09 1.09714e-08 0)
(-1.9661e-10 2.77892e-08 0)
(2.47037e-10 4.14354e-08 0)
(8.0363e-10 4.51731e-08 0)
(1.5806e-09 3.60404e-08 0)
(2.11171e-09 1.85294e-08 0)
(2.22187e-09 -1.15852e-09 0)
(1.2154e-09 -1.56714e-08 0)
(-1.68111e-10 -1.98807e-08 0)
(-1.27369e-09 -1.86017e-08 0)
(-2.23641e-09 -8.0859e-09 0)
(-2.77215e-09 -7.34585e-10 0)
(-3.31553e-09 1.38242e-08 0)
(-2.38983e-09 3.11604e-08 0)
(-1.63571e-09 3.81883e-08 0)
(6.72954e-10 6.71726e-08 0)
(2.66119e-09 2.94261e-08 0)
(1.65981e-09 -5.24583e-09 0)
(1.62299e-09 -8.24932e-09 0)
(-2.87256e-09 -2.01977e-09 0)
(-3.276e-09 1.09149e-08 0)
(-1.12508e-09 2.9219e-08 0)
(-1.00804e-10 4.15513e-08 0)
(1.08974e-09 4.42845e-08 0)
(3.59612e-09 3.44615e-08 0)
(5.0216e-09 1.65987e-08 0)
(4.63418e-09 -3.02842e-09 0)
(2.75496e-09 -1.7658e-08 0)
(1.83168e-10 -2.20738e-08 0)
(-2.66166e-09 -2.03916e-08 0)
(-5.0817e-09 -9.03355e-09 0)
(-6.11643e-09 -5.07791e-10 0)
(-7.19315e-09 1.49999e-08 0)
(-4.91687e-09 3.21199e-08 0)
(-3.42859e-09 3.88173e-08 0)
(2.03966e-09 6.56651e-08 0)
(6.08654e-09 2.76881e-08 0)
(2.39714e-09 -2.69508e-09 0)
(1.40219e-09 -3.59207e-09 0)
(-4.1123e-09 6.87235e-10 0)
(-2.06291e-09 1.31724e-08 0)
(1.85805e-11 2.12382e-08 0)
(-8.98331e-10 3.42132e-08 0)
(7.75547e-10 3.92684e-08 0)
(3.28028e-09 3.2073e-08 0)
(4.97711e-09 1.70772e-08 0)
(4.71255e-09 1.47575e-10 0)
(2.62844e-09 -1.3e-08 0)
(2.7618e-10 -1.75603e-08 0)
(-1.76035e-09 -1.68795e-08 0)
(-3.47701e-09 -7.76687e-09 0)
(-4.17162e-09 -1.29227e-09 0)
(-5.65668e-09 1.1515e-08 0)
(-4.33338e-09 2.67918e-08 0)
(-3.98546e-09 3.30355e-08 0)
(-3.28959e-10 5.85627e-08 0)
(3.85836e-09 2.59724e-08 0)
(2.2162e-09 -9.53414e-10 0)
(1.74174e-09 -3.55668e-10 0)
(-5.3582e-09 4.59217e-09 0)
(-1.12544e-08 1.36804e-08 0)
(-6.08899e-09 3.23722e-08 0)
(4.85912e-09 4.41949e-08 0)
(7.18952e-09 4.27407e-08 0)
(9.76902e-09 3.14493e-08 0)
(1.14353e-08 1.48268e-08 0)
(9.52035e-09 -2.43286e-09 0)
(4.68688e-09 -1.51499e-08 0)
(-2.78134e-10 -1.91823e-08 0)
(-4.93505e-09 -1.79862e-08 0)
(-8.75551e-09 -8.7476e-09 0)
(-1.02119e-08 -1.94366e-09 0)
(-1.14978e-08 1.08207e-08 0)
(-7.2228e-09 2.50831e-08 0)
(-4.92061e-09 3.07128e-08 0)
(3.53294e-09 5.3495e-08 0)
(9.36453e-09 2.26954e-08 0)
(2.05627e-09 3.74566e-09 0)
(9.25974e-10 7.8429e-09 0)
(-5.6419e-09 8.28014e-09 0)
(-2.07204e-09 1.00747e-08 0)
(8.11264e-09 1.87609e-08 0)
(-1.47464e-09 2.21706e-08 0)
(-3.36552e-09 2.46383e-08 0)
(9.9575e-10 1.98272e-08 0)
(4.59034e-09 9.06749e-09 0)
(4.9859e-09 -3.54772e-09 0)
(2.83065e-09 -1.32857e-08 0)
(2.71542e-10 -1.66099e-08 0)
(-2.37629e-09 -1.60164e-08 0)
(-4.96775e-09 -8.92106e-09 0)
(-5.92248e-09 -3.68684e-09 0)
(-7.80576e-09 6.54317e-09 0)
(-5.72452e-09 1.83496e-08 0)
(-5.51187e-09 2.3222e-08 0)
(-7.86157e-10 4.31108e-08 0)
(5.39639e-09 1.91176e-08 0)
(2.21345e-09 2.88238e-09 0)
(4.39548e-10 5.83743e-09 0)
(-9.30488e-09 4.6018e-09 0)
(-1.69241e-08 1.31761e-08 0)
(-1.86306e-08 1.87122e-08 0)
(-1.44785e-09 2.85012e-08 0)
(9.78233e-09 2.96356e-08 0)
(1.48058e-08 2.20478e-08 0)
(1.72589e-08 1.04664e-08 0)
(1.49831e-08 -1.47688e-09 0)
(8.22229e-09 -1.03087e-08 0)
(1.01035e-09 -1.34884e-08 0)
(-5.33596e-09 -1.3253e-08 0)
(-1.02687e-08 -7.41693e-09 0)
(-1.22717e-08 -3.1026e-09 0)
(-1.43583e-08 5.24506e-09 0)
(-9.09366e-09 1.46777e-08 0)
(-6.25501e-09 1.86465e-08 0)
(4.82854e-09 3.5129e-08 0)
(1.36119e-08 1.53392e-08 0)
(1.4633e-09 5.7444e-10 0)
(-1.3652e-09 3.14422e-09 0)
(-6.18785e-09 2.24762e-09 0)
(-1.41409e-09 5.27506e-09 0)
(5.45659e-09 1.73692e-08 0)
(4.93791e-09 2.27854e-08 0)
(1.76077e-10 1.93392e-08 0)
(2.30103e-09 1.26677e-08 0)
(5.43207e-09 4.06341e-09 0)
(5.62831e-09 -4.63375e-09 0)
(2.65849e-09 -1.08392e-08 0)
(-9.33505e-10 -1.27364e-08 0)
(-4.24927e-09 -1.19717e-08 0)
(-7.36527e-09 -7.12777e-09 0)
(-8.74484e-09 -3.51454e-09 0)
(-1.08257e-08 3.17366e-09 0)
(-7.03785e-09 1.04645e-08 0)
(-5.52955e-09 1.34366e-08 0)
(2.36831e-09 2.5619e-08 0)
(9.85229e-09 1.09972e-08 0)
(1.98516e-09 2.86516e-09 0)
(-2.2744e-09 7.08323e-09 0)
(-8.7439e-09 5.89048e-09 0)
(-1.16407e-08 3.21129e-09 0)
(-8.49478e-09 2.54025e-09 0)
(-3.51376e-09 -7.29261e-11 0)
(4.102e-09 2.11378e-09 0)
(1.19138e-08 2.81608e-09 0)
(1.6102e-08 9.33115e-10 0)
(1.49612e-08 -2.21717e-09 0)
(8.46098e-09 -4.87989e-09 0)
(1.24209e-09 -5.81004e-09 0)
(-4.91979e-09 -5.72891e-09 0)
(-9.93376e-09 -3.99424e-09 0)
(-1.20312e-08 -3.02066e-09 0)
(-1.42475e-08 -2.35706e-10 0)
(-8.28742e-09 3.48071e-09 0)
(-5.1436e-09 5.05197e-09 0)
(5.30863e-09 1.2763e-08 0)
(1.49284e-08 6.66776e-09 0)
(2.34478e-09 1.16158e-09 0)
(-2.09877e-09 2.35872e-09 0)
(-8.2657e-09 3.05695e-09 0)
(-9.56424e-09 6.70676e-09 0)
(-4.53308e-09 1.15602e-08 0)
(-9.07575e-11 1.46627e-08 0)
(3.98168e-09 1.35262e-08 0)
(7.5138e-09 8.74494e-09 0)
(1.06746e-08 3.56213e-09 0)
(1.01836e-08 -8.44901e-10 0)
(5.69882e-09 -3.82357e-09 0)
(4.5654e-10 -4.69334e-09 0)
(-4.31057e-09 -4.22835e-09 0)
(-8.53904e-09 -2.05018e-09 0)
(-1.03974e-08 -3.44097e-11 0)
(-1.23809e-08 2.90634e-09 0)
(-7.20112e-09 5.25389e-09 0)
(-5.02294e-09 6.40751e-09 0)
(4.81356e-09 9.05677e-09 0)
(1.36449e-08 2.55515e-09 0)
)
;

boundaryField
{
    sides
    {
        type            calculated;
        value           nonuniform List<vector> 
40
(
(2.34478e-09 0 0)
(-2.09877e-09 0 0)
(-8.2657e-09 0 0)
(-9.56424e-09 0 0)
(-4.53308e-09 0 0)
(-9.07575e-11 0 0)
(3.98168e-09 0 0)
(7.5138e-09 0 0)
(1.06746e-08 0 0)
(1.01836e-08 0 0)
(5.69882e-09 0 0)
(4.5654e-10 0 0)
(-4.31057e-09 0 0)
(-8.53904e-09 0 0)
(-1.03974e-08 0 0)
(-1.23809e-08 0 0)
(-7.20112e-09 0 0)
(-5.02294e-09 0 0)
(4.81356e-09 0 0)
(1.36449e-08 0 0)
(-2.33978e-09 0 0)
(2.10301e-09 0 0)
(8.25922e-09 0 0)
(9.55369e-09 0 0)
(4.52367e-09 0 0)
(9.54141e-11 0 0)
(-3.99357e-09 0 0)
(-7.51738e-09 0 0)
(-1.06758e-08 0 0)
(-1.0184e-08 0 0)
(-5.69615e-09 0 0)
(-4.53036e-10 0 0)
(4.31157e-09 0 0)
(8.54427e-09 0 0)
(1.04009e-08 0 0)
(1.23945e-08 0 0)
(7.21456e-09 0 0)
(5.02917e-09 0 0)
(-4.79261e-09 0 0)
(-1.36642e-08 0 0)
)
;
    }
    inlet
    {
        type            calculated;
        value           uniform (0 0 0);
    }
    outlet
    {
        type            calculated;
        value           nonuniform List<vector> 
20
(
(-1.36642e-08 2.56271e-09 0)
(-1.49608e-08 6.70713e-09 0)
(-9.86555e-09 1.1027e-08 0)
(-1.36203e-08 1.53973e-08 0)
(-5.39381e-09 1.91678e-08 0)
(-9.35541e-09 2.2751e-08 0)
(-3.83942e-09 2.60177e-08 0)
(-6.06416e-09 2.77244e-08 0)
(-2.63005e-09 2.94525e-08 0)
(-1.6674e-09 2.94097e-08 0)
(1.69924e-09 2.94073e-08 0)
(2.66119e-09 2.94261e-08 0)
(6.08654e-09 2.76881e-08 0)
(3.85836e-09 2.59724e-08 0)
(9.36453e-09 2.26954e-08 0)
(5.39639e-09 1.91176e-08 0)
(1.36119e-08 1.53392e-08 0)
(9.85229e-09 1.09972e-08 0)
(1.49284e-08 6.66776e-09 0)
(1.36449e-08 2.55515e-09 0)
)
;
    }
    frontAndBack
    {
        type            empty;
    }
}


// ************************************************************************* //
