/*--------------------------------*- C++ -*----------------------------------*\
  =========                 |
  \\      /  F ield         | OpenFOAM: The Open Source CFD Toolbox
   \\    /   O peration     | Website:  https://openfoam.org
    \\  /    A nd           | Version:  7
     \\/     M anipulation  |
\*---------------------------------------------------------------------------*/
FoamFile
{
    version     2.0;
    format      ascii;
    class       volVectorField;
    location    "22";
    object      hU;
}
// * * * * * * * * * * * * * * * * * * * * * * * * * * * * * * * * * * * * * //

dimensions      [0 2 -1 0 0 0 0];

internalField   nonuniform List<vector> 
400
(
(0.001 -7.51766e-09 0)
(0.001 -2.0928e-08 0)
(0.001 -3.11687e-08 0)
(0.000999999 -4.03691e-08 0)
(0.001 -5.12084e-08 0)
(0.00100001 -6.4486e-08 0)
(0.00100002 -7.88699e-08 0)
(0.00100003 -9.31114e-08 0)
(0.00100004 -1.048e-07 0)
(0.00100007 -1.15755e-07 0)
(0.00100008 -1.23808e-07 0)
(0.00100011 -1.34202e-07 0)
(0.00100013 -1.41505e-07 0)
(0.00100017 -1.56075e-07 0)
(0.00100018 -1.64313e-07 0)
(0.00100025 -1.88456e-07 0)
(0.00100026 -1.9597e-07 0)
(0.00100038 -2.39935e-07 0)
(0.00100038 -2.4123e-07 0)
(0.00100061 -3.3724e-07 0)
(0.001 6.85371e-09 0)
(0.00100001 1.70837e-08 0)
(0.00100001 2.61289e-08 0)
(0.00100001 3.44902e-08 0)
(0.00100001 4.16825e-08 0)
(0.00100002 4.72309e-08 0)
(0.00100002 5.20441e-08 0)
(0.00100004 5.49864e-08 0)
(0.00100005 5.82088e-08 0)
(0.00100008 6.11361e-08 0)
(0.0010001 6.66727e-08 0)
(0.00100012 7.01144e-08 0)
(0.00100014 7.65726e-08 0)
(0.00100017 7.58914e-08 0)
(0.00100019 8.07669e-08 0)
(0.00100024 6.99548e-08 0)
(0.00100026 7.27351e-08 0)
(0.00100035 3.64584e-08 0)
(0.00100037 3.91002e-08 0)
(0.00100051 -6.29387e-08 0)
(0.001 1.34293e-10 0)
(0.001 -4.04065e-09 0)
(0.001 -9.85014e-09 0)
(0.000999996 -1.68638e-08 0)
(0.000999998 -2.68985e-08 0)
(0.00100001 -4.34339e-08 0)
(0.00100002 -6.21641e-08 0)
(0.00100003 -8.07376e-08 0)
(0.00100004 -9.59658e-08 0)
(0.00100006 -1.09645e-07 0)
(0.00100007 -1.18168e-07 0)
(0.0010001 -1.29344e-07 0)
(0.00100012 -1.3681e-07 0)
(0.00100015 -1.55046e-07 0)
(0.00100017 -1.68606e-07 0)
(0.00100021 -2.02591e-07 0)
(0.00100023 -2.23856e-07 0)
(0.00100031 -2.88791e-07 0)
(0.00100032 -3.09771e-07 0)
(0.00100046 -4.38652e-07 0)
(0.001 5.04722e-09 0)
(0.00100001 1.16661e-08 0)
(0.00100001 1.83116e-08 0)
(0.00100001 2.40869e-08 0)
(0.00100001 2.40723e-08 0)
(0.00100001 1.83878e-08 0)
(0.00100002 8.20192e-09 0)
(0.00100003 -3.11049e-09 0)
(0.00100005 -1.04489e-08 0)
(0.00100007 -1.54888e-08 0)
(0.00100009 -1.44464e-08 0)
(0.00100011 -1.62595e-08 0)
(0.00100012 -1.46102e-08 0)
(0.00100015 -2.48841e-08 0)
(0.00100017 -3.21402e-08 0)
(0.0010002 -6.06938e-08 0)
(0.00100022 -7.98211e-08 0)
(0.00100028 -1.42772e-07 0)
(0.0010003 -1.65393e-07 0)
(0.0010004 -2.98035e-07 0)
(0.000999999 2.71151e-09 0)
(0.001 3.8894e-09 0)
(0.001 2.92435e-09 0)
(0.001 -5.56736e-10 0)
(0.001 -9.52473e-09 0)
(0.00100001 -2.53471e-08 0)
(0.00100002 -4.49277e-08 0)
(0.00100002 -6.64766e-08 0)
(0.00100003 -8.46332e-08 0)
(0.00100005 -1.00305e-07 0)
(0.00100006 -1.08945e-07 0)
(0.00100008 -1.20095e-07 0)
(0.00100009 -1.27575e-07 0)
(0.00100012 -1.47616e-07 0)
(0.00100014 -1.654e-07 0)
(0.00100017 -2.04755e-07 0)
(0.00100019 -2.36407e-07 0)
(0.00100024 -3.11703e-07 0)
(0.00100025 -3.46402e-07 0)
(0.00100034 -4.91186e-07 0)
(0.000999999 2.84902e-09 0)
(0.001 8.23965e-09 0)
(0.00100001 1.29497e-08 0)
(0.001 1.42857e-08 0)
(0.001 8.9646e-09 0)
(0.00100001 -6.63669e-09 0)
(0.00100001 -2.76239e-08 0)
(0.00100002 -4.89337e-08 0)
(0.00100003 -6.42776e-08 0)
(0.00100005 -7.51979e-08 0)
(0.00100006 -7.77183e-08 0)
(0.00100008 -8.27977e-08 0)
(0.00100009 -8.4696e-08 0)
(0.00100011 -1.00448e-07 0)
(0.00100012 -1.1616e-07 0)
(0.00100014 -1.53879e-07 0)
(0.00100016 -1.8748e-07 0)
(0.0010002 -2.62865e-07 0)
(0.00100021 -3.01436e-07 0)
(0.00100027 -4.4767e-07 0)
(0.000999999 1.90367e-09 0)
(0.001 6.69487e-09 0)
(0.001 9.66674e-09 0)
(0.001 8.29382e-09 0)
(0.001 -4.47579e-10 0)
(0.00100001 -1.67667e-08 0)
(0.00100001 -3.96363e-08 0)
(0.00100002 -6.50148e-08 0)
(0.00100002 -8.56372e-08 0)
(0.00100003 -1.0232e-07 0)
(0.00100004 -1.10416e-07 0)
(0.00100006 -1.20844e-07 0)
(0.00100007 -1.27767e-07 0)
(0.00100008 -1.48444e-07 0)
(0.00100009 -1.69017e-07 0)
(0.00100011 -2.1117e-07 0)
(0.00100012 -2.49527e-07 0)
(0.00100016 -3.30042e-07 0)
(0.00100016 -3.73444e-07 0)
(0.00100021 -5.27277e-07 0)
(0.000999999 1.05135e-09 0)
(0.001 6.61868e-09 0)
(0.001 1.08793e-08 0)
(0.001 1.01316e-08 0)
(0.001 1.26106e-09 0)
(0.001 -1.79959e-08 0)
(0.00100001 -4.35476e-08 0)
(0.00100001 -7.04654e-08 0)
(0.00100002 -9.10884e-08 0)
(0.00100003 -1.06246e-07 0)
(0.00100003 -1.11475e-07 0)
(0.00100004 -1.18753e-07 0)
(0.00100005 -1.22856e-07 0)
(0.00100006 -1.4173e-07 0)
(0.00100007 -1.62234e-07 0)
(0.00100008 -2.04755e-07 0)
(0.00100009 -2.46308e-07 0)
(0.00100011 -3.28208e-07 0)
(0.00100011 -3.75943e-07 0)
(0.00100015 -5.30264e-07 0)
(0.001 3.76949e-10 0)
(0.001 6.42547e-09 0)
(0.001 1.10676e-08 0)
(0.001 9.68174e-09 0)
(0.001 -2.64021e-11 0)
(0.001 -1.95111e-08 0)
(0.001 -4.5653e-08 0)
(0.00100001 -7.36078e-08 0)
(0.00100001 -9.54962e-08 0)
(0.00100002 -1.12262e-07 0)
(0.00100002 -1.19362e-07 0)
(0.00100003 -1.28694e-07 0)
(0.00100003 -1.34713e-07 0)
(0.00100004 -1.55224e-07 0)
(0.00100004 -1.77028e-07 0)
(0.00100005 -2.20308e-07 0)
(0.00100005 -2.62553e-07 0)
(0.00100007 -3.45719e-07 0)
(0.00100007 -3.94539e-07 0)
(0.00100009 -5.5295e-07 0)
(0.001 -2.43955e-11 0)
(0.001 6.20907e-09 0)
(0.001 1.10071e-08 0)
(0.001 9.61238e-09 0)
(0.001 -2.99045e-10 0)
(0.001 -2.04016e-08 0)
(0.001 -4.7547e-08 0)
(0.001 -7.6568e-08 0)
(0.001 -9.91759e-08 0)
(0.001 -1.16008e-07 0)
(0.00100001 -1.22509e-07 0)
(0.00100001 -1.30971e-07 0)
(0.00100001 -1.36166e-07 0)
(0.00100001 -1.5628e-07 0)
(0.00100001 -1.78453e-07 0)
(0.00100002 -2.22424e-07 0)
(0.00100002 -2.66392e-07 0)
(0.00100002 -3.50463e-07 0)
(0.00100002 -4.01199e-07 0)
(0.00100003 -5.59517e-07 0)
(0.001 -2.48256e-11 0)
(0.000999999 6.20901e-09 0)
(0.000999999 1.10074e-08 0)
(0.001 9.61303e-09 0)
(0.001 -2.98484e-10 0)
(0.000999999 -2.04011e-08 0)
(0.000999998 -4.75463e-08 0)
(0.000999998 -7.65668e-08 0)
(0.000999997 -9.91746e-08 0)
(0.000999995 -1.16007e-07 0)
(0.000999993 -1.22509e-07 0)
(0.000999991 -1.30972e-07 0)
(0.00099999 -1.36168e-07 0)
(0.000999987 -1.56282e-07 0)
(0.000999986 -1.78454e-07 0)
(0.000999983 -2.22424e-07 0)
(0.000999982 -2.66391e-07 0)
(0.000999978 -3.50458e-07 0)
(0.000999978 -4.01196e-07 0)
(0.00099997 -5.59511e-07 0)
(0.001 3.75024e-10 0)
(0.000999998 6.42462e-09 0)
(0.000999998 1.10683e-08 0)
(0.000999999 9.68312e-09 0)
(0.000999999 -2.51564e-11 0)
(0.000999997 -1.95104e-08 0)
(0.000999995 -4.5653e-08 0)
(0.000999993 -7.36065e-08 0)
(0.000999989 -9.54943e-08 0)
(0.000999984 -1.12258e-07 0)
(0.00099998 -1.19359e-07 0)
(0.000999975 -1.28691e-07 0)
(0.00099997 -1.34708e-07 0)
(0.000999964 -1.55216e-07 0)
(0.000999959 -1.77018e-07 0)
(0.000999951 -2.20296e-07 0)
(0.000999946 -2.62544e-07 0)
(0.000999933 -3.45694e-07 0)
(0.00099993 -3.94526e-07 0)
(0.000999909 -5.52886e-07 0)
(0.001 1.04765e-09 0)
(0.000999998 6.61652e-09 0)
(0.000999997 1.08802e-08 0)
(0.000999998 1.0134e-08 0)
(0.000999998 1.26311e-09 0)
(0.000999996 -1.79941e-08 0)
(0.000999993 -4.3547e-08 0)
(0.000999989 -7.04646e-08 0)
(0.000999983 -9.10889e-08 0)
(0.000999974 -1.06246e-07 0)
(0.000999965 -1.11479e-07 0)
(0.000999956 -1.18758e-07 0)
(0.000999948 -1.22859e-07 0)
(0.000999939 -1.41733e-07 0)
(0.000999931 -1.62236e-07 0)
(0.000999919 -2.04761e-07 0)
(0.000999911 -2.46325e-07 0)
(0.000999891 -3.28215e-07 0)
(0.000999885 -3.75974e-07 0)
(0.000999849 -5.3025e-07 0)
(0.001 1.89936e-09 0)
(0.000999997 6.69277e-09 0)
(0.000999996 9.67016e-09 0)
(0.000999998 8.2983e-09 0)
(0.000999997 -4.43963e-10 0)
(0.000999993 -1.67631e-08 0)
(0.00099999 -3.96324e-08 0)
(0.000999984 -6.50074e-08 0)
(0.000999977 -8.56289e-08 0)
(0.000999967 -1.02308e-07 0)
(0.000999956 -1.10409e-07 0)
(0.000999945 -1.20835e-07 0)
(0.000999933 -1.27758e-07 0)
(0.000999919 -1.48428e-07 0)
(0.000999907 -1.68996e-07 0)
(0.000999886 -2.11138e-07 0)
(0.000999876 -2.49498e-07 0)
(0.000999844 -3.29972e-07 0)
(0.000999839 -3.73393e-07 0)
(0.000999788 -5.27117e-07 0)
(0.001 2.84448e-09 0)
(0.000999996 8.23599e-09 0)
(0.000999994 1.29491e-08 0)
(0.000999996 1.42854e-08 0)
(0.000999997 8.96289e-09 0)
(0.000999995 -6.6401e-09 0)
(0.000999988 -2.76302e-08 0)
(0.000999979 -4.89395e-08 0)
(0.000999967 -6.4285e-08 0)
(0.000999952 -7.5205e-08 0)
(0.000999937 -7.77289e-08 0)
(0.000999922 -8.28078e-08 0)
(0.000999909 -8.47031e-08 0)
(0.000999892 -1.00454e-07 0)
(0.000999879 -1.16165e-07 0)
(0.000999857 -1.5389e-07 0)
(0.000999843 -1.87507e-07 0)
(0.000999805 -2.62876e-07 0)
(0.000999793 -3.01487e-07 0)
(0.000999727 -4.47653e-07 0)
(0.001 2.70853e-09 0)
(0.000999997 3.88945e-09 0)
(0.000999997 2.92877e-09 0)
(0.001 -5.49003e-10 0)
(0.000999997 -9.51765e-09 0)
(0.000999989 -2.53394e-08 0)
(0.000999984 -4.49204e-08 0)
(0.000999978 -6.64661e-08 0)
(0.000999968 -8.46241e-08 0)
(0.000999954 -1.00293e-07 0)
(0.000999939 -1.08941e-07 0)
(0.000999921 -1.20089e-07 0)
(0.000999905 -1.27573e-07 0)
(0.000999882 -1.47604e-07 0)
(0.000999864 -1.65388e-07 0)
(0.000999831 -2.04726e-07 0)
(0.000999814 -2.3639e-07 0)
(0.000999761 -3.11629e-07 0)
(0.000999753 -3.46361e-07 0)
(0.000999665 -4.91e-07 0)
(0.001 5.04279e-09 0)
(0.000999994 1.16624e-08 0)
(0.00099999 1.8311e-08 0)
(0.000999991 2.4087e-08 0)
(0.000999991 2.40698e-08 0)
(0.00099999 1.83818e-08 0)
(0.000999983 8.19258e-09 0)
(0.000999971 -3.11806e-09 0)
(0.000999955 -1.04569e-08 0)
(0.000999934 -1.54937e-08 0)
(0.000999914 -1.44536e-08 0)
(0.000999893 -1.62623e-08 0)
(0.000999875 -1.46097e-08 0)
(0.000999852 -2.48787e-08 0)
(0.000999833 -3.21359e-08 0)
(0.0009998 -6.06883e-08 0)
(0.000999779 -7.98316e-08 0)
(0.000999721 -1.42752e-07 0)
(0.000999704 -1.65412e-07 0)
(0.000999605 -2.97968e-07 0)
(0.001 1.30971e-10 0)
(0.000999998 -4.04301e-09 0)
(0.001 -9.85073e-09 0)
(0.001 -1.68634e-08 0)
(0.001 -2.68974e-08 0)
(0.000999992 -4.34305e-08 0)
(0.000999984 -6.21615e-08 0)
(0.000999975 -8.07349e-08 0)
(0.000999962 -9.59689e-08 0)
(0.000999944 -1.09648e-07 0)
(0.000999926 -1.18181e-07 0)
(0.000999904 -1.29355e-07 0)
(0.000999884 -1.3683e-07 0)
(0.000999854 -1.55054e-07 0)
(0.000999833 -1.68627e-07 0)
(0.000999787 -2.02591e-07 0)
(0.000999766 -2.23884e-07 0)
(0.000999688 -2.88764e-07 0)
(0.000999677 -3.09793e-07 0)
(0.000999535 -4.3856e-07 0)
(0.001 6.85041e-09 0)
(0.000999992 1.70814e-08 0)
(0.000999988 2.61301e-08 0)
(0.000999988 3.44917e-08 0)
(0.000999987 4.16814e-08 0)
(0.000999982 4.72284e-08 0)
(0.000999976 5.20404e-08 0)
(0.000999964 5.49866e-08 0)
(0.000999947 5.8211e-08 0)
(0.000999924 6.11454e-08 0)
(0.000999903 6.66808e-08 0)
(0.000999878 7.01307e-08 0)
(0.000999858 7.65864e-08 0)
(0.000999828 7.59151e-08 0)
(0.000999806 8.07827e-08 0)
(0.00099976 6.99838e-08 0)
(0.000999737 7.27456e-08 0)
(0.000999654 3.65192e-08 0)
(0.000999634 3.91258e-08 0)
(0.000999488 -6.28004e-08 0)
(0.001 -7.5198e-09 0)
(0.000999997 -2.09309e-08 0)
(0.000999998 -3.11729e-08 0)
(0.001 -4.03762e-08 0)
(0.000999999 -5.12191e-08 0)
(0.000999992 -6.45e-08 0)
(0.000999984 -7.88911e-08 0)
(0.000999971 -9.31373e-08 0)
(0.000999957 -1.04833e-07 0)
(0.000999934 -1.15791e-07 0)
(0.000999915 -1.2385e-07 0)
(0.000999888 -1.34246e-07 0)
(0.00099987 -1.41553e-07 0)
(0.000999832 -1.56123e-07 0)
(0.000999815 -1.64368e-07 0)
(0.000999754 -1.88512e-07 0)
(0.000999741 -1.96038e-07 0)
(0.000999623 -2.40006e-07 0)
(0.000999623 -2.41322e-07 0)
(0.000999388 -3.37379e-07 0)
)
;

boundaryField
{
    sides
    {
        type            slip;
    }
    inlet
    {
        type            fixedValue;
        value           uniform (0.001 0 0);
    }
    outlet
    {
        type            zeroGradient;
    }
    frontAndBack
    {
        type            empty;
    }
}


// ************************************************************************* //
