/*--------------------------------*- C++ -*----------------------------------*\
  =========                 |
  \\      /  F ield         | OpenFOAM: The Open Source CFD Toolbox
   \\    /   O peration     | Website:  https://openfoam.org
    \\  /    A nd           | Version:  7
     \\/     M anipulation  |
\*---------------------------------------------------------------------------*/
FoamFile
{
    version     2.0;
    format      ascii;
    class       surfaceScalarField;
    location    "22";
    object      phi;
}
// * * * * * * * * * * * * * * * * * * * * * * * * * * * * * * * * * * * * * //

dimensions      [0 4 -1 0 0 0 0];

internalField   nonuniform List<scalar> 
760
(
5e-06
2.07683e-11
5e-06
1.60358e-11
5e-06
1.52764e-11
5.00001e-06
1.45474e-11
5.00003e-06
6.37035e-12
5.00006e-06
-1.23379e-11
5.00011e-06
-3.51363e-11
5.00018e-06
-5.50522e-11
5.00027e-06
-7.11521e-11
5.00037e-06
-8.69969e-11
5.00048e-06
-9.24616e-11
5.00061e-06
-1.0672e-10
5.00073e-06
-1.08794e-10
5.00088e-06
-1.40129e-10
5.00104e-06
-1.47543e-10
5.00128e-06
-2.21993e-10
5.00152e-06
-2.33413e-10
5.00194e-06
-4.138e-10
5.00236e-06
-4.19623e-10
-9.24244e-10
5.00003e-06
5.46774e-12
5.00005e-06
1.73761e-11
5.00006e-06
2.04575e-11
5.00007e-06
2.37209e-11
5.00008e-06
1.44247e-11
5.0001e-06
-1.49449e-11
5.00015e-06
-6.60287e-11
5.00022e-06
-1.15973e-10
5.00032e-06
-1.5157e-10
5.00043e-06
-1.8213e-10
5.00054e-06
-1.89107e-10
5.00066e-06
-2.10278e-10
5.00078e-06
-2.11948e-10
5.00092e-06
-2.65545e-10
5.00107e-06
-2.89059e-10
5.00127e-06
-4.13054e-10
5.0015e-06
-4.62715e-10
5.00183e-06
-7.33277e-10
5.00219e-06
-7.7399e-10
-1.32694e-09
5e-06
2.3915e-11
4.99999e-06
3.455e-11
4.99999e-06
4.09437e-11
4.99999e-06
4.006e-11
5.00002e-06
8.13946e-12
5.00006e-06
-3.59008e-11
5.0001e-06
-9.37447e-11
5.00016e-06
-1.58972e-10
5.00023e-06
-2.10386e-10
5.00032e-06
-2.54227e-10
5.00042e-06
-2.73073e-10
5.00053e-06
-3.04406e-10
5.00065e-06
-3.19258e-10
5.00078e-06
-3.8644e-10
5.00094e-06
-4.36473e-10
5.00112e-06
-5.85026e-10
5.00135e-06
-6.81867e-10
5.00161e-06
-9.90111e-10
5.00194e-06
-1.09941e-09
-1.78317e-09
5.00002e-06
1.50287e-11
5.00003e-06
3.00697e-11
5.00005e-06
3.98792e-11
5.00006e-06
4.21923e-11
5.00004e-06
2.33254e-11
5.00006e-06
-4.30848e-11
5.00011e-06
-1.30876e-10
5.00019e-06
-2.2042e-10
5.00028e-06
-2.87649e-10
5.00038e-06
-3.41261e-10
5.00048e-06
-3.59521e-10
5.00058e-06
-3.92278e-10
5.00068e-06
-4.06225e-10
5.00079e-06
-4.85007e-10
5.00091e-06
-5.49317e-10
5.00106e-06
-7.25455e-10
5.00124e-06
-8.57084e-10
5.00147e-06
-1.21301e-09
5.00173e-06
-1.3591e-09
-2.02355e-09
5.00001e-06
1.66049e-11
5.00001e-06
3.71555e-11
5.00001e-06
5.05149e-11
5.00001e-06
4.42741e-11
5.00004e-06
5.20616e-12
5.00006e-06
-5.80027e-11
5.00009e-06
-1.51989e-10
5.00013e-06
-2.54826e-10
5.00019e-06
-3.36169e-10
5.00026e-06
-4.01079e-10
5.00034e-06
-4.28986e-10
5.00043e-06
-4.69279e-10
5.00053e-06
-4.93076e-10
5.00064e-06
-5.80922e-10
5.00076e-06
-6.63524e-10
5.00089e-06
-8.52323e-10
5.00106e-06
-1.01169e-09
5.00123e-06
-1.38076e-09
5.00143e-06
-1.55864e-09
-2.30911e-09
5.00001e-06
1.10051e-11
5.00002e-06
3.35192e-11
5.00002e-06
5.0242e-11
5.00002e-06
5.15433e-11
5.00002e-06
1.75552e-11
5.00004e-06
-7.25907e-11
5.00008e-06
-1.84095e-10
5.00013e-06
-3.03099e-10
5.0002e-06
-3.95295e-10
5.00028e-06
-4.66407e-10
5.00035e-06
-4.94062e-10
5.00042e-06
-5.33725e-10
5.0005e-06
-5.56136e-10
5.00057e-06
-6.48865e-10
5.00066e-06
-7.41088e-10
5.00076e-06
-9.44144e-10
5.00088e-06
-1.12733e-09
5.00102e-06
-1.52291e-09
5.0012e-06
-1.73297e-09
-2.46483e-09
5.00001e-06
7.27285e-12
5.00001e-06
3.44343e-11
5.00001e-06
5.36519e-11
5.00001e-06
4.84142e-11
5.00003e-06
5.34164e-12
5.00004e-06
-8.45098e-11
5.00006e-06
-2.04879e-10
5.0001e-06
-3.33569e-10
5.00014e-06
-4.34267e-10
5.00019e-06
-5.11431e-10
5.00025e-06
-5.43032e-10
5.00031e-06
-5.86263e-10
5.00037e-06
-6.13334e-10
5.00044e-06
-7.11232e-10
5.00051e-06
-8.12998e-10
5.0006e-06
-1.02293e-09
5.0007e-06
-1.2209e-09
5.0008e-06
-1.62349e-09
5.00092e-06
-1.84662e-09
-2.62739e-09
5.00001e-06
3.67913e-12
5.00001e-06
3.24316e-11
5.00001e-06
5.44771e-11
5.00001e-06
4.87026e-11
5.00002e-06
2.29647e-12
5.00002e-06
-9.33465e-11
5.00004e-06
-2.22641e-10
5.00007e-06
-3.60934e-10
5.00011e-06
-4.68747e-10
5.00015e-06
-5.50454e-10
5.00019e-06
-5.83009e-10
5.00024e-06
-6.25864e-10
5.00028e-06
-6.52071e-10
5.00033e-06
-7.51484e-10
5.00037e-06
-8.57851e-10
5.00043e-06
-1.07293e-09
5.00049e-06
-1.28261e-09
5.00057e-06
-1.69614e-09
5.00066e-06
-1.93966e-09
-2.71628e-09
5e-06
4.81154e-13
5.00001e-06
3.10229e-11
5.00001e-06
5.45658e-11
5.00001e-06
4.78118e-11
5.00001e-06
-1.21242e-12
5.00002e-06
-1.00817e-10
5.00003e-06
-2.34795e-10
5.00005e-06
-3.77604e-10
5.00007e-06
-4.88892e-10
5.00009e-06
-5.72373e-10
5.00011e-06
-6.05186e-10
5.00014e-06
-6.48306e-10
5.00016e-06
-6.75478e-10
5.00019e-06
-7.76895e-10
5.00022e-06
-8.87386e-10
5.00026e-06
-1.10646e-09
5.0003e-06
-1.32292e-09
5.00035e-06
-1.74115e-09
5.0004e-06
-1.98834e-09
-2.77883e-09
5e-06
-3.61288e-13
5e-06
3.0485e-11
5e-06
5.39687e-11
5e-06
4.67211e-11
5e-06
-2.92844e-12
5.00001e-06
-1.03568e-10
5.00001e-06
-2.38477e-10
5.00001e-06
-3.82899e-10
5.00002e-06
-4.95518e-10
5.00003e-06
-5.79928e-10
5.00004e-06
-6.13714e-10
5.00005e-06
-6.57913e-10
5.00006e-06
-6.8537e-10
5.00007e-06
-7.8653e-10
5.00008e-06
-8.96853e-10
5.00009e-06
-1.11533e-09
5.0001e-06
-1.33336e-09
5.00011e-06
-1.75232e-09
5.00013e-06
-2.00576e-09
-2.79841e-09
5e-06
4.76918e-13
5e-06
3.10222e-11
5e-06
5.45693e-11
5e-06
4.78186e-11
5e-06
-1.20595e-12
4.99999e-06
-1.00811e-10
4.99999e-06
-2.34793e-10
4.99999e-06
-3.77599e-10
4.99998e-06
-4.88887e-10
4.99997e-06
-5.72366e-10
4.99996e-06
-6.05184e-10
4.99995e-06
-6.48303e-10
4.99994e-06
-6.75472e-10
4.99993e-06
-7.76883e-10
4.99992e-06
-8.87368e-10
4.99991e-06
-1.10643e-09
4.9999e-06
-1.32292e-09
4.99989e-06
-1.74111e-09
4.99987e-06
-1.98835e-09
-2.77868e-09
5e-06
3.66497e-12
4.99999e-06
3.24218e-11
4.99999e-06
5.44775e-11
4.99999e-06
4.871e-11
4.99999e-06
2.3035e-12
4.99998e-06
-9.33411e-11
4.99997e-06
-2.22638e-10
4.99995e-06
-3.60924e-10
4.99993e-06
-4.68737e-10
4.99991e-06
-5.50438e-10
4.99989e-06
-5.83004e-10
4.99986e-06
-6.25858e-10
4.99984e-06
-6.52061e-10
4.99981e-06
-7.51465e-10
4.99978e-06
-8.57823e-10
4.99974e-06
-1.0729e-09
4.9997e-06
-1.2826e-09
4.99965e-06
-1.69605e-09
4.9996e-06
-1.93964e-09
-2.71604e-09
4.99999e-06
7.24943e-12
4.99999e-06
3.44246e-11
4.99999e-06
5.36523e-11
4.99999e-06
4.8431e-11
4.99998e-06
5.35284e-12
4.99998e-06
-8.45044e-11
4.99996e-06
-2.04878e-10
4.99993e-06
-3.3356e-10
4.99989e-06
-4.3426e-10
4.99985e-06
-5.11416e-10
4.99981e-06
-5.43034e-10
4.99976e-06
-5.86262e-10
4.99972e-06
-6.1333e-10
4.99967e-06
-7.11208e-10
4.99963e-06
-8.12962e-10
4.99957e-06
-1.02288e-09
4.99951e-06
-1.22089e-09
4.99943e-06
-1.62337e-09
4.99934e-06
-1.84663e-09
-2.62699e-09
4.99999e-06
1.09862e-11
4.99999e-06
3.35014e-11
4.99999e-06
5.02567e-11
4.99999e-06
5.15518e-11
4.99997e-06
1.75621e-11
4.99996e-06
-7.25824e-11
4.99994e-06
-1.8409e-10
4.9999e-06
-3.03082e-10
4.99986e-06
-3.9528e-10
4.99981e-06
-4.66384e-10
4.99975e-06
-4.9406e-10
4.99969e-06
-5.33718e-10
4.99963e-06
-5.56123e-10
4.99956e-06
-6.4883e-10
4.99948e-06
-7.41043e-10
4.9994e-06
-9.44083e-10
4.9993e-06
-1.12732e-09
4.9992e-06
-1.52275e-09
4.99908e-06
-1.73295e-09
-2.46437e-09
4.99999e-06
1.65836e-11
4.99998e-06
3.71513e-11
4.99998e-06
5.05154e-11
4.99998e-06
4.42954e-11
4.99998e-06
5.21498e-12
4.99996e-06
-5.7999e-11
4.99992e-06
-1.51995e-10
4.99987e-06
-2.54823e-10
4.9998e-06
-3.36174e-10
4.99972e-06
-4.01075e-10
4.99965e-06
-4.29008e-10
4.99958e-06
-4.69294e-10
4.9995e-06
-4.93093e-10
4.99943e-06
-5.80909e-10
4.99934e-06
-6.63508e-10
4.99924e-06
-8.5227e-10
4.99912e-06
-1.0117e-09
4.99898e-06
-1.38058e-09
4.9988e-06
-1.55865e-09
-2.3086e-09
4.99999e-06
1.50082e-11
4.99999e-06
3.00479e-11
4.99999e-06
3.98834e-11
4.99999e-06
4.22113e-11
4.99996e-06
2.33301e-11
4.99994e-06
-4.30711e-11
4.99991e-06
-1.30873e-10
4.99986e-06
-2.20405e-10
4.99981e-06
-2.87641e-10
4.99974e-06
-3.41238e-10
4.99966e-06
-3.59528e-10
4.99957e-06
-3.92267e-10
4.99947e-06
-4.06219e-10
4.99936e-06
-4.84962e-10
4.99924e-06
-5.49282e-10
4.99911e-06
-7.25381e-10
4.99894e-06
-8.57091e-10
4.99877e-06
-1.21281e-09
4.99857e-06
-1.35908e-09
-2.02295e-09
4.99998e-06
2.38882e-11
4.99997e-06
3.45313e-11
4.99995e-06
4.09341e-11
4.99994e-06
4.0056e-11
4.99996e-06
8.12818e-12
4.99994e-06
-3.59097e-11
4.99989e-06
-9.37641e-11
4.99981e-06
-1.58987e-10
4.99972e-06
-2.10415e-10
4.99962e-06
-2.54247e-10
4.99952e-06
-2.73121e-10
4.99942e-06
-3.04439e-10
4.99932e-06
-3.19303e-10
4.99921e-06
-3.86446e-10
4.99909e-06
-4.36504e-10
4.99894e-06
-5.84995e-10
4.99876e-06
-6.81933e-10
4.99853e-06
-9.8995e-10
4.99827e-06
-1.09946e-09
-1.78271e-09
5e-06
5.45469e-12
5.00001e-06
1.73679e-11
5.00001e-06
2.04523e-11
5.00001e-06
2.37322e-11
4.99998e-06
1.44303e-11
4.99994e-06
-1.49364e-11
4.9999e-06
-6.60255e-11
4.99984e-06
-1.15958e-10
4.99977e-06
-1.51569e-10
4.99968e-06
-1.82109e-10
4.99958e-06
-1.89119e-10
4.99947e-06
-2.10259e-10
4.99935e-06
-2.11963e-10
4.99922e-06
-2.65502e-10
4.99906e-06
-2.89074e-10
4.99888e-06
-4.12983e-10
4.99865e-06
-4.62774e-10
4.99839e-06
-7.3307e-10
4.99806e-06
-7.74004e-10
-1.3264e-09
4.99997e-06
2.07514e-11
4.99995e-06
1.602e-11
4.99994e-06
1.52642e-11
4.99993e-06
1.45273e-11
4.99992e-06
6.338e-12
4.9999e-06
-1.23849e-11
4.99985e-06
-3.51324e-11
4.99978e-06
-5.51167e-11
4.99968e-06
-7.12154e-11
4.99957e-06
-8.70519e-11
4.99946e-06
-9.25322e-11
4.99934e-06
-1.0678e-10
4.99922e-06
-1.08868e-10
4.99909e-06
-1.40184e-10
4.99893e-06
-1.4763e-10
4.99873e-06
-2.22055e-10
4.9985e-06
-2.33543e-10
4.99817e-06
-4.13828e-10
4.99782e-06
-4.19782e-10
-9.24233e-10
5e-06
5e-06
5e-06
4.99999e-06
4.99997e-06
4.99994e-06
4.99989e-06
4.99982e-06
4.99973e-06
4.99963e-06
4.99952e-06
4.99939e-06
4.99927e-06
4.99912e-06
4.99896e-06
4.99872e-06
4.99848e-06
4.99806e-06
4.99764e-06
)
;

boundaryField
{
    sides
    {
        type            calculated;
        value           uniform 0;
    }
    inlet
    {
        type            calculated;
        value           nonuniform List<scalar> 
20
(
-5e-06
-5e-06
-5e-06
-5e-06
-5e-06
-5e-06
-5e-06
-5e-06
-5e-06
-5e-06
-5e-06
-5e-06
-5e-06
-5e-06
-5e-06
-5e-06
-5e-06
-5e-06
-5e-06
-5e-06
)
;
    }
    outlet
    {
        type            calculated;
        value           nonuniform List<scalar> 
20
(
5.00328e-06
5.00259e-06
5.0024e-06
5.00197e-06
5.00172e-06
5.00136e-06
5.00108e-06
5.00075e-06
5.00046e-06
5.00015e-06
4.99985e-06
4.99954e-06
4.99925e-06
4.99892e-06
4.99864e-06
4.99828e-06
4.99803e-06
4.9976e-06
4.99741e-06
4.99672e-06
)
;
    }
    frontAndBack
    {
        type            empty;
        value           nonuniform 0();
    }
}


// ************************************************************************* //
