/*--------------------------------*- C++ -*----------------------------------*\
  =========                 |
  \\      /  F ield         | OpenFOAM: The Open Source CFD Toolbox
   \\    /   O peration     | Website:  https://openfoam.org
    \\  /    A nd           | Version:  7
     \\/     M anipulation  |
\*---------------------------------------------------------------------------*/
FoamFile
{
    version     2.0;
    format      ascii;
    class       volVectorField;
    location    "22";
    object      U;
}
// * * * * * * * * * * * * * * * * * * * * * * * * * * * * * * * * * * * * * //

dimensions      [0 1 -1 0 0 0 0];

internalField   nonuniform List<vector> 
400
(
(0.0999924 -7.51709e-07 0)
(0.0999927 -2.09264e-06 0)
(0.0999927 -3.11664e-06 0)
(0.0999926 -4.03661e-06 0)
(0.0999928 -5.12047e-06 0)
(0.0999937 -6.44813e-06 0)
(0.0999946 -7.88644e-06 0)
(0.099996 -9.3105e-06 0)
(0.0999976 -1.04793e-05 0)
(0.1 -1.15747e-05 0)
(0.100002 -1.238e-05 0)
(0.100005 -1.34194e-05 0)
(0.100007 -1.41497e-05 0)
(0.100011 -1.56067e-05 0)
(0.100014 -1.64305e-05 0)
(0.10002 -1.88448e-05 0)
(0.100022 -1.95963e-05 0)
(0.100035 -2.39927e-05 0)
(0.100036 -2.41225e-05 0)
(0.10006 -3.37237e-05 0)
(0.0999936 6.85327e-07 0)
(0.0999945 1.70826e-06 0)
(0.0999951 2.61273e-06 0)
(0.0999951 3.44881e-06 0)
(0.0999953 4.168e-06 0)
(0.099996 4.72282e-06 0)
(0.0999967 5.20412e-06 0)
(0.099998 5.49833e-06 0)
(0.0999999 5.82056e-06 0)
(0.100002 6.11329e-06 0)
(0.100005 6.66694e-06 0)
(0.100007 7.01111e-06 0)
(0.10001 7.65692e-06 0)
(0.100013 7.58883e-06 0)
(0.100016 8.07639e-06 0)
(0.100021 6.99526e-06 0)
(0.100024 7.27331e-06 0)
(0.100033 3.64577e-06 0)
(0.100035 3.90997e-06 0)
(0.100051 -6.29384e-06 0)
(0.0999941 1.34286e-08 0)
(0.0999944 -4.04041e-07 0)
(0.0999943 -9.84957e-07 0)
(0.0999939 -1.68629e-06 0)
(0.0999942 -2.6897e-06 0)
(0.0999952 -4.34315e-06 0)
(0.0999961 -6.21607e-06 0)
(0.0999972 -8.07333e-06 0)
(0.0999986 -9.59608e-06 0)
(0.100001 -1.09639e-05 0)
(0.100003 -1.18162e-05 0)
(0.100005 -1.29338e-05 0)
(0.100007 -1.36805e-05 0)
(0.100011 -1.5504e-05 0)
(0.100013 -1.68601e-05 0)
(0.100018 -2.02585e-05 0)
(0.100021 -2.2385e-05 0)
(0.100029 -2.88785e-05 0)
(0.100031 -3.09767e-05 0)
(0.100046 -4.3865e-05 0)
(0.099995 5.04697e-07 0)
(0.0999957 1.16655e-06 0)
(0.0999962 1.83107e-06 0)
(0.0999962 2.40858e-06 0)
(0.0999962 2.40712e-06 0)
(0.0999966 1.8387e-06 0)
(0.0999973 8.20156e-07 0)
(0.0999986 -3.11036e-07 0)
(0.1 -1.04485e-06 0)
(0.100003 -1.54882e-06 0)
(0.100005 -1.44459e-06 0)
(0.100007 -1.62589e-06 0)
(0.100009 -1.46097e-06 0)
(0.100012 -2.48833e-06 0)
(0.100014 -3.21393e-06 0)
(0.100018 -6.06924e-06 0)
(0.10002 -7.98196e-06 0)
(0.100027 -1.42771e-05 0)
(0.100029 -1.65391e-05 0)
(0.100039 -2.98035e-05 0)
(0.0999958 2.7114e-07 0)
(0.0999962 3.88924e-07 0)
(0.0999962 2.92423e-07 0)
(0.0999959 -5.56714e-08 0)
(0.0999962 -9.52434e-07 0)
(0.0999971 -2.53461e-06 0)
(0.0999976 -4.4926e-06 0)
(0.0999984 -6.64741e-06 0)
(0.0999995 -8.46301e-06 0)
(0.100001 -1.00301e-05 0)
(0.100003 -1.08941e-05 0)
(0.100005 -1.20092e-05 0)
(0.100007 -1.27571e-05 0)
(0.100009 -1.47612e-05 0)
(0.100011 -1.65396e-05 0)
(0.100015 -2.04751e-05 0)
(0.100017 -2.36403e-05 0)
(0.100023 -3.11699e-05 0)
(0.100024 -3.46399e-05 0)
(0.100033 -4.91185e-05 0)
(0.0999965 2.84892e-07 0)
(0.0999971 8.23937e-07 0)
(0.0999973 1.29493e-06 0)
(0.0999971 1.42852e-06 0)
(0.099997 8.96431e-07 0)
(0.0999974 -6.63648e-07 0)
(0.0999981 -2.7623e-06 0)
(0.099999 -4.89323e-06 0)
(0.1 -6.42757e-06 0)
(0.100002 -7.51958e-06 0)
(0.100004 -7.77163e-06 0)
(0.100005 -8.27956e-06 0)
(0.100007 -8.4694e-06 0)
(0.100009 -1.00446e-05 0)
(0.10001 -1.16158e-05 0)
(0.100013 -1.53877e-05 0)
(0.100014 -1.87477e-05 0)
(0.100019 -2.62863e-05 0)
(0.10002 -3.01434e-05 0)
(0.100027 -4.47669e-05 0)
(0.0999973 1.90362e-07 0)
(0.0999977 6.69469e-07 0)
(0.0999978 9.6665e-07 0)
(0.0999976 8.29361e-07 0)
(0.0999978 -4.47568e-08 0)
(0.0999982 -1.67663e-06 0)
(0.0999986 -3.96353e-06 0)
(0.0999992 -6.50133e-06 0)
(0.1 -8.56352e-06 0)
(0.100001 -1.02318e-05 0)
(0.100002 -1.10414e-05 0)
(0.100004 -1.20842e-05 0)
(0.100005 -1.27765e-05 0)
(0.100007 -1.48442e-05 0)
(0.100008 -1.69015e-05 0)
(0.10001 -2.11167e-05 0)
(0.100011 -2.49524e-05 0)
(0.100015 -3.3004e-05 0)
(0.100016 -3.73442e-05 0)
(0.100021 -5.27276e-05 0)
(0.0999981 1.05133e-07 0)
(0.0999984 6.61856e-07 0)
(0.0999985 1.08791e-06 0)
(0.0999983 1.01314e-06 0)
(0.0999984 1.26104e-07 0)
(0.0999986 -1.79956e-06 0)
(0.0999989 -4.35468e-06 0)
(0.0999994 -7.04642e-06 0)
(0.1 -9.10869e-06 0)
(0.100001 -1.06244e-05 0)
(0.100002 -1.11474e-05 0)
(0.100003 -1.18751e-05 0)
(0.100004 -1.22854e-05 0)
(0.100005 -1.41728e-05 0)
(0.100006 -1.62232e-05 0)
(0.100007 -2.04753e-05 0)
(0.100008 -2.46306e-05 0)
(0.10001 -3.28207e-05 0)
(0.100011 -3.75941e-05 0)
(0.100015 -5.30264e-05 0)
(0.0999989 3.76944e-08 0)
(0.0999991 6.4254e-07 0)
(0.0999991 1.10675e-06 0)
(0.099999 9.68164e-07 0)
(0.099999 -2.64018e-09 0)
(0.0999992 -1.95109e-06 0)
(0.0999994 -4.56525e-06 0)
(0.0999997 -7.3607e-06 0)
(0.1 -9.54952e-06 0)
(0.100001 -1.12261e-05 0)
(0.100001 -1.19361e-05 0)
(0.100002 -1.28693e-05 0)
(0.100002 -1.34712e-05 0)
(0.100003 -1.55222e-05 0)
(0.100003 -1.77027e-05 0)
(0.100004 -2.20307e-05 0)
(0.100005 -2.62552e-05 0)
(0.100006 -3.45718e-05 0)
(0.100007 -3.94538e-05 0)
(0.100009 -5.5295e-05 0)
(0.0999996 -2.43954e-09 0)
(0.0999997 6.20905e-07 0)
(0.0999997 1.1007e-06 0)
(0.0999997 9.61234e-07 0)
(0.0999997 -2.99044e-08 0)
(0.0999997 -2.04016e-06 0)
(0.0999998 -4.75468e-06 0)
(0.0999999 -7.65678e-06 0)
(0.1 -9.91756e-06 0)
(0.1 -1.16007e-05 0)
(0.1 -1.22509e-05 0)
(0.100001 -1.3097e-05 0)
(0.100001 -1.36166e-05 0)
(0.100001 -1.5628e-05 0)
(0.100001 -1.78453e-05 0)
(0.100002 -2.22424e-05 0)
(0.100002 -2.66391e-05 0)
(0.100002 -3.50462e-05 0)
(0.100002 -4.01198e-05 0)
(0.100003 -5.59517e-05 0)
(0.1 -2.48257e-09 0)
(0.1 6.20904e-07 0)
(0.1 1.10074e-06 0)
(0.1 9.61306e-07 0)
(0.1 -2.98485e-08 0)
(0.1 -2.04012e-06 0)
(0.1 -4.75465e-06 0)
(0.1 -7.6567e-06 0)
(0.1 -9.91749e-06 0)
(0.0999998 -1.16007e-05 0)
(0.0999996 -1.2251e-05 0)
(0.0999994 -1.30972e-05 0)
(0.0999992 -1.36168e-05 0)
(0.099999 -1.56282e-05 0)
(0.0999987 -1.78454e-05 0)
(0.0999985 -2.22424e-05 0)
(0.0999983 -2.66391e-05 0)
(0.0999979 -3.50459e-05 0)
(0.0999978 -4.01196e-05 0)
(0.0999971 -5.59511e-05 0)
(0.100001 3.75028e-08 0)
(0.100001 6.42469e-07 0)
(0.100001 1.10684e-06 0)
(0.100001 9.68323e-07 0)
(0.100001 -2.51567e-09 0)
(0.100001 -1.95106e-06 0)
(0.100001 -4.56535e-06 0)
(0.1 -7.36072e-06 0)
(0.0999999 -9.54952e-06 0)
(0.0999994 -1.12259e-05 0)
(0.0999989 -1.1936e-05 0)
(0.0999983 -1.28692e-05 0)
(0.0999978 -1.34709e-05 0)
(0.0999971 -1.55217e-05 0)
(0.0999965 -1.77019e-05 0)
(0.0999956 -2.20297e-05 0)
(0.099995 -2.62545e-05 0)
(0.0999936 -3.45695e-05 0)
(0.0999931 -3.94527e-05 0)
(0.099991 -5.52886e-05 0)
(0.100002 1.04767e-07 0)
(0.100002 6.61665e-07 0)
(0.100002 1.08804e-06 0)
(0.100002 1.01341e-06 0)
(0.100002 1.26313e-07 0)
(0.100001 -1.79944e-06 0)
(0.100001 -4.35478e-06 0)
(0.100001 -7.04658e-06 0)
(0.0999999 -9.10904e-06 0)
(0.099999 -1.06248e-05 0)
(0.099998 -1.11481e-05 0)
(0.099997 -1.18759e-05 0)
(0.0999961 -1.22861e-05 0)
(0.099995 -1.41735e-05 0)
(0.0999941 -1.62238e-05 0)
(0.0999927 -2.04762e-05 0)
(0.0999918 -2.46326e-05 0)
(0.0999896 -3.28217e-05 0)
(0.0999888 -3.75975e-05 0)
(0.099985 -5.3025e-05 0)
(0.100003 1.89941e-07 0)
(0.100002 6.69295e-07 0)
(0.100002 9.67041e-07 0)
(0.100002 8.29851e-07 0)
(0.100002 -4.43974e-08 0)
(0.100002 -1.67635e-06 0)
(0.100001 -3.96334e-06 0)
(0.100001 -6.50089e-06 0)
(0.1 -8.56309e-06 0)
(0.0999989 -1.0231e-05 0)
(0.0999977 -1.10411e-05 0)
(0.0999964 -1.20837e-05 0)
(0.0999952 -1.2776e-05 0)
(0.0999935 -1.4843e-05 0)
(0.0999921 -1.68999e-05 0)
(0.0999899 -2.1114e-05 0)
(0.0999885 -2.49501e-05 0)
(0.0999851 -3.29974e-05 0)
(0.0999843 -3.73395e-05 0)
(0.0999789 -5.27117e-05 0)
(0.100003 2.84458e-07 0)
(0.100003 8.23627e-07 0)
(0.100003 1.29495e-06 0)
(0.100003 1.42859e-06 0)
(0.100003 8.96317e-07 0)
(0.100003 -6.64031e-07 0)
(0.100002 -2.7631e-06 0)
(0.100001 -4.8941e-06 0)
(0.0999997 -6.42869e-06 0)
(0.099998 -7.52072e-06 0)
(0.0999964 -7.7731e-06 0)
(0.0999947 -8.28099e-06 0)
(0.0999932 -8.4705e-06 0)
(0.0999913 -1.00456e-05 0)
(0.0999897 -1.16168e-05 0)
(0.0999872 -1.53892e-05 0)
(0.0999855 -1.87509e-05 0)
(0.0999814 -2.62878e-05 0)
(0.0999798 -3.01489e-05 0)
(0.0999729 -4.47654e-05 0)
(0.100004 2.70864e-07 0)
(0.100004 3.88961e-07 0)
(0.100004 2.92889e-07 0)
(0.100004 -5.49026e-08 0)
(0.100004 -9.51803e-07 0)
(0.100003 -2.53404e-06 0)
(0.100002 -4.49222e-06 0)
(0.100002 -6.64686e-06 0)
(0.100001 -8.46272e-06 0)
(0.0999989 -1.00296e-05 0)
(0.0999973 -1.08945e-05 0)
(0.0999953 -1.20093e-05 0)
(0.0999934 -1.27577e-05 0)
(0.0999908 -1.47608e-05 0)
(0.0999887 -1.65392e-05 0)
(0.0999851 -2.0473e-05 0)
(0.099983 -2.36394e-05 0)
(0.0999774 -3.11633e-05 0)
(0.0999761 -3.46363e-05 0)
(0.0999668 -4.91002e-05 0)
(0.100005 5.04304e-07 0)
(0.100004 1.1663e-06 0)
(0.100004 1.83119e-06 0)
(0.100004 2.40881e-06 0)
(0.100004 2.40709e-06 0)
(0.100003 1.83826e-06 0)
(0.100003 8.19294e-07 0)
(0.100001 -3.11819e-07 0)
(0.0999996 -1.04573e-06 0)
(0.0999974 -1.54944e-06 0)
(0.0999952 -1.44541e-06 0)
(0.0999929 -1.62629e-06 0)
(0.0999909 -1.46102e-06 0)
(0.0999882 -2.48795e-06 0)
(0.099986 -3.21367e-06 0)
(0.0999823 -6.06897e-06 0)
(0.0999798 -7.98331e-06 0)
(0.0999735 -1.42754e-05 0)
(0.0999712 -1.65413e-05 0)
(0.0999607 -2.97969e-05 0)
(0.100006 1.30979e-08 0)
(0.100006 -4.04325e-07 0)
(0.100006 -9.8513e-07 0)
(0.100006 -1.68644e-06 0)
(0.100006 -2.68989e-06 0)
(0.100005 -4.34329e-06 0)
(0.100004 -6.21649e-06 0)
(0.100003 -8.07391e-06 0)
(0.100001 -9.59738e-06 0)
(0.0999994 -1.09653e-05 0)
(0.0999974 -1.18187e-05 0)
(0.0999948 -1.29361e-05 0)
(0.0999926 -1.36836e-05 0)
(0.0999892 -1.5506e-05 0)
(0.0999867 -1.68633e-05 0)
(0.0999817 -2.02597e-05 0)
(0.0999791 -2.23889e-05 0)
(0.0999707 -2.88769e-05 0)
(0.0999689 -3.09797e-05 0)
(0.099954 -4.38562e-05 0)
(0.100006 6.85085e-07 0)
(0.100005 1.70825e-06 0)
(0.100005 2.61317e-06 0)
(0.100005 3.44938e-06 0)
(0.100005 4.16839e-06 0)
(0.100004 4.72312e-06 0)
(0.100003 5.20433e-06 0)
(0.100002 5.49897e-06 0)
(0.1 5.82141e-06 0)
(0.0999976 6.11486e-06 0)
(0.0999953 6.66842e-06 0)
(0.0999926 7.0134e-06 0)
(0.0999903 7.65899e-06 0)
(0.0999869 7.59182e-06 0)
(0.0999843 8.07857e-06 0)
(0.0999792 6.9986e-06 0)
(0.0999763 7.27476e-06 0)
(0.0999674 3.652e-06 0)
(0.0999646 3.91263e-06 0)
(0.0999493 -6.28007e-06 0)
(0.100008 -7.52037e-07 0)
(0.100007 -2.09324e-06 0)
(0.100007 -3.11752e-06 0)
(0.100007 -4.03792e-06 0)
(0.100007 -5.12229e-06 0)
(0.100006 -6.45047e-06 0)
(0.100005 -7.88967e-06 0)
(0.100004 -9.31437e-06 0)
(0.100002 -1.0484e-05 0)
(0.0999999 -1.15799e-05 0)
(0.0999978 -1.23858e-05 0)
(0.0999948 -1.34254e-05 0)
(0.0999927 -1.41561e-05 0)
(0.0999886 -1.56131e-05 0)
(0.0999864 -1.64376e-05 0)
(0.0999798 -1.8852e-05 0)
(0.0999778 -1.96045e-05 0)
(0.0999653 -2.40013e-05 0)
(0.0999643 -2.41326e-05 0)
(0.0999396 -3.37381e-05 0)
)
;

boundaryField
{
    sides
    {
        type            calculated;
        value           nonuniform List<vector> 
40
(
(0.100008 0 0)
(0.100007 0 0)
(0.100007 0 0)
(0.100007 0 0)
(0.100007 0 0)
(0.100006 0 0)
(0.100005 0 0)
(0.100004 0 0)
(0.100002 0 0)
(0.0999999 0 0)
(0.0999978 0 0)
(0.0999948 0 0)
(0.0999927 0 0)
(0.0999886 0 0)
(0.0999864 0 0)
(0.0999798 0 0)
(0.0999778 0 0)
(0.0999653 0 0)
(0.0999643 0 0)
(0.0999396 0 0)
(0.0999924 0 0)
(0.0999927 0 0)
(0.0999927 0 0)
(0.0999926 0 0)
(0.0999928 0 0)
(0.0999937 0 0)
(0.0999946 0 0)
(0.099996 0 0)
(0.0999976 0 0)
(0.1 0 0)
(0.100002 0 0)
(0.100005 0 0)
(0.100007 0 0)
(0.100011 0 0)
(0.100014 0 0)
(0.10002 0 0)
(0.100022 0 0)
(0.100035 0 0)
(0.100036 0 0)
(0.10006 0 0)
)
;
    }
    inlet
    {
        type            calculated;
        value           nonuniform List<vector> 
20
(
(0.0999924 0 0)
(0.0999936 0 0)
(0.0999941 0 0)
(0.099995 0 0)
(0.0999958 0 0)
(0.0999966 0 0)
(0.0999974 0 0)
(0.0999982 0 0)
(0.0999989 0 0)
(0.0999996 0 0)
(0.1 0 0)
(0.100001 0 0)
(0.100002 0 0)
(0.100003 0 0)
(0.100003 0 0)
(0.100004 0 0)
(0.100005 0 0)
(0.100006 0 0)
(0.100006 0 0)
(0.100008 0 0)
)
;
    }
    outlet
    {
        type            calculated;
        value           nonuniform List<vector> 
20
(
(0.100061 -3.3724e-05 0)
(0.100051 -6.29387e-06 0)
(0.100046 -4.38652e-05 0)
(0.10004 -2.98035e-05 0)
(0.100034 -4.91186e-05 0)
(0.100027 -4.4767e-05 0)
(0.100021 -5.27277e-05 0)
(0.100015 -5.30264e-05 0)
(0.100009 -5.5295e-05 0)
(0.100003 -5.59517e-05 0)
(0.099997 -5.59511e-05 0)
(0.0999909 -5.52886e-05 0)
(0.0999849 -5.3025e-05 0)
(0.0999788 -5.27117e-05 0)
(0.0999727 -4.47653e-05 0)
(0.0999665 -4.91e-05 0)
(0.0999605 -2.97968e-05 0)
(0.0999535 -4.3856e-05 0)
(0.0999488 -6.28004e-06 0)
(0.0999388 -3.37379e-05 0)
)
;
    }
    frontAndBack
    {
        type            empty;
    }
}


// ************************************************************************* //
