/*--------------------------------*- C++ -*----------------------------------*\
  =========                 |
  \\      /  F ield         | OpenFOAM: The Open Source CFD Toolbox
   \\    /   O peration     | Website:  https://openfoam.org
    \\  /    A nd           | Version:  7
     \\/     M anipulation  |
\*---------------------------------------------------------------------------*/
FoamFile
{
    version     2.0;
    format      ascii;
    class       volScalarField;
    location    "17";
    object      ddt0(h);
}
// * * * * * * * * * * * * * * * * * * * * * * * * * * * * * * * * * * * * * //

dimensions      [0 1 -1 0 0 0 0];

internalField   nonuniform List<scalar> 
400
(
-1.07647e-07
-1.07614e-07
-1.18793e-07
-1.17357e-07
-1.29685e-07
-1.26502e-07
-1.22338e-07
-1.2225e-07
-1.02973e-07
-8.64983e-08
-6.82047e-08
-4.72196e-08
-2.41504e-08
-3.69567e-09
9.13918e-09
1.64586e-08
2.03974e-08
1.97193e-08
1.52715e-08
5.62442e-09
-1.13627e-07
-1.21528e-07
-1.12657e-07
-1.32e-07
-1.23882e-07
-1.16458e-07
-1.19307e-07
-1.14379e-07
-1.05348e-07
-8.34102e-08
-5.81308e-08
-3.43583e-08
-1.34467e-08
2.97008e-09
1.36728e-08
2.00635e-08
2.24859e-08
2.05657e-08
1.5348e-08
5.35961e-09
-1.25289e-07
-1.40087e-07
-1.45761e-07
-1.44204e-07
-1.33084e-07
-1.28144e-07
-1.07093e-07
-8.98786e-08
-8.02308e-08
-6.56039e-08
-4.68737e-08
-2.66586e-08
-8.24316e-09
5.56393e-09
1.48737e-08
1.94475e-08
1.87842e-08
1.4787e-08
8.79297e-09
1.7677e-09
-1.50429e-07
-1.48114e-07
-1.58214e-07
-1.44567e-07
-1.37544e-07
-1.16559e-07
-1.02882e-07
-9.3842e-08
-6.79408e-08
-4.60186e-08
-2.75036e-08
-1.17313e-08
1.55363e-09
1.10535e-08
1.73129e-08
1.95623e-08
1.71402e-08
1.2133e-08
7.28098e-09
1.99859e-09
-1.46846e-07
-1.49435e-07
-1.52681e-07
-1.42279e-07
-1.32917e-07
-9.27579e-08
-9.00656e-08
-6.71552e-08
-4.66822e-08
-2.6116e-08
-8.4586e-09
4.13097e-09
1.2666e-08
1.80889e-08
2.083e-08
1.92421e-08
1.34452e-08
7.04446e-09
3.98658e-09
1.04654e-09
-1.47002e-07
-1.5274e-07
-1.50572e-07
-1.46436e-07
-1.20132e-07
-1.06361e-07
-8.19665e-08
-5.72155e-08
-3.19834e-08
-1.07059e-08
5.21626e-09
1.68181e-08
2.20847e-08
2.26005e-08
2.06137e-08
1.61785e-08
1.04441e-08
5.92819e-09
5.10073e-09
2.42175e-09
-1.29999e-07
-1.33521e-07
-1.36946e-07
-1.15848e-07
-1.00729e-07
-9.63434e-08
-6.05556e-08
-3.37692e-08
-1.79035e-08
-1.16189e-09
1.23756e-08
2.10901e-08
2.50485e-08
2.48624e-08
1.98341e-08
1.22451e-08
6.77605e-09
4.27509e-09
3.80527e-09
1.49535e-09
-1.05064e-07
-1.01349e-07
-1.06206e-07
-1.03775e-07
-7.77733e-08
-5.88605e-08
-4.98477e-08
-3.09441e-08
-1.39793e-08
2.31451e-09
1.37545e-08
2.05291e-08
2.28974e-08
2.11601e-08
1.44337e-08
7.14824e-09
4.37352e-09
3.30197e-09
1.23857e-09
-2.69908e-10
-7.07729e-08
-7.25019e-08
-6.36014e-08
-6.05898e-08
-5.21751e-08
-4.37173e-08
-2.7119e-08
-1.60772e-08
-6.7595e-09
3.55518e-09
1.20542e-08
1.47624e-08
1.57371e-08
1.48709e-08
9.27595e-09
3.91401e-09
3.40409e-09
2.70675e-09
-9.37101e-10
-1.74898e-09
-2.50759e-08
-2.66777e-08
-2.16956e-08
-1.89407e-08
-1.63427e-08
-1.44853e-08
-8.70989e-09
-6.40846e-09
-4.10399e-09
6.53021e-10
2.8356e-09
4.37779e-09
6.2131e-09
5.07064e-09
1.23637e-09
-3.3477e-10
1.60026e-09
2.20873e-09
7.76143e-11
-7.61946e-10
2.50732e-08
2.66749e-08
2.17165e-08
1.89737e-08
1.6408e-08
1.45393e-08
8.76001e-09
6.41926e-09
4.08027e-09
-7.1699e-10
-2.94055e-09
-4.50176e-09
-6.35488e-09
-5.21772e-09
-1.36578e-09
2.19219e-10
-1.70483e-09
-2.28958e-09
-1.33066e-10
7.43536e-10
7.07703e-08
7.25186e-08
6.36372e-08
6.06409e-08
5.22266e-08
4.37745e-08
2.71655e-08
1.60993e-08
6.73669e-09
-3.61402e-09
-1.21381e-08
-1.48792e-08
-1.58693e-08
-1.49981e-08
-9.39803e-09
-4.03612e-09
-3.51041e-09
-2.7832e-09
8.82737e-10
1.72868e-09
1.05097e-07
1.01377e-07
1.06258e-07
1.03843e-07
7.78416e-08
5.89346e-08
4.98893e-08
3.09635e-08
1.39624e-08
-2.36595e-09
-1.38289e-08
-2.0618e-08
-2.3001e-08
-2.12778e-08
-1.45541e-08
-7.25949e-09
-4.46679e-09
-3.3756e-09
-1.2968e-09
2.47735e-10
1.30036e-07
1.33576e-07
1.37014e-07
1.15946e-07
1.00796e-07
9.64165e-08
6.06021e-08
3.37909e-08
1.78879e-08
1.11669e-09
-1.24302e-08
-2.11542e-08
-2.51245e-08
-2.49498e-08
-1.99288e-08
-1.23435e-08
-6.87088e-09
-4.35432e-09
-3.8615e-09
-1.51521e-09
1.47089e-07
1.52823e-07
1.5066e-07
1.46532e-07
1.2025e-07
1.06414e-07
8.20279e-08
5.72374e-08
3.19745e-08
1.06697e-08
-5.26537e-09
-1.68674e-08
-2.21383e-08
-2.26681e-08
-2.06964e-08
-1.62694e-08
-1.05321e-08
-5.99997e-09
-5.14296e-09
-2.4323e-09
1.46965e-07
1.49549e-07
1.52819e-07
1.42379e-07
1.33008e-07
9.28346e-08
9.00754e-08
6.71441e-08
4.66669e-08
2.60858e-08
8.41672e-09
-4.17185e-09
-1.27062e-08
-1.81397e-08
-2.08954e-08
-1.93175e-08
-1.35209e-08
-7.11024e-09
-4.02732e-09
-1.05751e-09
1.50508e-07
1.48278e-07
1.58362e-07
1.44673e-07
1.37614e-07
1.16612e-07
1.02936e-07
9.38396e-08
6.7927e-08
4.59993e-08
2.74709e-08
1.16957e-08
-1.58829e-09
-1.10953e-08
-1.73693e-08
-1.96327e-08
-1.72135e-08
-1.22023e-08
-7.33672e-09
-2.0213e-09
1.25398e-07
1.40193e-07
1.45885e-07
1.44329e-07
1.33152e-07
1.28183e-07
1.07093e-07
8.98622e-08
8.01936e-08
6.55659e-08
4.68322e-08
2.66162e-08
8.20064e-09
-5.61058e-09
-1.49285e-08
-1.95123e-08
-1.8851e-08
-1.48476e-08
-8.84268e-09
-1.79025e-09
1.13789e-07
1.2166e-07
1.12788e-07
1.32131e-07
1.23909e-07
1.16441e-07
1.19294e-07
1.14436e-07
1.05302e-07
8.33655e-08
5.80947e-08
3.4323e-08
1.34086e-08
-3.01494e-09
-1.37285e-08
-2.01284e-08
-2.2558e-08
-2.06356e-08
-1.53985e-08
-5.38171e-09
1.07781e-07
1.07782e-07
1.18924e-07
1.1744e-07
1.29791e-07
1.26549e-07
1.22304e-07
1.22134e-07
1.02943e-07
8.64663e-08
6.81784e-08
4.71858e-08
2.41089e-08
3.64674e-09
-9.19818e-09
-1.652e-08
-2.046e-08
-1.97826e-08
-1.53136e-08
-5.63864e-09
)
;

boundaryField
{
    sides
    {
        type            calculated;
        value           nonuniform List<scalar> 
40
(
1.07781e-07
1.07782e-07
1.18924e-07
1.1744e-07
1.29791e-07
1.26549e-07
1.22304e-07
1.22134e-07
1.02943e-07
8.64663e-08
6.81784e-08
4.71858e-08
2.41089e-08
3.64674e-09
-9.19818e-09
-1.652e-08
-2.046e-08
-1.97826e-08
-1.53136e-08
-5.63864e-09
-1.07647e-07
-1.07614e-07
-1.18793e-07
-1.17357e-07
-1.29685e-07
-1.26502e-07
-1.22338e-07
-1.2225e-07
-1.02973e-07
-8.64983e-08
-6.82047e-08
-4.72196e-08
-2.41504e-08
-3.69567e-09
9.13918e-09
1.64586e-08
2.03974e-08
1.97193e-08
1.52715e-08
5.62442e-09
)
;
    }
    inlet
    {
        type            calculated;
        value           nonuniform List<scalar> 
20
(
-1.07647e-07
-1.13627e-07
-1.25289e-07
-1.50429e-07
-1.46846e-07
-1.47002e-07
-1.29999e-07
-1.05064e-07
-7.07729e-08
-2.50759e-08
2.50732e-08
7.07703e-08
1.05097e-07
1.30036e-07
1.47089e-07
1.46965e-07
1.50508e-07
1.25398e-07
1.13789e-07
1.07781e-07
)
;
    }
    outlet
    {
        type            calculated;
        value           uniform 0;
    }
    frontAndBack
    {
        type            empty;
    }
}


// ************************************************************************* //
