/*--------------------------------*- C++ -*----------------------------------*\
  =========                 |
  \\      /  F ield         | OpenFOAM: The Open Source CFD Toolbox
   \\    /   O peration     | Website:  https://openfoam.org
    \\  /    A nd           | Version:  7
     \\/     M anipulation  |
\*---------------------------------------------------------------------------*/
FoamFile
{
    version     2.0;
    format      ascii;
    class       volVectorField;
    location    "17";
    object      ddt0(hU);
}
// * * * * * * * * * * * * * * * * * * * * * * * * * * * * * * * * * * * * * //

dimensions      [0 2 -2 0 0 0 0];

internalField   nonuniform List<vector> 
400
(
(-3.12821e-09 1.16173e-09 0)
(-2.83785e-09 -1.53085e-10 0)
(1.16145e-08 7.72927e-10 0)
(2.15542e-08 2.47231e-09 0)
(1.82366e-08 3.07042e-09 0)
(1.44237e-08 5.79425e-09 0)
(1.1845e-08 9.73563e-09 0)
(8.38686e-09 1.68123e-08 0)
(4.9667e-09 1.67677e-08 0)
(-4.15727e-09 1.19257e-08 0)
(-1.41521e-08 5.41951e-09 0)
(-1.96663e-08 -2.10768e-09 0)
(-1.9878e-08 -1.02321e-08 0)
(-1.17952e-08 -1.46518e-08 0)
(-1.77653e-09 -1.38776e-08 0)
(1.05772e-08 -8.83978e-09 0)
(1.3824e-08 5.4077e-10 0)
(9.29746e-09 3.88699e-09 0)
(3.56053e-09 1.00916e-08 0)
(-1.81429e-08 9.23047e-09 0)
(-3.47356e-09 2.69541e-09 0)
(-2.12668e-09 -6.77629e-09 0)
(1.30121e-08 -8.85052e-09 0)
(1.82447e-08 -1.66983e-09 0)
(1.84556e-08 4.48009e-09 0)
(1.83645e-08 9.09441e-09 0)
(1.97664e-08 7.76145e-09 0)
(1.48053e-08 6.92237e-09 0)
(1.62859e-10 7.93795e-09 0)
(-1.28023e-08 6.35547e-09 0)
(-2.22201e-08 2.19434e-09 0)
(-2.66347e-08 -3.73036e-09 0)
(-2.53128e-08 -1.15726e-08 0)
(-1.52043e-08 -1.81388e-08 0)
(-1.70054e-09 -2.02534e-08 0)
(1.4705e-08 -1.73811e-08 0)
(1.98037e-08 -6.16464e-09 0)
(1.5879e-08 2.11589e-09 0)
(6.28082e-09 1.47057e-08 0)
(-1.86721e-08 1.43954e-08 0)
(-4.05458e-09 3.68733e-09 0)
(-3.92815e-09 -2.62846e-09 0)
(1.23496e-08 -5.06333e-09 0)
(2.22498e-08 9.10993e-10 0)
(2.11133e-08 7.61616e-09 0)
(1.21862e-08 1.22633e-08 0)
(4.91788e-09 1.98446e-08 0)
(5.94654e-09 2.12609e-08 0)
(4.14162e-09 2.0862e-08 0)
(-4.3232e-09 1.80853e-08 0)
(-1.13036e-08 8.98207e-09 0)
(-1.42326e-08 -5.30253e-09 0)
(-1.42464e-08 -2.30467e-08 0)
(-9.23906e-09 -3.55242e-08 0)
(-3.33431e-09 -3.77628e-08 0)
(5.70529e-09 -2.90864e-08 0)
(8.81935e-09 -5.76846e-09 0)
(7.14879e-09 8.50343e-09 0)
(5.0848e-09 3.38029e-08 0)
(-1.35802e-08 3.05829e-08 0)
(-1.50021e-09 2.565e-09 0)
(5.06198e-09 -8.77083e-09 0)
(8.48679e-09 -8.04886e-09 0)
(1.29258e-08 6.10834e-10 0)
(1.49387e-08 1.09306e-08 0)
(2.06282e-08 1.64564e-08 0)
(2.03979e-08 2.11581e-08 0)
(8.92951e-09 2.63919e-08 0)
(-2.86699e-09 2.79977e-08 0)
(-1.46953e-08 2.4676e-08 0)
(-2.45805e-08 1.3649e-08 0)
(-2.80895e-08 -4.62169e-09 0)
(-2.46639e-08 -2.86283e-08 0)
(-1.29515e-08 -4.62901e-08 0)
(8.08779e-10 -4.95331e-08 0)
(1.58512e-08 -3.79457e-08 0)
(1.94274e-08 -6.78601e-09 0)
(1.52933e-08 1.18339e-08 0)
(6.95546e-09 4.41889e-08 0)
(-1.58165e-08 4.0656e-08 0)
(-5.02116e-09 -1.02875e-09 0)
(3.61603e-09 -1.9615e-08 0)
(1.46078e-08 -2.17417e-08 0)
(1.92214e-08 -8.81395e-09 0)
(1.76858e-08 4.029e-09 0)
(9.77185e-09 9.99833e-09 0)
(6.76264e-10 1.63486e-08 0)
(2.70219e-09 2.12793e-08 0)
(1.6515e-09 2.4782e-08 0)
(-4.85549e-09 2.33514e-08 0)
(-9.93538e-09 1.26702e-08 0)
(-1.24063e-08 -7.00825e-09 0)
(-1.32975e-08 -3.41532e-08 0)
(-1.03464e-08 -5.42913e-08 0)
(-5.64915e-09 -5.79956e-08 0)
(2.39772e-09 -4.4098e-08 0)
(6.26654e-09 -7.12047e-09 0)
(6.75489e-09 1.49545e-08 0)
(5.98893e-09 5.47411e-08 0)
(-9.24421e-09 4.98427e-08 0)
(-4.21817e-09 -5.57674e-09 0)
(4.04915e-09 -1.77956e-08 0)
(1.25702e-08 -1.95755e-08 0)
(1.4603e-08 -1.09342e-08 0)
(1.33073e-08 -2.77851e-09 0)
(1.48534e-08 7.2466e-09 0)
(1.50183e-08 1.73807e-08 0)
(5.24706e-09 2.88431e-08 0)
(-3.871e-09 3.32853e-08 0)
(-1.27775e-08 3.07226e-08 0)
(-1.96242e-08 1.62894e-08 0)
(-2.14822e-08 -9.36229e-09 0)
(-1.86285e-08 -4.33957e-08 0)
(-9.65045e-09 -6.7457e-08 0)
(8.74399e-10 -7.05534e-08 0)
(1.21323e-08 -5.1861e-08 0)
(1.45733e-08 -5.66227e-09 0)
(1.20803e-08 2.06785e-08 0)
(6.49399e-09 6.84466e-08 0)
(-1.15581e-08 6.11922e-08 0)
(-4.00476e-09 -1.01651e-08 0)
(5.68937e-09 -2.25233e-08 0)
(1.21506e-08 -2.37119e-08 0)
(1.25548e-08 -1.68129e-08 0)
(1.2294e-08 -6.76234e-09 0)
(5.58971e-09 4.32197e-09 0)
(3.31443e-09 1.04021e-08 0)
(4.92419e-09 1.66741e-08 0)
(-4.66661e-10 2.25872e-08 0)
(-6.75233e-09 2.37975e-08 0)
(-1.04562e-08 1.30526e-08 0)
(-1.14501e-08 -1.06148e-08 0)
(-1.11227e-08 -4.48794e-08 0)
(-7.94447e-09 -6.97784e-08 0)
(-3.49779e-09 -7.35602e-08 0)
(2.77023e-09 -5.51528e-08 0)
(5.40204e-09 -7.34431e-09 0)
(5.51088e-09 1.98224e-08 0)
(4.82252e-09 7.15292e-08 0)
(-5.8694e-09 6.59581e-08 0)
(-3.30428e-09 -1.47904e-08 0)
(4.7038e-09 -2.47394e-08 0)
(9.29164e-09 -2.65137e-08 0)
(9.19173e-09 -2.27916e-08 0)
(9.07086e-09 -1.2889e-08 0)
(9.07632e-09 -2.22957e-09 0)
(6.03091e-09 1.15827e-08 0)
(1.15561e-09 2.06099e-08 0)
(-2.84684e-09 2.62041e-08 0)
(-7.24212e-09 2.63393e-08 0)
(-1.10388e-08 1.29674e-08 0)
(-1.26049e-08 -1.48802e-08 0)
(-1.15071e-08 -5.37107e-08 0)
(-6.46653e-09 -8.03764e-08 0)
(-4.43078e-10 -8.25638e-08 0)
(6.2149e-09 -5.96747e-08 0)
(7.98993e-09 -4.9422e-09 0)
(6.98186e-09 2.54359e-08 0)
(4.3024e-09 8.31089e-08 0)
(-6.03224e-09 7.42888e-08 0)
(-1.92938e-09 -1.89886e-08 0)
(3.34644e-09 -2.77572e-08 0)
(5.95656e-09 -2.81345e-08 0)
(5.65044e-09 -2.62682e-08 0)
(6.16096e-09 -1.84675e-08 0)
(4.24523e-09 -6.58584e-09 0)
(2.87153e-09 3.05962e-09 0)
(1.0161e-09 1.27674e-08 0)
(-2.34716e-09 2.05096e-08 0)
(-4.81087e-09 2.27933e-08 0)
(-5.95855e-09 1.12897e-08 0)
(-6.40357e-09 -1.5217e-08 0)
(-5.73681e-09 -5.33189e-08 0)
(-3.28603e-09 -8.0119e-08 0)
(-6.18086e-10 -8.32514e-08 0)
(2.44489e-09 -6.1742e-08 0)
(3.33493e-09 -7.22873e-09 0)
(2.52062e-09 2.33889e-08 0)
(1.0943e-09 8.35303e-08 0)
(-3.42855e-09 7.66987e-08 0)
(-5.22764e-10 -2.07804e-08 0)
(1.27589e-09 -2.99014e-08 0)
(2.12363e-09 -3.04786e-08 0)
(1.86637e-09 -2.85365e-08 0)
(1.86527e-09 -2.09597e-08 0)
(1.70757e-09 -9.72513e-09 0)
(1.29526e-09 1.842e-09 0)
(3.4373e-11 1.13784e-08 0)
(-1.00027e-09 1.9968e-08 0)
(-1.31699e-09 2.30334e-08 0)
(-1.95072e-09 1.09194e-08 0)
(-2.48381e-09 -1.69269e-08 0)
(-2.42335e-09 -5.66016e-08 0)
(-1.87025e-09 -8.40947e-08 0)
(-1.22053e-09 -8.639e-08 0)
(4.30822e-10 -6.28375e-08 0)
(1.75659e-09 -5.8601e-09 0)
(2.2879e-09 2.56266e-08 0)
(1.93063e-09 8.76029e-08 0)
(-1.02287e-09 7.94598e-08 0)
(5.22862e-10 -2.07794e-08 0)
(-1.27413e-09 -2.98994e-08 0)
(-2.13662e-09 -3.04761e-08 0)
(-1.89215e-09 -2.8535e-08 0)
(-1.88796e-09 -2.09604e-08 0)
(-1.7284e-09 -9.72396e-09 0)
(-1.31391e-09 1.84459e-09 0)
(-5.29502e-11 1.13804e-08 0)
(9.88994e-10 1.9969e-08 0)
(1.31747e-09 2.30321e-08 0)
(1.95781e-09 1.09214e-08 0)
(2.49505e-09 -1.69208e-08 0)
(2.4289e-09 -5.65951e-08 0)
(1.86548e-09 -8.40904e-08 0)
(1.21015e-09 -8.63899e-08 0)
(-4.50706e-10 -6.28378e-08 0)
(-1.78194e-09 -5.86406e-09 0)
(-2.32661e-09 2.5625e-08 0)
(-1.98056e-09 8.76005e-08 0)
(9.87981e-10 7.94518e-08 0)
(1.92748e-09 -1.89884e-08 0)
(-3.34635e-09 -2.775e-08 0)
(-5.96833e-09 -2.81276e-08 0)
(-5.6745e-09 -2.62651e-08 0)
(-6.18487e-09 -1.847e-08 0)
(-4.26531e-09 -6.58493e-09 0)
(-2.89222e-09 3.06671e-09 0)
(-1.03391e-09 1.27772e-08 0)
(2.33594e-09 2.05162e-08 0)
(4.81251e-09 2.27932e-08 0)
(5.97019e-09 1.12907e-08 0)
(6.41539e-09 -1.52106e-08 0)
(5.74143e-09 -5.33078e-08 0)
(3.28202e-09 -8.01081e-08 0)
(6.04683e-10 -8.32483e-08 0)
(-2.47058e-09 -6.17323e-08 0)
(-3.36258e-09 -7.22702e-09 0)
(-2.55566e-09 2.34008e-08 0)
(-1.13334e-09 8.35338e-08 0)
(3.39836e-09 7.66644e-08 0)
(3.30592e-09 -1.47906e-08 0)
(-4.70652e-09 -2.47277e-08 0)
(-9.30494e-09 -2.65022e-08 0)
(-9.21501e-09 -2.27885e-08 0)
(-9.09455e-09 -1.28899e-08 0)
(-9.09423e-09 -2.22678e-09 0)
(-6.0484e-09 1.15954e-08 0)
(-1.16991e-09 2.06245e-08 0)
(2.83666e-09 2.62136e-08 0)
(7.24018e-09 2.63419e-08 0)
(1.10438e-08 1.29729e-08 0)
(1.26139e-08 -1.48673e-08 0)
(1.15116e-08 -5.36954e-08 0)
(6.463e-09 -8.03666e-08 0)
(4.33928e-10 -8.25679e-08 0)
(-6.23129e-09 -5.96651e-08 0)
(-8.00751e-09 -4.93676e-09 0)
(-7.01433e-09 2.5456e-08 0)
(-4.34268e-09 8.31261e-08 0)
(5.99956e-09 7.42495e-08 0)
(4.00587e-09 -1.01647e-08 0)
(-5.69447e-09 -2.25094e-08 0)
(-1.21669e-08 -2.36967e-08 0)
(-1.25739e-08 -1.68093e-08 0)
(-1.23149e-08 -6.76292e-09 0)
(-5.60786e-09 4.3248e-09 0)
(-3.3351e-09 1.04165e-08 0)
(-4.94168e-09 1.6694e-08 0)
(4.57174e-10 2.26005e-08 0)
(6.75252e-09 2.38013e-08 0)
(1.04651e-08 1.30617e-08 0)
(1.1461e-08 -1.05936e-08 0)
(1.11268e-08 -4.48493e-08 0)
(7.94195e-09 -6.9753e-08 0)
(3.48936e-09 -7.35532e-08 0)
(-2.78813e-09 -5.51362e-08 0)
(-5.42263e-09 -7.35009e-09 0)
(-5.54324e-09 1.98305e-08 0)
(-4.8524e-09 7.15119e-08 0)
(5.84275e-09 6.58831e-08 0)
(4.22335e-09 -5.58052e-09 0)
(-4.05635e-09 -1.77875e-08 0)
(-1.25895e-08 -1.95641e-08 0)
(-1.46244e-08 -1.09308e-08 0)
(-1.33244e-08 -2.78007e-09 0)
(-1.48728e-08 7.25362e-09 0)
(-1.50279e-08 1.74058e-08 0)
(-5.25396e-09 2.88699e-08 0)
(3.8639e-09 3.33029e-08 0)
(1.27717e-08 3.07313e-08 0)
(1.96208e-08 1.63004e-08 0)
(2.14836e-08 -9.34651e-09 0)
(1.86279e-08 -4.33805e-08 0)
(9.64725e-09 -6.74467e-08 0)
(-8.82152e-10 -7.05612e-08 0)
(-1.21465e-08 -5.18479e-08 0)
(-1.45837e-08 -5.65251e-09 0)
(-1.21022e-08 2.07109e-08 0)
(-6.50133e-09 6.84821e-08 0)
(1.15427e-08 6.11398e-08 0)
(5.02673e-09 -1.03908e-09 0)
(-3.62562e-09 -1.96123e-08 0)
(-1.46208e-08 -2.17289e-08 0)
(-1.92384e-08 -8.80878e-09 0)
(-1.77026e-08 4.0256e-09 0)
(-9.78462e-09 1.00023e-08 0)
(-6.95788e-10 1.63606e-08 0)
(-2.72388e-09 2.12989e-08 0)
(-1.66145e-09 2.4796e-08 0)
(4.85278e-09 2.33577e-08 0)
(9.93368e-09 1.26838e-08 0)
(1.24061e-08 -6.98175e-09 0)
(1.32961e-08 -3.41168e-08 0)
(1.03456e-08 -5.42609e-08 0)
(5.64502e-09 -5.79897e-08 0)
(-2.41042e-09 -4.40839e-08 0)
(-6.27955e-09 -7.131e-09 0)
(-6.78221e-09 1.49586e-08 0)
(-6.00337e-09 5.4713e-08 0)
(9.22366e-09 4.97544e-08 0)
(1.50203e-09 2.55514e-09 0)
(-5.05919e-09 -8.76931e-09 0)
(-8.49726e-09 -8.04834e-09 0)
(-1.29475e-08 6.08451e-10 0)
(-1.49578e-08 1.09305e-08 0)
(-2.06438e-08 1.64692e-08 0)
(-2.04054e-08 2.11821e-08 0)
(-8.93297e-09 2.64209e-08 0)
(2.86258e-09 2.80156e-08 0)
(1.46876e-08 2.46834e-08 0)
(2.45635e-08 1.36594e-08 0)
(2.80715e-08 -4.60679e-09 0)
(2.46471e-08 -2.86155e-08 0)
(1.2942e-08 -4.628e-08 0)
(-8.16853e-10 -4.9538e-08 0)
(-1.58564e-08 -3.7929e-08 0)
(-1.94187e-08 -6.77472e-09 0)
(-1.52942e-08 1.18578e-08 0)
(-6.93059e-09 4.42054e-08 0)
(1.58088e-08 4.05964e-08 0)
(4.06114e-09 3.6796e-09 0)
(3.91616e-09 -2.63194e-09 0)
(-1.23669e-08 -5.06885e-09 0)
(-2.22603e-08 9.06459e-10 0)
(-2.11293e-08 7.61135e-09 0)
(-1.22019e-08 1.22659e-08 0)
(-4.9313e-09 1.98544e-08 0)
(-5.9594e-09 2.12712e-08 0)
(-4.15381e-09 2.08749e-08 0)
(4.31324e-09 1.80923e-08 0)
(1.12897e-08 8.99517e-09 0)
(1.42197e-08 -5.27942e-09 0)
(1.42364e-08 -2.30198e-08 0)
(9.23542e-09 -3.55058e-08 0)
(3.32938e-09 -3.77683e-08 0)
(-5.71881e-09 -2.90874e-08 0)
(-8.82917e-09 -5.7829e-09 0)
(-7.1776e-09 8.5021e-09 0)
(-5.09211e-09 3.37927e-08 0)
(1.35697e-08 3.05278e-08 0)
(3.48145e-09 2.69062e-09 0)
(2.1146e-09 -6.77979e-09 0)
(-1.30288e-08 -8.84487e-09 0)
(-1.82571e-08 -1.67089e-09 0)
(-1.84701e-08 4.48216e-09 0)
(-1.83788e-08 9.09949e-09 0)
(-1.97833e-08 7.77656e-09 0)
(-1.48071e-08 6.9354e-09 0)
(-1.76041e-10 7.94125e-09 0)
(1.27786e-08 6.35119e-09 0)
(2.21902e-08 2.19171e-09 0)
(2.66054e-08 -3.72985e-09 0)
(2.52884e-08 -1.15703e-08 0)
(1.51967e-08 -1.8133e-08 0)
(1.69861e-09 -2.02461e-08 0)
(-1.46983e-08 -1.73567e-08 0)
(-1.97846e-08 -6.14969e-09 0)
(-1.58707e-08 2.13189e-09 0)
(-6.24213e-09 1.46882e-08 0)
(1.86592e-08 1.43378e-08 0)
(3.13426e-09 1.15978e-09 0)
(2.83805e-09 -1.56892e-10 0)
(-1.16307e-08 7.75068e-10 0)
(-2.15744e-08 2.47017e-09 0)
(-1.82502e-08 3.07377e-09 0)
(-1.44373e-08 5.7897e-09 0)
(-1.18546e-08 9.73938e-09 0)
(-8.40522e-09 1.68168e-08 0)
(-4.97546e-09 1.67659e-08 0)
(4.14799e-09 1.19267e-08 0)
(1.41351e-08 5.42812e-09 0)
(1.96454e-08 -2.09486e-09 0)
(1.98535e-08 -1.02266e-08 0)
(1.17754e-08 -1.46526e-08 0)
(1.75809e-09 -1.38916e-08 0)
(-1.05942e-08 -8.84748e-09 0)
(-1.38154e-08 5.41784e-10 0)
(-9.29363e-09 3.88159e-09 0)
(-3.52825e-09 1.01131e-08 0)
(1.81448e-08 9.24388e-09 0)
)
;

boundaryField
{
    sides
    {
        type            calculated;
        value           nonuniform List<vector> 
40
(
(3.13426e-09 0 0)
(2.83805e-09 0 0)
(-1.16307e-08 0 0)
(-2.15744e-08 0 0)
(-1.82502e-08 0 0)
(-1.44373e-08 0 0)
(-1.18546e-08 0 0)
(-8.40522e-09 0 0)
(-4.97546e-09 0 0)
(4.14799e-09 0 0)
(1.41351e-08 0 0)
(1.96454e-08 0 0)
(1.98535e-08 0 0)
(1.17754e-08 0 0)
(1.75809e-09 0 0)
(-1.05942e-08 0 0)
(-1.38154e-08 0 0)
(-9.29363e-09 0 0)
(-3.52825e-09 0 0)
(1.81448e-08 0 0)
(-3.12821e-09 0 0)
(-2.83785e-09 0 0)
(1.16145e-08 0 0)
(2.15542e-08 0 0)
(1.82366e-08 0 0)
(1.44237e-08 0 0)
(1.1845e-08 0 0)
(8.38686e-09 0 0)
(4.9667e-09 0 0)
(-4.15727e-09 0 0)
(-1.41521e-08 0 0)
(-1.96663e-08 0 0)
(-1.9878e-08 0 0)
(-1.17952e-08 0 0)
(-1.77653e-09 0 0)
(1.05772e-08 0 0)
(1.3824e-08 0 0)
(9.29746e-09 0 0)
(3.56053e-09 0 0)
(-1.81429e-08 0 0)
)
;
    }
    inlet
    {
        type            calculated;
        value           uniform (0 0 0);
    }
    outlet
    {
        type            calculated;
        value           nonuniform List<vector> 
20
(
(-1.81429e-08 9.23047e-09 0)
(-1.86721e-08 1.43954e-08 0)
(-1.35802e-08 3.05829e-08 0)
(-1.58165e-08 4.0656e-08 0)
(-9.24421e-09 4.98427e-08 0)
(-1.15581e-08 6.11922e-08 0)
(-5.8694e-09 6.59581e-08 0)
(-6.03224e-09 7.42888e-08 0)
(-3.42855e-09 7.66987e-08 0)
(-1.02287e-09 7.94598e-08 0)
(9.87981e-10 7.94518e-08 0)
(3.39836e-09 7.66644e-08 0)
(5.99956e-09 7.42495e-08 0)
(5.84275e-09 6.58831e-08 0)
(1.15427e-08 6.11398e-08 0)
(9.22366e-09 4.97544e-08 0)
(1.58088e-08 4.05964e-08 0)
(1.35697e-08 3.05278e-08 0)
(1.86592e-08 1.43378e-08 0)
(1.81448e-08 9.24388e-09 0)
)
;
    }
    frontAndBack
    {
        type            empty;
    }
}


// ************************************************************************* //
