/*--------------------------------*- C++ -*----------------------------------*\
  =========                 |
  \\      /  F ield         | OpenFOAM: The Open Source CFD Toolbox
   \\    /   O peration     | Website:  https://openfoam.org
    \\  /    A nd           | Version:  7
     \\/     M anipulation  |
\*---------------------------------------------------------------------------*/
FoamFile
{
    version     2.0;
    format      ascii;
    class       surfaceScalarField;
    location    "17";
    object      ddtCorrDdt0(phi);
}
// * * * * * * * * * * * * * * * * * * * * * * * * * * * * * * * * * * * * * //

dimensions      [0 4 -2 0 0 0 0];

internalField   nonuniform List<scalar> 
760
(
4.84243e-12
1.68368e-11
4.0332e-11
-1.26028e-11
7.4947e-11
-1.84528e-11
9.41423e-11
-1.79068e-12
8.21659e-11
-3.33738e-13
7.36029e-11
1.72725e-11
4.61613e-11
1.0913e-10
3.20974e-11
7.86607e-11
5.82511e-12
4.59201e-11
-4.14166e-11
3.59383e-11
-8.56241e-11
1.44643e-11
-1.04471e-10
-1.4188e-11
-8.32606e-11
-4.71282e-11
-3.33901e-11
-7.02698e-11
2.05907e-11
-7.27054e-11
6.07158e-11
-5.84219e-11
5.67005e-11
-1.4343e-11
3.01933e-11
1.07925e-11
-3.21457e-11
5.37189e-11
5.52433e-11
7.18916e-12
1.3355e-11
4.6981e-11
3.90731e-11
7.11952e-11
-1.83908e-10
8.08494e-11
3.00473e-11
9.70589e-11
-2.01619e-10
9.65149e-11
4.43863e-11
9.77831e-11
6.02845e-11
2.64928e-11
1.12473e-10
-3.15121e-11
8.93909e-11
-8.2374e-11
7.29141e-11
-1.2195e-10
3.50982e-11
-1.35082e-10
-2.32339e-11
-1.0498e-10
-9.64533e-11
-4.24126e-11
-1.49103e-10
3.13336e-11
-1.61142e-10
8.54391e-11
-1.24896e-10
8.75383e-11
-2.76488e-11
5.48477e-11
3.42111e-11
-2.78967e-11
1.3417e-10
1.17664e-10
2.93443e-12
-1.1603e-11
3.6761e-11
-3.52125e-11
8.547e-11
-4.34132e-11
9.72343e-11
5.07616e-13
9.19668e-11
6.63431e-11
4.4154e-11
1.63949e-10
2.49416e-11
8.93325e-11
2.71148e-11
1.00724e-10
-2.73329e-12
1.07539e-10
-3.74382e-11
9.39074e-11
-6.51771e-11
5.0221e-11
-7.50671e-11
-2.30697e-11
-6.10795e-11
-1.19572e-10
-3.02188e-11
-1.91034e-10
4.08573e-12
-2.05505e-10
3.54792e-11
-1.61707e-10
3.934e-11
-3.50944e-11
2.90982e-11
4.22674e-11
-1.65393e-11
1.8238e-10
1.72668e-10
5.84186e-11
-1.49811e-12
4.22122e-11
-5.14874e-11
4.40849e-11
-6.39563e-11
6.05583e-11
-2.20043e-11
9.4409e-11
2.98079e-11
1.17139e-10
5.55615e-11
6.16817e-11
1.30904e-10
1.10319e-11
1.34282e-10
-4.19537e-11
1.44234e-10
-9.55637e-11
1.28098e-10
-1.32852e-10
6.78818e-11
-1.36074e-10
-3.33637e-11
-9.61227e-11
-1.6852e-10
-2.9963e-11
-2.66307e-10
3.96196e-11
-2.81667e-10
8.71981e-11
-2.09917e-10
8.58738e-11
-3.0059e-11
5.66986e-11
7.63846e-11
-1.89013e-11
2.60833e-10
2.31551e-10
2.46153e-11
-2.29894e-11
6.72587e-11
-8.41008e-11
7.29619e-11
-1.0688e-10
9.49705e-11
-4.06499e-11
6.85792e-11
1.7168e-11
2.09062e-11
6.93434e-11
1.75095e-11
3.95859e-11
7.50504e-12
1.21129e-10
-1.22387e-11
1.36746e-10
-3.62711e-11
1.28646e-10
-5.7178e-11
6.93429e-11
-6.74264e-11
-3.9261e-11
-6.11555e-11
-1.86067e-10
-3.9061e-11
-2.94468e-10
-8.99206e-12
-3.13726e-10
2.06158e-11
-2.38164e-10
3.25481e-11
-3.61589e-11
3.28323e-11
8.23062e-11
-4.67107e-12
2.98581e-10
2.74048e-10
3.53666e-11
-4.24478e-11
5.04366e-11
-1.06819e-10
6.65975e-11
-1.00813e-10
7.03869e-11
-7.01024e-11
6.07759e-11
-4.37038e-11
9.61323e-11
9.12655e-12
3.61613e-11
-3.70085e-12
1.37716e-12
1.11982e-10
-4.21104e-11
1.43522e-10
-8.10176e-11
1.3785e-10
-1.03849e-10
7.29924e-11
-1.02621e-10
-5.31832e-11
-7.29792e-11
-2.27997e-10
-2.19357e-11
-3.51356e-10
3.18818e-11
-3.65997e-10
6.66016e-11
-2.68096e-10
6.66135e-11
-2.87952e-11
4.8252e-11
1.06179e-10
-1.03964e-11
3.5574e-10
3.19746e-10
3.24103e-11
-5.97286e-11
6.00608e-11
-1.16585e-10
6.08498e-11
-1.35268e-10
5.13453e-11
-1.02718e-10
5.42866e-11
-3.68388e-11
9.41604e-12
1.80055e-11
3.54854e-11
2.10754e-11
5.25519e-12
1.05694e-10
-2.18741e-11
1.26621e-10
-4.3339e-11
1.27827e-10
-5.57995e-11
6.60576e-11
-5.88734e-11
-6.25779e-11
-5.01259e-11
-2.43794e-10
-2.83309e-11
-3.72345e-10
-1.17805e-12
-3.88219e-10
2.09759e-11
-2.86498e-10
2.74623e-11
-3.11724e-11
2.65097e-11
1.11651e-10
-6.22134e-13
3.83968e-10
3.49522e-10
2.9087e-11
-8.7538e-11
3.97349e-11
-1.31101e-10
4.72465e-11
-1.32648e-10
4.35957e-11
-1.25813e-10
4.21095e-11
-8.49616e-11
4.92268e-11
-2.66537e-11
1.12581e-11
1.56572e-11
-7.06088e-12
7.15386e-11
-2.69003e-11
1.10971e-10
-4.6135e-11
1.19552e-10
-5.9559e-11
6.01851e-11
-6.18835e-11
-7.41275e-11
-4.69312e-11
-2.67119e-10
-1.74096e-11
-4.01386e-10
1.53392e-11
-4.14651e-10
3.68326e-11
-3.03455e-10
3.70469e-11
-3.04993e-11
2.82013e-11
1.21945e-10
-2.90722e-12
4.17151e-10
3.77992e-10
2.29135e-11
-1.02064e-10
2.76401e-11
-1.46703e-10
2.50591e-11
-1.50893e-10
3.01318e-11
-1.38383e-10
2.83203e-11
-1.04094e-10
1.54253e-11
-4.76364e-11
1.2303e-11
1.4869e-11
-6.02435e-12
5.97189e-11
-1.97742e-11
9.9993e-11
-2.65798e-11
1.13873e-10
-3.09713e-11
5.39325e-11
-3.20592e-11
-8.37289e-11
-2.40505e-11
-2.77494e-10
-9.866e-12
-4.11313e-10
5.38596e-12
-4.23865e-10
1.56425e-11
-3.10984e-10
1.42736e-11
-3.15765e-11
9.09921e-12
1.2472e-10
-4.58634e-12
4.29788e-10
3.90948e-10
9.78716e-12
-1.05354e-10
9.45221e-12
-1.54425e-10
9.46883e-12
-1.58642e-10
7.93962e-12
-1.49463e-10
9.38673e-12
-1.06907e-10
8.66122e-12
-5.04657e-11
3.47499e-12
4.17595e-12
-3.61707e-12
4.94677e-11
-6.17062e-12
9.36448e-11
-7.92087e-12
1.09884e-10
-1.17986e-11
5.13488e-11
-1.28457e-11
-8.39704e-11
-1.08208e-11
-2.80608e-10
-7.78347e-12
-4.18483e-10
-1.89493e-12
-4.30155e-10
6.03384e-12
-3.12787e-10
1.03395e-11
-2.99315e-11
1.07096e-11
1.25228e-10
2.08808e-12
4.3495e-10
3.96152e-10
-9.78588e-12
-1.02052e-10
-9.48741e-12
-1.46683e-10
-9.56499e-12
-1.50871e-10
-8.06255e-12
-1.38369e-10
-9.51193e-12
-1.04101e-10
-8.77254e-12
-4.76268e-11
-3.56992e-12
1.48928e-11
3.53526e-12
5.97434e-11
6.14876e-12
1.00016e-10
7.9427e-12
1.13868e-10
1.18541e-11
5.39436e-11
1.29095e-11
-8.36966e-11
1.08447e-11
-2.77461e-10
7.75109e-12
-4.11285e-10
1.82655e-12
-4.23858e-10
-6.1656e-12
-3.10957e-10
-1.05145e-11
-3.15755e-11
-1.09445e-11
1.24758e-10
-2.33185e-12
4.29807e-10
3.9085e-10
-2.29329e-11
-8.75469e-11
-2.76747e-11
-1.31053e-10
-2.51429e-11
-1.32606e-10
-3.02606e-11
-1.25799e-10
-2.84376e-11
-8.49778e-11
-1.55454e-11
-2.6651e-11
-1.24024e-11
1.56546e-11
5.95384e-12
7.15995e-11
1.97456e-11
1.11003e-10
2.66216e-11
1.19556e-10
3.10416e-11
6.01989e-11
3.21133e-11
-7.40765e-11
2.40739e-11
-2.67039e-10
9.83228e-12
-4.01322e-10
-5.4769e-12
-4.14653e-10
-1.57958e-11
-3.03415e-10
-1.44428e-11
-3.04953e-11
-9.29156e-12
1.22005e-10
4.3786e-12
4.17177e-10
3.77798e-10
-2.9104e-11
-5.97234e-11
-3.97893e-11
-1.16519e-10
-4.73269e-11
-1.35195e-10
-4.37267e-11
-1.02702e-10
-4.22156e-11
-3.68353e-11
-4.93323e-11
1.80204e-11
-1.13382e-11
2.121e-11
6.99811e-12
1.05798e-10
2.6868e-11
1.26691e-10
4.61479e-11
1.27845e-10
5.96068e-11
6.60909e-11
6.19341e-11
-6.25007e-11
4.69512e-11
-2.43696e-10
1.73836e-11
-3.72273e-10
-1.53951e-11
-3.88219e-10
-3.69347e-11
-2.86428e-10
-3.71838e-11
-3.11595e-11
-2.83947e-11
1.11738e-10
2.69763e-12
3.83991e-10
3.49246e-10
-3.24422e-11
-4.24448e-11
-6.01274e-11
-1.06756e-10
-6.09386e-11
-1.00745e-10
-5.14438e-11
-7.00856e-11
-5.43971e-11
-4.37138e-11
-9.51807e-12
9.1376e-12
-3.55854e-11
-3.64562e-12
-5.31756e-12
1.12091e-10
2.18444e-11
1.43589e-10
4.33651e-11
1.37877e-10
5.58616e-11
7.30423e-11
5.89245e-11
-5.30882e-11
5.01432e-11
-2.27878e-10
2.83109e-11
-3.51261e-10
1.1248e-12
-3.65997e-10
-2.1087e-11
-2.68023e-10
-2.76064e-11
-2.87931e-11
-2.66735e-11
1.06271e-10
4.54291e-13
3.5577e-10
3.19419e-10
-3.53996e-11
-2.32561e-11
-5.05217e-11
-8.40698e-11
-6.67009e-11
-1.0682e-10
-7.04753e-11
-4.06238e-11
-6.08821e-11
1.71632e-11
-9.62113e-11
6.93728e-11
-3.61985e-11
3.96019e-11
-1.4102e-12
1.21254e-10
4.20766e-11
1.36829e-10
8.09949e-11
1.28685e-10
1.03853e-10
6.94033e-11
1.02636e-10
-3.91594e-11
7.2979e-11
-1.85943e-10
2.19159e-11
-2.9437e-10
-3.19241e-11
-3.13733e-10
-6.66768e-11
-2.381e-10
-6.67012e-11
-3.61634e-11
-4.83366e-11
8.23937e-11
1.03172e-11
2.98602e-10
2.73699e-10
-2.46759e-11
-1.4925e-12
-6.73228e-11
-5.15091e-11
-7.30365e-11
-6.39271e-11
-9.50524e-11
-2.20035e-11
-6.86732e-11
2.98048e-11
-2.09623e-11
5.55682e-11
-1.7634e-11
1.30712e-10
-7.57518e-12
1.34402e-10
1.22093e-11
1.44304e-10
3.62594e-11
1.28127e-10
5.71776e-11
6.79456e-11
6.74329e-11
-3.32547e-11
6.1158e-11
-1.68393e-10
3.90541e-11
-2.66205e-10
8.96166e-12
-2.81665e-10
-2.06904e-11
-2.09836e-10
-3.26519e-11
-3.0049e-11
-3.29446e-11
7.647e-11
4.56952e-12
2.60818e-10
2.31188e-10
-5.84473e-11
-1.23451e-11
-4.22448e-11
-3.54063e-11
-4.41714e-11
-4.34127e-11
-6.06654e-11
4.91598e-13
-9.44799e-11
6.63316e-11
-1.17225e-10
1.63976e-10
-6.16832e-11
8.93046e-11
-1.10562e-11
1.00823e-10
4.19283e-11
1.07622e-10
9.54997e-11
9.39514e-11
1.32762e-10
5.02829e-11
1.35993e-10
-2.29736e-11
9.60658e-11
-1.19472e-10
2.99248e-11
-1.9096e-10
-3.96437e-11
-2.05528e-10
-8.719e-11
-1.61673e-10
-8.58565e-11
-3.51109e-11
-5.66457e-11
4.23033e-11
1.89287e-11
1.82371e-10
1.72365e-10
-2.98582e-12
1.32761e-11
-3.68748e-11
3.8933e-11
-8.55242e-11
-1.84157e-10
-9.72963e-11
2.96508e-11
-9.20494e-11
-2.02143e-10
-4.42256e-11
4.4224e-11
-2.50051e-11
6.01888e-11
-2.71734e-11
1.1249e-10
2.68442e-12
8.94325e-11
3.73783e-11
7.29249e-11
6.51069e-11
3.51272e-11
7.50135e-11
-2.31728e-11
6.1049e-11
-9.63784e-11
3.02006e-11
-1.49043e-10
-4.12529e-12
-1.61138e-10
-3.55382e-11
-1.2483e-10
-3.94271e-11
-2.76406e-11
-2.92069e-11
3.42646e-11
1.64963e-11
1.34109e-10
1.17392e-10
-7.25117e-12
1.68206e-11
-4.7089e-11
-1.26886e-11
-7.12529e-11
-1.84689e-11
-8.09314e-11
-1.44671e-12
-9.70936e-11
-4.48638e-13
-9.66167e-11
1.73648e-11
-9.78249e-11
1.04777e-10
-2.65046e-11
7.86454e-11
3.14042e-11
4.60245e-11
8.22379e-11
3.59428e-11
1.218e-10
1.44738e-11
1.34947e-10
-1.41624e-11
1.04904e-10
-4.7114e-11
4.23944e-11
-7.02603e-11
-3.13164e-11
-7.27229e-11
-8.5364e-11
-5.83887e-11
-8.74662e-11
-1.43139e-11
-5.47365e-11
1.08114e-11
2.79533e-11
5.37274e-11
5.51306e-11
-4.89081e-12
-4.03769e-11
-7.50644e-11
-9.41829e-11
-8.22718e-11
-7.36301e-11
-4.62355e-11
-3.21677e-11
-5.85454e-12
4.13491e-11
8.55236e-11
1.04357e-10
8.31478e-11
3.32976e-11
-2.0675e-11
-6.07312e-11
-5.66517e-11
-3.01134e-11
3.22346e-11
)
;

boundaryField
{
    sides
    {
        type            calculated;
        value           uniform 0;
    }
    inlet
    {
        type            calculated;
        value           uniform 0;
    }
    outlet
    {
        type            calculated;
        value           nonuniform List<scalar> 
20
(
-8.93544e-11
-8.88508e-11
-6.87422e-11
-7.74235e-11
-4.90844e-11
-5.87325e-11
-3.10864e-11
-3.06306e-11
-1.81665e-11
-5.61936e-12
5.48647e-12
1.80476e-11
3.0498e-11
3.09726e-11
5.86727e-11
4.89811e-11
7.7377e-11
6.86774e-11
8.87627e-11
8.93333e-11
)
;
    }
    frontAndBack
    {
        type            empty;
        value           nonuniform 0();
    }
}


// ************************************************************************* //
