/*--------------------------------*- C++ -*----------------------------------*\
  =========                 |
  \\      /  F ield         | OpenFOAM: The Open Source CFD Toolbox
   \\    /   O peration     | Website:  https://openfoam.org
    \\  /    A nd           | Version:  7
     \\/     M anipulation  |
\*---------------------------------------------------------------------------*/
FoamFile
{
    version     2.0;
    format      ascii;
    class       volVectorField;
    location    "17";
    object      hU_0;
}
// * * * * * * * * * * * * * * * * * * * * * * * * * * * * * * * * * * * * * //

dimensions      [0 2 -1 0 0 0 0];

internalField   nonuniform List<vector> 
400
(
(0.000999998 -9.05837e-09 0)
(0.00100001 -2.31399e-08 0)
(0.00100001 -3.33008e-08 0)
(0.00100001 -4.20446e-08 0)
(0.00100001 -5.02257e-08 0)
(0.00100002 -5.90028e-08 0)
(0.00100002 -6.90375e-08 0)
(0.00100003 -8.23843e-08 0)
(0.00100004 -9.77452e-08 0)
(0.00100006 -1.14374e-07 0)
(0.00100008 -1.28258e-07 0)
(0.00100011 -1.42355e-07 0)
(0.00100014 -1.50056e-07 0)
(0.00100018 -1.60674e-07 0)
(0.0010002 -1.6389e-07 0)
(0.00100026 -1.82842e-07 0)
(0.00100026 -1.87822e-07 0)
(0.00100037 -2.33228e-07 0)
(0.00100036 -2.32717e-07 0)
(0.00100058 -3.34521e-07 0)
(0.000999999 2.73589e-09 0)
(0.00100001 1.32493e-08 0)
(0.00100003 2.74179e-08 0)
(0.00100003 3.90799e-08 0)
(0.00100003 4.71484e-08 0)
(0.00100003 5.18985e-08 0)
(0.00100004 5.60241e-08 0)
(0.00100004 6.02723e-08 0)
(0.00100005 6.36086e-08 0)
(0.00100007 6.38874e-08 0)
(0.00100009 6.44218e-08 0)
(0.00100012 6.31621e-08 0)
(0.00100015 6.70088e-08 0)
(0.00100019 6.87977e-08 0)
(0.00100021 7.89578e-08 0)
(0.00100026 7.45303e-08 0)
(0.00100027 8.28901e-08 0)
(0.00100034 4.58887e-08 0)
(0.00100035 4.99077e-08 0)
(0.00100048 -5.85372e-08 0)
(0.000999998 -5.16903e-09 0)
(0.00100001 -9.81512e-09 0)
(0.00100001 -1.12571e-08 0)
(0.00100001 -1.47396e-08 0)
(0.00100001 -2.16722e-08 0)
(0.00100001 -3.09094e-08 0)
(0.00100002 -4.2843e-08 0)
(0.00100003 -6.12412e-08 0)
(0.00100004 -8.14586e-08 0)
(0.00100005 -1.05127e-07 0)
(0.00100007 -1.2666e-07 0)
(0.0010001 -1.48011e-07 0)
(0.00100012 -1.59315e-07 0)
(0.00100015 -1.70462e-07 0)
(0.00100017 -1.71901e-07 0)
(0.00100022 -1.9195e-07 0)
(0.00100023 -2.02987e-07 0)
(0.0010003 -2.68669e-07 0)
(0.00100031 -2.8668e-07 0)
(0.00100044 -4.31431e-07 0)
(0.000999999 -4.61954e-10 0)
(0.00100001 7.35974e-09 0)
(0.00100002 2.04331e-08 0)
(0.00100002 3.07128e-08 0)
(0.00100003 3.602e-08 0)
(0.00100003 3.65341e-08 0)
(0.00100003 3.17103e-08 0)
(0.00100003 2.19988e-08 0)
(0.00100004 8.8137e-09 0)
(0.00100006 -9.08677e-09 0)
(0.00100008 -2.51278e-08 0)
(0.00100011 -4.02909e-08 0)
(0.00100013 -4.36953e-08 0)
(0.00100017 -4.44284e-08 0)
(0.00100018 -3.5538e-08 0)
(0.00100021 -4.58506e-08 0)
(0.00100022 -5.13347e-08 0)
(0.00100027 -1.15861e-07 0)
(0.00100028 -1.33633e-07 0)
(0.00100037 -2.86631e-07 0)
(0.000999999 -1.82341e-09 0)
(0.00100001 2.10936e-09 0)
(0.00100001 9.78584e-09 0)
(0.00100001 1.20809e-08 0)
(0.00100001 7.43096e-09 0)
(0.00100001 -3.64539e-09 0)
(0.00100002 -1.91164e-08 0)
(0.00100003 -4.00411e-08 0)
(0.00100004 -6.46018e-08 0)
(0.00100005 -9.47427e-08 0)
(0.00100006 -1.23399e-07 0)
(0.00100008 -1.50727e-07 0)
(0.0010001 -1.64473e-07 0)
(0.00100012 -1.73456e-07 0)
(0.00100014 -1.72117e-07 0)
(0.00100017 -1.89536e-07 0)
(0.00100018 -2.04441e-07 0)
(0.00100023 -2.80379e-07 0)
(0.00100023 -3.08994e-07 0)
(0.00100032 -4.7817e-07 0)
(0.000999999 7.30659e-10 0)
(0.00100001 8.89373e-09 0)
(0.00100001 1.97052e-08 0)
(0.00100001 2.72047e-08 0)
(0.00100002 2.88861e-08 0)
(0.00100002 2.35578e-08 0)
(0.00100002 1.19342e-08 0)
(0.00100002 -9.31991e-09 0)
(0.00100003 -3.58674e-08 0)
(0.00100004 -6.789e-08 0)
(0.00100006 -9.70103e-08 0)
(0.00100008 -1.22211e-07 0)
(0.0010001 -1.30951e-07 0)
(0.00100012 -1.31813e-07 0)
(0.00100013 -1.22995e-07 0)
(0.00100015 -1.33182e-07 0)
(0.00100016 -1.46627e-07 0)
(0.00100019 -2.23181e-07 0)
(0.00100019 -2.54698e-07 0)
(0.00100025 -4.32086e-07 0)
(0.001 2.63834e-09 0)
(0.00100001 1.33462e-08 0)
(0.00100001 2.39531e-08 0)
(0.00100001 2.94157e-08 0)
(0.00100001 2.71932e-08 0)
(0.00100001 1.56942e-08 0)
(0.00100002 -3.2801e-09 0)
(0.00100002 -2.81827e-08 0)
(0.00100003 -5.77281e-08 0)
(0.00100003 -9.41917e-08 0)
(0.00100004 -1.29272e-07 0)
(0.00100006 -1.61305e-07 0)
(0.00100007 -1.76446e-07 0)
(0.00100009 -1.82521e-07 0)
(0.0010001 -1.77879e-07 0)
(0.00100012 -1.9125e-07 0)
(0.00100012 -2.07701e-07 0)
(0.00100015 -2.88571e-07 0)
(0.00100015 -3.23072e-07 0)
(0.0010002 -5.09282e-07 0)
(0.001 4.44626e-09 0)
(0.001 1.70976e-08 0)
(0.00100001 2.73368e-08 0)
(0.00100001 3.26554e-08 0)
(0.00100001 3.14091e-08 0)
(0.00100001 2.16707e-08 0)
(0.00100001 3.39675e-09 0)
(0.00100001 -2.53127e-08 0)
(0.00100002 -5.94598e-08 0)
(0.00100002 -9.98224e-08 0)
(0.00100003 -1.37265e-07 0)
(0.00100004 -1.69148e-07 0)
(0.00100005 -1.81376e-07 0)
(0.00100007 -1.81946e-07 0)
(0.00100007 -1.72538e-07 0)
(0.00100009 -1.81582e-07 0)
(0.00100009 -1.98774e-07 0)
(0.00100011 -2.81229e-07 0)
(0.00100011 -3.19838e-07 0)
(0.00100014 -5.11862e-07 0)
(0.001 5.93736e-09 0)
(0.001 2.01377e-08 0)
(0.001 3.02848e-08 0)
(0.001 3.56837e-08 0)
(0.00100001 3.42374e-08 0)
(0.00100001 2.26287e-08 0)
(0.00100001 1.56069e-09 0)
(0.00100001 -2.80311e-08 0)
(0.00100001 -6.28405e-08 0)
(0.00100001 -1.04332e-07 0)
(0.00100002 -1.43486e-07 0)
(0.00100003 -1.77715e-07 0)
(0.00100003 -1.92546e-07 0)
(0.00100004 -1.95435e-07 0)
(0.00100004 -1.87564e-07 0)
(0.00100005 -1.97401e-07 0)
(0.00100005 -2.14667e-07 0)
(0.00100006 -2.97992e-07 0)
(0.00100007 -3.36178e-07 0)
(0.00100008 -5.32321e-07 0)
(0.001 6.86414e-09 0)
(0.001 2.19489e-08 0)
(0.001 3.18354e-08 0)
(0.001 3.70017e-08 0)
(0.001 3.54069e-08 0)
(0.001 2.36395e-08 0)
(0.001 2.33509e-09 0)
(0.001 -2.82339e-08 0)
(0.001 -6.45339e-08 0)
(0.001 -1.07961e-07 0)
(0.00100001 -1.48857e-07 0)
(0.00100001 -1.83818e-07 0)
(0.00100001 -1.98083e-07 0)
(0.00100001 -1.99189e-07 0)
(0.00100002 -1.89748e-07 0)
(0.00100002 -1.98261e-07 0)
(0.00100002 -2.163e-07 0)
(0.00100002 -3.00592e-07 0)
(0.00100002 -3.40832e-07 0)
(0.00100003 -5.39105e-07 0)
(0.001 6.86517e-09 0)
(0.000999999 2.19504e-08 0)
(0.000999999 3.1836e-08 0)
(0.000999998 3.70017e-08 0)
(0.000999998 3.54072e-08 0)
(0.000999998 2.36406e-08 0)
(0.000999998 2.33579e-09 0)
(0.000999997 -2.82338e-08 0)
(0.000999996 -6.45333e-08 0)
(0.000999995 -1.07959e-07 0)
(0.000999994 -1.48853e-07 0)
(0.000999992 -1.83814e-07 0)
(0.00099999 -1.98081e-07 0)
(0.000999987 -1.9919e-07 0)
(0.000999985 -1.89749e-07 0)
(0.000999982 -1.98261e-07 0)
(0.000999981 -2.163e-07 0)
(0.000999978 -3.00588e-07 0)
(0.000999979 -3.40832e-07 0)
(0.000999973 -5.39098e-07 0)
(0.001 5.94044e-09 0)
(0.000999997 2.01417e-08 0)
(0.000999996 3.02864e-08 0)
(0.000999995 3.56837e-08 0)
(0.000999995 3.42383e-08 0)
(0.000999994 2.2632e-08 0)
(0.000999993 1.56353e-09 0)
(0.000999991 -2.80303e-08 0)
(0.000999989 -6.28412e-08 0)
(0.000999985 -1.0433e-07 0)
(0.00099998 -1.43478e-07 0)
(0.000999974 -1.77703e-07 0)
(0.000999968 -1.92534e-07 0)
(0.000999961 -1.95423e-07 0)
(0.000999957 -1.87553e-07 0)
(0.000999949 -1.97384e-07 0)
(0.000999947 -2.14661e-07 0)
(0.000999936 -2.97966e-07 0)
(0.000999935 -3.36185e-07 0)
(0.000999915 -5.3228e-07 0)
(0.001 4.4506e-09 0)
(0.000999995 1.71033e-08 0)
(0.000999993 2.73391e-08 0)
(0.000999993 3.26559e-08 0)
(0.000999992 3.1411e-08 0)
(0.00099999 2.16753e-08 0)
(0.000999988 3.39992e-09 0)
(0.000999986 -2.53121e-08 0)
(0.000999983 -5.94606e-08 0)
(0.000999977 -9.98194e-08 0)
(0.000999968 -1.37258e-07 0)
(0.000999957 -1.69141e-07 0)
(0.000999946 -1.81372e-07 0)
(0.000999934 -1.81945e-07 0)
(0.000999925 -1.72535e-07 0)
(0.000999914 -1.81572e-07 0)
(0.000999911 -1.98783e-07 0)
(0.000999894 -2.81224e-07 0)
(0.000999894 -3.19885e-07 0)
(0.000999861 -5.11876e-07 0)
(0.001 2.64333e-09 0)
(0.000999993 1.33526e-08 0)
(0.00099999 2.39545e-08 0)
(0.00099999 2.9415e-08 0)
(0.00099999 2.71954e-08 0)
(0.000999989 1.57008e-08 0)
(0.000999984 -3.27309e-09 0)
(0.000999979 -2.81764e-08 0)
(0.000999974 -5.77213e-08 0)
(0.000999966 -9.41746e-08 0)
(0.000999956 -1.29246e-07 0)
(0.000999943 -1.61273e-07 0)
(0.000999931 -1.76419e-07 0)
(0.000999914 -1.82497e-07 0)
(0.000999903 -1.77858e-07 0)
(0.000999883 -1.91214e-07 0)
(0.000999877 -2.07684e-07 0)
(0.000999849 -2.88505e-07 0)
(0.000999849 -3.23061e-07 0)
(0.000999801 -5.09158e-07 0)
(0.001 7.3588e-10 0)
(0.000999992 8.89975e-09 0)
(0.000999988 1.97058e-08 0)
(0.000999986 2.72021e-08 0)
(0.000999984 2.88856e-08 0)
(0.00099998 2.35602e-08 0)
(0.000999979 1.19335e-08 0)
(0.000999978 -9.32699e-09 0)
(0.000999972 -3.58781e-08 0)
(0.00099996 -6.78957e-08 0)
(0.000999943 -9.70104e-08 0)
(0.000999923 -1.2221e-07 0)
(0.000999903 -1.3095e-07 0)
(0.000999881 -1.31812e-07 0)
(0.000999867 -1.22991e-07 0)
(0.000999847 -1.33165e-07 0)
(0.000999843 -1.4664e-07 0)
(0.000999811 -2.23171e-07 0)
(0.000999809 -2.54768e-07 0)
(0.000999749 -4.32114e-07 0)
(0.001 -1.81957e-09 0)
(0.000999992 2.11718e-09 0)
(0.000999988 9.78907e-09 0)
(0.000999989 1.2081e-08 0)
(0.000999991 7.43248e-09 0)
(0.000999989 -3.63906e-09 0)
(0.000999981 -1.91096e-08 0)
(0.000999971 -4.00331e-08 0)
(0.000999964 -6.45937e-08 0)
(0.000999952 -9.47231e-08 0)
(0.000999938 -1.23373e-07 0)
(0.00099992 -1.50695e-07 0)
(0.000999902 -1.64451e-07 0)
(0.000999876 -1.73438e-07 0)
(0.000999858 -1.72108e-07 0)
(0.000999826 -1.89506e-07 0)
(0.000999815 -2.04441e-07 0)
(0.000999767 -2.80314e-07 0)
(0.000999767 -3.09e-07 0)
(0.000999684 -4.78022e-07 0)
(0.001 -4.59597e-10 0)
(0.000999989 7.36145e-09 0)
(0.000999981 2.04298e-08 0)
(0.000999977 3.07084e-08 0)
(0.000999974 3.60179e-08 0)
(0.000999969 3.65347e-08 0)
(0.000999969 3.1707e-08 0)
(0.000999968 2.19891e-08 0)
(0.00099996 8.80105e-09 0)
(0.000999943 -9.09185e-09 0)
(0.000999921 -2.51254e-08 0)
(0.000999893 -4.02836e-08 0)
(0.000999866 -4.36866e-08 0)
(0.000999835 -4.44143e-08 0)
(0.000999815 -3.5522e-08 0)
(0.000999786 -4.58158e-08 0)
(0.000999778 -5.13329e-08 0)
(0.000999729 -1.15825e-07 0)
(0.000999724 -1.3367e-07 0)
(0.000999632 -2.86604e-07 0)
(0.001 -5.1658e-09 0)
(0.000999993 -9.81119e-09 0)
(0.000999988 -1.12557e-08 0)
(0.000999991 -1.47401e-08 0)
(0.000999994 -2.16743e-08 0)
(0.000999991 -3.09104e-08 0)
(0.000999981 -4.28455e-08 0)
(0.00099997 -6.12416e-08 0)
(0.000999961 -8.14603e-08 0)
(0.000999945 -1.05122e-07 0)
(0.000999927 -1.26657e-07 0)
(0.000999902 -1.48008e-07 0)
(0.00099988 -1.59328e-07 0)
(0.000999846 -1.70475e-07 0)
(0.000999825 -1.71931e-07 0)
(0.000999781 -1.9195e-07 0)
(0.000999769 -2.03025e-07 0)
(0.000999696 -2.68643e-07 0)
(0.000999695 -2.86732e-07 0)
(0.000999561 -4.31368e-07 0)
(0.001 2.73517e-09 0)
(0.000999986 1.32491e-08 0)
(0.000999975 2.74161e-08 0)
(0.000999973 3.90782e-08 0)
(0.000999972 4.71493e-08 0)
(0.000999967 5.19019e-08 0)
(0.000999963 5.60247e-08 0)
(0.000999959 6.02709e-08 0)
(0.000999951 6.36056e-08 0)
(0.000999932 6.38933e-08 0)
(0.000999908 6.4434e-08 0)
(0.000999876 6.31857e-08 0)
(0.000999848 6.70342e-08 0)
(0.00099981 6.88362e-08 0)
(0.000999787 7.89886e-08 0)
(0.000999744 7.45779e-08 0)
(0.000999734 8.29007e-08 0)
(0.000999661 4.59442e-08 0)
(0.000999655 4.99091e-08 0)
(0.000999516 -5.8419e-08 0)
(0.001 -9.05984e-09 0)
(0.000999992 -2.31425e-08 0)
(0.000999985 -3.3306e-08 0)
(0.000999987 -4.20526e-08 0)
(0.000999988 -5.02369e-08 0)
(0.000999983 -5.90173e-08 0)
(0.000999977 -6.90573e-08 0)
(0.000999968 -8.24105e-08 0)
(0.000999958 -9.77786e-08 0)
(0.000999939 -1.1441e-07 0)
(0.000999918 -1.283e-07 0)
(0.000999886 -1.42404e-07 0)
(0.000999862 -1.50113e-07 0)
(0.000999819 -1.60731e-07 0)
(0.000999802 -1.63951e-07 0)
(0.000999744 -1.8289e-07 0)
(0.000999743 -1.87886e-07 0)
(0.000999633 -2.3329e-07 0)
(0.000999644 -2.32793e-07 0)
(0.000999417 -3.34666e-07 0)
)
;

boundaryField
{
    sides
    {
        type            slip;
    }
    inlet
    {
        type            fixedValue;
        value           uniform (0.001 0 0);
    }
    outlet
    {
        type            zeroGradient;
    }
    frontAndBack
    {
        type            empty;
    }
}


// ************************************************************************* //
