/*--------------------------------*- C++ -*----------------------------------*\
  =========                 |
  \\      /  F ield         | OpenFOAM: The Open Source CFD Toolbox
   \\    /   O peration     | Website:  https://openfoam.org
    \\  /    A nd           | Version:  7
     \\/     M anipulation  |
\*---------------------------------------------------------------------------*/
FoamFile
{
    version     2.0;
    format      ascii;
    class       surfaceScalarField;
    location    "17";
    object      phi;
}
// * * * * * * * * * * * * * * * * * * * * * * * * * * * * * * * * * * * * * //

dimensions      [0 4 -1 0 0 0 0];

internalField   nonuniform List<scalar> 
760
(
5.00002e-06
7.55471e-12
5.00005e-06
1.34608e-13
5.00007e-06
1.15734e-11
5.00008e-06
2.2397e-11
5.00009e-06
2.35539e-11
5.00011e-06
1.53456e-11
5.00014e-06
1.7891e-12
5.00019e-06
-1.93286e-11
5.00026e-06
-4.29476e-11
5.00035e-06
-7.47019e-11
5.00047e-06
-1.03702e-10
5.00062e-06
-1.3846e-10
5.00077e-06
-1.50744e-10
5.00094e-06
-1.7247e-10
5.0011e-06
-1.59161e-10
5.0013e-06
-2.07796e-10
5.00149e-06
-1.96957e-10
5.00186e-06
-3.77917e-10
5.00223e-06
-3.71187e-10
-9.01835e-10
5.00006e-06
-2.05279e-11
5.0001e-06
-9.47264e-12
5.00013e-06
1.78534e-11
5.00015e-06
3.30617e-11
5.00017e-06
3.55116e-11
5.00018e-06
3.16542e-11
5.0002e-06
1.6015e-11
5.00023e-06
-2.19838e-11
5.00029e-06
-8.23717e-11
5.00039e-06
-1.55272e-10
5.00052e-06
-2.19384e-10
5.00067e-06
-2.87747e-10
5.00084e-06
-3.12909e-10
5.00101e-06
-3.41696e-10
5.00116e-06
-3.16333e-10
5.00132e-06
-3.80416e-10
5.0015e-06
-3.78125e-10
5.00176e-06
-6.48874e-10
5.00206e-06
-6.69798e-10
-1.28475e-09
5.00002e-06
-4.70875e-12
5.00004e-06
2.20591e-12
5.00005e-06
4.50009e-11
5.00005e-06
7.19292e-11
5.00005e-06
7.23907e-11
5.00007e-06
4.63942e-11
5.00012e-06
-1.37079e-12
5.00017e-06
-5.48356e-11
5.00024e-06
-1.25819e-10
5.00031e-06
-2.19453e-10
5.00041e-06
-3.09745e-10
5.00054e-06
-4.02935e-10
5.00067e-06
-4.49901e-10
5.00082e-06
-4.88531e-10
5.00097e-06
-4.75998e-10
5.00113e-06
-5.45591e-10
5.00132e-06
-5.72343e-10
5.00155e-06
-8.76551e-10
5.00183e-06
-9.50699e-10
-1.72002e-09
5.00005e-06
-1.0242e-11
5.00007e-06
9.44431e-12
5.00011e-06
4.8768e-11
5.00013e-06
7.89134e-11
5.00016e-06
8.45067e-11
5.00016e-06
6.31752e-11
5.00016e-06
2.46917e-11
5.00018e-06
-6.16714e-11
5.00024e-06
-1.66864e-10
5.00033e-06
-2.99032e-10
5.00045e-06
-4.22963e-10
5.00059e-06
-5.42431e-10
5.00073e-06
-5.96825e-10
5.00087e-06
-6.28539e-10
5.00099e-06
-6.01048e-10
5.00111e-06
-6.65877e-10
5.00123e-06
-7.02439e-10
5.00141e-06
-1.05513e-09
5.00161e-06
-1.1566e-09
-1.93894e-09
5.00003e-06
-3.40892e-12
5.00005e-06
2.67003e-11
5.00006e-06
7.63895e-11
5.00006e-06
1.11241e-10
5.00006e-06
1.11691e-10
5.00007e-06
7.33724e-11
5.00012e-06
-2.97699e-12
5.00016e-06
-8.80764e-11
5.00021e-06
-2.05696e-10
5.00027e-06
-3.53426e-10
5.00035e-06
-4.98191e-10
5.00044e-06
-6.37339e-10
5.00055e-06
-7.09683e-10
5.00066e-06
-7.4838e-10
5.00078e-06
-7.29075e-10
5.0009e-06
-7.91035e-10
5.00104e-06
-8.39304e-10
5.00118e-06
-1.19998e-09
5.00135e-06
-1.32205e-09
-2.20977e-09
5.00003e-06
4.78311e-12
5.00005e-06
4.4887e-11
5.00007e-06
9.41017e-11
5.00009e-06
1.24722e-10
5.0001e-06
1.22868e-10
5.00011e-06
8.58707e-11
5.0001e-06
1.75358e-11
5.00013e-06
-1.00973e-10
5.00017e-06
-2.42989e-10
5.00023e-06
-4.18962e-10
5.00032e-06
-5.8848e-10
5.00042e-06
-7.45552e-10
5.00053e-06
-8.21973e-10
5.00063e-06
-8.51039e-10
5.00071e-06
-8.18232e-10
5.00079e-06
-8.69562e-10
5.00087e-06
-9.23324e-10
5.00098e-06
-1.30922e-09
5.00111e-06
-1.45464e-09
-2.34871e-09
5.00003e-06
1.18676e-11
5.00004e-06
6.3232e-11
5.00005e-06
1.12763e-10
5.00006e-06
1.45003e-10
5.00006e-06
1.4552e-10
5.00007e-06
9.88736e-11
5.0001e-06
6.76099e-12
5.00012e-06
-1.16482e-10
5.00015e-06
-2.73261e-10
5.00019e-06
-4.62909e-10
5.00024e-06
-6.47067e-10
5.00031e-06
-8.16279e-10
5.00038e-06
-9.01357e-10
5.00046e-06
-9.31277e-10
5.00053e-06
-8.99226e-10
5.00061e-06
-9.45955e-10
5.00068e-06
-1.00393e-09
5.00077e-06
-1.39474e-09
5.00086e-06
-1.54482e-09
-2.50144e-09
5.00002e-06
1.75091e-11
5.00003e-06
7.95456e-11
5.00004e-06
1.30704e-10
5.00005e-06
1.58238e-10
5.00005e-06
1.53974e-10
5.00006e-06
1.03571e-10
5.00006e-06
1.08468e-11
5.00008e-06
-1.28144e-10
5.0001e-06
-2.9533e-10
5.00013e-06
-4.9955e-10
5.00018e-06
-6.98394e-10
5.00024e-06
-8.79063e-10
5.0003e-06
-9.67931e-10
5.00035e-06
-9.92315e-10
5.0004e-06
-9.5241e-10
5.00044e-06
-9.90556e-10
5.00049e-06
-1.04996e-09
5.00054e-06
-1.44935e-09
5.00061e-06
-1.61291e-09
-2.58004e-09
5.00001e-06
2.2479e-11
5.00002e-06
9.04657e-11
5.00002e-06
1.40073e-10
5.00003e-06
1.66655e-10
5.00003e-06
1.62084e-10
5.00003e-06
1.09236e-10
5.00004e-06
9.99194e-12
5.00005e-06
-1.35923e-10
5.00006e-06
-3.11149e-10
5.00008e-06
-5.2286e-10
5.00011e-06
-7.28526e-10
5.00014e-06
-9.13614e-10
5.00017e-06
-1.00393e-09
5.0002e-06
-1.02632e-09
5.00023e-06
-9.84365e-10
5.00026e-06
-1.02021e-09
5.00029e-06
-1.08187e-09
5.00033e-06
-1.48616e-09
5.00037e-06
-1.65137e-09
-2.63779e-09
5e-06
2.45428e-11
5.00001e-06
9.42926e-11
5.00001e-06
1.43119e-10
5.00001e-06
1.69159e-10
5.00001e-06
1.64735e-10
5.00001e-06
1.1073e-10
5.00001e-06
9.46739e-12
5.00002e-06
-1.39247e-10
5.00002e-06
-3.15759e-10
5.00003e-06
-5.29288e-10
5.00003e-06
-7.3742e-10
5.00004e-06
-9.25174e-10
5.00006e-06
-1.01771e-09
5.00007e-06
-1.04022e-09
5.00008e-06
-9.97343e-10
5.00009e-06
-1.0304e-09
5.0001e-06
-1.0914e-09
5.00011e-06
-1.49448e-09
5.00012e-06
-1.66156e-09
-2.65533e-09
5e-06
2.24899e-11
4.99999e-06
9.04811e-11
4.99999e-06
1.40082e-10
4.99999e-06
1.66657e-10
4.99999e-06
1.62087e-10
4.99999e-06
1.09248e-10
4.99999e-06
1.00031e-11
4.99998e-06
-1.35913e-10
4.99998e-06
-3.11145e-10
4.99997e-06
-5.22847e-10
4.99997e-06
-7.285e-10
4.99995e-06
-9.1358e-10
4.99994e-06
-1.0039e-09
4.99993e-06
-1.0263e-09
4.99992e-06
-9.84339e-10
4.99991e-06
-1.02016e-09
4.9999e-06
-1.08186e-09
4.99989e-06
-1.4861e-09
4.99988e-06
-1.65142e-09
-2.63771e-09
4.99999e-06
1.75277e-11
4.99998e-06
7.95747e-11
4.99998e-06
1.30718e-10
4.99997e-06
1.5824e-10
4.99997e-06
1.5398e-10
4.99997e-06
1.03592e-10
4.99996e-06
1.08652e-11
4.99995e-06
-1.28133e-10
4.99994e-06
-2.95324e-10
4.99992e-06
-4.99522e-10
4.99989e-06
-6.9834e-10
4.99986e-06
-8.78996e-10
4.99983e-06
-9.6787e-10
4.9998e-06
-9.92269e-10
4.99977e-06
-9.52371e-10
4.99974e-06
-9.90478e-10
4.99971e-06
-1.04996e-09
4.99967e-06
-1.44923e-09
4.99963e-06
-1.61298e-09
-2.57994e-09
4.99998e-06
1.18912e-11
4.99997e-06
6.32716e-11
4.99996e-06
1.12781e-10
4.99995e-06
1.45002e-10
4.99995e-06
1.45526e-10
4.99994e-06
9.88999e-11
4.99994e-06
6.79974e-12
4.99992e-06
-1.16465e-10
4.9999e-06
-2.73254e-10
4.99987e-06
-4.62877e-10
4.99982e-06
-6.47003e-10
4.99976e-06
-8.16197e-10
4.9997e-06
-9.01285e-10
4.99965e-06
-9.31218e-10
4.9996e-06
-8.99173e-10
4.99956e-06
-9.45841e-10
4.99951e-06
-1.00392e-09
4.99946e-06
-1.39459e-09
4.99939e-06
-1.54496e-09
-2.50123e-09
4.99997e-06
4.80671e-12
4.99996e-06
4.49296e-11
4.99995e-06
9.4117e-11
4.99994e-06
1.24721e-10
4.99994e-06
1.22876e-10
4.99993e-06
8.58996e-11
4.9999e-06
1.75572e-11
4.99988e-06
-1.00958e-10
4.99985e-06
-2.42981e-10
4.99981e-06
-4.18916e-10
4.99976e-06
-5.88395e-10
4.99969e-06
-7.45448e-10
4.99962e-06
-8.21883e-10
4.99954e-06
-8.50962e-10
4.99947e-06
-8.18166e-10
4.99939e-06
-8.69418e-10
4.99932e-06
-9.2331e-10
4.99923e-06
-1.30902e-09
4.99914e-06
-1.45478e-09
-2.34848e-09
4.99997e-06
-3.39812e-12
4.99995e-06
2.67341e-11
4.99993e-06
7.63982e-11
4.99991e-06
1.1123e-10
4.9999e-06
1.11687e-10
4.99989e-06
7.33934e-11
4.9999e-06
-2.95408e-12
4.99987e-06
-8.80649e-11
4.99983e-06
-2.05699e-10
4.99977e-06
-3.53396e-10
4.99968e-06
-4.98126e-10
4.99958e-06
-6.37252e-10
4.99947e-06
-7.09617e-10
4.99937e-06
-7.48324e-10
4.99929e-06
-7.29043e-10
4.99921e-06
-7.90905e-10
4.99913e-06
-8.39324e-10
4.99902e-06
-1.19977e-09
4.99889e-06
-1.32222e-09
-2.20949e-09
4.99997e-06
-1.02245e-11
4.99995e-06
9.46216e-12
4.99994e-06
4.8775e-11
4.99994e-06
7.89091e-11
4.99994e-06
8.451e-11
4.99993e-06
6.31974e-11
4.99988e-06
2.4703e-11
4.99984e-06
-6.1661e-11
4.99979e-06
-1.66864e-10
4.99973e-06
-2.98986e-10
4.99965e-06
-4.22882e-10
4.99956e-06
-5.42322e-10
4.99945e-06
-5.96742e-10
4.99934e-06
-6.28454e-10
4.99922e-06
-6.00993e-10
4.99909e-06
-6.65714e-10
4.99896e-06
-7.02453e-10
4.99882e-06
-1.05489e-09
4.99865e-06
-1.15675e-09
-1.93857e-09
4.99995e-06
-4.69729e-12
4.99993e-06
2.21698e-12
4.99989e-06
4.49893e-11
4.99987e-06
7.19056e-11
4.99984e-06
7.23705e-11
4.99984e-06
4.63921e-11
4.99984e-06
-1.37881e-12
4.99982e-06
-5.48476e-11
4.99976e-06
-1.25843e-10
4.99967e-06
-2.1945e-10
4.99955e-06
-3.09724e-10
4.99941e-06
-4.02894e-10
4.99927e-06
-4.49893e-10
4.99913e-06
-4.88513e-10
4.99901e-06
-4.76024e-10
4.99889e-06
-5.45492e-10
4.99877e-06
-5.72415e-10
4.99859e-06
-8.76361e-10
4.99839e-06
-9.50876e-10
-1.71977e-09
4.99998e-06
-2.0519e-11
4.99996e-06
-9.46274e-12
4.99995e-06
1.78555e-11
4.99995e-06
3.30564e-11
4.99995e-06
3.55043e-11
4.99993e-06
3.16702e-11
4.99988e-06
1.60209e-11
4.99983e-06
-2.19835e-11
4.99976e-06
-8.23779e-11
4.99969e-06
-1.55238e-10
4.99958e-06
-2.19341e-10
4.99946e-06
-2.87669e-10
4.99933e-06
-3.1287e-10
4.99918e-06
-3.41622e-10
4.99903e-06
-3.1633e-10
4.99887e-06
-3.80283e-10
4.99868e-06
-3.78207e-10
4.99845e-06
-6.48671e-10
4.99817e-06
-6.6995e-10
-1.28435e-09
4.99994e-06
7.5458e-12
4.9999e-06
1.21758e-13
4.99987e-06
1.15545e-11
4.99985e-06
2.2371e-11
4.99983e-06
2.35233e-11
4.99982e-06
1.53121e-11
4.9998e-06
1.74181e-12
4.99977e-06
-1.93917e-11
4.99971e-06
-4.30128e-11
4.99961e-06
-7.47615e-11
4.99948e-06
-1.03762e-10
4.99933e-06
-1.38511e-10
4.99916e-06
-1.50812e-10
4.999e-06
-1.72512e-10
4.99884e-06
-1.59233e-10
4.99868e-06
-2.07799e-10
4.9985e-06
-1.97076e-10
4.99824e-06
-3.77936e-10
4.99794e-06
-3.71364e-10
-9.01898e-10
4.99998e-06
4.99995e-06
4.99993e-06
4.99992e-06
4.99991e-06
4.99989e-06
4.99986e-06
4.99981e-06
4.99974e-06
4.99964e-06
4.99953e-06
4.99938e-06
4.99923e-06
4.99905e-06
4.9989e-06
4.9987e-06
4.99851e-06
4.99814e-06
4.99777e-06
)
;

boundaryField
{
    sides
    {
        type            calculated;
        value           uniform 0;
    }
    inlet
    {
        type            calculated;
        value           nonuniform List<scalar> 
20
(
-5e-06
-5e-06
-5e-06
-5e-06
-5e-06
-5e-06
-5e-06
-5e-06
-5e-06
-5e-06
-5e-06
-5e-06
-5e-06
-5e-06
-5e-06
-5e-06
-5e-06
-5e-06
-5e-06
-5e-06
)
;
    }
    outlet
    {
        type            calculated;
        value           nonuniform List<scalar> 
20
(
5.00313e-06
5.00244e-06
5.00226e-06
5.00183e-06
5.00162e-06
5.00125e-06
5.00101e-06
5.00069e-06
5.00043e-06
5.00014e-06
4.99986e-06
4.99957e-06
4.99931e-06
4.99899e-06
4.99875e-06
4.99838e-06
4.99817e-06
4.99774e-06
4.99756e-06
4.99687e-06
)
;
    }
    frontAndBack
    {
        type            empty;
        value           nonuniform 0();
    }
}


// ************************************************************************* //
