/*--------------------------------*- C++ -*----------------------------------*\
  =========                 |
  \\      /  F ield         | OpenFOAM: The Open Source CFD Toolbox
   \\    /   O peration     | Website:  https://openfoam.org
    \\  /    A nd           | Version:  7
     \\/     M anipulation  |
\*---------------------------------------------------------------------------*/
FoamFile
{
    version     2.0;
    format      ascii;
    class       volVectorField;
    location    "37";
    object      ddtCorrDdt0(hU);
}
// * * * * * * * * * * * * * * * * * * * * * * * * * * * * * * * * * * * * * //

dimensions      [0 2 -2 0 0 0 0];

internalField   nonuniform List<vector> 
400
(
(4.89719e-10 -3.76405e-10 0)
(-1.33848e-09 -1.31282e-09 0)
(-2.4889e-09 -1.95485e-09 0)
(-2.98844e-09 -2.48238e-09 0)
(-3.21052e-09 -3.07613e-09 0)
(-2.80293e-09 -3.63713e-09 0)
(-1.02274e-10 -2.96294e-09 0)
(-2.94768e-09 -3.71848e-09 0)
(-5.57571e-10 -1.32997e-09 0)
(3.01379e-10 5.78197e-10 0)
(4.47276e-10 2.19609e-09 0)
(2.98444e-10 2.69494e-09 0)
(-1.0019e-09 2.35017e-09 0)
(-2.65874e-09 1.13974e-09 0)
(-2.8683e-09 -2.48778e-10 0)
(-2.34989e-09 -1.77456e-09 0)
(-2.04165e-10 -2.66629e-09 0)
(1.265e-09 -2.27159e-09 0)
(3.44299e-09 -1.83374e-09 0)
(4.75688e-09 -9.43572e-11 0)
(2.24856e-10 4.06951e-10 0)
(-1.34437e-09 -3.44107e-12 0)
(-2.60572e-09 -7.81017e-11 0)
(-3.3276e-09 3.50144e-10 0)
(-2.17499e-09 6.05969e-10 0)
(-1.64645e-09 1.59948e-10 0)
(-2.89967e-09 7.85724e-10 0)
(2.50864e-09 -2.6948e-10 0)
(1.79565e-09 -1.25825e-10 0)
(2.06573e-09 4.01424e-10 0)
(1.52074e-09 1.22763e-09 0)
(2.76853e-10 1.66477e-09 0)
(-1.29998e-09 1.74879e-09 0)
(-2.75315e-09 1.52775e-09 0)
(-2.95232e-09 1.20849e-09 0)
(-2.64227e-09 5.72629e-10 0)
(-7.09387e-10 -5.34102e-10 0)
(8.01475e-10 -9.43831e-10 0)
(3.20917e-09 -1.84222e-09 0)
(4.76652e-09 -1.02113e-09 0)
(1.57221e-10 -2.01339e-10 0)
(-1.44752e-09 -1.27944e-09 0)
(-2.55048e-09 -1.72548e-09 0)
(-2.49886e-09 -2.10335e-09 0)
(-2.15298e-09 -2.71336e-09 0)
(-1.62499e-09 -3.28994e-09 0)
(-1.2595e-09 -3.40224e-09 0)
(-1.66964e-09 -2.39351e-09 0)
(4.83845e-11 -1.26067e-09 0)
(1.0469e-09 9.33041e-10 0)
(4.29547e-10 3.41525e-09 0)
(-7.93736e-10 4.93223e-09 0)
(-1.94665e-09 5.06363e-09 0)
(-2.64776e-09 3.23619e-09 0)
(-2.51406e-09 7.62371e-10 0)
(-2.22951e-09 -2.15571e-09 0)
(-1.76862e-10 -4.52568e-09 0)
(1.44445e-09 -4.49386e-09 0)
(3.76029e-09 -4.82323e-09 0)
(4.80356e-09 -1.25087e-09 0)
(-4.48279e-11 -6.26882e-10 0)
(-7.73615e-10 -2.11229e-09 0)
(-2.13773e-09 -2.81526e-09 0)
(-2.51674e-09 -3.28954e-09 0)
(-2.27629e-09 -4.17196e-09 0)
(-1.49416e-09 -4.69547e-09 0)
(-1.35093e-09 -5.36503e-09 0)
(-1.54103e-10 -4.48507e-09 0)
(1.69395e-09 -2.24066e-09 0)
(2.07588e-09 2.73332e-10 0)
(1.60861e-09 3.27759e-09 0)
(1.81278e-10 5.23523e-09 0)
(-1.17432e-09 6.11619e-09 0)
(-2.06284e-09 4.50523e-09 0)
(-2.24594e-09 1.63179e-09 0)
(-2.32733e-09 -2.10457e-09 0)
(-7.39933e-10 -5.4389e-09 0)
(6.59351e-10 -5.48729e-09 0)
(2.84945e-09 -6.17615e-09 0)
(4.30916e-09 -1.96147e-09 0)
(2.63421e-10 1.71774e-10 0)
(-3.44363e-10 -5.40388e-10 0)
(-1.53564e-09 -1.21511e-09 0)
(-1.73234e-09 -1.74762e-09 0)
(-1.34581e-09 -2.73244e-09 0)
(-1.04294e-09 -3.528e-09 0)
(-1.4154e-09 -4.3375e-09 0)
(-7.10895e-10 -3.5281e-09 0)
(-4.72787e-10 -2.33175e-09 0)
(-4.1457e-11 3.62926e-10 0)
(-1.53607e-10 3.69826e-09 0)
(-8.69814e-10 5.93316e-09 0)
(-1.17357e-09 6.95307e-09 0)
(-1.43125e-09 5.01687e-09 0)
(-1.54202e-09 1.69752e-09 0)
(-1.56527e-09 -2.34648e-09 0)
(-1.93753e-10 -5.95845e-09 0)
(9.49791e-10 -6.13669e-09 0)
(2.46694e-09 -7.40237e-09 0)
(3.39789e-09 -2.54798e-09 0)
(2.48604e-10 -2.28393e-10 0)
(-3.34605e-10 -1.68456e-09 0)
(-1.57478e-09 -3.09526e-09 0)
(-2.13593e-09 -4.72362e-09 0)
(-1.74584e-09 -6.52774e-09 0)
(-1.29249e-09 -8.03356e-09 0)
(-5.10288e-10 -8.49418e-09 0)
(6.83691e-10 -7.37539e-09 0)
(1.51506e-09 -4.7056e-09 0)
(2.04779e-09 -1.59235e-10 0)
(1.04993e-09 4.68457e-09 0)
(-2.16038e-10 7.98229e-09 0)
(-1.13331e-09 9.173e-09 0)
(-2.22281e-09 6.03602e-09 0)
(-2.7877e-09 1.13296e-09 0)
(-2.6386e-09 -4.46346e-09 0)
(-5.971e-10 -8.89512e-09 0)
(9.89969e-10 -8.61138e-09 0)
(3.03273e-09 -9.52879e-09 0)
(3.86499e-09 -2.86991e-09 0)
(2.26087e-10 -2.54629e-11 0)
(-1.22467e-10 -1.08532e-09 0)
(-8.44172e-10 -2.23121e-09 0)
(-1.00385e-09 -3.56632e-09 0)
(-6.26633e-10 -4.93997e-09 0)
(-7.29344e-10 -6.57251e-09 0)
(-7.40826e-10 -7.3565e-09 0)
(-7.2674e-10 -7.07211e-09 0)
(-3.08131e-10 -4.95734e-09 0)
(-1.0995e-12 -1.32218e-09 0)
(-1.49449e-10 3.12228e-09 0)
(-1.92999e-11 6.62143e-09 0)
(7.59225e-11 8.29093e-09 0)
(-4.70536e-10 5.8067e-09 0)
(-9.12304e-10 1.61502e-09 0)
(-1.01157e-09 -3.48528e-09 0)
(-2.98057e-10 -8.15208e-09 0)
(2.65617e-10 -8.32437e-09 0)
(1.00762e-09 -1.00651e-08 0)
(1.85693e-09 -3.58666e-09 0)
(1.25088e-10 3.6485e-11 0)
(-1.40167e-11 -7.44804e-10 0)
(-6.97232e-10 -2.41307e-09 0)
(-9.83274e-10 -4.65319e-09 0)
(-8.07131e-10 -6.83467e-09 0)
(-6.58319e-10 -8.69875e-09 0)
(-3.80506e-10 -9.61028e-09 0)
(3.91598e-11 -8.84216e-09 0)
(6.37883e-10 -5.85893e-09 0)
(7.56088e-10 -1.03912e-09 0)
(4.20393e-10 4.62517e-09 0)
(-8.69057e-11 8.52848e-09 0)
(-9.32946e-10 9.725e-09 0)
(-1.80154e-09 6.07888e-09 0)
(-1.90505e-09 7.76184e-10 0)
(-1.50401e-09 -5.30206e-09 0)
(-2.61627e-10 -1.0398e-08 0)
(4.92891e-10 -1.02322e-08 0)
(1.82202e-09 -1.15067e-08 0)
(2.53149e-09 -3.58795e-09 0)
(2.40998e-11 2.129e-11 0)
(-5.98805e-12 -5.21973e-10 0)
(-4.86333e-10 -2.44986e-09 0)
(-5.45144e-10 -4.81231e-09 0)
(-3.69544e-10 -7.03732e-09 0)
(-1.37026e-10 -8.75689e-09 0)
(-6.25326e-11 -9.86942e-09 0)
(-5.63347e-11 -9.34073e-09 0)
(-3.46337e-11 -6.80604e-09 0)
(-1.60284e-10 -2.2247e-09 0)
(-1.41874e-10 3.45402e-09 0)
(-1.42607e-10 7.5464e-09 0)
(-3.5578e-10 9.34781e-09 0)
(-5.06642e-10 6.45318e-09 0)
(-3.11792e-10 1.59065e-09 0)
(-1.42904e-10 -4.45653e-09 0)
(-2.53809e-11 -9.97667e-09 0)
(1.81382e-11 -1.00873e-08 0)
(2.88468e-10 -1.177e-08 0)
(8.09897e-10 -3.9947e-09 0)
(5.22767e-12 2.47417e-11 0)
(1.58768e-11 -3.56966e-10 0)
(-1.58812e-10 -2.32136e-09 0)
(-1.49881e-10 -4.8286e-09 0)
(-7.31219e-11 -7.28482e-09 0)
(-6.62429e-11 -9.26106e-09 0)
(-1.80051e-10 -1.059e-08 0)
(-1.91202e-10 -9.95824e-09 0)
(-2.62537e-11 -7.133e-09 0)
(1.80901e-10 -2.0973e-09 0)
(2.45696e-10 3.90371e-09 0)
(1.21947e-10 7.99943e-09 0)
(-1.4887e-10 9.66248e-09 0)
(-3.92577e-10 6.45585e-09 0)
(-4.42918e-10 1.18032e-09 0)
(-4.81196e-10 -5.28052e-09 0)
(-3.03216e-10 -1.08888e-08 0)
(-2.01182e-10 -1.07146e-08 0)
(3.97448e-10 -1.20159e-08 0)
(8.24884e-10 -3.81593e-09 0)
(-7.74702e-12 5.13477e-11 0)
(-1.09858e-11 -3.93309e-10 0)
(1.74675e-10 -2.34517e-09 0)
(1.29471e-10 -4.83893e-09 0)
(9.57911e-11 -7.25835e-09 0)
(8.61582e-11 -9.24875e-09 0)
(1.78222e-10 -1.05513e-08 0)
(1.60279e-10 -9.94347e-09 0)
(-4.36973e-11 -7.06577e-09 0)
(-1.28339e-10 -2.04982e-09 0)
(-2.47701e-10 3.92281e-09 0)
(-2.16636e-10 8.0852e-09 0)
(1.55813e-10 9.74702e-09 0)
(4.85763e-10 6.45472e-09 0)
(5.40108e-10 1.13769e-09 0)
(5.48136e-10 -5.31017e-09 0)
(2.88243e-10 -1.0897e-08 0)
(1.197e-10 -1.06963e-08 0)
(-4.51163e-10 -1.19774e-08 0)
(-7.9081e-10 -3.79426e-09 0)
(-7.54548e-11 3.65222e-11 0)
(-2.01058e-11 -5.76781e-10 0)
(4.90308e-10 -2.45978e-09 0)
(5.67225e-10 -4.81523e-09 0)
(3.60284e-10 -6.97107e-09 0)
(1.67668e-10 -8.75524e-09 0)
(4.62273e-11 -9.81726e-09 0)
(7.1496e-11 -9.3319e-09 0)
(3.56111e-11 -6.72385e-09 0)
(1.39175e-10 -2.14581e-09 0)
(1.91579e-10 3.45516e-09 0)
(1.1973e-10 7.6597e-09 0)
(2.08558e-10 9.53364e-09 0)
(4.07075e-10 6.53375e-09 0)
(3.59074e-10 1.55868e-09 0)
(2.4632e-10 -4.5235e-09 0)
(7.3278e-11 -1.00156e-08 0)
(-2.9864e-11 -1.00543e-08 0)
(-3.14017e-10 -1.16806e-08 0)
(-8.1653e-10 -3.94182e-09 0)
(-1.35532e-10 -2.79063e-11 0)
(-3.36563e-11 -7.26146e-10 0)
(6.93075e-10 -2.35698e-09 0)
(1.01944e-09 -4.61814e-09 0)
(7.83681e-10 -6.801e-09 0)
(6.63111e-10 -8.72266e-09 0)
(3.94265e-10 -9.63367e-09 0)
(-2.4643e-11 -8.84384e-09 0)
(-5.38661e-10 -5.88988e-09 0)
(-7.99028e-10 -1.03341e-09 0)
(-3.73376e-10 4.56555e-09 0)
(2.31651e-10 8.48152e-09 0)
(8.72354e-10 9.83206e-09 0)
(1.58396e-09 6.25696e-09 0)
(1.76307e-09 8.70837e-10 0)
(1.51435e-09 -5.32117e-09 0)
(3.67056e-10 -1.04446e-08 0)
(-3.90027e-10 -1.02253e-08 0)
(-1.8017e-09 -1.14478e-08 0)
(-2.58713e-09 -3.55011e-09 0)
(-1.31734e-10 -1.17145e-10 0)
(1.18812e-10 -9.87367e-10 0)
(8.41213e-10 -2.16563e-09 0)
(9.92274e-10 -3.53736e-09 0)
(6.27039e-10 -4.99737e-09 0)
(6.78564e-10 -6.56859e-09 0)
(8.00672e-10 -7.42673e-09 0)
(7.11702e-10 -7.04642e-09 0)
(3.66593e-10 -5.00733e-09 0)
(5.0855e-12 -1.37702e-09 0)
(1.274e-10 3.05055e-09 0)
(2.18304e-10 6.4495e-09 0)
(1.28659e-10 8.19966e-09 0)
(4.00628e-10 5.90327e-09 0)
(6.67751e-10 1.76782e-09 0)
(8.68458e-10 -3.41053e-09 0)
(3.56231e-10 -8.1597e-09 0)
(-1.34579e-10 -8.36157e-09 0)
(-9.59467e-10 -1.00879e-08 0)
(-1.91512e-09 -3.59029e-09 0)
(-1.08927e-10 -2.39619e-10 0)
(4.1851e-10 -1.59692e-09 0)
(1.55838e-09 -3.09823e-09 0)
(2.07867e-09 -4.74761e-09 0)
(1.77454e-09 -6.60184e-09 0)
(1.23464e-09 -7.97566e-09 0)
(5.5077e-10 -8.54462e-09 0)
(-6.67315e-10 -7.36309e-09 0)
(-1.56472e-09 -4.66654e-09 0)
(-2.06922e-09 -1.60278e-10 0)
(-1.16408e-09 4.691e-09 0)
(3.02664e-10 7.85198e-09 0)
(1.47462e-09 8.95428e-09 0)
(2.41315e-09 5.93544e-09 0)
(2.65517e-09 1.19216e-09 0)
(2.41895e-09 -4.37096e-09 0)
(5.1675e-10 -8.87116e-09 0)
(-9.4349e-10 -8.66954e-09 0)
(-2.98184e-09 -9.60244e-09 0)
(-3.87166e-09 -2.89585e-09 0)
(-2.06878e-10 3.00252e-10 0)
(4.69089e-10 -5.81106e-10 0)
(1.50997e-09 -1.34287e-09 0)
(1.69319e-09 -1.78804e-09 0)
(1.38023e-09 -2.70087e-09 0)
(1.03344e-09 -3.51645e-09 0)
(1.36826e-09 -4.3245e-09 0)
(8.6417e-10 -3.69343e-09 0)
(4.5886e-10 -2.31801e-09 0)
(-3.77026e-12 4.32712e-10 0)
(-5.6826e-11 3.83243e-09 0)
(7.03083e-10 5.9763e-09 0)
(1.38307e-09 6.77922e-09 0)
(1.772e-09 4.79298e-09 0)
(1.63888e-09 1.61174e-09 0)
(1.42074e-09 -2.3138e-09 0)
(3.53799e-11 -5.92123e-09 0)
(-9.92541e-10 -6.16247e-09 0)
(-2.42321e-09 -7.45736e-09 0)
(-3.34942e-09 -2.57516e-09 0)
(-1.17728e-10 -3.94669e-10 0)
(7.99525e-10 -2.24116e-09 0)
(2.13539e-09 -3.03794e-09 0)
(2.57808e-09 -3.28777e-09 0)
(2.2511e-09 -3.97295e-09 0)
(1.58183e-09 -4.87691e-09 0)
(1.03251e-09 -4.91029e-09 0)
(2.98453e-10 -4.67908e-09 0)
(-1.38347e-09 -2.47316e-09 0)
(-1.9402e-09 3.11642e-10 0)
(-1.75385e-09 3.4682e-09 0)
(-5.59675e-10 5.4172e-09 0)
(1.06255e-09 6.09614e-09 0)
(2.3206e-09 4.31871e-09 0)
(2.50547e-09 1.46904e-09 0)
(2.34624e-09 -2.15572e-09 0)
(6.133e-10 -5.41087e-09 0)
(-7.48346e-10 -5.45572e-09 0)
(-2.8416e-09 -6.16697e-09 0)
(-4.24482e-09 -1.95756e-09 0)
(-5.2201e-10 -2.37742e-10 0)
(1.32646e-09 -1.32652e-09 0)
(2.5883e-09 -1.6961e-09 0)
(2.70346e-09 -2.08489e-09 0)
(2.02898e-09 -2.54274e-09 0)
(1.954e-09 -3.51345e-09 0)
(9.07733e-10 -1.81662e-09 0)
(6.62514e-10 -2.33929e-09 0)
(3.51779e-10 -1.5601e-09 0)
(-4.98476e-10 8.68659e-10 0)
(-4.09396e-10 3.37603e-09 0)
(3.53078e-10 5.0288e-09 0)
(1.60889e-09 5.23869e-09 0)
(2.72567e-09 3.29342e-09 0)
(2.78396e-09 6.94119e-10 0)
(2.37638e-09 -2.21549e-09 0)
(1.49147e-10 -4.49898e-09 0)
(-1.51753e-09 -4.41943e-09 0)
(-3.78343e-09 -4.759e-09 0)
(-4.76388e-09 -1.22778e-09 0)
(-2.37852e-10 9.46393e-11 0)
(1.26592e-09 -4.37125e-14 0)
(2.61241e-09 3.82178e-10 0)
(3.42343e-09 3.88662e-10 0)
(2.7234e-09 1.45448e-10 0)
(5.99444e-09 5.97711e-10 0)
(-1.43867e-09 -1.48047e-09 0)
(-5.66399e-09 3.20787e-10 0)
(-1.63507e-09 5.96104e-10 0)
(-1.61082e-09 2.22707e-10 0)
(-1.42925e-09 8.33731e-10 0)
(-2.9776e-10 1.70328e-09 0)
(1.16786e-09 2.12726e-09 0)
(2.63867e-09 1.77838e-09 0)
(2.98823e-09 1.19604e-09 0)
(2.75696e-09 4.81673e-10 0)
(7.74364e-10 -5.42909e-10 0)
(-8.1214e-10 -8.75759e-10 0)
(-3.2398e-09 -1.76221e-09 0)
(-4.77189e-09 -9.86217e-10 0)
(-1.7811e-10 -5.20956e-10 0)
(1.38542e-09 -1.32359e-09 0)
(2.49808e-09 -1.64458e-09 0)
(2.72427e-09 -2.44341e-09 0)
(2.78875e-09 -3.55961e-09 0)
(-1.8629e-09 -3.12509e-09 0)
(5.10186e-09 -6.38854e-09 0)
(6.85459e-09 -3.22108e-09 0)
(-2.98367e-10 -5.15567e-10 0)
(-1.32825e-09 4.53347e-10 0)
(-1.2522e-10 1.92676e-09 0)
(4.25527e-10 2.73883e-09 0)
(1.05859e-09 2.58811e-09 0)
(2.21766e-09 1.28094e-09 0)
(2.59873e-09 -2.64525e-10 0)
(2.40725e-09 -1.83684e-09 0)
(3.37772e-10 -2.68476e-09 0)
(-1.22795e-09 -2.24588e-09 0)
(-3.48854e-09 -1.79838e-09 0)
(-4.8057e-09 -7.68736e-11 0)
)
;

boundaryField
{
    sides
    {
        type            calculated;
        value           nonuniform List<vector> 
40
(
(-1.7811e-10 0 0)
(1.38542e-09 0 0)
(2.49808e-09 0 0)
(2.72427e-09 0 0)
(2.78875e-09 0 0)
(-1.8629e-09 0 0)
(5.10186e-09 0 0)
(6.85459e-09 0 0)
(-2.98367e-10 0 0)
(-1.32825e-09 0 0)
(-1.2522e-10 0 0)
(4.25527e-10 0 0)
(1.05859e-09 0 0)
(2.21766e-09 0 0)
(2.59873e-09 0 0)
(2.40725e-09 0 0)
(3.37772e-10 0 0)
(-1.22795e-09 0 0)
(-3.48854e-09 0 0)
(-4.8057e-09 0 0)
(4.89719e-10 0 0)
(-1.33848e-09 0 0)
(-2.4889e-09 0 0)
(-2.98844e-09 0 0)
(-3.21052e-09 0 0)
(-2.80293e-09 0 0)
(-1.02274e-10 0 0)
(-2.94768e-09 0 0)
(-5.57571e-10 0 0)
(3.01379e-10 0 0)
(4.47276e-10 0 0)
(2.98444e-10 0 0)
(-1.0019e-09 0 0)
(-2.65874e-09 0 0)
(-2.8683e-09 0 0)
(-2.34989e-09 0 0)
(-2.04165e-10 0 0)
(1.265e-09 0 0)
(3.44299e-09 0 0)
(4.75688e-09 0 0)
)
;
    }
    inlet
    {
        type            calculated;
        value           uniform (0 0 0);
    }
    outlet
    {
        type            calculated;
        value           nonuniform List<vector> 
20
(
(4.75688e-09 -9.43572e-11 0)
(4.76652e-09 -1.02113e-09 0)
(4.80356e-09 -1.25087e-09 0)
(4.30916e-09 -1.96147e-09 0)
(3.39789e-09 -2.54798e-09 0)
(3.86499e-09 -2.86991e-09 0)
(1.85693e-09 -3.58666e-09 0)
(2.53149e-09 -3.58795e-09 0)
(8.09897e-10 -3.9947e-09 0)
(8.24884e-10 -3.81593e-09 0)
(-7.9081e-10 -3.79426e-09 0)
(-8.1653e-10 -3.94182e-09 0)
(-2.58713e-09 -3.55011e-09 0)
(-1.91512e-09 -3.59029e-09 0)
(-3.87166e-09 -2.89585e-09 0)
(-3.34942e-09 -2.57516e-09 0)
(-4.24482e-09 -1.95756e-09 0)
(-4.76388e-09 -1.22778e-09 0)
(-4.77189e-09 -9.86217e-10 0)
(-4.8057e-09 -7.68736e-11 0)
)
;
    }
    frontAndBack
    {
        type            empty;
    }
}


// ************************************************************************* //
