/*--------------------------------*- C++ -*----------------------------------*\
  =========                 |
  \\      /  F ield         | OpenFOAM: The Open Source CFD Toolbox
   \\    /   O peration     | Website:  https://openfoam.org
    \\  /    A nd           | Version:  7
     \\/     M anipulation  |
\*---------------------------------------------------------------------------*/
FoamFile
{
    version     2.0;
    format      ascii;
    class       volVectorField;
    location    "37";
    object      hU;
}
// * * * * * * * * * * * * * * * * * * * * * * * * * * * * * * * * * * * * * //

dimensions      [0 2 -1 0 0 0 0];

internalField   nonuniform List<vector> 
400
(
(0.001 -9.18438e-09 0)
(0.000999999 -2.47696e-08 0)
(0.001 -3.73776e-08 0)
(0.001 -4.81904e-08 0)
(0.00100001 -5.81425e-08 0)
(0.00100002 -6.81177e-08 0)
(0.00100002 -7.75984e-08 0)
(0.00100003 -8.79005e-08 0)
(0.00100004 -9.80061e-08 0)
(0.00100006 -1.09926e-07 0)
(0.00100007 -1.21379e-07 0)
(0.00100009 -1.36066e-07 0)
(0.00100011 -1.47781e-07 0)
(0.00100015 -1.65624e-07 0)
(0.00100017 -1.7462e-07 0)
(0.00100024 -1.98369e-07 0)
(0.00100026 -2.01346e-07 0)
(0.00100038 -2.42495e-07 0)
(0.00100038 -2.37176e-07 0)
(0.0010006 -3.29492e-07 0)
(0.001 3.83024e-09 0)
(0.001 1.16802e-08 0)
(0.00100001 1.9599e-08 0)
(0.00100001 2.69885e-08 0)
(0.00100002 3.37596e-08 0)
(0.00100003 3.99086e-08 0)
(0.00100003 4.6217e-08 0)
(0.00100004 5.17223e-08 0)
(0.00100005 5.74856e-08 0)
(0.00100007 6.19198e-08 0)
(0.00100008 6.69079e-08 0)
(0.0010001 6.8501e-08 0)
(0.00100012 7.22274e-08 0)
(0.00100015 6.87823e-08 0)
(0.00100018 7.25941e-08 0)
(0.00100023 5.98307e-08 0)
(0.00100026 6.56711e-08 0)
(0.00100035 3.06292e-08 0)
(0.00100037 3.95257e-08 0)
(0.0010005 -5.37522e-08 0)
(0.001 -4.89845e-09 0)
(0.000999999 -1.51106e-08 0)
(0.001 -2.57998e-08 0)
(0.001 -3.67208e-08 0)
(0.00100001 -4.70048e-08 0)
(0.00100001 -5.69029e-08 0)
(0.00100002 -6.62716e-08 0)
(0.00100003 -7.63935e-08 0)
(0.00100004 -8.66678e-08 0)
(0.00100005 -9.97657e-08 0)
(0.00100006 -1.13185e-07 0)
(0.00100008 -1.32016e-07 0)
(0.0010001 -1.48423e-07 0)
(0.00100013 -1.74086e-07 0)
(0.00100016 -1.8988e-07 0)
(0.00100021 -2.25857e-07 0)
(0.00100023 -2.37958e-07 0)
(0.00100031 -2.97984e-07 0)
(0.00100033 -3.03547e-07 0)
(0.00100046 -4.17672e-07 0)
(0.001 -1.66868e-09 0)
(0.001 -3.41882e-09 0)
(0.00100001 -3.75843e-09 0)
(0.00100001 -3.52235e-09 0)
(0.00100002 -2.68626e-09 0)
(0.00100002 -1.82081e-09 0)
(0.00100003 -6.51044e-10 0)
(0.00100004 -5.16223e-10 0)
(0.00100005 -8.59245e-10 0)
(0.00100006 -4.62978e-09 0)
(0.00100007 -9.3289e-09 0)
(0.00100008 -2.03138e-08 0)
(0.0010001 -2.96258e-08 0)
(0.00100013 -4.94504e-08 0)
(0.00100015 -5.9823e-08 0)
(0.00100019 -9.16199e-08 0)
(0.00100022 -9.93274e-08 0)
(0.00100028 -1.56206e-07 0)
(0.0010003 -1.58784e-07 0)
(0.00100039 -2.70997e-07 0)
(0.001 -3.93266e-09 0)
(0.001 -1.19155e-08 0)
(0.001 -2.00556e-08 0)
(0.001 -2.87883e-08 0)
(0.00100001 -3.75985e-08 0)
(0.00100001 -4.65968e-08 0)
(0.00100002 -5.526e-08 0)
(0.00100002 -6.50037e-08 0)
(0.00100003 -7.52257e-08 0)
(0.00100004 -8.88696e-08 0)
(0.00100005 -1.03679e-07 0)
(0.00100007 -1.253e-07 0)
(0.00100008 -1.4552e-07 0)
(0.00100011 -1.76743e-07 0)
(0.00100013 -1.98195e-07 0)
(0.00100016 -2.41724e-07 0)
(0.00100018 -2.60098e-07 0)
(0.00100024 -3.28369e-07 0)
(0.00100025 -3.39057e-07 0)
(0.00100033 -4.58554e-07 0)
(0.001 -3.99769e-09 0)
(0.001 -1.13073e-08 0)
(0.001 -1.75571e-08 0)
(0.00100001 -2.3038e-08 0)
(0.00100001 -2.7426e-08 0)
(0.00100001 -3.139e-08 0)
(0.00100002 -3.48016e-08 0)
(0.00100003 -3.95587e-08 0)
(0.00100003 -4.53519e-08 0)
(0.00100004 -5.54547e-08 0)
(0.00100005 -6.78194e-08 0)
(0.00100006 -8.78877e-08 0)
(0.00100007 -1.07248e-07 0)
(0.00100009 -1.37818e-07 0)
(0.00100011 -1.58225e-07 0)
(0.00100014 -2.00343e-07 0)
(0.00100016 -2.16475e-07 0)
(0.0010002 -2.82352e-07 0)
(0.00100021 -2.90573e-07 0)
(0.00100027 -4.07075e-07 0)
(0.001 -4.23987e-09 0)
(0.001 -1.25645e-08 0)
(0.001 -2.05346e-08 0)
(0.001 -2.86054e-08 0)
(0.00100001 -3.64761e-08 0)
(0.00100001 -4.45566e-08 0)
(0.00100001 -5.23266e-08 0)
(0.00100002 -6.14804e-08 0)
(0.00100002 -7.1554e-08 0)
(0.00100003 -8.58179e-08 0)
(0.00100004 -1.02197e-07 0)
(0.00100005 -1.26421e-07 0)
(0.00100006 -1.50192e-07 0)
(0.00100007 -1.85853e-07 0)
(0.00100009 -2.1153e-07 0)
(0.00100011 -2.59597e-07 0)
(0.00100012 -2.81023e-07 0)
(0.00100015 -3.52487e-07 0)
(0.00100016 -3.64466e-07 0)
(0.00100021 -4.84823e-07 0)
(0.001 -4.48453e-09 0)
(0.001 -1.35811e-08 0)
(0.001 -2.23572e-08 0)
(0.001 -3.07658e-08 0)
(0.00100001 -3.83441e-08 0)
(0.00100001 -4.56427e-08 0)
(0.00100001 -5.24073e-08 0)
(0.00100001 -6.05318e-08 0)
(0.00100002 -6.98798e-08 0)
(0.00100002 -8.39349e-08 0)
(0.00100003 -1.00814e-07 0)
(0.00100003 -1.25991e-07 0)
(0.00100004 -1.50926e-07 0)
(0.00100005 -1.8737e-07 0)
(0.00100006 -2.133e-07 0)
(0.00100008 -2.60991e-07 0)
(0.00100009 -2.8162e-07 0)
(0.00100011 -3.5196e-07 0)
(0.00100012 -3.62929e-07 0)
(0.00100015 -4.81365e-07 0)
(0.001 -4.61475e-09 0)
(0.001 -1.40966e-08 0)
(0.001 -2.32211e-08 0)
(0.001 -3.18742e-08 0)
(0.001 -3.98243e-08 0)
(0.001 -4.778e-08 0)
(0.00100001 -5.54503e-08 0)
(0.00100001 -6.45627e-08 0)
(0.00100001 -7.48742e-08 0)
(0.00100001 -8.9836e-08 0)
(0.00100002 -1.07617e-07 0)
(0.00100002 -1.33913e-07 0)
(0.00100003 -1.60209e-07 0)
(0.00100003 -1.98558e-07 0)
(0.00100004 -2.26534e-07 0)
(0.00100005 -2.76711e-07 0)
(0.00100005 -2.99285e-07 0)
(0.00100007 -3.71745e-07 0)
(0.00100007 -3.83752e-07 0)
(0.00100009 -5.03748e-07 0)
(0.001 -4.65631e-09 0)
(0.001 -1.43189e-08 0)
(0.001 -2.36985e-08 0)
(0.001 -3.26549e-08 0)
(0.001 -4.09077e-08 0)
(0.001 -4.90864e-08 0)
(0.001 -5.68635e-08 0)
(0.001 -6.60459e-08 0)
(0.001 -7.65653e-08 0)
(0.001 -9.1936e-08 0)
(0.00100001 -1.10353e-07 0)
(0.00100001 -1.3735e-07 0)
(0.00100001 -1.64335e-07 0)
(0.00100001 -2.03151e-07 0)
(0.00100001 -2.31423e-07 0)
(0.00100002 -2.81614e-07 0)
(0.00100002 -3.0413e-07 0)
(0.00100002 -3.76369e-07 0)
(0.00100002 -3.88323e-07 0)
(0.00100003 -5.07814e-07 0)
(0.001 -4.65386e-09 0)
(0.001 -1.43225e-08 0)
(0.001 -2.37037e-08 0)
(0.000999999 -3.26589e-08 0)
(0.000999999 -4.09085e-08 0)
(0.000999999 -4.90859e-08 0)
(0.000999998 -5.68598e-08 0)
(0.000999997 -6.60418e-08 0)
(0.000999996 -7.65567e-08 0)
(0.000999995 -9.19294e-08 0)
(0.000999994 -1.10348e-07 0)
(0.000999993 -1.37341e-07 0)
(0.000999992 -1.64328e-07 0)
(0.000999989 -2.03151e-07 0)
(0.000999987 -2.31429e-07 0)
(0.000999984 -2.81618e-07 0)
(0.000999982 -3.04131e-07 0)
(0.000999977 -3.76364e-07 0)
(0.000999976 -3.88316e-07 0)
(0.00099997 -5.07809e-07 0)
(0.001 -4.61294e-09 0)
(0.001 -1.41047e-08 0)
(0.000999999 -2.3229e-08 0)
(0.000999998 -3.18795e-08 0)
(0.000999997 -3.9823e-08 0)
(0.000999995 -4.77795e-08 0)
(0.000999994 -5.54434e-08 0)
(0.000999992 -6.45548e-08 0)
(0.000999989 -7.48588e-08 0)
(0.000999986 -8.9822e-08 0)
(0.000999983 -1.07609e-07 0)
(0.000999979 -1.33894e-07 0)
(0.000999974 -1.60188e-07 0)
(0.000999968 -1.98543e-07 0)
(0.000999962 -2.26534e-07 0)
(0.000999953 -2.76703e-07 0)
(0.000999947 -2.99271e-07 0)
(0.000999934 -3.71702e-07 0)
(0.00099993 -3.83706e-07 0)
(0.000999911 -5.03686e-07 0)
(0.001 -4.49099e-09 0)
(0.001 -1.35857e-08 0)
(0.000999999 -2.23557e-08 0)
(0.000999997 -3.07628e-08 0)
(0.000999995 -3.83401e-08 0)
(0.000999992 -4.5644e-08 0)
(0.00099999 -5.24073e-08 0)
(0.000999986 -6.05296e-08 0)
(0.000999982 -6.98774e-08 0)
(0.000999978 -8.39309e-08 0)
(0.000999973 -1.00818e-07 0)
(0.000999965 -1.25989e-07 0)
(0.000999958 -1.50912e-07 0)
(0.000999947 -1.87351e-07 0)
(0.000999937 -2.13301e-07 0)
(0.00099992 -2.60999e-07 0)
(0.00099991 -2.81631e-07 0)
(0.000999889 -3.51953e-07 0)
(0.000999881 -3.62921e-07 0)
(0.000999852 -4.81352e-07 0)
(0.001 -4.25247e-09 0)
(0.001 -1.25594e-08 0)
(0.000999998 -2.05233e-08 0)
(0.000999996 -2.85959e-08 0)
(0.000999993 -3.64744e-08 0)
(0.00099999 -4.45538e-08 0)
(0.000999987 -5.23286e-08 0)
(0.000999982 -6.14741e-08 0)
(0.000999976 -7.15512e-08 0)
(0.00099997 -8.58111e-08 0)
(0.000999962 -1.02195e-07 0)
(0.000999952 -1.26415e-07 0)
(0.000999942 -1.50171e-07 0)
(0.000999927 -1.85801e-07 0)
(0.000999914 -2.11482e-07 0)
(0.000999892 -2.5954e-07 0)
(0.000999878 -2.80982e-07 0)
(0.000999847 -3.52408e-07 0)
(0.000999838 -3.64392e-07 0)
(0.000999792 -4.8469e-07 0)
(0.001 -4.00518e-09 0)
(0.000999999 -1.12966e-08 0)
(0.000999997 -1.75501e-08 0)
(0.000999994 -2.3039e-08 0)
(0.00099999 -2.74363e-08 0)
(0.000999985 -3.13925e-08 0)
(0.00099998 -3.48152e-08 0)
(0.000999974 -3.95671e-08 0)
(0.000999968 -4.53595e-08 0)
(0.00099996 -5.54643e-08 0)
(0.000999952 -6.78357e-08 0)
(0.000999939 -8.79148e-08 0)
(0.000999926 -1.07278e-07 0)
(0.000999906 -1.37823e-07 0)
(0.000999888 -1.5822e-07 0)
(0.00099986 -2.00329e-07 0)
(0.00099984 -2.16478e-07 0)
(0.000999801 -2.82351e-07 0)
(0.000999786 -2.90578e-07 0)
(0.000999732 -4.07065e-07 0)
(0.001 -3.92221e-09 0)
(0.001 -1.19052e-08 0)
(0.000999999 -2.00598e-08 0)
(0.000999996 -2.8793e-08 0)
(0.000999993 -3.75976e-08 0)
(0.000999989 -4.65935e-08 0)
(0.000999983 -5.52624e-08 0)
(0.000999976 -6.50162e-08 0)
(0.000999969 -7.52227e-08 0)
(0.000999958 -8.88547e-08 0)
(0.000999948 -1.03664e-07 0)
(0.000999932 -1.25291e-07 0)
(0.000999917 -1.45531e-07 0)
(0.000999893 -1.7673e-07 0)
(0.000999873 -1.98172e-07 0)
(0.000999837 -2.41658e-07 0)
(0.000999816 -2.60055e-07 0)
(0.000999763 -3.28282e-07 0)
(0.000999751 -3.38998e-07 0)
(0.00099967 -4.58406e-07 0)
(0.001 -1.64572e-09 0)
(0.000999998 -3.415e-09 0)
(0.000999994 -3.78285e-09 0)
(0.000999989 -3.54012e-09 0)
(0.000999984 -2.67659e-09 0)
(0.000999978 -1.8338e-09 0)
(0.000999971 -6.14016e-10 0)
(0.000999963 -5.42008e-10 0)
(0.000999955 -8.83466e-10 0)
(0.000999944 -4.62943e-09 0)
(0.000999933 -9.3219e-09 0)
(0.000999916 -2.03111e-08 0)
(0.000999898 -2.96496e-08 0)
(0.000999871 -4.94734e-08 0)
(0.000999848 -5.984e-08 0)
(0.000999807 -9.15996e-08 0)
(0.000999779 -9.93042e-08 0)
(0.00099972 -1.56158e-07 0)
(0.000999697 -1.58747e-07 0)
(0.000999612 -2.70938e-07 0)
(0.001 -4.89512e-09 0)
(0.001 -1.5119e-08 0)
(0.001 -2.5803e-08 0)
(0.000999997 -3.67263e-08 0)
(0.000999993 -4.69884e-08 0)
(0.000999988 -5.69142e-08 0)
(0.000999981 -6.61625e-08 0)
(0.000999972 -7.6425e-08 0)
(0.000999963 -8.66993e-08 0)
(0.000999951 -9.97743e-08 0)
(0.000999938 -1.13188e-07 0)
(0.000999918 -1.31993e-07 0)
(0.0009999 -1.48414e-07 0)
(0.000999867 -1.74085e-07 0)
(0.000999843 -1.89914e-07 0)
(0.000999792 -2.25855e-07 0)
(0.000999766 -2.37975e-07 0)
(0.000999686 -2.97943e-07 0)
(0.00099967 -3.03546e-07 0)
(0.00099954 -4.176e-07 0)
(0.001 3.81643e-09 0)
(0.000999996 1.16514e-08 0)
(0.000999991 1.96263e-08 0)
(0.000999985 2.70195e-08 0)
(0.00099998 3.37249e-08 0)
(0.000999974 3.99385e-08 0)
(0.000999966 4.60662e-08 0)
(0.000999957 5.18348e-08 0)
(0.000999948 5.75471e-08 0)
(0.000999935 6.19034e-08 0)
(0.000999922 6.68974e-08 0)
(0.000999901 6.85444e-08 0)
(0.000999882 7.2275e-08 0)
(0.000999848 6.8812e-08 0)
(0.000999822 7.25847e-08 0)
(0.000999768 5.9851e-08 0)
(0.000999737 6.56911e-08 0)
(0.000999653 3.071e-08 0)
(0.000999627 3.95884e-08 0)
(0.000999496 -5.3628e-08 0)
(0.001 -9.18821e-09 0)
(0.001 -2.47873e-08 0)
(0.001 -3.73635e-08 0)
(0.000999996 -4.81697e-08 0)
(0.000999991 -5.81946e-08 0)
(0.000999984 -6.81012e-08 0)
(0.000999977 -7.78403e-08 0)
(0.000999967 -8.77927e-08 0)
(0.000999958 -9.79647e-08 0)
(0.000999943 -1.09972e-07 0)
(0.000999931 -1.21425e-07 0)
(0.000999907 -1.36085e-07 0)
(0.00099989 -1.47806e-07 0)
(0.000999849 -1.65669e-07 0)
(0.000999828 -1.7469e-07 0)
(0.000999761 -1.98439e-07 0)
(0.000999741 -2.01415e-07 0)
(0.000999622 -2.42565e-07 0)
(0.000999616 -2.37247e-07 0)
(0.000999395 -3.29617e-07 0)
)
;

boundaryField
{
    sides
    {
        type            slip;
    }
    inlet
    {
        type            fixedValue;
        value           uniform (0.001 0 0);
    }
    outlet
    {
        type            zeroGradient;
    }
    frontAndBack
    {
        type            empty;
    }
}


// ************************************************************************* //
