/*--------------------------------*- C++ -*----------------------------------*\
  =========                 |
  \\      /  F ield         | OpenFOAM: The Open Source CFD Toolbox
   \\    /   O peration     | Website:  https://openfoam.org
    \\  /    A nd           | Version:  7
     \\/     M anipulation  |
\*---------------------------------------------------------------------------*/
FoamFile
{
    version     2.0;
    format      ascii;
    class       volScalarField;
    location    "900";
    object      epsilon;
}
// * * * * * * * * * * * * * * * * * * * * * * * * * * * * * * * * * * * * * //

dimensions      [0 2 -3 0 0 0 0];

internalField   nonuniform List<scalar> 
120313
(
65.8603
72.4315
79.699
85.9176
89.2029
90.6668
91.1688
90.7317
89.2472
86.698
82.5231
78.6615
74.42
69.618
65.192
61.8475
58.6354
55.7592
52.6487
49.857
46.9258
44.2158
41.5946
38.868
65.8541
70.777
77.9685
84.9077
88.6069
90.5181
91.4968
91.0081
88.7013
86.4646
83.3177
79.6538
75.2314
71.0737
67.0217
63.4604
60.0817
56.9057
53.6356
50.6267
47.6178
44.466
41.2415
39.8735
63.5646
67.6284
74.289
80.8548
84.6803
86.7251
87.8298
87.8485
86.0023
83.806
80.7389
76.9375
72.6754
68.646
64.6525
61.2285
57.9957
54.9342
51.8071
48.9098
46.0095
42.9281
39.5889
38.7696
62.5995
66.3995
72.9146
79.467
83.3317
85.5064
86.797
87.0547
85.4647
83.2544
80.1142
76.2319
72.0144
68.0522
64.0414
60.6503
57.4479
54.4213
51.3367
48.4706
45.6002
42.555
39.2043
38.5836
62.3884
66.2369
72.7799
79.358
83.2378
85.445
86.7873
87.116
85.5876
83.3821
80.2255
76.3314
72.1118
68.1623
64.1399
60.7351
57.5282
54.4996
51.4261
48.5773
45.7229
42.6862
39.2981
38.6913
63.0327
67.1764
73.9189
80.6073
84.5032
86.6626
87.9069
88.03
86.4585
84.31
81.2255
77.3296
73.0727
69.0935
65.0674
61.6448
58.4236
55.3462
52.2115
49.3043
46.4009
43.3161
39.8394
39.0537
65.2871
70.4101
77.7778
84.979
88.8781
90.9597
92.0444
91.6722
89.8152
87.7047
84.622
80.6339
76.2013
72.0864
68.0177
64.4878
61.148
57.9071
54.5921
51.5246
48.4748
45.2924
41.9177
40.4776
66.8522
73.7704
81.5283
88.5729
92.0794
93.8118
94.4923
94.0348
92.5998
90.016
85.9612
81.8883
77.2592
72.4067
67.9838
64.8332
61.4818
58.3692
55.0837
52.1074
49.0681
46.2605
43.2475
40.2831
1.72621
3.66083
6.10276
9.21074
13.1906
18.386
25.3991
34.8651
44.2898
52.9604
61.6568
69.0579
73.7058
76.7554
78.2278
78.6145
78.2113
77.1672
75.5876
73.4541
70.5447
67.2657
63.6959
59.9334
56.4582
53.05
49.8131
46.7238
43.7901
41.0486
38.4482
36.0181
33.7258
31.5793
29.6194
28.2145
1.73951
3.65141
6.09078
9.1846
13.1604
18.4021
25.5375
34.9665
45.3389
59.8345
71.5733
81.0064
87.2663
90.7195
92.1234
92.3687
91.6657
90.1772
88.0627
84.5705
81.0313
76.4994
72.0974
67.6103
63.3566
59.1459
55.1971
51.334
47.8818
44.4625
41.4406
38.5226
35.4288
32.6193
30.335
28.3817
1.6162
3.50418
5.88552
8.89494
12.7504
17.8391
24.7795
33.9976
44.5896
59.6159
73.4597
84.5328
90.5379
94.5826
96.3748
96.8464
96.2263
94.4364
91.9649
88.2028
84.1957
79.7441
74.9688
70.2377
65.8021
61.3737
57.2402
53.2064
49.6192
46.0716
42.8685
39.8195
36.3144
33.1933
31.0044
28.7886
1.53809
3.40868
5.74161
8.67378
12.4135
17.3433
24.0531
32.9448
43.5188
58.9228
73.3285
84.4812
91.8769
95.9922
97.8242
98.5213
98.4733
96.0497
93.6656
89.6368
85.447
80.7183
75.9382
71.1238
66.6692
62.1645
57.9669
53.876
50.2145
46.6237
43.3438
40.2567
36.5063
33.4391
31.0696
28.8716
1.58314
3.41806
5.72838
8.62265
12.3026
17.1455
23.7057
32.368
42.8836
58.4714
73.0041
84.2653
91.9304
96.2592
98.2091
99.0326
99.0413
96.5472
94.1452
90.0457
85.777
80.9788
76.1764
71.3217
66.8971
62.3616
58.1678
54.0592
50.3935
46.8012
43.5191
40.4249
36.6197
33.5771
31.2078
28.9983
1.6019
3.40496
5.69837
8.57085
12.2202
17.0216
23.5249
32.1207
42.653
58.2794
72.8187
84.1198
91.7973
96.1609
98.1698
99.0692
98.9847
96.5622
94.1471
90.0554
85.7779
80.975
76.1789
71.3162
66.917
62.3627
58.1794
54.0684
50.4199
46.8262
43.5587
40.4642
36.6834
33.6385
31.3271
29.1004
1.54494
3.33627
5.62252
8.49716
12.1573
16.9788
23.5279
32.1995
42.8341
58.4967
72.8168
84.0519
91.5017
95.6897
97.6324
98.4806
98.5274
96.0862
93.6849
89.6948
85.5017
80.7631
75.9949
71.1733
66.7587
62.2504
58.0592
53.9714
50.3168
46.7302
43.4668
40.3622
36.6762
33.5531
31.4334
29.1433
1.44527
3.24089
5.52757
8.42622
12.1381
17.0443
23.7634
32.7273
43.623
59.1244
72.8769
84.1419
90.1673
94.3127
96.2631
97.0166
96.6436
94.7793
92.2332
88.4953
84.6105
80.0299
75.2794
70.5433
66.1473
61.6988
57.556
53.5167
49.911
46.3489
43.1395
40.0338
36.6303
33.2845
31.7821
29.292
1.44677
3.23191
5.5448
8.51539
12.3574
17.4731
24.5395
34.0578
45.1563
60.045
72.1291
82.3973
87.7791
91.528
93.2912
93.7363
93.2921
92.1043
89.6111
85.9569
82.2606
77.8197
73.2776
68.7364
64.4284
60.1688
56.1501
52.2282
48.6983
45.2391
42.1476
39.1446
36.0683
32.9974
31.6584
29.4148
1.44449
3.20812
5.52924
8.53904
12.4486
17.6736
24.9235
34.7902
45.8557
59.176
69.3051
78.0055
83.7019
86.9377
88.3339
88.6473
88.0841
86.8659
85.1516
82.575
79.1364
74.9809
70.8022
66.5198
62.4472
58.4984
54.6904
51.0095
47.5749
44.362
41.3531
38.6697
35.9736
32.8879
31.7456
29.4867
1.39089
3.16404
5.50991
8.55861
12.5085
17.7588
25.0013
34.7777
44.3958
53.7144
62.6759
69.9958
74.9773
78.1858
79.8413
80.365
80.0751
79.156
77.7165
75.6205
72.9439
69.42
65.603
61.7408
58.0539
54.5479
51.1732
47.914
44.8182
41.9203
39.2059
36.6833
34.3283
32.0987
30.1885
28.4986
1.18177
3.01512
5.37032
8.45273
12.4354
17.6456
24.6375
33.9973
43.7174
52.2539
61.05
68.9094
73.6697
77.0219
78.7883
79.4211
79.2213
78.4009
76.9191
74.8216
72.1905
68.8043
65.0335
61.186
57.5065
53.9391
50.5142
47.227
44.1055
41.1628
38.4185
35.8868
33.5403
31.4522
29.5174
28.0484
86.168
101.428
117.895
128.322
133.646
135.051
133.855
130.67
125.832
120.233
113.95
108.317
101.597
94.9505
88.3743
82.0339
75.9958
70.2789
64.9638
59.986
55.4771
51.29
47.5496
44.3745
1.68496
3.29505
5.67166
8.95701
13.4699
19.6345
27.9258
38.7965
55.3154
83.1835
99.0986
115.301
125.299
130.474
131.936
130.952
128.095
123.627
118.013
111.77
106.008
99.3632
93.6493
87.0464
80.8393
74.92
69.3803
64.1828
59.365
54.9133
50.8464
47.0763
43.7924
40.7635
37.2906
34.6387
1.64253
3.22229
5.59455
8.87488
13.4091
19.6508
28.1004
39.1928
56.0009
84.05
100.288
116.774
126.62
131.667
132.831
131.604
128.469
123.757
117.816
111.491
105.45
99.0776
92.6819
86.2646
80.1549
74.2913
68.8215
63.6785
58.9768
54.5715
50.5962
46.8471
43.4523
40.2036
37.7461
34.937
1.54254
3.08427
5.40533
8.62015
13.0764
19.2532
27.6882
38.8336
55.4987
84.239
101.212
118.092
127.975
133.105
134.108
132.663
129.092
123.612
118.026
111.965
105.709
99.2122
92.69
86.2556
80.1549
74.2924
68.8376
63.6919
59.0142
54.601
50.6522
46.8895
43.4096
40.0291
37.5112
34.7662
1.46168
2.9748
5.24075
8.37607
12.7187
18.7601
27.0473
38.0398
54.4895
83.4371
100.861
117.89
127.898
133.103
134.04
132.356
128.202
122.763
117.961
111.836
105.541
98.9818
92.4169
86.0058
79.9252
74.0825
68.6548
63.5417
58.9003
54.5151
50.5984
46.8534
43.3448
39.882
37.3764
34.524
1.46747
2.94878
5.18109
8.2677
12.537
18.4781
26.6263
37.4455
53.7159
82.8197
100.29
117.344
127.38
132.62
133.474
131.657
127.31
122.117
117.672
111.478
105.14
98.5486
91.9834
85.5905
79.5884
73.7269
68.372
63.2282
58.6371
54.2814
50.4161
46.707
43.2333
39.7784
37.2895
34.3723
1.47211
2.92682
5.13609
8.19475
12.4258
18.3169
26.3924
37.1175
53.3447
82.5624
99.9894
117.091
127.122
132.36
133.185
131.289
126.909
121.892
117.472
111.248
104.914
98.3084
91.7815
85.374
79.4438
73.4606
68.1331
62.9508
58.4368
54.0428
50.2319
46.5468
43.1264
39.7035
37.2281
34.2906
1.42957
2.86993
5.06063
8.1035
12.3232
18.2166
26.3093
37.0637
53.3934
82.5741
99.8763
117.052
127.073
132.3
133.226
131.489
127.171
121.932
117.372
111.258
104.974
98.4007
91.849
85.4693
79.4355
73.6208
68.2265
63.1469
58.5528
54.2131
50.3464
46.6259
43.1773
39.737
37.2447
34.3215
1.37129
2.81247
4.99815
8.04593
12.2901
18.2412
26.438
37.3428
53.871
82.6757
99.7219
116.833
126.797
131.996
133.05
131.57
127.797
122.215
117.271
111.228
105.051
98.5503
92.049
85.6664
79.6058
73.7828
68.3733
63.2832
58.6538
54.279
50.3694
46.6168
43.1953
39.7849
37.2819
34.4323
1.37573
2.81582
5.0178
8.10494
12.4268
18.5055
26.8811
38.0044
54.7648
82.9662
99.4571
116.216
126.074
131.176
132.356
131.14
127.864
122.841
116.969
111.042
104.928
98.4883
92.0613
85.6698
79.5954
73.7639
68.3424
63.2291
58.5631
54.184
50.2321
46.5124
43.1477
39.8189
37.3591
34.6107
1.3872
2.82589
5.04865
8.17893
12.575
18.7514
27.2264
38.4003
55.0598
82.5809
98.7291
115.013
124.825
129.875
131.152
130.023
127.022
122.436
116.723
110.488
104.726
98.37
92.0148
85.6427
79.5905
73.7723
68.3366
63.236
58.5494
54.2047
50.2427
46.5789
43.255
39.9944
37.5795
34.8051
1.34515
2.78981
5.01336
8.15921
12.5746
18.7614
27.205
38.2694
54.9283
83.1411
99.3968
115.938
126.116
131.423
132.927
131.866
128.859
124.215
118.498
112.067
106.676
99.9098
93.8192
87.1502
80.85
74.8292
69.1965
63.9291
59.0823
54.5984
50.5616
46.7756
43.4659
40.3929
36.9665
34.3463
1.22677
2.68942
4.88204
8.00436
12.3751
18.4949
26.8794
37.9596
54.9935
84.2223
101.705
118.924
129.65
135.187
136.692
135.51
132.301
127.132
121.197
114.588
109.224
102.327
95.5723
88.7666
82.2253
75.9755
70.1299
64.6905
59.6872
55.0935
50.9849
47.133
43.8358
40.6698
37.069
34.2991
144.888
150.569
161.711
167.308
166.692
162.144
154.934
146.267
136.984
127.637
118.578
109.983
101.906
94.265
87.3082
80.8385
74.9135
69.446
64.4396
59.8318
55.6046
51.7498
48.3775
45.3236
1.39197
2.83268
5.5061
10.1735
17.9941
29.2924
43.6783
61.3756
94.1041
144.266
149.374
160.659
166.834
166.463
162.354
155.469
147.013
137.89
128.574
119.477
110.779
102.618
95.0553
88.0922
81.6953
75.7018
70.2097
65.0963
60.4278
56.1295
52.1714
48.5753
45.3917
42.2072
41.5083
38.7909
1.35824
2.76487
5.46174
10.3255
18.4985
30.329
45.2501
63.5104
96.8628
146.021
150.029
159.974
165.876
165.236
160.633
153.474
144.927
135.745
126.352
117.215
108.636
100.585
93.2179
86.394
80.1746
74.2522
68.8584
63.8317
59.2961
55.1004
51.3069
47.7813
44.5266
41.4255
38.8095
35.965
1.27416
2.60339
5.22076
9.96449
18.0117
29.8828
44.905
63.3066
96.2575
144.566
148.895
158.416
162.825
161.822
156.795
149.39
140.695
131.289
122.027
113.176
104.871
96.9394
89.7551
83.1096
77.0866
71.4841
66.3858
61.6302
57.3513
53.3986
49.8834
46.5828
43.5446
40.5124
37.752
35.2047
1.19721
2.47061
4.94947
9.48749
17.278
28.8719
43.6857
61.8155
94.2754
142.259
147.111
156.209
159.539
158.123
152.814
145.191
136.183
126.775
117.769
108.99
100.78
93.148
86.1961
79.854
74.0672
68.745
63.9315
59.4885
55.4644
51.768
48.4835
45.4063
42.5679
39.6074
36.8479
34.3379
1.18944
2.42699
4.84966
9.27115
16.933
28.3606
43.0056
60.8775
92.9806
140.797
145.746
154.671
157.529
155.821
150.306
142.5
133.256
123.913
114.918
106.207
98.0092
90.461
83.642
77.4719
72.1834
66.5405
62.3334
57.4664
53.7979
50.3265
47.3042
44.4345
41.7714
38.9167
36.2133
33.7248
1.19792
2.4099
4.81135
9.22571
16.8088
28.2192
42.834
60.5528
92.552
140.441
145.233
154.278
156.971
155.14
149.56
141.685
132.351
123.003
113.986
105.271
97.0449
89.5127
83.0371
76.4926
71.8189
64.8148
61.2154
55.8939
53.0771
48.83
46.3221
43.6141
41.1906
38.4829
35.8533
33.4165
1.16708
2.36477
4.747
9.13465
16.6827
28.0987
42.7234
60.4464
92.4863
140.992
145.437
155.035
158.011
156.363
150.913
143.143
133.887
124.474
115.425
106.665
98.4227
90.7698
83.8745
77.6159
72.0587
66.7165
62.1134
57.7784
53.9992
50.5028
47.3885
44.4564
41.7312
38.8426
36.1124
33.6135
1.12633
2.32598
4.69955
9.05368
16.6021
28.0536
42.7353
60.5852
92.7409
141.813
146.206
156.209
160.355
159.118
153.905
146.339
137.384
127.83
118.631
109.775
101.442
93.6253
86.5717
80.1341
74.2763
68.9065
64.0475
59.599
55.5434
51.8065
48.4718
45.3325
42.4305
39.4337
36.6571
34.126
1.13407
2.35009
4.73763
9.14705
16.8025
28.3896
43.2898
61.3828
93.9723
143.912
148.038
158.309
163.691
162.694
157.684
150.318
141.617
132.164
122.699
113.683
105.246
97.2165
89.9224
83.1562
77.0886
71.4371
66.3412
61.5708
57.2848
53.3059
49.7611
46.4159
43.3376
40.2475
37.4833
34.867
1.15522
2.39252
4.84199
9.33899
17.1794
28.9747
44.0121
62.3242
95.3592
145.125
149.537
160.297
166.017
165.232
160.405
153.17
144.587
135.316
125.816
116.627
108.027
99.9866
92.5952
85.7338
79.5378
73.6535
68.2978
63.2954
58.7992
54.6328
50.8836
47.3622
44.1319
41.0376
38.249
35.6675
1.12616
2.36808
4.79735
9.24208
16.9883
28.6821
43.624
61.9845
95.5803
145.546
150.129
161.638
167.599
166.93
162.217
155.053
146.488
137.244
127.752
118.523
109.866
101.757
94.2603
87.2929
80.9172
74.859
69.3414
64.2178
59.5797
55.3166
51.4222
47.8433
44.5579
42.0635
40.7698
38.1123
1.01861
2.22679
4.53322
8.71076
15.9688
27.1975
41.8093
60.0919
94.4964
144.79
149.719
161.544
168.016
167.519
162.852
155.711
147.154
137.892
128.383
119.167
110.553
102.401
94.7918
87.6906
81.1866
75.0603
69.4812
64.3155
59.6326
55.3439
51.4124
47.8345
44.5418
42.1466
40.8276
38.1176
114.446
95.1773
81.6606
70.2771
60.6392
52.9077
46.8029
41.8872
37.7695
34.3201
31.31
28.9051
26.8706
25.1442
23.581
22.3618
21.2378
20.3797
19.5364
18.8837
18.2137
17.615
17.1731
15.9175
40.8476
124.032
179.044
207.872
213.715
211.061
208.094
206.207
209.209
116.734
96.9095
82.6904
71.0198
61.2806
53.1307
46.8256
41.7447
37.5723
34.0925
31.1078
28.6619
26.6562
24.8877
23.4136
22.1386
21.0971
20.1763
19.4032
18.6907
18.0775
17.4865
16.9669
16.4777
15.2533
19.0604
20.5365
37.1722
131.982
190.27
218.303
221.364
217.787
213.766
210.57
209.553
112.418
93.1871
78.9499
67.4095
57.6386
50.0764
44.1964
39.4899
35.5414
32.3975
29.821
27.588
25.6984
24.0294
22.5712
21.2565
20.1876
19.2582
18.4867
17.8097
17.2186
16.7478
16.2442
15.9534
15.2399
14.792
13.4836
36.6022
126.488
188.196
218.483
222.475
218.082
212.977
209.259
206.067
108.232
89.6216
75.2554
63.6189
53.8863
46.7019
41.1659
36.5721
33.1398
30.397
28.0597
26.0079
24.2164
22.6129
21.1782
19.9261
18.8121
17.869
17.0902
16.4734
15.9532
15.5819
15.217
14.9948
14.3734
13.8013
12.5952
36.2417
119.215
181.4
215.225
219.877
216.277
211.673
207.794
204.504
106.972
88.3963
73.5055
61.4055
51.6354
44.4541
38.8613
34.5577
31.3237
28.7692
26.5717
24.6066
22.8945
21.3564
19.9785
18.7637
17.7017
16.7753
15.9727
15.3558
14.8792
14.5655
14.2898
14.1405
13.5468
12.9475
11.7418
32.6466
120.217
181.135
213.395
219.374
215.249
209.829
205.749
203.4
106.544
87.8691
72.6871
60.3728
50.4568
43.2859
37.5442
33.3848
30.2782
27.7862
25.6424
23.7121
22.0075
20.4784
19.1432
17.9438
16.9188
15.9972
15.2164
14.5765
14.1324
13.8661
13.6633
13.5632
13.015
12.4337
11.263
34.8325
121.765
184.209
215.108
219.722
215.951
210.592
206.057
203.497
105.782
87.199
71.9608
59.6599
49.7704
42.7206
36.94
32.9216
29.8871
27.437
25.2859
23.3769
21.6637
20.1439
18.8349
17.6143
16.5913
15.6294
14.8819
14.2663
13.8423
13.5968
13.4114
13.3139
12.7726
12.1975
11.0335
32.0597
121.711
184.805
216.043
220.392
216.183
210.65
205.93
203.22
105.403
86.9402
72.0871
59.9896
50.2783
43.2715
37.6042
33.5068
30.3969
27.8947
25.7295
23.7915
22.0581
20.514
19.1481
17.9448
16.8981
15.9881
15.2087
14.5759
14.1241
13.8272
13.5856
13.4177
12.8232
12.2298
11.0547
31.2864
120.701
181.809
214.279
220.722
216.886
210.943
206.392
203.23
106.546
88.1098
73.6673
61.8514
52.1696
45.0308
39.4351
35.0261
31.6608
29.0255
26.7308
24.7372
22.9473
21.3844
19.9673
18.7302
17.6437
16.7122
15.8942
15.2631
14.772
14.4158
14.0991
13.8499
13.2042
12.6014
11.4346
36.6279
119.414
182.734
215.059
219.759
216.803
212.191
207.919
205.807
106.934
89.0957
75.2429
63.9245
54.3163
47.155
41.5969
36.9698
33.3707
30.5153
28.0477
25.9414
24.0903
22.4511
20.9731
19.6854
18.5596
17.5624
16.755
16.1222
15.5762
15.1794
14.7593
14.4468
13.7647
13.1809
12.0668
40.0524
125.051
186.704
217.219
221.698
218.15
213.103
209.471
207.263
107.571
89.8715
76.3632
65.3681
55.9249
48.7834
43.1603
38.626
34.7176
31.719
29.1868
26.9638
25.0693
23.4052
21.9338
20.6337
19.4707
18.5182
17.7189
17.0674
16.4769
16.0273
15.4884
15.1405
14.3792
13.8501
12.9074
35.4688
128.966
184.63
214.089
220.566
218.198
213.692
210.357
208.492
108.512
90.5796
77.0863
66.1122
56.7791
49.6821
44.1237
39.6008
35.7425
32.6004
29.9912
27.7338
25.8295
24.1182
22.6608
21.2802
20.1894
19.2152
18.4398
17.7323
17.1367
16.6098
16.0301
15.6826
14.4171
17.6326
19.1332
29.8669
107.409
167.807
199.785
211.131
212.171
209.298
207.484
208.136
109.195
90.9126
77.2218
66.1987
56.8717
49.886
44.4076
39.961
36.1322
33.0001
30.4096
28.1499
26.2419
24.5078
23.0049
21.597
20.5001
19.5011
18.7174
17.9772
17.3683
16.8042
16.2159
15.8477
14.581
17.8532
19.337
1.38047
1.67086
1.86914
1.98194
2.03801
2.05737
2.05237
2.03057
1.99819
1.96098
1.92228
1.88895
1.85709
1.83312
1.81604
1.80833
1.80573
1.81306
1.82665
1.84773
1.8734
1.90341
1.93615
1.80359
0.00996678
0.00935541
0.008923
0.00849019
0.00815771
0.00782199
0.00903776
0.0183346
0.0375751
0.0632773
0.132445
0.352512
0.888191
1.46415
1.22281
1.55065
1.77301
1.90345
1.97027
1.99523
1.99347
1.9736
1.94304
1.9058
1.86986
1.83416
1.80505
1.77982
1.7633
1.75523
1.75462
1.76168
1.77631
1.79729
1.82366
1.85569
1.89016
1.91018
1.80562
2.50567
2.88243
0.00996621
0.00934893
0.00891066
0.00847435
0.00817022
0.00788175
0.0077382
0.0112135
0.0210622
0.0318837
0.0744041
0.215179
0.589837
1.19233
1.0932
1.40561
1.61013
1.72627
1.78517
1.8079
1.80687
1.7912
1.76526
1.73541
1.70304
1.67573
1.64831
1.62695
1.61097
1.60316
1.60157
1.60701
1.61915
1.63776
1.66299
1.69624
1.73791
1.78389
1.81228
1.82646
1.80592
0.00996602
0.00934732
0.0089006
0.00848089
0.00816857
0.00788223
0.00763782
0.00856486
0.011099
0.0190954
0.0541742
0.166637
0.442825
0.994671
0.99288
1.2921
1.47788
1.57834
1.62576
1.64103
1.6342
1.61486
1.58657
1.55413
1.5202
1.49112
1.46211
1.4378
1.41767
1.40437
1.39836
1.39733
1.40387
1.41813
1.4404
1.47056
1.50894
1.54922
1.57594
1.58225
1.59884
0.00989819
0.00930741
0.00886342
0.00847057
0.00816736
0.00789473
0.00756617
0.00835947
0.0108372
0.0177869
0.0484194
0.142875
0.373862
0.94783
0.978291
1.26914
1.44028
1.52467
1.55781
1.5593
1.54099
1.51013
1.4727
1.43525
1.399
1.36775
1.33693
1.3104
1.28691
1.26916
1.25657
1.25118
1.25142
1.25917
1.27484
1.29762
1.32705
1.35584
1.37592
1.37969
1.39356
0.00989683
0.00932514
0.00890919
0.00850815
0.00816489
0.00787667
0.00759177
0.00864215
0.0115664
0.0188866
0.0544062
0.165977
0.434204
0.982337
0.980268
1.26765
1.43078
1.50629
1.53039
1.52276
1.49529
1.45731
1.41523
1.37425
1.33516
1.30118
1.26731
1.23744
1.21101
1.189
1.17194
1.16062
1.15588
1.15867
1.16999
1.18883
1.21389
1.23961
1.25952
1.2673
1.27748
0.00989694
0.00933873
0.00889183
0.00849528
0.00816289
0.00786816
0.00757249
0.00847246
0.0105592
0.0178508
0.0497621
0.147706
0.382801
0.97704
0.95743
1.24405
1.40316
1.47644
1.49835
1.49019
1.46134
1.4235
1.38206
1.34117
1.30425
1.26831
1.23499
1.20383
1.17678
1.15334
1.13498
1.1223
1.1172
1.11968
1.13067
1.14887
1.17284
1.19765
1.21728
1.22214
1.23537
0.00989836
0.00932594
0.00886624
0.00849785
0.00815733
0.00788047
0.00760132
0.00830162
0.0101449
0.0169862
0.0468686
0.139976
0.363222
0.931436
0.9319
1.21734
1.38098
1.46048
1.48973
1.48823
1.46642
1.43376
1.39576
1.358
1.32101
1.28877
1.25597
1.2267
1.20039
1.17865
1.16159
1.1507
1.1462
1.14914
1.15979
1.17678
1.19911
1.22142
1.23799
1.24305
1.24941
0.00996722
0.00934405
0.00890366
0.00849299
0.00816214
0.00787901
0.00759142
0.00804591
0.00945687
0.015826
0.0444509
0.135205
0.351039
0.905551
0.946943
1.23789
1.41363
1.5048
1.54355
1.55298
1.53925
1.51245
1.47631
1.43821
1.40195
1.36697
1.3349
1.30546
1.27932
1.25867
1.24328
1.23477
1.23239
1.23763
1.24993
1.26798
1.29118
1.31394
1.331
1.33696
1.34548
0.0098971
0.00936477
0.00888511
0.00850729
0.0081498
0.00783696
0.00756188
0.00820907
0.0104854
0.0168265
0.0446403
0.132089
0.342275
0.894065
0.94276
1.2408
1.43319
1.54216
1.59796
1.62005
1.61882
1.60263
1.57581
1.54203
1.50664
1.47161
1.44
1.41019
1.38475
1.36539
1.35204
1.34552
1.34616
1.35365
1.36806
1.38799
1.41244
1.43733
1.45738
1.46786
1.48217
0.0098982
0.00931591
0.00888048
0.00849475
0.00817451
0.00784801
0.00755839
0.00800041
0.0103497
0.017558
0.047314
0.138007
0.350797
0.926044
0.959307
1.26511
1.46665
1.58596
1.65226
1.68334
1.69058
1.68162
1.66069
1.63353
1.60164
1.57241
1.54175
1.51585
1.49467
1.48027
1.47136
1.47027
1.47626
1.48888
1.50765
1.53124
1.55784
1.58553
1.60641
1.63001
1.63869
0.00996623
0.00934938
0.00891691
0.00847346
0.00817351
0.00788185
0.00765018
0.00913944
0.0133192
0.0193725
0.0480335
0.143959
0.379833
0.943026
0.987415
1.29164
1.49424
1.61584
1.68644
1.72238
1.73582
1.73271
1.71805
1.69559
1.67127
1.64444
1.62133
1.59932
1.58407
1.57407
1.57115
1.57434
1.58514
1.60135
1.62413
1.65094
1.68135
1.71469
1.59478
2.21631
2.52409
0.00990195
0.00932796
0.00887476
0.00850925
0.00816519
0.00787429
0.00824521
0.0134802
0.0212261
0.0266033
0.0577208
0.162257
0.418659
0.963615
0.991536
1.28893
1.48894
1.61057
1.6839
1.72412
1.74362
1.74629
1.73676
1.71872
1.69869
1.67584
1.65678
1.63798
1.62525
1.61642
1.61614
1.62075
1.63313
1.65026
1.67417
1.70168
1.73263
1.76828
1.61826
2.27573
2.62143
0.00582459
0.00604637
0.00640631
0.00686408
0.00739641
0.00798647
0.0086174
0.00927735
0.00995571
0.0106509
0.0113642
0.0121065
0.012882
0.0137123
0.0146143
0.0156124
0.0167248
0.0179825
0.0193992
0.0210115
0.0228255
0.0248565
0.027001
0.02632
0.00994937
0.00951947
0.00910145
0.00870659
0.00833702
0.00799204
0.00766913
0.00736613
0.00708263
0.00681638
0.00656575
0.00632902
0.00610328
0.00586316
0.00575479
0.00593267
0.00625107
0.0066691
0.00716629
0.00772036
0.00831686
0.00894011
0.00958403
0.0102401
0.0109177
0.0116159
0.0123512
0.0131306
0.0139818
0.014919
0.0159737
0.0171602
0.0185109
0.0200389
0.0217804
0.0237503
0.0260099
0.0281327
0.0267763
0.041568
0.0512368
0.00994818
0.00951271
0.00909848
0.00870537
0.00833635
0.00799086
0.00766683
0.00736355
0.00707924
0.00681169
0.0065593
0.00632137
0.00609689
0.00588442
0.00572025
0.00585193
0.006099
0.00642844
0.00682214
0.00726675
0.00774766
0.00825705
0.00878491
0.00933162
0.00989209
0.010478
0.0110854
0.0117345
0.0124333
0.0132097
0.0140751
0.0150583
0.016173
0.0174483
0.018917
0.0206449
0.0227284
0.0251952
0.0274561
0.0296752
0.0312066
0.0099484
0.00951183
0.00909784
0.00870549
0.00833687
0.00799146
0.00766705
0.0073632
0.00707867
0.0068112
0.00655874
0.00632086
0.00609638
0.0058811
0.00569522
0.00579098
0.00598382
0.00624741
0.0065613
0.00691533
0.00729624
0.00769742
0.00810895
0.00852672
0.00894784
0.0093806
0.00982336
0.0102889
0.0107844
0.0113283
0.0119322
0.0126206
0.0134097
0.0143289
0.0154123
0.0167039
0.0182621
0.0200682
0.0218392
0.0235726
0.0252344
0.00994876
0.00951213
0.00909822
0.00870603
0.00833741
0.00799183
0.00766733
0.00736348
0.00707867
0.00681117
0.00655906
0.00632096
0.00609638
0.00588078
0.00569071
0.005781
0.00596028
0.00620077
0.00648004
0.00678619
0.00710789
0.00743609
0.00776193
0.00808723
0.00841161
0.00874324
0.00907987
0.00943251
0.00980352
0.0102072
0.0106505
0.011153
0.0117273
0.0123979
0.0131839
0.0141058
0.0151781
0.0163646
0.0175738
0.0188572
0.0201229
0.00994862
0.00951199
0.009098
0.00870575
0.00833721
0.00799175
0.00766741
0.00736351
0.00707864
0.00681121
0.00655921
0.006321
0.00609604
0.00588098
0.00569202
0.00578338
0.00596041
0.00619342
0.00645862
0.00674383
0.00703635
0.00732768
0.00761195
0.00789118
0.00816628
0.0084444
0.0087232
0.00901138
0.00931243
0.00963558
0.00998675
0.0103804
0.0108277
0.0113496
0.0119615
0.0126744
0.0134951
0.0144025
0.0153956
0.0164717
0.0175634
0.00994868
0.00951206
0.00909804
0.00870577
0.00833726
0.00799185
0.00766763
0.00736367
0.00707871
0.00681135
0.00655894
0.00632049
0.00609605
0.00588082
0.00568613
0.00577059
0.00593683
0.00615725
0.00640751
0.0066766
0.00695075
0.0072231
0.0074883
0.00774788
0.00800463
0.00826078
0.00851718
0.00878001
0.00905277
0.00934366
0.00965842
0.010012
0.0104167
0.0108921
0.0114506
0.0121004
0.0128491
0.0136886
0.014619
0.0156387
0.0166527
0.00994866
0.00951203
0.00909801
0.00870576
0.00833721
0.00799176
0.00766749
0.00736342
0.00707851
0.006811
0.00655861
0.00632037
0.00609594
0.00588022
0.00567807
0.00575305
0.00590971
0.00612248
0.00637018
0.00664116
0.00692227
0.00720531
0.00748374
0.00775879
0.00803028
0.00830511
0.00858041
0.00886439
0.00915972
0.00947671
0.00982046
0.0102069
0.010646
0.0111575
0.011753
0.0124403
0.0132277
0.0141045
0.015068
0.0161027
0.0171408
0.00994894
0.00951244
0.00909849
0.0087062
0.00833754
0.00799203
0.00766765
0.00736352
0.00707876
0.00681123
0.00655861
0.0063203
0.00609509
0.00587995
0.00568076
0.0057606
0.00592842
0.00616032
0.00643411
0.00673906
0.00706199
0.00739408
0.00772378
0.0080503
0.00837399
0.00869891
0.00902621
0.00936415
0.0097158
0.0100949
0.0105083
0.0109752
0.0115071
0.0121252
0.0128414
0.0136661
0.0146083
0.0156652
0.0168249
0.0180689
0.0193143
0.00994904
0.0095126
0.00909865
0.00870634
0.00833775
0.00799239
0.00766777
0.00736378
0.0070791
0.0068113
0.00655881
0.0063205
0.006095
0.00587925
0.00567887
0.00575817
0.00593359
0.00618318
0.00648612
0.00683261
0.00720882
0.00760579
0.00801229
0.0084202
0.00882573
0.00923231
0.00964237
0.0100636
0.0105032
0.0109774
0.0114968
0.0120827
0.0127495
0.0135179
0.0144026
0.0154192
0.0165783
0.0178895
0.0193574
0.0209546
0.0225243
0.0099487
0.0095124
0.00909835
0.00870585
0.00833712
0.00799166
0.00766688
0.0073628
0.00707832
0.00681056
0.00655804
0.00631971
0.00609419
0.00587857
0.00568423
0.00577124
0.00596105
0.00623181
0.00656479
0.00694997
0.00737355
0.00782569
0.00829513
0.00877727
0.00926385
0.00976129
0.0102645
0.0107891
0.0113429
0.0119481
0.0126167
0.0133736
0.0142328
0.0152179
0.0163465
0.0176346
0.0190943
0.0207403
0.0225085
0.0245512
0.0263828
0.00994888
0.00951418
0.00909973
0.00870631
0.00833703
0.00799128
0.00766693
0.00736321
0.00707861
0.00681061
0.00655812
0.00631974
0.00609493
0.00587879
0.00568966
0.00578292
0.00598048
0.00626052
0.00660824
0.00701296
0.00746497
0.00795247
0.00846791
0.00900279
0.00955711
0.0101267
0.0107199
0.011341
0.01201
0.0127413
0.0135583
0.0144765
0.0155238
0.0167113
0.0180745
0.019619
0.0213868
0.0233589
0.0222191
0.033538
0.041473
0.00995019
0.00952172
0.00910162
0.00870613
0.00833612
0.00799053
0.00766722
0.0073637
0.00707867
0.00681102
0.00655848
0.0063194
0.00609428
0.00588014
0.00568134
0.00576883
0.00595883
0.00623188
0.00657544
0.0069803
0.00743863
0.00793879
0.00847465
0.00903532
0.0096227
0.0102307
0.0108705
0.0115427
0.0122701
0.0130628
0.0139491
0.0149407
0.0160725
0.0173487
0.0188142
0.0204762
0.022383
0.0245044
0.0227391
0.0350014
0.0434751
0.00560052
0.00539516
0.00523484
0.0049903
0.00484274
0.00470084
0.00456537
0.00443404
0.00430772
0.00418416
0.00406424
0.00394635
0.00383213
0.0037199
0.00361121
0.00350446
0.00340144
0.00330072
0.00320393
0.00310974
0.00301977
0.00293357
0.00285599
0.00278473
0.00994962
0.0095194
0.0091018
0.00870708
0.00833671
0.00798976
0.00766466
0.00735958
0.00707291
0.00680324
0.00654931
0.00630971
0.00608182
0.0058543
0.00561563
0.0053765
0.00525907
0.00498709
0.00483741
0.00469724
0.00456184
0.00443197
0.00430543
0.00418327
0.00406326
0.00394654
0.00383215
0.00372108
0.00361216
0.00350641
0.00340312
0.00330322
0.00320612
0.00311259
0.00302215
0.00293533
0.00285137
0.00276968
0.00270505
0.00267113
0.00260113
0.00994804
0.0095114
0.00909792
0.00870569
0.00833597
0.00798904
0.0076637
0.00735843
0.00707162
0.00680184
0.00654776
0.00630812
0.00608211
0.00585231
0.00561206
0.00538031
0.00525573
0.0050247
0.00483586
0.00469495
0.00455938
0.00442898
0.00430226
0.00417959
0.00405929
0.00394207
0.00382733
0.00371582
0.00360657
0.00350049
0.00339683
0.00329666
0.00319914
0.00310531
0.00301418
0.00292684
0.00284178
0.00275986
0.00268135
0.002607
0.0025427
0.00994809
0.0095102
0.00909669
0.0087059
0.0083368
0.00799003
0.00766469
0.00735943
0.00707268
0.00680303
0.00654927
0.00631023
0.00608493
0.00584522
0.00559609
0.00540131
0.00523365
0.0050571
0.00483595
0.00469616
0.00456089
0.004431
0.0043044
0.0041821
0.00406183
0.00394494
0.0038303
0.00371902
0.00360984
0.00350386
0.00340017
0.00329994
0.00320213
0.00310794
0.0030161
0.0029279
0.00284175
0.00275909
0.00267932
0.0026045
0.00254026
0.00994852
0.00951055
0.00909704
0.00870661
0.00833783
0.00799123
0.007666
0.00736073
0.00707392
0.00680419
0.00655041
0.00631143
0.00608609
0.00584312
0.00559106
0.00540812
0.00522561
0.00506671
0.00483786
0.00469678
0.00456081
0.00443056
0.00430406
0.00418174
0.00406153
0.00394458
0.00382991
0.00371842
0.00360901
0.00350274
0.00339873
0.00329814
0.0032
0.00310538
0.00301316
0.00292451
0.00283805
0.00275537
0.00267525
0.00259966
0.00253428
0.00994872
0.0095108
0.00909739
0.00870714
0.00833847
0.00799192
0.0076667
0.00736149
0.00707479
0.00680522
0.00655146
0.00631227
0.00608654
0.00584232
0.00558992
0.00540855
0.00522587
0.0050668
0.00483554
0.0046966
0.00456175
0.00443201
0.00430561
0.00418323
0.00406295
0.00394599
0.00383134
0.00371994
0.0036106
0.00350443
0.00340047
0.00329992
0.00320173
0.00310703
0.00301464
0.00292577
0.00283913
0.00275633
0.00267592
0.00259988
0.00253421
0.00994867
0.00951082
0.00909752
0.00870741
0.00833892
0.00799252
0.00766746
0.00736235
0.00707577
0.00680634
0.00655272
0.00631355
0.00608776
0.00583959
0.00558438
0.00541459
0.00522097
0.00506922
0.00483585
0.00469726
0.00456204
0.00443211
0.00430573
0.00418342
0.00406326
0.00394643
0.00383185
0.00372048
0.00361109
0.00350486
0.00340078
0.00330009
0.00320176
0.0031069
0.00301437
0.00292541
0.00283865
0.00275579
0.00267527
0.00259902
0.00253313
0.00994867
0.00951086
0.00909759
0.00870748
0.00833897
0.00799253
0.00766745
0.00736238
0.00707592
0.00680665
0.00655318
0.00631409
0.00608837
0.00583796
0.00558105
0.00541711
0.00522124
0.00505932
0.00483767
0.00469974
0.00456468
0.00443405
0.00430662
0.00418329
0.00406231
0.00394485
0.00382988
0.00371834
0.00360897
0.00350282
0.00339896
0.00329849
0.00320043
0.00310583
0.00301361
0.00292493
0.00283842
0.00275572
0.00267536
0.00259902
0.00253323
0.00994882
0.00951101
0.00909769
0.00870749
0.00833887
0.00799234
0.00766715
0.00736199
0.00707545
0.00680605
0.00655236
0.00631311
0.00608733
0.00583948
0.00558414
0.0054149
0.00521759
0.00507105
0.0048387
0.00469785
0.00456136
0.00443065
0.00430389
0.00418151
0.0040615