/*--------------------------------*- C++ -*----------------------------------*\
  =========                 |
  \\      /  F ield         | OpenFOAM: The Open Source CFD Toolbox
   \\    /   O peration     | Website:  https://openfoam.org
    \\  /    A nd           | Version:  7
     \\/     M anipulation  |
\*---------------------------------------------------------------------------*/
FoamFile
{
    version     2.0;
    format      ascii;
    class       volScalarField;
    location    "900";
    object      k;
}
// * * * * * * * * * * * * * * * * * * * * * * * * * * * * * * * * * * * * * //

dimensions      [0 2 -2 0 0 0 0];

internalField   nonuniform List<scalar> 
120313
(
1.08714
1.24729
1.34392
1.41836
1.45615
1.4726
1.47809
1.47354
1.45751
1.42975
1.38362
1.33995
1.29169
1.23496
1.18256
1.14117
1.1019
1.06495
1.0251
0.987816
0.947656
0.906718
0.860747
0.761338
1.1684
1.4053
1.52524
1.62478
1.67523
1.7004
1.71301
1.7071
1.67827
1.65004
1.61022
1.56203
1.50455
1.44735
1.39275
1.34223
1.29462
1.248
1.19971
1.15322
1.1048
1.04823
0.979067
0.833077
1.15269
1.38515
1.50738
1.60766
1.66246
1.69068
1.70561
1.70611
1.68225
1.65348
1.61342
1.5617
1.50379
1.44755
1.39081
1.34123
1.29355
1.24742
1.1992
1.15291
1.10385
1.04522
0.968035
0.825754
1.14427
1.37557
1.49861
1.60067
1.65701
1.68743
1.70505
1.70879
1.68796
1.65842
1.61697
1.56403
1.50585
1.45006
1.39244
1.34287
1.2951
1.24902
1.2009
1.15455
1.10515
1.04595
0.966648
0.825532
1.14166
1.3728
1.49625
1.59875
1.65531
1.68614
1.70442
1.709
1.68889
1.65967
1.61787
1.56493
1.50669
1.45117
1.39343
1.34373
1.29593
1.24983
1.20191
1.15586
1.10673
1.04774
0.967913
0.826887
1.14509
1.37768
1.50095
1.60276
1.65844
1.68807
1.70474
1.70656
1.68615
1.65795
1.61764
1.56519
1.50733
1.45205
1.39506
1.34569
1.29837
1.25219
1.20403
1.15776
1.10873
1.05021
0.970887
0.828872
1.15871
1.3964
1.5185
1.62126
1.67411
1.70136
1.71529
1.71068
1.68741
1.66102
1.62193
1.5701
1.51252
1.45718
1.40194
1.35292
1.30585
1.25915
1.21035
1.16358
1.11476
1.05803
0.986584
0.838919
1.08945
1.25451
1.3564
1.43924
1.47894
1.49808
1.50551
1.50065
1.48528
1.45752
1.41321
1.36811
1.31653
1.25991
1.20882
1.17046
1.13036
1.09146
1.0503
1.01139
0.970521
0.928949
0.877503
0.773694
0.154712
0.306875
0.469052
0.649128
0.85172
1.0816
1.34219
1.62813
2.00084
2.2553
2.58396
2.85617
3.04568
3.15837
3.21791
3.24068
3.23833
3.21766
3.17842
3.12973
3.05956
2.97664
2.87614
2.76619
2.65764
2.54483
2.43367
2.32349
2.21842
2.119
2.02005
1.93038
1.84065
1.75813
1.6895
1.63806
0.154904
0.304445
0.465237
0.642966
0.842016
1.06709
1.31973
1.57926
1.90518
2.75826
3.32727
3.7049
3.95139
4.08252
4.13888
4.15145
4.13307
4.08825
4.02113
3.92951
3.83674
3.71114
3.57429
3.42986
3.28691
3.14083
2.99896
2.85701
2.72557
2.5938
2.46943
2.36487
2.15215
2.04339
1.72965
1.61793
0.146207
0.295718
0.454791
0.62942
0.82358
1.04147
1.28312
1.52021
1.79601
2.64129
3.35132
3.78605
4.06306
4.20376
4.25849
4.26919
4.24516
4.18658
4.13112
4.03724
3.92783
3.79252
3.64918
3.49912
3.35213
3.20191
3.05739
2.9132
2.77995
2.64649
2.51699
2.40804
2.12524
1.99209
1.71054
1.60439
0.139692
0.289832
0.447313
0.618939
0.808271
1.01889
1.24943
1.46879
1.72299
2.57221
3.32738
3.78418
4.06491
4.21121
4.26809
4.27931
4.26037
4.21137
4.15608
4.05366
3.93548
3.79656
3.65047
3.49917
3.35281
3.20256
3.05809
2.91511
2.78221
2.65028
2.52116
2.40714
2.10748
1.96849
1.69179
1.59086
0.143249
0.290404
0.446173
0.615473
0.801466
1.00736
1.23125
1.44226
1.69077
2.54321
3.30728
3.77081
4.05025
4.1986
4.25788
4.27073
4.25515
4.21437
4.15232
4.04751
3.92589
3.78434
3.63706
3.4849
3.33991
3.19008
3.04725
2.90582
2.77499
2.6454
2.5191
2.40372
2.104
1.96244
1.6885
1.58924
0.145337
0.28992
0.444484
0.612609
0.797159
1.00125
1.22305
1.43233
1.68154
2.53598
3.30032
3.76408
4.04333
4.19174
4.25145
4.26484
4.2503
4.21109
4.14752
4.04263
3.92018
3.77791
3.63012
3.4775
3.33282
3.18355
3.04226
2.90228
2.77292
2.64431
2.51906
2.40349
2.1051
1.96457
1.69072
1.59128
0.141591
0.285657
0.440238
0.609152
0.795148
1.00136
1.22596
1.43849
1.69401
2.55547
3.30616
3.76569
4.04663
4.19307
4.25102
4.26385
4.24598
4.20407
4.14545
4.04285
3.92232
3.78128
3.63475
3.48291
3.33827
3.18869
3.04623
2.90495
2.77423
2.64408
2.51718
2.40235
2.10729
1.97295
1.69586
1.59414
0.134446
0.279666
0.434969
0.606122
0.796119
1.0086
1.24246
1.46748
1.7439
2.62268
3.32682
3.76595
4.04841
4.18729
4.2425
4.25514
4.23153
4.18332
4.12859
4.03227
3.91676
3.78005
3.63705
3.48695
3.34181
3.19185
3.04826
2.90512
2.77272
2.6403
2.51223
2.40074
2.12346
2.00092
1.71303
1.6054
0.13468
0.278435
0.434447
0.60876
0.805021
1.02817
1.27925
1.53368
1.86219
2.76622
3.34114
3.72862
3.98926
4.11389
4.16665
4.17821
4.15763
4.11534
4.04951
3.962
3.85854
3.72895
3.59055
3.44463
3.30083
3.15329
3.01036
2.86762
2.73536
2.60391
2.47953
2.3698
2.16111
2.0613
1.75584
1.63505
0.135676
0.27706
0.433367
0.609702
0.810024
1.04041
1.30484
1.58675
1.98491
2.87199
3.26694
3.60919
3.84056
3.96168
4.01688
4.03142
4.01624
3.97679
3.91867
3.849
3.76166
3.64429
3.51433
3.37569
3.23796
3.09744
2.95776
2.82053
2.68958
2.56467
2.44359
2.33828
2.20148
2.12513
1.80154
1.66384
0.131875
0.273885
0.432539
0.612174
0.816362
1.05074
1.31916
1.60762
1.98465
2.23436
2.54385
2.81595
3.00753
3.1207
3.18303
3.20859
3.21013
3.19112
3.1561
3.111
3.05392
2.96808
2.86395
2.75524
2.6433
2.53096
2.41737
2.30572
2.19823
2.09623
1.99873
1.90716
1.81692
1.73913
1.68595
1.63696
0.115106
0.265182
0.427993
0.612673
0.823355
1.06573
1.34383
1.65635
2.04684
2.29739
2.61943
2.89974
3.09612
3.21503
3.28093
3.30808
3.31064
3.29161
3.26008
3.21707
3.16081
3.07544
2.9678
2.85437
2.73712
2.61833
2.4995
2.38329
2.27072
2.16315
2.06025
1.96312
1.8715
1.79165
1.72129
1.66132
3.83332
4.33301
4.83243
5.12628
5.28634
5.33621
5.32447
5.26814
5.18659
5.09274
4.97706
4.83051
4.6685
4.48874
4.29835
4.10997
3.92019
3.73688
3.55644
3.38462
3.22001
3.06541
2.91589
2.80054
0.204432
0.37174
0.570461
0.802869
1.07692
1.40288
1.79052
2.24863
2.86688
3.76591
4.26089
4.76647
5.04431
5.19337
5.24305
5.22627
5.17246
5.09369
4.99901
4.89164
4.77146
4.62014
4.4349
4.24857
4.06226
3.87799
3.69655
3.52118
3.35168
3.19049
3.03836
2.8938
2.76227
2.6524
2.49189
2.37073
0.19957
0.364382
0.56285
0.794148
1.06731
1.39368
1.78339
2.24275
2.86375
3.74104
4.2282
4.74977
5.01878
5.16151
5.20223
5.17781
5.12056
5.04108
4.94822
4.84565
4.72001
4.55675
4.37874
4.19575
4.00958
3.82661
3.64552
3.47292
3.30704
3.14998
3.00059
2.86423
2.72546
2.59781
2.49448
2.37312
0.189675
0.352731
0.548903
0.77706
1.04619
1.36832
1.7536
2.2063
2.80593
3.67847
4.1885
4.70548
4.98485
5.13514
5.17337
5.1538
5.10069
5.03167
4.95222
4.83461
4.68789
4.52203
4.33901
4.1539
3.96817
3.78581
3.60759
3.43692
3.27437
3.12059
2.97421
2.84391
2.7008
2.56422
2.4605
2.34307
0.181009
0.343573
0.536943
0.761218
1.02501
1.34044
1.71727
2.15738
2.73836
3.6172
4.14329
4.65297
4.93325
5.09125
5.1342
5.11902
5.07445
5.01726
4.9333
4.80079
4.64724
4.47702
4.29498
4.11026
3.92759
3.74664
3.57205
3.40399
3.24567
3.0949
2.95177
2.82484
2.68252
2.5434
2.44109
2.32115
0.181706
0.341237
0.531883
0.753048
1.01289
1.32314
1.69312
2.12389
2.6958
3.58142
4.11057
4.61374
4.89434
5.05605
5.10268
5.08907
5.04931
5.00158
4.903
4.76952
4.61349
4.43881
4.25599
4.07138
3.8906
3.71143
3.54019
3.37496
3.22134
3.07501
2.93689
2.81322
2.674
2.53556
2.43459
2.31316
0.182823
0.339546
0.52836
0.747772
1.00571
1.3137
1.68079
2.10792
2.67892
3.57079
4.09905
4.60185
4.8823
5.0443
5.09186
5.07884
5.04001
4.99273
4.8918
4.75775
4.60077
4.42473
4.24092
4.05573
3.87477
3.69717
3.52866
3.36623
3.21495
3.07043
2.93371
2.81046
2.67172
2.53344
2.43258
2.3107
0.179119
0.334917
0.523125
0.742435
1.00082
1.31012
1.6795
2.10978
2.68803
3.58532
4.10832
4.61867
4.89898
5.05822
5.10242
5.08861
5.04724
4.99602
4.90454
4.77114
4.6163
4.44103
4.25815
4.07302
3.89241
3.71316
3.54244
3.37733
3.22351
3.0758
2.93599
2.81007
2.66997
2.53218
2.43118
2.3093
0.173589
0.330124
0.518868
0.73972
1.00101
1.31527
1.69241
2.134
2.72947
3.62668
4.13698
4.65868
4.93814
5.08867
5.12975
5.11418
5.06656
5.00531
4.92787
4.79849
4.6483
4.47891
4.29882
4.11313
3.93057
3.74829
3.57412
3.40507
3.24602
3.09382
2.9493
2.81995
2.67899
2.54321
2.44168
2.31973
0.174287
0.330104
0.519869
0.743509
1.00995
1.3324
1.72174
2.18148
2.80473
3.69716
4.18514
4.71096
4.98163
5.12278
5.16462
5.14439
5.09056
5.01756
4.93422
4.82896
4.68592
4.52288
4.34194
4.15656
3.96967
3.78556
3.60607
3.43391
3.27
3.1152
2.96751
2.83499
2.6967
2.56486
2.46401
2.34257
0.176536
0.330916
0.522062
0.748746
1.02017
1.34958
1.74821
2.22141
2.86162
3.74615
4.22076
4.73755
5.00319
5.14362
5.18969
5.16775
5.11138
5.03296
4.94069
4.84255
4.72547
4.56075
4.38276
4.20109
4.01365
3.82816
3.64413
3.46981
3.3017
3.14491
2.9944
2.85743
2.72031
2.59393
2.49264
2.36804
0.172914
0.327855
0.520301
0.74964
1.0243
1.35688
1.75773
2.23133
2.86699
3.76939
4.25868
4.77761
5.05704
5.20816
5.26384
5.24882
5.19636
5.11926
5.02549
4.92418
4.80741
4.63736
4.45324
4.26713
4.07232
3.88159
3.69114
3.51157
3.33742
3.17555
3.02175
2.87858
2.73973
2.62947
2.46974
2.34888
0.160866
0.3199
0.512975
0.743895
1.01985
1.35311
1.7539
2.22609
2.86347
3.77574
4.28722
4.8184
5.10746
5.26075
5.31352
5.30402
5.25623
5.18393
5.09389
4.99215
4.85819
4.68678
4.49726
4.30335
4.10114
3.90506
3.71015
3.52688
3.34911
3.18508
3.02963
2.8852
2.74627
2.63699
2.47595
2.34941
4.26011
4.60098
5.13487
5.31747
5.36509
5.31132
5.19194
5.03085
4.84796
4.65699
4.47402
4.30266
4.10537
3.94884
3.74439
3.60504
3.42763
3.30339
3.13729
3.03121
2.87453
2.78429
2.63914
2.57769
0.193533
0.330832
0.519003
0.783892
1.13563
1.56124
2.04382
2.59498
3.35406
4.26115
4.57792
5.15069
5.35603
5.407
5.35633
5.24253
5.08438
4.90291
4.71069
4.51964
4.33567
4.1595
3.98423
3.81986
3.64395
3.50741
3.33176
3.20887
3.05135
2.93397
2.80483
2.68964
2.57702
2.49803
2.49011
2.40991
0.188984
0.322925
0.511063
0.778929
1.13716
1.57128
2.06393
2.62768
3.40364
4.26283
4.54007
5.09998
5.28747
5.33262
5.28087
5.16516
5.0069
4.82636
4.63755
4.44958
4.26824
4.09858
3.91182
3.76686
3.56765
3.44016
3.24714
3.13965
2.97254
2.87764
2.73733
2.64304
2.53402
2.43396
2.33494
2.24049
0.180073
0.310087
0.494584
0.757504
1.11101
1.54363
2.03711
2.60428
3.3738
4.18421
4.50852
4.97694
5.14363
5.18051
5.12389
5.00218
4.8424
4.66702
4.48743
4.31881
4.1303
3.97453
3.76259
3.6199
3.43764
3.3071
3.14121
3.02782
2.8779
2.78611
2.65611
2.58293
2.46681
2.37968
2.26781
2.17307
0.171741
0.299848
0.478508
0.734506
1.08022
1.50529
1.99249
2.55251
3.31348
4.10169
4.46395
4.86325
5.01281
5.03883
4.97105
4.84254
4.67966
4.5081
4.33411
4.17167
3.9757
3.81055
3.63886
3.48175
3.33077
3.18911
3.05406
2.9308
2.81051
2.70902
2.59329
2.52505
2.41767
2.34182
2.20861
2.11017
0.170999
0.295742
0.470873
0.72191
1.06324
1.48332
1.96522
2.51795
3.27221
4.05155
4.42638
4.79736
4.9379
4.9526
4.87708
4.74134
4.57108
4.41064
4.23477
4.06484
3.87373
3.69402
3.52857
3.3751
3.23238
3.09614
2.97124
2.85366
2.75086
2.6567
2.55684
2.49182
2.39415
2.32347
2.1836
2.08298
0.171899
0.293656
0.466681
0.716098
1.055
1.47322
1.95293
2.50146
3.25366
4.03603
4.41229
4.77992
4.91732
4.92896
4.85148
4.71341
4.54242
4.38173
4.20246
4.03041
3.8363
3.65584
3.48812
3.33274
3.19061
3.06156
2.94672
2.83607
2.73907
2.64905
2.55254
2.48849
2.39012
2.31855
2.17594
2.07436
0.168918
0.289869
0.462048
0.710592
1.04892
1.46737
1.94773
2.49727
3.25274
4.05969
4.42082
4.81679
4.95935
4.97834
4.90516
4.77043
4.59873
4.43221
4.2569
4.08613
3.89491
3.70953
3.54092
3.38468
3.24188
3.10566
2.98135
2.864
2.75936
2.6615
2.55746
2.48851
2.38565
2.31283
2.17102
2.06993
0.164801
0.286849
0.459554
0.708269
1.04784
1.46914
1.95371
2.50971
3.2738
4.11716
4.44244
4.90846
5.06363
5.09259
5.02663
4.89805
4.73288
4.54955
4.37528
4.20656
4.0074
3.84027
3.66374
3.50053
3.34736
3.20178
3.06723
2.94127
2.81511
2.7151
2.59345
2.52331
2.40948
2.33283
2.19059
2.08999
0.165884
0.288409
0.462129
0.714065
1.05821
1.48566
1.97889
2.54532
3.32369
4.20363
4.49241
5.03638
5.19923
5.23225
5.17492
5.05289
4.89078
4.7098
4.52299
4.34415
4.15587
3.99794
3.78065
3.63569
3.44281
3.31332
3.1402
3.02889
2.87508
2.78419
2.65052
2.57689
2.45128
2.36837
2.23553
2.13739
0.16851
0.290749
0.467227
0.722911
1.07337
1.50811
2.00779
2.58149
3.36708
4.24815
4.5384
5.12157
5.29457
5.3324
5.27864
5.16348
5.00496
4.82316
4.63366
4.4448
4.26343
4.09507
3.90486
3.75878
3.5511
3.41975
3.22235
3.11362
2.94551
2.85421
2.70849
2.62291
2.49385
2.40374
2.29202
2.19665
0.165594
0.288479
0.465319
0.721726
1.07183
1.50713
2.00717
2.57962
3.36359
4.24958
4.54754
5.15195
5.33504
5.37889
5.33035
5.21911
5.06336
4.88289
4.69259
4.50394
4.32472
4.15614
3.96162
3.8149
3.59759
3.46586
3.26517
3.15468
2.98118
2.88847
2.73416
2.64646
2.50955
2.44097
2.41483
2.35003
0.154917
0.28058
0.45487
0.705563
1.04701
1.47583
1.9713
2.53888
3.32418
4.21378
4.51539
5.12871
5.32594
5.37622
5.33249
5.22327
5.06931
4.89029
4.7009
4.51764
4.33627
4.17228
3.95827
3.80881
3.58945
3.4569
3.26235
3.14838
2.97525
2.88264
2.72622
2.64159
2.50001
2.44187
2.42082
2.35531
2.24765
2.0582
1.9397
1.80878
1.70441
1.61842
1.54068
1.46923
1.40321
1.34203
1.28627
1.241
1.20202
1.17195
1.14327
1.12464
1.10686
1.09805
1.08768
1.08298
1.07597
1.07533
1.07159
1.04577
0.807499
1.61381
2.22732
2.67089
2.92816
3.13931
3.34811
3.54375
3.69909
2.28157
2.08711
1.96146
1.82418
1.70995
1.61614
1.53522
1.46069
1.39417
1.33243
1.27816
1.22959
1.19165
1.15993
1.1354
1.11531
1.10102
1.09015
1.0818
1.07616
1.06996
1.06932
1.07015
1.06517
1.03655
1.27968
1.38765
0.779085
1.68278
2.33822
2.75787
2.99265
3.19368
3.40923
3.58145
3.70682
2.20879
2.01304
1.87352
1.73241
1.62345
1.53584
1.46046
1.39166
1.32951
1.27331
1.22204
1.17539
1.13821
1.10769
1.08326
1.06368
1.04933
1.03691
1.02957
1.02298
1.02096
1.02248
1.0273
1.03405
1.02686
1.01557
0.978255
0.759912
1.61108
2.29684
2.73057
2.96887
3.1636
3.36545
3.53388
3.63719
2.13013
1.93974
1.7796
1.63461
1.52556
1.44127
1.36545
1.30026
1.23939
1.18314
1.13421
1.09296
1.05552
1.02439
0.99736
0.977306
0.961547
0.95245
0.945349
0.944491
0.945345
0.951105
0.960522
0.96994
0.966672
0.949026
0.910978
0.740576
1.54637
2.2164
2.68104
2.93024
3.12527
3.32737
3.49032
3.59413
2.10063
1.91018
1.73031
1.57365
1.4613
1.36858
1.29367
1.22221
1.16341
1.11641
1.07293
1.03347
0.998321
0.965466
0.935819
0.912838
0.895955
0.884769
0.878511
0.878
0.881623
0.889868
0.903479
0.915685
0.911666
0.892001
0.850142
0.694126
1.54445
2.20826
2.67146
2.92647
3.11827
3.31267
3.46963
3.58066
2.0916
1.89822
1.70744
1.54465
1.42584
1.33063
1.24907
1.17934
1.12413
1.07863
1.03656
0.996654
0.959553
0.925457
0.895918
0.869038
0.849546
0.836364
0.829195
0.830061
0.836871
0.848356
0.867397
0.883355
0.881907
0.861243
0.82121
0.717079
1.56221
2.23879
2.68148
2.92678
3.11825
3.3074
3.46064
3.56168
2.07393
1.88419
1.68867
1.52762
1.40743
1.31451
1.23011
1.16398
1.11046
1.06562
1.02325
0.982683
0.945053
0.910148
0.879415
0.851699
0.831384
0.818974
0.814862
0.816884
0.825618
0.83869
0.858337
0.87348
0.87028
0.849124
0.806443
0.682811
1.54567
2.24546
2.68775
2.927
3.11452
3.29903
3.44949
3.54696
2.06554
1.87832
1.69279
1.53754
1.4233
1.33256
1.25282
1.18504
1.12937
1.08332
1.0403
1.00077
0.962248
0.927422
0.896738
0.86982
0.849805
0.83729
0.830698
0.830923
0.837033
0.846686
0.862014
0.872423
0.866187
0.844019
0.80211
0.674207
1.52868
2.20494
2.66756
2.92643
3.11347
3.29683
3.44957
3.55619
2.09041
1.90241
1.73578
1.58696
1.47755
1.38861
1.31183
1.24218
1.17768
1.12722
1.08048
1.04029
1.00112
0.968231
0.935855
0.911189
0.892652
0.880694
0.87412
0.873407
0.875571
0.882503
0.892435
0.898379
0.889821
0.867745
0.828151
0.736301
1.5405
2.22068
2.66566
2.91862
3.11385
3.31017
3.47246
3.57977
2.10293
1.92482
1.78169
1.64524
1.54053
1.45682
1.38164
1.31362
1.2505
1.1903
1.13556
1.09121
1.05116
1.01692
0.986363
0.963087
0.944947
0.932951
0.925741
0.92278
0.922728
0.926921
0.931328
0.9341
0.925169
0.905671
0.87268
0.775177
1.59621
2.26281
2.69533
2.94251
3.13442
3.32665
3.49494
3.60105
2.11291
1.94233
1.81392
1.6856
1.58759
1.50562
1.43431
1.36701
1.30467
1.24729
1.19331
1.14355
1.10336
1.07028
1.044
1.02212
1.00529
0.992513
0.984436
0.979055
0.976905
0.975874
0.97626
0.977718
0.966116
0.953692
0.928559
0.735633
1.61263
2.24272
2.67194
2.93096
3.12971
3.33532
3.51057
3.61591
2.12039
1.94869
1.82457
1.70115
1.60864
1.53059
1.46353
1.39894
1.33928
1.28287
1.23122
1.18218
1.14449
1.11101
1.08679
1.06363
1.04814
1.03346
1.02575
1.01796
1.01461
1.01026
1.0109
1.00956
0.97675
1.17752
1.28837
0.625037
1.39667
2.0351
2.51137
2.82591
3.06601
3.27425
3.47506
3.60383
2.11749
1.94099
1.81438
1.69425
1.60715
1.53378
1.47064
1.40905
1.35169
1.29611
1.24645
1.19854
1.1617
1.12827
1.10237
1.07782
1.06215
1.04681
1.03887
1.02989
1.02588
1.02016
1.02004
1.01879
0.985486
1.19236
1.3026
0.0372936
0.0486675
0.0587289
0.0668172
0.073604
0.0794726
0.0845339
0.0888513
0.0925579
0.0958086
0.0987617
0.10174
0.104599
0.107749
0.111165
0.115022
0.119264
0.124082
0.129337
0.135158
0.141311
0.14767
0.154561
0.147132
0.000997173
0.000974885
0.000952737
0.000931584
0.000911457
0.000892202
0.000890951
0.000987828
0.00124414
0.00171082
0.00324067
0.00836168
0.0212534
0.0338185
0.0328504
0.0450394
0.055637
0.0641241
0.071055
0.0769388
0.0819711
0.0862334
0.0899016
0.0930536
0.0960445
0.0987959
0.101681
0.104652
0.108014
0.111762
0.116012
0.120735
0.125977
0.131713
0.137866
0.144236
0.151176
0.157484
0.151665
0.216579
0.256355
0.000997497
0.000975355
0.000953127
0.000932138
0.000911964
0.000894538
0.000875919
0.000906047
0.00103087
0.00122263
0.00214802
0.00548389
0.0150454
0.0284567
0.0298831
0.0413179
0.0509188
0.0584776
0.0647652
0.0701532
0.0747824
0.0787788
0.0822366
0.0852923
0.0879653
0.0906069
0.0930829
0.0957589
0.0986842
0.102059
0.10586
0.110105
0.11484
0.120058
0.125857
0.132345
0.139746
0.147026
0.154242
0.158781
0.163358
0.00099756
0.000975292
0.000953413
0.000932329
0.000911864
0.000894213
0.000874644
0.000872724
0.000897437
0.00102942
0.00176216
0.00441299
0.0114247
0.0245852
0.0273459
0.0381772
0.0468466
0.0535423
0.0590885
0.0638185
0.0677788
0.0712288
0.0740745
0.0764123
0.0784082
0.0803999
0.0822287
0.0841783
0.0862871
0.0887632
0.0916233
0.0950223
0.0989223
0.103442
0.108639
0.114541
0.121321
0.128339
0.134353
0.138082
0.144547
0.000997658
0.000975476
0.000953306
0.000932221
0.000911958
0.000894363
0.000873541
0.000869962
0.000891252
0.00100534
0.00163781
0.00385875
0.00984145
0.0232898
0.0268774
0.0374942
0.0455895
0.0516272
0.0565263
0.0604871
0.0637896
0.0664151
0.0685011
0.0703093
0.0719254
0.073548
0.075028
0.0765694
0.0781574
0.0800032
0.0821519
0.0847464
0.087849
0.0915567
0.0959293
0.100914
0.106579
0.112234
0.117362
0.120824
0.125704
0.00099747
0.000975106
0.000953226
0.000932221
0.000912328
0.000893321
0.000873263
0.00087293
0.000901215
0.00102471
0.00176833
0.00439506
0.0113806
0.0241999
0.0269691
0.0374678
0.0452754
0.050966
0.0554522
0.0589832
0.0617888
0.0639645
0.0657016
0.0672063
0.0685464
0.0698887
0.0710493
0.0722402
0.0734883
0.0748624
0.0764862
0.0784677
0.0809427
0.0840452
0.0878766
0.0923577
0.0974886
0.102727
0.107685
0.1115
0.115546
0.00099753
0.000975337
0.000953393
0.000932099
0.000911967
0.000892652
0.00087281
0.000870613
0.000888464
0.00101049
0.00167446
0.00398515
0.0100478
0.0237402
0.0264319
0.0367657
0.0443988
0.0499697
0.0543117
0.0577474
0.0604107
0.0625066
0.0641867
0.0656196
0.066978
0.0681492
0.0692557
0.0702917
0.0714048
0.0725948
0.0740443
0.0758734
0.0782816
0.0813193
0.0850912
0.0894931
0.0945118
0.0996346
0.104472
0.107849
0.112211
0.000997658
0.000975459
0.000953399
0.000932146
0.000912043
0.000893168
0.000873097
0.000868921
0.00088401
0.000996653
0.00161606
0.00380992
0.00958657
0.0226513
0.0257068
0.0360158
0.0437345
0.0494742
0.054061
0.0577496
0.0607143
0.0630563
0.0649194
0.0665249
0.0679209
0.0693161
0.0704979
0.0716893
0.0729131
0.074281
0.0758838
0.0778825
0.0803654
0.0834575
0.087211
0.0915183
0.0963863
0.101263
0.105808
0.109208
0.112848
0.000997556
0.00097537
0.000953327
0.000931995
0.000911739
0.000893482
0.000873616
0.000865942
0.000874633
0.000978329
0.00156883
0.00369941
0.00925005
0.0222011
0.0260204
0.0365739
0.0447773
0.0510093
0.0561185
0.0603266
0.0637986
0.0666257
0.0687709
0.0705491
0.0721432
0.0735766
0.0749583
0.0763269
0.0777314
0.079366
0.0812972
0.0836689
0.086563
0.0900432
0.0941052
0.0986748
0.103769
0.108847
0.113476
0.117393
0.121363
0.000997687
0.000975385
0.000953168
0.000932031
0.00091199
0.000894507
0.00087373
0.000868226
0.00088694
0.000989708
0.00156445
0.00361956
0.00900777
0.0217529
0.0258798
0.0366757
0.0454855
0.0524069
0.058203
0.0631454
0.0672944
0.0708217
0.0737023
0.0759468
0.0778035
0.0794357
0.0810443
0.0826003
0.084287
0.0862678
0.0886056
0.0914277
0.094782
0.0986603
0.103115
0.108047
0.113459
0.118944
0.123762
0.129145
0.133777
0.000997561
0.000975333
0.000953353
0.000932223
0.000911786
0.000892053
0.000874283
0.000866327
0.000886313
0.00100103
0.00161642
0.00375444
0.00923823
0.0224324
0.0264561
0.0373949
0.0466105
0.0539912
0.060295
0.065718
0.0703957
0.0743861
0.0777877
0.080651
0.0830054
0.0851977
0.0871361
0.0891852
0.0914348
0.0940404
0.0970694
0.100556
0.104547
0.109034
0.114056
0.119466
0.125286
0.131243
0.136218
0.142588
0.147509
0.000997639
0.000975587
0.000953629
0.000932402
0.000911992
0.000894334
0.000874788
0.000879953
0.000925167
0.00102326
0.00162261
0.00387393
0.00984292
0.0231434
0.026956
0.0379826
0.0472596
0.0547837
0.0613337
0.0670572
0.0721189
0.076509
0.0803405
0.083636
0.0865912
0.0891649
0.0917547
0.0942856
0.0971462
0.100308
0.103939
0.107933
0.112482
0.117442
0.122967
0.128814
0.13517
0.141717
0.134542
0.186773
0.221043
0.000997517
0.000975398
0.000953267
0.000931698
0.000912197
0.000894795
0.000881444
0.000924612
0.00101435
0.00110988
0.00176606
0.00419268
0.0106676
0.023013
0.0267225
0.0374534
0.046617
0.0541448
0.0608345
0.0667737
0.0721109
0.0767967
0.0809497
0.0845423
0.0878074
0.0906877
0.0936019
0.0964213
0.0995371
0.102907
0.106748
0.110929
0.115678
0.120799
0.126496
0.132495
0.138842
0.145881
0.13601
0.196252
0.235109
0.000743282
0.000745456
0.000754245
0.000769734
0.00079139
0.000819555
0.000854177
0.000895185
0.000942395
0.000995953
0.00105616
0.00112391
0.00119976
0.00128564
0.00138332
0.00149537
0.0016243
0.00177378
0.00194635
0.00214678
0.00237699
0.00263907
0.00292631
0.00293818
0.000997335
0.000974649
0.000952136
0.000930424
0.000909683
0.000889945
0.000871085
0.000853005
0.000835775
0.000819305
0.000803514
0.000788321
0.000773627
0.000758426
0.000742217
0.000742626
0.00074954
0.0007633
0.000783042
0.000808904
0.000841046
0.000879201
0.000923426
0.000973486
0.00103017
0.00109358
0.00116507
0.00124553
0.00133754
0.0014428
0.00156485
0.00170596
0.00187024
0.00206034
0.00228107
0.00253506
0.00283109
0.00313334
0.00303398
0.00496444
0.00596948
0.000997417
0.000974468
0.000952154
0.00093052
0.000909789
0.000890004
0.00087109
0.000853062
0.000835852
0.000819356
0.000803531
0.000788355
0.000773806
0.000757995
0.000741255
0.00073998
0.000744396
0.000754134
0.000769186
0.000789394
0.000814919
0.000845833
0.000881952
0.00092353
0.000970368
0.00102332
0.00108233
0.0011491
0.00122469
0.00131181
0.00141228
0.00152933
0.00166533
0.00182418
0.00201052
0.0022327
0.00250349
0.00282821
0.00314498
0.00346956
0.00372035
0.000997578
0.00097459
0.000952289
0.000930698
0.000909991
0.000890211
0.000871276
0.000853208
0.000835984
0.000819506
0.000803689
0.000788519
0.000773952
0.000757541
0.000740339
0.00073779
0.000740256
0.000747047
0.000758269
0.000773723
0.000793461
0.000817508
0.000845488
0.000877221
0.000912516
0.000951961
0.000995515
0.00104424
0.00109891
0.00116133
0.00123292
0.00131657
0.0014146
0.00153077
0.00166967
0.00183742
0.00204233
0.00228452
0.00253361
0.00278815
0.00303924
0.000997652
0.000974671
0.000952382
0.000930804
0.000910103
0.000890317
0.000871372
0.000853292
0.000836042
0.000819567
0.000803766
0.000788581
0.00077399
0.000757469
0.000740146
0.000737354
0.000739265
0.000744999
0.000754858
0.00076775
0.000783853
0.000803187
0.000825284
0.000850237
0.000877955
0.000908963
0.000943131
0.000981295
0.00102375
0.00107181
0.00112642
0.00118964
0.00126337
0.00135066
0.00145441
0.00157783
0.00172387
0.00188967
0.00206602
0.00225783
0.00244998
0.000997648
0.000974679
0.000952399
0.000930823
0.000910127
0.000890345
0.000871415
0.000853342
0.000836087
0.000819602
0.00080379
0.000788583
0.000773975
0.00075749
0.000740175
0.00073742
0.000739236
0.000744702
0.000753541
0.000765395
0.000780078
0.000797257
0.000816611
0.000838248
0.000862148
0.000888762
0.00091791
0.000950221
0.000986018
0.0010261
0.00107121
0.00112286
0.00118259
0.00125298
0.00133644
0.00143502
0.00155051
0.00168152
0.00182874
0.0019919
0.00215818
0.000997643
0.000974683
0.000952414
0.000930846
0.000910159
0.000890387
0.000871472
0.000853398
0.000836137
0.000819657
0.000803828
0.000788607
0.000774015
0.000757376
0.000739959
0.000736952
0.000738351
0.000743222
0.000751471
0.00076269
0.000776117
0.000791951
0.000809906
0.000830032
0.000852431
0.000877177
0.000904294
0.000934194
0.00096716
0.00100389
0.00104507
0.00109228
0.00114717
0.00121214
0.00128929
0.00138035
0.00148707
0.00160941
0.00174813
0.00190294
0.00205865
0.000997655
0.000974708
0.000952446
0.000930877
0.000910181
0.000890405
0.000871496
0.000853431
0.000836196
0.000819718
0.000803889
0.000788663
0.000774059
0.000757235
0.000739688
0.000736352
0.00073733
0.000741968
0.000749953
0.000760995
0.000774966
0.000791555
0.000810398
0.00083156
0.000854959
0.000881039
0.000909584
0.000941192
0.000976124
0.00101527
0.0010593
0.00110988
0.00116844
0.0012374
0.00131877
0.00141419
0.00152552
0.00165235
0.00179511
0.00195193
0.00211051
0.00099771
0.000974774
0.000952512
0.000930938
0.00091023
0.000890445
0.00087152
0.000853437
0.000836192
0.000819696
0.00080385
0.000788626
0.000773994
0.000757239
0.000739735
0.000736538
0.000737991
0.000743323
0.000752772
0.000765797
0.000781995
0.000801519
0.000823774
0.000848702
0.000876265
0.000906677
0.000940011
0.000976884
0.00101759
0.00106336
0.00111509
0.00117477
0.00124418
0.00132593
0.00142211
0.00153473
0.00166588
0.00181616
0.00198497
0.00217102
0.0023591
0.000997742
0.000974824
0.000952559
0.000930976
0.000910265
0.000890473
0.000871504
0.000853409
0.000836162
0.00081965
0.000803804
0.00078859
0.000773975
0.000757144
0.000739655
0.000736409
0.00073818
0.000744296
0.000755336
0.000770404
0.000789635
0.00081321
0.000840684
0.000871582
0.00090559
0.000942876
0.000983617
0.00102841
0.00107793
0.00113368
0.00119696
0.00127012
0.00135522
0.00145496
0.00157183
0.00170843
0.00186724
0.00205039
0.00225907
0.00249385
0.00272811
0.000997697
0.000974769
0.000952497
0.000930904
0.000910185
0.000890398
0.000871433
0.000853347
0.000836117
0.000819591
0.000803737
0.000788528
0.000773918
0.000757191
0.000739774
0.00073684
0.000739185
0.000746323
0.00075856
0.000775671
0.000797869
0.000825045
0.000856901
0.00089332
0.000933803
0.000978762
0.00102792
0.0010825
0.00114339
0.00121267
0.00129204
0.00138419
0.0014913
0.00161651
0.00176273
0.00193274
0.00212936
0.00235532
0.00260406
0.00289692
0.00317553
0.000997676
0.000974813
0.000952507
0.000930863
0.000910122
0.000890328
0.000871397
0.000853341
0.00083611
0.000819575
0.000803717
0.000788501
0.000773922
0.000757213
0.000739816
0.000737024
0.00073959
0.000747017
0.000760071
0.000778183
0.000801814
0.000831031
0.00086584
0.000906008
0.000951661
0.00100259
0.00105953
0.001123
0.00119489
0.00127686
0.0013716
0.00148118
0.00160912
0.00175762
0.00193144
0.00213249
0.0023669
0.00263405
0.00253601
0.00406016
0.00489543
0.000997709
0.000975193
0.000952579
0.000930824
0.00091005
0.000890276
0.000871425
0.000853378
0.00083611
0.000819609
0.00080375
0.000788484
0.000773889
0.000757171
0.000739551
0.000736499
0.00073862
0.000745525
0.000758116
0.000776061
0.000799834
0.000829561
0.00086543
0.000907134
0.000954975
0.00100869
0.00106923
0.00113695
0.00121397
0.00130168
0.00140313
0.00152016
0.00165694
0.00181519
0.00200052
0.00221513
0.00246561
0.00275124
0.00262276
0.00426752
0.00510941
0.000737279
0.000727272
0.000712638
0.000703434
0.000687445
0.000676408
0.00066652
0.000656771
0.000647312
0.000637894
0.000628644
0.000619369
0.000610269
0.000601142
0.00059217
0.000583175
0.000574367
0.000565585
0.000557024
0.000548544
0.000540333
0.000532345
0.000525078
0.000517774
0.000997735
0.000975117
0.00095264
0.00093093
0.000910131
0.000890255
0.000871262
0.00085309
0.000835686
0.000819015
0.000803043
0.000787727
0.00077294
0.000755622
0.000737881
0.000728942
0.000712524
0.000705037
0.000689138
0.000676508
0.000666623
0.000657072
0.000647606
0.000638368
0.000629105
0.000619961
0.000610813
0.000601792
0.000592763
0.000583851
0.000574976
0.000566258
0.000557631
0.000549199
0.000540914
0.000532854
0.000524951
0.000517068
0.000510852
0.000507667
0.000501003
0.000997594
0.000974599
0.00095232
0.000930739
0.000909972
0.000890093
0.000871082
0.000852896
0.000835487
0.000818812
0.000802825
0.000787459
0.000772658
0.00075629
0.000739346
0.000727034
0.000714258
0.000702919
0.000691468
0.00067633
0.000666438
0.000656836
0.000647342
0.000638041
0.000628737
0.000619528
0.000610331
0.000601251
0.000592174
0.000583213
0.000574286
0.000565525
0.000556841
0.000548364
0.000540003
0.000531879
0.00052387
0.000516048
0.000508476
0.000501215
0.00049486
0.000997327
0.000974218
0.000951921
0.00093041
0.000909676
0.000889799
0.000870772
0.000852566
0.000835145
0.000818465
0.000802476
0.000787123
0.00077239
0.000756616
0.000739991
0.000726208
0.000714902
0.000702599
0.000691285
0.000675842
0.000666283
0.000656855
0.000647379
0.000638073
0.000628705
0.000619481
0.000610249
0.000601188
0.000592108
0.000583181
0.000574266
0.000565532
0.000556849
0.000548365
0.000539964
0.00053177
0.000523669
0.00051577
0.000508064
0.000500738
0.000494345
0.000997251
0.000974122
0.000951821
0.000930322
0.000909595
0.000889714
0.000870685
0.000852483
0.000835064
0.000818381
0.000802392
0.000787058
0.000772361
0.000756597
0.000739856
0.000726398
0.000714925
0.000701692
0.000693772
0.000678313
0.000664158
0.000654968
0.000645877
0.000636944
0.000627893
0.000618926