/*--------------------------------*- C++ -*----------------------------------*\
  =========                 |
  \\      /  F ield         | OpenFOAM: The Open Source CFD Toolbox
   \\    /   O peration     | Website:  https://openfoam.org
    \\  /    A nd           | Version:  7
     \\/     M anipulation  |
\*---------------------------------------------------------------------------*/
FoamFile
{
    version     2.0;
    format      ascii;
    class       volScalarField;
    location    "900";
    object      nut;
}
// * * * * * * * * * * * * * * * * * * * * * * * * * * * * * * * * * * * * * //

dimensions      [0 2 -1 0 0 0 0];

internalField   nonuniform List<scalar> 
120313
(
0.00161506
0.00193309
0.00203955
0.00210735
0.00213931
0.00215259
0.00215674
0.0021538
0.00214225
0.00212205
0.00208786
0.00205426
0.00201776
0.00197163
0.00193061
0.00189504
0.00186367
0.00183056
0.00179633
0.00176144
0.00172239
0.00167344
0.00160309
0.00134216
0.00186571
0.00251125
0.00268533
0.00279823
0.00285053
0.0028748
0.00288641
0.00288189
0.00285783
0.00283397
0.00280075
0.00275687
0.00270805
0.00265264
0.00260481
0.00255501
0.00251064
0.00246329
0.00241512
0.00236424
0.00230696
0.00222395
0.00209186
0.00156649
0.00188129
0.00255332
0.00275274
0.00287689
0.0029374
0.00296636
0.00298097
0.00298209
0.00296152
0.00293607
0.00290173
0.002853
0.00280045
0.00274723
0.00269273
0.0026442
0.00259663
0.00254932
0.00249823
0.0024459
0.00238352
0.00229041
0.00213035
0.0015829
0.00188248
0.00256474
0.00277207
0.00290174
0.0029654
0.00299705
0.00301447
0.00301874
0.00300039
0.00297321
0.00293724
0.00288799
0.00283393
0.00278082
0.0027248
0.00267594
0.0026277
0.00257994
0.00252831
0.0024751
0.00241056
0.00231372
0.00214509
0.00158967
0.00188023
0.0025607
0.00276845
0.00289876
0.00296267
0.00299461
0.00301257
0.00301737
0.00299941
0.00297312
0.00293641
0.00288756
0.00283326
0.00278057
0.00272447
0.00267563
0.0026274
0.00257959
0.00252815
0.00247523
0.00241099
0.00231451
0.00214557
0.00159046
0.00187222
0.00254285
0.00274297
0.00286818
0.00292934
0.00295933
0.00297532
0.00297751
0.00295955
0.0029343
0.00289946
0.00285122
0.00279836
0.00274642
0.00269192
0.00264386
0.00259688
0.00254972
0.00249891
0.00244678
0.00238434
0.00229162
0.00212945
0.00158327
0.00185082
0.00249246
0.00266818
0.00278377
0.00283803
0.00286409
0.00287688
0.00287304
0.00285321
0.00283119
0.00279784
0.00275155
0.00270198
0.00265104
0.00260063
0.00255452
0.00250984
0.00246413
0.00241512
0.00236494
0.00230723
0.00222442
0.00208984
0.00156483
0.00159787
0.00192003
0.002031
0.00210478
0.00213786
0.00215305
0.00215882
0.00215533
0.00214411
0.00212398
0.002091
0.00205713
0.00201909
0.00197307
0.00193446
0.00190178
0.00187038
0.00183685
0.00180238
0.00176677
0.00172764
0.00167887
0.00160243
0.00133739
0.00124794
0.00231519
0.00324458
0.00411727
0.00494962
0.00572646
0.00638344
0.00684273
0.00813512
0.00864369
0.00974617
0.0106315
0.0113268
0.0116966
0.0119132
0.012023
0.0120675
0.0120751
0.0120286
0.0120017
0.0119425
0.011855
0.0116883
0.0114905
0.0112592
0.0109869
0.0107009
0.0103989
0.0101147
0.00984474
0.0095519
0.00931128
0.00904113
0.00880937
0.0086733
0.00855912
0.00124148
0.00228455
0.00319829
0.00405096
0.00484859
0.00556904
0.00613806
0.00641945
0.00720516
0.0114435
0.0139209
0.0152502
0.0161026
0.0165348
0.0167355
0.0167926
0.0167718
0.0166809
0.0165252
0.0164323
0.0163499
0.0162032
0.0159479
0.0156597
0.0153471
0.0150109
0.0146645
0.0143107
0.0139633
0.0136183
0.0132438
0.0130659
0.0117661
0.0115205
0.00887598
0.00830085
0.00119038
0.00224601
0.00316288
0.00400848
0.00478773
0.00547222
0.00597974
0.00611786
0.0065107
0.010532
0.0137602
0.0152612
0.0164104
0.0168154
0.0169352
0.0169375
0.0168553
0.0167041
0.0167016
0.0166314
0.0164914
0.0162331
0.0159865
0.0156888
0.0153689
0.0150341
0.0146975
0.0143555
0.0140174
0.013682
0.0133004
0.0131061
0.0111938
0.01076
0.00849347
0.00804711
0.00114184
0.00221793
0.0031364
0.00397493
0.00473655
0.0053872
0.00584113
0.00589353
0.00613945
0.0101059
0.0135886
0.0152554
0.016186
0.0166273
0.0167596
0.0167286
0.0165889
0.0166185
0.016597
0.0164988
0.0163133
0.0160713
0.0157936
0.0154938
0.0151752
0.0148489
0.0145199
0.0141957
0.0138737
0.0135587
0.0131983
0.0129541
0.0109496
0.0104292
0.00829086
0.00788926
0.00116656
0.00222059
0.00312764
0.00395384
0.00469911
0.0053268
0.00575548
0.0057838
0.00599958
0.00995548
0.0134846
0.0151867
0.01606
0.016482
0.0166141
0.0165755
0.0164534
0.0165565
0.0164826
0.016374
0.0161714
0.0159167
0.0156287
0.0153251
0.0150074
0.0146868
0.0143674
0.0140575
0.0137528
0.0134576
0.0131236
0.0128636
0.0108797
0.0103226
0.00822207
0.00783875
0.00118674
0.0022217
0.00312035
0.00394081
0.00468011
0.0053006
0.00572275
0.00574837
0.00596635
0.00993159
0.0134621
0.0151587
0.0160284
0.016445
0.0165706
0.0165238
0.0164253
0.0165282
0.0164442
0.0163328
0.0161242
0.0158633
0.0155686
0.0152612
0.0149392
0.0146265
0.0143175
0.014021
0.0137251
0.0134393
0.0131112
0.0128486
0.0108722
0.0103261
0.00821233
0.00783137
0.00116789
0.00220126
0.00310232
0.00393025
0.00468058
0.00531522
0.00574924
0.0057837
0.00602954
0.0100474
0.0135101
0.0151839
0.0161065
0.0165365
0.0166585
0.0166148
0.016468
0.0165547
0.0165088
0.0164002
0.016194
0.0159334
0.0156461
0.0153395
0.0150237
0.0147003
0.0143846
0.014072
0.0137662
0.0134646
0.0131194
0.0128688
0.010897
0.010441
0.00823438
0.00784792
0.00112562
0.00217198
0.00308052
0.00392401
0.00469947
0.00537159
0.00584651
0.0059221
0.00627438
0.0104705
0.0136682
0.0151698
0.0163592
0.0167316
0.0168277
0.0167967
0.0166749
0.0166177
0.0166326
0.0165357
0.0163182
0.0160689
0.0158148
0.0155124
0.0151948
0.0148611
0.0145297
0.0141932
0.013863
0.0135366
0.013167
0.012957
0.0110787
0.0108258
0.00830976
0.00791882
0.00112836
0.0021589
0.00306358
0.00391679
0.00471987
0.005445
0.00600192
0.00621574
0.00691148
0.0114694
0.013929
0.0151854
0.0163168
0.0166416
0.0167485
0.0167616
0.0166759
0.0165491
0.0164697
0.0164358
0.0162891
0.0160815
0.0158341
0.0155361
0.0152199
0.014873
0.0145254
0.0141704
0.013828
0.0134891
0.0131283
0.012912
0.0116539
0.011589
0.0087644
0.00817973
0.00114692
0.00215347
0.00305695
0.00391804
0.00474369
0.00551225
0.00614817
0.0065133
0.00773268
0.0125447
0.0138599
0.0150293
0.0158597
0.0162478
0.0164397
0.0165003
0.016481
0.0163854
0.0162303
0.0161469
0.0160925
0.0159411
0.0156993
0.0154176
0.0151103
0.0147606
0.0143965
0.0140363
0.0136847
0.0133443
0.0129954
0.0127252
0.0121252
0.0123589
0.00920127
0.00844962
0.00112531
0.00213372
0.00305596
0.00394084
0.00479516
0.00559529
0.00626432
0.00668817
0.00798487
0.00836483
0.00929236
0.0101958
0.0108575
0.0112103
0.0114208
0.0115293
0.0115822
0.0115783
0.0115354
0.0115187
0.0115072
0.0114211
0.0112525
0.0110659
0.0108319
0.010569
0.0102775
0.00998607
0.00970367
0.00943398
0.00917065
0.00892379
0.0086549
0.00848047
0.00847406
0.00846244
0.00100902
0.00209907
0.00306984
0.00399672
0.00490636
0.00579291
0.00659687
0.00726274
0.00862496
0.00909059
0.0101151
0.010982
0.0117108
0.0120781
0.0122963
0.0124011
0.0124516
0.0124376
0.0124355
0.0124491
0.0124554
0.0123721
0.0121892
0.0119842
0.011725
0.011439
0.011131
0.0108244
0.0105215
0.0102309
0.00994354
0.00966498
0.00939843
0.00918539
0.00903382
0.0088561
0.0153478
0.0166596
0.0178269
0.0184309
0.018819
0.0189763
0.0190617
0.0191154
0.0192404
0.0194143
0.0195648
0.019388
0.0193071
0.0190983
0.0188157
0.0185322
0.0181998
0.0178828
0.0175227
0.0171875
0.0168206
0.0164888
0.016093
0.0159072
0.00223231
0.00377449
0.00516398
0.00647693
0.00774904
0.00902121
0.0103322
0.0117297
0.0133726
0.0153442
0.0164883
0.0177338
0.0182767
0.0186044
0.018752
0.0187722
0.0187977
0.0188884
0.0190581
0.0192676
0.0193289
0.0193342
0.0189019
0.0186629
0.018372
0.0180659
0.0177256
0.017386
0.0170309
0.0166832
0.0163403
0.0160095
0.0156811
0.0155328
0.0149865
0.0146031
0.00218232
0.00370844
0.00509638
0.00639563
0.00764586
0.00889582
0.0101864
0.0115505
0.01318
0.0149861
0.0160437
0.0173876
0.0179035
0.0182104
0.0183367
0.0183344
0.0183688
0.0184808
0.018704
0.0189543
0.0190143
0.0188616
0.0186185
0.0183666
0.0180514
0.0177392
0.0173795
0.0170466
0.0166894
0.0163641
0.0160154
0.0157607
0.0153855
0.0151075
0.0148365
0.0145076
0.00209906
0.0036306
0.00501662
0.00630429
0.00753306
0.00875213
0.00999565
0.0112814
0.0127677
0.0144565
0.0156001
0.0168744
0.0174752
0.0178301
0.0179612
0.0180197
0.0181385
0.0184335
0.018701
0.0187882
0.0187104
0.01855
0.0182806
0.0180039
0.0176804
0.0173627
0.0170158
0.0166916
0.0163509
0.0160515
0.0157177
0.0155238
0.0151231
0.0147835
0.0145254
0.0142121
0.0020174
0.00357128
0.00495115
0.00622616
0.00743461
0.00861993
0.00981286
0.0110118
0.0123854
0.0141133
0.0153183
0.0165283
0.0171255
0.0175268
0.0176991
0.0178185
0.018077
0.0184548
0.0185685
0.0185474
0.0184166
0.0182249
0.0179644
0.0176788
0.0173705
0.0170534
0.0167266
0.016412
0.0160965
0.0158132
0.0154978
0.0153281
0.0149415
0.014598
0.0143487
0.0140452
0.00202495
0.00355396
0.00491421
0.0061731
0.00736495
0.008527
0.00968963
0.010842
0.0121763
0.0139386
0.0151631
0.0163262
0.0169251
0.0173483
0.0175566
0.0177042
0.0180237
0.0184367
0.0183862
0.0183655
0.0182193
0.0179939
0.0177229
0.0174301
0.0171169
0.0168151
0.0164974
0.0162132
0.0159274
0.0156778
0.0153974
0.0152499
0.0148849
0.0145459
0.0143057
0.0140102
0.00204344
0.00354522
0.00489181
0.00614109
0.00732593
0.00847977
0.00963367
0.0107738
0.012108
0.0138992
0.0151236
0.0162773
0.016876
0.0173017
0.0175203
0.0176825
0.0180141
0.0184053
0.0183334
0.0183128
0.0181581
0.0179236
0.0176363
0.0173403
0.0170088
0.0167466
0.0164476
0.0162005
0.0159186
0.0157002
0.0154205
0.0152724
0.0148964
0.0145491
0.0143056
0.0140137
0.00201985
0.0035176
0.00486686
0.0061219
0.00731532
0.00848001
0.00964923
0.0108085
0.0121793
0.0140106
0.0152093
0.0164021
0.0169981
0.0174051
0.0175875
0.0177237
0.0180286
0.0184235
0.0184449
0.0184143
0.0182705
0.018039
0.0177669
0.0174689
0.0171658
0.016855
0.0165537
0.0162569
0.0159718
0.0157056
0.0154094
0.0152423
0.0148594
0.0145224
0.0142828
0.0139842
0.00197768
0.00348745
0.00484782
0.00612071
0.00733778
0.00853528
0.00975046
0.0109755
0.0124464
0.014318
0.0154461
0.0167188
0.0173085
0.0176559
0.0177999
0.0178912
0.018078
0.0184492
0.0186367
0.0186311
0.0185111
0.0183202
0.0180685
0.0177736
0.0174666
0.0171377
0.0168149
0.0164895
0.0161677
0.0158709
0.0155422
0.0153526
0.0149537
0.0146315
0.014392
0.0140653
0.00198719
0.00348287
0.0048475
0.00613854
0.0073873
0.00863399
0.009925
0.0112697
0.0129278
0.0148278
0.0158499
0.0171867
0.0177158
0.0180052
0.0181374
0.0181625
0.0182399
0.0184452
0.018733
0.0189001
0.018834
0.0186934
0.0184303
0.0181503
0.0178182
0.0174848
0.0171246
0.0167843
0.0164329
0.0161192
0.0157778
0.0155516
0.0151688
0.014869
0.0146262
0.0142698
0.00202194
0.00348756
0.00485861
0.00616901
0.00744867
0.00874185
0.0101027
0.0115655
0.0133854
0.0152944
0.0162397
0.0175631
0.0180483
0.0183339
0.018482
0.0184853
0.0185114
0.01862
0.0188217
0.0191019
0.0191901
0.0190306
0.018788
0.0185471
0.0182163
0.0178785
0.0174895
0.0171352
0.016757
0.0164219
0.0160616
0.0157763
0.0153972
0.0151411
0.0148803
0.0145003
0.00200048
0.00346761
0.00485986
0.00619868
0.00750935
0.00883203
0.0102212
0.0117089
0.0134678
0.0153804
0.0164218
0.0177189
0.0182501
0.0185755
0.01876
0.0188033
0.0188593
0.0189881
0.0191818
0.019473
0.0194984
0.0193721
0.019024
0.0188038
0.0184606
0.0181213
0.0177206
0.0173599
0.0169671
0.0166227
0.0162532
0.0159433
0.0155421
0.0154054
0.0148504
0.0144572
0.0018985
0.00342463
0.00485102
0.00622213
0.00756425
0.00890957
0.0102998
0.0117492
0.0134189
0.0152342
0.0162649
0.0175703
0.0181085
0.0184249
0.0185893
0.0186845
0.0187944
0.0190242
0.0192686
0.019574
0.019448
0.0193198
0.0190461
0.0187761
0.0184097
0.0180644
0.0176654
0.0173055
0.016913
0.0165723
0.0162025
0.0158953
0.0154845
0.0153881
0.0148839
0.0144836
0.0112733
0.0126534
0.0146745
0.0152102
0.0155411
0.0156584
0.0156587
0.0155732
0.0154416
0.0152924
0.0151927
0.0151492
0.0148849
0.0148878
0.0144528
0.0144692
0.0141147
0.0141422
0.0137467
0.0138211
0.0133741
0.0134823
0.0129576
0.0131941
0.00242171
0.00347745
0.00440289
0.00543607
0.00645036
0.00748904
0.00860724
0.0098745
0.0107591
0.0113275
0.0126271
0.0148617
0.0154754
0.0158066
0.0159043
0.0159104
0.0158257
0.0156898
0.0155331
0.0153874
0.015272
0.0151741
0.0150298
0.0149073
0.0146282
0.0146254
0.0142296
0.0142361
0.0138673
0.0138026
0.0135714
0.0134035
0.0131674
0.0133061
0.0134445
0.0134746
0.00236656
0.00339447
0.00430388
0.00528844
0.00629142
0.00732638
0.00847255
0.00978461
0.010764
0.0112001
0.012365
0.0146329
0.0151689
0.0154889
0.015625
0.015645
0.0155679
0.0154439
0.0153193
0.015202
0.0150927
0.0150306
0.0147741
0.0147815
0.0142879
0.0143446
0.0137812
0.0138985
0.0134114
0.0135257
0.0131438
0.013158
0.0129791
0.0128707
0.0126432
0.0125617
0.00229041
0.00332408
0.00421687
0.00518271
0.00616767
0.00717641
0.00831717
0.00964202
0.0106426
0.0108994
0.0122866
0.0140724
0.0146238
0.0149262
0.0150698
0.0150744
0.0149998
0.0149311
0.0148519
0.0148326
0.0146403
0.0146661
0.0141957
0.0141901
0.013797
0.0137698
0.0133771
0.0133878
0.0129972
0.013083
0.0127286
0.0128897
0.0125771
0.0125803
0.0122607
0.0120723
0.00221728
0.00327522
0.00416353
0.00511779
0.00607822
0.00706326
0.00817892
0.00948592
0.0104813
0.0106436
0.0121909
0.0136267
0.0141755
0.0144513
0.0145538
0.0145362
0.0144726
0.0144277
0.0143552
0.0143706
0.0141155
0.0140296
0.0138257
0.0136629
0.0134805
0.013315
0.0131305
0.0129952
0.0128174
0.0127587
0.0124839
0.0126376
0.0123582
0.0124616
0.0119142
0.0116709
0.00221253
0.0032434
0.00411471
0.00505912
0.00600853
0.00698228
0.00808238
0.00937306
0.0103641
0.0104928
0.0120988
0.0133918
0.0139305
0.0141672
0.0142425
0.0141981
0.0141121
0.0141296
0.0140448
0.0140015
0.0137795
0.0135762
0.0133972
0.0132334
0.0130272
0.0129658
0.0127467
0.0127536
0.0126594
0.0126221
0.012438
0.0125764
0.01235
0.0124848
0.01185
0.0115787
0.00222003
0.00322049
0.00407395
0.0050025
0.00595954
0.00692198
0.00801362
0.0093003
0.0102944
0.010439
0.0120644
0.0133285
0.0138637
0.0140938
0.0141637
0.014112
0.014031
0.0140481
0.0139444
0.0138878
0.0136488
0.0134379
0.0131872
0.0130685
0.0127571
0.0130153
0.0127661
0.0129513
0.0127216
0.0129341
0.012659
0.0127787
0.012482
0.0125721
0.0118852
0.0115891
0.00220037
0.00319783
0.0040476
0.00497498
0.00593561
0.0068966
0.00799157
0.00928542
0.0102959
0.0105204
0.0120941
0.0134688
0.0140089
0.0142651
0.014349
0.0143083
0.0142161
0.0142038
0.0141297
0.0140878
0.0138721
0.0136439
0.0134538
0.0132839
0.0131265
0.0130112
0.012879
0.0127768
0.0126903
0.0126235
0.0124219
0.0125368
0.0122742
0.0123943
0.0117467
0.011472
0.00217018
0.00318378
0.00404445
0.00498671
0.00595209
0.00692433
0.00803854
0.00935673
0.010401
0.0107578
0.0121484
0.0138811
0.0143908
0.014669
0.0147755
0.0147546
0.0146743
0.014573
0.014523
0.0145076
0.0142479
0.0141767
0.0139546
0.0137624
0.0135768
0.0133895
0.01322
0.0130639
0.012841
0.0128065
0.0124885
0.0126408
0.0123143
0.0124206
0.0117816
0.0115198
0.00218379
0.00318548
0.00405702
0.00501692
0.00599807
0.00699717
0.00814139
0.00949907
0.0105799
0.0110508
0.0122695
0.0144202
0.0148626
0.0151443
0.0152849
0.0152866
0.0152013
0.0151055
0.0150056
0.0149402
0.0147694
0.014797
0.0143057
0.0143061
0.0138382
0.0138307
0.0133774
0.0134102
0.0129868
0.0130878
0.0127061
0.0128756
0.0124785
0.012543
0.0119996
0.0117922
0.00221222
0.00317997
0.00405764
0.00503631
0.00603579
0.00706458
0.00824337
0.00962334
0.0107001
0.0111917
0.0123966
0.0147273
0.0151967
0.0154879
0.0156339
0.0156658
0.0155925
0.0154724
0.0153587
0.0152457
0.0151436
0.0150947
0.0148206
0.0148315
0.0142691
0.0142902
0.013683
0.0137848
0.0132798
0.0134202
0.0129754
0.0130731
0.0126832
0.0126717
0.0123612
0.0121757
0.00219146
0.00316281
0.00406202
0.00507245
0.0060862
0.00712748
0.00831163
0.00966205
0.0106532
0.011167
0.0123974
0.0147789
0.0152844
0.0155989
0.0157637
0.0158109
0.0157514
0.0156352
0.0155131
0.0154036
0.0153212
0.0152777
0.0149851
0.0150048
0.0143955
0.0144418
0.0138376
0.0139475
0.0134252
0.0135744
0.013084
0.0131751
0.0127206
0.0127485
0.012873
0.0130414
0.00212049
0.00318184
0.0041078
0.00514349
0.00617828
0.00720756
0.00836521
0.00965409
0.0105243
0.0110369
0.0122561
0.0146545
0.0151944
0.0155286
0.0157148
0.0157692
0.0157169
0.0156089
0.0154917
0.0154138
0.0153075
0.0152998
0.0148759
0.0148891
0.0142829
0.0143287
0.013786
0.0138708
0.01336
0.0135131
0.0130106
0.013129
0.0126287
0.0127329
0.0129186
0.0130982
0.00397283
0.00400575
0.00414666
0.00418987
0.0043116
0.00445562
0.00456454
0.0046381
0.00469185
0.00472303
0.00475581
0.00479525
0.00483934
0.00491615
0.00498854
0.00509054
0.00519179
0.00532461
0.00545002
0.00558978
0.00572065
0.00590807
0.00601795
0.00618355
0.00143668
0.0018898
0.00249373
0.00308858
0.00361075
0.00420244
0.00484822
0.00548108
0.00588644
0.00401341
0.00404544
0.00418742
0.00421693
0.00429424
0.00442442
0.00453
0.00459997
0.00465593
0.00468679
0.00472657
0.00474741
0.00479451
0.00486542
0.00495532
0.00505687
0.00517138
0.00530118
0.00542831
0.00557662
0.00569958
0.00588514
0.00607475
0.00619705
0.00633957
0.00773241
0.0084387
0.00146958
0.001931
0.0025861
0.00313567
0.00364123
0.00421496
0.00489347
0.00548232
0.00590136
0.00390584
0.00391374
0.00400135
0.00400706
0.00411537
0.00423936
0.00434344
0.0044139
0.00447604
0.00450401
0.00450706
0.00450697
0.00453714
0.00459553
0.00467896
0.00479039
0.0049089
0.00502467
0.00516052
0.00528841
0.00544831
0.0056182
0.00584711
0.00603214
0.0062271
0.00627526
0.00638767
0.00141991
0.00184684
0.00252287
0.00307136
0.00356567
0.00413033
0.00478625
0.00537109
0.00577783
0.00377309
0.00377849
0.00378747
0.00377992
0.00388705
0.00400312
0.00407624
0.00416058
0.00417167
0.00414465
0.00412614
0.00413375
0.00414061
0.00417652
0.00422725
0.004314
0.00442329
0.00456905
0.00470629
0.00487364
0.00504168
0.0052249
0.00545668
0.00564665
0.00585115
0.00587326
0.00593
0.00136199
0.00180524
0.00243725
0.00300577
0.00351456
0.00406449
0.0047074
0.00527645
0.00568497
0.00371255
0.00371499
0.00366583
0.00362952
0.003722
0.00379202
0.0038759
0.00389037
0.00388894
0.00389909
0.00389912
0.00390648
0.00391789
0.00392816
0.00394516
0.0039968
0.00408131
0.00419982
0.0043487
0.00451814
0.00470143
0.00489293
0.00514107
0.00533666
0.00552177
0.00553078
0.00553977
0.00132825
0.00178576
0.00242292
0.00300992
0.00351354
0.00406564
0.00470688
0.00526588
0.00567305
0.00369549
0.00369062
0.00360973
0.00355682
0.00362632
0.00368136
0.00374002
0.00374948
0.00375618
0.00376841
0.00377111
0.00377018
0.00376539
0.00376407
0.00377367
0.00378796
0.00383926
0.00393539
0.00406671
0.00425411
0.00446008
0.00467136
0.00495591
0.00517788
0.00537828
0.00536899
0.00538887
0.00132859
0.00180386
0.00244883
0.0030084
0.00350871
0.00405238
0.00467493
0.00523078
0.00561041
0.00365949
0.00366422
0.00356647
0.0035204
0.00358201
0.00364028
0.00368668
0.00370387
0.00371334
0.00372485
0.00372675
0.00371776
0.00371042
0.00370103
0.00369544
0.00370637
0.00374943
0.00386226
0.00401561
0.0042097
0.00443193
0.00465595
0.00494406
0.00515755
0.0053368
0.00532005
0.00530491
0.00130883
0.00176664
0.00245549
0.00300941
0.00349858
0.00403835
0.00464999
0.00520036
0.00557174
0.00364296
0.00365225
0.00357762
0.00354666
0.00362621
0.00369331
0.00375649
0.00377202
0.00377647
0.00378645
0.00378555
0.00378868
0.00377787
0.00377352
0.00377963
0.00379457
0.00384631
0.00394635
0.00408353
0.00426313
0.00446445
0.0046661
0.00492257
0.00510526
0.00526588
0.00524239
0.00523797
0.00130759
0.00174247
0.00240669
0.00298876
0.00349199
0.00402254
0.00463736
0.00518896
0.00560046
0.00369121
0.00369682
0.00368092
0.00366458
0.00376627
0.00385381
0.00392749
0.00396481
0.00394252
0.00393984
0.00393067
0.00393733
0.0039308
0.00394551
0.00394767
0.00398948
0.0040646
0.00417694
0.0043266
0.00449813
0.00467075
0.00486224
0.00508401
0.00524463
0.00539678
0.00537783
0.00539811
0.00133211
0.00178861
0.00242881
0.0029737
0.0034886
0.00402506
0.00464745
0.00521942
0.00560392
0.00372199
0.00374255
0.00379699
0.00381094
0.00393236
0.00405067
0.00413018
0.00420082
0.00421741
0.00417868
0.00413779
0.00413112
0.00412795
0.0041455
0.00417496
0.00424062
0.00433001
0.00446042
0.00460339
0.00475352
0.00491957
0.00509415
0.00528909
0.00543571
0.00559652
0.00560067
0.00568015
0.00135025
0.00183374
0.00246822
0.00301002
0.00351492
0.00405323
0.00467377
0.00524805
0.00563092
0.00373517
0.00377803
0.0038779
0.00391188
0.00405616
0.00418219
0.00428988
0.0043542
0.0044126
0.00441428
0.00439099
0.00436483
0.00437053
0.00440482
0.00447228
0.00455693
0.00467134
0.00478757
0.00492244
0.00505463
0.0052128
0.00534772
0.00553817
0.00568238
0.00584207
0.00591024
0.00601205
0.00137315
0.00181484
0.00245184
0.00300126
0.0035053
0.00404018
0.00468523
0.00527277
0.00564401
0.00372902
0.0037731
0.00388675
0.00393953
0.00410176
0.00424387
0.00436891
0.0044477
0.00451649
0.00454346
0.00454907
0.00453524
0.00456407
0.00460607
0.00469092
0.00478461
0.00489731
0.00500245
0.0051354
0.00525938
0.00540644
0.00553025
0.0057375
0.00584906
0.00595569
0.00707724
0.00780796
0.00117724
0.00163451
0.00222129
0.00284119
0.00340414
0.00398754
0.00461001
0.00523822
0.00561594
0.00369558
0.00372963
0.0038367
0.00390255
0.00408752
0.00424412
0.00438326
0.00447153
0.00455094
0.00458156
0.00459812
0.00459274
0.00462842
0.00467485
0.00475423
0.00484109
0.0049529
0.00505727
0.00518947
0.00531005
0.0054535
0.00557386
0.00577483
0.00589442
0.00599453
0.00716706
0.00789726
9.06738e-05
0.00012758
0.000166075
0.000202735
0.000239243
0.000276289
0.000313364
0.000349907
0.000385862
0.000421286
0.00045667
0.000493177
0.000530226
0.000570008
0.000612427
0.000658456
0.000708943
0.000764276
0.000824196
0.000889787
0.000959327
0.00103108
0.00111046
0.00108024
8.97901e-06
9.14296e-06
9.1554e-06
9.1996e-06
9.1653e-06
9.15908e-06
7.90477e-06
4.78998e-06
3.70752e-06
4.16298e-06
7.13636e-06
1.78507e-05
4.57712e-05
7.03016e-05
7.94266e-05
0.000117737
0.00015713
0.000194421
0.000230625
0.000267018
0.000303358
0.000339105
0.000374366
0.000408913
0.000443997
0.000478942
0.000515503
0.000553806
0.000595488
0.000640466
0.00069035
0.000744701
0.000804092
0.000868722
0.000938015
0.00100899
0.00108821
0.00116853
0.00114653
0.00168482
0.00205196
8.98537e-06
9.1581e-06
9.1756e-06
9.22777e-06
9.16145e-06
9.1373e-06
8.9234e-06
6.58877e-06
4.54094e-06
4.2195e-06
5.58115e-06
1.25782e-05
3.45396e-05
6.11245e-05
7.35179e-05
0.000109308
0.000144923
0.000178284
0.000211469
0.000244999
0.000278557
0.000311829
0.000344796
0.000377276
0.000408923
0.000440923
0.000473089
0.000507256
0.000544064
0.000584746
0.00062974
0.000678951
0.00073306
0.000792093
0.000857252
0.000929334
0.00101133
0.00109059
0.00118147
0.0012423
0.00132992
8.98667e-06
9.1585e-06
9.19148e-06
9.22441e-06
9.16128e-06
9.1301e-06
9.01438e-06
8.00343e-06
6.53082e-06
4.99456e-06
5.15868e-06
1.05181e-05
2.65279e-05
5.46902e-05
6.77842e-05
0.000101521
0.000133647
0.000163469
0.000193282
0.000223367
0.000253002
0.00028276
0.000311258
0.000338129
0.000363969
0.000390158
0.000416207
0.000443553
0.000472672
0.000504924
0.000540302
0.000581559
0.000627342
0.000679076
0.000737451
0.000802935
0.000877894
0.00095686
0.00103086
0.00108453
0.00117612
9.05003e-06
9.20124e-06
9.22795e-06
9.23354e-06
9.16453e-06
9.1187e-06
9.07682e-06
8.14826e-06
6.59671e-06
5.11411e-06
4.98596e-06
9.37948e-06
2.33158e-05
5.15041e-05
6.64585e-05
9.96921e-05
0.000129875
0.000157334
0.000184598
0.000211173
0.000237653
0.000262882
0.000286764
0.000309984
0.000332804
0.00035594
0.00037895
0.00040267
0.000427203
0.000453878
0.000483384
0.000516613
0.000555027
0.000599155
0.000649666
0.000706319
0.000770374
0.000836146
0.000900954
0.000952286
0.00102051
9.04787e-06
9.17679e-06
9.17901e-06
9.19274e-06
9.17474e-06
9.11832e-06
9.04044e-06
7.9356e-06
6.31978e-06
5.00368e-06
5.17276e-06
1.04743e-05
2.6846e-05
5.36549e-05
6.67777e-05
9.96684e-05
0.000128942
0.000155201
0.000180833
0.00020562
0.000229793
0.000252679
0.000274515
0.000295799
0.000316724
0.000337848
0.000358492
0.000379558
0.000401358
0.000424219
0.000449266
0.000477458
0.000510135
0.000548666
0.00059403
0.000645757
0.000704643
0.000766173
0.00082861
0.000882897
0.00094058
9.04884e-06
9.16778e-06
9.20017e-06
9.20425e-06
9.16974e-06
9.11452e-06
9.05407e-06
8.05162e-06
6.7281e-06
5.14815e-06
5.07097e-06
9.67687e-06
2.37361e-05
5.19159e-05
6.56736e-05
9.77887e-05
0.000126438
0.000152209
0.000177181
0.000201404
0.000224759
0.000247023
0.000268291
0.000288952
0.00030956
0.000329564
0.000349535
0.00036939
0.000389942
0.00041124
0.000434749
0.000461651
0.000493665
0.00053154
0.000576335
0.000627408
0.000685449
0.000745991
0.000806955
0.000856556
0.000917313
9.04988e-06
9.18265e-06
9.22682e-06
9.2024e-06
9.17751e-06
9.1108e-06
9.02565e-06
8.1854e-06
6.93284e-06
5.26302e-06
5.01505e-06
9.33298e-06
2.27718e-05
4.95764e-05
6.38218e-05
9.58998e-05
0.000124653
0.000150835
0.000176564
0.000201683
0.000226238
0.000249587
0.000271757
0.0002933
0.000314299
0.000335534
0.000356137
0.000377061
0.000398596
0.000421321
0.000446158
0.000474418
0.000507129
0.00054551
0.000590211
0.000640565
0.000697288
0.000755573
0.000813884
0.0008635
0.000917339
8.98551e-06
9.16318e-06
9.18667e-06
9.20469e-06
9.16599e-06
9.11891e-06
9.04817e-06
8.38773e-06
7.28026e-06
5.44305e-06
4.98325e-06
9.10993e-06
2.19369e-05
4.89867e-05
6.43496e-05
9.72531e-05
0.00012765
0.000155619
0.000183626
0.000210909
0.000237989
0.000264147
0.00028832
0.00031146
0.000334118
0.000356422
0.00037882
0.000401636
0.000425064
0.0004504
0.000478436
0.000510251
0.000547218
0.000589592
0.000637653
0.000691101
0.000750569
0.000811519
0.00087071
0.00092771
0.000985228
9.05154e-06
9.14319e-06
9.20276e-06
9.18993e-06
9.18494e-06
9.18888e-06
9.08589e-06
8.26445e-06
6.75218e-06
5.23918e-06
4.93448e-06
8.92659e-06
2.13355e-05
4.76331e-05
6.39385e-05
9.75656e-05
0.000129923
0.000160284
0.000190795
0.000221512
0.000251768
0.000281671
0.000310243
0.000336643
0.000361602
0.000385905
0.000410511
0.00043544
0.000461736
0.00049055
0.000522607
0.000559124
0.000600619
0.000647176
0.000699487
0.000756981
0.000820259
0.000885863
0.000945898
0.00102262
0.00108669
9.04826e-06
9.19016e-06
9.21114e-06
9.20728e-06
9.15306e-06
9.12567e-06
9.1016e-06
8.44295e-06
6.83106e-06
5.13643e-06
4.97002e-06
9.19245e-06
2.1896e-05
4.89062e-05
6.56656e-05
9.94811e-05
0.000133316
0.000165423
0.000198028
0.000230908
0.000263815
0.000296141
0.000327926
0.000358373
0.000387161
0.000415463
0.000443227
0.00047225
0.00050341
0.000537688
0.000576354
0.000618954
0.000666347
0.000718629
0.000776567
0.000838851
0.000906831
0.000977733
0.00103957
0.00112257
0.00119503
8.98789e-06
9.16203e-06
9.17883e-06
9.23398e-06
9.15833e-06
9.13301e-06
9.00276e-06
7.62503e-06
5.78366e-06
4.86444e-06
4.93318e-06
9.3823e-06
2.29561e-05
5.11179e-05
6.62301e-05
0.000100524
0.000134525
0.000167165
0.000200756
0.000234965
0.000269672
0.000304048
0.000338125
0.000371285
0.000403779
0.000435124
0.000467334
0.000500261
0.000536191
0.000575288
0.000618842
0.000665963
0.000718359
0.00077518
0.000837915
0.000904559
0.000978014
0.00105414
0.00102155
0.00141658
0.00174218
9.04404e-06
9.1795e-06
9.21542e-06
9.18124e-06
9.17178e-06
9.15119e-06
8.48067e-06
5.70775e-06
4.36266e-06
4.16731e-06
4.86318e-06
9.75038e-06
2.44633e-05
4.94637e-05
6.48167e-05
9.79486e-05
0.000131357
0.000163824
0.0001978
0.000232747
0.000268405
0.000303956
0.000339573
0.000374269
0.0004085
0.00044168
0.000475936
0.000510835
0.000548646
0.000589622
0.000634578
0.000683303
0.000737438
0.000795825
0.000860197
0.000928459
0.00100132
0.00108314
0.00102881
0.00152317
0.00189776
8.53658e-06
8.27165e-06
7.99207e-06
7.76858e-06
7.62084e-06
7.56909e-06
7.62012e-06
7.77399e-06
8.02852e-06
8.38177e-06
8.83409e-06
9.39046e-06
1.00565e-05
1.08486e-05
1.17845e-05
1.28906e-05
1.41976e-05
1.57468e-05
1.75752e-05
1.97406e-05
2.22781e-05
2.52177e-05
2.85433e-05
2.95197e-05
8.99764e-06
8.98104e-06
8.96459e-06
8.94862e-06
8.9333e-06
8.9189e-06
8.90466e-06
8.89009e-06
8.8762e-06
8.86298e-06
8.85003e-06
8.83715e-06
8.82556e-06
8.82951e-06
8.61538e-06
8.36628e-06
8.08868e-06
7.86259e-06
7.7005e-06
7.62779e-06
7.65459e-06
7.78173e-06
8.00753e-06
8.32911e-06
8.74839e-06
9.26596e-06
9.89091e-06
1.06334e-05
1.15157e-05
1.25578e-05
1.37969e-05
1.52637e-05
1.70062e-05
1.90654e-05
2.15009e-05
2.43529e-05
2.7734e-05
3.14084e-05
3.09398e-05
5.33609e-05
6.25941e-05
9.0002e-06
8.98407e-06
8.96783e-06
8.95173e-06
8.93611e-06
8.92139e-06
8.90744e-06
8.8944e-06
8.88207e-06
8.87019e-06
8.85911e-06
8.8486e-06
8.83889e-06
8.78764e-06
8.64496e-06
8.42138e-06
8.17697e-06
7.96222e-06
7.80522e-06
7.71773e-06
7.71438e-06
7.79807e-06
7.96884e-06
8.22597e-06
8.56697e-06
8.99471e-06
9.51063e-06
1.01272e-05
1.08569e-05
1.17244e-05
1.27536e-05
1.39788e-05
1.54331e-05
1.71642e-05
1.92313e-05
2.17316e-05
2.48179e-05
2.85725e-05
3.24219e-05
3.65087e-05
3.99176e-05
9.00291e-06
8.98715e-06
8.97102e-06
8.95502e-06
8.93951e-06
8.92488e-06
8.91099e-06
8.89786e-06
8.88561e-06
8.87408e-06
8.86336e-06
8.85301e-06
8.84298e-06
8.78207e-06
8.66151e-06
8.4597e-06
8.24191e-06
8.03967e-06
7.88677e-06
7.79112e-06
7.76596e-06
7.81415e-06
7.934e-06
8.1223e-06
8.3754e-06
8.6946e-06
9.07983e-06
9.53831e-06
1.00779e-05
1.07149e-05
1.14653e-05
1.2361e-05
1.34305e-05
1.47179e-05
1.62794e-05
1.81904e-05
2.05563e-05
2.34059e-05
2.64536e-05
2.96802e-05
3.29443e-05
9.00392e-06
8.98836e-06
8.9724e-06
8.9565e-06
8.94113e-06
8.92658e-06
8.91262e-06
8.89928e-06
8.88682e-06
8.87545e-06
8.86462e-06
8.85426e-06
8.84385e-06
8.78085e-06
8.66385e-06
8.46431e-06
8.25232e-06
8.05579e-06
7.914e-06
7.8173e-06
7.77984e-06
7.80785e-06
7.89731e-06
8.04495e-06
8.24723e-06
8.50478e-06
8.81673e-06
9.18786e-06
9.62166e-06
1.01291e-05
1.07219e-05
1.14204e-05
1.22492e-05
1.32431e-05
1.44402e-05
1.58842e-05
1.76212e-05
1.96386e-05
2.18598e-05
2.43304e-05
2.68458e-05
9.00398e-06
8.98866e-06
8.97293e-06
8.95716e-06
8.94181e-06
8.92725e-06
8.91342e-06
8.90029e-06
8.88784e-06
8.87615e-06
8.86495e-06
8.85424e-06
8.84398e-06
8.78106e-06
8.66252e-06
8.46235e-06
8.2515e-06
8.05892e-06
7.91255e-06
7.81821e-06
7.78343e-06
7.8068e-06
7.88456e-06
8.01392e-06