/*--------------------------------*- C++ -*----------------------------------*\
  =========                 |
  \\      /  F ield         | OpenFOAM: The Open Source CFD Toolbox
   \\    /   O peration     | Website:  https://openfoam.org
    \\  /    A nd           | Version:  7
     \\/     M anipulation  |
\*---------------------------------------------------------------------------*/
FoamFile
{
    version     2.0;
    format      ascii;
    class       volScalarField;
    location    "900";
    object      p;
}
// * * * * * * * * * * * * * * * * * * * * * * * * * * * * * * * * * * * * * //

dimensions      [0 2 -2 0 0 0 0];

internalField   nonuniform List<scalar> 
120313
(
-20.5453
-19.8609
-18.8354
-17.5524
-16.1127
-14.6028
-13.0776
-11.5674
-10.118
-8.77189
-7.48732
-6.31651
-5.28461
-4.3806
-3.59968
-2.9243
-2.35489
-1.87326
-1.4689
-1.13573
-0.85098
-0.62487
-0.416336
-0.235228
-20.5185
-19.8814
-18.8636
-17.5849
-16.1366
-14.6163
-13.1118
-11.6502
-10.179
-8.78479
-7.50385
-6.33417
-5.30395
-4.3996
-3.61081
-2.93625
-2.36856
-1.88675
-1.48116
-1.14806
-0.862878
-0.636077
-0.420094
-0.247776
-20.5017
-19.8648
-18.8465
-17.57
-16.1215
-14.598
-13.095
-11.6495
-10.1773
-8.76901
-7.48686
-6.32012
-5.2934
-4.3905
-3.59995
-2.92559
-2.36152
-1.87934
-1.47375
-1.14083
-0.856507
-0.627943
-0.412405
-0.253217
-20.4956
-19.8627
-18.8455
-17.569
-16.1202
-14.5967
-13.098
-11.649
-10.1703
-8.75857
-7.47558
-6.30949
-5.28394
-4.38156
-3.59155
-2.91778
-2.35638
-1.87439
-1.46917
-1.13689
-0.853248
-0.624829
-0.410274
-0.252681
-20.4934
-19.8617
-18.8444
-17.5682
-16.119
-14.5953
-13.0983
-11.6469
-10.1667
-8.75427
-7.47069
-6.30473
-5.27927
-4.3769
-3.587
-2.9137
-2.35324
-1.87158
-1.46669
-1.13475
-0.851505
-0.623278
-0.408937
-0.252429
-20.4964
-19.8603
-18.8447
-17.5684
-16.1186
-14.594
-13.0954
-11.6433
-10.1672
-8.75702
-7.47224
-6.306
-5.27973
-4.37688
-3.58651
-2.91293
-2.35107
-1.86951
-1.46496
-1.13336
-0.850667
-0.623125
-0.408708
-0.251761
-20.5137
-19.8752
-18.862
-17.5833
-16.1321
-14.6098
-13.1092
-11.639
-10.1642
-8.76617
-7.47987
-6.31199
-5.28255
-4.3785
-3.58957
-2.91604
-2.35118
-1.87052
-1.46694
-1.13609
-0.853955
-0.628765
-0.415047
-0.246928
-20.5377
-19.8547
-18.8329
-17.5493
-16.1043
-14.5908
-13.0617
-11.5473
-10.1038
-8.74419
-7.45539
-6.28684
-5.25656
-4.35565
-3.57363
-2.89792
-2.32868
-1.84881
-1.44745
-1.11805
-0.838483
-0.614755
-0.408121
-0.232223
-19.2907
-19.5415
-19.8217
-20.1107
-20.3995
-20.6651
-20.8799
-21.0714
-20.9952
-20.7597
-20.2036
-19.2758
-18.0688
-16.685
-15.2104
-13.7036
-12.1994
-10.7354
-9.33551
-8.02835
-6.82364
-5.72721
-4.76778
-3.94703
-3.224
-2.62964
-2.12371
-1.69612
-1.33904
-1.04133
-0.786593
-0.570739
-0.377579
-0.220884
-0.0811065
-0.00735069
-19.3006
-19.549
-19.8272
-20.1149
-20.4025
-20.6664
-20.8785
-21.0866
-21.018
-20.6793
-20.137
-19.0905
-17.83
-16.4195
-14.9399
-13.4385
-11.947
-10.493
-9.1117
-7.8105
-6.61821
-5.56555
-4.63646
-3.83538
-3.14958
-2.57099
-2.08484
-1.66985
-1.32465
-1.02733
-0.791399
-0.566486
-0.400431
-0.289621
-0.0189571
-0.0728987
-19.3122
-19.5549
-19.8323
-20.1193
-20.4064
-20.6696
-20.8799
-21.0835
-21.0223
-20.693
-20.2005
-19.1353
-17.8683
-16.457
-14.9794
-13.4853
-11.9989
-10.5233
-9.11838
-7.82237
-6.63726
-5.58737
-4.66597
-3.8615
-3.17121
-2.59477
-2.1074
-1.69066
-1.34386
-1.04461
-0.805895
-0.573588
-0.428088
-0.311567
-0.0206578
-0.101908
-19.32
-19.5619
-19.8384
-20.1241
-20.4102
-20.6722
-20.8793
-21.071
-20.9927
-20.6805
-20.2249
-19.149
-17.879
-16.465
-14.987
-13.4957
-12.0086
-10.5226
-9.10476
-7.81133
-6.62915
-5.58281
-4.66342
-3.85529
-3.16638
-2.593
-2.10652
-1.68955
-1.3435
-1.04292
-0.806602
-0.572969
-0.445468
-0.327164
-0.0210687
-0.110884
-19.3326
-19.5737
-19.8462
-20.1288
-20.4127
-20.6723
-20.8759
-21.0639
-20.9805
-20.6772
-20.2353
-19.1558
-17.8851
-16.4706
-14.9929
-13.5022
-12.0128
-10.5186
-9.09667
-7.80394
-6.62211
-5.57764
-4.65919
-3.84966
-3.16242
-2.59125
-2.10547
-1.68894
-1.34358
-1.04309
-0.807604
-0.574731
-0.457964
-0.32718
-0.0170786
-0.113176
-19.3439
-19.5837
-19.852
-20.1313
-20.4128
-20.6704
-20.8718
-21.0579
-20.9728
-20.6725
-20.2341
-19.1555
-17.885
-16.4707
-14.9931
-13.502
-12.0111
-10.5147
-9.09257
-7.79901
-6.61738
-5.57313
-4.65479
-3.84474
-3.15845
-2.58873
-2.10306
-1.68662
-1.34148
-1.04135
-0.806323
-0.573909
-0.458162
-0.328111
-0.0171791
-0.115677
-19.3558
-19.5892
-19.854
-20.1308
-20.4108
-20.6674
-20.868
-21.0541
-20.9737
-20.668
-20.2192
-19.1476
-17.8792
-16.4659
-14.9878
-13.4957
-12.0057
-10.5149
-9.09503
-7.80008
-6.61791
-5.5721
-4.65358
-3.84376
-3.15703
-2.58644
-2.10012
-1.68393
-1.33891
-1.03967
-0.804938
-0.572986
-0.447853
-0.330857
-0.0233563
-0.11599
-19.3642
-19.5906
-19.8526
-20.1274
-20.4062
-20.6628
-20.8648
-21.0549
-20.9842
-20.6762
-20.192
-19.1337
-17.8696
-16.4592
-14.9807
-13.4849
-11.9953
-10.5141
-9.10476
-7.80497
-6.6211
-5.57233
-4.65247
-3.84563
-3.15859
-2.5855
-2.09814
-1.68246
-1.33731
-1.04009
-0.804425
-0.575595
-0.434767
-0.319893
-0.0266185
-0.114108
-19.3712
-19.5937
-19.8509
-20.1224
-20.3995
-20.6554
-20.8591
-21.0603
-21.0062
-20.6575
-20.1258
-19.0876
-17.8301
-16.4207
-14.9399
-13.4358
-11.9415
-10.4829
-9.09515
-7.78786
-6.59984
-5.54659
-4.619
-3.81884
-3.13607
-2.55922
-2.07249
-1.65873
-1.31544
-1.02214
-0.790111
-0.568962
-0.410139
-0.309382
-0.028089
-0.108214
-19.3823
-19.5976
-19.8483
-20.1161
-20.3908
-20.6454
-20.8494
-21.0566
-21.0232
-20.6415
-20.0437
-19.046
-17.7998
-16.3964
-14.9153
-13.408
-11.9125
-10.4608
-9.07938
-7.78757
-6.60275
-5.5416
-4.61656
-3.81483
-3.11766
-2.54366
-2.05522
-1.64201
-1.2968
-1.00527
-0.763898
-0.561032
-0.389893
-0.287144
-0.0235675
-0.095206
-19.398
-19.5998
-19.8447
-20.1108
-20.3854
-20.6404
-20.8453
-21.0421
-20.9645
-20.7221
-20.1753
-19.2605
-18.0623
-16.6812
-15.2066
-13.6937
-12.1855
-10.7159
-9.31483
-8.00561
-6.80676
-5.70509
-4.74477
-3.92087
-3.19823
-2.60432
-2.09784
-1.67298
-1.32103
-1.02306
-0.773317
-0.558539
-0.380861
-0.236893
-0.107388
-0.0736809
-19.4158
-19.5923
-19.8383
-20.1069
-20.384
-20.6429
-20.853
-21.0607
-20.9737
-20.7148
-20.1639
-19.2619
-18.0669
-16.6924
-15.2212
-13.7101
-12.2034
-10.7362
-9.33902
-8.03282
-6.83824
-5.7286
-4.76804
-3.94104
-3.2207
-2.62272
-2.11471
-1.69294
-1.33749
-1.03753
-0.781588
-0.563731
-0.386803
-0.234713
-0.108337
-0.0779642
-20.7458
-20.0863
-19.1758
-17.9182
-16.5307
-15.0676
-13.5736
-12.0812
-10.6334
-9.25516
-7.97362
-6.80362
-5.75684
-4.83905
-4.0385
-3.34808
-2.75945
-2.26084
-1.83728
-1.47994
-1.17375
-0.91317
-0.697623
-0.532442
-19.4366
-19.6341
-19.8715
-20.1453
-20.4319
-20.6991
-20.91
-21.0661
-21.0686
-20.7539
-20.1242
-19.169
-17.9193
-16.5291
-15.0657
-13.5728
-12.0827
-10.6348
-9.25529
-7.9707
-6.7979
-5.75364
-4.83615
-4.03458
-3.34152
-2.75141
-2.24992
-1.82507
-1.46598
-1.1619
-0.903168
-0.687061
-0.487912
-0.374145
-0.050258
-0.0418382
-19.4427
-19.6358
-19.8742
-20.1482
-20.4344
-20.6999
-20.9067
-21.0655
-21.052
-20.7374
-20.145
-19.1714
-17.9263
-16.5394
-15.0783
-13.5878
-12.0993
-10.6463
-9.2661
-7.97734
-6.80516
-5.76571
-4.84841
-4.04785
-3.35407
-2.76296
-2.26129
-1.83383
-1.47369
-1.16635
-0.909728
-0.692089
-0.503532
-0.339673
-0.217358
0.0386758
-19.451
-19.6406
-19.8787
-20.1519
-20.4382
-20.7029
-20.9062
-21.0632
-21.0417
-20.7451
-20.1667
-19.1791
-17.9352
-16.5513
-15.0934
-13.6082
-12.1205
-10.6516
-9.26291
-7.98266
-6.81578
-5.77788
-4.86222
-4.05959
-3.36457
-2.77516
-2.27264
-1.84349
-1.48226
-1.17298
-0.915481
-0.696513
-0.514485
-0.339501
-0.22592
0.0756031
-19.4585
-19.6467
-19.8836
-20.1562
-20.4423
-20.7061
-20.906
-21.0573
-21.0261
-20.7367
-20.1748
-19.1793
-17.935
-16.5486
-15.0919
-13.6096
-12.1202
-10.6445
-9.25324
-7.97578
-6.81051
-5.77491
-4.86056
-4.05632
-3.36186
-2.77433
-2.27207
-1.84262
-1.48117
-1.17068
-0.914794
-0.69397
-0.521012
-0.344678
-0.232251
0.0853541
-19.4709
-19.6557
-19.889
-20.1595
-20.4447
-20.7072
-20.904
-21.0508
-21.0176
-20.732
-20.1795
-19.181
-17.9363
-16.5484
-15.0922
-13.6106
-12.1196
-10.6412
-9.24848
-7.97089
-6.80579
-5.77161
-4.85816
-4.05349
-3.35988
-2.77409
-2.27233
-1.8434
-1.48272
-1.172
-0.916289
-0.693938
-0.524546
-0.347022
-0.236715
0.0875433
-19.4812
-19.6633
-19.8934
-20.1608
-20.4443
-20.7055
-20.9
-21.0443
-21.0123
-20.7282
-20.1778
-19.1803
-17.9357
-16.5479
-15.0915
-13.6093
-12.1169
-10.6382
-9.24516
-7.96674
-6.80182
-5.76782
-4.8542
-4.04963
-3.35756
-2.77363
-2.27175
-1.84218
-1.48121
-1.17057
-0.915201
-0.692711
-0.52364
-0.346601
-0.238246
0.0874506
-19.4887
-19.6677
-19.8949
-20.1595
-20.4414
-20.7013
-20.8946
-21.0383
-21.0089
-20.7256
-20.1696
-19.1769
-17.9339
-16.5483
-15.091
-13.6068
-12.114
-10.6372
-9.24565
-7.96727
-6.80175
-5.76629
-4.85273
-4.04813
-3.35504
-2.76928
-2.26715
-1.83815
-1.47741
-1.16789
-0.912812
-0.69289
-0.521476
-0.345122
-0.238038
0.0847502
-19.4934
-19.6696
-19.8936
-20.1556
-20.4358
-20.6946
-20.8881
-21.0331
-21.0097
-20.7313
-20.1617
-19.1753
-17.9336
-16.5516
-15.0921
-13.604
-12.1109
-10.6393
-9.25079
-7.9702
-6.8041
-5.76662
-4.85197
-4.04827
-3.35453
-2.76672
-2.26407
-1.83536
-1.47464
-1.16679
-0.911076
-0.694568
-0.51637
-0.340148
-0.237209
0.07959
-19.4992
-19.6716
-19.8909
-20.1498
-20.4281
-20.6856
-20.8793
-21.0262
-21.0083
-20.7259
-20.142
-19.1664
-17.9249
-16.5429
-15.0794
-13.5845
-12.0922
-10.6346
-9.25117
-7.96403
-6.79663
-5.7565
-4.83928
-4.03889
-3.34635
-2.75612
-2.25333
-1.82562
-1.46603
-1.16062
-0.906222
-0.689694
-0.505337
-0.34172
-0.24284
0.0656058
-19.5071
-19.674
-19.8876
-20.1433
-20.42
-20.6761
-20.8706
-21.0221
-21.011
-20.7145
-20.1177
-19.1544
-17.9137
-16.5297
-15.0651
-13.5676
-12.0753
-10.6225
-9.24153
-7.95832
-6.79218
-5.74908
-4.83134
-4.02913
-3.33192
-2.74257
-2.24053
-1.81433
-1.45476
-1.1512
-0.893796
-0.681396
-0.495571
-0.346383
-0.242673
0.0247056
-19.5152
-19.6747
-19.8843
-20.1379
-20.4144
-20.6711
-20.8688
-21.0259
-21.025
-20.7167
-20.1071
-19.1534
-17.9079
-16.5221
-15.0555
-13.5568
-12.0646
-10.6135
-9.23461
-7.956
-6.79167
-5.74593
-4.82617
-4.02341
-3.32893
-2.73984
-2.23875
-1.8149
-1.45616
-1.15372
-0.892487
-0.68233
-0.484709
-0.374641
-0.0546608
-0.0750141
-19.5185
-19.6727
-19.8815
-20.1348
-20.4122
-20.6711
-20.8731
-21.0311
-21.0231
-20.7244
-20.125
-19.1665
-17.9104
-16.523
-15.0551
-13.5556
-12.0627
-10.6112
-9.23242
-7.95616
-6.79281
-5.74749
-4.82788
-4.02726
-3.33664
-2.74987
-2.25046
-1.82813
-1.46927
-1.16616
-0.901303
-0.69156
-0.483617
-0.392875
-0.0197169
-0.0465025
-20.4479
-19.7429
-18.8984
-17.7527
-16.4321
-15.0254
-13.5637
-12.0918
-10.6586
-9.29718
-8.03489
-6.88672
-5.86148
-4.9618
-4.16913
-3.48449
-2.89571
-2.3968
-1.96547
-1.60304
-1.2827
-1.02665
-0.777092
-0.631745
-19.512
-19.6451
-19.8834
-20.1718
-20.4513
-20.7073
-20.9024
-21.0119
-20.8588
-20.4915
-19.7974
-18.9402
-17.7904
-16.4615
-15.0477
-13.5833
-12.1079
-10.6687
-9.3006
-8.03572
-6.88612
-5.86464
-4.96294
-4.17011
-3.4807
-2.89231
-2.38894
-1.95982
-1.59296
-1.28023
-1.0142
-0.785498
-0.572589
-0.461527
-0.107134
-0.0283783
-19.5218
-19.643
-19.883
-20.1708
-20.4492
-20.7013
-20.8912
-20.9974
-20.8445
-20.4957
-19.7915
-18.9254
-17.7856
-16.4589
-15.0402
-13.5753
-12.0992
-10.6539
-9.28752
-8.02567
-6.88197
-5.86338
-4.96155
-4.17067
-3.48287
-2.89425
-2.38999
-1.95964
-1.59193
-1.27772
-1.01188
-0.781288
-0.583302
-0.396169
-0.250868
-0.0423347
-19.5255
-19.6488
-19.8884
-20.1713
-20.4518
-20.7039
-20.8869
-20.9872
-20.8374
-20.5
-19.7967
-18.9263
-17.7836
-16.4544
-15.0341
-13.5696
-12.0906
-10.6386
-9.2771
-8.02505
-6.88469
-5.86722
-4.96532
-4.17311
-3.48547
-2.89775
-2.39339
-1.96199
-1.59407
-1.27814
-1.01199
-0.778509
-0.584042
-0.386829
-0.251573
-0.0363845
-19.5334
-19.6485
-19.8913
-20.1778
-20.458
-20.7102
-20.8882
-20.9822
-20.8296
-20.4983
-19.8038
-18.9287
-17.7784
-16.4448
-15.0238
-13.5579
-12.0773
-10.6283
-9.27353
-8.02528
-6.88476
-5.86518
-4.96255
-4.17002
-3.48293
-2.89603
-2.39171
-1.96027
-1.59204
-1.27576
-1.01022
-0.775584
-0.583633
-0.384351
-0.251826
-0.0316444
-19.5446
-19.6579
-19.894
-20.1803
-20.4615
-20.714
-20.8879
-20.9766
-20.8233
-20.497
-19.8087
-18.9325
-17.7775
-16.4414
-15.0201
-13.5534
-12.0724
-10.6268
-9.27334
-8.02528
-6.88556
-5.86484
-4.96153
-4.16882
-3.48098
-2.89404
-2.38941
-1.95823
-1.58984
-1.27429
-1.00971
-0.775794
-0.585314
-0.385197
-0.254038
-0.0315292
-19.5524
-19.6652
-19.8987
-20.1789
-20.4598
-20.7126
-20.8825
-20.9691
-20.817
-20.4945
-19.807
-18.932
-17.7768
-16.4403
-15.0183
-13.5507
-12.0692
-10.6248
-9.27104
-8.02266
-6.88292
-5.86216
-4.95872
-4.16514
-3.47623
-2.88898
-2.38483
-1.95472
-1.58708
-1.27233
-1.00813
-0.774581
-0.584247
-0.385013
-0.255511
-0.0318155
-19.5571
-19.6717
-19.9014
-20.1764
-20.4561
-20.7076
-20.8752
-20.9608
-20.8123
-20.4935
-19.7998
-18.9285
-17.7791
-16.4454
-15.0225
-13.5533
-12.0703
-10.6233
-9.26952
-8.02126
-6.88127
-5.86002
-4.95605
-4.16279
-3.47524
-2.88844
-2.38415
-1.95392
-1.58641
-1.27203
-1.0073
-0.774251
-0.582209
-0.38413
-0.255261
-0.0328711
-19.5629
-19.6762
-19.8997
-20.172
-20.4505
-20.7
-20.867
-20.9531
-20.8114
-20.4951
-19.7973
-18.9288
-17.7882
-16.4575
-15.0322
-13.561
-12.0762
-10.6251
-9.26822
-8.01881
-6.87767
-5.8568
-4.95336
-4.16064
-3.47398
-2.88673
-2.38231
-1.95218
-1.58476
-1.27096
-1.00531
-0.773697
-0.579971
-0.382743
-0.255085
-0.0357503
-19.5733
-19.6776
-19.8947
-20.1649
-20.4419
-20.6889
-20.8566
-20.9463
-20.8121
-20.4827
-19.7881
-18.9271
-17.7957
-16.4663
-15.0382
-13.5648
-12.0819
-10.6317
-9.26744
-8.01195
-6.87184
-5.85237
-4.94984
-4.15862
-3.47207
-2.8835
-2.37884
-1.94817
-1.58121
-1.26815
-1.00285
-0.772614
-0.578844
-0.386397
-0.260823
-0.0426772
-19.583
-19.6832
-19.8886
-20.1552
-20.4332
-20.6772
-20.8462
-20.9423
-20.8098
-20.4616
-19.7751
-18.9207
-17.7927
-16.4654
-15.0375
-13.5644
-12.0837
-10.6367
-9.26803
-8.00811
-6.86909
-5.8489
-4.94675
-4.15712
-3.46984
-2.88092
-2.3759
-1.94554
-1.57808
-1.2663
-0.998656
-0.774052
-0.578701
-0.398378
-0.270588
-0.0534128
-19.586
-19.6806
-19.8832
-20.149
-20.4302
-20.6741
-20.8459
-20.9493
-20.8017
-20.4442
-19.7608
-18.9148
-17.7869
-16.462
-15.0344
-13.5617
-12.0829
-10.6403
-9.27335
-8.01515
-6.8761
-5.85528
-4.95092
-4.16169
-3.47491
-2.88625
-2.38044
-1.95083
-1.58218
-1.2713
-0.998845
-0.783202
-0.573065
-0.458987
-0.10985
-0.0453169
-19.5757
-19.6762
-19.8845
-20.1492
-20.435
-20.68
-20.8536
-20.9629
-20.7915
-20.4324
-19.7427
-18.901
-17.7736
-16.4531
-15.0271
-13.5559
-12.0789
-10.6404
-9.27787
-8.02434
-6.8863
-5.86501
-4.96022
-4.17144
-3.48567
-2.89765
-2.39121
-1.96164
-1.59124
-1.27957
-1.00423
-0.787865
-0.571955
-0.490993
-0.0786643
-0.00601925
-19.7506
-18.7065
-18.0961
-17.2128
-16.0127
-14.6791
-13.298
-11.9164
-10.5684
-9.27284
-8.07455
-6.99426
-6.01123
-5.13257
-4.35354
-3.67923
-3.08877
-2.58335
-2.13813
-1.75725
-1.4186
-1.12793
-0.870038
-0.625748
-19.3763
-19.5632
-19.7486
-19.9484
-20.175
-20.3988
-20.553
-20.507
-20.1477
-19.8159
-18.7128
-18.1007
-17.2247
-16.0269
-14.6946
-13.3116
-11.9279
-10.5785
-9.28009
-8.07971
-6.99483
-6.0167
-5.13356
-4.35654
-3.67789
-3.09025
-2.57884
-2.13778
-1.752
-1.41779
-1.12341
-0.86276
-0.627492
-0.410558
-0.0457378
-0.0166502
-19.4368
-19.5431
-19.7302
-19.9302
-20.1642
-20.3732
-20.5213
-20.4678
-20.0913
-19.8066
-18.6763
-18.0641
-17.1871
-15.9859
-14.6625
-13.2934
-11.9159
-10.564
-9.27302
-8.0747
-6.99773
-6.02074
-5.13871
-4.36134
-3.68601
-3.09634
-2.58364
-2.13929
-1.75327
-1.41691
-1.12428
-0.865107
-0.638257
-0.426702
-0.246092
-0.071193
-19.4073
-19.5752
-19.7479
-19.9232
-20.1675
-20.3792
-20.5114
-20.4422
-20.0659
-19.7993
-18.6623
-18.0613
-17.1663
-15.9642
-14.6474
-13.2854
-11.909
-10.5554
-9.26784
-8.07696
-7.00487
-6.03089
-5.14917
-4.37067
-3.69302
-3.10196
-2.58785
-2.14284
-1.75589
-1.4186
-1.1266
-0.867866
-0.644459
-0.429287
-0.250152
-0.0750369
-19.468
-19.5518
-19.7619
-19.9408
-20.1754
-20.3933
-20.5177
-20.4397
-20.0673
-19.7873
-18.665
-18.0639
-17.154
-15.9486
-14.6339
-13.2733
-11.8984
-10.5448
-9.26127
-8.0784
-7.009
-6.03235
-5.15073
-4.37282
-3.69582
-3.10475
-2.59023
-2.1442
-1.7568
-1.42002
-1.12813
-0.868367
-0.645342
-0.431291
-0.256271
-0.0782434
-19.4496
-19.5777
-19.7594
-19.9498
-20.1868
-20.4037
-20.5226
-20.4392
-20.0682
-19.7857
-18.6723
-18.0713
-17.1523
-15.9447
-14.6301
-13.2702
-11.894
-10.5411
-9.26015
-8.08162
-7.01416
-6.03664
-5.15426
-4.3766
-3.69873
-3.10661
-2.59157
-2.14429
-1.75564
-1.41929
-1.12951
-0.870968
-0.649062
-0.436309
-0.262258
-0.0803738
-19.456
-19.5863
-19.7672
-19.944
-20.1824
-20.4046
-20.5153
-20.4305
-20.0636
-19.7877
-18.6616
-18.0625
-17.1473
-15.9406
-14.6266
-13.2665
-11.8899
-10.538
-9.25551
-8.08173
-7.01312
-6.03588
-5.15278
-4.37412
-3.69397
-3.10001
-2.58577
-2.1404
-1.75332
-1.41773
-1.12865
-0.870696
-0.650323
-0.437917
-0.264177
-0.0807671
-19.4508
-19.5972
-19.7737
-19.941
-20.1771
-20.399
-20.5077
-20.4188
-20.0516
-19.8076
-18.6463
-18.054
-17.1487
-15.9444
-14.6296
-13.2686
-11.8915
-10.5383
-9.25653
-8.07744
-7.00993
-6.03307
-5.15006
-4.37178
-3.69416
-3.10213
-2.58774
-2.14207
-1.75516
-1.41918
-1.12933
-0.870207
-0.649334
-0.435738
-0.261837
-0.0807236
-19.4542
-19.6045
-19.7682
-19.9387
-20.173
-20.3902
-20.499
-20.408
-20.0333
-19.8065
-18.6478
-18.0495
-17.1578
-15.9552
-14.637
-13.2724
-11.8956
-10.5421
-9.25445
-8.07309
-7.00076
-6.02636
-5.14332
-4.36595
-3.68981
-3.0981
-2.58337
-2.13825
-1.75206
-1.41625
-1.12561
-0.867578
-0.646951
-0.432783
-0.258421
-0.0804468
-19.505
-19.589
-19.7668
-19.925
-20.1587
-20.3784
-20.487
-20.3928
-20.0065
-19.8134
-18.6443
-18.0373
-17.1672
-15.9671
-14.6439
-13.2762
-11.8988
-10.5472
-9.25751
-8.0686
-6.99363
-6.02253
-5.14078
-4.36257
-3.68666
-3.09518
-2.57961
-2.13411
-1.74813
-1.41239
-1.12236
-0.866601
-0.645513
-0.431255
-0.255624
-0.0797445
-19.5019
-19.6015
-19.7473
-19.9093
-20.152
-20.3575
-20.4687
-20.3822
-19.9906
-19.7938
-18.6538
-18.0319
-17.167
-15.9696
-14.6441
-13.2745
-11.8979
-10.5479
-9.25745
-8.06254
-6.9892
-6.01537
-5.13439
-4.35809
-3.68382
-3.09268
-2.57679
-2.13113
-1.74494
-1.41004
-1.12022
-0.866579
-0.64235
-0.427788
-0.255261
-0.079469
-19.5278
-19.5847
-19.7347
-19.9047
-20.1542
-20.3529
-20.4645
-20.3983
-20.0009
-19.7882
-18.653
-18.0285
-17.169
-15.9721
-14.6448
-13.2742
-11.8984
-10.5505
-9.25832
-8.06518
-6.98929
-6.01866
-5.13578
-4.36165
-3.68479
-3.09562
-2.57762
-2.13498
-1.74554
-1.41386
-1.1178
-0.868096
-0.641195
-0.405829
-0.074235
-0.0369401
-19.5027
-19.5987
-19.7598
-19.9202
-20.1766
-20.3738
-20.481
-20.4391
-20.042
-19.7928
-18.6327
-18.0155
-17.1615
-15.965
-14.6382
-13.2679
-11.8936
-10.5493
-9.25838
-8.06614
-6.99234
-6.02404
-5.14192
-4.36702
-3.6888
-3.10039
-2.58229
-2.14057
-1.74969
-1.41822
-1.11896
-0.870577
-0.640478
-0.419602
-0.038155
0.00318094
-18.4838
-17.9525
-17.3267
-16.4412
-15.3426
-14.1514
-12.9323
-11.7148
-10.4946
-9.29783
-8.20057
-7.22459
-6.31092
-5.4475
-4.68185
-4.01762
-3.41783
-2.89067
-2.415
-2.0032
-1.62764
-1.30437
-1.02387
-0.755563
-17.9056
-17.845
-17.8032
-17.6755
-17.5086
-18.1926
-18.7728
-19.0591
-19.378
-19.6393
-19.819
-19.855
-19.7159
-19.2515
-18.4572
-17.9452
-17.3198
-16.4392
-15.3476
-14.1581
-12.9396
-11.7166
-10.5104
-9.3114
-8.19925
-7.2175
-6.31628
-5.4592
-4.68585
-4.01353
-3.42125
-2.88957
-2.42019
-2.00118
-1.63349
-1.30095
-1.01008
-0.746266
-0.514781
-0.337985
-0.107111
-17.8707
-17.868
-17.8313
-17.7292
-17.6172
-18.1987
-18.7681
-19.1157
-19.4044
-19.6584
-19.8363
-19.8521
-19.6663
-19.2293
-18.4412
-17.9362
-17.3135
-16.4356
-15.3394
-14.1562
-12.9361
-11.717
-10.5057
-9.31842
-8.18981
-7.21558
-6.32228
-5.46436
-4.68508
-4.01324
-3.41996
-2.89118
-2.41957
-2.00277
-1.63198
-1.30121
-1.00628
-0.74685
-0.507501
-0.297491
-0.116832
-17.873
-17.8802
-17.8521
-17.7625
-17.6567
-18.2001
-18.7926
-19.1548
-19.4293
-19.6653
-19.8325
-19.8471
-19.6408
-19.2138
-18.4115
-17.9121
-17.3147
-16.4386
-15.3406
-14.1581
-12.9407
-11.7207
-10.5075
-9.31825
-8.19714
-7.22426
-6.32886
-5.46795
-4.68993
-4.01706
-3.42222
-2.89311
-2.42102
-2.0054
-1.63334
-1.30594
-1.00453
-0.744563
-0.497408
-0.282065
-0.112174
-17.8812
-17.8908
-17.8664
-17.7777
-17.6652
-18.2642
-18.8143
-19.1793
-19.4312
-19.6749
-19.8423
-19.8408
-19.6479
-19.2071
-18.3996
-17.9081
-17.3144
-16.4425
-15.3409
-14.1592
-12.9407
-11.7223
-10.5038
-9.31264
-8.20097
-7.23201
-6.32902
-5.4666
-4.6908
-4.01954
-3.42254
-2.89349
-2.42024
-2.00585
-1.63424
-1.30755
-1.00425
-0.738975
-0.487767
-0.273587
-0.10924
-17.89
-17.9004
-17.8779
-17.7924
-17.6764
-18.2704
-18.8225
-19.1701
-19.4294
-19.6779
-19.831
-19.8303
-19.661
-19.2111
-18.3959
-17.908
-17.3159
-16.4427
-15.3415
-14.1594
-12.942
-11.7222
-10.5041
-9.31276
-8.20659
-7.23676
-6.33171
-5.46872
-4.69501
-4.02321
-3.42535
-2.89597
-2.42198
-2.00789
-1.63655
-1.31057
-1.00607
-0.738557
-0.484799
-0.274286
-0.111844
-17.8977
-17.909
-17.8892
-17.8081
-17.7025
-18.2751
-18.8273
-19.1714
-19.4358
-19.6803
-19.8388
-19.8391
-19.6533
-19.2044
-18.3935
-17.8998
-17.313
-16.4442
-15.3421
-14.1597
-12.9414
-11.7213
-10.5045
-9.30041
-8.20786
-7.24271
-6.32839
-5.46659
-4.69245
-4.02268
-3.42296
-2.8931
-2.41892
-2.00553
-1.63442
-1.30902
-1.00462
-0.737218
-0.483261
-0.272045
-0.109356
-17.9036
-17.9156
-17.8975
-17.8245
-17.7399
-18.2577
-18.8255
-19.1726
-19.4455
-19.6929
-19.844
-19.8392
-19.6521
-19.2041
-18.3987
-17.895
-17.3097
-16.4384
-15.3393
-14.1574
-12.9394
-11.7189
-10.5019
-9.30948
-8.20274
-7.23229
-6.32842
-5.46734
-4.6924
-4.02092
-3.42301
-2.89409
-2.42001
-2.00683
-1.63515
-1.31013
-1.00565
-0.740112
-0.483903
-0.275303
-0.113803
-17.9071
-17.9194
-17.9018
-17.8288
-17.743
-18.2628
-18.8286
-19.1722
-19.4351
-19.6824
-19.832
-19.8499
-19.6394
-19.195
-18.4142
-17.8978
-17.2976
-16.4284
-15.3337
-14.1535
-12.9349
-11.7153
-10.5031
-9.30209
-8.19741
-7.22668
-6.32133
-5.46607
-4.68682
-4.01575
-3.41894
-2.89055
-2.41661
-2.00354
-1.63137
-1.30705
-1.00339
-0.741426
-0.486034
-0.278368
-0.115424
-17.9084
-17.9201
-17.901
-17.8245
-17.7281
-18.3028
-18.8365
-19.1979
-19.4299
-19.6775
-19.8333
-19.8319
-19.6327
-19.1968
-18.4724
-17.9035
-17.2747
-16.41
-15.3238
-14.1447
-12.928
-11.7081
-10.5013
-9.30423
-8.19104
-7.21602
-6.31904
-5.46774
-4.68566
-4.01246
-3.41652
-2.88919
-2.41594
-2.00294
-1.62982
-1.30674
-1.00394
-0.747322
-0.494633
-0.286266
-0.11851
-17.9094
-17.9178
-17.895
-17.8151
-17.7177
-18.283
-18.8419
-19.1954
-19.4381
-19.6697
-19.8233
-19.8205
-19.6175
-19.185
-18.5166
-17.9056
-17.257
-16.3956
-15.313
-14.1345
-12.918
-11.7002
-10.4936
-9.30737
-8.18051
-7.20656
-6.3185
-5.46479
-4.684
-4.00906
-3.41448
-2.88743
-2.41514
-2.0007
-1.62876
-1.30364
-1.00472
-0.752117
-0.503519
-0.301244
-0.123913
-17.9177
-17.9121
-17.8834
-17.7947
-17.6989
-18.291
-18.8277
-19.1588
-19.4017
-19.6543
-19.8049
-19.835
-19.62
-19.1826
-18.5116
-17.9138
-17.2602
-16.3945
-15.3132
-14.1311
-12.9167
-11.6972
-10.4971
-9.29994
-8.18404
-7.20737
-6.31723
-5.46762
-4.68596
-4.00956
-3.41836
-2.88875
-2.41897
-2.00054
-1.63225
-1.29986
-1.00815
-0.765258
-0.506957
-0.346661
-0.128351
-17.9836
-17.897
-17.867
-17.7573
-17.6315
-18.3191
-18.8225
-19.1024
-19.3781
-19.6439
-19.7966
-19.7888
-19.6231
-19.2062
-18.4759
-17.9016
-17.2585
-16.3909
-15.3091
-14.125
-12.9122
-11.6917
-10.4957
-9.29805
-8.18319
-7.20641
-6.31885
-5.47021
-4.68799
-4.01053
-3.42104
-2.89022
-2.42207
-2.00118
-1.634
-1.29862
-1.0107
-0.775975
-0.518706
-0.358697
-0.103898
-18.0108
-17.4279
-16.7175
-15.8516
-14.862
-13.8019
-12.6994
-11.586
-10.4726
-9.39511
-8.37144
-7.42582
-6.54053
-5.71864
-4.96642
-4.29327
-3.68322
-3.13766
-2.64655
-2.21046
-1.81278
-1.4547
-1.14432
-0.854026
-17.9355
-17.923
-17.9086
-17.9008
-17.9794
-18.288
-18.6279
-18.8668
-19.0487
-19.1831
-19.2452
-19.2066
-19.0453
-18.6367
-17.9759
-17.4329
-16.716
-15.8491
-14.8643
-13.8028
-12.7035
-11.5866
-10.4781
-9.39628
-8.37277
-7.42248
-6.54123
-5.71967
-4.96815
-4.29308
-3.68483
-3.13807
-2.64771
-2.21009
-1.81345
-1.45612
-1.12534
-0.837314
-0.5942
-0.383231
-0.147452
-17.9354
-17.9305
-17.9206
-17.9199
-18.0046
-18.303
-18.6388
-18.8816
-19.0568
-19.1846
-19.2468
-19.2016
-19.0386
-18.6241
-17.9752
-17.4403
-16.7191
-15.8493
-14.8602
-13.8009
-12.6993
-11.5854
-10.474
-9.39601
-8.36885
-7.42024
-6.53994
-5.72094
-4.966
-4.29385
-3.68371
-3.14017
-2.64646
-2.21088
-1.81203
-1.45387
-1.11623
-0.831469
-0.571715
-0.339677
-0.14659
-17.9408
-17.9393
-17.9342
-17.9393
-18.027
-18.3204
-18.6549
-18.8981
-19.067
-19.1914
-19.2481
-19.1984
-19.0317
-18.6104
-17.961
-17.4437
-16.7301
-15.8535
-14.8626
-13.8011
-12.7019
-11.5853
-10.4751
-9.39512
-8.37119
-7.42166
-6.54207
-5.72155
-4.96756
-4.29436
-3.68478
-3.14049
-2.64727
-2.2111
-1.81345
-1.45547
-1.11827
-0.823744
-0.56022
-0.330089
-0.140482
-17.9485
-17.9484
-17.9461
-17.9532
-18.0417
-18.3381
-18.67
-18.9092
-19.0772
-19.2002
-19.2485
-19.1963
-19.0284
-18.6054
-17.9547
-17.4478
-16.7381
-15.8581
-14.8612
-13.8003
-12.6983
-11.5825
-10.4692
-9.39127
-8.36776
-7.42177
-6.5395
-5.72003
-4.96499
-4.29313
-3.68213
-3.13939
-2.64533
-2.21123
-1.81297
-1.4593
-1.12557
-0.829257
-0.553282
-0.31867
-0.136746
-17.9562
-17.9568
-17.9561
-17.9651
-18.0543
-18.3494
-18.6792
-18.9154
-19.0827
-19.2066
-19.2492
-19.1946
-19.0284
-18.6041
-17.9502
-17.4455
-16.7391
-15.8568
-14.8602
-13.7985
-12.6977
-11.5807
-10.4684
-9.39019
-8.36934
-7.42366
-6.54103
-5.72082
-4.96696
-4.29447
-3.68365
-3.14041
-2.64695
-2.21288
-1.81484
-1.46182
-1.13055
-0.83265
-0.552399
-0.314987
-0.133051
-17.9631
-17.9642
-17.9648
-17.9761
-18.0668
-18.3581
-18.6849
-18.9194
-19.0828
-19.209
-19.2504
-19.1942
-19.0263
-18.6072
-17.9513
-17.4476
-16.7417
-15.86
-14.8611
-13.7992
-12.6963
-11.5792
-10.4654
-9.38647
-8.36417
-7.42363
-6.53773
-5.71866
-4.96377
-4.2919
-3.68017
-3.13721
-2.64361
-2.21046
-1.81265
-1.46039
-1.13012
-0.833521
-0.548886
-0.313224
-0.13457
-17.9684
-17.9699
-17.9715
-17.9852
-18.0776
-18.3642
-18.6876
-18.9216
-19.0822
-19.2069
-19.2514
-19.1934
-19.022
-18.5986
-17.9485
-17.4402
-16.7316
-15.8533
-14.8588
-13.7976
-12.696
-11.5786
-10.4656
-9.38693
-8.36551
-7.42087
-6.53798
-5.7189
-4.96486
-4.29318
-3.68229
-3.13962
-2.64588
-2.21282
-1.81489
-1.46296
-1.13226
-0.83513
-0.552753
-0.314656
-0.133114
-17.9717
-17.9735
-17.9751
-17.989
-18.0813
-18.3673
-18.6896
-18.9228
-19.0819
-19.2031
-19.2491
-19.1909
-19.0181
-18.6033
-17.9501
-17.4308
-16.7171
-15.8454
-14.8549
-13.7955
-12.6934
-11.5773
-10.4644
-9.38534
-8.36071
-7.41899
-6.53467
-5.71794
-4.96239
-4.29147
-3.68088
-3.13863
-2.64396
-2.21101
-1.81275
-1.46126
-1.12927
-0.832436
-0.556123
-0.318922
-0.134372
-17.9731
-17.9745
-17.9752
-17.9875
-18.0792
-18.368
-18.6894
-18.9224
-19.083
-19.1975
-19.2446
-19.1858
-19.0152
-18.5984
-17.956
-17.4131
-16.6969
-15.833
-14.8502
-13.7913
-12.6916
-11.5755
-10.4654
-9.38575
-8.36063
-7.41697
-6.53529
-5.71932
-4.96418
-4.29266
-3.68324
-3.14088
-2.64613
-2.21226
-1.81388
-1.46117
-1.12816
-0.833569
-0.566076
-0.33104
-0.137821
-17.9733
-17.9731
-17.9713
-17.9819
-18.073
-18.363
-18.6857
-18.9191
-19.0795
-19.1911
-19.2395
-19.1812
-19.0107
-18.6067
-17.958
-17.3983
-16.6771
-15.8206
-14.8417
-13.785
-12.6861
-11.5724
-10.4634
-9.38539
-8.35977
-7.41378
-6.53607
-5.71903
-4.96433
-4.29252
-3.68373
-3.14121
-2.64637
-2.21157
-1.81237
-1.4568
-1.11992
-0.833881
-0.572082
-0.33971
-0.141466
-17.9746
-17.9708
-17.9656
-17.973
-18.0638
-18.3589
-18.6798
-18.9097
-19.0714
-19.1863
-19.2349
-19.1785
-19.0107
-18.6061
-17.9592
-17.3977
-16.6774
-15.819
-14.842
-13.7828
-12.6865
-11.5709
-10.4661
-9.38418
-8.3619
-7.41484
-6.53928
-5.72088
-4.96783
-4.29411
-3.68757
-3.14294
-2.64971
-2.2127
-1.81437
-1.45689
-1.12558
-0.849399
-0.584445
-0.381744
-0.161739
-17.9805
-17.9678
-17.9606
-17.9643
-18.0536
-18.3572
-18.6757
-18.9003
-19.0655
-19.1846
-19.2318
-19.1758
-19.011
-18.6023
-17.9359
-17.3804
-16.6671
-15.8115
-14.8367
-13.7784
-12.6835
-11.5687
-10.4656
-9.38371
-8.36263
-7.41512
-6.54066
-5.72229
-4.96951
-4.2952
-3.68929
-3.14382
-2.65136
-2.21266
-1.81444
-1.45108
-1.12634
-0.854182
-0.596218
-0.397051
-0.14982
-17.4115
-16.8095
-16.1398
-15.3539
-14.4656
-13.5022
-12.4949
-11.4692
-10.4452
-9.44081
-8.47383
-7.56569
-6.71344
-5.91856
-5.18078
-4.51135
-3.89934
-3.34674
-2.84257
-2.38794
-1.971
-1.59515
-1.25814
-0.94538
-17.9896
-17.9908
-18.0003
-18.0347
-18.1271
-18.2982
-18.4963
-18.6615
-18.7764
-18.8336
-18.8188
-18.7146
-18.5089
-18.1007
-17.3954
-16.8184
-16.1402
-15.3509
-14.4645
-13.5016
-12.4967
-11.4701
-10.448
-9.44341
-8.47782
-7.56609
-6.71715
-5.92068
-5.18585
-4.51233
-3.90393
-3.34726
-2.84733
-2.3878
-1.97587
-1.59149
-1.24735
-0.914357
-0.655325
-0.430904
-0.164623
-17.9929
-17.9954
-18.0075
-18.0448
-18.138
-18.307
-18.504
-18.6688
-18.7817
-18.8363
-18.8198
-18.7139
-18.5086
-18.0902
-17.4001
-16.8227
-16.1365
-15.3492
-14.461
-13.5006
-12.4935
-11.4689
-10.4442
-9.44214
-8.47308
-7.56386
-6.71268
-5.92043
-5.18127
-4.51213
-3.89868
-3.34828
-2.84161
-2.3902
-1.96972
-1.59465
-1.2397
-0.929438
-0.633849
-0.375497
-0.145919
-17.9984
-18.0022
-18.0166
-18.0561
-18.1504
-18.3184
-18.5137
-18.6776
-18.7881
-18.84
-18.8204
-18.7115
-18.5039
-18.0876
-17.3958
-16.8217
-16.1388
-15.3503
-14.4645
-13.5026
-12.4983
-11.4712
-10.4489
-9.44332
-8.47747
-7.56593
-6.71784
-5.92184
-5.18573
-4.51305
-3.90292
-3.34878
-2.84556
-2.39073
-1.97412
-1.59596
-1.24455
-0.926358
-0.630567
-0.3627
-0.136885
-18.0047
-18.0094
-18.0253
-18.0663
-18.1612
-18.329
-18.523
-18.6852
-18.794
-18.8437
-18.8213
-18.7102
-18.5014
-18.083
-17.3938
-16.8245
-16.1402
-15.3519
-14.4631
-13.5023
-12.4954
-11.4693
-10.4444
-9.43998
-8.47234
-7.56401
-6.71324
-5.91912
-5.18064
-4.51086
-3.89831
-3.34702
-2.84158
-2.38962
-1.97161
-1.59659
-1.24449
-0.926993
-0.628249
-0.357804
-0.135508
-18.011
-18.0161
-18.0331
-18.075
-18.1704
-18.3376
-18.5302
-18.6907
-18.7983
-18.8466
-18.822
-18.709
-18.4991
-18.0803
-17.3938
-16.8238
-16.1414
-15.3516
-14.4644
-13.5027
-12.4974
-11.4699
-10.4463
-9.44063
-8.47509
-7.56609
-6.71617
-5.92069
-5.1834
-4.51289
-3.90107
-3.34913
-2.84439