/*--------------------------------*- C++ -*----------------------------------*\
  =========                 |
  \\      /  F ield         | OpenFOAM: The Open Source CFD Toolbox
   \\    /   O peration     | Website:  https://openfoam.org
    \\  /    A nd           | Version:  7
     \\/     M anipulation  |
\*---------------------------------------------------------------------------*/
FoamFile
{
    version     2.0;
    format      ascii;
    class       volVectorField;
    location    "900";
    object      U;
}
// * * * * * * * * * * * * * * * * * * * * * * * * * * * * * * * * * * * * * //

dimensions      [0 1 -1 0 0 0 0];

internalField   nonuniform List<vector> 
120313
(
(-2.92378 -0.037642 0.00347776)
(-2.9235 -0.0267619 -0.0458069)
(-2.8889 -0.0359614 -0.0654853)
(-2.77844 -0.0391631 -0.0939593)
(-2.6228 -0.0437648 -0.113779)
(-2.43062 -0.0463351 -0.130212)
(-2.21236 -0.0452849 -0.145446)
(-1.97291 -0.0463095 -0.160927)
(-1.72203 -0.0565522 -0.179048)
(-1.42195 -0.0635589 -0.197818)
(-1.06763 -0.0650007 -0.180862)
(-0.808972 -0.0613582 -0.171901)
(-0.501543 -0.0533143 -0.179981)
(-0.233809 -0.0509282 -0.181994)
(0.0332605 -0.0494581 -0.186467)
(0.286907 -0.0478074 -0.162115)
(0.53174 -0.0473198 -0.138936)
(0.756763 -0.0455456 -0.129472)
(0.975363 -0.0474344 -0.115477)
(1.16086 -0.0431826 -0.106068)
(1.36277 -0.0467384 -0.0928431)
(1.49836 -0.0391957 -0.0946199)
(1.70302 -0.0437193 -0.0877257)
(1.78196 -0.0364669 -0.0572967)
(-2.79525 -0.0142554 -0.00616358)
(-2.75872 -0.00864041 -0.0399223)
(-2.72321 -0.0115712 -0.0751237)
(-2.60242 -0.0133717 -0.108346)
(-2.44333 -0.0161691 -0.133072)
(-2.24888 -0.0173287 -0.155322)
(-2.03699 -0.0146111 -0.180047)
(-1.77381 -0.0140604 -0.205041)
(-1.44213 -0.0429337 -0.197347)
(-1.19418 -0.0535003 -0.195057)
(-0.8859 -0.0462422 -0.200719)
(-0.613273 -0.0448623 -0.200079)
(-0.327076 -0.0406164 -0.20496)
(-0.0589739 -0.0394097 -0.215713)
(0.206611 -0.0385865 -0.198179)
(0.447588 -0.0406167 -0.16615)
(0.687077 -0.0384524 -0.152991)
(0.902807 -0.0373811 -0.143879)
(1.11598 -0.0377466 -0.131234)
(1.29306 -0.0365055 -0.120978)
(1.49281 -0.0363519 -0.109838)
(1.6198 -0.0344565 -0.104139)
(1.81006 -0.035356 -0.094907)
(1.83903 -0.0297306 -0.0612521)
(-2.7971 -0.0155337 -0.00341718)
(-2.75861 -0.0142656 -0.0461586)
(-2.72106 -0.0159569 -0.0848407)
(-2.59587 -0.0168986 -0.119538)
(-2.43262 -0.0184001 -0.142957)
(-2.23298 -0.0203896 -0.165606)
(-2.01464 -0.0219404 -0.193044)
(-1.75806 -0.026033 -0.223468)
(-1.413 -0.0403909 -0.214321)
(-1.17683 -0.0441802 -0.204523)
(-0.860701 -0.0435173 -0.214504)
(-0.588959 -0.0417704 -0.214247)
(-0.303464 -0.0391299 -0.221922)
(-0.0366928 -0.0383128 -0.23237)
(0.233531 -0.0384498 -0.209285)
(0.467409 -0.0395529 -0.174215)
(0.710344 -0.0369469 -0.1617)
(0.926382 -0.0360448 -0.153472)
(1.14007 -0.0356095 -0.140037)
(1.31994 -0.0350445 -0.130427)
(1.51742 -0.0336297 -0.117413)
(1.65079 -0.0333074 -0.114001)
(1.83409 -0.0317232 -0.1024)
(1.85315 -0.0279431 -0.0665157)
(-2.79236 -0.00536323 -0.00433417)
(-2.75915 -0.00422464 -0.045204)
(-2.71825 -0.0047586 -0.0872322)
(-2.59071 -0.00547045 -0.122925)
(-2.42521 -0.00659026 -0.147031)
(-2.22327 -0.0080875 -0.17074)
(-2.00401 -0.010021 -0.199533)
(-1.73902 -0.0151429 -0.230819)
(-1.40065 -0.0217286 -0.221438)
(-1.15982 -0.0228096 -0.211561)
(-0.843026 -0.0236964 -0.222717)
(-0.571145 -0.0233937 -0.22256)
(-0.286642 -0.0230301 -0.231209)
(-0.0193053 -0.0228438 -0.241132)
(0.253524 -0.0231623 -0.214867)
(0.483908 -0.0237876 -0.178092)
(0.72864 -0.0225318 -0.166262)
(0.944819 -0.0221255 -0.158147)
(1.15876 -0.0218801 -0.144637)
(1.34002 -0.0215673 -0.134699)
(1.53688 -0.0208036 -0.121404)
(1.67279 -0.0203819 -0.118049)
(1.85414 -0.019063 -0.105774)
(1.87294 -0.0185909 -0.0718512)
(-2.79086 -0.0016952 -0.00367252)
(-2.75212 -0.000957359 -0.0481039)
(-2.71369 -7.14035e-05 -0.0875862)
(-2.58604 0.000126525 -0.123273)
(-2.42027 -5.77528e-05 -0.147522)
(-2.21784 -0.00037525 -0.171519)
(-1.99851 -0.000726403 -0.200707)
(-1.73013 -0.00114021 -0.231657)
(-1.39498 0.00015281 -0.221484)
(-1.1516 -0.000569053 -0.21267)
(-0.835611 -0.00191966 -0.222903)
(-0.562695 -0.00219088 -0.223378)
(-0.278446 -0.00330613 -0.232467)
(-0.0107243 -0.00389742 -0.242175)
(0.263048 -0.00490563 -0.214459)
(0.49246 -0.00568658 -0.177296)
(0.737816 -0.00677157 -0.166042)
(0.95423 -0.00769908 -0.15761)
(1.16864 -0.00818673 -0.14418)
(1.35038 -0.00858271 -0.134327)
(1.54773 -0.00860816 -0.121276)
(1.6841 -0.00837851 -0.118166)
(1.86569 -0.00775345 -0.106203)
(1.88373 -0.0077149 -0.0719454)
(-2.77805 0.010128 -0.00310592)
(-2.7461 0.0098939 -0.0448977)
(-2.70786 0.0120987 -0.0848319)
(-2.58239 0.0123062 -0.120147)
(-2.41819 0.0122538 -0.143981)
(-2.21711 0.0123452 -0.167509)
(-1.99841 0.0116924 -0.196219)
(-1.73227 0.0117961 -0.226456)
(-1.3948 0.0218174 -0.217354)
(-1.15153 0.0230296 -0.20934)
(-0.837222 0.0203655 -0.219111)
(-0.562464 0.0194325 -0.220095)
(-0.278461 0.0163982 -0.228541)
(-0.0102186 0.0152705 -0.238215)
(0.26313 0.0141141 -0.210993)
(0.493982 0.0135027 -0.175121)
(0.739247 0.0101253 -0.164703)
(0.955793 0.00801839 -0.155919)
(1.17042 0.00720056 -0.142468)
(1.3511 0.00646654 -0.132608)
(1.54919 0.00621031 -0.119617)
(1.68343 0.00675327 -0.116718)
(1.86702 0.00752556 -0.105592)
(1.88576 0.00536755 -0.0689696)
(-2.76623 0.00954565 -0.00715898)
(-2.73315 0.00434981 -0.039804)
(-2.69766 0.00715951 -0.0761151)
(-2.57666 0.00818045 -0.110091)
(-2.41667 0.00948123 -0.135799)
(-2.22063 0.00890295 -0.158686)
(-2.00854 0.00405406 -0.184225)
(-1.73143 0.00266695 -0.208983)
(-1.4113 0.0308919 -0.202825)
(-1.15206 0.0368717 -0.202921)
(-0.848789 0.0302291 -0.208214)
(-0.571786 0.0295504 -0.20848)
(-0.287256 0.0255076 -0.214791)
(-0.0175295 0.0244312 -0.224718)
(0.253087 0.0220657 -0.201106)
(0.489118 0.0221029 -0.169175)
(0.732683 0.0177303 -0.159222)
(0.949479 0.0149402 -0.149431)
(1.16382 0.0147267 -0.136603)
(1.34211 0.0130622 -0.126488)
(1.54207 0.0141253 -0.114781)
(1.67026 0.0132937 -0.110647)
(1.86101 0.0162213 -0.101838)
(1.89204 0.012777 -0.0676029)
(-2.87333 0.0312601 -0.00024763)
(-2.87282 0.0213689 -0.0490019)
(-2.84023 0.0319827 -0.0681188)
(-2.72907 0.0368606 -0.0960599)
(-2.57483 0.0422249 -0.115364)
(-2.38253 0.0441633 -0.132326)
(-2.16329 0.0418891 -0.148668)
(-1.92279 0.0434427 -0.165791)
(-1.67407 0.0540117 -0.1865)
(-1.35374 0.0627985 -0.201282)
(-1.02271 0.063776 -0.183149)
(-0.750864 0.0602258 -0.180087)
(-0.452932 0.0532717 -0.18664)
(-0.18193 0.0504309 -0.190212)
(0.0829435 0.0471118 -0.189809)
(0.338671 0.0467406 -0.167173)
(0.583819 0.0422803 -0.145721)
(0.809361 0.0383228 -0.134557)
(1.02779 0.0390818 -0.120481)
(1.21534 0.0333967 -0.110851)
(1.41558 0.0377407 -0.0990478)
(1.55728 0.0307332 -0.103831)
(1.76451 0.0385626 -0.0927777)
(1.84254 0.0382004 -0.0619418)
(-0.368617 0.00982544 0.378539)
(-0.70016 0.00164895 0.29906)
(-0.953731 -0.00340841 0.252469)
(-1.1786 -0.00635444 0.23297)
(-1.38786 -0.00818518 0.220524)
(-1.57956 -0.00912212 0.206538)
(-1.74691 -0.00859086 0.188976)
(-1.90123 -0.00662744 0.167767)
(-2.03941 -0.00276695 0.139377)
(-2.17324 0.00984957 0.0847616)
(-2.20057 0.00969872 0.0175333)
(-2.15141 -0.000353893 -0.0385554)
(-2.03918 -0.00354483 -0.0869987)
(-1.88066 -0.00611544 -0.119286)
(-1.68816 -0.00690808 -0.143149)
(-1.47086 -0.00801443 -0.161926)
(-1.23329 -0.00969995 -0.176983)
(-0.979201 -0.0123183 -0.189282)
(-0.712584 -0.014664 -0.198438)
(-0.43557 -0.0167831 -0.20647)
(-0.156317 -0.0200879 -0.212376)
(0.120719 -0.0184864 -0.20862)
(0.389967 -0.0155798 -0.202799)
(0.645004 -0.0149116 -0.195605)
(0.889864 -0.015178 -0.182521)
(1.11984 -0.0141395 -0.168702)
(1.33307 -0.0143053 -0.155043)
(1.53225 -0.0141186 -0.141757)
(1.71965 -0.0138512 -0.13033)
(1.89409 -0.0129002 -0.121786)
(2.05436 -0.0111207 -0.113506)
(2.20421 -0.00817455 -0.107309)
(2.34247 -0.00750602 -0.098113)
(2.47575 -0.00266534 -0.0890643)
(2.58482 0.00728025 -0.0857182)
(2.71787 0.0274888 -0.0831259)
(-0.395274 0.0193769 0.373368)
(-0.710032 -0.000348154 0.294779)
(-0.959888 -0.00836364 0.249172)
(-1.18472 -0.0130144 0.229734)
(-1.39552 -0.0160799 0.217238)
(-1.58986 -0.0179772 0.203451)
(-1.76259 -0.0185364 0.186532)
(-1.93687 -0.0154664 0.166414)
(-2.06817 -0.00736697 0.1379)
(-1.82942 0.00955683 0.109823)
(-1.65982 0.0224612 0.0032899)
(-1.57368 0.00287911 -0.0849955)
(-1.42477 -0.000523493 -0.153432)
(-1.25056 -0.00404434 -0.199743)
(-1.04756 -0.00586149 -0.234625)
(-0.824504 -0.00701006 -0.264792)
(-0.584478 -0.0108375 -0.291048)
(-0.33138 -0.0204491 -0.312721)
(-0.0658761 -0.0282662 -0.332652)
(0.202715 -0.0338396 -0.333011)
(0.462968 -0.0361496 -0.327761)
(0.722926 -0.0342513 -0.32241)
(0.969973 -0.0334189 -0.311778)
(1.20808 -0.0328967 -0.299899)
(1.43453 -0.0311434 -0.282548)
(1.64709 -0.0296606 -0.262953)
(1.84485 -0.0277008 -0.244245)
(2.02835 -0.0270172 -0.224374)
(2.19661 -0.0252266 -0.207885)
(2.35632 -0.026057 -0.19058)
(2.49264 -0.0216352 -0.174735)
(2.62504 -0.0215456 -0.168756)
(2.7063 -0.0167936 -0.139233)
(2.73984 -0.00321476 -0.117103)
(2.63221 -0.000517058 -0.117024)
(2.70285 0.0132788 -0.098213)
(-0.357856 0.00742832 0.371197)
(-0.679951 -0.00525067 0.293734)
(-0.934296 -0.0115319 0.246337)
(-1.16096 -0.0161213 0.225855)
(-1.3726 -0.0191602 0.212088)
(-1.56701 -0.0209204 0.196244)
(-1.73942 -0.0215102 0.175863)
(-1.91446 -0.0214147 0.149986)
(-2.04537 -0.00958923 0.123852)
(-1.78084 0.0169371 0.110455)
(-1.48937 0.0254662 0.00518548)
(-1.36924 0.0130949 -0.102163)
(-1.19966 0.00958308 -0.177629)
(-1.01547 0.00671066 -0.230135)
(-0.805243 0.00555933 -0.26869)
(-0.576062 0.00569168 -0.308286)
(-0.331139 0.00258026 -0.348152)
(-0.0768017 -0.0096889 -0.36242)
(0.179636 -0.020538 -0.36912)
(0.441905 -0.0235689 -0.372937)
(0.69657 -0.0242293 -0.367979)
(0.947197 -0.0230518 -0.360327)
(1.18794 -0.0214548 -0.3496)
(1.41777 -0.0215447 -0.334865)
(1.63477 -0.0220419 -0.314484)
(1.84018 -0.0214033 -0.293651)
(2.03022 -0.0206705 -0.273631)
(2.20739 -0.0206931 -0.252848)
(2.3674 -0.0198553 -0.235148)
(2.52207 -0.0205709 -0.217654)
(2.643 -0.0183345 -0.197985)
(2.76836 -0.0205117 -0.192571)
(2.79037 -0.0170276 -0.153054)
(2.78043 -0.00975951 -0.123561)
(2.66833 -0.010501 -0.131173)
(2.73214 -0.00345863 -0.105644)
(-0.327666 0.0166438 0.374959)
(-0.660528 -0.000273838 0.292579)
(-0.91716 -0.0102446 0.24347)
(-1.14473 -0.0158944 0.222127)
(-1.3574 -0.0189298 0.20728)
(-1.55333 -0.0202928 0.189819)
(-1.72876 -0.0199669 0.167519)
(-1.9111 -0.0170356 0.141629)
(-2.05142 -0.00760466 0.118183)
(-1.77246 0.00509267 0.117781)
(-1.4275 0.0138309 0.0111719)
(-1.28862 0.00814726 -0.107488)
(-1.10559 0.00651588 -0.186764)
(-0.913086 0.00484618 -0.240387)
(-0.695851 0.0039504 -0.281506)
(-0.46064 0.00337926 -0.324804)
(-0.211286 0.000118902 -0.370306)
(0.0443956 -0.00847444 -0.386004)
(0.296997 -0.0157384 -0.390323)
(0.558256 -0.0182779 -0.39393)
(0.810211 -0.0192165 -0.387918)
(1.05803 -0.0188553 -0.37977)
(1.29576 -0.0183089 -0.369777)
(1.5229 -0.0192237 -0.353651)
(1.73695 -0.0197919 -0.331722)
(1.94017 -0.0192916 -0.31032)
(2.12731 -0.0188327 -0.289572)
(2.30214 -0.0188161 -0.268063)
(2.45888 -0.0182158 -0.249727)
(2.61124 -0.0185046 -0.231475)
(2.72527 -0.0170773 -0.211816)
(2.84734 -0.0181541 -0.200799)
(2.83916 -0.0145352 -0.157432)
(2.8214 -0.0118374 -0.132784)
(2.70446 -0.0132544 -0.138233)
(2.76775 -0.00989099 -0.109524)
(-0.353209 0.0249756 0.372259)
(-0.671973 0.00300303 0.288624)
(-0.922429 -0.00818834 0.240637)
(-1.14782 -0.0135201 0.219841)
(-1.36021 -0.0156316 0.205126)
(-1.55654 -0.0157648 0.187543)
(-1.73193 -0.0144222 0.165097)
(-1.91263 -0.0122024 0.139427)
(-2.04947 -0.00625833 0.118833)
(-1.76633 -0.000696789 0.119774)
(-1.40411 0.00389097 0.0118008)
(-1.25843 0.00303018 -0.109782)
(-1.06846 0.00313992 -0.191153)
(-0.871036 0.00296217 -0.245237)
(-0.649132 0.0027509 -0.287825)
(-0.410189 0.00217853 -0.333661)
(-0.157496 -3.02454e-06 -0.380554)
(0.0980373 -0.0041219 -0.396911)
(0.350336 -0.00716205 -0.401222)
(0.612302 -0.00878259 -0.404446)
(0.863719 -0.00972202 -0.3982)
(1.11091 -0.0101199 -0.389941)
(1.34809 -0.0104114 -0.380389)
(1.57445 -0.0113891 -0.363683)
(1.78787 -0.0120182 -0.340824)
(1.99041 -0.0119843 -0.318979)
(2.17692 -0.0120851 -0.297701)
(2.35098 -0.0123524 -0.275619)
(2.50691 -0.0123696 -0.256746)
(2.65854 -0.0125422 -0.237798)
(2.77046 -0.0120819 -0.218393)
(2.89034 -0.0122267 -0.205162)
(2.87245 -0.0107725 -0.16083)
(2.85113 -0.0103173 -0.13736)
(2.73469 -0.01157 -0.144433)
(2.79807 -0.00955967 -0.113401)
(-0.366364 0.021629 0.367733)
(-0.676874 0.00108508 0.285113)
(-0.922717 -0.00725954 0.238588)
(-1.14613 -0.0105763 0.218482)
(-1.35774 -0.0111948 0.204132)
(-1.55355 -0.0103348 0.18678)
(-1.72815 -0.00883606 0.164583)
(-1.90788 -0.00771037 0.139679)
(-2.0433 -0.00543853 0.119834)
(-1.76084 -0.00883624 0.119663)
(-1.39929 -0.00793138 0.0118871)
(-1.25286 -0.00432391 -0.110181)
(-1.06229 -0.00248036 -0.191836)
(-0.864087 -0.00111131 -0.24602)
(-0.641183 -0.000564153 -0.289055)
(-0.401107 -0.000607737 -0.335489)
(-0.147263 -0.000507327 -0.38221)
(0.108635 0.000753939 -0.399001)
(0.361708 0.00162671 -0.403626)
(0.624346 0.00123595 -0.406852)
(0.876445 0.000835947 -0.400871)
(1.12406 -1.3583e-05 -0.392738)
(1.36164 -0.000878368 -0.38344)
(1.58819 -0.00181941 -0.366539)
(1.80191 -0.00265914 -0.343163)
(2.00472 -0.00350796 -0.320876)
(2.19164 -0.00450876 -0.299325)
(2.366 -0.00527775 -0.277208)
(2.52228 -0.00604652 -0.258438)
(2.6741 -0.00628506 -0.239635)
(2.78601 -0.00662867 -0.220362)
(2.9058 -0.0060604 -0.20713)
(2.88723 -0.00685167 -0.162708)
(2.86564 -0.0062978 -0.138809)
(2.75122 -0.00689791 -0.145958)
(2.81491 -0.00597223 -0.115118)
(-0.354678 0.0164427 0.362996)
(-0.663036 -0.00205034 0.283848)
(-0.908893 -0.00644774 0.237876)
(-1.13221 -0.00715978 0.217864)
(-1.34384 -0.00600119 0.203483)
(-1.53985 -0.0040401 0.186069)
(-1.71511 -0.00244317 0.16416)
(-1.89587 -0.00286292 0.140081)
(-2.03309 -0.00307876 0.119125)
(-1.75534 -0.0122904 0.11882)
(-1.41274 -0.0177384 0.0124799)
(-1.27273 -0.00949398 -0.10716)
(-1.08812 -0.00604131 -0.187665)
(-0.893304 -0.00327632 -0.241864)
(-0.673169 -0.00226485 -0.284294)
(-0.434701 -0.00236029 -0.329904)
(-0.181669 -0.00053321 -0.374849)
(0.075611 0.00589632 -0.391287)
(0.330559 0.01103 -0.396848)
(0.593552 0.0117445 -0.400588)
(0.847421 0.0118762 -0.395237)
(1.09631 0.0106478 -0.387302)
(1.33539 0.00921264 -0.3778)
(1.5634 0.00855465 -0.361076)
(1.7783 0.00770558 -0.338231)
(1.98222 0.00595561 -0.316643)
(2.1696 0.00410577 -0.295493)
(2.34464 0.00300875 -0.273652)
(2.50142 0.0016398 -0.25508)
(2.65386 0.00166638 -0.236722)
(2.76734 0.000477237 -0.217166)
(2.88909 0.00214639 -0.205979)
(2.87973 -0.000388555 -0.162455)
(2.86146 -0.00181655 -0.136446)
(2.75076 -0.0010466 -0.142868)
(2.81464 -0.0010356 -0.113741)
(-0.324471 0.0103922 0.361252)
(-0.641014 -0.00199499 0.284719)
(-0.889875 -0.00477524 0.23863)
(-1.11357 -0.00387897 0.218728)
(-1.32466 -0.00110995 0.204454)
(-1.51969 0.00240629 0.187046)
(-1.69437 0.00540864 0.165216)
(-1.87626 0.00548616 0.140521)
(-2.01885 0.00190995 0.115057)
(-1.75292 -0.0230533 0.113363)
(-1.4646 -0.0291851 0.0073053)
(-1.3412 -0.0152789 -0.101204)
(-1.16931 -0.0101019 -0.178797)
(-0.981943 -0.00618271 -0.23334)
(-0.767732 -0.00507667 -0.273858)
(-0.533906 -0.00604261 -0.316666)
(-0.283667 -0.00354802 -0.35558)
(-0.026033 0.00784185 -0.370779)
(0.234008 0.0172428 -0.379209)
(0.497189 0.0191816 -0.383519)
(0.754314 0.0197889 -0.378983)
(1.00617 0.0180312 -0.370931)
(1.24852 0.0155802 -0.360941)
(1.47981 0.0147845 -0.345502)
(1.69786 0.0140732 -0.324471)
(1.90427 0.0119727 -0.303921)
(2.09424 0.009773 -0.283655)
(2.27151 0.00871239 -0.262651)
(2.43101 0.00691445 -0.244703)
(2.58528 0.00743592 -0.227024)
(2.70491 0.0053159 -0.207251)
(2.82946 0.0080014 -0.201539)
(2.84938 0.00569898 -0.162002)
(2.83963 0.0013641 -0.129615)
(2.73584 0.00362464 -0.136573)
(2.80017 0.00299167 -0.109335)
(-0.33319 0.0214026 0.358895)
(-0.645632 0.00030687 0.284364)
(-0.89122 -0.00420474 0.24057)
(-1.11339 -0.00282066 0.222129)
(-1.32359 0.000887945 0.209188)
(-1.51788 0.00544462 0.193335)
(-1.69239 0.0097749 0.173697)
(-1.87338 0.0132604 0.152852)
(-2.02279 0.00827582 0.128959)
(-1.79364 -0.016535 0.113593)
(-1.6159 -0.0227546 0.00689515)
(-1.52588 -0.00391963 -0.0840465)
(-1.37431 0.0016615 -0.15514)
(-1.19768 0.00619304 -0.205684)
(-0.990944 0.00778513 -0.242441)
(-0.76329 0.00794583 -0.274779)
(-0.519108 0.0115224 -0.302185)
(-0.261695 0.0209457 -0.325789)
(0.00756735 0.0294124 -0.342696)
(0.275129 0.0349648 -0.34286)
(0.537706 0.0367924 -0.339281)
(0.796716 0.0340558 -0.333301)
(1.04491 0.031689 -0.323625)
(1.28374 0.0298773 -0.311402)
(1.51059 0.0269511 -0.294105)
(1.72314 0.0243693 -0.274168)
(1.9202 0.0215356 -0.254949)
(2.10327 0.0202898 -0.234942)
(2.27045 0.0174058 -0.21808)
(2.4292 0.0178997 -0.200771)
(2.56347 0.012996 -0.184758)
(2.69362 0.0142529 -0.178249)
(2.76872 0.0117675 -0.146244)
(2.79834 0.00299682 -0.121664)
(2.70679 0.00567936 -0.132499)
(2.77392 0.00291231 -0.105957)
(-0.350105 0.0156921 0.351937)
(-0.650791 -0.0047432 0.283986)
(-0.892217 -0.00711333 0.243319)
(-1.11333 -0.00460449 0.226916)
(-1.32289 -0.000618369 0.21622)
(-1.51551 0.00376611 0.203424)
(-1.68534 0.00764206 0.187671)
(-1.85296 0.00824376 0.171367)
(-1.98421 0.00302752 0.147247)
(-1.83418 -0.0209141 0.105666)
(-1.78377 -0.0240343 0.00416789)
(-1.71449 -0.00408295 -0.0650253)
(-1.58006 0.00128669 -0.128396)
(-1.40959 0.00586131 -0.172165)
(-1.20698 0.00781938 -0.205441)
(-0.981876 0.00926131 -0.233127)
(-0.738285 0.0126758 -0.25625)
(-0.480063 0.0189959 -0.274985)
(-0.211644 0.0258178 -0.286395)
(0.0603947 0.0327941 -0.290429)
(0.331224 0.0367483 -0.2925)
(0.594703 0.0347119 -0.288214)
(0.849532 0.0333317 -0.280131)
(1.09359 0.0320355 -0.269614)
(1.3222 0.0289758 -0.252948)
(1.53958 0.0261277 -0.235802)
(1.74084 0.0227579 -0.218352)
(1.92716 0.0210387 -0.200361)
(2.09949 0.0185543 -0.184349)
(2.25923 0.0182659 -0.169534)
(2.40568 0.0135432 -0.155449)
(2.53818 0.0131274 -0.147042)
(2.66541 0.0107097 -0.129539)
(2.75142 -0.000788477 -0.118976)
(2.68199 0.00348938 -0.130782)
(2.75351 -0.00146425 -0.10316)
(-0.354091 0.00897185 0.345568)
(-0.637886 -0.0133454 0.284962)
(-0.878832 -0.0103666 0.244986)
(-1.10304 -0.00638614 0.228418)
(-1.31627 -0.00303571 0.218054)
(-1.51293 -0.000787032 0.206427)
(-1.68644 -0.000418243 0.193088)
(-1.85915 -0.00514188 0.178774)
(-2.03304 -0.0204061 0.135063)
(-2.19469 -0.0131644 0.079847)
(-2.22207 -0.00694608 0.0198492)
(-2.18294 0.00757916 -0.0330259)
(-2.07117 0.0150736 -0.082999)
(-1.9135 0.0189515 -0.115757)
(-1.72037 0.0203967 -0.140784)
(-1.50069 0.0211698 -0.161052)
(-1.25977 0.0226774 -0.177493)
(-1.00155 0.0254706 -0.190746)
(-0.730505 0.0286121 -0.199495)
(-0.450672 0.0318621 -0.204103)
(-0.167811 0.0345369 -0.215927)
(0.11164 0.0298908 -0.21239)
(0.384013 0.0260739 -0.206539)
(0.643657 0.02358 -0.200298)
(0.88885 0.0214395 -0.187102)
(1.12123 0.0190389 -0.173319)
(1.33645 0.0159616 -0.159184)
(1.53714 0.0138941 -0.144922)
(1.72328 0.0123745 -0.133029)
(1.89555 0.0110534 -0.123208)
(2.05563 0.00867523 -0.114416)
(2.20496 0.00515633 -0.105277)
(2.34452 0.00186178 -0.0954999)
(2.47612 -0.00509991 -0.0856598)
(2.60255 -0.000302704 -0.0815585)
(2.73519 -0.007875 -0.0930293)
(-0.271553 -0.0442101 0.335752)
(-0.57109 -0.0178342 0.293598)
(-0.828891 -0.0073955 0.24682)
(-1.0609 -0.00331033 0.226828)
(-1.27846 -0.00100926 0.213576)
(-1.47877 0.000475059 0.197833)
(-1.65663 0.000682101 0.178239)
(-1.81532 -0.00325587 0.160051)
(-1.95637 -0.017056 0.150066)
(-2.09349 -0.00832083 0.0811783)
(-2.12298 -0.00178322 0.014215)
(-2.07872 0.00261845 -0.0434869)
(-1.97085 0.00545505 -0.0935881)
(-1.81433 0.00748945 -0.126779)
(-1.62298 0.00897509 -0.152061)
(-1.40483 0.0103388 -0.171832)
(-1.16521 0.0118805 -0.187114)
(-0.908082 0.0139314 -0.198163)
(-0.637177 0.0162462 -0.205605)
(-0.357499 0.0184055 -0.210059)
(-0.0758616 0.0210606 -0.221009)
(0.20065 0.020588 -0.216568)
(0.473799 0.0208216 -0.207766)
(0.733049 0.0197105 -0.199535)
(0.979288 0.0181643 -0.187206)
(1.21177 0.0155735 -0.175023)
(1.42831 0.0129906 -0.162884)
(1.63029 0.0111382 -0.1516)
(1.81679 0.00950378 -0.141693)
(1.98941 0.0078526 -0.133855)
(2.14853 0.00584412 -0.124481)
(2.29646 0.00344921 -0.115697)
(2.43139 0.00254608 -0.104269)
(2.56246 -0.000609479 -0.100768)
(2.67131 -0.00140404 -0.0936567)
(2.79982 -0.00342134 -0.108232)
(0.0380059 -0.00843817 0.0559179)
(0.0548689 -0.00732582 -0.12136)
(0.207032 -0.00572362 -0.238881)
(0.364649 -0.00298774 -0.331804)
(0.549781 -0.00237165 -0.398864)
(0.750873 -0.00200756 -0.448138)
(0.965198 -0.00164462 -0.487328)
(1.18638 -0.00128747 -0.517169)
(1.40961 -0.00140363 -0.536666)
(1.63178 -0.00180157 -0.547844)
(1.85092 -0.00234464 -0.551041)
(2.06263 -0.00304538 -0.544864)
(2.26487 -0.00291041 -0.52837)
(2.45495 -0.00266408 -0.504703)
(2.63582 -0.00253133 -0.479409)
(2.80283 -0.00264601 -0.450037)
(2.95993 -0.00263951 -0.420724)
(3.10472 -0.00287099 -0.390971)
(3.23938 -0.00302862 -0.363294)
(3.36262 -0.00345593 -0.336209)
(3.47864 -0.00326749 -0.313301)
(3.58194 -0.00355335 -0.290095)
(3.68086 -9.30885e-05 -0.27287)
(3.77135 0.000385092 -0.254134)
(-0.210339 0.0133599 0.623762)
(-0.339822 0.00593685 0.481027)
(-0.431202 0.00169754 0.415532)
(-0.520213 -0.00137139 0.389238)
(-0.598332 -0.00412703 0.362599)
(-0.653813 -0.00703015 0.325579)
(-0.681962 -0.0103645 0.278214)
(-0.675878 -0.0127702 0.228264)
(-0.489217 -0.0158058 0.170065)
(-0.0955633 0.0055909 0.072885)
(-0.0198842 0.0185788 -0.114902)
(0.129334 0.0074326 -0.226739)
(0.288842 0.00681741 -0.318784)
(0.4734 0.0062927 -0.385599)
(0.674506 0.0059124 -0.435676)
(0.888325 0.00601756 -0.475444)
(1.11058 0.00618162 -0.50617)
(1.33587 0.0040011 -0.526668)
(1.56244 0.00157785 -0.538504)
(1.78486 -0.00156876 -0.540248)
(1.99992 -0.00417218 -0.533318)
(2.20573 -0.00412864 -0.518585)
(2.39954 -0.00388767 -0.496394)
(2.58193 -0.00363997 -0.470928)
(2.75306 -0.0038251 -0.442661)
(2.9118 -0.00397059 -0.413777)
(3.06 -0.00440704 -0.385322)
(3.1949 -0.00496391 -0.357263)
(3.32111 -0.00584557 -0.33126)
(3.43592 -0.00614417 -0.307218)
(3.54295 -0.00666012 -0.285476)
(3.63579 -0.00420961 -0.265522)
(3.74123 -0.00858266 -0.249979)
(3.80355 -0.00661168 -0.227354)
(3.70642 -0.000255102 -0.222277)
(3.76794 0.00197417 -0.209232)
(-0.214449 0.0265482 0.62258)
(-0.334965 0.00921986 0.478149)
(-0.424242 0.00175318 0.411505)
(-0.511833 -0.00299528 0.384112)
(-0.589302 -0.00688855 0.356304)
(-0.646689 -0.0110006 0.318549)
(-0.684937 -0.0154875 0.2719)
(-0.707762 -0.0190829 0.226758)
(-0.561813 -0.0180142 0.179627)
(-0.0746685 0.00779267 0.0634378)
(0.0923002 0.0213249 -0.135361)
(0.268593 0.0129795 -0.244277)
(0.445697 0.011558 -0.334517)
(0.638766 0.0108724 -0.400659)
(0.845343 0.0102856 -0.452167)
(1.06132 0.0104421 -0.493246)
(1.28273 0.00999173 -0.524862)
(1.50514 0.0046278 -0.544528)
(1.72713 -0.000903722 -0.554911)
(1.94306 -0.00439862 -0.553217)
(2.15136 -0.00656117 -0.543102)
(2.35108 -0.00677898 -0.526773)
(2.53936 -0.0066378 -0.504065)
(2.71568 -0.00677031 -0.478815)
(2.88199 -0.00709935 -0.451559)
(3.0351 -0.00713155 -0.422749)
(3.17835 -0.00683036 -0.395235)
(3.30852 -0.00722572 -0.367126)
(3.42909 -0.00704149 -0.341803)
(3.53799 -0.00811359 -0.316605)
(3.63537 -0.00668121 -0.295365)
(3.71785 -0.0074672 -0.274033)
(3.78161 -0.00205661 -0.256694)
(3.84288 -0.00873217 -0.233509)
(3.89274 -0.00010186 -0.240539)
(4.10407 -0.00310937 -0.253883)
(-0.192688 0.0236572 0.620091)
(-0.313621 0.0082214 0.47691)
(-0.403963 0.000989644 0.407355)
(-0.491471 -0.00412669 0.378554)
(-0.569269 -0.00777483 0.349276)
(-0.628081 -0.0111004 0.30926)
(-0.671998 -0.0139448 0.260784)
(-0.70903 -0.0144834 0.217229)
(-0.571293 -0.00706809 0.175719)
(-0.011341 0.0134507 0.0567607)
(0.234766 0.0243899 -0.151371)
(0.444803 0.0194136 -0.264934)
(0.643726 0.017268 -0.355279)
(0.849676 0.0154803 -0.424212)
(1.06547 0.0145963 -0.478424)
(1.28699 0.0148943 -0.522119)
(1.50998 0.0142702 -0.556967)
(1.72969 0.00829409 -0.575794)
(1.94474 0.00161355 -0.582742)
(2.15546 -0.00107833 -0.581378)
(2.35787 -0.00252881 -0.569755)
(2.55015 -0.00306397 -0.551455)
(2.73205 -0.00303598 -0.529388)
(2.90091 -0.00400699 -0.503456)
(3.05986 -0.00513658 -0.474237)
(3.20702 -0.00550565 -0.444362)
(3.34372 -0.00558767 -0.416111)
(3.46803 -0.00621265 -0.387235)
(3.58116 -0.00609869 -0.36129)
(3.68346 -0.00728483 -0.335268)
(3.76669 -0.00616341 -0.312945)
(3.83721 -0.00809915 -0.289387)
(3.86071 -0.00557249 -0.27099)
(3.90576 -0.00634825 -0.245725)
(3.9411 -0.00196067 -0.25806)
(4.18958 -0.000666964 -0.269062)
(-0.169813 0.0280004 0.619973)
(-0.295737 0.0108053 0.474654)
(-0.386608 0.000691622 0.403427)
(-0.474248 -0.00539994 0.374135)
(-0.552799 -0.00899256 0.344071)
(-0.612839 -0.0113892 0.302504)
(-0.658574 -0.0126229 0.252684)
(-0.697872 -0.0118465 0.209936)
(-0.560624 -0.00571429 0.173936)
(0.0187411 0.005351 0.0608506)
(0.311627 0.0150752 -0.155412)
(0.543014 0.0140487 -0.274411)
(0.761233 0.0131976 -0.366833)
(0.978129 0.0116735 -0.437463)
(1.20178 0.0110271 -0.493492)
(1.42895 0.0111617 -0.538181)
(1.6555 0.0103278 -0.575567)
(1.87427 0.00677519 -0.596355)
(2.08764 0.00279819 -0.602954)
(2.2963 0.000511122 -0.601328)
(2.49587 -0.0010675 -0.588152)
(2.68599 -0.00185238 -0.569427)
(2.86479 -0.00224145 -0.54745)
(3.0311 -0.0035005 -0.520678)
(3.18655 -0.00469748 -0.490605)
(3.33106 -0.00527954 -0.460169)
(3.46383 -0.00563688 -0.431493)
(3.58502 -0.00626858 -0.401925)
(3.69311 -0.0062623 -0.375665)
(3.79111 -0.00720354 -0.348537)
(3.86458 -0.00646083 -0.326175)
(3.92655 -0.00810788 -0.300604)
(3.92982 -0.00658002 -0.281834)
(3.96422 -0.00624634 -0.256493)
(3.99633 -0.00315841 -0.271707)
(4.25323 -0.00197886 -0.280117)
(-0.180425 0.0323067 0.61634)
(-0.295834 0.0115755 0.468574)
(-0.382051 -0.000731844 0.398646)
(-0.467995 -0.00736091 0.370566)
(-0.546537 -0.0106419 0.34102)
(-0.607059 -0.0121164 0.29933)
(-0.652835 -0.0119339 0.249433)
(-0.691189 -0.0103196 0.207307)
(-0.551433 -0.00632166 0.173489)
(0.0341293 -0.00233812 0.0628407)
(0.344948 0.00320553 -0.15624)
(0.586319 0.00453027 -0.278129)
(0.814615 0.00526335 -0.37209)
(1.03799 0.00544946 -0.44373)
(1.26674 0.00575772 -0.501037)
(1.4977 0.00610834 -0.546902)
(1.72688 0.00572578 -0.585566)
(1.94606 0.00444536 -0.607529)
(2.16029 0.00306238 -0.614185)
(2.3696 0.001834 -0.61176)
(2.56864 0.000849654 -0.598498)
(2.75842 7.62424e-05 -0.58)
(2.93692 -0.000608708 -0.55843)
(3.10214 -0.00170905 -0.531174)
(3.25694 -0.00268316 -0.500812)
(3.40015 -0.00325027 -0.469928)
(3.53224 -0.00386846 -0.44092)
(3.65177 -0.00462866 -0.410773)
(3.7584 -0.00506249 -0.384039)
(3.8546 -0.00573632 -0.356035)
(3.92405 -0.00568587 -0.333532)
(3.98176 -0.00648385 -0.306841)
(3.97724 -0.00594336 -0.288766)
(4.00686 -0.0060206 -0.262404)
(4.03768 -0.00410802 -0.278697)
(4.29618 -0.00318252 -0.286505)
(-0.187891 0.0281384 0.610635)
(-0.297294 0.00695057 0.463199)
(-0.379884 -0.00392027 0.394947)
(-0.464064 -0.00956328 0.3679)
(-0.542171 -0.0119712 0.338994)
(-0.602647 -0.0125219 0.297443)
(-0.647872 -0.0115277 0.247778)
(-0.685018 -0.00990065 0.20613)
(-0.544549 -0.00849381 0.172521)
(0.0391185 -0.0103296 0.0630909)
(0.349135 -0.00994203 -0.156107)
(0.591882 -0.00716629 -0.27857)
(0.82145 -0.00489062 -0.372984)
(1.0461 -0.00266553 -0.444931)
(1.27614 -0.00129225 -0.502558)
(1.5083 -0.000670937 -0.548841)
(1.73863 -0.000362914 -0.587886)
(1.95871 0.000542849 -0.610378)
(2.17426 0.00161816 -0.617152)
(2.38457 0.00197467 -0.614634)
(2.58452 0.00207547 -0.601648)
(2.77505 0.00161135 -0.583383)
(2.95406 0.000930841 -0.562208)
(3.11937 0.000110662 -0.534907)
(3.27501 -0.000708463 -0.504359)
(3.41861 -0.00157168 -0.473022)
(3.552 -0.00254222 -0.443686)
(3.6715 -0.00339071 -0.413298)
(3.77866 -0.00427394 -0.386519)
(3.87435 -0.0046981 -0.358468)
(3.94372 -0.00520407 -0.33608)
(4.00072 -0.00493064 -0.309428)
(3.99515 -0.00496282 -0.291521)
(4.02442 -0.00514251 -0.265126)
(4.05502 -0.00442238 -0.281144)
(4.31341 -0.00388677 -0.289)
(-0.181589 0.0219517 0.604976)
(-0.291174 0.000423207 0.46159)
(-0.373973 -0.0079457 0.393902)
(-0.457892 -0.0118428 0.367087)
(-0.53603 -0.0129799 0.338221)
(-0.596576 -0.012396 0.296387)
(-0.641755 -0.0106124 0.246699)
(-0.679128 -0.00913588 0.205492)
(-0.542496 -0.0095823 0.171452)
(0.0291673 -0.0156674 0.0622334)
(0.321151 -0.0206828 -0.154315)
(0.556363 -0.0169078 -0.274812)
(0.778285 -0.0133573 -0.368401)
(0.998979 -0.00939211 -0.439988)
(1.22638 -0.00732877 -0.497222)
(1.45738 -0.00676228 -0.543053)
(1.68773 -0.00609829 -0.581394)
(1.90972 -0.00311508 -0.603334)
(2.12667 0.00043766 -0.610792)
(2.33854 0.00216787 -0.609132)
(2.54082 0.00330246 -0.596639)
(2.73307 0.00326768 -0.578625)
(2.91398 0.0026698 -0.557307)
(3.08153 0.00231096 -0.530272)
(3.23819 0.00179917 -0.499889)
(3.38325 0.000719073 -0.469212)
(3.51633 -0.000519925 -0.440077)
(3.63713 -0.00127922 -0.409875)
(3.74457 -0.00241396 -0.383171)
(3.84175 -0.00239958 -0.355501)
(3.91352 -0.00344251 -0.333256)
(3.97417 -0.00229476 -0.307348)
(3.97518 -0.00291578 -0.289088)
(4.01005 -0.00374788 -0.263448)
(4.04191 -0.00407873 -0.278519)
(4.30042 -0.00388287 -0.287017)
(-0.168966 0.0150936 0.601379)
(-0.285358 -0.00371942 0.462404)
(-0.3704 -0.0113947 0.3951)
(-0.45491 -0.0142732 0.368721)
(-0.533258 -0.0143553 0.340067)
(-0.593624 -0.0125616 0.298231)
(-0.638604 -0.0096519 0.248456)
(-0.676868 -0.00767838 0.207043)
(-0.54848 -0.00939624 0.171786)
(-0.00276123 -0.0221499 0.0590907)
(0.247598 -0.0303699 -0.149269)
(0.464942 -0.0242511 -0.26541)
(0.670062 -0.0196979 -0.357315)
(0.882804 -0.0153403 -0.42817)
(1.10462 -0.0134145 -0.484388)
(1.33246 -0.0136688 -0.529645)
(1.5616 -0.0128886 -0.565444)
(1.78586 -0.00727592 -0.585783)
(2.0057 -0.00134276 -0.594813)
(2.21988 0.0010639 -0.59448)
(2.42636 0.00298129 -0.582835)
(2.62165 0.00339171 -0.56479)
(2.80596 0.00276751 -0.543223)
(2.97703 0.00297531 -0.517171)
(3.13677 0.00309334 -0.487766)
(3.28474 0.00226258 -0.457992)
(3.42062 0.00100541 -0.429402)
(3.54431 0.000401311 -0.399963)