/*--------------------------------*- C++ -*----------------------------------*\
  =========                 |
  \\      /  F ield         | OpenFOAM: The Open Source CFD Toolbox
   \\    /   O peration     | Website:  https://openfoam.org
    \\  /    A nd           | Version:  7
     \\/     M anipulation  |
\*---------------------------------------------------------------------------*/
FoamFile
{
    version     2.0;
    format      ascii;
    class       volScalarField;
    location    "59";
    object      ddt0(h);
}
// * * * * * * * * * * * * * * * * * * * * * * * * * * * * * * * * * * * * * //

dimensions      [0 1 -1 0 0 0 0];

internalField   nonuniform List<scalar> 
400
(
-3.71711e-09
-1.7265e-09
-2.7882e-10
-3.81316e-09
-1.90052e-09
-1.54339e-09
-8.20419e-09
-9.37022e-09
2.28494e-09
1.93753e-09
5.26377e-10
-4.94488e-10
-1.15189e-09
-1.17452e-09
-5.46978e-10
2.90369e-11
1.65807e-10
5.20816e-11
-5.47691e-11
-5.84428e-11
-2.18298e-09
-2.40088e-09
-2.53753e-09
-1.93749e-09
-2.24299e-09
-5.88167e-09
7.7318e-09
3.27116e-09
-2.84352e-09
-2.13138e-09
-1.50078e-09
-8.09123e-10
-6.02067e-10
-3.43714e-10
-2.45152e-12
1.26708e-10
7.6717e-11
1.0279e-11
8.94393e-12
1.169e-11
-1.86028e-09
-3.5768e-09
-4.3776e-09
-1.12021e-09
-3.46977e-09
2.56398e-09
-7.79262e-09
6.45415e-11
-1.55805e-09
-2.97334e-09
-1.93747e-09
-1.14215e-09
-4.87943e-10
2.03046e-10
4.31345e-10
2.46984e-10
7.43996e-11
4.58782e-11
9.24931e-11
4.84944e-11
-1.61863e-09
-2.13397e-09
-2.97243e-09
-1.82992e-09
-2.25928e-09
-1.46572e-09
-7.05515e-10
1.24035e-09
-2.89789e-09
-2.38152e-09
-9.4034e-10
-6.60433e-10
-1.80451e-10
3.27055e-10
2.93394e-10
-7.21119e-12
-9.45937e-11
6.0276e-11
1.42359e-10
4.91736e-11
-1.69239e-09
-1.85938e-09
-2.29619e-09
-3.07808e-09
-1.22431e-09
-3.90364e-09
-6.3492e-10
-2.6601e-09
-3.36288e-09
-8.04516e-10
-7.74147e-10
-6.19881e-10
-1.83932e-11
1.40856e-10
-6.06811e-11
-2.72839e-10
-2.83279e-10
-9.90834e-11
-9.51603e-12
-3.54541e-11
-1.48796e-09
-1.54237e-09
-1.28542e-09
-2.57577e-09
-1.38373e-09
-2.71904e-09
-1.15453e-09
-3.09011e-09
-9.37076e-10
-4.66942e-10
-1.19925e-09
-5.68654e-10
-9.92675e-11
-4.25347e-10
-5.58246e-10
-3.15875e-10
-1.88667e-10
-2.02268e-10
-7.99389e-11
6.90331e-12
-1.20503e-09
-1.30255e-09
-1.07325e-09
-1.2132e-09
-2.20331e-09
-1.48055e-09
-1.8305e-09
-1.62511e-09
-4.80094e-10
-1.36613e-09
-1.06131e-09
-2.97043e-10
-4.06129e-10
-9.17047e-10
-8.17227e-10
-1.21658e-10
1.91355e-10
-1.864e-11
1.41944e-11
8.29957e-11
-9.05461e-10
-7.22889e-10
-1.41897e-09
-5.49338e-10
-1.71969e-09
-7.85799e-10
-1.77625e-09
-6.0839e-10
-9.78043e-10
-1.22807e-09
-1.88206e-10
-5.24684e-10
-9.61449e-10
-8.17275e-10
-5.48641e-10
-1.4215e-11
4.17466e-10
3.75821e-10
2.9907e-10
1.62539e-10
-6.9084e-10
-4.96811e-10
-9.13553e-10
-6.7494e-10
-6.19773e-10
-3.53911e-10
-7.46481e-10
-2.31899e-10
-8.24534e-10
-4.3828e-10
-1.90583e-10
-8.15278e-10
-6.15156e-10
5.16523e-11
9.59055e-11
-4.74811e-11
1.80767e-10
4.77608e-10
4.82828e-10
1.96974e-10
-3.36892e-10
-5.56283e-10
-5.88425e-11
-3.12485e-10
3.51061e-10
-5.31252e-11
2.43334e-10
-4.05091e-10
-2.16747e-10
-7.46985e-11
-5.92554e-10
-1.7396e-10
3.24741e-10
5.08948e-10
4.95678e-10
1.22612e-10
-7.56121e-11
1.61832e-10
2.11313e-10
5.22956e-11
1.03985e-10
-1.15526e-10
5.59943e-10
4.00322e-11
7.47349e-10
1.74756e-10
7.08158e-10
-2.07136e-10
2.09778e-10
2.74411e-10
-4.40709e-10
1.76753e-10
5.772e-10
5.35857e-10
5.17129e-10
9.59749e-11
-2.42644e-10
-1.05527e-10
-1.34325e-10
-1.39399e-10
6.03049e-10
8.17227e-10
6.95539e-10
2.37453e-10
6.43182e-10
5.61328e-10
7.2885e-10
6.87917e-10
3.34143e-10
7.34021e-10
4.60041e-10
-5.18252e-11
1.72919e-11
3.85839e-10
2.83719e-10
-1.81892e-10
-2.68094e-10
-1.25119e-10
-2.99218e-10
-2.41499e-10
1.09121e-09
1.45677e-09
6.34274e-10
1.15464e-09
4.49467e-10
1.28537e-09
6.05176e-10
1.64585e-09
7.86269e-10
7.72319e-10
1.46213e-09
4.8506e-10
-3.44393e-10
-2.88236e-10
-2.21758e-10
-1.05968e-10
9.55236e-11
-6.83305e-11
-4.15219e-10
-2.70003e-10
1.35108e-09
1.35218e-09
1.43831e-09
2.01437e-09
5.61522e-10
1.89815e-09
9.57126e-10
1.75527e-09
1.90147e-09
6.96659e-10
1.24865e-09
1.31555e-09
3.92325e-10
-4.40382e-10
-5.16841e-10
4.87981e-11
2.90579e-10
-1.26213e-10
-3.60016e-10
-1.43164e-10
1.34572e-09
1.42117e-09
2.30301e-09
1.68399e-09
2.01941e-09
1.8377e-09
1.93267e-09
7.75195e-10
2.55946e-09
1.66328e-09
8.24088e-10
1.29209e-09
1.10397e-09
1.41354e-10
-2.42452e-10
5.94055e-11
1.34358e-10
-1.43244e-10
-1.45856e-10
2.4356e-12
1.57682e-09
1.87479e-09
2.56906e-09
1.73427e-09
3.74182e-09
3.1101e-10
3.44841e-09
-7.94498e-10
8.2786e-10
2.07115e-09
9.5199e-10
9.43256e-10
1.20686e-09
7.13225e-10
1.74805e-10
-4.26766e-11
-1.18093e-10
-4.03293e-11
1.27335e-10
1.09237e-10
1.99137e-09
1.95804e-09
1.63644e-09
2.25927e-09
2.97733e-09
3.64614e-10
3.59804e-09
3.86064e-09
-1.80328e-09
5.44037e-10
7.70235e-10
4.71273e-10
8.07604e-10
8.9997e-10
4.99919e-10
4.04403e-12
-2.16344e-10
-1.63865e-11
2.16426e-10
1.35093e-10
2.9364e-09
2.51052e-09
1.35609e-09
3.87387e-09
2.08768e-09
4.13934e-09
1.5127e-09
5.59231e-09
1.15256e-09
-6.73326e-10
7.6424e-11
9.91415e-11
3.65138e-10
6.9598e-10
5.42504e-10
1.01163e-10
-1.71079e-10
-6.63091e-11
1.48083e-10
1.31652e-10
2.57738e-09
2.33822e-09
1.82037e-09
2.95482e-09
9.63882e-10
1.21443e-10
-4.90024e-09
2.51799e-08
2.68516e-09
6.30072e-11
3.22555e-10
4.4416e-10
2.26836e-10
2.35897e-10
2.82085e-10
1.39586e-10
-6.06504e-11
-1.24725e-10
-7.91682e-11
-8.87563e-12
2.12911e-09
2.71497e-09
4.2106e-09
1.16236e-09
2.48897e-09
4.93472e-09
6.28185e-09
-2.50806e-08
3.15776e-09
3.77648e-09
2.17508e-09
9.20343e-10
-1.66801e-10
-4.4742e-10
-1.17182e-10
1.18687e-10
7.57301e-11
-6.14917e-11
-1.74736e-10
-9.62242e-11
)
;

boundaryField
{
    sides
    {
        type            calculated;
        value           nonuniform List<scalar> 
40
(
2.12911e-09
2.71497e-09
4.2106e-09
1.16236e-09
2.48897e-09
4.93472e-09
6.28185e-09
-2.50806e-08
3.15776e-09
3.77648e-09
2.17508e-09
9.20343e-10
-1.66801e-10
-4.4742e-10
-1.17182e-10
1.18687e-10
7.57301e-11
-6.14917e-11
-1.74736e-10
-9.62242e-11
-3.71711e-09
-1.7265e-09
-2.7882e-10
-3.81316e-09
-1.90052e-09
-1.54339e-09
-8.20419e-09
-9.37022e-09
2.28494e-09
1.93753e-09
5.26377e-10
-4.94488e-10
-1.15189e-09
-1.17452e-09
-5.46978e-10
2.90369e-11
1.65807e-10
5.20816e-11
-5.47691e-11
-5.84428e-11
)
;
    }
    inlet
    {
        type            calculated;
        value           nonuniform List<scalar> 
20
(
-3.71711e-09
-2.18298e-09
-1.86028e-09
-1.61863e-09
-1.69239e-09
-1.48796e-09
-1.20503e-09
-9.05461e-10
-6.9084e-10
-3.36892e-10
1.03985e-10
6.03049e-10
1.09121e-09
1.35108e-09
1.34572e-09
1.57682e-09
1.99137e-09
2.9364e-09
2.57738e-09
2.12911e-09
)
;
    }
    outlet
    {
        type            calculated;
        value           uniform 0;
    }
    frontAndBack
    {
        type            empty;
    }
}


// ************************************************************************* //
