/*--------------------------------*- C++ -*----------------------------------*\
  =========                 |
  \\      /  F ield         | OpenFOAM: The Open Source CFD Toolbox
   \\    /   O peration     | Website:  https://openfoam.org
    \\  /    A nd           | Version:  7
     \\/     M anipulation  |
\*---------------------------------------------------------------------------*/
FoamFile
{
    version     2.0;
    format      ascii;
    class       volVectorField;
    location    "59";
    object      ddt0(hU);
}
// * * * * * * * * * * * * * * * * * * * * * * * * * * * * * * * * * * * * * //

dimensions      [0 2 -2 0 0 0 0];

internalField   nonuniform List<vector> 
400
(
(-1.57788e-10 -1.25242e-10 0)
(-2.48398e-11 -2.03497e-10 0)
(1.78401e-10 5.08227e-11 0)
(3.34187e-10 1.80898e-10 0)
(4.77565e-10 1.22769e-10 0)
(1.01884e-09 1.55911e-10 0)
(-1.47475e-09 -5.14774e-10 0)
(-2.07245e-09 2.70721e-09 0)
(1.63922e-09 1.41419e-09 0)
(9.96832e-10 3.54573e-10 0)
(1.00564e-13 -1.61347e-10 0)
(-4.47776e-10 -3.54405e-10 0)
(-6.15286e-10 -4.26689e-10 0)
(-5.1768e-10 -3.8417e-10 0)
(-2.34181e-10 -2.52703e-10 0)
(1.35852e-10 -9.63186e-11 0)
(2.61571e-10 1.27709e-10 0)
(1.39376e-10 1.94901e-10 0)
(-1.83614e-11 3.6606e-10 0)
(-4.427e-10 2.84764e-10 0)
(-6.20347e-11 -2.01068e-10 0)
(1.86242e-11 -1.88772e-10 0)
(2.61607e-10 1.35576e-10 0)
(4.89584e-10 2.1147e-10 0)
(2.34237e-10 -2.12433e-10 0)
(-2.5549e-10 1.19921e-10 0)
(2.47857e-09 -1.19453e-09 0)
(1.20308e-09 1.21103e-09 0)
(-1.19793e-09 1.04807e-09 0)
(-7.54188e-10 2.03431e-10 0)
(-6.00519e-10 -1.80951e-10 0)
(-4.61162e-10 -2.654e-10 0)
(-4.34907e-10 -2.77311e-10 0)
(-3.1895e-10 -2.23159e-10 0)
(-1.12578e-10 -1.02655e-10 0)
(1.39345e-10 -4.17222e-11 0)
(2.17383e-10 2.00971e-11 0)
(9.3859e-11 2.93895e-11 0)
(-2.17012e-11 9.31979e-11 0)
(-3.67568e-10 1.49222e-10 0)
(1.1156e-10 -1.43551e-10 0)
(2.06456e-10 -2.4702e-10 0)
(1.82403e-10 -3.02891e-10 0)
(2.47752e-10 -1.89043e-10 0)
(1.93708e-10 -3.19436e-10 0)
(4.46978e-10 3.43115e-10 0)
(-4.51814e-10 1.13156e-10 0)
(1.12294e-09 -6.69106e-10 0)
(1.20905e-10 1.71782e-10 0)
(-8.05986e-10 1.51421e-10 0)
(-6.93044e-10 6.04254e-11 0)
(-5.03929e-10 -1.83505e-10 0)
(-3.54711e-10 -5.05157e-10 0)
(-7.14042e-11 -6.32826e-10 0)
(1.27453e-10 -5.02839e-10 0)
(2.75008e-10 -3.13497e-10 0)
(2.27727e-10 5.11641e-11 0)
(7.38943e-11 2.03242e-10 0)
(-1.23809e-11 5.66699e-10 0)
(-4.31254e-10 5.54306e-10 0)
(2.32613e-12 -7.05421e-11 0)
(3.18821e-12 -4.02366e-10 0)
(1.82775e-10 -6.51815e-10 0)
(3.0591e-10 -5.2861e-10 0)
(4.96274e-10 -2.57771e-10 0)
(3.18756e-10 -1.55657e-10 0)
(2.90785e-10 5.10001e-10 0)
(8.36858e-10 4.99358e-10 0)
(-3.30384e-10 -4.0379e-11 0)
(-6.30961e-10 9.97065e-11 0)
(-4.03495e-10 1.18769e-10 0)
(-4.54665e-10 -1.73101e-10 0)
(-3.84549e-10 -5.29641e-10 0)
(-1.19019e-10 -7.25534e-10 0)
(4.50723e-11 -6.74904e-10 0)
(9.98135e-11 -5.34855e-10 0)
(7.14192e-11 -8.39404e-11 0)
(8.50313e-12 1.51111e-10 0)
(6.17824e-12 7.02155e-10 0)
(-2.57802e-10 7.544e-10 0)
(-4.61667e-11 -9.65593e-11 0)
(-7.98683e-11 -3.42442e-10 0)
(1.47174e-10 -4.60181e-10 0)
(2.08613e-10 -5.22255e-10 0)
(3.95265e-10 -2.13548e-10 0)
(1.61045e-11 -4.32049e-10 0)
(4.04753e-10 2.37056e-10 0)
(-2.2753e-11 1.12067e-10 0)
(-4.57458e-10 3.25877e-11 0)
(1.80491e-11 3.92039e-10 0)
(-8.04777e-11 1.8608e-10 0)
(-2.21054e-10 -2.07409e-10 0)
(-1.41663e-10 -5.62083e-10 0)
(-2.76143e-11 -8.00898e-10 0)
(-4.23157e-11 -8.28284e-10 0)
(-8.68761e-11 -7.25954e-10 0)
(-1.19991e-10 -2.02072e-10 0)
(-9.9064e-11 1.41222e-10 0)
(-4.2755e-11 7.90079e-10 0)
(-2.68901e-10 8.53652e-10 0)
(-5.68484e-11 -1.92887e-10 0)
(-6.48082e-11 -3.98684e-10 0)
(1.45521e-10 -4.03857e-10 0)
(2.94999e-10 -4.87635e-10 0)
(3.85226e-10 -2.07326e-10 0)
(2.06902e-10 -9.94957e-11 0)
(3.49342e-10 3.93213e-10 0)
(-1.77826e-10 3.63189e-10 0)
(7.13894e-12 8.04728e-10 0)
(-4.14505e-11 7.53053e-10 0)
(-4.52554e-10 1.9492e-10 0)
(-4.20575e-10 -3.32124e-10 0)
(-2.40624e-10 -8.86759e-10 0)
(-1.23156e-10 -1.26434e-09 0)
(-6.5306e-11 -1.28228e-09 0)
(4.42449e-11 -1.02901e-09 0)
(9.00609e-11 -1.56468e-10 0)
(1.05452e-10 3.84899e-10 0)
(7.45673e-11 1.24693e-09 0)
(-3.12917e-10 1.19257e-09 0)
(-3.80244e-11 -2.05459e-10 0)
(-1.75835e-11 -3.96031e-10 0)
(6.43069e-11 -4.69058e-10 0)
(2.10916e-10 -4.60868e-10 0)
(1.09232e-10 -4.79729e-10 0)
(1.37818e-10 -1.77659e-10 0)
(7.06889e-11 2.11369e-11 0)
(5.05841e-11 3.12684e-10 0)
(2.55367e-10 6.69786e-10 0)
(-4.35111e-11 4.35389e-10 0)
(-1.41363e-10 9.8946e-11 0)
(-5.32044e-11 -2.94082e-10 0)
(-1.34791e-10 -9.11075e-10 0)
(-2.76399e-10 -1.35418e-09 0)
(-3.22124e-10 -1.36858e-09 0)
(-2.00192e-10 -1.1233e-09 0)
(-4.06075e-11 -2.45215e-10 0)
(1.6836e-11 3.17759e-10 0)
(8.38956e-12 1.15599e-09 0)
(-2.13475e-10 1.18067e-09 0)
(-1.43573e-11 -2.017e-10 0)
(3.30909e-11 -3.72562e-10 0)
(3.17019e-11 -5.1779e-10 0)
(1.64595e-10 -3.994e-10 0)
(7.3215e-11 -3.51669e-10 0)
(2.02909e-10 3.98617e-11 0)
(6.07149e-11 2.71865e-10 0)
(2.15244e-10 6.86537e-10 0)
(4.33991e-11 7.39576e-10 0)
(-2.01646e-10 4.92898e-10 0)
(-7.51758e-11 8.31207e-11 0)
(-1.88765e-10 -5.54006e-10 0)
(-3.20048e-10 -1.30218e-09 0)
(-2.38578e-10 -1.71597e-09 0)
(-1.46325e-10 -1.58359e-09 0)
(4.85867e-11 -1.15437e-09 0)
(2.23467e-10 -1.15995e-10 0)
(2.19868e-10 4.36927e-10 0)
(7.39839e-11 1.3289e-09 0)
(-2.70146e-10 1.31123e-09 0)
(1.38622e-11 -1.34749e-10 0)
(4.48037e-11 -3.67203e-10 0)
(3.44021e-11 -4.84935e-10 0)
(8.63933e-11 -4.93885e-10 0)
(8.88094e-11 -2.87414e-10 0)
(1.14059e-10 -3.74809e-11 0)
(4.75562e-11 2.66088e-10 0)
(1.19687e-10 5.95127e-10 0)
(-6.72291e-11 5.77049e-10 0)
(-6.66066e-11 5.42156e-10 0)
(-7.02619e-12 4.95932e-11 0)
(-1.51891e-10 -6.33372e-10 0)
(-1.61243e-10 -1.2354e-09 0)
(-4.48414e-11 -1.63211e-09 0)
(-1.10711e-11 -1.55536e-09 0)
(1.54186e-11 -1.13989e-09 0)
(6.98689e-11 -1.34177e-10 0)
(4.85601e-11 3.23833e-10 0)
(-3.15683e-11 1.17804e-09 0)
(-1.30165e-10 1.2791e-09 0)
(-1.37324e-11 -7.25348e-11 0)
(-7.8165e-12 -3.68953e-10 0)
(3.55159e-11 -4.83661e-10 0)
(8.37089e-12 -5.5924e-10 0)
(8.06337e-11 -3.19415e-10 0)
(2.29644e-11 -7.70817e-11 0)
(9.15179e-11 3.11312e-10 0)
(-8.54968e-12 6.17273e-10 0)
(-2.01764e-11 6.67924e-10 0)
(-2.20433e-11 6.14872e-10 0)
(-1.37533e-10 3.47494e-11 0)
(-3.75006e-11 -6.5567e-10 0)
(1.83565e-11 -1.25268e-09 0)
(-9.6896e-12 -1.66093e-09 0)
(6.90877e-11 -1.59058e-09 0)
(1.46246e-10 -1.16395e-09 0)
(7.54256e-11 -1.2982e-10 0)
(-1.66077e-11 3.46431e-10 0)
(5.77233e-12 1.2491e-09 0)
(1.95248e-11 1.32532e-09 0)
(-3.02757e-11 -1.08834e-10 0)
(-4.94143e-11 -3.25277e-10 0)
(1.88675e-13 -5.32794e-10 0)
(-6.59096e-11 -4.99115e-10 0)
(3.46916e-11 -3.51973e-10 0)
(-2.82662e-11 -2.87077e-11 0)
(7.0118e-11 2.95836e-10 0)
(-9.1113e-11 6.17538e-10 0)
(-5.20418e-11 7.76893e-10 0)
(-2.27718e-11 6.28749e-10 0)
(-1.24712e-10 1.91648e-10 0)
(9.42638e-11 -4.50389e-10 0)
(1.87811e-10 -1.21346e-09 0)
(9.02865e-11 -1.63974e-09 0)
(1.35661e-10 -1.54292e-09 0)
(1.20076e-10 -1.22282e-09 0)
(-5.76092e-11 -2.65403e-10 0)
(-1.96453e-10 2.94329e-10 0)
(-1.49149e-10 1.31684e-09 0)
(9.85279e-11 1.38071e-09 0)
(1.15631e-11 -1.62628e-10 0)
(-2.44077e-11 -3.47342e-10 0)
(-5.87314e-11 -5.22551e-10 0)
(-1.3792e-10 -4.26953e-10 0)
(-9.72105e-11 -3.23963e-10 0)
(-8.94282e-11 -1.16873e-11 0)
(-3.42505e-11 2.527e-10 0)
(1.16022e-11 4.99266e-10 0)
(-3.60181e-11 7.57211e-10 0)
(7.31958e-11 5.78155e-10 0)
(7.15921e-11 2.4172e-10 0)
(6.0987e-12 -2.80175e-10 0)
(2.79515e-11 -1.06415e-09 0)
(7.44712e-11 -1.52387e-09 0)
(7.52166e-11 -1.4819e-09 0)
(2.04023e-11 -1.27217e-09 0)
(-2.44201e-11 -3.85449e-10 0)
(-2.61497e-11 2.29644e-10 0)
(8.10488e-12 1.30427e-09 0)
(1.35325e-10 1.3826e-09 0)
(2.70723e-11 -1.92738e-10 0)
(1.62379e-11 -4.1671e-10 0)
(-8.05857e-11 -4.64688e-10 0)
(-1.26825e-10 -4.89643e-10 0)
(-2.3982e-10 -2.62356e-10 0)
(-1.43257e-10 -5.52285e-11 0)
(-2.3473e-10 3.42962e-10 0)
(3.77114e-11 4.87703e-10 0)
(7.91939e-12 7.17743e-10 0)
(9.33772e-11 5.9147e-10 0)
(3.65562e-10 6.88455e-11 0)
(2.26133e-10 -4.95932e-10 0)
(5.36391e-11 -1.1322e-09 0)
(7.02092e-12 -1.52829e-09 0)
(-6.50356e-11 -1.48478e-09 0)
(-1.44826e-10 -1.19794e-09 0)
(-8.72941e-11 -2.55112e-10 0)
(-2.5408e-11 3.45017e-10 0)
(-3.79161e-11 1.37169e-09 0)
(1.59574e-10 1.36731e-09 0)
(3.19323e-11 -2.01887e-10 0)
(3.78704e-11 -4.29213e-10 0)
(-7.39114e-11 -4.90919e-10 0)
(-1.0842e-10 -5.56057e-10 0)
(-2.78517e-10 -3.00417e-10 0)
(-1.18594e-10 -2.80923e-10 0)
(-2.37494e-10 1.45374e-10 0)
(-5.82128e-11 2.63837e-10 0)
(1.36336e-10 3.08669e-10 0)
(-3.56891e-11 4.48094e-10 0)
(1.51772e-10 5.46737e-11 0)
(2.82817e-10 -4.9713e-10 0)
(1.91864e-10 -9.72092e-10 0)
(5.52959e-11 -1.2671e-09 0)
(-1.75634e-11 -1.22707e-09 0)
(1.20001e-11 -9.89547e-10 0)
(9.32128e-11 -2.18122e-10 0)
(1.39359e-10 2.35266e-10 0)
(6.04862e-11 1.08706e-09 0)
(1.06973e-10 1.16856e-09 0)
(1.66125e-11 -1.90619e-10 0)
(9.33333e-12 -4.29023e-10 0)
(-8.15977e-11 -5.3216e-10 0)
(-2.10912e-10 -3.8873e-10 0)
(-3.54743e-10 -2.35614e-10 0)
(-3.53361e-10 3.62777e-11 0)
(-2.62003e-10 3.96801e-10 0)
(-3.95375e-10 8.14572e-10 0)
(2.74617e-10 5.03111e-10 0)
(4.31804e-10 4.54765e-10 0)
(3.58768e-10 1.18884e-10 0)
(5.11281e-10 -5.11027e-10 0)
(4.98751e-10 -1.10497e-09 0)
(1.77136e-10 -1.37633e-09 0)
(-1.03113e-10 -1.21742e-09 0)
(-2.67924e-10 -8.55362e-10 0)
(-2.27747e-10 -2.86188e-11 0)
(-7.40297e-11 3.83315e-10 0)
(2.11184e-11 1.1628e-09 0)
(2.85113e-10 1.14203e-09 0)
(-1.57445e-12 -1.0514e-10 0)
(-2.52353e-11 -3.39592e-10 0)
(-4.94424e-11 -4.55732e-10 0)
(-2.1067e-10 -3.54802e-10 0)
(-1.16704e-10 -5.60686e-10 0)
(-3.58806e-10 4.51422e-11 0)
(1.01641e-10 -1.70555e-10 0)
(-6.26646e-10 6.54473e-10 0)
(-3.2472e-10 5.31931e-10 0)
(3.29646e-10 1.70743e-10 0)
(2.19641e-10 2.81988e-11 0)
(2.33551e-10 -2.98057e-10 0)
(3.82146e-10 -7.5593e-10 0)
(3.09986e-10 -1.0163e-09 0)
(1.34969e-10 -9.17828e-10 0)
(-6.01371e-11 -6.70532e-10 0)
(-9.02601e-11 -6.86773e-11 0)
(4.2319e-11 2.44599e-10 0)
(1.14025e-10 7.73678e-10 0)
(3.11475e-10 8.08619e-10 0)
(2.99601e-11 -1.08119e-10 0)
(-5.23126e-11 -3.98291e-10 0)
(-1.93203e-10 -4.24693e-10 0)
(-4.31993e-10 -3.91614e-10 0)
(-1.73743e-10 -5.89337e-10 0)
(-5.08808e-10 1.57124e-10 0)
(2.66579e-11 -4.35417e-10 0)
(2.79519e-10 2.38511e-10 0)
(-7.86291e-10 9.99152e-10 0)
(3.68657e-11 5.32832e-10 0)
(4.69193e-10 1.08966e-10 0)
(4.2046e-10 -2.27089e-10 0)
(4.77702e-10 -6.43516e-10 0)
(4.30415e-10 -8.99432e-10 0)
(2.21225e-10 -8.36539e-10 0)
(-7.327e-11 -5.96188e-10 0)
(-1.87706e-10 -1.15928e-11 0)
(-9.11129e-11 2.70728e-10 0)
(3.74628e-12 7.45379e-10 0)
(3.18478e-10 7.431e-10 0)
(1.54326e-11 -1.46707e-10 0)
(-1.65952e-10 -2.74397e-10 0)
(-2.74659e-10 -1.93036e-10 0)
(-3.99727e-10 -2.31103e-10 0)
(-1.44363e-10 1.35116e-11 0)
(-3.30774e-10 -3.04698e-10 0)
(-5.81899e-10 -9.12672e-10 0)
(1.13791e-09 -2.10851e-10 0)
(3.99315e-11 6.03998e-10 0)
(-4.14816e-10 5.58988e-10 0)
(1.40306e-10 1.38992e-10 0)
(2.85817e-10 -1.22704e-10 0)
(3.43029e-10 -3.77113e-10 0)
(3.03181e-10 -5.76095e-10 0)
(1.56848e-10 -5.90774e-10 0)
(-1.23777e-10 -4.35906e-10 0)
(-2.22124e-10 1.14135e-11 0)
(-1.42094e-10 2.28729e-10 0)
(-2.57194e-11 5.96496e-10 0)
(4.60611e-10 5.63278e-10 0)
(6.1002e-11 -1.7588e-10 0)
(5.06555e-11 -3.06005e-11 0)
(-2.16084e-10 -7.42512e-11 0)
(-3.40578e-10 -2.86203e-10 0)
(-6.97163e-10 3.04217e-10 0)
(-1.799e-09 -6.62203e-10 0)
(-1.06844e-09 2.13671e-09 0)
(3.76352e-09 -2.82898e-10 0)
(4.57225e-10 -1.0766e-09 0)
(-2.16291e-10 -1.2989e-10 0)
(2.15064e-10 1.91386e-10 0)
(4.63809e-10 2.27519e-10 0)
(4.26478e-10 1.40523e-10 0)
(2.76881e-10 -3.52106e-11 0)
(1.42346e-10 -1.60547e-10 0)
(-3.82589e-11 -1.96645e-10 0)
(-1.4869e-10 -9.7544e-11 0)
(-1.17834e-10 -2.91719e-11 0)
(-2.77425e-11 7.97062e-11 0)
(3.61315e-10 1.54101e-10 0)
(9.98979e-11 -1.26654e-10 0)
(9.16051e-11 -3.42198e-11 0)
(-2.37522e-10 -1.11103e-10 0)
(-3.20882e-10 -2.08272e-10 0)
(-4.69031e-10 2.07498e-10 0)
(1.49819e-09 2.33234e-11 0)
(3.50882e-10 3.25238e-09 0)
(-5.32771e-09 3.48887e-10 0)
(2.88456e-10 -6.36252e-10 0)
(1.27517e-09 3.38431e-11 0)
(7.22816e-10 2.00127e-10 0)
(4.15555e-10 4.9871e-11 0)
(1.78875e-10 -1.74961e-10 0)
(2.13788e-11 -3.09248e-10 0)
(1.04953e-11 -2.98591e-10 0)
(-6.44779e-11 -1.76775e-10 0)
(-1.25121e-10 6.43375e-11 0)
(-1.02916e-10 1.56556e-10 0)
(-1.11525e-11 3.49775e-10 0)
(4.34629e-10 2.83201e-10 0)
)
;

boundaryField
{
    sides
    {
        type            calculated;
        value           nonuniform List<vector> 
40
(
(9.98979e-11 0 0)
(9.16051e-11 0 0)
(-2.37522e-10 0 0)
(-3.20882e-10 0 0)
(-4.69031e-10 0 0)
(1.49819e-09 0 0)
(3.50882e-10 0 0)
(-5.32771e-09 0 0)
(2.88456e-10 0 0)
(1.27517e-09 0 0)
(7.22816e-10 0 0)
(4.15555e-10 0 0)
(1.78875e-10 0 0)
(2.13788e-11 0 0)
(1.04953e-11 0 0)
(-6.44779e-11 0 0)
(-1.25121e-10 0 0)
(-1.02916e-10 0 0)
(-1.11525e-11 0 0)
(4.34629e-10 0 0)
(-1.57788e-10 0 0)
(-2.48398e-11 0 0)
(1.78401e-10 0 0)
(3.34187e-10 0 0)
(4.77565e-10 0 0)
(1.01884e-09 0 0)
(-1.47475e-09 0 0)
(-2.07245e-09 0 0)
(1.63922e-09 0 0)
(9.96832e-10 0 0)
(1.00564e-13 0 0)
(-4.47776e-10 0 0)
(-6.15286e-10 0 0)
(-5.1768e-10 0 0)
(-2.34181e-10 0 0)
(1.35852e-10 0 0)
(2.61571e-10 0 0)
(1.39376e-10 0 0)
(-1.83614e-11 0 0)
(-4.427e-10 0 0)
)
;
    }
    inlet
    {
        type            calculated;
        value           uniform (0 0 0);
    }
    outlet
    {
        type            calculated;
        value           nonuniform List<vector> 
20
(
(-4.427e-10 2.84764e-10 0)
(-3.67568e-10 1.49222e-10 0)
(-4.31254e-10 5.54306e-10 0)
(-2.57802e-10 7.544e-10 0)
(-2.68901e-10 8.53652e-10 0)
(-3.12917e-10 1.19257e-09 0)
(-2.13475e-10 1.18067e-09 0)
(-2.70146e-10 1.31123e-09 0)
(-1.30165e-10 1.2791e-09 0)
(1.95248e-11 1.32532e-09 0)
(9.85279e-11 1.38071e-09 0)
(1.35325e-10 1.3826e-09 0)
(1.59574e-10 1.36731e-09 0)
(1.06973e-10 1.16856e-09 0)
(2.85113e-10 1.14203e-09 0)
(3.11475e-10 8.08619e-10 0)
(3.18478e-10 7.431e-10 0)
(4.60611e-10 5.63278e-10 0)
(3.61315e-10 1.54101e-10 0)
(4.34629e-10 2.83201e-10 0)
)
;
    }
    frontAndBack
    {
        type            empty;
    }
}


// ************************************************************************* //
