/*--------------------------------*- C++ -*----------------------------------*\
  =========                 |
  \\      /  F ield         | OpenFOAM: The Open Source CFD Toolbox
   \\    /   O peration     | Website:  https://openfoam.org
    \\  /    A nd           | Version:  7
     \\/     M anipulation  |
\*---------------------------------------------------------------------------*/
FoamFile
{
    version     2.0;
    format      ascii;
    class       surfaceScalarField;
    location    "59";
    object      ddtCorrDdt0(phi);
}
// * * * * * * * * * * * * * * * * * * * * * * * * * * * * * * * * * * * * * //

dimensions      [0 4 -2 0 0 0 0];

internalField   nonuniform List<scalar> 
760
(
8.37234e-13
-1.14832e-12
-3.15906e-13
-9.58938e-13
6.68663e-13
8.02741e-13
3.25683e-12
6.11873e-13
1.37622e-12
-1.33081e-12
7.72191e-12
1.53188e-10
-2.29289e-11
2.41212e-10
6.89483e-12
4.29136e-10
6.41599e-12
1.90722e-11
2.20419e-12
2.03423e-12
-1.36751e-12
-4.39198e-15
-2.78258e-12
-1.10433e-12
-2.96509e-12
-1.5766e-12
-1.98892e-12
-1.53385e-12
-2.83673e-13
-9.28368e-13
1.09871e-12
-3.30046e-13
1.08039e-12
3.63923e-13
2.75317e-13
5.51002e-13
-1.10799e-12
1.02897e-12
1.028e-12
-8.73433e-14
-7.30921e-13
1.55065e-12
-1.76515e-12
1.35551e-12
-8.27188e-13
2.90568e-12
1.35599e-13
-2.16327e-12
-1.34912e-12
3.89717e-12
1.36992e-12
1.75013e-11
-1.49368e-11
-7.28807e-12
-7.57636e-12
-3.26924e-12
1.11812e-12
-3.37789e-12
5.15191e-13
-2.49686e-12
-3.99322e-13
-2.17029e-12
-1.02829e-12
-1.93692e-12
-2.03465e-12
-1.16648e-12
-2.44952e-12
3.25829e-14
-1.83747e-12
9.70417e-13
-1.06676e-12
7.92462e-13
1.91767e-13
1.12553e-13
6.80641e-13
-9.40767e-13
1.78435e-12
1.82091e-12
1.26423e-12
-1.13405e-12
2.10042e-12
-1.60177e-12
1.01102e-12
-2.3053e-12
-4.36721e-13
-1.18567e-12
4.01616e-12
-1.95065e-12
-3.79885e-12
2.51855e-12
4.63277e-12
1.87746e-12
3.47996e-12
1.22665e-12
-2.85406e-12
1.61659e-12
-3.8329e-12
-2.1622e-13
-2.82982e-12
-2.2286e-13
-2.2067e-12
-1.02456e-12
-1.11734e-12
-2.40057e-12
2.28727e-13
-3.07095e-12
1.05484e-12
-2.60635e-12
1.28137e-12
-1.93127e-12
6.95578e-13
-1.32736e-13
2.40286e-14
6.91553e-13
-1.02782e-12
2.87141e-12
3.11833e-12
2.41037e-13
-4.61459e-13
8.13806e-13
-1.85362e-12
1.79209e-12
-2.80806e-12
1.7727e-13
-2.50269e-12
4.76319e-12
-1.20737e-12
-1.4976e-12
-1.77305e-12
4.87582e-12
2.87709e-12
1.31165e-12
3.22918e-12
-3.55015e-12
-5.42576e-13
-2.04332e-12
1.37962e-12
-2.04111e-12
1.10748e-12
-2.31043e-12
-9.89701e-13
-1.3219e-12
-2.94563e-12
-1.8317e-14
-3.94621e-12
4.17299e-13
-3.78659e-12
3.44254e-13
-3.12793e-12
9.01494e-14
-6.627e-13
-8.6697e-14
7.77604e-13
-5.36486e-13
3.90321e-12
4.12856e-12
-1.63098e-13
-7.40324e-13
4.85981e-14
-1.79539e-12
1.54143e-12
-2.16282e-12
7.43852e-13
-2.93589e-12
1.83397e-12
-7.6287e-13
1.01591e-13
-2.0801e-12
2.63273e-12
1.35169e-12
-2.91856e-12
-3.35624e-13
-7.32579e-13
1.77235e-12
3.11364e-13
3.27206e-12
-9.6525e-13
1.1533e-12
-1.0591e-12
-1.23635e-12
-3.90072e-13
-3.32524e-12
2.69949e-14
-4.8006e-12
-3.11047e-13
-5.04885e-12
-7.0267e-13
-4.33868e-12
-6.97309e-13
-9.96744e-13
-3.40229e-13
1.1799e-12
-6.36496e-13
4.96662e-12
5.08128e-12
-1.39158e-13
-1.0238e-12
3.35453e-13
-2.0074e-12
9.46869e-13
-2.00587e-12
2.25454e-12
-2.58039e-12
6.08506e-13
-1.91036e-12
2.29531e-12
-5.13976e-13
1.81554e-13
9.75974e-13
-1.14257e-12
1.82308e-12
7.03829e-13
4.31595e-12
-1.31822e-12
3.08005e-12
-2.41476e-12
4.75355e-13
-1.64277e-12
-1.71128e-12
-8.25052e-13
-4.55351e-12
-3.68089e-13
-6.65432e-12
-1.26797e-13
-6.8293e-12
1.23666e-13
-5.57056e-12
3.9209e-13
-1.02427e-12
6.14716e-13
1.9297e-12
-4.7519e-13
6.26518e-12
6.03166e-12
-6.04442e-14
-1.07173e-12
5.03311e-13
-1.98724e-12
1.1292e-13
-2.49617e-12
1.43975e-12
-1.58348e-12
-9.40388e-14
-2.00088e-12
1.41533e-12
4.02303e-14
-4.94514e-13
7.76382e-13
1.15748e-12
2.7848e-12
6.65364e-13
3.63315e-12
-7.30139e-13
2.06429e-12
-4.10845e-13
5.55578e-13
-4.43248e-13
-1.81199e-12
-9.87047e-13
-5.47142e-12
-1.49405e-12
-7.7775e-12
-1.44662e-12
-7.484e-12
-7.43722e-13
-5.81782e-12
6.96282e-15
-9.89078e-13
2.67223e-13
1.89351e-12
-4.83003e-13
6.2206e-12
6.22322e-12
1.95578e-13
-9.56786e-13
2.45275e-13
-1.69866e-12
5.96994e-13
-2.54352e-12
3.41419e-13
-2.16819e-12
8.30433e-13
-1.55464e-12
7.61755e-13
-4.45817e-14
3.61285e-13
1.23537e-12
1.22097e-12
3.23012e-12
-9.11464e-13
3.09458e-12
-5.70979e-13
2.56532e-12
-3.9473e-13
4.28136e-13
-1.47448e-12
-3.08172e-12
-1.40304e-12
-6.57094e-12
-9.4066e-13
-8.49681e-12
-4.05811e-13
-7.83188e-12
6.37771e-13
-5.66418e-12
1.27482e-12
-5.9635e-13
8.63275e-13
1.853e-12
-5.38514e-13
6.20481e-12
6.45294e-12
5.17681e-13
-3.98013e-13
-4.68112e-14
-1.92404e-12
6.89767e-13
-2.27466e-12
-2.28338e-14
-2.84488e-12
8.21435e-13
-1.48038e-12
1.48812e-13
-4.41443e-13
6.26319e-13
1.53138e-12
2.3406e-13
2.98991e-12
-6.8016e-13
2.957e-12
5.73585e-14
2.8647e-12
-3.23384e-13
-1.86497e-13
-9.37349e-13
-3.66512e-12
-5.21914e-13
-6.30878e-12
-1.48356e-13
-8.26363e-12
-4.29703e-14
-7.92566e-12
2.76781e-13
-5.62187e-12
3.83883e-13
-3.87582e-13
5.04051e-16
1.79719e-12
-4.25348e-13
5.94583e-12
6.40548e-12
-1.24363e-14
-3.29275e-13
2.10606e-13
-1.76658e-12
-3.29236e-14
-2.54429e-12
2.91498e-13
-2.73636e-12
1.79257e-13
-1.6628e-12
2.61012e-13
-3.0282e-13
4.6975e-13
1.48504e-12
-3.50923e-13
2.97455e-12
8.80887e-14
3.51341e-12
-5.6429e-13
3.13296e-12
-5.13982e-13
5.84988e-13
2.28987e-13
-2.70058e-12
-1.03867e-13
-6.02227e-12
-5.71439e-14
-8.16915e-12
7.11083e-13
-7.86248e-12
7.94466e-13
-6.03639e-12
5.81766e-14
-1.07252e-12
-3.26904e-13
1.47874e-12
6.08822e-14
6.33383e-12
6.75382e-12
-4.10018e-13
-7.49163e-13
1.02403e-13
-1.53224e-12
-4.6224e-13
-2.82583e-12
2.16058e-13
-2.23049e-12
-1.64107e-13
-1.77526e-12
9.50046e-14
7.56653e-14
1.78255e-13
1.41687e-12
-7.06723e-13
3.00844e-12
1.87562e-13
4.03787e-12
-6.54575e-13
3.03985e-12
-1.95472e-13
1.32644e-12
1.10332e-12
-1.68483e-12
5.42099e-13
-5.87286e-12
3.10023e-13
-7.99212e-12
8.69514e-13
-7.43188e-12
4.22107e-13
-6.18243e-12
-8.08985e-13
-1.70806e-12
-1.18991e-12
1.28556e-12
-5.6857e-14
6.61514e-12
6.95071e-12
-7.54121e-14
-8.67042e-13
-5.01363e-13
-1.98119e-12
-2.7145e-13
-2.42028e-12
-7.19308e-13
-2.10843e-12
-2.23074e-13
-1.62563e-12
-6.57812e-13
-2.55746e-13
2.2501e-13
1.27643e-12
-1.61525e-13
2.30449e-12
5.58686e-14
3.78459e-12
4.20959e-13
2.8159e-12
1.23681e-13
8.03089e-13
1.25895e-13
-1.66787e-12
2.56577e-13
-5.29987e-12
3.40042e-13
-7.58823e-12
3.10728e-13
-7.48887e-12
7.92883e-14
-6.34711e-12
-1.91223e-13
-1.76421e-12
-1.81058e-13
1.40835e-12
3.56277e-13
6.79599e-12
6.9493e-12
-7.56001e-14
-1.07425e-12
-4.30749e-13
-2.13612e-12
-1.45044e-13
-2.05554e-12
-1.26691e-12
-2.62975e-12
-5.89499e-13
-1.05862e-12
-1.29806e-12
-6.75847e-13
-5.57804e-13
1.46745e-12
6.1171e-13
1.77408e-12
-2.31572e-13
2.66634e-12
1.29751e-12
2.77564e-12
1.65056e-12
1.00001e-13
5.32415e-13
-2.68958e-12
1.893e-13
-5.15946e-12
-9.28223e-14
-6.82347e-12
-5.97612e-13
-6.7463e-12
-6.16439e-13
-5.51104e-12
-2.08696e-13
-1.23462e-12
-5.55866e-14
1.40132e-12
2.56682e-13
6.09231e-12
6.31805e-12
-1.22034e-13
-9.84863e-13
2.44209e-14
-2.09096e-12
-8.04313e-13
-2.70863e-12
-4.33534e-13
-2.43622e-12
-1.40752e-12
-1.06224e-12
-5.3972e-13
-9.65322e-13
-1.53206e-12
1.46468e-12
9.79425e-13
2.38329e-12
8.00692e-14
1.5978e-12
3.60926e-14
2.33618e-12
1.27227e-12
4.95213e-13
1.22487e-12
-2.82447e-12
6.82639e-13
-5.57626e-12
7.89809e-14
-6.86885e-12
-1.33682e-13
-6.20772e-12
1.7422e-13
-4.54405e-12
6.88278e-13
-4.96497e-13
7.45094e-13
1.61713e-12
3.46025e-13
5.72705e-12
5.8267e-12
-1.68276e-13
-6.90926e-13
-3.12584e-13
-1.98824e-12
-1.14524e-12
-2.69672e-12
-2.80325e-13
-1.67217e-12
-3.10236e-12
-2.47581e-12
-3.77903e-13
7.3923e-14
-2.58579e-12
7.32038e-13
-2.23983e-13
4.26028e-12
2.39579e-12
1.90278e-12
1.62031e-12
1.01594e-12
2.03485e-12
3.31524e-13
2.67717e-12
-1.87295e-12
1.82893e-12
-4.55056e-12
1.87179e-13
-5.89772e-12
-9.95235e-13
-5.20015e-12
-1.37686e-12
-3.68907e-12
-7.01678e-13
-2.2491e-13
1.49498e-13
1.47052e-12
7.1367e-13
4.60733e-12
4.76135e-12
-2.69774e-13
-5.49276e-13
-6.79503e-13
-1.94048e-12
-2.81196e-13
-2.17025e-12
-6.91327e-13
-1.77877e-12
-1.68669e-12
-2.88945e-12
-3.68848e-13
1.59669e-12
-6.74664e-13
-1.6399e-12
-3.86209e-12
3.97145e-12
9.23612e-13
5.34623e-12
1.45669e-12
1.84342e-12
8.6609e-13
3.26301e-13
1.57286e-12
-1.23432e-12
1.86381e-12
-3.61124e-12
1.18502e-12
-5.07092e-12
1.59727e-13
-4.64105e-12
-4.98824e-13
-3.27298e-12
-1.00548e-13
-1.00956e-13
5.71612e-13
1.49047e-12
1.00807e-12
4.01136e-12
3.95307e-12
-4.22345e-13
-1.3814e-12
-1.20428e-12
-1.36959e-12
-5.85134e-13
-1.15928e-12
-3.21176e-12
-1.91792e-12
1.02145e-12
-8.8476e-13
-4.73528e-12
-1.08351e-12
4.31413e-12
-1.56607e-12
-3.06324e-12
-4.2474e-12
-2.23089e-12
3.1992e-12
1.89118e-12
3.32087e-12
2.12664e-12
8.72684e-13
2.16062e-12
-6.3322e-13
2.33712e-12
-2.25244e-12
1.75028e-12
-3.45021e-12
3.98483e-13
-3.42567e-12
-7.00557e-13
-2.53005e-12
-6.6079e-13
-5.29027e-14
-1.85824e-13
1.15909e-12
7.25314e-13
3.17877e-12
3.16376e-12
-1.49032e-12
-6.30274e-13
-1.08342e-12
-1.08689e-12
-7.40424e-13
-6.58394e-13
-4.08932e-12
-1.74936e-12
3.89166e-12
1.21867e-12
-8.57505e-12
-7.04769e-12
5.01677e-12
-9.01477e-13
3.85733e-12
-5.30172e-12
-2.73393e-12
-1.1647e-12
-4.28016e-13
1.8304e-12
1.20474e-12
1.11546e-12
1.54722e-12
3.16904e-14
1.67275e-12
-9.05388e-13
1.1993e-12
-1.71051e-12
1.26642e-13
-2.03158e-12
-8.49636e-13
-1.70146e-12
-8.65874e-13
-2.21956e-13
-4.79576e-13
5.69193e-13
9.67291e-13
1.89681e-12
1.91057e-12
-3.78516e-13
-6.91232e-13
-3.95091e-13
-2.78475e-13
-1.46162e-12
-1.00618e-12
-1.80434e-12
-9.00924e-13
-4.91274e-12
3.93143e-12
-1.46764e-11
2.63977e-10
1.40547e-11
4.6173e-10
9.92995e-12
1.83459e-10
-5.97567e-13
8.07934e-12
-3.56632e-13
-1.0552e-12
1.94712e-12
2.10238e-13
2.37106e-12
3.96626e-13
1.76419e-12
4.07365e-14
9.90932e-13
-5.06634e-13
3.03602e-13
-8.49979e-13
-3.77052e-13
-8.20903e-13
-6.47415e-13
-1.38218e-13
-4.33527e-13
2.19024e-13
7.66098e-13
9.58811e-13
1.04099e-12
8.1452e-13
-9.73065e-13
-2.79556e-12
1.31774e-12
-5.01112e-12
1.98148e-11
-2.63074e-11
-9.96878e-12
6.26864e-12
4.57636e-12
2.72396e-12
1.47916e-12
4.30785e-13
-2.84624e-14
-4.93472e-14
-3.48313e-13
-5.93782e-13
-3.59967e-13
1.01149e-12
)
;

boundaryField
{
    sides
    {
        type            calculated;
        value           uniform 0;
    }
    inlet
    {
        type            calculated;
        value           uniform 0;
    }
    outlet
    {
        type            calculated;
        value           nonuniform List<scalar> 
20
(
-2.30726e-12
-1.78895e-12
-2.08853e-12
-1.07908e-12
-1.34472e-12
-1.70418e-12
-1.32976e-12
-1.53362e-12
-6.46145e-13
4.32735e-13
8.36968e-13
8.48324e-13
6.76296e-13
2.68332e-13
1.08885e-12
1.41679e-12
1.57678e-12
2.48911e-12
1.88538e-12
2.28569e-12
)
;
    }
    frontAndBack
    {
        type            empty;
        value           nonuniform 0();
    }
}


// ************************************************************************* //
