/*--------------------------------*- C++ -*----------------------------------*\
  =========                 |
  \\      /  F ield         | OpenFOAM: The Open Source CFD Toolbox
   \\    /   O peration     | Website:  https://openfoam.org
    \\  /    A nd           | Version:  7
     \\/     M anipulation  |
\*---------------------------------------------------------------------------*/
FoamFile
{
    version     2.0;
    format      ascii;
    class       surfaceScalarField;
    location    "59";
    object      phi;
}
// * * * * * * * * * * * * * * * * * * * * * * * * * * * * * * * * * * * * * //

dimensions      [0 4 -1 0 0 0 0];

internalField   nonuniform List<scalar> 
760
(
4.99999e-06
1.0027e-11
5e-06
-4.19807e-12
5.00001e-06
-1.23206e-11
5.00003e-06
-1.85281e-11
5.00005e-06
-2.54773e-11
5.00009e-06
-2.89514e-11
5.00013e-06
-4.71845e-11
5.00018e-06
-4.31855e-11
5.00025e-06
-6.19253e-11
5.00032e-06
-7.82699e-11
5.00042e-06
-9.06997e-11
5.00053e-06
-1.147e-10
5.00066e-06
-1.27424e-10
5.00083e-06
-1.67869e-10
5.001e-06
-1.77648e-10
5.00126e-06
-2.55944e-10
5.00151e-06
-2.55084e-10
5.00194e-06
-4.30741e-10
5.00236e-06
-4.13284e-10
-8.91717e-10
5.00002e-06
-1.18963e-11
5.00004e-06
-1.85651e-11
5.00005e-06
-2.83212e-11
5.00008e-06
-4.02572e-11
5.0001e-06
-5.24985e-11
5.00014e-06
-6.68294e-11
5.00018e-06
-8.32511e-11
5.00023e-06
-1.03151e-10
5.00029e-06
-1.23312e-10
5.00037e-06
-1.53724e-10
5.00045e-06
-1.78227e-10
5.00056e-06
-2.234e-10
5.00069e-06
-2.51375e-10
5.00084e-06
-3.24286e-10
5.00102e-06
-3.53179e-10
5.00125e-06
-4.84378e-10
5.0015e-06
-5.07069e-10
5.00184e-06
-7.66005e-10
5.00218e-06
-7.58255e-10
-1.26212e-09
4.99999e-06
-4.36232e-12
5e-06
-1.96237e-11
5e-06
-3.62054e-11
5.00002e-06
-5.45685e-11
5.00004e-06
-7.39523e-11
5.00007e-06
-9.62597e-11
5.00011e-06
-1.20181e-10
5.00016e-06
-1.50782e-10
5.00021e-06
-1.82004e-10
5.00029e-06
-2.2456e-10
5.00037e-06
-2.63928e-10
5.00047e-06
-3.25121e-10
5.0006e-06
-3.73381e-10
5.00074e-06
-4.67615e-10
5.00091e-06
-5.24532e-10
5.00111e-06
-6.84021e-10
5.00135e-06
-7.44626e-10
5.00162e-06
-1.03822e-09
5.00194e-06
-1.08067e-09
-1.68993e-09
5.00001e-06
-1.25416e-11
5.00002e-06
-3.23456e-11
5.00004e-06
-5.24411e-11
5.00006e-06
-7.48341e-11
5.00008e-06
-9.84475e-11
5.00011e-06
-1.26817e-10
5.00015e-06
-1.56747e-10
5.0002e-06
-1.95604e-10
5.00025e-06
-2.3558e-10
5.00032e-06
-2.89641e-10
5.00039e-06
-3.40442e-10
5.00049e-06
-4.1777e-10
5.00059e-06
-4.80354e-10
5.00072e-06
-5.96651e-10
5.00087e-06
-6.71274e-10
5.00105e-06
-8.6157e-10
5.00124e-06
-9.42616e-10
5.00148e-06
-1.27619e-09
5.00173e-06
-1.32811e-09
-1.89834e-09
5e-06
-1.13672e-11
5e-06
-3.5173e-11
5.00001e-06
-5.96491e-11
5.00002e-06
-8.67634e-11
5.00004e-06
-1.15825e-10
5.00006e-06
-1.50202e-10
5.0001e-06
-1.87353e-10
5.00013e-06
-2.33735e-10
5.00018e-06
-2.82395e-10
5.00024e-06
-3.46078e-10
5.00031e-06
-4.08866e-10
5.00039e-06
-4.98293e-10
5.00048e-06
-5.76369e-10
5.00059e-06
-7.07481e-10
5.00073e-06
-8.01779e-10
5.00087e-06
-1.00853e-09
5.00104e-06
-1.11151e-09
5.00122e-06
-1.4571e-09
5.00142e-06
-1.52888e-09
-2.16328e-09
5e-06
-1.3692e-11
5.00001e-06
-4.17878e-11
5.00002e-06
-7.01463e-11
5.00004e-06
-1.00931e-10
5.00005e-06
-1.3389e-10
5.00008e-06
-1.72571e-10
5.0001e-06
-2.14979e-10
5.00014e-06
-2.67507e-10
5.00018e-06
-3.23106e-10
5.00023e-06
-3.95465e-10
5.00029e-06
-4.67017e-10
5.00036e-06
-5.67201e-10
5.00044e-06
-6.55772e-10
5.00053e-06
-8.00235e-10
5.00063e-06
-9.06498e-10
5.00076e-06
-1.12944e-09
5.00089e-06
-1.24502e-09
5.00104e-06
-1.61042e-09
5.00121e-06
-1.69257e-09
-2.29406e-09
5e-06
-1.5395e-11
5.00001e-06
-4.60754e-11
5.00001e-06
-7.71714e-11
5.00002e-06
-1.10508e-10
5.00004e-06
-1.46658e-10
5.00005e-06
-1.89083e-10
5.00008e-06
-2.35926e-10
5.0001e-06
-2.93315e-10
5.00013e-06
-3.5479e-10
5.00017e-06
-4.33493e-10
5.00022e-06
-5.12441e-10
5.00027e-06
-6.20603e-10
5.00033e-06
-7.1853e-10
5.00041e-06
-8.72372e-10
5.00049e-06
-9.89556e-10
5.00058e-06
-1.22249e-09
5.00069e-06
-1.34907e-09
5.0008e-06
-1.72071e-09
5.00091e-06
-1.80705e-09
-2.4426e-09
5e-06
-1.63653e-11
5e-06
-4.89826e-11
5.00001e-06
-8.20343e-11
5.00002e-06
-1.17776e-10
5.00003e-06
-1.56369e-10
5.00004e-06
-2.01645e-10
5.00006e-06
-2.51642e-10
5.00008e-06
-3.12794e-10
5.0001e-06
-3.78529e-10
5.00013e-06
-4.61981e-10
5.00016e-06
-5.46177e-10
5.0002e-06
-6.60217e-10
5.00025e-06
-7.64143e-10
5.0003e-06
-9.24694e-10
5.00036e-06
-1.04848e-09
5.00043e-06
-1.28866e-09
5.0005e-06
-1.42151e-09
5.00058e-06
-1.80094e-09
5.00067e-06
-1.89498e-09
-2.51679e-09
5e-06
-1.68549e-11
5e-06
-5.07346e-11
5.00001e-06
-8.50346e-11
5.00001e-06
-1.22328e-10
5.00002e-06
-1.62496e-10
5.00002e-06
-2.0951e-10
5.00003e-06
-2.61346e-10
5.00005e-06
-3.24705e-10
5.00006e-06
-3.92863e-10
5.00008e-06
-4.79045e-10
5.0001e-06
-5.66345e-10
5.00012e-06
-6.83749e-10
5.00015e-06
-7.91309e-10
5.00018e-06
-9.5584e-10
5.00022e-06
-1.08378e-09
5.00026e-06
-1.3282e-09
5.0003e-06
-1.46512e-09
5.00035e-06
-1.84804e-09
5.00039e-06
-1.94235e-09
-2.57282e-09
5e-06
-1.69972e-11
5e-06
-5.12838e-11
5e-06
-8.60933e-11
5e-06
-1.2389e-10
5.00001e-06
-1.64651e-10
5.00001e-06
-2.12198e-10
5.00001e-06
-2.64628e-10
5.00002e-06
-3.28619e-10
5.00002e-06
-3.9752e-10
5.00003e-06
-4.84641e-10
5.00003e-06
-5.72995e-10
5.00004e-06
-6.91607e-10
5.00005e-06
-8.00558e-10
5.00006e-06
-9.66394e-10
5.00007e-06
-1.09572e-09
5.00009e-06
-1.34134e-09
5.0001e-06
-1.47955e-09
5.00011e-06
-1.86316e-09
5.00013e-06
-1.95931e-09
-2.58908e-09
5e-06
-1.68278e-11
5e-06
-5.0666e-11
5e-06
-8.50859e-11
5e-06
-1.22333e-10
4.99999e-06
-1.62602e-10
4.99999e-06
-2.09547e-10
4.99999e-06
-2.61413e-10
4.99998e-06
-3.24706e-10
4.99998e-06
-3.92786e-10
4.99997e-06
-4.78998e-10
4.99997e-06
-5.66187e-10
4.99996e-06
-6.83612e-10
4.99995e-06
-7.9135e-10
4.99994e-06
-9.55915e-10
4.99993e-06
-1.08384e-09
4.99991e-06
-1.32825e-09
4.9999e-06
-1.46521e-09
4.99988e-06
-1.84804e-09
4.99987e-06
-1.94228e-09
-2.57265e-09
5e-06
-1.63157e-11
5e-06
-4.89589e-11
4.99999e-06
-8.20217e-11
4.99999e-06
-1.17791e-10
4.99998e-06
-1.56466e-10
4.99998e-06
-2.0174e-10
4.99997e-06
-2.51717e-10
4.99995e-06
-3.12877e-10
4.99994e-06
-3.78481e-10
4.99992e-06
-4.6194e-10
4.9999e-06
-5.46081e-10
4.99988e-06
-6.60062e-10
4.99985e-06
-7.64089e-10
4.99982e-06
-9.24714e-10
4.99978e-06
-1.04854e-09
4.99974e-06
-1.28868e-09
4.9997e-06
-1.42156e-09
4.99965e-06
-1.8009e-09
4.99961e-06
-1.89487e-09
-2.51657e-09
5e-06
-1.53999e-11
5e-06
-4.60789e-11
4.99999e-06
-7.71143e-11
4.99998e-06
-1.10581e-10
4.99997e-06
-1.46627e-10
4.99996e-06
-1.8917e-10
4.99994e-06
-2.35911e-10
4.99992e-06
-2.93426e-10
4.9999e-06
-3.54863e-10
4.99987e-06
-4.33451e-10
4.99984e-06
-5.12456e-10
4.9998e-06
-6.20574e-10
4.99975e-06
-7.18439e-10
4.9997e-06
-8.72264e-10
4.99964e-06
-9.895e-10
4.99957e-06
-1.22239e-09
4.9995e-06
-1.34905e-09
4.99942e-06
-1.72062e-09
4.99933e-06
-1.80697e-09
-2.44226e-09
5e-06
-1.37203e-11
4.99999e-06
-4.18142e-11
4.99999e-06
-7.02059e-11
4.99998e-06
-1.00942e-10
4.99996e-06
-1.33778e-10
4.99995e-06
-1.72595e-10
4.99992e-06
-2.14913e-10
4.9999e-06
-2.67515e-10
4.99987e-06
-3.23345e-10
4.99983e-06
-3.95545e-10
4.99978e-06
-4.67053e-10
4.99973e-06
-5.67226e-10
4.99967e-06
-6.55727e-10
4.99959e-06
-8.00081e-10
4.99951e-06
-9.06339e-10
4.99942e-06
-1.12922e-09
4.99931e-06
-1.2449e-09
4.9992e-06
-1.61021e-09
4.99909e-06
-1.69242e-09
-2.29367e-09
5e-06
-1.13816e-11
4.99999e-06
-3.52266e-11
4.99998e-06
-5.97435e-11
4.99996e-06
-8.66714e-11
4.99995e-06
-1.1586e-10
4.99992e-06
-1.5003e-10
4.9999e-06
-1.87322e-10
4.99986e-06
-2.33416e-10
4.99982e-06
-2.82493e-10
4.99977e-06
-3.4633e-10
4.99971e-06
-4.09025e-10
4.99964e-06
-4.98374e-10
4.99956e-06
-5.76415e-10
4.99947e-06
-7.07398e-10
4.99937e-06
-8.01671e-10
4.99925e-06
-1.00831e-09
4.99911e-06
-1.11137e-09
4.99896e-06
-1.45679e-09
4.99879e-06
-1.5287e-09
-2.16284e-09
5e-06
-1.25438e-11
5e-06
-3.23909e-11
4.99999e-06
-5.24364e-11
4.99998e-06
-7.47188e-11
4.99996e-06
-9.84994e-11
4.99994e-06
-1.26461e-10
4.9999e-06
-1.56981e-10
4.99987e-06
-1.9532e-10
4.99982e-06
-2.35156e-10
4.99976e-06
-2.89663e-10
4.99969e-06
-3.40589e-10
4.99961e-06
-4.17858e-10
4.99952e-06
-4.8044e-10
4.99941e-06
-5.96626e-10
4.99927e-06
-6.71239e-10
4.99913e-06
-8.61385e-10
4.99896e-06
-9.42464e-10
4.99878e-06
-1.27581e-09
4.99858e-06
-1.32786e-09
-1.89782e-09
4.99999e-06
-4.39221e-12
4.99998e-06
-1.96224e-11
4.99996e-06
-3.61011e-11
4.99994e-06
-5.45623e-11
4.99992e-06
-7.38955e-11
4.99988e-06
-9.63945e-11
4.99985e-06
-1.20621e-10
4.9998e-06
-1.50937e-10
4.99975e-06
-1.81653e-10
4.99968e-06
-2.24247e-10
4.99961e-06
-2.63893e-10
4.99951e-06
-3.25181e-10
4.99941e-06
-3.73505e-10
4.99928e-06
-4.67676e-10
4.99913e-06
-5.24628e-10
4.99895e-06
-6.83966e-10
4.99876e-06
-7.44614e-10
4.99852e-06
-1.03797e-09
4.99827e-06
-1.08056e-09
-1.68954e-09
5.00001e-06
-1.18953e-11
5e-06
-1.84214e-11
5e-06
-2.81785e-11
4.99998e-06
-4.04197e-11
4.99996e-06
-5.24412e-11
4.99993e-06
-6.78818e-11
4.99989e-06
-8.22073e-11
4.99984e-06
-1.03559e-10
4.99978e-06
-1.23271e-10
4.99971e-06
-1.534e-10
4.99963e-06
-1.77979e-10
4.99953e-06
-2.23232e-10
4.9994e-06
-2.51342e-10
4.99926e-06
-3.2425e-10
4.99909e-06
-3.53276e-10
4.99889e-06
-4.84329e-10
4.99865e-06
-5.07124e-10
4.99838e-06
-7.65783e-10
4.99806e-06
-7.58172e-10
-1.26165e-09
4.99998e-06
1.00111e-11
4.99996e-06
-4.02032e-12
4.99995e-06
-1.23408e-11
4.99992e-06
-1.88994e-11
4.9999e-06
-2.57526e-11
4.99986e-06
-3.56295e-11
4.99982e-06
-3.37329e-11
4.99977e-06
-4.56954e-11
4.99971e-06
-6.26428e-11
4.99963e-06
-7.83931e-11
4.99955e-06
-9.05029e-11
4.99944e-06
-1.14479e-10
4.99931e-06
-1.27366e-10
4.99916e-06
-1.67922e-10
4.99898e-06
-1.7782e-10
4.99875e-06
-2.56068e-10
4.9985e-06
-2.55242e-10
4.99817e-06
-4.30793e-10
4.99782e-06
-4.13384e-10
-8.91732e-10
5.00001e-06
5e-06
4.99999e-06
4.99997e-06
4.99995e-06
4.99991e-06
4.99987e-06
4.99982e-06
4.99975e-06
4.99968e-06
4.99958e-06
4.99947e-06
4.99934e-06
4.99917e-06
4.999e-06
4.99874e-06
4.99849e-06
4.99805e-06
4.99764e-06
)
;

boundaryField
{
    sides
    {
        type            calculated;
        value           uniform 0;
    }
    inlet
    {
        type            calculated;
        value           nonuniform List<scalar> 
20
(
-5e-06
-5e-06
-5e-06
-5e-06
-5e-06
-5e-06
-5e-06
-5e-06
-5e-06
-5e-06
-5e-06
-5e-06
-5e-06
-5e-06
-5e-06
-5e-06
-5e-06
-5e-06
-5e-06
-5e-06
)
;
    }
    outlet
    {
        type            calculated;
        value           nonuniform List<scalar> 
20
(
5.00325e-06
5.00255e-06
5.00237e-06
5.00194e-06
5.00169e-06
5.00134e-06
5.00106e-06
5.00074e-06
5.00045e-06
5.00015e-06
4.99985e-06
4.99955e-06
4.99926e-06
4.99894e-06
4.99866e-06
4.99831e-06
4.99806e-06
4.99763e-06
4.99745e-06
4.99675e-06
)
;
    }
    frontAndBack
    {
        type            empty;
        value           nonuniform 0();
    }
}


// ************************************************************************* //
