/*--------------------------------*- C++ -*----------------------------------*\
  =========                 |
  \\      /  F ield         | OpenFOAM: The Open Source CFD Toolbox
   \\    /   O peration     | Website:  https://openfoam.org
    \\  /    A nd           | Version:  7
     \\/     M anipulation  |
\*---------------------------------------------------------------------------*/
FoamFile
{
    version     2.0;
    format      ascii;
    class       surfaceScalarField;
    location    "59";
    object      phi_0;
}
// * * * * * * * * * * * * * * * * * * * * * * * * * * * * * * * * * * * * * //

dimensions      [0 4 -1 0 0 0 0];

internalField   nonuniform List<scalar> 
760
(
4.99999e-06
1.01562e-11
5e-06
-4.14271e-12
5.00001e-06
-1.24224e-11
5.00003e-06
-1.85401e-11
5.00005e-06
-2.54237e-11
5.00009e-06
-3.51698e-11
5.00013e-06
-3.71342e-11
5.00018e-06
-5.43365e-11
5.00025e-06
-6.22805e-11
5.00032e-06
-7.85316e-11
5.00042e-06
-9.07731e-11
5.00053e-06
-1.14636e-10
5.00066e-06
-1.27278e-10
5.00083e-06
-1.67702e-10
5.001e-06
-1.77533e-10
5.00126e-06
-2.55891e-10
5.00151e-06
-2.55107e-10
5.00194e-06
-4.30788e-10
5.00236e-06
-4.13381e-10
-8.91819e-10
5.00002e-06
-1.18186e-11
5.00004e-06
-1.84136e-11
5.00005e-06
-2.8293e-11
5.00008e-06
-4.02215e-11
5.0001e-06
-5.24357e-11
5.00014e-06
-6.70303e-11
5.00018e-06
-8.24243e-11
5.00023e-06
-1.04044e-10
5.00029e-06
-1.23557e-10
5.00037e-06
-1.53853e-10
5.00045e-06
-1.78227e-10
5.00056e-06
-2.23312e-10
5.00069e-06
-2.51175e-10
5.00084e-06
-3.24028e-10
5.00102e-06
-3.52974e-10
5.00125e-06
-4.84251e-10
5.0015e-06
-5.07073e-10
5.00184e-06
-7.66062e-10
5.00218e-06
-7.58424e-10
-1.2623e-09
4.99999e-06
-4.29561e-12
4.99999e-06
-1.94545e-11
5e-06
-3.59935e-11
5.00002e-06
-5.44435e-11
5.00004e-06
-7.37696e-11
5.00007e-06
-9.65153e-11
5.00011e-06
-1.19962e-10
5.00016e-06
-1.50788e-10
5.00021e-06
-1.82198e-10
5.00029e-06
-2.24595e-10
5.00037e-06
-2.63901e-10
5.00047e-06
-3.25012e-10
5.0006e-06
-3.73137e-10
5.00074e-06
-4.67298e-10
5.00091e-06
-5.24259e-10
5.00111e-06
-6.83817e-10
5.00135e-06
-7.44604e-10
5.00162e-06
-1.03828e-09
5.00194e-06
-1.08095e-09
-1.69024e-09
5.00001e-06
-1.2497e-11
5.00002e-06
-3.21443e-11
5.00004e-06
-5.2136e-11
5.00006e-06
-7.46117e-11
5.00008e-06
-9.82579e-11
5.00012e-06
-1.2678e-10
5.00015e-06
-1.56944e-10
5.0002e-06
-1.95971e-10
5.00025e-06
-2.35643e-10
5.00032e-06
-2.89724e-10
5.00039e-06
-3.40528e-10
5.00049e-06
-4.17682e-10
5.00059e-06
-4.80067e-10
5.00072e-06
-5.96262e-10
5.00087e-06
-6.70897e-10
5.00105e-06
-8.6125e-10
5.00124e-06
-9.42539e-10
5.00148e-06
-1.27626e-09
5.00173e-06
-1.32849e-09
-1.89876e-09
5e-06
-1.12992e-11
5e-06
-3.4986e-11
5.00001e-06
-5.9385e-11
5.00002e-06
-8.64781e-11
5.00004e-06
-1.15706e-10
5.00006e-06
-1.50001e-10
5.0001e-06
-1.8747e-10
5.00013e-06
-2.33809e-10
5.00018e-06
-2.82489e-10
5.00024e-06
-3.46342e-10
5.00031e-06
-4.09002e-10
5.00039e-06
-4.98193e-10
5.00048e-06
-5.76054e-10
5.00059e-06
-7.07024e-10
5.00073e-06
-8.01292e-10
5.00087e-06
-1.00808e-09
5.00104e-06
-1.11138e-09
5.00122e-06
-1.45719e-09
5.00142e-06
-1.52935e-09
-2.16378e-09
5e-06
-1.35949e-11
5.00001e-06
-4.15833e-11
5.00002e-06
-6.99181e-11
5.00004e-06
-1.00624e-10
5.00005e-06
-1.3372e-10
5.00008e-06
-1.72452e-10
5.0001e-06
-2.15081e-10
5.00014e-06
-2.67641e-10
5.00018e-06
-3.23461e-10
5.00023e-06
-3.95805e-10
5.00029e-06
-4.671e-10
5.00036e-06
-5.67046e-10
5.00044e-06
-6.55349e-10
5.00053e-06
-7.99602e-10
5.00063e-06
-9.0583e-10
5.00076e-06
-1.12886e-09
5.00089e-06
-1.24487e-09
5.00104e-06
-1.61056e-09
5.00121e-06
-1.69316e-09
-2.29465e-09
5e-06
-1.52925e-11
5.00001e-06
-4.58604e-11
5.00001e-06
-7.69371e-11
5.00002e-06
-1.10294e-10
5.00004e-06
-1.46441e-10
5.00005e-06
-1.89021e-10
5.00008e-06
-2.35992e-10
5.0001e-06
-2.93527e-10
5.00013e-06
-3.55146e-10
5.00017e-06
-4.3373e-10
5.00022e-06
-5.12488e-10
5.00027e-06
-6.20442e-10
5.00033e-06
-7.18035e-10
5.00041e-06
-8.71615e-10
5.00049e-06
-9.88797e-10
5.00058e-06
-1.22188e-09
5.00069e-06
-1.34892e-09
5.0008e-06
-1.72085e-09
5.00091e-06
-1.80763e-09
-2.44322e-09
5e-06
-1.62783e-11
5e-06
-4.88016e-11
5.00001e-06
-8.1766e-11
5.00002e-06
-1.17546e-10
5.00003e-06
-1.56156e-10
5.00004e-06
-2.0159e-10
5.00006e-06
-2.51709e-10
5.00008e-06
-3.13068e-10
5.0001e-06
-3.78839e-10
5.00013e-06
-4.62224e-10
5.00016e-06
-5.46238e-10
5.0002e-06
-6.59961e-10
5.00025e-06
-7.63516e-10
5.0003e-06
-9.23829e-10
5.00036e-06
-1.04766e-09
5.00043e-06
-1.28805e-09
5.0005e-06
-1.4214e-09
5.00058e-06
-1.80109e-09
5.00067e-06
-1.89557e-09
-2.51744e-09
5e-06
-1.68028e-11
5e-06
-5.05558e-11
5.00001e-06
-8.47652e-11
5.00001e-06
-1.22032e-10
5.00002e-06
-1.62286e-10
5.00002e-06
-2.09438e-10
5.00003e-06
-2.61436e-10
5.00005e-06
-3.24988e-10
5.00006e-06
-3.93149e-10
5.00008e-06
-4.79318e-10
5.0001e-06
-5.6638e-10
5.00012e-06
-6.83418e-10
5.00015e-06
-7.90667e-10
5.00018e-06
-9.54999e-10
5.00022e-06
-1.08297e-09
5.00026e-06
-1.32759e-09
5.0003e-06
-1.46504e-09
5.00035e-06
-1.8482e-09
5.00039e-06
-1.94293e-09
-2.57347e-09
5e-06
-1.69467e-11
5e-06
-5.1097e-11
5e-06
-8.58129e-11
5e-06
-1.23599e-10
5.00001e-06
-1.64452e-10
5.00001e-06
-2.1214e-10
5.00001e-06
-2.64735e-10
5.00002e-06
-3.2889e-10
5.00002e-06
-3.97853e-10
5.00003e-06
-4.84946e-10
5.00003e-06
-5.73075e-10
5.00004e-06
-6.91361e-10
5.00005e-06
-7.99973e-10
5.00006e-06
-9.65584e-10
5.00007e-06
-1.09492e-09
5.00009e-06
-1.3407e-09
5.0001e-06
-1.47941e-09
5.00011e-06
-1.86328e-09
5.00013e-06
-1.95993e-09
-2.58977e-09
5e-06
-1.6745e-11
5e-06
-5.04713e-11
5e-06
-8.48058e-11
5e-06
-1.22083e-10
4.99999e-06
-1.62421e-10
4.99999e-06
-2.09511e-10
4.99999e-06
-2.61536e-10
4.99998e-06
-3.24955e-10
4.99998e-06
-3.93162e-10
4.99997e-06
-4.793e-10
4.99997e-06
-5.66293e-10
4.99996e-06
-6.83461e-10
4.99995e-06
-7.90821e-10
4.99994e-06
-9.55143e-10
4.99993e-06
-1.08309e-09
4.99991e-06
-1.32762e-09
4.9999e-06
-1.46501e-09
4.99988e-06
-1.84814e-09
4.99987e-06
-1.94291e-09
-2.57335e-09
5e-06
-1.62204e-11
5e-06
-4.87439e-11
4.99999e-06
-8.17758e-11
4.99999e-06
-1.17529e-10
4.99998e-06
-1.56295e-10
4.99998e-06
-2.01668e-10
4.99997e-06
-2.51828e-10
4.99995e-06
-3.13071e-10
4.99994e-06
-3.78817e-10
4.99992e-06
-4.62234e-10
4.9999e-06
-5.4615e-10
4.99988e-06
-6.59886e-10
4.99985e-06
-7.63593e-10
4.99982e-06
-9.23994e-10
4.99978e-06
-1.04781e-09
4.99974e-06
-1.28803e-09
4.9997e-06
-1.42134e-09
4.99965e-06
-1.801e-09
4.99961e-06
-1.89551e-09
-2.51726e-09
5e-06
-1.52997e-11
5e-06
-4.58768e-11
4.99999e-06
-7.68614e-11
4.99998e-06
-1.10291e-10
4.99997e-06
-1.4648e-10
4.99996e-06
-1.89073e-10
4.99994e-06
-2.36009e-10
4.99992e-06
-2.93605e-10
4.9999e-06
-3.55086e-10
4.99987e-06
-4.33719e-10
4.99984e-06
-5.12508e-10
4.9998e-06
-6.20318e-10
4.99975e-06
-7.17915e-10
4.9997e-06
-8.71586e-10
4.99964e-06
-9.88829e-10
4.99957e-06
-1.22181e-09
4.9995e-06
-1.34888e-09
4.99942e-06
-1.72073e-09
4.99933e-06
-1.80754e-09
-2.44288e-09
5e-06
-1.36369e-11
4.99999e-06
-4.1606e-11
4.99999e-06
-6.99089e-11
4.99998e-06
-1.00704e-10
4.99996e-06
-1.33578e-10
4.99995e-06
-1.72506e-10
4.99992e-06
-2.1499e-10
4.9999e-06
-2.67785e-10
4.99987e-06
-3.23531e-10
4.99983e-06
-3.95745e-10
4.99978e-06
-4.67129e-10
4.99973e-06
-5.66988e-10
4.99967e-06
-6.55177e-10
4.99959e-06
-7.99378e-10
4.99951e-06
-9.05692e-10
4.99942e-06
-1.12872e-09
4.99931e-06
-1.24481e-09
4.9992e-06
-1.61035e-09
4.99909e-06
-1.69296e-09
-2.29425e-09
5e-06
-1.13123e-11
4.99999e-06
-3.50205e-11
4.99998e-06
-5.94863e-11
4.99996e-06
-8.64766e-11
4.99995e-06
-1.15575e-10
4.99992e-06
-1.50064e-10
4.9999e-06
-1.87329e-10
4.99986e-06
-2.338e-10
4.99982e-06
-2.82798e-10
4.99977e-06
-3.46474e-10
4.99971e-06
-4.09072e-10
4.99964e-06
-4.98225e-10
4.99956e-06
-5.75988e-10
4.99947e-06
-7.06798e-10
4.99937e-06
-8.01121e-10
4.99925e-06
-1.00792e-09
4.99911e-06
-1.11132e-09
4.99896e-06
-1.45691e-09
4.99879e-06
-1.52913e-09
-2.16332e-09
5e-06
-1.24726e-11
5e-06
-3.21914e-11
4.99999e-06
-5.22406e-11
4.99998e-06
-7.44971e-11
4.99996e-06
-9.8272e-11
4.99994e-06
-1.26489e-10
4.9999e-06
-1.56872e-10
4.99987e-06
-1.95422e-10
4.99982e-06
-2.35663e-10
4.99976e-06
-2.89949e-10
4.99969e-06
-3.40666e-10
4.99961e-06
-4.1777e-10
4.99952e-06
-4.80117e-10
4.99941e-06
-5.96128e-10
4.99927e-06
-6.70758e-10
4.99913e-06
-8.61034e-10
4.99896e-06
-9.42426e-10
4.99878e-06
-1.27593e-09
4.99858e-06
-1.32824e-09
-1.89821e-09
4.99999e-06
-4.29423e-12
4.99998e-06
-1.9484e-11
4.99996e-06
-3.59727e-11
4.99994e-06
-5.43606e-11
4.99992e-06
-7.38418e-11
4.99989e-06
-9.61182e-11
4.99985e-06
-1.2063e-10
4.9998e-06
-1.50808e-10
4.99975e-06
-1.81775e-10
4.99968e-06
-2.24556e-10
4.99961e-06
-2.6402e-10
4.99951e-06
-3.2515e-10
4.99941e-06
-3.73313e-10
4.99928e-06
-4.6735e-10
4.99913e-06
-5.24286e-10
4.99895e-06
-6.83696e-10
4.99876e-06
-7.44584e-10
4.99852e-06
-1.03807e-09
4.99827e-06
-1.08087e-09
-1.68986e-09
5.00001e-06
-1.18462e-11
5.00001e-06
-1.83001e-11
5e-06
-2.8056e-11
4.99998e-06
-4.02845e-11
4.99996e-06
-5.24955e-11
4.99993e-06
-6.74038e-11
4.99989e-06
-8.33441e-11
4.99984e-06
-1.03394e-10
4.99978e-06
-1.23165e-10
4.99971e-06
-1.53493e-10
4.99963e-06
-1.78069e-10
4.99953e-06
-2.23236e-10
4.9994e-06
-2.51264e-10
4.99926e-06
-3.24096e-10
4.99909e-06
-3.53084e-10
4.99889e-06
-4.84153e-10
4.99865e-06
-5.07086e-10
4.99838e-06
-7.65832e-10
4.99806e-06
-7.58361e-10
-1.26185e-09
4.99998e-06
1.00501e-11
4.99996e-06
-3.9665e-12
4.99995e-06
-1.22064e-11
4.99992e-06
-1.88628e-11
4.9999e-06
-2.57999e-11
4.99986e-06
-3.18959e-11
4.99982e-06
-4.26396e-11
4.99977e-06
-5.7262e-11
4.99971e-06
-6.27774e-11
4.99963e-06
-7.82416e-11
4.99955e-06
-9.04649e-11
4.99944e-06
-1.14485e-10
4.99931e-06
-1.27366e-10
4.99916e-06
-1.67884e-10
4.99898e-06
-1.77748e-10
4.99875e-06
-2.55987e-10
4.9985e-06
-2.55221e-10
4.99817e-06
-4.30811e-10
4.99782e-06
-4.13482e-10
-8.9184e-10
5.00001e-06
5e-06
4.99999e-06
4.99997e-06
4.99995e-06
4.99991e-06
4.99987e-06
4.99982e-06
4.99975e-06
4.99967e-06
4.99958e-06
4.99947e-06
4.99934e-06
4.99917e-06
4.999e-06
4.99874e-06
4.99849e-06
4.99805e-06
4.99764e-06
)
;

boundaryField
{
    sides
    {
        type            calculated;
        value           uniform 0;
    }
    inlet
    {
        type            calculated;
        value           nonuniform List<scalar> 
20
(
-5e-06
-5e-06
-5e-06
-5e-06
-5e-06
-5e-06
-5e-06
-5e-06
-5e-06
-5e-06
-5e-06
-5e-06
-5e-06
-5e-06
-5e-06
-5e-06
-5e-06
-5e-06
-5e-06
-5e-06
)
;
    }
    outlet
    {
        type            calculated;
        value           nonuniform List<scalar> 
20
(
5.00325e-06
5.00255e-06
5.00237e-06
5.00194e-06
5.00169e-06
5.00134e-06
5.00106e-06
5.00074e-06
5.00045e-06
5.00015e-06
4.99985e-06
4.99955e-06
4.99926e-06
4.99894e-06
4.99866e-06
4.99831e-06
4.99806e-06
4.99763e-06
4.99745e-06
4.99675e-06
)
;
    }
    frontAndBack
    {
        type            empty;
        value           nonuniform 0();
    }
}


// ************************************************************************* //
