/*--------------------------------*- C++ -*----------------------------------*\
  =========                 |
  \\      /  F ield         | OpenFOAM: The Open Source CFD Toolbox
   \\    /   O peration     | Website:  https://openfoam.org
    \\  /    A nd           | Version:  7
     \\/     M anipulation  |
\*---------------------------------------------------------------------------*/
FoamFile
{
    version     2.0;
    format      ascii;
    class       volVectorField;
    location    "59";
    object      U;
}
// * * * * * * * * * * * * * * * * * * * * * * * * * * * * * * * * * * * * * //

dimensions      [0 1 -1 0 0 0 0];

internalField   nonuniform List<vector> 
400
(
(0.0999931 -8.69995e-07 0)
(0.099993 -2.36564e-06 0)
(0.0999931 -3.57876e-06 0)
(0.0999934 -4.63899e-06 0)
(0.0999939 -5.65001e-06 0)
(0.0999947 -6.70428e-06 0)
(0.0999955 -7.78106e-06 0)
(0.0999966 -8.89082e-06 0)
(0.0999978 -9.988e-06 0)
(0.0999996 -1.12094e-05 0)
(0.100001 -1.22931e-05 0)
(0.100004 -1.36417e-05 0)
(0.100006 -1.46672e-05 0)
(0.10001 -1.633e-05 0)
(0.100013 -1.71974e-05 0)
(0.10002 -1.9596e-05 0)
(0.100022 -2.00454e-05 0)
(0.100035 -2.42753e-05 0)
(0.100036 -2.38988e-05 0)
(0.10006 -3.31942e-05 0)
(0.0999943 3.95121e-07 0)
(0.0999947 1.20471e-06 0)
(0.0999953 2.01909e-06 0)
(0.0999958 2.79576e-06 0)
(0.0999963 3.52037e-06 0)
(0.099997 4.17297e-06 0)
(0.0999978 4.77357e-06 0)
(0.0999988 5.32445e-06 0)
(0.1 5.85668e-06 0)
(0.100002 6.23314e-06 0)
(0.100003 6.69e-06 0)
(0.100006 6.84775e-06 0)
(0.100008 7.25836e-06 0)
(0.100012 6.98237e-06 0)
(0.100015 7.40426e-06 0)
(0.10002 6.17743e-06 0)
(0.100024 6.73357e-06 0)
(0.100033 3.19377e-06 0)
(0.100036 4.00529e-06 0)
(0.10005 -5.45315e-06 0)
(0.0999947 -3.95634e-07 0)
(0.0999947 -1.2886e-06 0)
(0.0999948 -2.27853e-06 0)
(0.099995 -3.32632e-06 0)
(0.0999954 -4.37293e-06 0)
(0.099996 -5.44669e-06 0)
(0.0999967 -6.51982e-06 0)
(0.0999977 -7.71011e-06 0)
(0.0999988 -8.88127e-06 0)
(0.1 -1.027e-05 0)
(0.100002 -1.15603e-05 0)
(0.100004 -1.32794e-05 0)
(0.100006 -1.46801e-05 0)
(0.10001 -1.70046e-05 0)
(0.100013 -1.84891e-05 0)
(0.100018 -2.20602e-05 0)
(0.100021 -2.35052e-05 0)
(0.100029 -2.97032e-05 0)
(0.100032 -3.05765e-05 0)
(0.100046 -4.2225e-05 0)
(0.0999956 -1.03285e-08 0)
(0.0999958 1.89479e-08 0)
(0.0999962 1.02222e-07 0)
(0.0999967 1.88813e-07 0)
(0.0999972 2.6985e-07 0)
(0.0999978 2.66612e-07 0)
(0.0999986 2.24869e-07 0)
(0.0999995 1.31878e-08 0)
(0.100001 -2.22686e-07 0)
(0.100002 -7.19535e-07 0)
(0.100003 -1.15695e-06 0)
(0.100005 -2.09076e-06 0)
(0.100007 -2.75305e-06 0)
(0.10001 -4.43094e-06 0)
(0.100013 -5.3264e-06 0)
(0.100017 -8.43195e-06 0)
(0.10002 -9.4685e-06 0)
(0.100027 -1.53957e-05 0)
(0.100029 -1.60344e-05 0)
(0.100039 -2.75916e-05 0)
(0.0999962 -2.88887e-07 0)
(0.0999963 -9.09982e-07 0)
(0.0999964 -1.60246e-06 0)
(0.0999966 -2.39365e-06 0)
(0.0999969 -3.24724e-06 0)
(0.0999974 -4.21228e-06 0)
(0.099998 -5.22344e-06 0)
(0.0999988 -6.4098e-06 0)
(0.0999997 -7.62817e-06 0)
(0.100001 -9.13305e-06 0)
(0.100002 -1.05967e-05 0)
(0.100004 -1.25864e-05 0)
(0.100006 -1.4314e-05 0)
(0.100008 -1.71011e-05 0)
(0.100011 -1.90971e-05 0)
(0.100014 -2.3366e-05 0)
(0.100017 -2.54928e-05 0)
(0.100022 -3.2577e-05 0)
(0.100024 -3.40831e-05 0)
(0.100033 -4.64428e-05 0)
(0.0999969 -2.49991e-07 0)
(0.0999971 -7.21243e-07 0)
(0.0999973 -1.15885e-06 0)
(0.0999976 -1.60592e-06 0)
(0.0999979 -2.06332e-06 0)
(0.0999984 -2.61306e-06 0)
(0.099999 -3.21922e-06 0)
(0.0999997 -4.01683e-06 0)
(0.1 -4.86691e-06 0)
(0.100002 -6.03689e-06 0)
(0.100003 -7.18882e-06 0)
(0.100004 -8.89636e-06 0)
(0.100006 -1.03772e-05 0)
(0.100008 -1.29535e-05 0)
(0.10001 -1.47922e-05 0)
(0.100013 -1.89288e-05 0)
(0.100015 -2.09793e-05 0)
(0.100019 -2.79431e-05 0)
(0.100021 -2.93646e-05 0)
(0.100027 -4.15123e-05 0)
(0.0999976 -2.84507e-07 0)
(0.0999977 -8.61193e-07 0)
(0.0999978 -1.46583e-06 0)
(0.099998 -2.14554e-06 0)
(0.0999983 -2.8981e-06 0)
(0.0999986 -3.78692e-06 0)
(0.0999991 -4.77067e-06 0)
(0.0999996 -5.96996e-06 0)
(0.1 -7.24855e-06 0)
(0.100001 -8.8718e-06 0)
(0.100002 -1.04948e-05 0)
(0.100003 -1.26999e-05 0)
(0.100004 -1.46882e-05 0)
(0.100006 -1.77964e-05 0)
(0.100007 -2.01492e-05 0)
(0.10001 -2.48297e-05 0)
(0.100011 -2.73533e-05 0)
(0.100015 -3.48456e-05 0)
(0.100016 -3.66251e-05 0)
(0.100021 -4.9223e-05 0)
(0.0999983 -3.13439e-07 0)
(0.0999984 -9.4608e-07 0)
(0.0999985 -1.59613e-06 0)
(0.0999986 -2.30264e-06 0)
(0.0999988 -3.06204e-06 0)
(0.0999991 -3.94089e-06 0)
(0.0999994 -4.90093e-06 0)
(0.0999998 -6.06891e-06 0)
(0.1 -7.31595e-06 0)
(0.100001 -8.90575e-06 0)
(0.100002 -1.05003e-05 0)
(0.100002 -1.268e-05 0)
(0.100003 -1.46556e-05 0)
(0.100004 -1.77524e-05 0)
(0.100006 -2.01233e-05 0)
(0.100007 -2.48099e-05 0)
(0.100008 -2.73821e-05 0)
(0.100011 -3.48542e-05 0)
(0.100011 -3.66564e-05 0)
(0.100015 -4.90957e-05 0)
(0.099999 -3.29018e-07 0)
(0.099999 -9.93003e-07 0)
(0.0999991 -1.67051e-06 0)
(0.0999992 -2.40515e-06 0)
(0.0999993 -3.1949e-06 0)
(0.0999994 -4.11619e-06 0)
(0.0999996 -5.12986e-06 0)
(0.0999999 -6.37036e-06 0)
(0.1 -7.70733e-06 0)
(0.100001 -9.40776e-06 0)
(0.100001 -1.11329e-05 0)
(0.100001 -1.34653e-05 0)
(0.100002 -1.56018e-05 0)
(0.100003 -1.88816e-05 0)
(0.100003 -2.14265e-05 0)
(0.100004 -2.63103e-05 0)
(0.100005 -2.90364e-05 0)
(0.100006 -3.67062e-05 0)
(0.100007 -3.86061e-05 0)
(0.100009 -5.12554e-05 0)
(0.0999997 -3.3548e-07 0)
(0.0999997 -1.01514e-06 0)
(0.0999997 -1.70831e-06 0)
(0.0999997 -2.46058e-06 0)
(0.0999998 -3.27066e-06 0)
(0.0999998 -4.21753e-06 0)
(0.0999999 -5.26395e-06 0)
(0.1 -6.54448e-06 0)
(0.1 -7.9247e-06 0)
(0.1 -9.6677e-06 0)
(0.1 -1.14341e-05 0)
(0.1 -1.38026e-05 0)
(0.100001 -1.59765e-05 0)
(0.100001 -1.92879e-05 0)
(0.100001 -2.18717e-05 0)
(0.100001 -2.67817e-05 0)
(0.100002 -2.95499e-05 0)
(0.100002 -3.72287e-05 0)
(0.100002 -3.91621e-05 0)
(0.100003 -5.1758e-05 0)
(0.1 -3.35225e-07 0)
(0.1 -1.01443e-06 0)
(0.1 -1.70878e-06 0)
(0.1 -2.46064e-06 0)
(0.1 -3.27177e-06 0)
(0.1 -4.21795e-06 0)
(0.1 -5.26468e-06 0)
(0.1 -6.54452e-06 0)
(0.0999999 -7.92396e-06 0)
(0.0999998 -9.66729e-06 0)
(0.0999997 -1.14325e-05 0)
(0.0999995 -1.38012e-05 0)
(0.0999993 -1.5977e-05 0)
(0.0999991 -1.92888e-05 0)
(0.0999989 -2.18723e-05 0)
(0.0999986 -2.67825e-05 0)
(0.0999983 -2.9551e-05 0)
(0.0999979 -3.7229e-05 0)
(0.0999977 -3.91615e-05 0)
(0.0999971 -5.17572e-05 0)
(0.100001 -3.28284e-07 0)
(0.100001 -9.92036e-07 0)
(0.100001 -1.67088e-06 0)
(0.100001 -2.40539e-06 0)
(0.100001 -3.19699e-06 0)
(0.100001 -4.11763e-06 0)
(0.1 -5.13145e-06 0)
(0.1 -6.37134e-06 0)
(0.0999998 -7.7062e-06 0)
(0.0999995 -9.40704e-06 0)
(0.0999991 -1.11304e-05 0)
(0.0999985 -1.34623e-05 0)
(0.099998 -1.56017e-05 0)
(0.0999973 -1.88825e-05 0)
(0.0999967 -2.14274e-05 0)
(0.0999957 -2.63107e-05 0)
(0.099995 -2.90372e-05 0)
(0.0999936 -3.67045e-05 0)
(0.0999932 -3.8603e-05 0)
(0.0999912 -5.12493e-05 0)
(0.100002 -3.13007e-07 0)
(0.100002 -9.45905e-07 0)
(0.100002 -1.59549e-06 0)
(0.100001 -2.3035e-06 0)
(0.100001 -3.06276e-06 0)
(0.100001 -3.94289e-06 0)
(0.100001 -4.90179e-06 0)
(0.1 -6.07121e-06 0)
(0.0999997 -7.31658e-06 0)
(0.0999991 -8.90552e-06 0)
(0.0999985 -1.05003e-05 0)
(0.0999976 -1.26791e-05 0)
(0.0999967 -1.46551e-05 0)
(0.0999955 -1.7753e-05 0)
(0.0999945 -2.0125e-05 0)
(0.0999928 -2.48113e-05 0)
(0.0999917 -2.73847e-05 0)
(0.0999894 -3.4856e-05 0)
(0.0999885 -3.66576e-05 0)
(0.0999853 -4.90947e-05 0)
(0.100002 -2.84858e-07 0)
(0.100002 -8.61599e-07 0)
(0.100002 -1.46584e-06 0)
(0.100002 -2.14636e-06 0)
(0.100002 -2.89664e-06 0)
(0.100001 -3.78784e-06 0)
(0.100001 -4.7697e-06 0)
(0.1 -5.97093e-06 0)
(0.0999998 -7.25123e-06 0)
(0.099999 -8.87157e-06 0)
(0.0999981 -1.04948e-05 0)
(0.0999969 -1.26991e-05 0)
(0.0999957 -1.4686e-05 0)
(0.099994 -1.77925e-05 0)
(0.0999926 -2.01457e-05 0)
(0.0999902 -2.48243e-05 0)
(0.0999887 -2.73496e-05 0)
(0.0999853 -3.48389e-05 0)
(0.0999843 -3.66189e-05 0)
(0.0999793 -4.92094e-05 0)
(0.100003 -2.50488e-07 0)
(0.100003 -7.22078e-07 0)
(0.100003 -1.16054e-06 0)
(0.100002 -1.60594e-06 0)
(0.100002 -2.06295e-06 0)
(0.100002 -2.61256e-06 0)
(0.100001 -3.21907e-06 0)
(0.1 -4.0152e-06 0)
(0.0999995 -4.87155e-06 0)
(0.0999985 -6.04131e-06 0)
(0.0999973 -7.19193e-06 0)
(0.0999958 -8.89898e-06 0)
(0.0999943 -1.03788e-05 0)
(0.0999922 -1.29532e-05 0)
(0.0999903 -1.47917e-05 0)
(0.0999874 -1.89277e-05 0)
(0.0999853 -2.09799e-05 0)
(0.0999811 -2.79429e-05 0)
(0.0999793 -2.93657e-05 0)
(0.0999733 -4.15112e-05 0)
(0.100004 -2.89064e-07 0)
(0.100004 -9.10535e-07 0)
(0.100004 -1.60293e-06 0)
(0.100003 -2.39158e-06 0)
(0.100003 -3.24819e-06 0)
(0.100003 -4.20742e-06 0)
(0.100002 -5.22478e-06 0)
(0.100001 -6.40404e-06 0)
(0.1 -7.62542e-06 0)
(0.099999 -9.13552e-06 0)
(0.0999977 -1.05993e-05 0)
(0.0999959 -1.25876e-05 0)
(0.0999942 -1.4315e-05 0)
(0.0999916 -1.70992e-05 0)
(0.0999894 -1.90949e-05 0)
(0.0999856 -2.33606e-05 0)
(0.0999833 -2.54888e-05 0)
(0.0999776 -3.25673e-05 0)
(0.099976 -3.40762e-05 0)
(0.0999673 -4.64271e-05 0)
(0.100004 -1.05974e-08 0)
(0.100004 1.7414e-08 0)
(0.100004 1.02651e-07 0)
(0.100003 1.91571e-07 0)
(0.100003 2.68827e-07 0)
(0.100002 2.70295e-07 0)
(0.100001 2.17444e-07 0)
(0.100001 1.67395e-08 0)
(0.0999994 -2.13108e-07 0)
(0.0999981 -7.17706e-07 0)
(0.0999966 -1.15988e-06 0)
(0.0999946 -2.09405e-06 0)
(0.0999926 -2.75623e-06 0)
(0.0999896 -4.43212e-06 0)
(0.0999871 -5.32714e-06 0)
(0.0999828 -8.43045e-06 0)
(0.0999797 -9.46721e-06 0)
(0.0999734 -1.53913e-05 0)
(0.0999707 -1.60316e-05 0)
(0.0999614 -2.75858e-05 0)
(0.100005 -3.95495e-07 0)
(0.100005 -1.28848e-06 0)
(0.100005 -2.27791e-06 0)
(0.100005 -3.32658e-06 0)
(0.100005 -4.37007e-06 0)
(0.100004 -5.45095e-06 0)
(0.100003 -6.52864e-06 0)
(0.100002 -7.70692e-06 0)
(0.100001 -8.87771e-06 0)
(0.0999996 -1.02681e-05 0)
(0.099998 -1.1561e-05 0)
(0.0999957 -1.32801e-05 0)
(0.0999936 -1.46825e-05 0)
(0.0999901 -1.70065e-05 0)
(0.0999874 -1.84934e-05 0)
(0.099982 -2.20614e-05 0)
(0.0999791 -2.35087e-05 0)
(0.0999706 -2.9701e-05 0)
(0.0999684 -3.05779e-05 0)
(0.0999544 -4.22178e-05 0)
(0.100006 3.94463e-07 0)
(0.100005 1.20862e-06 0)
(0.100005 2.02123e-06 0)
(0.100004 2.78926e-06 0)
(0.100004 3.51837e-06 0)
(0.100003 4.16443e-06 0)
(0.100002 4.79764e-06 0)
(0.100001 5.305e-06 0)
(0.1 5.84202e-06 0)
(0.0999984 6.23902e-06 0)
(0.0999967 6.70085e-06 0)
(0.0999943 6.85672e-06 0)
(0.099992 7.26215e-06 0)
(0.0999884 6.98371e-06 0)
(0.0999855 7.40319e-06 0)
(0.0999799 6.17962e-06 0)
(0.0999764 6.73512e-06 0)
(0.0999674 3.20052e-06 0)
(0.0999642 4.0101e-06 0)
(0.09995 -5.44089e-06 0)
(0.100007 -8.7114e-07 0)
(0.100007 -2.36361e-06 0)
(0.100007 -3.57816e-06 0)
(0.100007 -4.64556e-06 0)
(0.100006 -5.65746e-06 0)
(0.100005 -6.71141e-06 0)
(0.100004 -7.75783e-06 0)
(0.100003 -8.91745e-06 0)
(0.100002 -1.0006e-05 0)
(0.1 -1.12095e-05 0)
(0.0999988 -1.22903e-05 0)
(0.0999961 -1.36421e-05 0)
(0.0999941 -1.46722e-05 0)
(0.0999898 -1.63375e-05 0)
(0.0999874 -1.72063e-05 0)
(0.0999803 -1.96044e-05 0)
(0.0999779 -2.0054e-05 0)
(0.0999653 -2.42844e-05 0)
(0.0999638 -2.3908e-05 0)
(0.0999403 -3.32078e-05 0)
)
;

boundaryField
{
    sides
    {
        type            calculated;
        value           nonuniform List<vector> 
40
(
(0.100007 0 0)
(0.100007 0 0)
(0.100007 0 0)
(0.100007 0 0)
(0.100006 0 0)
(0.100005 0 0)
(0.100004 0 0)
(0.100003 0 0)
(0.100002 0 0)
(0.1 0 0)
(0.0999988 0 0)
(0.0999961 0 0)
(0.0999941 0 0)
(0.0999898 0 0)
(0.0999874 0 0)
(0.0999803 0 0)
(0.0999779 0 0)
(0.0999653 0 0)
(0.0999638 0 0)
(0.0999403 0 0)
(0.0999931 0 0)
(0.099993 0 0)
(0.0999931 0 0)
(0.0999934 0 0)
(0.0999939 0 0)
(0.0999947 0 0)
(0.0999955 0 0)
(0.0999966 0 0)
(0.0999978 0 0)
(0.0999996 0 0)
(0.100001 0 0)
(0.100004 0 0)
(0.100006 0 0)
(0.10001 0 0)
(0.100013 0 0)
(0.10002 0 0)
(0.100022 0 0)
(0.100035 0 0)
(0.100036 0 0)
(0.10006 0 0)
)
;
    }
    inlet
    {
        type            calculated;
        value           nonuniform List<vector> 
20
(
(0.0999931 0 0)
(0.0999943 0 0)
(0.0999948 0 0)
(0.0999956 0 0)
(0.0999962 0 0)
(0.0999969 0 0)
(0.0999976 0 0)
(0.0999983 0 0)
(0.099999 0 0)
(0.0999997 0 0)
(0.1 0 0)
(0.100001 0 0)
(0.100002 0 0)
(0.100002 0 0)
(0.100003 0 0)
(0.100004 0 0)
(0.100004 0 0)
(0.100005 0 0)
(0.100006 0 0)
(0.100007 0 0)
)
;
    }
    outlet
    {
        type            calculated;
        value           nonuniform List<vector> 
20
(
(0.100061 -3.31945e-05 0)
(0.10005 -5.45317e-06 0)
(0.100046 -4.22252e-05 0)
(0.100039 -2.75917e-05 0)
(0.100033 -4.6443e-05 0)
(0.100027 -4.15124e-05 0)
(0.100021 -4.9223e-05 0)
(0.100015 -4.90958e-05 0)
(0.100009 -5.12555e-05 0)
(0.100003 -5.1758e-05 0)
(0.099997 -5.17572e-05 0)
(0.0999911 -5.12493e-05 0)
(0.0999852 -4.90946e-05 0)
(0.0999792 -4.92093e-05 0)
(0.0999732 -4.15111e-05 0)
(0.099967 -4.64269e-05 0)
(0.0999612 -2.75857e-05 0)
(0.099954 -4.22176e-05 0)
(0.0999496 -5.44087e-06 0)
(0.0999394 -3.32075e-05 0)
)
;
    }
    frontAndBack
    {
        type            empty;
    }
}


// ************************************************************************* //
