/*--------------------------------*- C++ -*----------------------------------*\
  =========                 |
  \\      /  F ield         | OpenFOAM: The Open Source CFD Toolbox
   \\    /   O peration     | Website:  https://openfoam.org
    \\  /    A nd           | Version:  7
     \\/     M anipulation  |
\*---------------------------------------------------------------------------*/
FoamFile
{
    version     2.0;
    format      ascii;
    class       volVectorField;
    location    "1";
    object      ddt0(hU);
}
// * * * * * * * * * * * * * * * * * * * * * * * * * * * * * * * * * * * * * //

dimensions      [0 2 -2 0 0 0 0];

internalField   nonuniform List<vector> 
400
(
(3.25112e-09 2.50368e-08 0)
(-2.51019e-08 6.56848e-09 0)
(-4.52203e-08 -2.36983e-08 0)
(-3.31463e-08 -3.15885e-08 0)
(-9.40565e-09 -2.8367e-08 0)
(1.18105e-08 -2.40844e-08 0)
(2.75537e-08 -2.14014e-08 0)
(3.73704e-08 -2.01016e-08 0)
(4.25641e-08 -1.95388e-08 0)
(4.50132e-08 -1.93101e-08 0)
(4.60759e-08 -1.92237e-08 0)
(4.64791e-08 -1.91939e-08 0)
(4.64508e-08 -1.91759e-08 0)
(4.61513e-08 -1.90753e-08 0)
(4.68773e-08 -1.88174e-08 0)
(5.62826e-08 -1.88377e-08 0)
(7.97525e-08 -2.27366e-08 0)
(1.26208e-07 -3.56303e-08 0)
(1.43561e-07 -4.43196e-08 0)
(2.26439e-07 -7.64496e-08 0)
(2.20686e-09 4.45431e-08 0)
(-1.72111e-08 5.2484e-08 0)
(-2.64161e-08 3.3367e-08 0)
(-1.30016e-08 3.16216e-08 0)
(6.93943e-09 3.91547e-08 0)
(2.41259e-08 4.65647e-08 0)
(3.63919e-08 5.12225e-08 0)
(4.38509e-08 5.35769e-08 0)
(4.77882e-08 5.46379e-08 0)
(4.96582e-08 5.50822e-08 0)
(5.04775e-08 5.52549e-08 0)
(5.07938e-08 5.53167e-08 0)
(5.08085e-08 5.53573e-08 0)
(5.06355e-08 5.55395e-08 0)
(5.12584e-08 5.59821e-08 0)
(5.69796e-08 5.56939e-08 0)
(7.43455e-08 4.85085e-08 0)
(1.0652e-07 2.49387e-08 0)
(1.35134e-07 3.35051e-09 0)
(1.73446e-07 -5.22939e-08 0)
(3.3559e-09 4.92507e-08 0)
(-1.65367e-08 3.24489e-08 0)
(-1.63116e-08 -2.29437e-09 0)
(9.36211e-10 -8.83683e-09 0)
(1.9833e-08 -2.09012e-09 0)
(3.45232e-08 4.90761e-09 0)
(4.42692e-08 9.17974e-09 0)
(4.99109e-08 1.13343e-08 0)
(5.28096e-08 1.23209e-08 0)
(5.41669e-08 1.27426e-08 0)
(5.47579e-08 1.29109e-08 0)
(5.49903e-08 1.2974e-08 0)
(5.50261e-08 1.30146e-08 0)
(5.49353e-08 1.31472e-08 0)
(5.52245e-08 1.34573e-08 0)
(5.82666e-08 1.30852e-08 0)
(6.92097e-08 7.74571e-09 0)
(9.15126e-08 -1.13113e-08 0)
(1.18089e-07 -3.86401e-08 0)
(1.53694e-07 -9.31016e-08 0)
(3.28606e-09 4.81753e-08 0)
(-7.91002e-09 2.13515e-08 0)
(-2.255e-09 -1.42843e-08 0)
(1.19385e-08 -1.98118e-08 0)
(2.5281e-08 -1.26554e-08 0)
(3.51044e-08 -5.92499e-09 0)
(4.13808e-08 -2.06547e-09 0)
(4.4925e-08 -1.93621e-10 0)
(4.67265e-08 6.45933e-10 0)
(4.75685e-08 1.00166e-09 0)
(4.79366e-08 1.14396e-09 0)
(4.80846e-08 1.1979e-09 0)
(4.81201e-08 1.22755e-09 0)
(4.80821e-08 1.30344e-09 0)
(4.81848e-08 1.49608e-09 0)
(4.95025e-08 1.37682e-09 0)
(5.50522e-08 -1.64578e-09 0)
(6.76814e-08 -1.48325e-08 0)
(8.67517e-08 -3.98198e-08 0)
(1.07589e-07 -9.61233e-08 0)
(1.71351e-09 3.28879e-08 0)
(-3.3548e-09 -8.35482e-09 0)
(1.83449e-09 -5.06706e-08 0)
(1.07519e-08 -6.05932e-08 0)
(1.86203e-08 -5.64836e-08 0)
(2.42484e-08 -5.17693e-08 0)
(2.77589e-08 -4.90903e-08 0)
(2.97129e-08 -4.78186e-08 0)
(3.07024e-08 -4.72523e-08 0)
(3.11666e-08 -4.70114e-08 0)
(3.13711e-08 -4.69139e-08 0)
(3.14552e-08 -4.68764e-08 0)
(3.14807e-08 -4.68583e-08 0)
(3.14691e-08 -4.68232e-08 0)
(3.14965e-08 -4.6727e-08 0)
(3.19671e-08 -4.67316e-08 0)
(3.4286e-08 -4.80531e-08 0)
(4.01599e-08 -5.49926e-08 0)
(5.09879e-08 -7.11109e-08 0)
(6.17053e-08 -1.11894e-07 0)
(5.81224e-10 1.84098e-08 0)
(-1.29156e-09 -3.51203e-08 0)
(1.74196e-09 -8.44937e-08 0)
(6.22359e-09 -9.92038e-08 0)
(1.00932e-08 -9.82508e-08 0)
(1.28407e-08 -9.54711e-08 0)
(1.45453e-08 -9.38571e-08 0)
(1.54941e-08 -9.3111e-08 0)
(1.59777e-08 -9.27822e-08 0)
(1.6207e-08 -9.26413e-08 0)
(1.63095e-08 -9.25835e-08 0)
(1.63526e-08 -9.25608e-08 0)
(1.63676e-08 -9.25509e-08 0)
(1.63657e-08 -9.2537e-08 0)
(1.63711e-08 -9.24971e-08 0)
(1.65139e-08 -9.24776e-08 0)
(1.73423e-08 -9.29331e-08 0)
(1.96593e-08 -9.58453e-08 0)
(2.47842e-08 -1.03743e-07 0)
(2.95127e-08 -1.26652e-07 0)
(1.26289e-10 1.00911e-08 0)
(-4.68859e-10 -5.09273e-08 0)
(8.61985e-10 -1.05351e-07 0)
(2.72759e-09 -1.23624e-07 0)
(4.35399e-09 -1.24984e-07 0)
(5.52302e-09 -1.23568e-07 0)
(6.25576e-09 -1.22683e-07 0)
(6.66848e-09 -1.22292e-07 0)
(6.88195e-09 -1.22124e-07 0)
(6.9849e-09 -1.22051e-07 0)
(7.03174e-09 -1.22021e-07 0)
(7.05191e-09 -1.22009e-07 0)
(7.05957e-09 -1.22004e-07 0)
(7.06012e-09 -1.21998e-07 0)
(7.06088e-09 -1.21984e-07 0)
(7.09877e-09 -1.2197e-07 0)
(7.36027e-09 -1.22098e-07 0)
(8.15641e-09 -1.23122e-07 0)
(1.02282e-08 -1.26284e-07 0)
(1.20459e-08 -1.36807e-07 0)
(5.59866e-12 6.51939e-09 0)
(-1.6917e-10 -5.80921e-08 0)
(3.01319e-10 -1.1524e-07 0)
(9.64552e-10 -1.35496e-07 0)
(1.56093e-09 -1.38147e-07 0)
(2.00111e-09 -1.37488e-07 0)
(2.28321e-09 -1.37005e-07 0)
(2.44549e-09 -1.36812e-07 0)
(2.53125e-09 -1.36734e-07 0)
(2.57353e-09 -1.367e-07 0)
(2.5932e-09 -1.36685e-07 0)
(2.60188e-09 -1.36679e-07 0)
(2.60537e-09 -1.36677e-07 0)
(2.60606e-09 -1.36675e-07 0)
(2.60616e-09 -1.36671e-07 0)
(2.61517e-09 -1.36664e-07 0)
(2.69004e-09 -1.36694e-07 0)
(2.93449e-09 -1.37008e-07 0)
(3.66957e-09 -1.38091e-07 0)
(4.29338e-09 -1.42203e-07 0)
(-8.21203e-12 5.29072e-09 0)
(-5.90879e-11 -6.07222e-08 0)
(7.85369e-11 -1.19043e-07 0)
(2.81542e-10 -1.40188e-07 0)
(4.71814e-10 -1.4343e-07 0)
(6.17072e-10 -1.43121e-07 0)
(7.12908e-10 -1.42827e-07 0)
(7.69517e-10 -1.42727e-07 0)
(8.00198e-10 -1.42692e-07 0)
(8.15699e-10 -1.42678e-07 0)
(8.23083e-10 -1.42671e-07 0)
(8.2642e-10 -1.42668e-07 0)
(8.2782e-10 -1.42667e-07 0)
(8.28206e-10 -1.42666e-07 0)
(8.28245e-10 -1.42665e-07 0)
(8.302e-10 -1.42663e-07 0)
(8.49874e-10 -1.42668e-07 0)
(9.17717e-10 -1.42756e-07 0)
(1.14865e-09 -1.43089e-07 0)
(1.34122e-09 -1.44527e-07 0)
(-2.31596e-12 4.95381e-09 0)
(-1.61568e-11 -6.14916e-08 0)
(9.64867e-12 -1.20205e-07 0)
(5.11504e-11 -1.41661e-07 0)
(9.07899e-11 -1.45115e-07 0)
(1.21554e-10 -1.44934e-07 0)
(1.42267e-10 -1.4471e-07 0)
(1.54765e-10 -1.44646e-07 0)
(1.61692e-10 -1.44628e-07 0)
(1.65275e-10 -1.4462e-07 0)
(1.67021e-10 -1.44617e-07 0)
(1.67828e-10 -1.44615e-07 0)
(1.68177e-10 -1.44615e-07 0)
(1.68285e-10 -1.44614e-07 0)
(1.68296e-10 -1.44614e-07 0)
(1.68616e-10 -1.44613e-07 0)
(1.72432e-10 -1.44614e-07 0)
(1.86056e-10 -1.44641e-07 0)
(2.36456e-10 -1.44755e-07 0)
(2.78236e-10 -1.45314e-07 0)
(4.67187e-12 4.95386e-09 0)
(9.8497e-12 -6.14915e-08 0)
(-2.14532e-11 -1.20205e-07 0)
(-6.71816e-11 -1.41661e-07 0)
(-1.13137e-10 -1.45115e-07 0)
(-1.50091e-10 -1.44934e-07 0)
(-1.75287e-10 -1.4471e-07 0)
(-1.90519e-10 -1.44645e-07 0)
(-1.98906e-10 -1.44627e-07 0)
(-2.03189e-10 -1.4462e-07 0)
(-2.05243e-10 -1.44616e-07 0)
(-2.06177e-10 -1.44615e-07 0)
(-2.06575e-10 -1.44614e-07 0)
(-2.06703e-10 -1.44614e-07 0)
(-2.06728e-10 -1.44613e-07 0)
(-2.07066e-10 -1.44613e-07 0)
(-2.10892e-10 -1.44613e-07 0)
(-2.24515e-10 -1.44641e-07 0)
(-2.74954e-10 -1.44755e-07 0)
(-3.16763e-10 -1.45314e-07 0)
(1.05796e-11 5.29092e-09 0)
(5.2834e-11 -6.07217e-08 0)
(-9.0318e-11 -1.19042e-07 0)
(-2.97602e-10 -1.40187e-07 0)
(-4.94233e-10 -1.43429e-07 0)
(-6.4571e-10 -1.4312e-07 0)
(-7.46046e-10 -1.42825e-07 0)
(-8.05398e-10 -1.42726e-07 0)
(-8.37544e-10 -1.42691e-07 0)
(-8.53748e-10 -1.42676e-07 0)
(-8.61441e-10 -1.42669e-07 0)
(-8.64905e-10 -1.42667e-07 0)
(-8.66355e-10 -1.42665e-07 0)
(-8.6676e-10 -1.42665e-07 0)
(-8.66814e-10 -1.42663e-07 0)
(-8.68788e-10 -1.42661e-07 0)
(-8.8848e-10 -1.42667e-07 0)
(-9.56349e-10 -1.42755e-07 0)
(-1.18738e-09 -1.43088e-07 0)
(-1.38008e-09 -1.44527e-07 0)
(-3.19997e-12 6.51997e-09 0)
(1.63089e-10 -5.80906e-08 0)
(-3.12988e-10 -1.15238e-07 0)
(-9.80622e-10 -1.35493e-07 0)
(-1.58346e-09 -1.38144e-07 0)
(-2.02992e-09 -1.37485e-07 0)
(-2.31656e-09 -1.37002e-07 0)
(-2.48161e-09 -1.36809e-07 0)
(-2.56885e-09 -1.3673e-07 0)
(-2.61183e-09 -1.36696e-07 0)
(-2.63181e-09 -1.36682e-07 0)
(-2.64062e-09 -1.36676e-07 0)
(-2.64416e-09 -1.36673e-07 0)
(-2.64487e-09 -1.36672e-07 0)
(-2.64498e-09 -1.36667e-07 0)
(-2.65402e-09 -1.36661e-07 0)
(-2.72894e-09 -1.3669e-07 0)
(-2.97349e-09 -1.37005e-07 0)
(-3.70885e-09 -1.38089e-07 0)
(-4.33308e-09 -1.42201e-07 0)
(-1.23822e-10 1.00924e-08 0)
(4.63236e-10 -5.09239e-08 0)
(-8.73231e-10 -1.05346e-07 0)
(-2.74342e-09 -1.23618e-07 0)
(-4.37642e-09 -1.24977e-07 0)
(-5.55182e-09 -1.23561e-07 0)
(-6.28916e-09 -1.22676e-07 0)
(-6.70468e-09 -1.22285e-07 0)
(-6.91964e-09 -1.22117e-07 0)
(-7.0233e-09 -1.22044e-07 0)
(-7.07046e-09 -1.22013e-07 0)
(-7.09076e-09 -1.22001e-07 0)
(-7.09847e-09 -1.21996e-07 0)
(-7.09904e-09 -1.21991e-07 0)
(-7.09981e-09 -1.21977e-07 0)
(-7.13774e-09 -1.21963e-07 0)
(-7.39936e-09 -1.22091e-07 0)
(-8.1958e-09 -1.23115e-07 0)
(-1.02682e-08 -1.26278e-07 0)
(-1.20871e-08 -1.36804e-07 0)
(-5.78618e-10 1.84122e-08 0)
(1.28692e-09 -3.51142e-08 0)
(-1.75198e-09 -8.44852e-08 0)
(-6.23822e-09 -9.91939e-08 0)
(-1.01144e-08 -9.82403e-08 0)
(-1.28684e-08 -9.54601e-08 0)
(-1.45776e-08 -9.38459e-08 0)
(-1.55292e-08 -9.30997e-08 0)
(-1.60143e-08 -9.27709e-08 0)
(-1.62444e-08 -9.26299e-08 0)
(-1.63471e-08 -9.25721e-08 0)
(-1.63903e-08 -9.25494e-08 0)
(-1.64054e-08 -9.25395e-08 0)
(-1.64035e-08 -9.25256e-08 0)
(-1.64089e-08 -9.24857e-08 0)
(-1.65518e-08 -9.24662e-08 0)
(-1.73805e-08 -9.29219e-08 0)
(-1.96982e-08 -9.58348e-08 0)
(-2.48242e-08 -1.03735e-07 0)
(-2.95555e-08 -1.26648e-07 0)
(-1.71062e-09 3.28908e-08 0)
(3.35173e-09 -8.34691e-09 0)
(-1.84201e-09 -5.06598e-08 0)
(-1.07635e-08 -6.05812e-08 0)
(-1.86381e-08 -5.6471e-08 0)
(-2.42722e-08 -5.17564e-08 0)
(-2.77873e-08 -4.90773e-08 0)
(-2.97439e-08 -4.78055e-08 0)
(-3.07349e-08 -4.72391e-08 0)
(-3.11998e-08 -4.69982e-08 0)
(-3.14046e-08 -4.69007e-08 0)
(-3.14888e-08 -4.68632e-08 0)
(-3.15144e-08 -4.68451e-08 0)
(-3.15028e-08 -4.681e-08 0)
(-3.15302e-08 -4.67138e-08 0)
(-3.20009e-08 -4.67185e-08 0)
(-3.43202e-08 -4.80402e-08 0)
(-4.01954e-08 -5.49805e-08 0)
(-5.10249e-08 -7.11008e-08 0)
(-6.17477e-08 -1.11888e-07 0)
(-3.28282e-09 4.81773e-08 0)
(7.90852e-09 2.13583e-08 0)
(2.25088e-09 -1.42757e-08 0)
(-1.19452e-08 -1.9803e-08 0)
(-2.52927e-08 -1.26468e-08 0)
(-3.51214e-08 -5.91661e-09 0)
(-4.14017e-08 -2.05716e-09 0)
(-4.49484e-08 -1.85347e-10 0)
(-4.67512e-08 6.54189e-10 0)
(-4.75939e-08 1.00991e-09 0)
(-4.79622e-08 1.1522e-09 0)
(-4.81103e-08 1.20614e-09 0)
(-4.81459e-08 1.23579e-09 0)
(-4.81079e-08 1.31168e-09 0)
(-4.82106e-08 1.50431e-09 0)
(-4.95284e-08 1.38507e-09 0)
(-5.50784e-08 -1.63762e-09 0)
(-6.77093e-08 -1.48249e-08 0)
(-8.67806e-08 -3.98138e-08 0)
(-1.07627e-07 -9.61177e-08 0)
(-3.35269e-09 4.92512e-08 0)
(1.65347e-08 3.24544e-08 0)
(1.63085e-08 -2.28668e-09 0)
(-9.39715e-10 -8.82927e-09 0)
(-1.98397e-08 -2.08314e-09 0)
(-3.45339e-08 4.91415e-09 0)
(-4.4283e-08 9.18602e-09 0)
(-4.99266e-08 1.13404e-08 0)
(-5.28262e-08 1.23269e-08 0)
(-5.4184e-08 1.27486e-08 0)
(-5.47753e-08 1.29169e-08 0)
(-5.50077e-08 1.298e-08 0)
(-5.50436e-08 1.30206e-08 0)
(-5.49528e-08 1.31532e-08 0)
(-5.5242e-08 1.34633e-08 0)
(-5.8284e-08 1.30914e-08 0)
(-6.92271e-08 7.75206e-09 0)
(-9.15318e-08 -1.13047e-08 0)
(-1.18109e-07 -3.86348e-08 0)
(-1.53722e-07 -9.30909e-08 0)
(-2.20448e-09 4.45394e-08 0)
(1.72119e-08 5.24812e-08 0)
(2.64198e-08 3.33656e-08 0)
(1.3008e-08 3.16203e-08 0)
(-6.93412e-09 3.91528e-08 0)
(-2.41232e-08 4.6562e-08 0)
(-3.63914e-08 5.12191e-08 0)
(-4.38517e-08 5.3573e-08 0)
(-4.77897e-08 5.46338e-08 0)
(-4.966e-08 5.5078e-08 0)
(-5.04795e-08 5.52506e-08 0)
(-5.07958e-08 5.53124e-08 0)
(-5.08105e-08 5.5353e-08 0)
(-5.06375e-08 5.55351e-08 0)
(-5.12603e-08 5.59777e-08 0)
(-5.69813e-08 5.569e-08 0)
(-7.43465e-08 4.85061e-08 0)
(-1.06524e-07 2.49376e-08 0)
(-1.35136e-07 3.34744e-09 0)
(-1.73461e-07 -5.22904e-08 0)
(-3.24838e-09 2.50347e-08 0)
(2.50978e-08 6.56586e-09 0)
(4.5213e-08 -2.37015e-08 0)
(3.31377e-08 -3.15895e-08 0)
(9.39492e-09 -2.83655e-08 0)
(-1.18229e-08 -2.40815e-08 0)
(-2.75671e-08 -2.13979e-08 0)
(-3.73842e-08 -2.00978e-08 0)
(-4.2578e-08 -1.95349e-08 0)
(-4.50271e-08 -1.93062e-08 0)
(-4.60898e-08 -1.92197e-08 0)
(-4.6493e-08 -1.91899e-08 0)
(-4.64647e-08 -1.9172e-08 0)
(-4.61651e-08 -1.90714e-08 0)
(-4.68909e-08 -1.88134e-08 0)
(-5.62952e-08 -1.88336e-08 0)
(-7.97649e-08 -2.27323e-08 0)
(-1.26221e-07 -3.56242e-08 0)
(-1.43581e-07 -4.43176e-08 0)
(-2.26461e-07 -7.64332e-08 0)
)
;

boundaryField
{
    sides
    {
        type            calculated;
        value           nonuniform List<vector> 
40
(
(-3.24838e-09 0 0)
(2.50978e-08 0 0)
(4.5213e-08 0 0)
(3.31377e-08 0 0)
(9.39492e-09 0 0)
(-1.18229e-08 0 0)
(-2.75671e-08 0 0)
(-3.73842e-08 0 0)
(-4.2578e-08 0 0)
(-4.50271e-08 0 0)
(-4.60898e-08 0 0)
(-4.6493e-08 0 0)
(-4.64647e-08 0 0)
(-4.61651e-08 0 0)
(-4.68909e-08 0 0)
(-5.62952e-08 0 0)
(-7.97649e-08 0 0)
(-1.26221e-07 0 0)
(-1.43581e-07 0 0)
(-2.26461e-07 0 0)
(3.25112e-09 0 0)
(-2.51019e-08 0 0)
(-4.52203e-08 0 0)
(-3.31463e-08 0 0)
(-9.40565e-09 0 0)
(1.18105e-08 0 0)
(2.75537e-08 0 0)
(3.73704e-08 0 0)
(4.25641e-08 0 0)
(4.50132e-08 0 0)
(4.60759e-08 0 0)
(4.64791e-08 0 0)
(4.64508e-08 0 0)
(4.61513e-08 0 0)
(4.68773e-08 0 0)
(5.62826e-08 0 0)
(7.97525e-08 0 0)
(1.26208e-07 0 0)
(1.43561e-07 0 0)
(2.26439e-07 0 0)
)
;
    }
    inlet
    {
        type            calculated;
        value           uniform (0 0 0);
    }
    outlet
    {
        type            calculated;
        value           nonuniform List<vector> 
20
(
(2.26439e-07 -7.64496e-08 0)
(1.73446e-07 -5.22939e-08 0)
(1.53694e-07 -9.31016e-08 0)
(1.07589e-07 -9.61233e-08 0)
(6.17053e-08 -1.11894e-07 0)
(2.95127e-08 -1.26652e-07 0)
(1.20459e-08 -1.36807e-07 0)
(4.29338e-09 -1.42203e-07 0)
(1.34122e-09 -1.44527e-07 0)
(2.78236e-10 -1.45314e-07 0)
(-3.16763e-10 -1.45314e-07 0)
(-1.38008e-09 -1.44527e-07 0)
(-4.33308e-09 -1.42201e-07 0)
(-1.20871e-08 -1.36804e-07 0)
(-2.95555e-08 -1.26648e-07 0)
(-6.17477e-08 -1.11888e-07 0)
(-1.07627e-07 -9.61177e-08 0)
(-1.53722e-07 -9.30909e-08 0)
(-1.73461e-07 -5.22904e-08 0)
(-2.26461e-07 -7.64332e-08 0)
)
;
    }
    frontAndBack
    {
        type            empty;
    }
}


// ************************************************************************* //
