/*--------------------------------*- C++ -*----------------------------------*\
  =========                 |
  \\      /  F ield         | OpenFOAM: The Open Source CFD Toolbox
   \\    /   O peration     | Website:  https://openfoam.org
    \\  /    A nd           | Version:  7
     \\/     M anipulation  |
\*---------------------------------------------------------------------------*/
FoamFile
{
    version     2.0;
    format      ascii;
    class       surfaceScalarField;
    location    "1";
    object      ddtCorrDdt0(phi);
}
// * * * * * * * * * * * * * * * * * * * * * * * * * * * * * * * * * * * * * //

dimensions      [0 4 -2 0 0 0 0];

internalField   nonuniform List<scalar> 
760
(
-9.68232e-11
2.2299e-11
-1.95704e-10
1.33474e-10
-1.88563e-10
2.3604e-11
-1.04113e-10
-1.64628e-11
7.37211e-12
-6.36123e-12
1.0355e-10
1.32281e-11
1.67808e-10
2.76265e-11
2.04004e-10
3.54423e-11
2.22016e-10
3.91132e-11
2.30159e-10
4.06929e-11
2.33612e-10
4.13156e-11
2.3484e-10
4.15423e-11
2.33673e-10
4.17211e-11
2.27889e-10
4.25034e-11
2.27444e-10
4.39136e-11
2.9131e-10
4.03219e-11
5.01976e-10
1.01125e-11
7.52283e-10
-5.97369e-11
8.64485e-10
-7.8266e-11
-2.78372e-10
-8.35578e-11
2.1951e-10
-1.24968e-10
1.61048e-10
-9.64998e-11
1.32137e-11
-1.35538e-11
-9.70897e-12
7.98074e-11
2.5964e-11
1.54936e-10
6.17034e-11
2.03907e-10
8.3782e-11
2.31317e-10
9.49799e-11
2.44987e-10
1.00101e-10
2.51221e-10
1.02282e-10
2.53884e-10
1.03147e-10
2.54841e-10
1.03469e-10
2.54176e-10
1.03692e-10
2.50911e-10
1.04504e-10
2.51145e-10
1.06255e-10
2.90987e-10
1.03804e-10
4.29878e-10
7.15581e-11
6.47799e-10
-3.6268e-11
7.94088e-10
-1.65502e-10
-4.24144e-10
-8.99506e-11
2.69009e-10
-9.54592e-11
1.7187e-10
-3.51158e-11
9.32357e-12
5.47088e-11
-1.25683e-11
1.38779e-10
2.70238e-11
2.00113e-10
6.39134e-11
2.37863e-10
8.54765e-11
2.58275e-10
9.60829e-11
2.68248e-10
1.00867e-10
2.72748e-10
1.02895e-10
2.74659e-10
1.03704e-10
2.75372e-10
1.04008e-10
2.75145e-10
1.04185e-10
2.73493e-10
1.04689e-10
2.72881e-10
1.05947e-10
2.92281e-10
1.05005e-10
3.74684e-10
8.45281e-11
5.33223e-10
-1.61623e-13
7.02115e-10
-1.47694e-10
-4.57022e-10
-5.76016e-11
2.00349e-10
-3.32331e-11
3.46656e-11
2.67081e-11
-1.5454e-10
9.54108e-11
-1.90188e-10
1.53348e-10
-1.60604e-10
1.93375e-10
-1.31462e-10
2.17284e-10
-1.14948e-10
2.30018e-10
-1.07035e-10
2.36203e-10
-1.03503e-10
2.38995e-10
-1.02006e-10
2.40185e-10
-1.01403e-10
2.40646e-10
-1.01174e-10
2.40628e-10
-1.01061e-10
2.39933e-10
-1.00822e-10
2.39319e-10
-1.00146e-10
2.46781e-10
-1.00151e-10
2.86012e-10
-1.09283e-10
3.78199e-10
-1.56766e-10
5.06243e-10
-2.60901e-10
-5.17175e-10
-3.10112e-11
1.12473e-10
-8.13093e-12
-1.26442e-10
3.25412e-11
-3.55093e-10
7.48752e-11
-4.16333e-10
1.0868e-10
-4.03747e-10
1.3127e-10
-3.85257e-10
1.44517e-10
-3.74724e-10
1.51519e-10
-3.69792e-10
1.5492e-10
-3.67609e-10
1.56464e-10
-3.66677e-10
1.57128e-10
-3.66298e-10
1.57393e-10
-3.66151e-10
1.57433e-10
-3.66087e-10
1.5719e-10
-3.65991e-10
1.56835e-10
-3.65699e-10
1.59133e-10
-3.65506e-10
1.74387e-10
-3.68577e-10
2.16913e-10
-3.89005e-10
2.92881e-10
-4.42633e-10
-6.00001e-10
-1.41453e-11
5.75368e-11
-9.83794e-13
-2.33174e-10
2.01849e-11
-4.94606e-10
4.14503e-11
-5.78317e-10
5.8077e-11
-5.80213e-10
6.90699e-11
-5.7029e-10
7.54985e-11
-5.64356e-10
7.89094e-11
-5.61669e-10
8.0581e-11
-5.60495e-10
8.13487e-11
-5.5999e-10
8.16832e-11
-5.5978e-10
8.1821e-11
-5.59697e-10
8.18572e-11
-5.59664e-10
8.17871e-11
-5.59629e-10
8.16344e-11
-5.59521e-10
8.22069e-11
-5.5939e-10
8.72358e-11
-5.60195e-10
1.03682e-10
-5.67452e-10
1.40351e-10
-5.89444e-10
-6.66481e-10
-5.46425e-12
3.25903e-11
7.60727e-14
-2.8514e-10
8.95445e-12
-5.65947e-10
1.79285e-11
-6.63492e-10
2.49901e-11
-6.74304e-10
2.96972e-11
-6.69577e-10
3.24788e-11
-6.66399e-10
3.39743e-11
-6.65055e-10
3.47189e-11
-6.64492e-10
3.50669e-11
-6.64247e-10
3.52212e-11
-6.64143e-10
3.52864e-11
-6.641e-10
3.53081e-11
-6.64084e-10
3.52921e-11
-6.64071e-10
3.52384e-11
-6.64037e-10
3.53522e-11
-6.63978e-10
3.68097e-11
-6.64139e-10
4.23164e-11
-6.66356e-10
5.72107e-11
-6.73907e-10
-7.05668e-10
-1.84434e-12
2.3727e-11
-9.92612e-15
-3.05154e-10
3.1059e-12
-5.94889e-10
6.36882e-12
-6.99115e-10
9.00434e-12
-7.14321e-10
1.08007e-11
-7.12175e-10
1.18845e-11
-7.10376e-10
1.24796e-11
-7.09713e-10
1.27823e-11
-7.09463e-10
1.29269e-11
-7.09354e-10
1.29925e-11
-7.09306e-10
1.30208e-11
-7.09287e-10
1.30315e-11
-7.09279e-10
1.30292e-11
-7.09274e-10
1.3013e-11
-7.09264e-10
1.30294e-11
-7.09243e-10
1.34117e-11
-7.09263e-10
1.50558e-11
-7.09868e-10
2.03303e-11
-7.12131e-10
-7.23896e-10
-5.5117e-13
2.1159e-11
-5.966e-14
-3.11476e-10
8.67229e-13
-6.04536e-10
1.89098e-12
-7.11387e-10
2.7495e-12
-7.28374e-10
3.35267e-12
-7.27296e-10
3.72646e-12
-7.26079e-10
3.93699e-12
-7.25707e-10
4.04679e-12
-7.25594e-10
4.10051e-12
-7.25546e-10
4.12541e-12
-7.25524e-10
4.13643e-12
-7.25514e-10
4.14085e-12
-7.2551e-10
4.14104e-12
-7.25508e-10
4.13679e-12
-7.25505e-10
4.13764e-12
-7.25499e-10
4.22987e-12
-7.25497e-10
4.67415e-12
-7.25656e-10
6.32463e-12
-7.26298e-10
-7.30815e-10
-1.20998e-13
2.06511e-11
-3.72464e-14
-3.12815e-10
1.44687e-13
-6.06668e-10
3.54866e-13
-7.14171e-10
5.35533e-13
-7.31613e-10
6.64932e-13
-7.30813e-10
7.46691e-13
-7.2975e-10
7.93738e-13
-7.29457e-10
8.18846e-13
-7.2938e-10
8.31417e-13
-7.29349e-10
8.37377e-13
-7.29334e-10
8.40071e-13
-7.29328e-10
8.41194e-13
-7.29325e-10
8.41357e-13
-7.29324e-10
8.4053e-13
-7.29322e-10
8.40212e-13
-7.29319e-10
8.57005e-13
-7.29315e-10
9.44554e-13
-7.29387e-10
1.30359e-12
-7.29689e-10
-7.32498e-10
1.03547e-13
2.11595e-11
-9.04375e-16
-3.11474e-10
-2.08052e-13
-6.04533e-10
-4.50376e-13
-7.11383e-10
-6.64097e-13
-7.2837e-10
-8.20337e-13
-7.27292e-10
-9.19967e-13
-7.26074e-10
-9.77163e-13
-7.25703e-10
-1.00737e-12
-7.2559e-10
-1.02227e-12
-7.25542e-10
-1.02923e-12
-7.2552e-10
-1.03232e-12
-7.2551e-10
-1.03359e-12
-7.25506e-10
-1.03381e-12
-7.25504e-10
-1.03306e-12
-7.25501e-10
-1.03288e-12
-7.25495e-10
-1.04968e-12
-7.25493e-10
-1.13716e-12
-7.25652e-10
-1.49657e-12
-7.26295e-10
-7.30814e-10
5.34019e-13
2.37285e-11
2.1733e-14
-3.05149e-10
-9.30612e-13
-5.94881e-10
-1.98675e-12
-6.99106e-10
-2.8785e-12
-7.14311e-10
-3.50862e-12
-7.12164e-10
-3.90035e-12
-7.10365e-10
-4.12107e-12
-7.09701e-10
-4.23599e-12
-7.09451e-10
-4.29204e-12
-7.09342e-10
-4.31794e-12
-7.09294e-10
-4.32936e-12
-7.09274e-10
-4.33393e-12
-7.09266e-10
-4.33417e-12
-7.09262e-10
-4.33001e-12
-7.09252e-10
-4.331e-12
-7.09231e-10
-4.42329e-12
-7.09251e-10
-4.8677e-12
-7.09856e-10
-6.51906e-12
-7.12121e-10
-7.23891e-10
1.8281e-12
3.25946e-11
-2.72213e-14
-2.85128e-10
-3.16906e-12
-5.65928e-10
-6.46493e-12
-6.63469e-10
-9.13408e-12
-6.74279e-10
-1.09576e-11
-6.69551e-10
-1.20595e-11
-6.66372e-10
-1.26649e-11
-6.65028e-10
-1.29728e-11
-6.64464e-10
-1.31198e-11
-6.64219e-10
-1.31863e-11
-6.64115e-10
-1.32151e-11
-6.64073e-10
-1.32258e-11
-6.64056e-10
-1.32236e-11
-6.64044e-10
-1.32075e-11
-6.64009e-10
-1.32241e-11
-6.63951e-10
-1.36066e-11
-6.64111e-10
-1.52514e-11
-6.6633e-10
-2.05283e-11
-6.73885e-10
-7.05657e-10
5.45018e-12
5.75463e-11
-1.10953e-13
-2.33149e-10
-9.01604e-12
-4.9457e-10
-1.80238e-11
-5.78275e-10
-2.51196e-11
-5.80167e-10
-2.98543e-11
-5.70242e-10
-3.26541e-11
-5.64307e-10
-3.416e-11
-5.61619e-10
-3.49098e-11
-5.60445e-10
-3.52602e-11
-5.5994e-10
-3.54156e-11
-5.5973e-10
-3.54812e-11
-5.59647e-10
-3.55029e-11
-5.59613e-10
-3.5487e-11
-5.59578e-10
-3.54334e-11
-5.59471e-10
-3.55475e-11
-5.59339e-10
-3.70059e-11
-5.60146e-10
-4.25148e-11
-5.67405e-10
-5.74142e-11
-5.89405e-10
-6.66462e-10
1.41352e-11
1.12488e-10
9.54339e-13
-1.26404e-10
-2.02406e-11
-3.55041e-10
-4.15398e-11
-4.16274e-10
-5.82009e-11
-4.03684e-10
-6.92214e-11
-3.85192e-10
-7.56685e-11
-3.74658e-10
-7.90898e-11
-3.69726e-10
-8.07666e-11
-3.67542e-10
-8.15367e-11
-3.66611e-10
-8.18722e-11
-3.66231e-10
-8.20104e-11
-3.66084e-10
-8.20467e-11
-3.6602e-10
-8.19767e-11
-3.65924e-10
-8.1824e-11
-3.65632e-10
-8.23972e-11
-3.65439e-10
-8.74281e-11
-3.68511e-10
-1.0388e-10
-3.88945e-10
-1.40558e-10
-4.42582e-10
-5.99974e-10
3.10061e-11
2.00363e-10
8.11108e-12
3.47042e-11
-3.25833e-11
-1.5449e-10
-7.49481e-11
-1.90135e-10
-1.08785e-10
-1.6055e-10
-1.31402e-10
-1.31408e-10
-1.44667e-10
-1.14893e-10
-1.51679e-10
-1.0698e-10
-1.55086e-10
-1.03449e-10
-1.56632e-10
-1.01951e-10
-1.57296e-10
-1.01349e-10
-1.57562e-10
-1.01119e-10
-1.57602e-10
-1.01006e-10
-1.57359e-10
-1.00767e-10
-1.57004e-10
-1.00092e-10
-1.59303e-10
-1.00096e-10
-1.74561e-10
-1.09229e-10
-2.17096e-10
-1.56716e-10
-2.93079e-10
-2.60859e-10
-5.17144e-10
5.75992e-11
2.69011e-10
3.32246e-11
1.71893e-10
-2.67298e-11
9.35421e-12
-9.54561e-11
-1.25389e-11
-1.53421e-10
2.70504e-11
-1.93471e-10
6.3938e-11
-2.17396e-10
8.54999e-11
-2.30139e-10
9.61057e-11
-2.36329e-10
1.00889e-10
-2.39123e-10
1.02917e-10
-2.40313e-10
1.03726e-10
-2.40776e-10
1.0403e-10
-2.40758e-10
1.04208e-10
-2.40062e-10
1.04711e-10
-2.39449e-10
1.05969e-10
-2.46912e-10
1.05027e-10
-2.86147e-10
8.45514e-11
-3.78347e-10
-1.36678e-13
-5.06409e-10
-1.47673e-10
-4.56985e-10
8.99429e-11
2.19507e-10
9.54505e-11
1.61059e-10
3.51047e-11
1.32313e-11
-5.47333e-11
-9.69237e-12
-1.38823e-10
2.59779e-11
-2.00175e-10
6.17149e-11
-2.37937e-10
8.37917e-11
-2.58356e-10
9.49884e-11
-2.68333e-10
1.00108e-10
-2.72835e-10
1.0229e-10
-2.74746e-10
1.03155e-10
-2.75459e-10
1.03476e-10
-2.75232e-10
1.037e-10
-2.73581e-10
1.04511e-10
-2.72969e-10
1.06262e-10
-2.92369e-10
1.03813e-10
-3.74776e-10
7.15701e-11
-5.33332e-10
-3.62518e-11
-7.02235e-10
-1.65496e-10
-4.24106e-10
8.35524e-11
2.23157e-11
1.24981e-10
1.33468e-10
9.653e-11
2.3601e-11
1.35844e-11
-1.6458e-11
-7.97879e-11
-6.35089e-12
-1.54929e-10
1.32402e-11
-2.03909e-10
2.76384e-11
-2.31323e-10
3.54537e-11
-2.44996e-10
3.91242e-11
-2.51231e-10
4.07035e-11
-2.53894e-10
4.13261e-11
-2.54852e-10
4.15527e-11
-2.54186e-10
4.17315e-11
-2.50921e-10
4.25136e-11
-2.51154e-10
4.3924e-11
-2.90994e-10
4.03346e-11
-4.29892e-10
1.01281e-11
-6.47836e-10
-5.97197e-11
-7.94134e-10
-7.82685e-11
-2.78326e-10
9.68129e-11
1.95678e-10
1.88525e-10
1.04064e-10
-7.43102e-12
-1.03616e-10
-1.67876e-10
-2.04074e-10
-2.22085e-10
-2.30229e-10
-2.33682e-10
-2.34909e-10
-2.33743e-10
-2.27959e-10
-2.2751e-10
-2.91369e-10
-5.02046e-10
-7.5239e-10
-8.64611e-10
)
;

boundaryField
{
    sides
    {
        type            calculated;
        value           uniform 0;
    }
    inlet
    {
        type            calculated;
        value           uniform 0;
    }
    outlet
    {
        type            calculated;
        value           nonuniform List<scalar> 
20
(
1.24881e-09
8.73159e-10
8.16007e-10
5.83564e-10
3.43358e-10
1.67755e-10
6.96328e-11
2.51496e-11
7.94508e-12
1.67227e-12
-1.8657e-12
-8.1404e-12
-2.53497e-11
-6.98411e-11
-1.67972e-10
-3.43572e-10
-5.83753e-10
-8.16136e-10
-8.73215e-10
-1.24889e-09
)
;
    }
    frontAndBack
    {
        type            empty;
        value           nonuniform 0();
    }
}


// ************************************************************************* //
