/*--------------------------------*- C++ -*----------------------------------*\
  =========                 |
  \\      /  F ield         | OpenFOAM: The Open Source CFD Toolbox
   \\    /   O peration     | Website:  https://openfoam.org
    \\  /    A nd           | Version:  7
     \\/     M anipulation  |
\*---------------------------------------------------------------------------*/
FoamFile
{
    version     2.0;
    format      ascii;
    class       volVectorField;
    location    "1";
    object      hU;
}
// * * * * * * * * * * * * * * * * * * * * * * * * * * * * * * * * * * * * * //

dimensions      [0 2 -1 0 0 0 0];

internalField   nonuniform List<vector> 
400
(
(0.001 -1.50909e-08 0)
(0.000999992 -4.76881e-08 0)
(0.000999998 -5.99645e-08 0)
(0.00100001 -6.02371e-08 0)
(0.00100003 -5.81053e-08 0)
(0.00100004 -5.64949e-08 0)
(0.00100004 -5.56472e-08 0)
(0.00100004 -5.52671e-08 0)
(0.00100005 -5.51079e-08 0)
(0.00100005 -5.50439e-08 0)
(0.00100005 -5.50198e-08 0)
(0.00100005 -5.50113e-08 0)
(0.00100005 -5.50064e-08 0)
(0.00100005 -5.49801e-08 0)
(0.00100005 -5.49105e-08 0)
(0.00100005 -5.48551e-08 0)
(0.00100006 -5.57462e-08 0)
(0.00100008 -5.96784e-08 0)
(0.0010001 -6.65141e-08 0)
(0.00100017 -9.63155e-08 0)
(0.001 7.02434e-10 0)
(0.000999996 -1.69005e-08 0)
(0.001 -2.27231e-08 0)
(0.00100001 -1.9885e-08 0)
(0.00100002 -1.60147e-08 0)
(0.00100003 -1.33444e-08 0)
(0.00100003 -1.18938e-08 0)
(0.00100003 -1.12095e-08 0)
(0.00100003 -1.09105e-08 0)
(0.00100003 -1.07866e-08 0)
(0.00100003 -1.07384e-08 0)
(0.00100003 -1.07209e-08 0)
(0.00100003 -1.07097e-08 0)
(0.00100003 -1.0662e-08 0)
(0.00100003 -1.0542e-08 0)
(0.00100004 -1.05304e-08 0)
(0.00100004 -1.22356e-08 0)
(0.00100005 -1.9444e-08 0)
(0.00100007 -3.23044e-08 0)
(0.0010001 -7.89956e-08 0)
(0.001 -1.59246e-08 0)
(0.000999996 -5.68395e-08 0)
(0.001 -7.34809e-08 0)
(0.00100001 -7.41554e-08 0)
(0.00100002 -7.12163e-08 0)
(0.00100002 -6.89104e-08 0)
(0.00100002 -6.76379e-08 0)
(0.00100003 -6.70239e-08 0)
(0.00100003 -6.67477e-08 0)
(0.00100003 -6.66302e-08 0)
(0.00100003 -6.65831e-08 0)
(0.00100003 -6.65653e-08 0)
(0.00100003 -6.65539e-08 0)
(0.00100003 -6.65187e-08 0)
(0.00100003 -6.64351e-08 0)
(0.00100003 -6.65014e-08 0)
(0.00100003 -6.78396e-08 0)
(0.00100004 -7.34907e-08 0)
(0.00100005 -8.44535e-08 0)
(0.00100007 -1.15237e-07 0)
(0.001 -2.52859e-08 0)
(0.000999998 -7.52994e-08 0)
(0.001 -9.4733e-08 0)
(0.00100001 -9.6171e-08 0)
(0.00100001 -9.35361e-08 0)
(0.00100001 -9.14621e-08 0)
(0.00100002 -9.03515e-08 0)
(0.00100002 -8.98261e-08 0)
(0.00100002 -8.95919e-08 0)
(0.00100002 -8.94923e-08 0)
(0.00100002 -8.94523e-08 0)
(0.00100002 -8.94369e-08 0)
(0.00100002 -8.94283e-08 0)
(0.00100002 -8.94077e-08 0)
(0.00100002 -8.93571e-08 0)
(0.00100002 -8.93854e-08 0)
(0.00100002 -9.01658e-08 0)
(0.00100002 -9.38554e-08 0)
(0.00100003 -1.01935e-07 0)
(0.00100004 -1.2476e-07 0)
(0.001 -3.35317e-08 0)
(0.000999999 -9.09371e-08 0)
(0.001 -1.14093e-07 0)
(0.001 -1.17587e-07 0)
(0.00100001 -1.16105e-07 0)
(0.00100001 -1.14689e-07 0)
(0.00100001 -1.13931e-07 0)
(0.00100001 -1.13577e-07 0)
(0.00100001 -1.13419e-07 0)
(0.00100001 -1.13351e-07 0)
(0.00100001 -1.13323e-07 0)
(0.00100001 -1.13313e-07 0)
(0.00100001 -1.13307e-07 0)
(0.00100001 -1.13298e-07 0)
(0.00100001 -1.13272e-07 0)
(0.00100001 -1.13277e-07 0)
(0.00100001 -1.13631e-07 0)
(0.00100001 -1.15529e-07 0)
(0.00100002 -1.20232e-07 0)
(0.00100002 -1.33936e-07 0)
(0.001 -3.8822e-08 0)
(0.001 -1.0091e-07 0)
(0.001 -1.26787e-07 0)
(0.001 -1.31947e-07 0)
(0.001 -1.31458e-07 0)
(0.001 -1.30611e-07 0)
(0.001 -1.30156e-07 0)
(0.001 -1.29948e-07 0)
(0.001 -1.29855e-07 0)
(0.001 -1.29815e-07 0)
(0.001 -1.29799e-07 0)
(0.001 -1.29792e-07 0)
(0.001 -1.29789e-07 0)
(0.001 -1.29785e-07 0)
(0.001 -1.29775e-07 0)
(0.001 -1.29772e-07 0)
(0.00100001 -1.299e-07 0)
(0.00100001 -1.30699e-07 0)
(0.00100001 -1.32905e-07 0)
(0.00100001 -1.39844e-07 0)
(0.001 -4.14209e-08 0)
(0.001 -1.05946e-07 0)
(0.001 -1.33456e-07 0)
(0.001 -1.39705e-07 0)
(0.001 -1.3989e-07 0)
(0.001 -1.39428e-07 0)
(0.001 -1.39176e-07 0)
(0.001 -1.39067e-07 0)
(0.001 -1.39019e-07 0)
(0.001 -1.38998e-07 0)
(0.001 -1.38989e-07 0)
(0.001 -1.38986e-07 0)
(0.001 -1.38984e-07 0)
(0.001 -1.38983e-07 0)
(0.001 -1.38979e-07 0)
(0.001 -1.38976e-07 0)
(0.001 -1.39014e-07 0)
(0.001 -1.393e-07 0)
(0.001 -1.40174e-07 0)
(0.001 -1.43197e-07 0)
(0.001 -4.24553e-08 0)
(0.001 -1.08051e-07 0)
(0.001 -1.36367e-07 0)
(0.001 -1.43188e-07 0)
(0.001 -1.43737e-07 0)
(0.001 -1.43486e-07 0)
(0.001 -1.43346e-07 0)
(0.001 -1.43292e-07 0)
(0.001 -1.4327e-07 0)
(0.001 -1.4326e-07 0)
(0.001 -1.43256e-07 0)
(0.001 -1.43254e-07 0)
(0.001 -1.43253e-07 0)
(0.001 -1.43253e-07 0)
(0.001 -1.43251e-07 0)
(0.001 -1.4325e-07 0)
(0.001 -1.43259e-07 0)
(0.001 -1.43349e-07 0)
(0.001 -1.43651e-07 0)
(0.001 -1.44808e-07 0)
(0.001 -4.28003e-08 0)
(0.001 -1.08795e-07 0)
(0.001 -1.37445e-07 0)
(0.001 -1.44516e-07 0)
(0.001 -1.4523e-07 0)
(0.001 -1.45077e-07 0)
(0.001 -1.4499e-07 0)
(0.001 -1.44962e-07 0)
(0.001 -1.44952e-07 0)
(0.001 -1.44948e-07 0)
(0.001 -1.44946e-07 0)
(0.001 -1.44945e-07 0)
(0.001 -1.44945e-07 0)
(0.001 -1.44944e-07 0)
(0.001 -1.44944e-07 0)
(0.001 -1.44943e-07 0)
(0.001 -1.44945e-07 0)
(0.001 -1.44971e-07 0)
(0.001 -1.45066e-07 0)
(0.001 -1.4547e-07 0)
(0.001 -4.28945e-08 0)
(0.001 -1.09011e-07 0)
(0.001 -1.37771e-07 0)
(0.001 -1.44929e-07 0)
(0.001 -1.45702e-07 0)
(0.001 -1.45585e-07 0)
(0.001 -1.45517e-07 0)
(0.001 -1.45499e-07 0)
(0.001 -1.45494e-07 0)
(0.001 -1.45492e-07 0)
(0.001 -1.45491e-07 0)
(0.001 -1.45491e-07 0)
(0.001 -1.4549e-07 0)
(0.001 -1.4549e-07 0)
(0.001 -1.4549e-07 0)
(0.001 -1.4549e-07 0)
(0.001 -1.4549e-07 0)
(0.001 -1.45499e-07 0)
(0.001 -1.45532e-07 0)
(0.001 -1.45691e-07 0)
(0.001 -4.28945e-08 0)
(0.001 -1.09011e-07 0)
(0.001 -1.37771e-07 0)
(0.001 -1.44929e-07 0)
(0.001 -1.45702e-07 0)
(0.001 -1.45585e-07 0)
(0.001 -1.45517e-07 0)
(0.001 -1.45499e-07 0)
(0.001 -1.45494e-07 0)
(0.001 -1.45492e-07 0)
(0.001 -1.45491e-07 0)
(0.001 -1.4549e-07 0)
(0.001 -1.4549e-07 0)
(0.001 -1.4549e-07 0)
(0.001 -1.4549e-07 0)
(0.001 -1.4549e-07 0)
(0.001 -1.4549e-07 0)
(0.001 -1.45499e-07 0)
(0.001 -1.45532e-07 0)
(0.001 -1.45691e-07 0)
(0.001 -4.28003e-08 0)
(0.001 -1.08795e-07 0)
(0.001 -1.37445e-07 0)
(0.001 -1.44516e-07 0)
(0.001 -1.4523e-07 0)
(0.001 -1.45077e-07 0)
(0.001 -1.44989e-07 0)
(0.001 -1.44962e-07 0)
(0.001 -1.44952e-07 0)
(0.001 -1.44947e-07 0)
(0.001 -1.44945e-07 0)
(0.001 -1.44944e-07 0)
(0.001 -1.44944e-07 0)
(0.001 -1.44944e-07 0)
(0.001 -1.44944e-07 0)
(0.001 -1.44943e-07 0)
(0.001 -1.44945e-07 0)
(0.001 -1.44971e-07 0)
(0.001 -1.45065e-07 0)
(0.001 -1.4547e-07 0)
(0.001 -4.24552e-08 0)
(0.001 -1.0805e-07 0)
(0.001 -1.36367e-07 0)
(0.001 -1.43187e-07 0)
(0.001 -1.43736e-07 0)
(0.000999999 -1.43486e-07 0)
(0.000999999 -1.43345e-07 0)
(0.000999999 -1.43291e-07 0)
(0.000999999 -1.43269e-07 0)
(0.000999999 -1.43259e-07 0)
(0.000999999 -1.43255e-07 0)
(0.000999999 -1.43253e-07 0)
(0.000999999 -1.43252e-07 0)
(0.000999999 -1.43252e-07 0)
(0.000999999 -1.4325e-07 0)
(0.000999999 -1.43249e-07 0)
(0.000999999 -1.43258e-07 0)
(0.000999999 -1.43348e-07 0)
(0.000999999 -1.4365e-07 0)
(0.000999999 -1.44807e-07 0)
(0.001 -4.14206e-08 0)
(0.001 -1.05945e-07 0)
(0.001 -1.33455e-07 0)
(0.000999999 -1.39703e-07 0)
(0.000999999 -1.39888e-07 0)
(0.000999998 -1.39427e-07 0)
(0.000999998 -1.39174e-07 0)
(0.000999998 -1.39065e-07 0)
(0.000999998 -1.39017e-07 0)
(0.000999998 -1.38996e-07 0)
(0.000999998 -1.38987e-07 0)
(0.000999998 -1.38984e-07 0)
(0.000999998 -1.38982e-07 0)
(0.000999998 -1.38981e-07 0)
(0.000999998 -1.38977e-07 0)
(0.000999998 -1.38974e-07 0)
(0.000999998 -1.39012e-07 0)
(0.000999998 -1.39298e-07 0)
(0.000999997 -1.40172e-07 0)
(0.000999997 -1.43196e-07 0)
(0.001 -3.88212e-08 0)
(0.001 -1.00908e-07 0)
(0.000999999 -1.26784e-07 0)
(0.000999998 -1.31944e-07 0)
(0.000999997 -1.31455e-07 0)
(0.000999996 -1.30608e-07 0)
(0.000999996 -1.30152e-07 0)
(0.000999995 -1.29944e-07 0)
(0.000999995 -1.29852e-07 0)
(0.000999995 -1.29812e-07 0)
(0.000999995 -1.29795e-07 0)
(0.000999995 -1.29789e-07 0)
(0.000999995 -1.29786e-07 0)
(0.000999995 -1.29782e-07 0)
(0.000999995 -1.29771e-07 0)
(0.000999995 -1.29769e-07 0)
(0.000999995 -1.29897e-07 0)
(0.000999994 -1.30696e-07 0)
(0.000999993 -1.32903e-07 0)
(0.000999991 -1.39843e-07 0)
(0.000999999 -3.35306e-08 0)
(0.001 -9.09343e-08 0)
(0.000999999 -1.14089e-07 0)
(0.000999996 -1.17583e-07 0)
(0.000999993 -1.16101e-07 0)
(0.000999992 -1.14685e-07 0)
(0.000999991 -1.13927e-07 0)
(0.00099999 -1.13572e-07 0)
(0.00099999 -1.13414e-07 0)
(0.00099999 -1.13347e-07 0)
(0.00099999 -1.13319e-07 0)
(0.00099999 -1.13308e-07 0)
(0.00099999 -1.13303e-07 0)
(0.00099999 -1.13293e-07 0)
(0.00099999 -1.13268e-07 0)
(0.00099999 -1.13273e-07 0)
(0.000999989 -1.13627e-07 0)
(0.000999987 -1.15525e-07 0)
(0.000999984 -1.20228e-07 0)
(0.000999981 -1.33934e-07 0)
(0.000999999 -2.52847e-08 0)
(0.001 -7.52963e-08 0)
(0.000999998 -9.47292e-08 0)
(0.000999993 -9.6167e-08 0)
(0.000999989 -9.35322e-08 0)
(0.000999986 -9.14581e-08 0)
(0.000999984 -9.03476e-08 0)
(0.000999983 -8.98222e-08 0)
(0.000999982 -8.95879e-08 0)
(0.000999982 -8.94884e-08 0)
(0.000999982 -8.94483e-08 0)
(0.000999982 -8.94329e-08 0)
(0.000999982 -8.94244e-08 0)
(0.000999982 -8.94038e-08 0)
(0.000999982 -8.93531e-08 0)
(0.000999982 -8.93814e-08 0)
(0.00099998 -9.01619e-08 0)
(0.000999976 -9.38516e-08 0)
(0.00099997 -1.01932e-07 0)
(0.000999962 -1.24757e-07 0)
(0.000999998 -1.59235e-08 0)
(0.001 -5.68357e-08 0)
(0.000999999 -7.34761e-08 0)
(0.000999991 -7.41505e-08 0)
(0.000999984 -7.12114e-08 0)
(0.000999979 -6.89056e-08 0)
(0.000999976 -6.76332e-08 0)
(0.000999975 -6.70193e-08 0)
(0.000999974 -6.67431e-08 0)
(0.000999973 -6.66256e-08 0)
(0.000999973 -6.65785e-08 0)
(0.000999973 -6.65607e-08 0)
(0.000999973 -6.65493e-08 0)
(0.000999973 -6.65141e-08 0)
(0.000999973 -6.64305e-08 0)
(0.000999972 -6.64968e-08 0)
(0.000999969 -6.78349e-08 0)
(0.000999962 -7.34859e-08 0)
(0.00099995 -8.44494e-08 0)
(0.000999935 -1.15232e-07 0)
(0.000999997 7.01535e-10 0)
(0.001 -1.69007e-08 0)
(0.000999999 -2.27228e-08 0)
(0.000999989 -1.98848e-08 0)
(0.00099998 -1.60147e-08 0)
(0.000999974 -1.33446e-08 0)
(0.00099997 -1.18942e-08 0)
(0.000999968 -1.12101e-08 0)
(0.000999967 -1.09111e-08 0)
(0.000999966 -1.07872e-08 0)
(0.000999966 -1.07391e-08 0)
(0.000999966 -1.07216e-08 0)
(0.000999966 -1.07104e-08 0)
(0.000999966 -1.06627e-08 0)
(0.000999966 -1.05427e-08 0)
(0.000999964 -1.05309e-08 0)
(0.000999959 -1.22358e-08 0)
(0.000999947 -1.94437e-08 0)
(0.000999931 -3.23045e-08 0)
(0.000999905 -7.89938e-08 0)
(0.000999996 -1.50911e-08 0)
(0.00100001 -4.7688e-08 0)
(0.001 -5.9964e-08 0)
(0.000999986 -6.02354e-08 0)
(0.000999973 -5.81026e-08 0)
(0.000999964 -5.64918e-08 0)
(0.000999959 -5.56439e-08 0)
(0.000999956 -5.52637e-08 0)
(0.000999955 -5.51045e-08 0)
(0.000999954 -5.50405e-08 0)
(0.000999954 -5.50164e-08 0)
(0.000999953 -5.50079e-08 0)
(0.000999953 -5.5003e-08 0)
(0.000999954 -5.49767e-08 0)
(0.000999953 -5.49071e-08 0)
(0.000999951 -5.48517e-08 0)
(0.000999944 -5.57428e-08 0)
(0.000999923 -5.96743e-08 0)
(0.000999904 -6.65113e-08 0)
(0.000999833 -9.63061e-08 0)
)
;

boundaryField
{
    sides
    {
        type            slip;
    }
    inlet
    {
        type            fixedValue;
        value           uniform (0.001 0 0);
    }
    outlet
    {
        type            zeroGradient;
    }
    frontAndBack
    {
        type            empty;
    }
}


// ************************************************************************* //
