/*--------------------------------*- C++ -*----------------------------------*\
  =========                 |
  \\      /  F ield         | OpenFOAM: The Open Source CFD Toolbox
   \\    /   O peration     | Website:  https://openfoam.org
    \\  /    A nd           | Version:  7
     \\/     M anipulation  |
\*---------------------------------------------------------------------------*/
FoamFile
{
    version     2.0;
    format      ascii;
    class       volVectorField;
    location    "1";
    object      hU_0;
}
// * * * * * * * * * * * * * * * * * * * * * * * * * * * * * * * * * * * * * //

dimensions      [0 2 -1 0 0 0 0];

internalField   nonuniform List<vector> 
400
(
(0.001 -1.75023e-08 0)
(0.000999994 -4.859e-08 0)
(0.001 -5.77482e-08 0)
(0.00100002 -5.69557e-08 0)
(0.00100003 -5.50095e-08 0)
(0.00100004 -5.38167e-08 0)
(0.00100004 -5.32695e-08 0)
(0.00100004 -5.30502e-08 0)
(0.00100004 -5.29666e-08 0)
(0.00100004 -5.29357e-08 0)
(0.00100004 -5.29248e-08 0)
(0.00100004 -5.29214e-08 0)
(0.00100004 -5.29202e-08 0)
(0.00100004 -5.29089e-08 0)
(0.00100004 -5.28646e-08 0)
(0.00100004 -5.27597e-08 0)
(0.00100005 -5.31294e-08 0)
(0.00100006 -5.57249e-08 0)
(0.00100008 -6.19902e-08 0)
(0.00100015 -8.87125e-08 0)
(0.001 -3.34632e-09 0)
(0.000999998 -2.21684e-08 0)
(0.001 -2.60022e-08 0)
(0.00100001 -2.2633e-08 0)
(0.00100002 -1.93251e-08 0)
(0.00100002 -1.73803e-08 0)
(0.00100003 -1.64495e-08 0)
(0.00100003 -1.60554e-08 0)
(0.00100003 -1.58983e-08 0)
(0.00100003 -1.58384e-08 0)
(0.00100003 -1.58167e-08 0)
(0.00100003 -1.58097e-08 0)
(0.00100003 -1.58064e-08 0)
(0.00100003 -1.57855e-08 0)
(0.00100003 -1.57071e-08 0)
(0.00100003 -1.55741e-08 0)
(0.00100003 -1.63124e-08 0)
(0.00100004 -2.10429e-08 0)
(0.00100006 -3.23174e-08 0)
(0.00100008 -7.38639e-08 0)
(0.001 -2.0652e-08 0)
(0.000999998 -6.05451e-08 0)
(0.001 -7.34905e-08 0)
(0.00100001 -7.30905e-08 0)
(0.00100002 -7.06739e-08 0)
(0.00100002 -6.90988e-08 0)
(0.00100002 -6.83294e-08 0)
(0.00100002 -6.79928e-08 0)
(0.00100002 -6.78534e-08 0)
(0.00100002 -6.77983e-08 0)
(0.00100002 -6.77777e-08 0)
(0.00100002 -6.77705e-08 0)
(0.00100002 -6.77667e-08 0)
(0.00100002 -6.77514e-08 0)
(0.00100002 -6.76975e-08 0)
(0.00100002 -6.7654e-08 0)
(0.00100002 -6.82341e-08 0)
(0.00100003 -7.17245e-08 0)
(0.00100004 -8.02304e-08 0)
(0.00100005 -1.05983e-07 0)
(0.001 -3.04031e-08 0)
(0.000999999 -7.84818e-08 0)
(0.001 -9.41782e-08 0)
(0.00100001 -9.47818e-08 0)
(0.00100001 -9.2836e-08 0)
(0.00100001 -9.15394e-08 0)
(0.00100001 -9.0921e-08 0)
(0.00100001 -9.06534e-08 0)
(0.00100001 -9.05425e-08 0)
(0.00100001 -9.04983e-08 0)
(0.00100001 -9.04815e-08 0)
(0.00100001 -9.04755e-08 0)
(0.00100001 -9.04727e-08 0)
(0.00100001 -9.04643e-08 0)
(0.00100001 -9.04355e-08 0)
(0.00100001 -9.04115e-08 0)
(0.00100001 -9.07131e-08 0)
(0.00100002 -9.27301e-08 0)
(0.00100002 -9.81491e-08 0)
(0.00100003 -1.1531e-07 0)
(0.001 -3.74257e-08 0)
(0.001 -9.15583e-08 0)
(0.001 -1.1043e-07 0)
(0.001 -1.12749e-07 0)
(0.001 -1.11698e-07 0)
(0.00100001 -1.10864e-07 0)
(0.00100001 -1.10469e-07 0)
(0.00100001 -1.103e-07 0)
(0.00100001 -1.10229e-07 0)
(0.00100001 -1.102e-07 0)
(0.00100001 -1.10189e-07 0)
(0.00100001 -1.10185e-07 0)
(0.00100001 -1.10183e-07 0)
(0.00100001 -1.1018e-07 0)
(0.00100001 -1.10167e-07 0)
(0.00100001 -1.10154e-07 0)
(0.00100001 -1.10274e-07 0)
(0.00100001 -1.11197e-07 0)
(0.00100001 -1.13957e-07 0)
(0.00100001 -1.23135e-07 0)
(0.001 -4.12213e-08 0)
(0.001 -9.87535e-08 0)
(0.001 -1.19666e-07 0)
(0.001 -1.23187e-07 0)
(0.001 -1.22801e-07 0)
(0.001 -1.22315e-07 0)
(0.001 -1.22089e-07 0)
(0.001 -1.21996e-07 0)
(0.001 -1.21957e-07 0)
(0.001 -1.21941e-07 0)
(0.001 -1.21935e-07 0)
(0.001 -1.21932e-07 0)
(0.001 -1.21931e-07 0)
(0.001 -1.2193e-07 0)
(0.001 -1.21925e-07 0)
(0.001 -1.21919e-07 0)
(0.001 -1.21957e-07 0)
(0.001 -1.22306e-07 0)
(0.001 -1.2345e-07 0)
(0.001 -1.27586e-07 0)
(0.001 -4.28334e-08 0)
(0.001 -1.01936e-07 0)
(0.001 -1.23923e-07 0)
(0.001 -1.28131e-07 0)
(0.001 -1.28141e-07 0)
(0.001 -1.27865e-07 0)
(0.001 -1.27742e-07 0)
(0.001 -1.27696e-07 0)
(0.001 -1.27677e-07 0)
(0.001 -1.27669e-07 0)
(0.001 -1.27665e-07 0)
(0.001 -1.27664e-07 0)
(0.001 -1.27664e-07 0)
(0.001 -1.27663e-07 0)
(0.001 -1.27662e-07 0)
(0.001 -1.27659e-07 0)
(0.001 -1.27669e-07 0)
(0.001 -1.27782e-07 0)
(0.001 -1.28187e-07 0)
(0.001 -1.29801e-07 0)
(0.001 -4.33963e-08 0)
(0.001 -1.03114e-07 0)
(0.001 -1.25571e-07 0)
(0.001 -1.30099e-07 0)
(0.001 -1.30301e-07 0)
(0.001 -1.3013e-07 0)
(0.001 -1.3006e-07 0)
(0.001 -1.30038e-07 0)
(0.001 -1.3003e-07 0)
(0.001 -1.30026e-07 0)
(0.001 -1.30024e-07 0)
(0.001 -1.30024e-07 0)
(0.001 -1.30024e-07 0)
(0.001 -1.30023e-07 0)
(0.001 -1.30023e-07 0)
(0.001 -1.30022e-07 0)
(0.001 -1.30024e-07 0)
(0.001 -1.30057e-07 0)
(0.001 -1.30184e-07 0)
(0.001 -1.30742e-07 0)
(0.001 -4.3563e-08 0)
(0.001 -1.03487e-07 0)
(0.001 -1.26118e-07 0)
(0.001 -1.30774e-07 0)
(0.001 -1.31056e-07 0)
(0.001 -1.30929e-07 0)
(0.001 -1.30882e-07 0)
(0.001 -1.30871e-07 0)
(0.001 -1.30868e-07 0)
(0.001 -1.30866e-07 0)
(0.001 -1.30866e-07 0)
(0.001 -1.30865e-07 0)
(0.001 -1.30865e-07 0)
(0.001 -1.30865e-07 0)
(0.001 -1.30865e-07 0)
(0.001 -1.30865e-07 0)
(0.001 -1.30865e-07 0)
(0.001 -1.30874e-07 0)
(0.001 -1.3091e-07 0)
(0.001 -1.31088e-07 0)
(0.001 -4.36042e-08 0)
(0.001 -1.03585e-07 0)
(0.001 -1.2627e-07 0)
(0.001 -1.30966e-07 0)
(0.001 -1.31275e-07 0)
(0.001 -1.31164e-07 0)
(0.001 -1.31125e-07 0)
(0.001 -1.31118e-07 0)
(0.001 -1.31117e-07 0)
(0.001 -1.31116e-07 0)
(0.001 -1.31116e-07 0)
(0.001 -1.31115e-07 0)
(0.001 -1.31115e-07 0)
(0.001 -1.31115e-07 0)
(0.001 -1.31115e-07 0)
(0.001 -1.31115e-07 0)
(0.001 -1.31115e-07 0)
(0.001 -1.31118e-07 0)
(0.001 -1.3113e-07 0)
(0.001 -1.31194e-07 0)
(0.001 -4.36042e-08 0)
(0.001 -1.03585e-07 0)
(0.001 -1.2627e-07 0)
(0.001 -1.30966e-07 0)
(0.001 -1.31275e-07 0)
(0.001 -1.31164e-07 0)
(0.001 -1.31125e-07 0)
(0.001 -1.31118e-07 0)
(0.001 -1.31117e-07 0)
(0.001 -1.31116e-07 0)
(0.001 -1.31115e-07 0)
(0.001 -1.31115e-07 0)
(0.001 -1.31115e-07 0)
(0.001 -1.31115e-07 0)
(0.001 -1.31115e-07 0)
(0.001 -1.31115e-07 0)
(0.001 -1.31115e-07 0)
(0.001 -1.31118e-07 0)
(0.001 -1.3113e-07 0)
(0.001 -1.31194e-07 0)
(0.001 -4.35629e-08 0)
(0.001 -1.03487e-07 0)
(0.001 -1.26118e-07 0)
(0.001 -1.30773e-07 0)
(0.001 -1.31055e-07 0)
(0.001 -1.30929e-07 0)
(0.001 -1.30882e-07 0)
(0.001 -1.30871e-07 0)
(0.001 -1.30868e-07 0)
(0.001 -1.30866e-07 0)
(0.001 -1.30865e-07 0)
(0.001 -1.30865e-07 0)
(0.001 -1.30865e-07 0)
(0.001 -1.30865e-07 0)
(0.001 -1.30865e-07 0)
(0.001 -1.30864e-07 0)
(0.001 -1.30865e-07 0)
(0.001 -1.30874e-07 0)
(0.001 -1.3091e-07 0)
(0.001 -1.31088e-07 0)
(0.001 -4.33962e-08 0)
(0.001 -1.03114e-07 0)
(0.001 -1.25571e-07 0)
(0.001 -1.30099e-07 0)
(0.001 -1.30301e-07 0)
(0.001 -1.3013e-07 0)
(0.001 -1.3006e-07 0)
(0.001 -1.30038e-07 0)
(0.001 -1.30029e-07 0)
(0.001 -1.30026e-07 0)
(0.001 -1.30024e-07 0)
(0.001 -1.30023e-07 0)
(0.001 -1.30023e-07 0)
(0.001 -1.30023e-07 0)
(0.001 -1.30023e-07 0)
(0.001 -1.30022e-07 0)
(0.001 -1.30024e-07 0)
(0.001 -1.30057e-07 0)
(0.001 -1.30183e-07 0)
(0.000999999 -1.30742e-07 0)
(0.001 -4.28332e-08 0)
(0.001 -1.01936e-07 0)
(0.001 -1.23922e-07 0)
(0.001 -1.2813e-07 0)
(0.000999999 -1.2814e-07 0)
(0.000999999 -1.27864e-07 0)
(0.000999999 -1.27741e-07 0)
(0.000999999 -1.27695e-07 0)
(0.000999999 -1.27676e-07 0)
(0.000999999 -1.27668e-07 0)
(0.000999999 -1.27664e-07 0)
(0.000999999 -1.27663e-07 0)
(0.000999999 -1.27663e-07 0)
(0.000999999 -1.27662e-07 0)
(0.000999999 -1.27661e-07 0)
(0.000999999 -1.27658e-07 0)
(0.000999999 -1.27668e-07 0)
(0.000999999 -1.27781e-07 0)
(0.000999999 -1.28186e-07 0)
(0.000999998 -1.29801e-07 0)
(0.001 -4.12209e-08 0)
(0.001 -9.87524e-08 0)
(0.000999999 -1.19664e-07 0)
(0.000999999 -1.23185e-07 0)
(0.000999998 -1.22799e-07 0)
(0.000999998 -1.22313e-07 0)
(0.000999997 -1.22087e-07 0)
(0.000999997 -1.21994e-07 0)
(0.000999997 -1.21955e-07 0)
(0.000999997 -1.21939e-07 0)
(0.000999997 -1.21933e-07 0)
(0.000999997 -1.2193e-07 0)
(0.000999997 -1.21929e-07 0)
(0.000999997 -1.21928e-07 0)
(0.000999997 -1.21923e-07 0)
(0.000999997 -1.21917e-07 0)
(0.000999997 -1.21955e-07 0)
(0.000999997 -1.22304e-07 0)
(0.000999996 -1.23449e-07 0)
(0.000999995 -1.27585e-07 0)
(0.001 -3.74249e-08 0)
(0.001 -9.15563e-08 0)
(0.000999999 -1.10427e-07 0)
(0.000999997 -1.12746e-07 0)
(0.000999995 -1.11695e-07 0)
(0.000999995 -1.10861e-07 0)
(0.000999994 -1.10466e-07 0)
(0.000999994 -1.10297e-07 0)
(0.000999994 -1.10226e-07 0)
(0.000999994 -1.10197e-07 0)
(0.000999994 -1.10186e-07 0)
(0.000999994 -1.10182e-07 0)
(0.000999994 -1.1018e-07 0)
(0.000999994 -1.10177e-07 0)
(0.000999994 -1.10164e-07 0)
(0.000999993 -1.10151e-07 0)
(0.000999993 -1.10271e-07 0)
(0.000999992 -1.11194e-07 0)
(0.00099999 -1.13954e-07 0)
(0.000999988 -1.23134e-07 0)
(0.000999999 -3.04021e-08 0)
(0.001 -7.84793e-08 0)
(0.000999998 -9.41751e-08 0)
(0.000999994 -9.47787e-08 0)
(0.000999991 -9.28328e-08 0)
(0.000999989 -9.15362e-08 0)
(0.000999988 -9.09177e-08 0)
(0.000999988 -9.06502e-08 0)
(0.000999987 -9.05393e-08 0)
(0.000999987 -9.04951e-08 0)
(0.000999987 -9.04783e-08 0)
(0.000999987 -9.04723e-08 0)
(0.000999987 -9.04694e-08 0)
(0.000999987 -9.04611e-08 0)
(0.000999987 -9.04322e-08 0)
(0.000999987 -9.04082e-08 0)
(0.000999986 -9.07098e-08 0)
(0.000999984 -9.2727e-08 0)
(0.000999979 -9.81465e-08 0)
(0.000999974 -1.15308e-07 0)
(0.000999998 -2.06509e-08 0)
(0.001 -6.05418e-08 0)
(0.000999997 -7.34864e-08 0)
(0.00099999 -7.30863e-08 0)
(0.000999985 -7.06697e-08 0)
(0.000999982 -6.90946e-08 0)
(0.00099998 -6.83253e-08 0)
(0.000999979 -6.79887e-08 0)
(0.000999979 -6.78494e-08 0)
(0.000999979 -6.77942e-08 0)
(0.000999979 -6.77736e-08 0)
(0.000999979 -6.77664e-08 0)
(0.000999979 -6.77627e-08 0)
(0.000999979 -6.77474e-08 0)
(0.000999979 -6.76935e-08 0)
(0.000999978 -6.765e-08 0)
(0.000999976 -6.823e-08 0)
(0.000999972 -7.17203e-08 0)
(0.000999963 -8.02267e-08 0)
(0.000999951 -1.0598e-07 0)
(0.000999997 -3.34685e-09 0)
(0.001 -2.21683e-08 0)
(0.000999996 -2.60018e-08 0)
(0.000999987 -2.26327e-08 0)
(0.00099998 -1.93249e-08 0)
(0.000999976 -1.73803e-08 0)
(0.000999973 -1.64496e-08 0)
(0.000999972 -1.60556e-08 0)
(0.000999971 -1.58986e-08 0)
(0.000999971 -1.58386e-08 0)
(0.000999971 -1.5817e-08 0)
(0.000999971 -1.58099e-08 0)
(0.000999971 -1.58067e-08 0)
(0.000999971 -1.57858e-08 0)
(0.000999971 -1.57073e-08 0)
(0.00099997 -1.55744e-08 0)
(0.000999967 -1.63124e-08 0)
(0.000999958 -2.10425e-08 0)
(0.000999944 -3.23171e-08 0)
(0.000999922 -7.38624e-08 0)
(0.000999997 -1.75022e-08 0)
(0.00100001 -4.85896e-08 0)
(0.000999997 -5.77473e-08 0)
(0.000999982 -5.69538e-08 0)
(0.000999971 -5.5007e-08 0)
(0.000999965 -5.38139e-08 0)
(0.000999961 -5.32667e-08 0)
(0.000999959 -5.30473e-08 0)
(0.000999959 -5.29637e-08 0)
(0.000999958 -5.29327e-08 0)
(0.000999958 -5.29219e-08 0)
(0.000999958 -5.29185e-08 0)
(0.000999958 -5.29173e-08 0)
(0.000999958 -5.29059e-08 0)
(0.000999958 -5.28617e-08 0)
(0.000999957 -5.27567e-08 0)
(0.000999952 -5.31264e-08 0)
(0.000999936 -5.57215e-08 0)
(0.000999918 -6.19877e-08 0)
(0.000999855 -8.87048e-08 0)
)
;

boundaryField
{
    sides
    {
        type            slip;
    }
    inlet
    {
        type            fixedValue;
        value           uniform (0.001 0 0);
    }
    outlet
    {
        type            zeroGradient;
    }
    frontAndBack
    {
        type            empty;
    }
}


// ************************************************************************* //
