/*--------------------------------*- C++ -*----------------------------------*\
  =========                 |
  \\      /  F ield         | OpenFOAM: The Open Source CFD Toolbox
   \\    /   O peration     | Website:  https://openfoam.org
    \\  /    A nd           | Version:  7
     \\/     M anipulation  |
\*---------------------------------------------------------------------------*/
FoamFile
{
    version     2.0;
    format      ascii;
    class       surfaceScalarField;
    location    "1";
    object      phi;
}
// * * * * * * * * * * * * * * * * * * * * * * * * * * * * * * * * * * * * * //

dimensions      [0 4 -1 0 0 0 0];

internalField   nonuniform List<scalar> 
760
(
4.99993e-06
-1.50365e-11
4.99997e-06
-1.12231e-10
5.00004e-06
-1.507e-10
5.0001e-06
-1.46031e-10
5.00016e-06
-1.33382e-10
5.00019e-06
-1.2394e-10
5.00021e-06
-1.18692e-10
5.00022e-06
-1.16194e-10
5.00023e-06
-1.15093e-10
5.00023e-06
-1.14634e-10
5.00023e-06
-1.14455e-10
5.00023e-06
-1.1439e-10
5.00023e-06
-1.14342e-10
5.00023e-06
-1.14133e-10
5.00023e-06
-1.13674e-10
5.00024e-06
-1.1389e-10
5.0003e-06
-1.21323e-10
5.00043e-06
-1.4863e-10
5.00061e-06
-1.96792e-10
-3.93567e-10
4.99996e-06
-5.54464e-11
4.99999e-06
-2.17178e-10
5.00003e-06
-2.79476e-10
5.00008e-06
-2.75791e-10
5.00012e-06
-2.59271e-10
5.00014e-06
-2.47077e-10
5.00015e-06
-2.40366e-10
5.00016e-06
-2.37142e-10
5.00017e-06
-2.35702e-10
5.00017e-06
-2.35094e-10
5.00017e-06
-2.34853e-10
5.00017e-06
-2.34762e-10
5.00017e-06
-2.34699e-10
5.00017e-06
-2.34485e-10
5.00017e-06
-2.34006e-10
5.00018e-06
-2.34392e-10
5.00022e-06
-2.4246e-10
5.0003e-06
-2.75315e-10
5.00042e-06
-3.33001e-10
-5.12343e-10
4.99997e-06
-1.01531e-10
4.99999e-06
-3.2122e-10
5.00003e-06
-4.06591e-10
5.00007e-06
-4.09203e-10
5.00009e-06
-3.93876e-10
5.00011e-06
-3.82239e-10
5.00012e-06
-3.75956e-10
5.00013e-06
-3.72964e-10
5.00013e-06
-3.71628e-10
5.00013e-06
-3.71063e-10
5.00013e-06
-3.70836e-10
5.00013e-06
-3.70749e-10
5.00013e-06
-3.70699e-10
5.00013e-06
-3.70563e-10
5.00013e-06
-3.70234e-10
5.00014e-06
-3.70444e-10
5.00016e-06
-3.75634e-10
5.00021e-06
-3.99288e-10
5.00029e-06
-4.48526e-10
-5.91295e-10
4.99998e-06
-1.5006e-10
5e-06
-4.156e-10
5.00002e-06
-5.21459e-10
5.00005e-06
-5.33482e-10
5.00006e-06
-5.23013e-10
5.00008e-06
-5.14223e-10
5.00008e-06
-5.09532e-10
5.00009e-06
-5.07324e-10
5.00009e-06
-5.0634e-10
5.00009e-06
-5.0592e-10
5.00009e-06
-5.0575e-10
5.00009e-06
-5.05684e-10
5.00009e-06
-5.05651e-10
5.00009e-06
-5.05585e-10
5.00009e-06
-5.0541e-10
5.00009e-06
-5.05431e-10
5.0001e-06
-5.0783e-10
5.00013e-06
-5.20709e-10
5.00018e-06
-5.51214e-10
-6.44039e-10
4.99999e-06
-1.84167e-10
5e-06
-4.81018e-10
5.00001e-06
-6.03939e-10
5.00003e-06
-6.25782e-10
5.00004e-06
-6.20992e-10
5.00004e-06
-6.15438e-10
5.00005e-06
-6.12468e-10
5.00005e-06
-6.11095e-10
5.00005e-06
-6.10483e-10
5.00005e-06
-6.1022e-10
5.00005e-06
-6.10112e-10
5.00005e-06
-6.10069e-10
5.00005e-06
-6.1005e-10
5.00005e-06
-6.10023e-10
5.00005e-06
-6.09946e-10
5.00005e-06
-6.09911e-10
5.00006e-06
-6.10768e-10
5.00007e-06
-6.16334e-10
5.00009e-06
-6.31216e-10
-6.82208e-10
5e-06
-2.01814e-10
5e-06
-5.16322e-10
5.00001e-06
-6.50414e-10
5.00001e-06
-6.79411e-10
5.00002e-06
-6.78939e-10
5.00002e-06
-6.75836e-10
5.00002e-06
-6.74153e-10
5.00002e-06
-6.73403e-10
5.00002e-06
-6.73072e-10
5.00002e-06
-6.72928e-10
5.00002e-06
-6.72868e-10
5.00002e-06
-6.72844e-10
5.00002e-06
-6.72834e-10
5.00002e-06
-6.72823e-10
5.00002e-06
-6.72794e-10
5.00002e-06
-6.72766e-10
5.00003e-06
-6.73008e-10
5.00003e-06
-6.75022e-10
5.00004e-06
-6.81037e-10
-7.05594e-10
5e-06
-2.09089e-10
5e-06
-5.31817e-10
5e-06
-6.71783e-10
5.00001e-06
-7.04837e-10
5.00001e-06
-7.06902e-10
5.00001e-06
-7.05251e-10
5.00001e-06
-7.04335e-10
5.00001e-06
-7.03959e-10
5.00001e-06
-7.03799e-10
5.00001e-06
-7.03729e-10
5.00001e-06
-7.03698e-10
5.00001e-06
-7.03686e-10
5.00001e-06
-7.03681e-10
5.00001e-06
-7.03677e-10
5.00001e-06
-7.03668e-10
5.00001e-06
-7.03653e-10
5.00001e-06
-7.03708e-10
5.00001e-06
-7.04341e-10
5.00002e-06
-7.06426e-10
-7.17617e-10
5e-06
-2.11576e-10
5e-06
-5.37508e-10
5e-06
-6.80036e-10
5e-06
-7.1498e-10
5e-06
-7.18274e-10
5e-06
-7.17343e-10
5e-06
-7.16812e-10
5e-06
-7.16627e-10
5e-06
-7.16555e-10
5e-06
-7.16524e-10
5e-06
-7.1651e-10
5e-06
-7.16504e-10
5e-06
-7.16501e-10
5e-06
-7.165e-10
5e-06
-7.16497e-10
5e-06
-7.16492e-10
5e-06
-7.165e-10
5e-06
-7.16679e-10
5.00001e-06
-7.17319e-10
-7.22862e-10
5e-06
-2.12293e-10
5e-06
-5.39281e-10
5e-06
-6.82743e-10
5e-06
-7.18421e-10
5e-06
-7.22212e-10
5e-06
-7.21579e-10
5e-06
-7.21212e-10
5e-06
-7.2111e-10
5e-06
-7.21077e-10
5e-06
-7.21063e-10
5e-06
-7.21057e-10
5e-06
-7.21054e-10
5e-06
-7.21053e-10
5e-06
-7.21052e-10
5e-06
-7.21051e-10
5e-06
-7.21049e-10
5e-06
-7.2105e-10
5e-06
-7.21098e-10
5e-06
-7.21285e-10
-7.24806e-10
5e-06
-2.12437e-10
5e-06
-5.39657e-10
5e-06
-6.83341e-10
5e-06
-7.19201e-10
5e-06
-7.23119e-10
5e-06
-7.22565e-10
5e-06
-7.22241e-10
5e-06
-7.22161e-10
5e-06
-7.2214e-10
5e-06
-7.2213e-10
5e-06
-7.22126e-10
5e-06
-7.22124e-10
5e-06
-7.22123e-10
5e-06
-7.22122e-10
5e-06
-7.22122e-10
5e-06
-7.22121e-10
5e-06
-7.2212e-10
5e-06
-7.22143e-10
5e-06
-7.22233e-10
-7.25276e-10
5e-06
-2.12293e-10
5e-06
-5.39281e-10
5e-06
-6.82743e-10
5e-06
-7.1842e-10
5e-06
-7.22211e-10
5e-06
-7.21578e-10
5e-06
-7.21211e-10
5e-06
-7.21108e-10
5e-06
-7.21076e-10
5e-06
-7.21062e-10
5e-06
-7.21055e-10
5e-06
-7.21053e-10
5e-06
-7.21051e-10
5e-06
-7.21051e-10
5e-06
-7.2105e-10
5e-06
-7.21048e-10
5e-06
-7.21048e-10
5e-06
-7.21097e-10
5e-06
-7.21284e-10
-7.24805e-10
5e-06
-2.11576e-10
5e-06
-5.37507e-10
5e-06
-6.80034e-10
5e-06
-7.14978e-10
5e-06
-7.18271e-10
5e-06
-7.17339e-10
5e-06
-7.16808e-10
5e-06
-7.16623e-10
5e-06
-7.16552e-10
5e-06
-7.1652e-10
5e-06
-7.16506e-10
5e-06
-7.165e-10
5e-06
-7.16498e-10
5e-06
-7.16497e-10
5e-06
-7.16494e-10
5e-06
-7.16488e-10
5e-06
-7.16497e-10
5e-06
-7.16676e-10
5e-06
-7.17316e-10
-7.22861e-10
5e-06
-2.09088e-10
5e-06
-5.31814e-10
5e-06
-6.71778e-10
5e-06
-7.04831e-10
5e-06
-7.06895e-10
5e-06
-7.05244e-10
5e-06
-7.04328e-10
5e-06
-7.03952e-10
5e-06
-7.03792e-10
5e-06
-7.03721e-10
5e-06
-7.03691e-10
5e-06
-7.03678e-10
5e-06
-7.03673e-10
5e-06
-7.0367e-10
5e-06
-7.0366e-10
5e-06
-7.03646e-10
5e-06
-7.037e-10
5e-06
-7.04334e-10
4.99999e-06
-7.0642e-10
-7.17614e-10
5e-06
-2.01811e-10
5e-06
-5.16315e-10
5e-06
-6.50403e-10
4.99999e-06
-6.79399e-10
4.99999e-06
-6.78926e-10
4.99999e-06
-6.75822e-10
4.99999e-06
-6.74139e-10
4.99999e-06
-6.73389e-10
4.99999e-06
-6.73058e-10
4.99999e-06
-6.72914e-10
4.99999e-06
-6.72854e-10
4.99999e-06
-6.72829e-10
4.99999e-06
-6.72819e-10
4.99999e-06
-6.72809e-10
4.99999e-06
-6.7278e-10
4.99999e-06
-6.72751e-10
4.99999e-06
-6.72994e-10
4.99999e-06
-6.75008e-10
4.99998e-06
-6.81026e-10
-7.05588e-10
5e-06
-1.84162e-10
5e-06
-4.81006e-10
4.99999e-06
-6.03922e-10
4.99999e-06
-6.25764e-10
4.99998e-06
-6.20972e-10
4.99998e-06
-6.15417e-10
4.99998e-06
-6.12447e-10
4.99998e-06
-6.11074e-10
4.99998e-06
-6.10462e-10
4.99998e-06
-6.10199e-10
4.99998e-06
-6.10091e-10
4.99998e-06
-6.10048e-10
4.99998e-06
-6.10029e-10
4.99998e-06
-6.10002e-10
4.99998e-06
-6.09925e-10
4.99998e-06
-6.0989e-10
4.99997e-06
-6.10747e-10
4.99997e-06
-6.16315e-10
4.99996e-06
-6.312e-10
-6.82198e-10
5.00001e-06
-1.50054e-10
5e-06
-4.15584e-10
4.99999e-06
-5.21439e-10
4.99997e-06
-5.3346e-10
4.99996e-06
-5.22991e-10
4.99996e-06
-5.14201e-10
4.99995e-06
-5.09509e-10
4.99995e-06
-5.07301e-10
4.99995e-06
-5.06317e-10
4.99995e-06
-5.05897e-10
4.99995e-06
-5.05727e-10
4.99995e-06
-5.05661e-10
4.99995e-06
-5.05628e-10
4.99995e-06
-5.05562e-10
4.99995e-06
-5.05387e-10
4.99995e-06
-5.05409e-10
4.99994e-06
-5.07807e-10
4.99993e-06
-5.20688e-10
4.99991e-06
-5.51196e-10
-6.44027e-10
5.00002e-06
-1.01526e-10
5e-06
-3.21205e-10
4.99998e-06
-4.06572e-10
4.99995e-06
-4.09184e-10
4.99994e-06
-3.93857e-10
4.99992e-06
-3.8222e-10
4.99992e-06
-3.75937e-10
4.99991e-06
-3.72945e-10
4.99991e-06
-3.7161e-10
4.99991e-06
-3.71045e-10
4.99991e-06
-3.70818e-10
4.99991e-06
-3.70731e-10
4.99991e-06
-3.70681e-10
4.99991e-06
-3.70545e-10
4.99991e-06
-3.70216e-10
4.99991e-06
-3.70426e-10
4.9999e-06
-3.75616e-10
4.99987e-06
-3.99269e-10
4.99982e-06
-4.48509e-10
-5.91278e-10
5.00003e-06
-5.54432e-11
5.00001e-06
-2.17166e-10
4.99997e-06
-2.79462e-10
4.99993e-06
-2.75778e-10
4.99991e-06
-2.59258e-10
4.99989e-06
-2.47065e-10
4.99988e-06
-2.40354e-10
4.99987e-06
-2.3713e-10
4.99987e-06
-2.35691e-10
4.99987e-06
-2.35083e-10
4.99987e-06
-2.34841e-10
4.99987e-06
-2.3475e-10
4.99987e-06
-2.34688e-10
4.99987e-06
-2.34474e-10
4.99987e-06
-2.33995e-10
4.99986e-06
-2.3438e-10
4.99984e-06
-2.42448e-10
4.99979e-06
-2.75302e-10
4.99971e-06
-3.3299e-10
-5.12324e-10
5.00004e-06
-1.50405e-11
5.00001e-06
-1.12232e-10
4.99997e-06
-1.50699e-10
4.99992e-06
-1.46027e-10
4.99988e-06
-1.33377e-10
4.99986e-06
-1.23935e-10
4.99985e-06
-1.18687e-10
4.99984e-06
-1.1619e-10
4.99983e-06
-1.15089e-10
4.99983e-06
-1.14629e-10
4.99983e-06
-1.1445e-10
4.99983e-06
-1.14385e-10
4.99983e-06
-1.14337e-10
4.99983e-06
-1.14128e-10
4.99983e-06
-1.13669e-10
4.99982e-06
-1.13885e-10
4.99978e-06
-1.21317e-10
4.9997e-06
-1.48622e-10
4.99958e-06
-1.96788e-10
-3.93543e-10
5.00007e-06
5.00003e-06
4.99996e-06
4.9999e-06
4.99984e-06
4.99981e-06
4.99979e-06
4.99978e-06
4.99977e-06
4.99977e-06
4.99977e-06
4.99977e-06
4.99977e-06
4.99977e-06
4.99977e-06
4.99976e-06
4.9997e-06
4.99957e-06
4.99939e-06
)
;

boundaryField
{
    sides
    {
        type            calculated;
        value           uniform 0;
    }
    inlet
    {
        type            calculated;
        value           nonuniform List<scalar> 
20
(
-5e-06
-5e-06
-5e-06
-5e-06
-5e-06
-5e-06
-5e-06
-5e-06
-5e-06
-5e-06
-5e-06
-5e-06
-5e-06
-5e-06
-5e-06
-5e-06
-5e-06
-5e-06
-5e-06
-5e-06
)
;
    }
    outlet
    {
        type            calculated;
        value           nonuniform List<scalar> 
20
(
5.00101e-06
5.00053e-06
5.00036e-06
5.00021e-06
5.00011e-06
5.00005e-06
5.00002e-06
5.00001e-06
5e-06
5e-06
5e-06
5e-06
4.99999e-06
4.99998e-06
4.99995e-06
4.99989e-06
4.99979e-06
4.99964e-06
4.99947e-06
4.99899e-06
)
;
    }
    frontAndBack
    {
        type            empty;
        value           nonuniform 0();
    }
}


// ************************************************************************* //
