/*--------------------------------*- C++ -*----------------------------------*\
  =========                 |
  \\      /  F ield         | OpenFOAM: The Open Source CFD Toolbox
   \\    /   O peration     | Website:  https://openfoam.org
    \\  /    A nd           | Version:  7
     \\/     M anipulation  |
\*---------------------------------------------------------------------------*/
FoamFile
{
    version     2.0;
    format      ascii;
    class       surfaceScalarField;
    location    "1";
    object      phi_0;
}
// * * * * * * * * * * * * * * * * * * * * * * * * * * * * * * * * * * * * * //

dimensions      [0 4 -1 0 0 0 0];

internalField   nonuniform List<scalar> 
760
(
4.99994e-06
-2.80877e-11
4.99998e-06
-1.23475e-10
5.00006e-06
-1.51306e-10
5.00012e-06
-1.42145e-10
5.00016e-06
-1.30291e-10
5.00018e-06
-1.22955e-10
5.0002e-06
-1.19396e-10
5.0002e-06
-1.17886e-10
5.0002e-06
-1.17282e-10
5.00021e-06
-1.17052e-10
5.00021e-06
-1.16969e-10
5.00021e-06
-1.16942e-10
5.00021e-06
-1.16928e-10
5.00021e-06
-1.16829e-10
5.0002e-06
-1.16486e-10
5.00021e-06
-1.16025e-10
5.00024e-06
-1.19716e-10
5.00035e-06
-1.39505e-10
5.00053e-06
-1.86446e-10
-3.64827e-10
4.99997e-06
-7.61853e-11
5e-06
-2.3546e-10
5.00004e-06
-2.82172e-10
5.00008e-06
-2.74108e-10
5.00011e-06
-2.60258e-10
5.00013e-06
-2.51675e-10
5.00014e-06
-2.47494e-10
5.00014e-06
-2.45678e-10
5.00014e-06
-2.44935e-10
5.00014e-06
-2.44644e-10
5.00014e-06
-2.44536e-10
5.00014e-06
-2.44499e-10
5.00014e-06
-2.44479e-10
5.00014e-06
-2.44382e-10
5.00014e-06
-2.44059e-10
5.00015e-06
-2.43774e-10
5.00017e-06
-2.47448e-10
5.00023e-06
-2.68568e-10
5.00034e-06
-3.15933e-10
-4.71522e-10
4.99998e-06
-1.28726e-10
5e-06
-3.4165e-10
5.00003e-06
-4.09438e-10
5.00006e-06
-4.08015e-10
5.00008e-06
-3.96214e-10
5.0001e-06
-3.88648e-10
5.0001e-06
-3.85014e-10
5.0001e-06
-3.83437e-10
5.00011e-06
-3.82786e-10
5.00011e-06
-3.82528e-10
5.00011e-06
-3.82431e-10
5.00011e-06
-3.82397e-10
5.00011e-06
-3.8238e-10
5.00011e-06
-3.82324e-10
5.00011e-06
-3.82131e-10
5.00011e-06
-3.81966e-10
5.00012e-06
-3.84002e-10
5.00015e-06
-3.97326e-10
5.00022e-06
-4.3186e-10
-5.4535e-10
4.99999e-06
-1.73097e-10
5e-06
-4.26157e-10
5.00002e-06
-5.12612e-10
5.00004e-06
-5.1998e-10
5.00005e-06
-5.12514e-10
5.00006e-06
-5.07215e-10
5.00006e-06
-5.04698e-10
5.00006e-06
-5.03613e-10
5.00006e-06
-5.03161e-10
5.00006e-06
-5.0298e-10
5.00006e-06
-5.0291e-10
5.00006e-06
-5.02885e-10
5.00006e-06
-5.02874e-10
5.00006e-06
-5.02849e-10
5.00006e-06
-5.0276e-10
5.00006e-06
-5.02659e-10
5.00007e-06
-5.0345e-10
5.00009e-06
-5.09817e-10
5.00012e-06
-5.28196e-10
-5.93827e-10
4.99999e-06
-1.98639e-10
5e-06
-4.75859e-10
5.00001e-06
-5.75882e-10
5.00002e-06
-5.90845e-10
5.00003e-06
-5.87449e-10
5.00003e-06
-5.84258e-10
5.00003e-06
-5.82761e-10
5.00003e-06
-5.82129e-10
5.00003e-06
-5.81864e-10
5.00003e-06
-5.81756e-10
5.00003e-06
-5.81713e-10
5.00003e-06
-5.81698e-10
5.00003e-06
-5.81691e-10
5.00003e-06
-5.81682e-10
5.00003e-06
-5.81648e-10
5.00003e-06
-5.81596e-10
5.00003e-06
-5.81829e-10
5.00004e-06
-5.8427e-10
5.00006e-06
-5.9208e-10
-6.24485e-10
5e-06
-2.09936e-10
5e-06
-4.9912e-10
5e-06
-6.06863e-10
5.00001e-06
-6.26577e-10
5.00001e-06
-6.25851e-10
5.00001e-06
-6.24058e-10
5.00001e-06
-6.23241e-10
5.00001e-06
-6.22915e-10
5.00001e-06
-6.2278e-10
5.00001e-06
-6.22723e-10
5.00001e-06
-6.227e-10
5.00001e-06
-6.22692e-10
5.00001e-06
-6.22688e-10
5.00001e-06
-6.22685e-10
5.00001e-06
-6.22673e-10
5.00001e-06
-6.22652e-10
5.00001e-06
-6.22703e-10
5.00002e-06
-6.23498e-10
5.00002e-06
-6.26285e-10
-6.40839e-10
5e-06
-2.13992e-10
5e-06
-5.0808e-10
5e-06
-6.19392e-10
5e-06
-6.41481e-10
5e-06
-6.42152e-10
5e-06
-6.41106e-10
5e-06
-6.40659e-10
5e-06
-6.40504e-10
5.00001e-06
-6.40442e-10
5.00001e-06
-6.40415e-10
5.00001e-06
-6.40404e-10
5.00001e-06
-6.404e-10
5.00001e-06
-6.40398e-10
5.00001e-06
-6.40397e-10
5.00001e-06
-6.40393e-10
5.00001e-06
-6.40386e-10
5.00001e-06
-6.40393e-10
5.00001e-06
-6.40621e-10
5.00001e-06
-6.41485e-10
-6.48201e-10
5e-06
-2.15211e-10
5e-06
-5.10998e-10
5e-06
-6.23698e-10
5e-06
-6.4678e-10
5e-06
-6.48064e-10
5e-06
-6.47358e-10
5e-06
-6.47084e-10
5e-06
-6.4701e-10
5e-06
-6.46984e-10
5e-06
-6.46973e-10
5e-06
-6.46968e-10
5e-06
-6.46966e-10
5e-06
-6.46965e-10
5e-06
-6.46964e-10
5e-06
-6.46963e-10
5e-06
-6.46961e-10
5e-06
-6.46961e-10
5e-06
-6.4702e-10
5e-06
-6.47261e-10
-6.51047e-10
5e-06
-2.15525e-10
5e-06
-5.11817e-10
5e-06
-6.24974e-10
5e-06
-6.48409e-10
5e-06
-6.49923e-10
5e-06
-6.49349e-10
5e-06
-6.49144e-10
5e-06
-6.49103e-10
5e-06
-6.49093e-10
5e-06
-6.49088e-10
5e-06
-6.49086e-10
5e-06
-6.49085e-10
5e-06
-6.49084e-10
5e-06
-6.49084e-10
5e-06
-6.49084e-10
5e-06
-6.49083e-10
5e-06
-6.49082e-10
5e-06
-6.49098e-10
5e-06
-6.49163e-10
-6.52e-10
5e-06
-2.15583e-10
5e-06
-5.11978e-10
5e-06
-6.25237e-10
5e-06
-6.48755e-10
5e-06
-6.50325e-10
5e-06
-6.49785e-10
5e-06
-6.49597e-10
5e-06
-6.49565e-10
5e-06
-6.49558e-10
5e-06
-6.49556e-10
5e-06
-6.49554e-10
5e-06
-6.49553e-10
5e-06
-6.49553e-10
5e-06
-6.49553e-10
5e-06
-6.49553e-10
5e-06
-6.49553e-10
5e-06
-6.49552e-10
5e-06
-6.49559e-10
5e-06
-6.49588e-10
-6.52215e-10
5e-06
-2.15525e-10
5e-06
-5.11816e-10
5e-06
-6.24974e-10
5e-06
-6.48408e-10
5e-06
-6.49922e-10
5e-06
-6.49349e-10
5e-06
-6.49144e-10
5e-06
-6.49103e-10
5e-06
-6.49092e-10
5e-06
-6.49087e-10
5e-06
-6.49085e-10
5e-06
-6.49084e-10
5e-06
-6.49084e-10
5e-06
-6.49084e-10
5e-06
-6.49083e-10
5e-06
-6.49083e-10
5e-06
-6.49082e-10
5e-06
-6.49097e-10
5e-06
-6.49162e-10
-6.51999e-10
5e-06
-2.15211e-10
5e-06
-5.10998e-10
5e-06
-6.23697e-10
5e-06
-6.46778e-10
5e-06
-6.48063e-10
5e-06
-6.47357e-10
5e-06
-6.47083e-10
5e-06
-6.47008e-10
5e-06
-6.46982e-10
5e-06
-6.46971e-10
5e-06
-6.46966e-10
5e-06
-6.46964e-10
5e-06
-6.46963e-10
5e-06
-6.46963e-10
5e-06
-6.46962e-10
5e-06
-6.4696e-10
5e-06
-6.46959e-10
5e-06
-6.47019e-10
5e-06
-6.4726e-10
-6.51046e-10
5e-06
-2.13992e-10
5e-06
-5.08078e-10
5e-06
-6.1939e-10
5e-06
-6.41478e-10
5e-06
-6.42148e-10
5e-06
-6.41103e-10
5e-06
-6.40656e-10
5e-06
-6.405e-10
5e-06
-6.40438e-10
5e-06
-6.40411e-10
5e-06
-6.404e-10
5e-06
-6.40396e-10
5e-06
-6.40394e-10
5e-06
-6.40393e-10
5e-06
-6.4039e-10
5e-06
-6.40382e-10
5e-06
-6.40389e-10
5e-06
-6.40617e-10
5e-06
-6.41482e-10
-6.48199e-10
5e-06
-2.09934e-10
5e-06
-4.99116e-10
5e-06
-6.06857e-10
5e-06
-6.2657e-10
5e-06
-6.25844e-10
5e-06
-6.2405e-10
5e-06
-6.23233e-10
4.99999e-06
-6.22907e-10
4.99999e-06
-6.22772e-10
4.99999e-06
-6.22715e-10
4.99999e-06
-6.22692e-10
4.99999e-06
-6.22684e-10
4.99999e-06
-6.2268e-10
4.99999e-06
-6.22677e-10
4.99999e-06
-6.22665e-10
4.99999e-06
-6.22644e-10
4.99999e-06
-6.22695e-10
4.99999e-06
-6.2349e-10
4.99999e-06
-6.26278e-10
-6.40835e-10
5e-06
-1.98636e-10
5e-06
-4.75851e-10
5e-06
-5.75871e-10
4.99999e-06
-5.90832e-10
4.99999e-06
-5.87436e-10
4.99999e-06
-5.84244e-10
4.99999e-06
-5.82748e-10
4.99999e-06
-5.82115e-10
4.99999e-06
-5.81851e-10
4.99999e-06
-5.81742e-10
4.99999e-06
-5.817e-10
4.99999e-06
-5.81684e-10
4.99999e-06
-5.81677e-10
4.99999e-06
-5.81668e-10
4.99999e-06
-5.81634e-10
4.99999e-06
-5.81582e-10
4.99999e-06
-5.81815e-10
4.99998e-06
-5.84257e-10
4.99998e-06
-5.92069e-10
-6.24479e-10
5.00001e-06
-1.73092e-10
5e-06
-4.26144e-10
4.99999e-06
-5.12596e-10
4.99998e-06
-5.19963e-10
4.99997e-06
-5.12496e-10
4.99997e-06
-5.07197e-10
4.99997e-06
-5.04681e-10
4.99997e-06
-5.03595e-10
4.99997e-06
-5.03144e-10
4.99997e-06
-5.02962e-10
4.99997e-06
-5.02892e-10
4.99997e-06
-5.02867e-10
4.99997e-06
-5.02856e-10
4.99997e-06
-5.02831e-10
4.99997e-06
-5.02742e-10
4.99997e-06
-5.02641e-10
4.99997e-06
-5.03432e-10
4.99996e-06
-5.098e-10
4.99994e-06
-5.28181e-10
-5.93817e-10
5.00001e-06
-1.28721e-10
5e-06
-3.41637e-10
4.99998e-06
-4.09422e-10
4.99996e-06
-4.07999e-10
4.99995e-06
-3.96198e-10
4.99994e-06
-3.88632e-10
4.99994e-06
-3.84998e-10
4.99994e-06
-3.83421e-10
4.99994e-06
-3.8277e-10
4.99994e-06
-3.82512e-10
4.99994e-06
-3.82415e-10
4.99994e-06
-3.8238e-10
4.99994e-06
-3.82363e-10
4.99994e-06
-3.82308e-10
4.99994e-06
-3.82115e-10
4.99994e-06
-3.8195e-10
4.99993e-06
-3.83985e-10
4.99991e-06
-3.9731e-10
4.99988e-06
-4.31845e-10
-5.45337e-10
5.00002e-06
-7.61815e-11
5e-06
-2.35449e-10
4.99997e-06
-2.8216e-10
4.99994e-06
-2.74096e-10
4.99992e-06
-2.60247e-10
4.9999e-06
-2.51664e-10
4.9999e-06
-2.47483e-10
4.9999e-06
-2.45667e-10
4.99989e-06
-2.44924e-10
4.99989e-06
-2.44633e-10
4.99989e-06
-2.44525e-10
4.99989e-06
-2.44489e-10
4.99989e-06
-2.44468e-10
4.99989e-06
-2.44372e-10
4.99989e-06
-2.44048e-10
4.99989e-06
-2.43763e-10
4.99988e-06
-2.47437e-10
4.99985e-06
-2.68556e-10
4.99978e-06
-3.15923e-10
-4.71507e-10
5.00003e-06
-2.80889e-11
5e-06
-1.23476e-10
4.99996e-06
-1.51305e-10
4.99992e-06
-1.42141e-10
4.99989e-06
-1.30287e-10
4.99987e-06
-1.22951e-10
4.99986e-06
-1.19392e-10
4.99986e-06
-1.17881e-10
4.99986e-06
-1.17278e-10
4.99986e-06
-1.17048e-10
4.99986e-06
-1.16965e-10
4.99986e-06
-1.16938e-10
4.99986e-06
-1.16924e-10
4.99986e-06
-1.16825e-10
4.99986e-06
-1.16482e-10
4.99985e-06
-1.16021e-10
4.99983e-06
-1.19712e-10
4.99977e-06
-1.39498e-10
4.99966e-06
-1.86442e-10
-3.64808e-10
5.00006e-06
5.00002e-06
4.99994e-06
4.99988e-06
4.99984e-06
4.99982e-06
4.9998e-06
4.9998e-06
4.9998e-06
4.99979e-06
4.99979e-06
4.99979e-06
4.99979e-06
4.99979e-06
4.9998e-06
4.99979e-06
4.99976e-06
4.99965e-06
4.99947e-06
)
;

boundaryField
{
    sides
    {
        type            calculated;
        value           uniform 0;
    }
    inlet
    {
        type            calculated;
        value           nonuniform List<scalar> 
20
(
-5e-06
-5e-06
-5e-06
-5e-06
-5e-06
-5e-06
-5e-06
-5e-06
-5e-06
-5e-06
-5e-06
-5e-06
-5e-06
-5e-06
-5e-06
-5e-06
-5e-06
-5e-06
-5e-06
-5e-06
)
;
    }
    outlet
    {
        type            calculated;
        value           nonuniform List<scalar> 
20
(
5.00089e-06
5.00044e-06
5.00028e-06
5.00015e-06
5.00007e-06
5.00003e-06
5.00001e-06
5e-06
5e-06
5e-06
5e-06
5e-06
5e-06
4.99999e-06
4.99997e-06
4.99993e-06
4.99985e-06
4.99972e-06
4.99956e-06
4.99911e-06
)
;
    }
    frontAndBack
    {
        type            empty;
        value           nonuniform 0();
    }
}


// ************************************************************************* //
