/*--------------------------------*- C++ -*----------------------------------*\
  =========                 |
  \\      /  F ield         | OpenFOAM: The Open Source CFD Toolbox
   \\    /   O peration     | Website:  https://openfoam.org
    \\  /    A nd           | Version:  7
     \\/     M anipulation  |
\*---------------------------------------------------------------------------*/
FoamFile
{
    version     2.0;
    format      ascii;
    class       volScalarField;
    location    "16";
    object      ddt0(h);
}
// * * * * * * * * * * * * * * * * * * * * * * * * * * * * * * * * * * * * * //

dimensions      [0 1 -1 0 0 0 0];

internalField   nonuniform List<scalar> 
400
(
-5.56169e-08
-6.35816e-08
-1.10294e-07
-1.16798e-07
-1.18745e-07
-1.07639e-07
-8.99693e-08
-8.59188e-08
-7.97394e-08
-7.4424e-08
-6.85181e-08
-6.34765e-08
-6.05879e-08
-5.64289e-08
-5.04871e-08
-4.22191e-08
-3.08006e-08
-1.75409e-08
-6.62856e-09
-1.50928e-09
-3.56732e-08
-7.66635e-08
-6.61444e-08
-8.2038e-08
-7.89295e-08
-8.90655e-08
-9.15506e-08
-8.57323e-08
-7.99238e-08
-7.78832e-08
-7.67947e-08
-7.52511e-08
-7.23454e-08
-6.5164e-08
-5.50077e-08
-4.26229e-08
-2.8515e-08
-1.54169e-08
-6.78264e-09
-1.88927e-09
-2.48167e-08
-4.70745e-08
-5.66624e-08
-5.82876e-08
-8.81509e-08
-1.18159e-07
-1.25802e-07
-1.19217e-07
-1.08397e-07
-1.01076e-07
-9.40482e-08
-8.73514e-08
-7.82608e-08
-6.75488e-08
-5.64594e-08
-4.26041e-08
-2.75495e-08
-1.63109e-08
-9.4305e-09
-3.67822e-09
5.05658e-10
-5.24768e-09
-2.94729e-08
-6.83044e-08
-5.70074e-08
-4.63579e-08
-8.05467e-08
-1.02284e-07
-1.08874e-07
-1.0735e-07
-1.04563e-07
-9.9172e-08
-8.73514e-08
-7.20653e-08
-5.64075e-08
-3.91642e-08
-2.32568e-08
-1.32892e-08
-7.63409e-09
-2.60832e-09
3.26828e-08
7.20096e-09
-4.54903e-08
-3.45952e-08
-1.20111e-07
-8.86398e-08
-9.27922e-08
-1.02466e-07
-1.11378e-07
-1.11512e-07
-1.09769e-07
-1.03272e-07
-8.85885e-08
-7.14545e-08
-5.34851e-08
-3.50626e-08
-2.08271e-08
-1.27729e-08
-7.23801e-09
-2.37843e-09
5.18978e-08
2.46357e-08
1.42674e-08
-3.71054e-08
-1.92848e-08
-8.53829e-08
-9.98408e-08
-1.08579e-07
-1.10738e-07
-1.11401e-07
-1.07395e-07
-9.71297e-08
-8.27659e-08
-6.57961e-08
-4.60049e-08
-2.66416e-08
-1.35184e-08
-6.74335e-09
-3.26523e-09
-1.06374e-09
5.32986e-08
4.10911e-08
1.31615e-08
-3.26959e-09
-2.31691e-08
-4.98972e-08
-7.45786e-08
-8.82151e-08
-9.50073e-08
-9.57605e-08
-9.5654e-08
-8.59974e-08
-7.08719e-08
-5.39811e-08
-3.59531e-08
-1.97836e-08
-8.22227e-09
-5.57793e-10
2.72555e-09
1.46411e-09
5.09725e-08
3.39924e-08
1.33291e-08
-4.18307e-09
-1.72488e-08
-4.07936e-08
-5.74242e-08
-6.81544e-08
-7.3176e-08
-7.61524e-08
-7.2327e-08
-6.53301e-08
-5.58909e-08
-4.20377e-08
-2.68822e-08
-1.44901e-08
-4.66557e-09
4.39075e-09
8.81985e-09
4.537e-09
3.27117e-08
2.18298e-08
1.39902e-08
6.51233e-10
-1.18163e-08
-2.60283e-08
-3.62404e-08
-4.26058e-08
-5.03007e-08
-5.04068e-08
-4.85449e-08
-4.56308e-08
-3.66769e-08
-2.46367e-08
-1.60602e-08
-1.07521e-08
-3.87847e-09
5.22039e-09
1.00796e-08
5.1996e-09
1.13315e-08
7.42724e-09
8.68312e-09
-4.59402e-09
-5.62468e-09
-1.27424e-08
-1.15778e-08
-1.48372e-08
-1.56139e-08
-1.76563e-08
-1.715e-08
-1.34855e-08
-1.00079e-08
-8.6128e-09
-8.4039e-09
-6.528e-09
-2.27222e-09
2.54549e-09
4.92646e-09
2.61163e-09
-1.13351e-08
-7.43002e-09
-8.65573e-09
4.61587e-09
5.65842e-09
1.27716e-08
1.16356e-08
1.48997e-08
1.57011e-08
1.77477e-08
1.72306e-08
1.35447e-08
1.00081e-08
8.5454e-09
8.29668e-09
6.39866e-09
2.12933e-09
-2.68076e-09
-5.01235e-09
-2.63282e-09
-3.27206e-08
-2.18134e-08
-1.39675e-08
-6.23412e-10
1.1842e-08
2.60586e-08
3.62879e-08
4.2675e-08
5.0372e-08
5.05051e-08
4.86212e-08
4.56645e-08
3.66799e-08
2.4593e-08
1.59548e-08
1.06045e-08
3.72605e-09
-5.34968e-09
-1.01578e-08
-5.21823e-09
-5.09873e-08
-3.40186e-08
-1.33203e-08
4.20022e-09
1.72584e-08
4.08282e-08
5.74494e-08
6.82081e-08
7.32467e-08
7.62112e-08
7.23845e-08
6.53593e-08
5.58682e-08
4.19607e-08
2.67651e-08
1.43543e-08
4.53465e-09
-4.50002e-09
-8.88932e-09
-4.55636e-09
-5.3346e-08
-4.10888e-08
-1.31744e-08
3.27411e-09
2.31779e-08
4.99217e-08
7.46127e-08
8.82575e-08
9.50622e-08
9.58137e-08
9.56889e-08
8.60051e-08
7.08428e-08
5.39112e-08
3.58516e-08
1.96667e-08
8.109e-09
4.61341e-10
-2.7948e-09
-1.48787e-09
-5.19335e-08
-2.46873e-08
-1.43199e-08
3.71063e-08
1.93063e-08
8.53988e-08
9.9861e-08
1.08616e-07
1.10785e-07
1.11443e-07
1.07424e-07
9.71312e-08
8.27294e-08
6.57243e-08
4.5913e-08
2.65399e-08
1.34169e-08
6.65629e-09
3.20187e-09
1.04012e-09
-3.27754e-08
-7.24217e-09
4.54625e-08
3.45512e-08
1.20102e-07
8.86521e-08
9.28246e-08
1.02499e-07
1.11413e-07
1.11548e-07
1.0978e-07
1.03251e-07
8.85352e-08
7.1374e-08
5.33906e-08
3.49626e-08
2.07328e-08
1.26999e-08
7.19637e-09
2.36644e-09
-6.23839e-10
5.13131e-09
2.94467e-08
6.82793e-08
5.70167e-08
4.64099e-08
8.06163e-08
1.02332e-07
1.08907e-07
1.0737e-07
1.04556e-07
9.91348e-08
8.72884e-08
7.19828e-08
5.63144e-08
3.90739e-08
2.31827e-08
1.32354e-08
7.6077e-09
2.60509e-09
2.46898e-08
4.69479e-08
5.65984e-08
5.82934e-08
8.81453e-08
1.18239e-07
1.2591e-07
1.19295e-07
1.08435e-07
1.01088e-07
9.40288e-08
8.72989e-08
7.81846e-08
6.74602e-08
5.63681e-08
4.2524e-08
2.74948e-08
1.62722e-08
9.40602e-09
3.6694e-09
3.55133e-08
7.65351e-08
6.60387e-08
8.20422e-08
7.89675e-08
8.91348e-08
9.17234e-08
8.58057e-08
7.99657e-08
7.78893e-08
7.67753e-08
7.52027e-08
7.22707e-08
6.50812e-08
5.49265e-08
4.25455e-08
2.84501e-08
1.53685e-08
6.74576e-09
1.87347e-09
5.5436e-08
6.3502e-08
1.10263e-07
1.16778e-07
1.18827e-07
1.07696e-07
8.99488e-08
8.60214e-08
7.98237e-08
7.44465e-08
6.84957e-08
6.34174e-08
6.05009e-08
5.63392e-08
5.0406e-08
4.21435e-08
3.07337e-08
1.74924e-08
6.59788e-09
1.49358e-09
)
;

boundaryField
{
    sides
    {
        type            calculated;
        value           nonuniform List<scalar> 
40
(
5.5436e-08
6.3502e-08
1.10263e-07
1.16778e-07
1.18827e-07
1.07696e-07
8.99488e-08
8.60214e-08
7.98237e-08
7.44465e-08
6.84957e-08
6.34174e-08
6.05009e-08
5.63392e-08
5.0406e-08
4.21435e-08
3.07337e-08
1.74924e-08
6.59788e-09
1.49358e-09
-5.56169e-08
-6.35816e-08
-1.10294e-07
-1.16798e-07
-1.18745e-07
-1.07639e-07
-8.99693e-08
-8.59188e-08
-7.97394e-08
-7.4424e-08
-6.85181e-08
-6.34765e-08
-6.05879e-08
-5.64289e-08
-5.04871e-08
-4.22191e-08
-3.08006e-08
-1.75409e-08
-6.62856e-09
-1.50928e-09
)
;
    }
    inlet
    {
        type            calculated;
        value           nonuniform List<scalar> 
20
(
-5.56169e-08
-3.56732e-08
-2.48167e-08
5.05658e-10
3.26828e-08
5.18978e-08
5.32986e-08
5.09725e-08
3.27117e-08
1.13315e-08
-1.13351e-08
-3.27206e-08
-5.09873e-08
-5.3346e-08
-5.19335e-08
-3.27754e-08
-6.23839e-10
2.46898e-08
3.55133e-08
5.5436e-08
)
;
    }
    outlet
    {
        type            calculated;
        value           uniform 0;
    }
    frontAndBack
    {
        type            empty;
    }
}


// ************************************************************************* //
