/*--------------------------------*- C++ -*----------------------------------*\
  =========                 |
  \\      /  F ield         | OpenFOAM: The Open Source CFD Toolbox
   \\    /   O peration     | Website:  https://openfoam.org
    \\  /    A nd           | Version:  7
     \\/     M anipulation  |
\*---------------------------------------------------------------------------*/
FoamFile
{
    version     2.0;
    format      ascii;
    class       volVectorField;
    location    "16";
    object      ddt0(hU);
}
// * * * * * * * * * * * * * * * * * * * * * * * * * * * * * * * * * * * * * //

dimensions      [0 2 -2 0 0 0 0];

internalField   nonuniform List<vector> 
400
(
(-2.66553e-09 -3.07315e-09 0)
(2.01288e-08 -5.33536e-09 0)
(2.3352e-08 -4.33698e-09 0)
(2.12263e-08 -1.90681e-10 0)
(1.87221e-08 6.35537e-09 0)
(1.77101e-08 1.18697e-08 0)
(1.83381e-08 1.13706e-08 0)
(1.08037e-08 7.30484e-09 0)
(1.31012e-10 2.67106e-09 0)
(-6.79931e-09 -3.0228e-09 0)
(-5.11249e-09 -9.81001e-09 0)
(1.6063e-09 -1.4435e-08 0)
(1.06372e-08 -1.38323e-08 0)
(1.9959e-08 -6.48817e-09 0)
(2.24465e-08 1.55822e-09 0)
(1.93018e-08 9.25064e-09 0)
(2.76563e-09 1.23174e-08 0)
(-7.98802e-09 1.08204e-08 0)
(-2.62985e-08 1.32408e-08 0)
(-3.70743e-08 3.64323e-09 0)
(-5.4347e-09 -4.67972e-09 0)
(1.01812e-08 -1.14463e-10 0)
(2.8368e-08 4.74958e-09 0)
(3.30623e-08 8.17234e-09 0)
(3.13585e-08 1.46553e-09 0)
(2.23967e-08 4.82507e-10 0)
(1.42244e-08 -2.08343e-09 0)
(4.66007e-09 -2.12018e-09 0)
(-5.80306e-09 -1.84364e-09 0)
(-1.29642e-08 -3.2906e-09 0)
(-1.11379e-08 -6.94747e-09 0)
(-1.98032e-09 -1.10574e-08 0)
(1.10609e-08 -1.28776e-08 0)
(2.43186e-08 -8.60156e-09 0)
(2.91483e-08 -1.11664e-09 0)
(2.51856e-08 8.853e-09 0)
(5.67957e-09 1.67052e-08 0)
(-9.42659e-09 1.69412e-08 0)
(-3.24642e-08 1.84368e-08 0)
(-4.13839e-08 5.31565e-09 0)
(-1.65003e-09 -9.38974e-09 0)
(1.54582e-08 -4.91808e-10 0)
(2.62409e-08 7.68568e-09 0)
(2.04562e-08 5.36901e-09 0)
(9.11531e-09 6.8813e-10 0)
(6.92405e-09 1.24205e-08 0)
(9.11504e-09 1.80536e-08 0)
(1.08721e-08 1.64334e-08 0)
(6.16578e-09 1.05629e-08 0)
(1.76389e-09 -7.25683e-11 0)
(2.49959e-09 -1.38237e-08 0)
(5.51205e-09 -2.52218e-08 0)
(9.59811e-09 -2.84722e-08 0)
(1.36046e-08 -1.76008e-08 0)
(1.39831e-08 -8.28838e-10 0)
(1.27356e-08 2.05563e-08 0)
(1.26094e-09 3.46222e-08 0)
(-6.10111e-09 3.59864e-08 0)
(-2.27484e-08 3.92081e-08 0)
(-3.35533e-08 8.97445e-09 0)
(-3.66827e-09 -1.37115e-08 0)
(9.00403e-09 -3.94966e-09 0)
(1.93797e-08 5.49893e-09 0)
(2.02634e-08 4.01663e-09 0)
(3.22026e-08 1.05365e-08 0)
(3.48428e-08 1.03316e-08 0)
(1.53624e-08 1.9596e-08 0)
(9.91729e-10 2.20382e-08 0)
(-8.48901e-09 1.57666e-08 0)
(-1.34822e-08 1.32882e-09 0)
(-1.00229e-08 -1.85605e-08 0)
(3.06175e-10 -3.53841e-08 0)
(1.3841e-08 -4.08409e-08 0)
(2.49764e-08 -2.67286e-08 0)
(2.65674e-08 -3.77515e-09 0)
(2.09026e-08 2.51064e-08 0)
(2.41439e-09 4.49658e-08 0)
(-1.04712e-08 4.68134e-08 0)
(-3.16432e-08 5.2131e-08 0)
(-4.05363e-08 1.35571e-08 0)
(5.75877e-10 -9.56843e-09 0)
(6.98919e-09 2.21536e-09 0)
(1.00865e-08 1.36552e-08 0)
(1.54185e-08 1.7399e-08 0)
(-1.51629e-09 2.64186e-08 0)
(5.2401e-09 2.29937e-08 0)
(2.00193e-08 2.16719e-08 0)
(1.77878e-08 2.22248e-08 0)
(9.72636e-09 1.6935e-08 0)
(5.19918e-09 1.70665e-09 0)
(4.74571e-09 -2.11743e-08 0)
(5.51136e-09 -4.14305e-08 0)
(7.24134e-09 -4.87968e-08 0)
(9.31098e-09 -3.3616e-08 0)
(9.84556e-09 -7.60044e-09 0)
(9.41446e-09 2.69532e-08 0)
(1.85835e-10 5.1468e-08 0)
(-6.70132e-09 5.58367e-08 0)
(-2.06739e-08 6.27147e-08 0)
(-2.8934e-08 1.52944e-08 0)
(1.33419e-10 -4.99981e-09 0)
(2.51291e-09 5.58599e-09 0)
(1.12042e-08 1.86154e-08 0)
(1.98837e-08 2.69683e-08 0)
(2.52612e-08 3.35599e-08 0)
(9.80584e-09 5.21233e-08 0)
(5.69519e-09 5.41162e-08 0)
(4.81508e-09 4.73001e-08 0)
(1.83016e-10 3.23249e-08 0)
(-4.14469e-09 6.86424e-09 0)
(-2.21811e-09 -2.66815e-08 0)
(4.95871e-09 -5.45799e-08 0)
(1.33932e-08 -6.43777e-08 0)
(1.9209e-08 -4.45173e-08 0)
(1.92388e-08 -1.08588e-08 0)
(1.5091e-08 3.24677e-08 0)
(8.55945e-10 6.22215e-08 0)
(-9.6259e-09 6.76662e-08 0)
(-2.68055e-08 7.6624e-08 0)
(-3.33473e-08 1.8231e-08 0)
(6.33998e-10 4.69189e-10 0)
(1.95641e-09 1.24486e-08 0)
(6.80757e-09 2.60881e-08 0)
(1.11292e-08 3.72129e-08 0)
(1.27288e-08 3.97359e-08 0)
(1.29791e-08 4.52825e-08 0)
(1.02764e-08 5.18222e-08 0)
(8.26507e-09 5.04273e-08 0)
(5.06136e-09 3.76508e-08 0)
(3.51609e-09 1.12222e-08 0)
(3.92217e-09 -2.44942e-08 0)
(5.7446e-09 -5.56419e-08 0)
(7.3839e-09 -6.87538e-08 0)
(8.58056e-09 -5.06671e-08 0)
(8.62926e-09 -1.72045e-08 0)
(7.5685e-09 2.78611e-08 0)
(-9.30791e-12 6.03222e-08 0)
(-5.86439e-09 6.86206e-08 0)
(-1.63222e-08 8.17571e-08 0)
(-2.22613e-08 2.07856e-08 0)
(1.02628e-09 6.57584e-09 0)
(4.80151e-10 1.78642e-08 0)
(4.49244e-09 3.09709e-08 0)
(9.22116e-09 4.49772e-08 0)
(9.71216e-09 5.76876e-08 0)
(8.25065e-09 6.30266e-08 0)
(7.82252e-09 6.56535e-08 0)
(6.25063e-09 6.12411e-08 0)
(2.867e-09 4.46435e-08 0)
(9.45327e-11 1.20071e-08 0)
(1.09356e-09 -3.06758e-08 0)
(4.12753e-09 -6.68872e-08 0)
(7.52584e-09 -8.08639e-08 0)
(1.0379e-08 -5.82264e-08 0)
(1.06548e-08 -1.87567e-08 0)
(8.65521e-09 3.23891e-08 0)
(8.89049e-10 6.76412e-08 0)
(-4.72088e-09 7.63628e-08 0)
(-1.49299e-08 9.01326e-08 0)
(-1.97587e-08 2.10083e-08 0)
(9.43114e-10 1.20648e-08 0)
(3.01911e-10 2.28251e-08 0)
(2.91318e-09 3.47016e-08 0)
(5.72602e-09 5.06233e-08 0)
(5.34552e-09 6.32952e-08 0)
(4.40397e-09 7.01725e-08 0)
(4.5494e-09 7.24939e-08 0)
(3.94412e-09 6.75354e-08 0)
(1.57424e-09 5.00256e-08 0)
(1.1901e-09 1.65908e-08 0)
(2.24583e-09 -2.78946e-08 0)
(3.09882e-09 -6.62992e-08 0)
(4.45925e-09 -8.19763e-08 0)
(5.79431e-09 -6.08414e-08 0)
(5.14752e-09 -2.26149e-08 0)
(3.08811e-09 2.86656e-08 0)
(-9.46435e-10 6.54191e-08 0)
(-3.18828e-09 7.59871e-08 0)
(-7.42677e-09 9.27041e-08 0)
(-1.01337e-08 2.29353e-08 0)
(3.55144e-10 1.56839e-08 0)
(-8.12691e-11 2.53353e-08 0)
(1.22403e-09 3.69613e-08 0)
(1.65775e-09 5.35868e-08 0)
(1.73786e-09 6.72421e-08 0)
(1.12834e-09 7.45058e-08 0)
(1.79715e-09 7.70273e-08 0)
(1.56693e-09 7.14061e-08 0)
(1.0156e-09 5.31795e-08 0)
(2.93841e-10 1.78334e-08 0)
(1.98668e-10 -2.93075e-08 0)
(8.79316e-10 -6.96778e-08 0)
(1.56159e-09 -8.59689e-08 0)
(1.67302e-09 -6.38594e-08 0)
(1.18888e-09 -2.36166e-08 0)
(1.14746e-09 3.05703e-08 0)
(5.41769e-10 6.89668e-08 0)
(2.55334e-10 7.95758e-08 0)
(-2.07835e-09 9.57987e-08 0)
(-3.98204e-09 2.27247e-08 0)
(-3.48255e-10 1.56853e-08 0)
(6.98594e-11 2.53324e-08 0)
(-1.24243e-09 3.69567e-08 0)
(-1.67108e-09 5.35845e-08 0)
(-1.74912e-09 6.72406e-08 0)
(-1.14612e-09 7.45067e-08 0)
(-1.818e-09 7.7024e-08 0)
(-1.5911e-09 7.14008e-08 0)
(-1.03809e-09 5.31749e-08 0)
(-3.19731e-10 1.78326e-08 0)
(-2.32886e-10 -2.93027e-08 0)
(-9.16496e-10 -6.96746e-08 0)
(-1.60101e-09 -8.5969e-08 0)
(-1.7057e-09 -6.38604e-08 0)
(-1.21219e-09 -2.3616e-08 0)
(-1.16517e-09 3.05705e-08 0)
(-5.55506e-10 6.8963e-08 0)
(-2.71444e-10 7.95746e-08 0)
(2.08081e-09 9.57912e-08 0)
(4.01379e-09 2.27198e-08 0)
(-9.3958e-10 1.20652e-08 0)
(-3.13467e-10 2.28207e-08 0)
(-2.92901e-09 3.46926e-08 0)
(-5.73789e-09 5.06144e-08 0)
(-5.358e-09 6.32911e-08 0)
(-4.42335e-09 7.01719e-08 0)
(-4.57411e-09 7.24892e-08 0)
(-3.96729e-09 6.75215e-08 0)
(-1.59758e-09 5.0013e-08 0)
(-1.21223e-09 1.65848e-08 0)
(-2.27826e-09 -2.7891e-08 0)
(-3.13982e-09 -6.62927e-08 0)
(-4.49772e-09 -8.19708e-08 0)
(-5.82288e-09 -6.08395e-08 0)
(-5.17266e-09 -2.26092e-08 0)
(-3.10958e-09 2.86758e-08 0)
(9.33295e-10 6.54194e-08 0)
(3.18035e-09 7.59907e-08 0)
(7.43688e-09 9.26659e-08 0)
(1.01645e-08 2.28988e-08 0)
(-1.02142e-09 6.57678e-09 0)
(-4.91687e-10 1.78636e-08 0)
(-4.51034e-09 3.09617e-08 0)
(-9.23653e-09 4.49671e-08 0)
(-9.72757e-09 5.76838e-08 0)
(-8.26857e-09 6.3025e-08 0)
(-7.84963e-09 6.5646e-08 0)
(-6.27742e-09 6.12227e-08 0)
(-2.89235e-09 4.46262e-08 0)
(-1.26546e-10 1.20025e-08 0)
(-1.12794e-09 -3.06688e-08 0)
(-4.16165e-09 -6.68799e-08 0)
(-7.5601e-09 -8.08598e-08 0)
(-1.04052e-08 -5.82278e-08 0)
(-1.06747e-08 -1.87505e-08 0)
(-8.66956e-09 3.24103e-08 0)
(-8.99982e-10 6.76526e-08 0)
(4.70856e-09 7.63818e-08 0)
(1.49346e-08 9.00924e-08 0)
(1.97801e-08 2.09555e-08 0)
(-6.2997e-10 4.76839e-10 0)
(-1.96109e-09 1.24498e-08 0)
(-6.82625e-09 2.60771e-08 0)
(-1.11481e-08 3.72026e-08 0)
(-1.275e-08 3.97391e-08 0)
(-1.30032e-08 4.52912e-08 0)
(-1.03048e-08 5.18174e-08 0)
(-8.29298e-09 5.04076e-08 0)
(-5.08604e-09 3.76285e-08 0)
(-3.54254e-09 1.12176e-08 0)
(-3.95403e-09 -2.44779e-08 0)
(-5.77702e-09 -5.5623e-08 0)
(-7.41468e-09 -6.8739e-08 0)
(-8.60481e-09 -5.06634e-08 0)
(-8.64873e-09 -1.71963e-08 0)
(-7.57935e-09 2.78736e-08 0)
(2.49915e-12 6.0313e-08 0)
(5.85693e-09 6.86178e-08 0)
(1.63273e-08 8.16799e-08 0)
(2.22765e-08 2.07261e-08 0)
(-1.28376e-10 -4.98335e-09 0)
(-2.52227e-09 5.58758e-09 0)
(-1.12267e-08 1.86109e-08 0)
(-1.98978e-08 2.69643e-08 0)
(-2.52733e-08 3.35624e-08 0)
(-9.83158e-09 5.21289e-08 0)
(-5.73286e-09 5.41106e-08 0)
(-4.85381e-09 4.72801e-08 0)
(-2.18482e-10 3.23043e-08 0)
(4.11145e-09 6.85916e-09 0)
(2.18853e-09 -2.66693e-08 0)
(-4.98241e-09 -5.45683e-08 0)
(-1.34149e-08 -6.43696e-08 0)
(-1.92247e-08 -4.45119e-08 0)
(-1.92515e-08 -1.08394e-08 0)
(-1.50926e-08 3.25108e-08 0)
(-8.56586e-10 6.22445e-08 0)
(9.62377e-09 6.76977e-08 0)
(2.6814e-08 7.65686e-08 0)
(3.33457e-08 1.81488e-08 0)
(-5.7928e-10 -9.55219e-09 0)
(-6.99385e-09 2.22074e-09 0)
(-1.00992e-08 1.36514e-08 0)
(-1.54502e-08 1.73964e-08 0)
(1.48253e-09 2.64172e-08 0)
(-5.27629e-09 2.29898e-08 0)
(-2.00563e-08 2.16624e-08 0)
(-1.7822e-08 2.22055e-08 0)
(-9.75544e-09 1.69164e-08 0)
(-5.22378e-09 1.70831e-09 0)
(-4.77012e-09 -2.11482e-08 0)
(-5.53122e-09 -4.14021e-08 0)
(-7.25709e-09 -4.8776e-08 0)
(-9.32288e-09 -3.36109e-08 0)
(-9.86028e-09 -7.59119e-09 0)
(-9.4248e-09 2.69642e-08 0)
(-1.96476e-10 5.14489e-08 0)
(6.69139e-09 5.58263e-08 0)
(2.06773e-08 6.26302e-08 0)
(2.89287e-08 1.52356e-08 0)
(3.6663e-09 -1.37025e-08 0)
(-9.01363e-09 -3.93968e-09 0)
(-1.93936e-08 5.49698e-09 0)
(-2.02892e-08 4.02068e-09 0)
(-3.22358e-08 1.05492e-08 0)
(-3.48745e-08 1.03427e-08 0)
(-1.53919e-08 1.95973e-08 0)
(-1.03001e-09 2.20252e-08 0)
(8.44743e-09 1.57541e-08 0)
(1.3445e-08 1.32928e-09 0)
(9.99413e-09 -1.85461e-08 0)
(-3.22649e-10 -3.53708e-08 0)
(-1.38488e-08 -4.08288e-08 0)
(-2.49757e-08 -2.67166e-08 0)
(-2.65695e-08 -3.75149e-09 0)
(-2.08939e-08 2.51476e-08 0)
(-2.40707e-09 4.49793e-08 0)
(1.04803e-08 4.68339e-08 0)
(3.16524e-08 5.20781e-08 0)
(4.05034e-08 1.34853e-08 0)
(1.65409e-09 -9.37931e-09 0)
(-1.54637e-08 -4.84542e-10 0)
(-2.62615e-08 7.67742e-09 0)
(-2.04856e-08 5.36406e-09 0)
(-9.15803e-09 6.88941e-10 0)
(-6.95954e-09 1.2423e-08 0)
(-9.14758e-09 1.80509e-08 0)
(-1.09092e-08 1.64234e-08 0)
(-6.20156e-09 1.05564e-08 0)
(-1.79027e-09 -6.53302e-11 0)
(-2.51499e-09 -1.38017e-08 0)
(-5.51741e-09 -2.52017e-08 0)
(-9.60095e-09 -2.84614e-08 0)
(-1.36078e-08 -1.76048e-08 0)
(-1.39997e-08 -8.29278e-10 0)
(-1.27518e-08 2.05664e-08 0)
(-1.27595e-09 3.46168e-08 0)
(6.09022e-09 3.5995e-08 0)
(2.27561e-08 3.91658e-08 0)
(3.35286e-08 8.93465e-09 0)
(5.43339e-09 -4.66695e-09 0)
(-1.01953e-08 -1.16376e-10 0)
(-2.83946e-08 4.76225e-09 0)
(-3.30828e-08 8.17627e-09 0)
(-3.13941e-08 1.47358e-09 0)
(-2.24367e-08 4.92459e-10 0)
(-1.4256e-08 -2.09165e-09 0)
(-4.70479e-09 -2.13906e-09 0)
(5.7598e-09 -1.85795e-09 0)
(1.29275e-08 -3.29434e-09 0)
(1.11171e-08 -6.94188e-09 0)
(1.97742e-09 -1.10473e-08 0)
(-1.10522e-08 -1.28601e-08 0)
(-2.43015e-08 -8.57852e-09 0)
(-2.91395e-08 -1.0871e-09 0)
(-2.51714e-08 8.87954e-09 0)
(-5.67833e-09 1.67031e-08 0)
(9.42946e-09 1.69293e-08 0)
(3.24491e-08 1.83769e-08 0)
(4.13148e-08 5.27544e-09 0)
(2.6524e-09 -3.06712e-09 0)
(-2.01267e-08 -5.33839e-09 0)
(-2.33625e-08 -4.31614e-09 0)
(-2.12719e-08 -1.83982e-10 0)
(-1.87563e-08 6.35804e-09 0)
(-1.77556e-08 1.18755e-08 0)
(-1.83951e-08 1.1365e-08 0)
(-1.08372e-08 7.29769e-09 0)
(-1.57174e-10 2.67129e-09 0)
(6.77684e-09 -3.01616e-09 0)
(5.09944e-09 -9.80077e-09 0)
(-1.61159e-09 -1.44347e-08 0)
(-1.0644e-08 -1.38396e-08 0)
(-1.99598e-08 -6.49644e-09 0)
(-2.24528e-08 1.55244e-09 0)
(-1.92982e-08 9.26192e-09 0)
(-2.75924e-09 1.23216e-08 0)
(7.98562e-09 1.08395e-08 0)
(2.63032e-08 1.32679e-08 0)
(3.70336e-08 3.63492e-09 0)
)
;

boundaryField
{
    sides
    {
        type            calculated;
        value           nonuniform List<vector> 
40
(
(2.6524e-09 0 0)
(-2.01267e-08 0 0)
(-2.33625e-08 0 0)
(-2.12719e-08 0 0)
(-1.87563e-08 0 0)
(-1.77556e-08 0 0)
(-1.83951e-08 0 0)
(-1.08372e-08 0 0)
(-1.57174e-10 0 0)
(6.77684e-09 0 0)
(5.09944e-09 0 0)
(-1.61159e-09 0 0)
(-1.0644e-08 0 0)
(-1.99598e-08 0 0)
(-2.24528e-08 0 0)
(-1.92982e-08 0 0)
(-2.75924e-09 0 0)
(7.98562e-09 0 0)
(2.63032e-08 0 0)
(3.70336e-08 0 0)
(-2.66553e-09 0 0)
(2.01288e-08 0 0)
(2.3352e-08 0 0)
(2.12263e-08 0 0)
(1.87221e-08 0 0)
(1.77101e-08 0 0)
(1.83381e-08 0 0)
(1.08037e-08 0 0)
(1.31012e-10 0 0)
(-6.79931e-09 0 0)
(-5.11249e-09 0 0)
(1.6063e-09 0 0)
(1.06372e-08 0 0)
(1.9959e-08 0 0)
(2.24465e-08 0 0)
(1.93018e-08 0 0)
(2.76563e-09 0 0)
(-7.98802e-09 0 0)
(-2.62985e-08 0 0)
(-3.70743e-08 0 0)
)
;
    }
    inlet
    {
        type            calculated;
        value           uniform (0 0 0);
    }
    outlet
    {
        type            calculated;
        value           nonuniform List<vector> 
20
(
(-3.70743e-08 3.64323e-09 0)
(-4.13839e-08 5.31565e-09 0)
(-3.35533e-08 8.97445e-09 0)
(-4.05363e-08 1.35571e-08 0)
(-2.8934e-08 1.52944e-08 0)
(-3.33473e-08 1.8231e-08 0)
(-2.22613e-08 2.07856e-08 0)
(-1.97587e-08 2.10083e-08 0)
(-1.01337e-08 2.29353e-08 0)
(-3.98204e-09 2.27247e-08 0)
(4.01379e-09 2.27198e-08 0)
(1.01645e-08 2.28988e-08 0)
(1.97801e-08 2.09555e-08 0)
(2.22765e-08 2.07261e-08 0)
(3.33457e-08 1.81488e-08 0)
(2.89287e-08 1.52356e-08 0)
(4.05034e-08 1.34853e-08 0)
(3.35286e-08 8.93465e-09 0)
(4.13148e-08 5.27544e-09 0)
(3.70336e-08 3.63492e-09 0)
)
;
    }
    frontAndBack
    {
        type            empty;
    }
}


// ************************************************************************* //
