/*--------------------------------*- C++ -*----------------------------------*\
  =========                 |
  \\      /  F ield         | OpenFOAM: The Open Source CFD Toolbox
   \\    /   O peration     | Website:  https://openfoam.org
    \\  /    A nd           | Version:  7
     \\/     M anipulation  |
\*---------------------------------------------------------------------------*/
FoamFile
{
    version     2.0;
    format      ascii;
    class       volVectorField;
    location    "16";
    object      hU_0;
}
// * * * * * * * * * * * * * * * * * * * * * * * * * * * * * * * * * * * * * //

dimensions      [0 2 -1 0 0 0 0];

internalField   nonuniform List<vector> 
400
(
(0.001 -7.55379e-09 0)
(0.001 -2.10209e-08 0)
(0.000999993 -3.18992e-08 0)
(0.000999988 -4.1448e-08 0)
(0.000999991 -5.1515e-08 0)
(0.001 -6.40025e-08 0)
(0.00100001 -7.89148e-08 0)
(0.00100002 -9.48044e-08 0)
(0.00100004 -1.08676e-07 0)
(0.00100007 -1.21324e-07 0)
(0.00100009 -1.28892e-07 0)
(0.00100012 -1.36031e-07 0)
(0.00100014 -1.38549e-07 0)
(0.00100017 -1.49872e-07 0)
(0.00100019 -1.57746e-07 0)
(0.00100024 -1.83884e-07 0)
(0.00100025 -1.95743e-07 0)
(0.00100037 -2.41603e-07 0)
(0.00100037 -2.4559e-07 0)
(0.00100061 -3.41831e-07 0)
(0.001 9.31541e-09 0)
(0.00100001 2.46753e-08 0)
(0.00100001 3.42021e-08 0)
(0.001 4.0113e-08 0)
(0.001 4.43148e-08 0)
(0.00100001 4.77654e-08 0)
(0.00100002 5.12414e-08 0)
(0.00100003 5.31396e-08 0)
(0.00100005 5.48579e-08 0)
(0.00100008 5.60603e-08 0)
(0.00100011 6.07969e-08 0)
(0.00100014 6.60828e-08 0)
(0.00100016 7.72544e-08 0)
(0.00100019 8.22117e-08 0)
(0.0010002 9.02275e-08 0)
(0.00100023 7.86646e-08 0)
(0.00100025 7.61931e-08 0)
(0.00100034 3.4422e-08 0)
(0.00100036 3.11889e-08 0)
(0.00100052 -6.94867e-08 0)
(0.001 3.65184e-09 0)
(0.001 5.36478e-09 0)
(0.00099999 -2.4659e-09 0)
(0.000999983 -1.37313e-08 0)
(0.000999986 -2.5698e-08 0)
(0.000999997 -4.2028e-08 0)
(0.00100001 -6.24157e-08 0)
(0.00100002 -8.41259e-08 0)
(0.00100003 -1.03691e-07 0)
(0.00100005 -1.21193e-07 0)
(0.00100008 -1.30079e-07 0)
(0.0010001 -1.35863e-07 0)
(0.00100012 -1.33056e-07 0)
(0.00100015 -1.41106e-07 0)
(0.00100017 -1.49794e-07 0)
(0.00100021 -1.86742e-07 0)
(0.00100023 -2.18954e-07 0)
(0.0010003 -2.9332e-07 0)
(0.00100032 -3.26899e-07 0)
(0.00100047 -4.53385e-07 0)
(0.001 9.27101e-09 0)
(0.00100001 2.27405e-08 0)
(0.001 2.69914e-08 0)
(0.001 2.80629e-08 0)
(0.001 2.64693e-08 0)
(0.001 2.06947e-08 0)
(0.00100001 9.73774e-09 0)
(0.00100002 -5.07533e-09 0)
(0.00100004 -1.80427e-08 0)
(0.00100007 -2.83593e-08 0)
(0.0010001 -2.79644e-08 0)
(0.00100012 -2.24233e-08 0)
(0.00100014 -7.003e-09 0)
(0.00100016 -3.68751e-09 0)
(0.00100017 -4.89635e-09 0)
(0.00100019 -3.76423e-08 0)
(0.00100021 -7.16062e-08 0)
(0.00100027 -1.47341e-07 0)
(0.00100029 -1.85928e-07 0)
(0.0010004 -3.16454e-07 0)
(0.001 8.45377e-09 0)
(0.001 1.82305e-08 0)
(0.000999995 1.62065e-08 0)
(0.00099999 7.6439e-09 0)
(0.000999992 -4.78714e-09 0)
(0.001 -2.29411e-08 0)
(0.00100001 -4.36836e-08 0)
(0.00100002 -6.80591e-08 0)
(0.00100003 -9.18956e-08 0)
(0.00100005 -1.13624e-07 0)
(0.00100006 -1.23817e-07 0)
(0.00100008 -1.27277e-07 0)
(0.0010001 -1.1915e-07 0)
(0.00100013 -1.23584e-07 0)
(0.00100014 -1.34027e-07 0)
(0.00100017 -1.78272e-07 0)
(0.00100018 -2.27218e-07 0)
(0.00100023 -3.1767e-07 0)
(0.00100024 -3.72593e-07 0)
(0.00100034 -5.14046e-07 0)
(0.001 8.30867e-09 0)
(0.001 1.98008e-08 0)
(0.000999999 2.30051e-08 0)
(0.000999996 2.04846e-08 0)
(0.000999995 1.33674e-08 0)
(0.000999998 -2.36904e-09 0)
(0.00100001 -2.48849e-08 0)
(0.00100002 -5.04535e-08 0)
(0.00100003 -7.32776e-08 0)
(0.00100005 -9.15678e-08 0)
(0.00100007 -9.48047e-08 0)
(0.00100009 -8.89419e-08 0)
(0.0010001 -7.09021e-08 0)
(0.00100011 -6.77319e-08 0)
(0.00100012 -7.54609e-08 0)
(0.00100014 -1.20367e-07 0)
(0.00100015 -1.7609e-07 0)
(0.00100019 -2.70082e-07 0)
(0.0010002 -3.33487e-07 0)
(0.00100027 -4.75927e-07 0)
(0.001 7.89309e-09 0)
(0.001 1.88479e-08 0)
(0.000999999 2.21164e-08 0)
(0.000999995 1.78642e-08 0)
(0.000999996 6.36761e-09 0)
(0.001 -1.05051e-08 0)
(0.00100001 -3.3461e-08 0)
(0.00100001 -6.19017e-08 0)
(0.00100002 -8.98659e-08 0)
(0.00100004 -1.14529e-07 0)
(0.00100005 -1.24621e-07 0)
(0.00100006 -1.25118e-07 0)
(0.00100007 -1.12198e-07 0)
(0.00100009 -1.13409e-07 0)
(0.0010001 -1.25199e-07 0)
(0.00100011 -1.74415e-07 0)
(0.00100012 -2.35764e-07 0)
(0.00100015 -3.36109e-07 0)
(0.00100016 -4.06794e-07 0)
(0.00100021 -5.57306e-07 0)
(0.001 7.15414e-09 0)
(0.001 1.6997e-08 0)
(0.000999999 2.16148e-08 0)
(0.000999997 1.87482e-08 0)
(0.000999997 8.18143e-09 0)
(0.001 -1.08975e-08 0)
(0.001 -3.63613e-08 0)
(0.00100001 -6.70074e-08 0)
(0.00100002 -9.63861e-08 0)
(0.00100003 -1.20766e-07 0)
(0.00100004 -1.27761e-07 0)
(0.00100005 -1.22996e-07 0)
(0.00100006 -1.04251e-07 0)
(0.00100007 -1.01613e-07 0)
(0.00100007 -1.13389e-07 0)
(0.00100008 -1.65031e-07 0)
(0.00100008 -2.33107e-07 0)
(0.0010001 -3.37032e-07 0)
(0.00100011 -4.15145e-07 0)
(0.00100015 -5.64867e-07 0)
(0.001 6.51218e-09 0)
(0.001 1.56243e-08 0)
(0.000999999 2.12994e-08 0)
(0.000999998 1.90697e-08 0)
(0.000999998 7.8539e-09 0)
(0.001 -1.18024e-08 0)
(0.001 -3.76474e-08 0)
(0.00100001 -6.86485e-08 0)
(0.00100001 -9.87042e-08 0)
(0.00100002 -1.24341e-07 0)
(0.00100002 -1.3317e-07 0)
(0.00100003 -1.30582e-07 0)
(0.00100003 -1.1381e-07 0)
(0.00100004 -1.12726e-07 0)
(0.00100004 -1.25451e-07 0)
(0.00100005 -1.77906e-07 0)
(0.00100005 -2.47188e-07 0)
(0.00100006 -3.5317e-07 0)
(0.00100007 -4.33708e-07 0)
(0.00100009 -5.87965e-07 0)
(0.001 6.17822e-09 0)
(0.001 1.4832e-08 0)
(0.001 2.10737e-08 0)
(0.000999999 1.92982e-08 0)
(0.000999999 8.02892e-09 0)
(0.001 -1.17613e-08 0)
(0.001 -3.8085e-08 0)
(0.001 -7.00763e-08 0)
(0.001 -1.01458e-07 0)
(0.00100001 -1.28114e-07 0)
(0.00100001 -1.36867e-07 0)
(0.00100001 -1.33046e-07 0)
(0.00100001 -1.14574e-07 0)
(0.00100001 -1.12355e-07 0)
(0.00100001 -1.25344e-07 0)
(0.00100002 -1.79044e-07 0)
(0.00100002 -2.51317e-07 0)
(0.00100002 -3.59064e-07 0)
(0.00100002 -4.42732e-07 0)
(0.00100003 -5.96454e-07 0)
(0.001 6.17755e-09 0)
(0.001 1.48305e-08 0)
(0.001 2.10722e-08 0)
(0.001 1.92978e-08 0)
(0.001 8.02886e-09 0)
(0.001 -1.1762e-08 0)
(0.000999999 -3.80864e-08 0)
(0.000999998 -7.00761e-08 0)
(0.000999997 -1.01456e-07 0)
(0.000999995 -1.28112e-07 0)
(0.000999993 -1.36868e-07 0)
(0.00099999 -1.33049e-07 0)
(0.000999988 -1.14578e-07 0)
(0.000999986 -1.12358e-07 0)
(0.000999985 -1.25344e-07 0)
(0.000999983 -1.79044e-07 0)
(0.000999982 -2.51313e-07 0)
(0.000999979 -3.59058e-07 0)
(0.000999979 -4.42726e-07 0)
(0.00099997 -5.96439e-07 0)
(0.001 6.51013e-09 0)
(0.001 1.56195e-08 0)
(0.001 2.12954e-08 0)
(0.001 1.90687e-08 0)
(0.001 7.85424e-09 0)
(0.001 -1.18035e-08 0)
(0.000999998 -3.7651e-08 0)
(0.000999995 -6.86505e-08 0)
(0.00099999 -9.87038e-08 0)
(0.000999983 -1.24338e-07 0)
(0.000999977 -1.3317e-07 0)
(0.000999971 -1.30584e-07 0)
(0.000999966 -1.13813e-07 0)
(0.000999961 -1.12724e-07 0)
(0.000999958 -1.25446e-07 0)
(0.000999952 -1.779e-07 0)
(0.000999948 -2.47183e-07 0)
(0.000999935 -3.53153e-07 0)
(0.000999932 -4.33695e-07 0)
(0.000999909 -5.87884e-07 0)
(0.000999999 7.1506e-09 0)
(0.001 1.69896e-08 0)
(0.001 2.16092e-08 0)
(0.001 1.87473e-08 0)
(0.001 8.18242e-09 0)
(0.001 -1.0898e-08 0)
(0.000999997 -3.63641e-08 0)
(0.000999992 -6.70087e-08 0)
(0.000999985 -9.63851e-08 0)
(0.000999974 -1.20766e-07 0)
(0.000999962 -1.27769e-07 0)
(0.000999951 -1.2301e-07 0)
(0.000999942 -1.04265e-07 0)
(0.000999934 -1.01621e-07 0)
(0.000999929 -1.1339e-07 0)
(0.000999921 -1.65038e-07 0)
(0.000999915 -2.33123e-07 0)
(0.000999895 -3.37047e-07 0)
(0.000999889 -4.15179e-07 0)
(0.000999849 -5.64829e-07 0)
(0.000999999 7.88861e-09 0)
(0.001 1.88371e-08 0)
(0.001 2.21082e-08 0)
(0.001 1.78632e-08 0)
(0.001 6.36965e-09 0)
(0.000999999 -1.05049e-08 0)
(0.000999994 -3.34628e-08 0)
(0.000999987 -6.1898e-08 0)
(0.000999978 -8.98557e-08 0)
(0.000999965 -1.14513e-07 0)
(0.000999952 -1.24615e-07 0)
(0.000999938 -1.25117e-07 0)
(0.000999927 -1.12203e-07 0)
(0.000999913 -1.13405e-07 0)
(0.000999904 -1.25186e-07 0)
(0.000999888 -1.74393e-07 0)
(0.00099988 -2.35735e-07 0)
(0.000999849 -3.36045e-07 0)
(0.000999844 -4.06732e-07 0)
(0.000999788 -5.57106e-07 0)
(0.000999999 8.30333e-09 0)
(0.000999999 1.97889e-08 0)
(0.001 2.29961e-08 0)
(0.001 2.0481e-08 0)
(0.001 1.33651e-08 0)
(0.001 -2.37581e-09 0)
(0.000999994 -2.48969e-08 0)
(0.000999985 -5.04637e-08 0)
(0.000999971 -7.32847e-08 0)
(0.000999951 -9.15742e-08 0)
(0.000999931 -9.48203e-08 0)
(0.000999912 -8.89624e-08 0)
(0.000999898 -7.09206e-08 0)
(0.000999885 -6.77423e-08 0)
(0.000999878 -7.5462e-08 0)
(0.000999862 -1.20378e-07 0)
(0.000999851 -1.76118e-07 0)
(0.000999813 -2.70107e-07 0)
(0.000999799 -3.33547e-07 0)
(0.000999725 -4.75879e-07 0)
(0.000999998 8.44787e-09 0)
(0.001 1.82198e-08 0)
(0.00100001 1.62005e-08 0)
(0.00100001 7.64547e-09 0)
(0.00100001 -4.78176e-09 0)
(0.000999997 -2.29348e-08 0)
(0.00099999 -4.36783e-08 0)
(0.000999982 -6.80482e-08 0)
(0.000999971 -9.18803e-08 0)
(0.000999953 -1.13605e-07 0)
(0.000999936 -1.23812e-07 0)
(0.000999916 -1.2728e-07 0)
(0.000999898 -1.19165e-07 0)
(0.000999875 -1.23586e-07 0)
(0.00099986 -1.34025e-07 0)
(0.000999832 -1.78254e-07 0)
(0.000999819 -2.27202e-07 0)
(0.000999768 -3.17601e-07 0)
(0.00099976 -3.72536e-07 0)
(0.000999664 -5.13816e-07 0)
(0.000999998 9.26546e-09 0)
(0.000999994 2.27296e-08 0)
(0.000999996 2.69834e-08 0)
(0.000999998 2.80599e-08 0)
(0.000999998 2.64663e-08 0)
(0.000999996 2.06877e-08 0)
(0.00099999 9.72563e-09 0)
(0.000999977 -5.08442e-09 0)
(0.000999958 -1.80483e-08 0)
(0.000999931 -2.83622e-08 0)
(0.000999903 -2.79741e-08 0)
(0.000999878 -2.24336e-08 0)
(0.000999859 -7.01076e-09 0)
(0.000999841 -3.68597e-09 0)
(0.000999831 -4.8891e-09 0)
(0.000999806 -3.76383e-08 0)
(0.00099979 -7.1617e-08 0)
(0.000999731 -1.47329e-07 0)
(0.00099971 -1.85944e-07 0)
(0.000999601 -3.16353e-07 0)
(0.000999998 3.64812e-09 0)
(0.001 5.35849e-09 0)
(0.00100001 -2.46988e-09 0)
(0.00100002 -1.37299e-08 0)
(0.00100001 -2.56952e-08 0)
(0.001 -4.20256e-08 0)
(0.000999992 -6.2415e-08 0)
(0.000999981 -8.41222e-08 0)
(0.000999967 -1.03689e-07 0)
(0.000999945 -1.21191e-07 0)
(0.000999924 -1.30094e-07 0)
(0.000999898 -1.35884e-07 0)
(0.000999878 -1.33091e-07 0)
(0.000999849 -1.41126e-07 0)
(0.000999831 -1.49816e-07 0)
(0.000999791 -1.86745e-07 0)
(0.000999774 -2.18981e-07 0)
(0.000999696 -2.93297e-07 0)
(0.000999685 -3.26922e-07 0)
(0.000999535 -4.5327e-07 0)
(0.000999997 9.31209e-09 0)
(0.000999991 2.46697e-08 0)
(0.000999993 3.41984e-08 0)
(0.000999996 4.01117e-08 0)
(0.000999995 4.43139e-08 0)
(0.00099999 4.77624e-08 0)
(0.000999983 5.12358e-08 0)
(0.00099997 5.3139e-08 0)
(0.00099995 5.48623e-08 0)
(0.000999921 5.60728e-08 0)
(0.000999892 6.08087e-08 0)
(0.000999863 6.61023e-08 0)
(0.000999841 7.72707e-08 0)
(0.000999815 8.22359e-08 0)
(0.000999802 9.02393e-08 0)
(0.000999766 7.86843e-08 0)
(0.000999747 7.61961e-08 0)
(0.000999664 3.44759e-08 0)
(0.00099964 3.12338e-08 0)
(0.000999482 -6.93147e-08 0)
(0.000999997 -7.55363e-09 0)
(0.000999998 -2.10203e-08 0)
(0.00100001 -3.19005e-08 0)
(0.00100001 -4.14537e-08 0)
(0.00100001 -5.15255e-08 0)
(0.001 -6.40177e-08 0)
(0.000999991 -7.8937e-08 0)
(0.000999978 -9.483e-08 0)
(0.000999961 -1.08708e-07 0)
(0.000999934 -1.21363e-07 0)
(0.000999909 -1.28942e-07 0)
(0.000999879 -1.36086e-07 0)
(0.000999859 -1.38605e-07 0)
(0.000999825 -1.49924e-07 0)
(0.000999814 -1.57796e-07 0)
(0.00099976 -1.83934e-07 0)
(0.000999751 -1.95811e-07 0)
(0.000999632 -2.4167e-07 0)
(0.00099963 -2.45693e-07 0)
(0.000999386 -3.4198e-07 0)
)
;

boundaryField
{
    sides
    {
        type            slip;
    }
    inlet
    {
        type            fixedValue;
        value           uniform (0.001 0 0);
    }
    outlet
    {
        type            zeroGradient;
    }
    frontAndBack
    {
        type            empty;
    }
}


// ************************************************************************* //
