/*--------------------------------*- C++ -*----------------------------------*\
  =========                 |
  \\      /  F ield         | OpenFOAM: The Open Source CFD Toolbox
   \\    /   O peration     | Website:  https://openfoam.org
    \\  /    A nd           | Version:  7
     \\/     M anipulation  |
\*---------------------------------------------------------------------------*/
FoamFile
{
    version     2.0;
    format      ascii;
    class       surfaceScalarField;
    location    "16";
    object      phi;
}
// * * * * * * * * * * * * * * * * * * * * * * * * * * * * * * * * * * * * * //

dimensions      [0 4 -1 0 0 0 0];

internalField   nonuniform List<scalar> 
760
(
4.99999e-06
2.58246e-11
4.99997e-06
3.79342e-11
4.99997e-06
3.52518e-11
4.99997e-06
2.44593e-11
4.99999e-06
1.19486e-11
5.00002e-06
-8.47123e-12
5.00008e-06
-3.46785e-11
5.00016e-06
-6.06049e-11
5.00026e-06
-8.52499e-11
5.00039e-06
-1.09498e-10
5.00052e-06
-1.17669e-10
5.00066e-06
-1.23816e-10
5.00078e-06
-1.07321e-10
5.00092e-06
-1.18201e-10
5.00104e-06
-1.14876e-10
5.00124e-06
-1.89777e-10
5.00147e-06
-2.18815e-10
5.00189e-06
-4.15324e-10
5.00233e-06
-4.39547e-10
-9.4819e-10
5.00002e-06
1.5541e-11
5.00004e-06
4.97398e-11
5.00004e-06
5.27652e-11
5.00005e-06
4.03296e-11
5.00005e-06
2.43307e-11
5.00007e-06
-4.86935e-12
5.00012e-06
-6.08704e-11
5.0002e-06
-1.24324e-10
5.00032e-06
-1.79124e-10
5.00046e-06
-2.29234e-10
5.0006e-06
-2.44347e-10
5.00074e-06
-2.47928e-10
5.00086e-06
-2.07458e-10
5.00097e-06
-2.12286e-10
5.00108e-06
-2.08106e-10
5.00124e-06
-3.37561e-10
5.00145e-06
-4.27305e-10
5.00178e-06
-7.38414e-10
5.00217e-06
-8.26272e-10
-1.37807e-09
4.99999e-06
3.71989e-11
4.99996e-06
8.78515e-11
4.99994e-06
8.9788e-11
4.99993e-06
6.36024e-11
4.99996e-06
1.91943e-11
5.00001e-06
-2.78691e-11
5.00007e-06
-8.66074e-11
5.00014e-06
-1.63485e-10
5.00022e-06
-2.38167e-10
5.00033e-06
-3.07767e-10
5.00044e-06
-3.37051e-10
5.00056e-06
-3.47527e-10
5.00068e-06
-3.11245e-10
5.00081e-06
-3.18329e-10
5.00094e-06
-3.32504e-10
5.0011e-06
-4.83173e-10
5.00131e-06
-6.30562e-10
5.00156e-06
-9.89482e-10
5.0019e-06
-1.16492e-09
-1.85668e-09
5.00001e-06
3.25238e-11
5.00002e-06
8.74125e-11
5.00003e-06
9.262e-11
5.00003e-06
7.18556e-11
5.00003e-06
4.65672e-11
5.00004e-06
-1.23912e-11
5.00008e-06
-1.12067e-10
5.00016e-06
-2.20543e-10
5.00027e-06
-3.21245e-10
5.00041e-06
-4.12222e-10
5.00054e-06
-4.46311e-10
5.00066e-06
-4.46832e-10
5.00076e-06
-3.84902e-10
5.00083e-06
-3.80141e-10
5.00091e-06
-3.99188e-10
5.00102e-06
-5.86209e-10
5.00119e-06
-7.90841e-10
5.00142e-06
-1.21749e-09
5.00171e-06
-1.4518e-09
-2.12071e-09
4.99999e-06
3.89398e-11
4.99998e-06
1.01687e-10
4.99997e-06
1.15958e-10
4.99996e-06
9.52613e-11
4.99999e-06
4.35077e-11
5.00004e-06
-2.81112e-11
5.00007e-06
-1.22092e-10
5.00013e-06
-2.43119e-10
5.00019e-06
-3.60632e-10
5.00028e-06
-4.66695e-10
5.00037e-06
-5.13546e-10
5.00047e-06
-5.2218e-10
5.00057e-06
-4.66774e-10
5.00067e-06
-4.63102e-10
5.00077e-06
-4.92849e-10
5.00088e-06
-6.8971e-10
5.00102e-06
-9.30419e-10
5.00119e-06
-1.37938e-09
5.0014e-06
-1.66409e-09
-2.42515e-09
4.99999e-06
4.02045e-11
4.99999e-06
1.00324e-10
4.99999e-06
1.18896e-10
5e-06
1.02714e-10
4.99999e-06
5.8533e-11
5.00001e-06
-2.36962e-11
5.00005e-06
-1.36439e-10
5.00011e-06
-2.73904e-10
5.00019e-06
-4.10981e-10
5.00029e-06
-5.35164e-10
5.00039e-06
-5.87874e-10
5.00048e-06
-5.89695e-10
5.00055e-06
-5.17084e-10
5.0006e-06
-5.04202e-10
5.00066e-06
-5.38446e-10
5.00073e-06
-7.56413e-10
5.00084e-06
-1.03699e-09
5.00098e-06
-1.52506e-09
5.00117e-06
-1.85868e-09
-2.60005e-09
4.99999e-06
3.92231e-11
4.99999e-06
9.59729e-11
4.99999e-06
1.2256e-10
4.99999e-06
1.13467e-10
5e-06
6.54369e-11
5.00002e-06
-2.451e-11
5.00005e-06
-1.45131e-10
5.00009e-06
-2.9306e-10
5.00015e-06
-4.39375e-10
5.00021e-06
-5.71943e-10
5.00027e-06
-6.31033e-10
5.00034e-06
-6.36073e-10
5.0004e-06
-5.64957e-10
5.00046e-06
-5.52165e-10
5.00052e-06
-5.92875e-10
5.00059e-06
-8.19074e-10
5.00067e-06
-1.12266e-09
5.00077e-06
-1.62481e-09
5.00089e-06
-1.98369e-09
-2.77649e-09
4.99999e-06
3.8351e-11
4.99999e-06
9.17156e-11
4.99999e-06
1.24444e-10
4.99999e-06
1.18107e-10
5e-06
6.88953e-11
5.00001e-06
-2.34003e-11
5.00003e-06
-1.49292e-10
5.00006e-06
-3.04577e-10
5.00011e-06
-4.62553e-10
5.00016e-06
-6.06214e-10
5.00022e-06
-6.70314e-10
5.00027e-06
-6.73766e-10
5.00031e-06
-5.9524e-10
5.00035e-06
-5.7726e-10
5.00038e-06
-6.19936e-10
5.00042e-06
-8.54784e-10
5.00047e-06
-1.17894e-09
5.00054e-06
-1.69908e-09
5.00065e-06
-2.08865e-09
-2.87714e-09
4.99999e-06
3.86474e-11
4.99999e-06
8.81996e-11
4.99999e-06
1.24396e-10
4.99999e-06
1.21487e-10
5e-06
7.20997e-11
5.00001e-06
-2.27845e-11
5.00002e-06
-1.52115e-10
5.00004e-06
-3.12454e-10
5.00007e-06
-4.75749e-10
5.0001e-06
-6.2329e-10
5.00013e-06
-6.89156e-10
5.00016e-06
-6.91918e-10
5.00018e-06
-6.11863e-10
5.0002e-06
-5.93684e-10
5.00023e-06
-6.39751e-10
5.00025e-06
-8.8029e-10
5.00029e-06
-1.21581e-09
5.00033e-06
-1.74448e-09
5.00039e-06
-2.1434e-09
-2.94585e-09
5e-06
3.88786e-11
5e-06
8.69077e-11
5e-06
1.24667e-10
5e-06
1.23313e-10
5e-06
7.30593e-11
5e-06
-2.29195e-11
5.00001e-06
-1.53589e-10
5.00001e-06
-3.14984e-10
5.00002e-06
-4.7945e-10
5.00003e-06
-6.28818e-10
5.00004e-06
-6.96127e-10
5.00005e-06
-6.99799e-10
5.00006e-06
-6.19741e-10
5.00007e-06
-6.01014e-10
5.00008e-06
-6.46658e-10
5.00009e-06
-8.86497e-10
5.0001e-06
-1.22472e-09
5.00011e-06
-1.75517e-09
5.00012e-06
-2.16274e-09
-2.96862e-09
5e-06
3.86417e-11
5e-06
8.81815e-11
5e-06
1.24381e-10
5e-06
1.2148e-10
5e-06
7.20987e-11
5e-06
-2.27874e-11
4.99999e-06
-1.52126e-10
4.99999e-06
-3.12459e-10
4.99998e-06
-4.75751e-10
4.99997e-06
-6.23284e-10
4.99996e-06
-6.89161e-10
4.99995e-06
-6.91931e-10
4.99994e-06
-6.1188e-10
4.99993e-06
-5.93686e-10
4.99992e-06
-6.39736e-10
4.99991e-06
-8.80278e-10
4.9999e-06
-1.2158e-09
4.99989e-06
-1.74446e-09
4.99988e-06
-2.14342e-09
-2.94565e-09
5.00001e-06
3.8337e-11
5.00001e-06
9.16836e-11
5.00001e-06
1.24415e-10
5.00001e-06
1.18096e-10
5e-06
6.8894e-11
4.99999e-06
-2.34101e-11
4.99998e-06
-1.49312e-10
4.99996e-06
-3.04591e-10
4.99993e-06
-4.62548e-10
4.9999e-06
-6.06195e-10
4.99987e-06
-6.70319e-10
4.99984e-06
-6.7379e-10
4.99982e-06
-5.95274e-10
4.9998e-06
-5.77275e-10
4.99977e-06
-6.19919e-10
4.99975e-06
-8.54763e-10
4.99971e-06
-1.17893e-09
4.99967e-06
-1.69901e-09
4.99961e-06
-2.08865e-09
-2.87681e-09
5.00001e-06
3.92063e-11
5.00001e-06
9.59335e-11
5.00001e-06
1.22523e-10
5.00001e-06
1.13455e-10
5e-06
6.54415e-11
4.99999e-06
-2.45157e-11
4.99997e-06
-1.45157e-10
4.99994e-06
-2.93077e-10
4.99989e-06
-4.39375e-10
4.99984e-06
-5.71925e-10
4.99978e-06
-6.31047e-10
4.99973e-06
-6.3611e-10
4.99969e-06
-5.65005e-10
4.99965e-06
-5.52178e-10
4.99962e-06
-5.92846e-10
4.99958e-06
-8.19041e-10
4.99953e-06
-1.12265e-09
4.99946e-06
-1.62473e-09
4.99936e-06
-1.98372e-09
-2.77597e-09
5.00001e-06
4.01837e-11
5.00001e-06
1.00278e-10
5.00001e-06
1.18852e-10
5.00001e-06
1.02702e-10
5e-06
5.85403e-11
4.99998e-06
-2.37039e-11
4.99995e-06
-1.36461e-10
4.99991e-06
-2.73913e-10
4.99985e-06
-4.10966e-10
4.99979e-06
-5.35129e-10
4.99972e-06
-5.87879e-10
4.99966e-06
-5.8973e-10
4.9996e-06
-5.17134e-10
4.99954e-06
-5.0421e-10
4.99948e-06
-5.38404e-10
4.99941e-06
-7.56365e-10
4.99933e-06
-1.03698e-09
4.99923e-06
-1.52494e-09
4.99911e-06
-1.85868e-09
-2.59945e-09
5.00001e-06
3.89225e-11
5.00001e-06
1.01632e-10
5.00001e-06
1.15916e-10
5e-06
9.52526e-11
5.00001e-06
4.35168e-11
4.99999e-06
-2.81136e-11
4.99995e-06
-1.22118e-10
4.99989e-06
-2.43137e-10
4.99981e-06
-3.60633e-10
4.99971e-06
-4.66673e-10
4.99961e-06
-5.13567e-10
4.99952e-06
-5.22228e-10
4.99945e-06
-4.66848e-10
4.9994e-06
-4.6313e-10
4.99934e-06
-4.92836e-10
4.99927e-06
-6.89672e-10
4.99916e-06
-9.30433e-10
4.99902e-06
-1.37925e-09
4.99883e-06
-1.66411e-09
-2.42448e-09
5.00001e-06
3.25033e-11
5.00002e-06
8.73702e-11
5.00003e-06
9.25899e-11
5.00004e-06
7.18556e-11
5.00001e-06
4.65798e-11
4.99996e-06
-1.23897e-11
4.99993e-06
-1.12085e-10
4.99987e-06
-2.2054e-10
4.99981e-06
-3.21222e-10
4.99972e-06
-4.12174e-10
4.99963e-06
-4.46312e-10
4.99953e-06
-4.46855e-10
4.99943e-06
-3.84954e-10
4.99933e-06
-3.80139e-10
4.99923e-06
-3.99159e-10
4.99912e-06
-5.86152e-10
4.99897e-06
-7.90853e-10
4.99881e-06
-1.21733e-09
4.9986e-06
-1.45178e-09
-2.11995e-09
4.99999e-06
3.71764e-11
4.99998e-06
8.78061e-11
4.99997e-06
8.97515e-11
4.99997e-06
6.35929e-11
4.99997e-06
1.91924e-11
4.99996e-06
-2.78769e-11
4.99992e-06
-8.66353e-11
4.99984e-06
-1.63506e-10
4.99973e-06
-2.38183e-10
4.99959e-06
-3.07769e-10
4.99946e-06
-3.37099e-10
4.99934e-06
-3.4759e-10
4.99924e-06
-3.11335e-10
4.99917e-06
-3.18367e-10
4.99909e-06
-3.32529e-10
4.99898e-06
-4.83142e-10
4.99881e-06
-6.30621e-10
4.99858e-06
-9.89339e-10
4.99829e-06
-1.16498e-09
-1.85611e-09
5.00001e-06
1.55387e-11
5.00004e-06
4.97177e-11
5.00006e-06
5.27521e-11
5.00007e-06
4.03282e-11
5.00004e-06
2.43325e-11
4.99999e-06
-4.86481e-12
4.99993e-06
-6.08836e-11
4.99986e-06
-1.24316e-10
4.99978e-06
-1.79109e-10
4.99967e-06
-2.29192e-10
4.99956e-06
-2.4435e-10
4.99944e-06
-2.47923e-10
4.99932e-06
-2.07501e-10
4.99919e-06
-2.12266e-10
4.99906e-06
-2.08132e-10
4.9989e-06
-3.37513e-10
4.99869e-06
-4.27384e-10
4.99844e-06
-7.38244e-10
4.9981e-06
-8.2627e-10
-1.37741e-09
4.99998e-06
2.58156e-11
4.99996e-06
3.79109e-11
4.99996e-06
3.52412e-11
4.99995e-06
2.44438e-11
4.99995e-06
1.19189e-11
4.99993e-06
-8.51526e-12
4.99988e-06
-3.47017e-11
4.9998e-06
-6.06604e-11
4.99968e-06
-8.5314e-11
4.99954e-06
-1.09554e-10
4.9994e-06
-1.17747e-10
4.99926e-06
-1.23889e-10
4.99914e-06
-1.07402e-10
4.99903e-06
-1.18258e-10
4.99892e-06
-1.14953e-10
4.99876e-06
-1.89838e-10
4.99855e-06
-2.18956e-10
4.99822e-06
-4.15355e-10
4.99784e-06
-4.39694e-10
-9.48131e-10
5.00001e-06
5.00003e-06
5.00003e-06
5.00003e-06
5.00001e-06
4.99998e-06
4.99992e-06
4.99984e-06
4.99974e-06
4.99961e-06
4.99948e-06
4.99934e-06
4.99922e-06
4.99908e-06
4.99896e-06
4.99876e-06
4.99853e-06
4.99811e-06
4.99767e-06
)
;

boundaryField
{
    sides
    {
        type            calculated;
        value           uniform 0;
    }
    inlet
    {
        type            calculated;
        value           nonuniform List<scalar> 
20
(
-5e-06
-5e-06
-5e-06
-5e-06
-5e-06
-5e-06
-5e-06
-5e-06
-5e-06
-5e-06
-5e-06
-5e-06
-5e-06
-5e-06
-5e-06
-5e-06
-5e-06
-5e-06
-5e-06
-5e-06
)
;
    }
    outlet
    {
        type            calculated;
        value           nonuniform List<scalar> 
20
(
5.00328e-06
5.0026e-06
5.00238e-06
5.00197e-06
5.00171e-06
5.00135e-06
5.00107e-06
5.00074e-06
5.00045e-06
5.00015e-06
4.99985e-06
4.99955e-06
4.99926e-06
4.99893e-06
4.99865e-06
4.99829e-06
4.99803e-06
4.99762e-06
4.99741e-06
4.99672e-06
)
;
    }
    frontAndBack
    {
        type            empty;
        value           nonuniform 0();
    }
}


// ************************************************************************* //
