/*--------------------------------*- C++ -*----------------------------------*\
  =========                 |
  \\      /  F ield         | OpenFOAM: The Open Source CFD Toolbox
   \\    /   O peration     | Website:  https://openfoam.org
    \\  /    A nd           | Version:  7
     \\/     M anipulation  |
\*---------------------------------------------------------------------------*/
FoamFile
{
    version     2.0;
    format      ascii;
    class       surfaceScalarField;
    location    "16";
    object      phi_0;
}
// * * * * * * * * * * * * * * * * * * * * * * * * * * * * * * * * * * * * * //

dimensions      [0 4 -1 0 0 0 0];

internalField   nonuniform List<scalar> 
760
(
4.99998e-06
2.95033e-11
4.99996e-06
3.88833e-11
4.99995e-06
3.41028e-11
4.99996e-06
2.42142e-11
4.99998e-06
1.21011e-11
5.00001e-06
-1.01085e-11
5.00007e-06
-3.59852e-11
5.00016e-06
-6.23281e-11
5.00026e-06
-8.60041e-11
5.00039e-06
-1.08962e-10
5.00052e-06
-1.15111e-10
5.00066e-06
-1.19449e-10
5.00078e-06
-1.02422e-10
5.0009e-06
-1.15161e-10
5.00103e-06
-1.14711e-10
5.00124e-06
-1.93227e-10
5.00147e-06
-2.24794e-10
5.00189e-06
-4.21409e-10
5.00234e-06
-4.46961e-10
-9.50674e-10
5.00002e-06
1.83364e-11
5.00003e-06
5.15483e-11
5.00003e-06
5.09715e-11
5.00003e-06
4.07906e-11
5.00004e-06
2.42757e-11
5.00006e-06
-9.15407e-12
5.00011e-06
-6.80049e-11
5.0002e-06
-1.3086e-10
5.00032e-06
-1.8373e-10
5.00046e-06
-2.30006e-10
5.00061e-06
-2.39596e-10
5.00074e-06
-2.38184e-10
5.00085e-06
-1.95398e-10
5.00096e-06
-2.04177e-10
5.00107e-06
-2.06929e-10
5.00123e-06
-3.45177e-10
5.00145e-06
-4.41137e-10
5.00179e-06
-7.52718e-10
5.00218e-06
-8.42108e-10
-1.38249e-09
4.99998e-06
4.41177e-11
4.99995e-06
9.20073e-11
4.99993e-06
8.6957e-11
4.99993e-06
5.90882e-11
4.99996e-06
1.56479e-11
5.00001e-06
-3.07368e-11
5.00006e-06
-9.19741e-11
5.00013e-06
-1.7063e-10
5.00022e-06
-2.44288e-10
5.00033e-06
-3.09155e-10
5.00044e-06
-3.31168e-10
5.00056e-06
-3.34957e-10
5.00068e-06
-2.95824e-10
5.0008e-06
-3.07468e-10
5.00094e-06
-3.3004e-10
5.00109e-06
-4.92197e-10
5.00131e-06
-6.48318e-10
5.00157e-06
-1.00874e-09
5.00192e-06
-1.18743e-09
-1.86321e-09
5e-06
3.92599e-11
5.00001e-06
8.86839e-11
5.00002e-06
8.80678e-11
5.00002e-06
6.92516e-11
5.00002e-06
3.74329e-11
5.00002e-06
-2.74303e-11
5.00008e-06
-1.25975e-10
5.00017e-06
-2.3326e-10
5.00028e-06
-3.30628e-10
5.00041e-06
-4.14096e-10
5.00054e-06
-4.37051e-10
5.00066e-06
-4.27308e-10
5.00075e-06
-3.60996e-10
5.00082e-06
-3.63374e-10
5.0009e-06
-3.95096e-10
5.00102e-06
-5.98685e-10
5.00119e-06
-8.15325e-10
5.00143e-06
-1.24384e-09
5.00172e-06
-1.48182e-09
-2.12916e-09
4.99999e-06
4.33871e-11
4.99997e-06
1.01925e-10
4.99996e-06
1.10731e-10
4.99996e-06
8.35245e-11
4.99999e-06
3.17794e-11
5.00003e-06
-4.1741e-11
5.00007e-06
-1.40419e-10
5.00012e-06
-2.61344e-10
5.00019e-06
-3.74101e-10
5.00027e-06
-4.70489e-10
5.00037e-06
-5.03565e-10
5.00047e-06
-4.99906e-10
5.00057e-06
-4.39118e-10
5.00066e-06
-4.42439e-10
5.00077e-06
-4.85742e-10
5.00088e-06
-7.01511e-10
5.00103e-06
-9.56707e-10
5.00119e-06
-1.40898e-09
5.00141e-06
-1.69925e-09
-2.43508e-09
4.99999e-06
4.16351e-11
4.99999e-06
9.67811e-11
4.99999e-06
1.08805e-10
4.99999e-06
8.9549e-11
4.99998e-06
4.60994e-11
5.00001e-06
-4.68217e-11
5.00005e-06
-1.60113e-10
5.00011e-06
-2.96889e-10
5.0002e-06
-4.28214e-10
5.00029e-06
-5.40212e-10
5.00039e-06
-5.75729e-10
5.00048e-06
-5.61931e-10
5.00054e-06
-4.82361e-10
5.00059e-06
-4.78174e-10
5.00065e-06
-5.29086e-10
5.00072e-06
-7.69521e-10
5.00084e-06
-1.06672e-09
5.00099e-06
-1.55876e-09
5.00119e-06
-1.89906e-09
-2.61139e-09
4.99999e-06
3.7751e-11
4.99999e-06
8.90226e-11
4.99998e-06
1.08941e-10
4.99998e-06
9.32289e-11
4.99999e-06
4.01685e-11
5.00001e-06
-5.23728e-11
5.00004e-06
-1.74204e-10
5.00009e-06
-3.20338e-10
5.00014e-06
-4.59702e-10
5.00021e-06
-5.78172e-10
5.00027e-06
-6.17907e-10
5.00034e-06
-6.0592e-10
5.0004e-06
-5.26976e-10
5.00046e-06
-5.22899e-10
5.00052e-06
-5.8106e-10
5.00059e-06
-8.31326e-10
5.00068e-06
-1.15298e-09
5.00078e-06
-1.66001e-09
5.0009e-06
-2.02721e-09
-2.78871e-09
4.99999e-06
3.35877e-11
4.99999e-06
8.1317e-11
4.99999e-06
1.08528e-10
4.99999e-06
9.49774e-11
4.99999e-06
3.99732e-11
5e-06
-5.55041e-11
5.00003e-06
-1.82538e-10
5.00006e-06
-3.36012e-10
5.00011e-06
-4.86383e-10
5.00016e-06
-6.14255e-10
5.00022e-06
-6.56831e-10
5.00027e-06
-6.40902e-10
5.00031e-06
-5.53365e-10
5.00034e-06
-5.4489e-10
5.00037e-06
-6.06516e-10
5.00041e-06
-8.67206e-10
5.00047e-06
-1.21066e-09
5.00055e-06
-1.73643e-09
5.00065e-06
-2.13532e-09
-2.89018e-09
4.99999e-06
3.15671e-11
4.99999e-06
7.5825e-11
4.99999e-06
1.06876e-10
4.99999e-06
9.60146e-11
4.99999e-06
4.0085e-11
5e-06
-5.83483e-11
5.00002e-06
-1.88791e-10
5.00004e-06
-3.46644e-10
5.00007e-06
-5.0137e-10
5.0001e-06
-6.32331e-10
5.00013e-06
-6.75306e-10
5.00016e-06
-6.57696e-10
5.00018e-06
-5.68541e-10
5.0002e-06
-5.60212e-10
5.00023e-06
-6.25517e-10
5.00025e-06
-8.92498e-10
5.00029e-06
-1.24803e-09
5.00034e-06
-1.7828e-09
5.00039e-06
-2.19165e-09
-2.95943e-09
5e-06
3.08915e-11
5e-06
7.37125e-11
5e-06
1.05828e-10
5e-06
9.72652e-11
5e-06
4.03813e-11
5e-06
-5.88681e-11
5.00001e-06
-1.90762e-10
5.00001e-06
-3.49454e-10
5.00002e-06
-5.05423e-10
5.00003e-06
-6.3785e-10
5.00004e-06
-6.82193e-10
5.00005e-06
-6.65337e-10
5.00006e-06
-5.7566e-10
5.00007e-06
-5.66349e-10
5.00008e-06
-6.31258e-10
5.00009e-06
-8.98237e-10
5.0001e-06
-1.25725e-09
5.00011e-06
-1.7943e-09
5.00013e-06
-2.21216e-09
-2.98248e-09
5e-06
3.15603e-11
5e-06
7.58096e-11
5e-06
1.06865e-10
5e-06
9.60108e-11
5e-06
4.00853e-11
5e-06
-5.83516e-11
4.99999e-06
-1.88801e-10
4.99999e-06
-3.46645e-10
4.99998e-06
-5.01368e-10
4.99997e-06
-6.32323e-10
4.99996e-06
-6.75312e-10
4.99995e-06
-6.57712e-10
4.99994e-06
-5.68558e-10
4.99993e-06
-5.60214e-10
4.99992e-06
-6.25505e-10
4.99991e-06
-8.92491e-10
4.9999e-06
-1.24803e-09
4.99989e-06
-1.78278e-09
4.99987e-06
-2.19166e-09
-2.95922e-09
5.00001e-06
3.35739e-11
5.00001e-06
8.12849e-11
5.00001e-06
1.08503e-10
5.00001e-06
9.49715e-11
5.00001e-06
3.99732e-11
5e-06
-5.5513e-11
4.99998e-06
-1.82557e-10
4.99996e-06
-3.36018e-10
4.99993e-06
-4.8637e-10
4.9999e-06
-6.14235e-10
4.99987e-06
-6.5684e-10
4.99984e-06
-6.40932e-10
4.99982e-06
-5.53404e-10
4.9998e-06
-5.44907e-10
4.99977e-06
-6.06501e-10
4.99975e-06
-8.67191e-10
4.99971e-06
-1.21065e-09
4.99966e-06
-1.73637e-09
4.99961e-06
-2.13529e-09
-2.88983e-09
5.00001e-06
3.77309e-11
5.00001e-06
8.89827e-11
5.00001e-06
1.08907e-10
5.00001e-06
9.32197e-11
5.00001e-06
4.01733e-11
5e-06
-5.238e-11
4.99997e-06
-1.74227e-10
4.99994e-06
-3.20346e-10
4.99989e-06
-4.59691e-10
4.99984e-06
-5.7815e-10
4.99978e-06
-6.17926e-10
4.99973e-06
-6.05963e-10
4.99969e-06
-5.27028e-10
4.99966e-06
-5.22912e-10
4.99963e-06
-5.81035e-10
4.99959e-06
-8.31303e-10
4.99953e-06
-1.15298e-09
4.99945e-06
-1.65994e-09
4.99935e-06
-2.02721e-09
-2.78816e-09
5.00001e-06
4.16095e-11
5.00001e-06
9.67338e-11
5.00002e-06
1.08763e-10
5.00002e-06
8.95409e-11
5.00001e-06
4.61035e-11
4.99999e-06
-4.68289e-11
4.99996e-06
-1.60134e-10
4.99991e-06
-2.96888e-10
4.99985e-06
-4.28189e-10
4.99979e-06
-5.40174e-10
4.99973e-06
-5.75742e-10
4.99966e-06
-5.61976e-10
4.9996e-06
-4.82418e-10
4.99954e-06
-4.78185e-10
4.99948e-06
-5.29051e-10
4.99941e-06
-7.69486e-10
4.99932e-06
-1.06671e-09
4.99922e-06
-1.55864e-09
4.9991e-06
-1.89903e-09
-2.61075e-09
5.00001e-06
4.33584e-11
5.00001e-06
1.01867e-10
5.00001e-06
1.1069e-10
5.00001e-06
8.3515e-11
5.00002e-06
3.17872e-11
4.99999e-06
-4.1745e-11
4.99995e-06
-1.40444e-10
4.99989e-06
-2.61354e-10
4.9998e-06
-3.74092e-10
4.99971e-06
-4.70466e-10
4.99961e-06
-5.03595e-10
4.99952e-06
-4.99966e-10
4.99946e-06
-4.39201e-10
4.99941e-06
-4.4247e-10
4.99935e-06
-4.85737e-10
4.99928e-06
-7.01487e-10
4.99916e-06
-9.56722e-10
4.99901e-06
-1.40885e-09
4.99881e-06
-1.69924e-09
-2.43438e-09
5.00001e-06
3.92328e-11
5.00003e-06
8.86333e-11
5.00004e-06
8.80386e-11
5.00004e-06
6.92516e-11
5.00001e-06
3.7444e-11
4.99997e-06
-2.74303e-11
4.99993e-06
-1.25989e-10
4.99988e-06
-2.33247e-10
4.99981e-06
-3.30596e-10
4.99973e-06
-4.14048e-10
4.99963e-06
-4.37063e-10
4.99953e-06
-4.27343e-10
4.99943e-06
-3.61056e-10
4.99934e-06
-3.63376e-10
4.99923e-06
-3.95075e-10
4.99912e-06
-5.98641e-10
4.99897e-06
-8.15335e-10
4.9988e-06
-1.24368e-09
4.99859e-06
-1.48176e-09
-2.12837e-09
5e-06
4.40898e-11
4.99999e-06
9.19571e-11
4.99998e-06
8.69201e-11
4.99998e-06
5.90809e-11
4.99999e-06
1.56439e-11
4.99998e-06
-3.07464e-11
4.99992e-06
-9.20004e-11
4.99983e-06
-1.70644e-10
4.99972e-06
-2.44299e-10
4.99959e-06
-3.09159e-10
4.99946e-06
-3.31225e-10
4.99934e-06
-3.35028e-10
4.99925e-06
-2.95921e-10
4.99918e-06
-3.07509e-10
4.9991e-06
-3.3007e-10
4.99898e-06
-4.92178e-10
4.99881e-06
-6.48378e-10
4.99857e-06
-1.00861e-09
4.99828e-06
-1.18747e-09
-1.86261e-09
5.00002e-06
1.83227e-11
5.00005e-06
5.15265e-11
5.00007e-06
5.09551e-11
5.00007e-06
4.07917e-11
5.00004e-06
2.4284e-11
4.99999e-06
-9.15296e-12
4.99994e-06
-6.80154e-11
4.99987e-06
-1.30846e-10
4.99978e-06
-1.83708e-10
4.99967e-06
-2.29964e-10
4.99956e-06
-2.39606e-10
4.99944e-06
-2.38187e-10
4.99932e-06
-1.9545e-10
4.9992e-06
-2.04163e-10
4.99906e-06
-2.06962e-10
4.99891e-06
-3.4514e-10
4.99869e-06
-4.41216e-10
4.99843e-06
-7.52549e-10
4.99808e-06
-8.42081e-10
-1.38182e-09
4.99998e-06
2.94879e-11
4.99997e-06
3.88581e-11
4.99997e-06
3.40738e-11
4.99997e-06
2.41956e-11
4.99996e-06
1.20702e-11
4.99994e-06
-1.01561e-11
4.99989e-06
-3.60555e-11
4.9998e-06
-6.23821e-11
4.99968e-06
-8.60611e-11
4.99954e-06
-1.09016e-10
4.99939e-06
-1.15191e-10
4.99926e-06
-1.19525e-10
4.99915e-06
-1.02505e-10
4.99904e-06
-1.15221e-10
4.99894e-06
-1.14792e-10
4.99877e-06
-1.93297e-10
4.99855e-06
-2.24937e-10
4.99821e-06
-4.21442e-10
4.99782e-06
-4.471e-10
-9.50603e-10
5.00002e-06
5.00004e-06
5.00005e-06
5.00004e-06
5.00002e-06
4.99999e-06
4.99993e-06
4.99984e-06
4.99974e-06
4.99961e-06
4.99948e-06
4.99934e-06
4.99922e-06
4.99909e-06
4.99897e-06
4.99876e-06
4.99853e-06
4.99811e-06
4.99766e-06
)
;

boundaryField
{
    sides
    {
        type            calculated;
        value           uniform 0;
    }
    inlet
    {
        type            calculated;
        value           nonuniform List<scalar> 
20
(
-5e-06
-5e-06
-5e-06
-5e-06
-5e-06
-5e-06
-5e-06
-5e-06
-5e-06
-5e-06
-5e-06
-5e-06
-5e-06
-5e-06
-5e-06
-5e-06
-5e-06
-5e-06
-5e-06
-5e-06
)
;
    }
    outlet
    {
        type            calculated;
        value           nonuniform List<scalar> 
20
(
5.00329e-06
5.00262e-06
5.0024e-06
5.00199e-06
5.00172e-06
5.00137e-06
5.00108e-06
5.00075e-06
5.00046e-06
5.00015e-06
4.99985e-06
4.99954e-06
4.99925e-06
4.99892e-06
4.99863e-06
4.99828e-06
4.99801e-06
4.9976e-06
4.99739e-06
4.99671e-06
)
;
    }
    frontAndBack
    {
        type            empty;
        value           nonuniform 0();
    }
}


// ************************************************************************* //
