/*--------------------------------*- C++ -*----------------------------------*\
  =========                 |
  \\      /  F ield         | OpenFOAM: The Open Source CFD Toolbox
   \\    /   O peration     | Website:  https://openfoam.org
    \\  /    A nd           | Version:  7
     \\/     M anipulation  |
\*---------------------------------------------------------------------------*/
FoamFile
{
    version     2.0;
    format      ascii;
    class       volVectorField;
    location    "47";
    object      ddt0(hU);
}
// * * * * * * * * * * * * * * * * * * * * * * * * * * * * * * * * * * * * * //

dimensions      [0 2 -2 0 0 0 0];

internalField   nonuniform List<vector> 
400
(
(2.66282e-10 2.16101e-10 0)
(3.23152e-10 -4.56444e-11 0)
(7.25974e-10 -3.08778e-10 0)
(9.48304e-10 -3.42565e-10 0)
(1.24775e-09 3.61831e-10 0)
(1.59745e-09 1.05497e-09 0)
(4.27626e-10 2.92364e-10 0)
(1.57056e-09 2.85011e-10 0)
(-2.1514e-10 8.30563e-10 0)
(-2.67968e-10 4.37453e-10 0)
(-1.29448e-09 -2.3441e-10 0)
(-1.68882e-09 -6.36971e-10 0)
(-1.33029e-09 -9.81671e-10 0)
(-6.38368e-10 -1.1033e-09 0)
(-2.36611e-10 -9.33987e-10 0)
(9.56017e-11 -5.50294e-10 0)
(8.60144e-11 1.75081e-10 0)
(-1.88182e-10 4.73322e-10 0)
(-3.62821e-10 1.08133e-09 0)
(-1.5565e-09 8.74777e-10 0)
(-6.45584e-11 1.5128e-10 0)
(8.50496e-11 -4.70433e-10 0)
(5.19491e-10 -5.64022e-10 0)
(1.2031e-09 -7.08958e-10 0)
(1.41065e-09 -3.79863e-10 0)
(7.25518e-10 -6.84958e-11 0)
(2.19521e-09 -1.14383e-09 0)
(-8.00479e-10 -1.08338e-09 0)
(4.11319e-10 -2.3152e-10 0)
(-6.40814e-10 -3.69856e-10 0)
(-1.43212e-09 -6.22519e-10 0)
(-1.49152e-09 -5.48765e-10 0)
(-1.28786e-09 -5.35968e-10 0)
(-7.944e-10 -6.53819e-10 0)
(-3.92942e-10 -6.83377e-10 0)
(4.50412e-11 -6.78924e-10 0)
(1.79554e-10 -3.2905e-10 0)
(-8.98989e-11 -1.11937e-10 0)
(-2.21103e-10 1.8446e-10 0)
(-1.31466e-09 4.76756e-10 0)
(-4.01895e-10 -1.3939e-10 0)
(-3.81962e-11 -3.51039e-10 0)
(6.5104e-10 -4.54145e-10 0)
(1.20998e-09 -5.89688e-10 0)
(1.11848e-09 -6.34962e-10 0)
(1.04778e-09 -1.50156e-10 0)
(2.16893e-10 5.39023e-10 0)
(7.41814e-10 1.20544e-09 0)
(1.86726e-10 1.29439e-09 0)
(-1.11875e-09 6.14617e-10 0)
(-1.28562e-09 -2.48698e-10 0)
(-9.77107e-10 -1.07668e-09 0)
(-8.583e-10 -1.89536e-09 0)
(-5.33951e-10 -2.265e-09 0)
(-2.26075e-10 -2.00604e-09 0)
(3.12245e-10 -1.46764e-09 0)
(4.14345e-10 -1.13979e-10 0)
(7.83843e-11 4.83147e-10 0)
(-2.47532e-10 1.65274e-09 0)
(-1.65195e-09 1.75689e-09 0)
(-2.53294e-10 -3.22375e-10 0)
(2.87219e-11 -5.48977e-11 0)
(4.90378e-10 -5.26889e-10 0)
(1.03541e-09 -9.11137e-10 0)
(1.22788e-09 -1.04813e-09 0)
(1.10541e-09 -5.43655e-10 0)
(8.71849e-10 3.9147e-10 0)
(1.14977e-09 1.07672e-09 0)
(-9.97942e-11 9.15611e-10 0)
(-1.15883e-09 6.74047e-10 0)
(-1.22717e-09 -9.55466e-12 0)
(-1.16584e-09 -1.11361e-09 0)
(-1.14851e-09 -2.37839e-09 0)
(-8.158e-10 -3.03702e-09 0)
(-4.09231e-10 -2.74077e-09 0)
(1.13537e-10 -2.03109e-09 0)
(3.25635e-10 -3.08129e-10 0)
(3.60967e-11 4.6962e-10 0)
(-2.04131e-10 1.96721e-09 0)
(-1.15628e-09 2.22908e-09 0)
(-1.37412e-10 -4.54537e-10 0)
(1.00005e-10 -4.61044e-10 0)
(3.55696e-10 -8.50437e-10 0)
(6.45231e-10 -1.14238e-09 0)
(7.08116e-10 -1.13861e-09 0)
(5.68165e-10 -8.80394e-10 0)
(7.27916e-10 -3.11957e-11 0)
(4.75406e-10 4.61209e-10 0)
(-9.29082e-11 5.96001e-10 0)
(-2.28691e-10 6.55303e-10 0)
(-3.27441e-10 -1.13649e-10 0)
(-5.07343e-10 -1.34418e-09 0)
(-6.96771e-10 -2.65376e-09 0)
(-5.73596e-10 -3.32962e-09 0)
(-3.76207e-10 -3.02117e-09 0)
(-1.25553e-11 -2.34551e-09 0)
(8.82673e-11 -5.09866e-10 0)
(-1.64621e-10 3.40095e-10 0)
(-3.07737e-10 1.96406e-09 0)
(-1.12911e-09 2.41556e-09 0)
(-1.75994e-11 -4.1817e-10 0)
(1.26699e-11 -8.10775e-10 0)
(2.88487e-10 -1.17325e-09 0)
(7.93293e-10 -1.18981e-09 0)
(1.00429e-09 -7.09208e-10 0)
(1.03044e-09 1.02296e-10 0)
(8.9373e-10 1.17724e-09 0)
(3.76122e-10 1.92135e-09 0)
(-7.18076e-11 2.3453e-09 0)
(-6.70958e-10 1.79523e-09 0)
(-1.10842e-09 1.84591e-10 0)
(-1.25914e-09 -1.7507e-09 0)
(-1.10092e-09 -3.55508e-09 0)
(-5.14557e-10 -4.32744e-09 0)
(7.14624e-11 -3.81549e-09 0)
(6.3122e-10 -2.8099e-09 0)
(6.46407e-10 -3.06386e-10 0)
(3.04985e-10 8.01654e-10 0)
(1.78434e-11 3.10913e-09 0)
(-1.04271e-09 3.40934e-09 0)
(4.0472e-11 -4.28869e-10 0)
(-5.39223e-11 -1.11194e-09 0)
(1.98908e-10 -1.49547e-09 0)
(4.85146e-10 -1.56932e-09 0)
(4.49733e-10 -1.34539e-09 0)
(4.44073e-10 -5.94065e-10 0)
(2.9495e-10 2.3734e-10 0)
(4.41876e-10 1.2686e-09 0)
(2.77359e-10 1.7572e-09 0)
(3.97012e-11 1.47768e-09 0)
(-1.67985e-10 2.27093e-10 0)
(-4.5531e-10 -1.49723e-09 0)
(-6.01996e-10 -3.21252e-09 0)
(-5.39061e-10 -4.05422e-09 0)
(-3.69169e-10 -3.66747e-09 0)
(-1.59575e-10 -2.89186e-09 0)
(-1.31331e-10 -5.68175e-10 0)
(-2.88622e-10 5.30428e-10 0)
(-2.06944e-10 2.80747e-09 0)
(-5.21523e-10 3.3807e-09 0)
(3.06157e-11 -4.60572e-10 0)
(-1.39591e-10 -1.34999e-09 0)
(1.7485e-10 -1.71e-09 0)
(3.83013e-10 -1.6856e-09 0)
(4.70005e-10 -1.15843e-09 0)
(4.29166e-10 -1.90299e-10 0)
(4.1362e-10 1.09436e-09 0)
(3.86389e-10 2.2344e-09 0)
(-5.14391e-11 2.54667e-09 0)
(-2.77909e-10 2.00948e-09 0)
(-5.68392e-10 2.29265e-10 0)
(-7.27468e-10 -1.88749e-09 0)
(-5.27383e-10 -3.88169e-09 0)
(-2.12365e-10 -4.8021e-09 0)
(-5.24254e-12 -4.22922e-09 0)
(2.7388e-10 -3.13986e-09 0)
(2.94643e-10 -3.02095e-10 0)
(1.60507e-10 9.94328e-10 0)
(6.65559e-11 3.61086e-09 0)
(-6.17631e-10 3.95856e-09 0)
(1.18733e-12 -5.07089e-10 0)
(-1.07518e-10 -1.46705e-09 0)
(1.64668e-10 -1.73951e-09 0)
(2.95256e-10 -1.72924e-09 0)
(3.23383e-10 -1.18769e-09 0)
(1.60919e-10 -3.60803e-10 0)
(1.5181e-10 9.67813e-10 0)
(5.68854e-11 2.00171e-09 0)
(-2.93288e-11 2.49665e-09 0)
(-9.14117e-11 2.10351e-09 0)
(-2.66797e-10 4.32863e-10 0)
(-2.17883e-10 -1.50697e-09 0)
(-8.17494e-11 -3.53613e-09 0)
(-4.52386e-11 -4.68988e-09 0)
(-7.04618e-11 -4.27229e-09 0)
(-1.16981e-10 -3.27486e-09 0)
(-1.46144e-10 -4.62924e-10 0)
(-1.61674e-10 8.36445e-10 0)
(-1.76714e-10 3.48388e-09 0)
(-3.4609e-10 4.01683e-09 0)
(-1.8532e-11 -5.17424e-10 0)
(1.81902e-11 -1.48353e-09 0)
(7.82261e-11 -1.78262e-09 0)
(9.80902e-11 -1.7752e-09 0)
(6.58445e-11 -1.32564e-09 0)
(3.66132e-11 -4.00379e-10 0)
(6.17289e-11 1.03295e-09 0)
(3.37398e-11 2.20851e-09 0)
(1.08504e-10 2.71373e-09 0)
(-5.75971e-11 2.15931e-09 0)
(-1.22583e-10 3.78855e-10 0)
(-6.47603e-11 -1.69907e-09 0)
(-1.93449e-10 -3.86706e-09 0)
(-1.80983e-10 -5.02192e-09 0)
(-6.20834e-11 -4.5086e-09 0)
(1.8246e-11 -3.33267e-09 0)
(7.44863e-11 -2.77469e-10 0)
(1.77715e-10 1.07122e-09 0)
(1.84819e-10 3.72477e-09 0)
(-1.50429e-10 4.13842e-09 0)
(-4.30986e-12 -4.6866e-10 0)
(8.92163e-11 -1.43058e-09 0)
(-4.03978e-11 -1.82786e-09 0)
(-1.0867e-10 -1.76124e-09 0)
(-7.93927e-11 -1.35386e-09 0)
(-2.27504e-11 -3.89447e-10 0)
(-3.80942e-11 9.57153e-10 0)
(-1.37396e-10 2.21898e-09 0)
(-4.83179e-11 2.66094e-09 0)
(-7.47874e-11 2.12043e-09 0)
(7.65329e-11 4.07339e-10 0)
(2.53874e-10 -1.78732e-09 0)
(1.43545e-10 -3.95756e-09 0)
(6.37393e-11 -4.98835e-09 0)
(9.90409e-11 -4.47998e-09 0)
(-1.67846e-11 -3.35832e-09 0)
(-9.22007e-11 -2.88338e-10 0)
(-1.26008e-10 1.06569e-09 0)
(-2.01739e-10 3.6878e-09 0)
(3.66821e-11 4.11222e-09 0)
(-8.96369e-12 -4.16465e-10 0)
(6.72187e-11 -1.37454e-09 0)
(-1.0998e-10 -1.81017e-09 0)
(-2.93335e-10 -1.66907e-09 0)
(-2.7442e-10 -1.25326e-09 0)
(-2.3594e-10 -3.04433e-10 0)
(-1.14772e-10 8.45996e-10 0)
(-1.25157e-10 2.02442e-09 0)
(-1.91594e-11 2.48531e-09 0)
(1.06226e-10 2.04013e-09 0)
(1.4839e-10 5.18607e-10 0)
(2.30657e-10 -1.59778e-09 0)
(2.34489e-10 -3.70759e-09 0)
(1.12121e-10 -4.6886e-09 0)
(1.7391e-11 -4.25341e-09 0)
(5.23883e-11 -3.30672e-09 0)
(1.53493e-10 -4.58266e-10 0)
(1.96267e-10 8.24255e-10 0)
(1.64407e-10 3.40137e-09 0)
(3.17028e-10 3.96271e-09 0)
(-2.83514e-11 -4.35263e-10 0)
(1.48919e-11 -1.28002e-09 0)
(-1.52153e-10 -1.68645e-09 0)
(-3.55573e-10 -1.65918e-09 0)
(-4.36502e-10 -1.15947e-09 0)
(-4.76848e-10 -1.75069e-10 0)
(-4.53861e-10 1.111e-09 0)
(-2.67215e-10 2.18471e-09 0)
(-8.77463e-11 2.64908e-09 0)
(3.24281e-10 2.06297e-09 0)
(5.10543e-10 3.48655e-10 0)
(5.37629e-10 -1.81574e-09 0)
(6.27833e-10 -3.94944e-09 0)
(3.74031e-10 -4.8754e-09 0)
(-3.67799e-12 -4.27126e-09 0)
(-3.01185e-10 -3.13737e-09 0)
(-2.93763e-10 -2.64706e-10 0)
(-1.92846e-10 9.8547e-10 0)
(-5.64703e-11 3.56089e-09 0)
(7.0155e-10 3.93511e-09 0)
(3.15475e-11 -5.02824e-10 0)
(-2.8408e-11 -1.05021e-09 0)
(-2.63134e-10 -1.43118e-09 0)
(-4.49549e-10 -1.5916e-09 0)
(-4.94563e-10 -1.30134e-09 0)
(-3.39181e-10 -7.24024e-10 0)
(-3.89018e-10 3.37858e-10 0)
(-2.73083e-10 1.18523e-09 0)
(-1.46603e-10 1.67831e-09 0)
(-8.23586e-12 1.55524e-09 0)
(1.18653e-10 3.67584e-10 0)
(2.21199e-10 -1.30356e-09 0)
(5.28507e-10 -3.12427e-09 0)
(6.12335e-10 -4.09315e-09 0)
(4.34093e-10 -3.69978e-09 0)
(2.15138e-10 -2.86368e-09 0)
(1.17504e-10 -5.2894e-10 0)
(2.31007e-10 5.46206e-10 0)
(2.56055e-10 2.83565e-09 0)
(6.33737e-10 3.4038e-09 0)
(1.45223e-10 -4.93543e-10 0)
(3.38991e-11 -7.85291e-10 0)
(-3.85241e-10 -1.15397e-09 0)
(-8.43501e-10 -1.19108e-09 0)
(-1.01711e-09 -8.37668e-10 0)
(-9.77763e-10 5.47913e-11 0)
(-7.89157e-10 1.10879e-09 0)
(-5.56682e-10 2.06141e-09 0)
(3.02734e-10 2.1486e-09 0)
(1.07085e-09 1.60381e-09 0)
(1.24304e-09 1.69474e-10 0)
(1.03351e-09 -1.56463e-09 0)
(8.59265e-10 -3.37144e-09 0)
(4.68031e-10 -4.27119e-09 0)
(1.09133e-11 -3.79298e-09 0)
(-5.54605e-10 -2.78149e-09 0)
(-6.5495e-10 -2.84052e-10 0)
(-3.3053e-10 8.42083e-10 0)
(2.05046e-11 3.16534e-09 0)
(1.08413e-09 3.43094e-09 0)
(2.32393e-10 -4.2315e-10 0)
(5.08091e-11 -6.0527e-10 0)
(-4.4714e-10 -8.94161e-10 0)
(-7.83423e-10 -1.16683e-09 0)
(-6.55346e-10 -1.30992e-09 0)
(-6.73931e-10 -6.23204e-10 0)
(-4.29745e-10 -3.28484e-10 0)
(-6.85435e-10 7.21388e-10 0)
(-2.97624e-10 8.36764e-10 0)
(5.73621e-10 3.94567e-10 0)
(8.53251e-10 -4.30884e-10 0)
(5.87249e-10 -1.3877e-09 0)
(4.46754e-10 -2.5129e-09 0)
(4.06349e-10 -3.21695e-09 0)
(3.78174e-10 -2.9721e-09 0)
(5.25834e-11 -2.33723e-09 0)
(-7.83267e-11 -5.15944e-10 0)
(1.60123e-10 3.64431e-10 0)
(2.8795e-10 1.98783e-09 0)
(1.10311e-09 2.41159e-09 0)
(8.95383e-11 -1.80831e-10 0)
(1.21078e-10 -2.55804e-10 0)
(-4.66099e-10 -6.80598e-10 0)
(-1.08703e-09 -1.05837e-09 0)
(-1.18293e-09 -9.41295e-10 0)
(-1.25354e-09 -1.39104e-10 0)
(-7.96611e-10 4.77971e-11 0)
(-3.91044e-10 7.41959e-10 0)
(-6.67607e-10 1.47869e-09 0)
(6.79595e-10 7.18728e-10 0)
(1.66259e-09 -3.87573e-10 0)
(1.59683e-09 -1.39745e-09 0)
(1.14336e-09 -2.40279e-09 0)
(6.55173e-10 -2.96245e-09 0)
(3.19909e-10 -2.70239e-09 0)
(-1.29148e-10 -2.03588e-09 0)
(-3.06598e-10 -3.30621e-10 0)
(-3.51057e-11 4.60307e-10 0)
(1.60036e-10 1.96918e-09 0)
(1.12072e-09 2.2241e-09 0)
(2.00137e-11 -1.02748e-10 0)
(1.53856e-10 -2.81752e-10 0)
(-6.42414e-10 -4.83351e-10 0)
(-1.07727e-09 -7.77461e-10 0)
(-1.11229e-09 -3.66772e-10 0)
(-9.86915e-10 -1.21179e-10 0)
(-1.488e-09 -3.58855e-10 0)
(7.51654e-10 7.09999e-10 0)
(-1.50752e-10 1.17872e-09 0)
(-1.78359e-11 8.67275e-10 0)
(1.27048e-09 -1.96797e-10 0)
(1.5224e-09 -1.25424e-09 0)
(1.11705e-09 -2.04807e-09 0)
(4.85675e-10 -2.31122e-09 0)
(1.20413e-10 -2.02287e-09 0)
(-3.59912e-10 -1.49271e-09 0)
(-4.06107e-10 -1.51911e-10 0)
(-7.75013e-11 4.42438e-10 0)
(2.17681e-10 1.6357e-09 0)
(1.62637e-09 1.75595e-09 0)
(4.84051e-11 1.63639e-11 0)
(-2.32055e-10 -3.66336e-10 0)
(-6.23579e-10 -2.93635e-10 0)
(-1.07876e-09 -2.99637e-10 0)
(-1.35389e-09 -2.14814e-10 0)
(-2.07724e-09 -1.13819e-09 0)
(-1.6617e-09 1.12265e-09 0)
(-8.57761e-12 -6.32028e-10 0)
(-1.40983e-12 -1.10514e-09 0)
(3.76351e-10 8.45037e-11 0)
(1.19107e-09 2.645e-11 0)
(1.59007e-09 -4.98585e-10 0)
(1.4546e-09 -7.67569e-10 0)
(8.48999e-10 -8.09855e-10 0)
(3.68483e-10 -7.38767e-10 0)
(-7.19642e-11 -7.06906e-10 0)
(-1.80963e-10 -3.64914e-10 0)
(9.60122e-11 -1.52952e-10 0)
(2.18404e-10 1.64643e-10 0)
(1.29852e-09 4.76452e-10 0)
(3.00633e-11 1.36671e-10 0)
(-4.9669e-10 -7.3381e-11 0)
(-5.16966e-10 -1.15366e-10 0)
(-1.02114e-09 1.32477e-10 0)
(-1.41995e-09 3.99836e-10 0)
(-9.92827e-11 1.5472e-10 0)
(-9.12003e-11 3.30226e-09 0)
(-2.73594e-09 7.96492e-10 0)
(6.96766e-10 3.37287e-10 0)
(1.44862e-09 7.54859e-10 0)
(7.30719e-10 2.11755e-10 0)
(9.85975e-10 -5.78938e-10 0)
(1.27351e-09 -1.11395e-09 0)
(8.2273e-10 -1.19603e-09 0)
(3.31771e-10 -9.62052e-10 0)
(-9.31197e-11 -5.60226e-10 0)
(-9.20522e-11 1.60869e-10 0)
(2.0365e-10 4.57828e-10 0)
(3.85246e-10 1.07481e-09 0)
(1.55552e-09 8.74346e-10 0)
)
;

boundaryField
{
    sides
    {
        type            calculated;
        value           nonuniform List<vector> 
40
(
(3.00633e-11 0 0)
(-4.9669e-10 0 0)
(-5.16966e-10 0 0)
(-1.02114e-09 0 0)
(-1.41995e-09 0 0)
(-9.92827e-11 0 0)
(-9.12003e-11 0 0)
(-2.73594e-09 0 0)
(6.96766e-10 0 0)
(1.44862e-09 0 0)
(7.30719e-10 0 0)
(9.85975e-10 0 0)
(1.27351e-09 0 0)
(8.2273e-10 0 0)
(3.31771e-10 0 0)
(-9.31197e-11 0 0)
(-9.20522e-11 0 0)
(2.0365e-10 0 0)
(3.85246e-10 0 0)
(1.55552e-09 0 0)
(2.66282e-10 0 0)
(3.23152e-10 0 0)
(7.25974e-10 0 0)
(9.48304e-10 0 0)
(1.24775e-09 0 0)
(1.59745e-09 0 0)
(4.27626e-10 0 0)
(1.57056e-09 0 0)
(-2.1514e-10 0 0)
(-2.67968e-10 0 0)
(-1.29448e-09 0 0)
(-1.68882e-09 0 0)
(-1.33029e-09 0 0)
(-6.38368e-10 0 0)
(-2.36611e-10 0 0)
(9.56017e-11 0 0)
(8.60144e-11 0 0)
(-1.88182e-10 0 0)
(-3.62821e-10 0 0)
(-1.5565e-09 0 0)
)
;
    }
    inlet
    {
        type            calculated;
        value           uniform (0 0 0);
    }
    outlet
    {
        type            calculated;
        value           nonuniform List<vector> 
20
(
(-1.5565e-09 8.74777e-10 0)
(-1.31466e-09 4.76756e-10 0)
(-1.65195e-09 1.75689e-09 0)
(-1.15628e-09 2.22908e-09 0)
(-1.12911e-09 2.41556e-09 0)
(-1.04271e-09 3.40934e-09 0)
(-5.21523e-10 3.3807e-09 0)
(-6.17631e-10 3.95856e-09 0)
(-3.4609e-10 4.01683e-09 0)
(-1.50429e-10 4.13842e-09 0)
(3.66821e-11 4.11222e-09 0)
(3.17028e-10 3.96271e-09 0)
(7.0155e-10 3.93511e-09 0)
(6.33737e-10 3.4038e-09 0)
(1.08413e-09 3.43094e-09 0)
(1.10311e-09 2.41159e-09 0)
(1.12072e-09 2.2241e-09 0)
(1.62637e-09 1.75595e-09 0)
(1.29852e-09 4.76452e-10 0)
(1.55552e-09 8.74346e-10 0)
)
;
    }
    frontAndBack
    {
        type            empty;
    }
}


// ************************************************************************* //
