/*--------------------------------*- C++ -*----------------------------------*\
  =========                 |
  \\      /  F ield         | OpenFOAM: The Open Source CFD Toolbox
   \\    /   O peration     | Website:  https://openfoam.org
    \\  /    A nd           | Version:  7
     \\/     M anipulation  |
\*---------------------------------------------------------------------------*/
FoamFile
{
    version     2.0;
    format      ascii;
    class       volVectorField;
    location    "47";
    object      hU;
}
// * * * * * * * * * * * * * * * * * * * * * * * * * * * * * * * * * * * * * //

dimensions      [0 2 -1 0 0 0 0];

internalField   nonuniform List<vector> 
400
(
(0.001 -8.59934e-09 0)
(0.001 -2.3396e-08 0)
(0.001 -3.53679e-08 0)
(0.001 -4.58093e-08 0)
(0.00100001 -5.57627e-08 0)
(0.00100001 -6.61446e-08 0)
(0.00100002 -7.70995e-08 0)
(0.00100003 -8.8614e-08 0)
(0.00100004 -9.99172e-08 0)
(0.00100006 -1.12364e-07 0)
(0.00100007 -1.23346e-07 0)
(0.0010001 -1.36804e-07 0)
(0.00100012 -1.4688e-07 0)
(0.00100016 -1.63168e-07 0)
(0.00100017 -1.71578e-07 0)
(0.00100024 -1.95293e-07 0)
(0.00100026 -1.9978e-07 0)
(0.00100038 -2.422e-07 0)
(0.00100038 -2.38618e-07 0)
(0.0010006 -3.32138e-07 0)
(0.001 4.0593e-09 0)
(0.001 1.21505e-08 0)
(0.00100001 2.01831e-08 0)
(0.00100001 2.78518e-08 0)
(0.00100002 3.51862e-08 0)
(0.00100002 4.18939e-08 0)
(0.00100003 4.79906e-08 0)
(0.00100004 5.34168e-08 0)
(0.00100005 5.87492e-08 0)
(0.00100007 6.24812e-08 0)
(0.00100008 6.69214e-08 0)
(0.0010001 6.84049e-08 0)
(0.00100012 7.24608e-08 0)
(0.00100016 6.97601e-08 0)
(0.00100018 7.40518e-08 0)
(0.00100023 6.19126e-08 0)
(0.00100026 6.76134e-08 0)
(0.00100035 3.21988e-08 0)
(0.00100037 4.04387e-08 0)
(0.0010005 -5.44022e-08 0)
(0.001 -3.75957e-09 0)
(0.001 -1.24598e-08 0)
(0.001 -2.21414e-08 0)
(0.001 -3.23315e-08 0)
(0.00100001 -4.25291e-08 0)
(0.00100001 -5.32455e-08 0)
(0.00100002 -6.40587e-08 0)
(0.00100003 -7.63253e-08 0)
(0.00100004 -8.85663e-08 0)
(0.00100005 -1.03056e-07 0)
(0.00100006 -1.16346e-07 0)
(0.00100009 -1.33577e-07 0)
(0.00100011 -1.47344e-07 0)
(0.00100014 -1.70008e-07 0)
(0.00100016 -1.84379e-07 0)
(0.00100021 -2.19544e-07 0)
(0.00100023 -2.33822e-07 0)
(0.00100031 -2.95974e-07 0)
(0.00100033 -3.04788e-07 0)
(0.00100046 -4.22355e-07 0)
(0.001 1.03702e-10 0)
(0.001 7.97857e-10 0)
(0.00100001 2.00236e-09 0)
(0.00100001 3.30096e-09 0)
(0.00100001 4.43572e-09 0)
(0.00100002 4.53532e-09 0)
(0.00100003 3.95519e-09 0)
(0.00100003 1.41422e-09 0)
(0.00100004 -1.59954e-09 0)
(0.00100006 -7.32002e-09 0)
(0.00100007 -1.22535e-08 0)
(0.00100009 -2.17682e-08 0)
(0.00100011 -2.82034e-08 0)
(0.00100013 -4.42851e-08 0)
(0.00100016 -5.26132e-08 0)
(0.0010002 -8.29664e-08 0)
(0.00100022 -9.3087e-08 0)
(0.00100028 -1.52593e-07 0)
(0.0010003 -1.59069e-07 0)
(0.00100039 -2.75998e-07 0)
(0.001 -2.73715e-09 0)
(0.001 -8.6624e-09 0)
(0.001 -1.53451e-08 0)
(0.001 -2.29282e-08 0)
(0.00100001 -3.11299e-08 0)
(0.00100001 -4.05509e-08 0)
(0.00100002 -5.07315e-08 0)
(0.00100002 -6.29487e-08 0)
(0.00100003 -7.57413e-08 0)
(0.00100004 -9.15218e-08 0)
(0.00100005 -1.06731e-07 0)
(0.00100007 -1.26812e-07 0)
(0.00100009 -1.43891e-07 0)
(0.00100011 -1.71014e-07 0)
(0.00100013 -1.90304e-07 0)
(0.00100016 -2.32228e-07 0)
(0.00100018 -2.53185e-07 0)
(0.00100024 -3.24287e-07 0)
(0.00100025 -3.39367e-07 0)
(0.00100033 -4.64412e-07 0)
(0.001 -2.27872e-09 0)
(0.001 -6.53614e-09 0)
(0.001 -1.03887e-08 0)
(0.00100001 -1.42421e-08 0)
(0.00100001 -1.8297e-08 0)
(0.00100001 -2.35783e-08 0)
(0.00100002 -2.98794e-08 0)
(0.00100002 -3.85749e-08 0)
(0.00100003 -4.81272e-08 0)
(0.00100004 -6.09369e-08 0)
(0.00100005 -7.32234e-08 0)
(0.00100007 -9.04384e-08 0)
(0.00100008 -1.04807e-07 0)
(0.0010001 -1.29415e-07 0)
(0.00100011 -1.46843e-07 0)
(0.00100014 -1.87163e-07 0)
(0.00100016 -2.07358e-07 0)
(0.0010002 -2.7738e-07 0)
(0.00100021 -2.91766e-07 0)
(0.00100027 -4.15309e-07 0)
(0.001 -2.70112e-09 0)
(0.001 -8.09651e-09 0)
(0.001 -1.37188e-08 0)
(0.001 -2.00415e-08 0)
(0.00100001 -2.70747e-08 0)
(0.00100001 -3.5662e-08 0)
(0.00100001 -4.55488e-08 0)
(0.00100002 -5.80488e-08 0)
(0.00100002 -7.16865e-08 0)
(0.00100003 -8.89156e-08 0)
(0.00100004 -1.05958e-07 0)
(0.00100005 -1.28271e-07 0)
(0.00100006 -1.47861e-07 0)
(0.00100008 -1.77912e-07 0)
(0.00100009 -2.00542e-07 0)
(0.00100011 -2.46338e-07 0)
(0.00100012 -2.71185e-07 0)
(0.00100015 -3.46449e-07 0)
(0.00100016 -3.64257e-07 0)
(0.00100021 -4.92225e-07 0)
(0.001 -3.04104e-09 0)
(0.001 -8.95524e-09 0)
(0.001 -1.48919e-08 0)
(0.001 -2.13533e-08 0)
(0.001 -2.83658e-08 0)
(0.00100001 -3.68531e-08 0)
(0.00100001 -4.66063e-08 0)
(0.00100001 -5.90227e-08 0)
(0.00100002 -7.25799e-08 0)
(0.00100002 -8.96742e-08 0)
(0.00100003 -1.06489e-07 0)
(0.00100004 -1.28434e-07 0)
(0.00100004 -1.47683e-07 0)
(0.00100006 -1.77323e-07 0)
(0.00100007 -1.99924e-07 0)
(0.00100008 -2.45586e-07 0)
(0.00100009 -2.70941e-07 0)
(0.00100011 -3.46128e-07 0)
(0.00100012 -3.64322e-07 0)
(0.00100015 -4.91084e-07 0)
(0.001 -3.24703e-09 0)
(0.001 -9.44254e-09 0)
(0.001 -1.56018e-08 0)
(0.001 -2.23371e-08 0)
(0.001 -2.97047e-08 0)
(0.001 -3.86261e-08 0)
(0.00100001 -4.8878e-08 0)
(0.00100001 -6.19393e-08 0)
(0.00100001 -7.63112e-08 0)
(0.00100001 -9.44959e-08 0)
(0.00100002 -1.12654e-07 0)
(0.00100002 -1.36219e-07 0)
(0.00100003 -1.57213e-07 0)
(0.00100003 -1.88782e-07 0)
(0.00100004 -2.13147e-07 0)
(0.00100005 -2.60754e-07 0)
(0.00100005 -2.87539e-07 0)
(0.00100007 -3.6463e-07 0)
(0.00100007 -3.83701e-07 0)
(0.00100009 -5.12598e-07 0)
(0.001 -3.35286e-09 0)
(0.001 -9.69149e-09 0)
(0.001 -1.59848e-08 0)
(0.001 -2.28704e-08 0)
(0.001 -3.04045e-08 0)
(0.001 -3.95288e-08 0)
(0.001 -5.01141e-08 0)
(0.001 -6.36421e-08 0)
(0.001 -7.8551e-08 0)
(0.001 -9.72357e-08 0)
(0.00100001 -1.15809e-07 0)
(0.00100001 -1.39685e-07 0)
(0.00100001 -1.60965e-07 0)
(0.00100001 -1.92735e-07 0)
(0.00100001 -2.17418e-07 0)
(0.00100002 -2.65236e-07 0)
(0.00100002 -2.92468e-07 0)
(0.00100002 -3.69706e-07 0)
(0.00100002 -3.89196e-07 0)
(0.00100003 -5.17668e-07 0)
(0.001 -3.35514e-09 0)
(0.001 -9.69408e-09 0)
(0.001 -1.59882e-08 0)
(0.000999999 -2.28677e-08 0)
(0.000999999 -3.04031e-08 0)
(0.000999999 -3.95259e-08 0)
(0.000999998 -5.01161e-08 0)
(0.000999997 -6.36377e-08 0)
(0.000999996 -7.85513e-08 0)
(0.000999995 -9.72335e-08 0)
(0.000999994 -1.15804e-07 0)
(0.000999993 -1.39689e-07 0)
(0.000999991 -1.60969e-07 0)
(0.000999989 -1.9273e-07 0)
(0.000999987 -2.17414e-07 0)
(0.000999984 -2.65236e-07 0)
(0.000999982 -2.92466e-07 0)
(0.000999978 -3.697e-07 0)
(0.000999977 -3.89192e-07 0)
(0.000999971 -5.17663e-07 0)
(0.001 -3.25348e-09 0)
(0.001 -9.45079e-09 0)
(0.000999999 -1.56098e-08 0)
(0.000999998 -2.23299e-08 0)
(0.000999997 -2.97025e-08 0)
(0.000999996 -3.86155e-08 0)
(0.000999994 -4.88779e-08 0)
(0.000999992 -6.19263e-08 0)
(0.000999989 -7.63025e-08 0)
(0.000999986 -9.44869e-08 0)
(0.000999982 -1.12639e-07 0)
(0.000999978 -1.36219e-07 0)
(0.000999973 -1.57219e-07 0)
(0.000999967 -1.88769e-07 0)
(0.000999961 -2.13135e-07 0)
(0.000999952 -2.60735e-07 0)
(0.000999946 -2.87519e-07 0)
(0.000999934 -3.64591e-07 0)
(0.00099993 -3.83669e-07 0)
(0.000999911 -5.12541e-07 0)
(0.001 -3.0509e-09 0)
(0.000999999 -8.9645e-09 0)
(0.000999998 -1.48962e-08 0)
(0.000999997 -2.13496e-08 0)
(0.000999996 -2.83613e-08 0)
(0.000999993 -3.68429e-08 0)
(0.000999991 -4.65959e-08 0)
(0.000999987 -5.90114e-08 0)
(0.000999983 -7.25597e-08 0)
(0.000999977 -8.96558e-08 0)
(0.000999971 -1.0647e-07 0)
(0.000999963 -1.28428e-07 0)
(0.000999955 -1.47695e-07 0)
(0.000999944 -1.77333e-07 0)
(0.000999935 -1.99933e-07 0)
(0.00099992 -2.45585e-07 0)
(0.000999911 -2.70942e-07 0)
(0.00099989 -3.4612e-07 0)
(0.000999883 -3.64322e-07 0)
(0.000999852 -4.91072e-07 0)
(0.001 -2.71198e-09 0)
(0.000999999 -8.09675e-09 0)
(0.000999998 -1.37166e-08 0)
(0.000999996 -2.00421e-08 0)
(0.000999994 -2.70705e-08 0)
(0.000999991 -3.56662e-08 0)
(0.000999987 -4.55358e-08 0)
(0.000999982 -5.80439e-08 0)
(0.000999977 -7.16755e-08 0)
(0.000999969 -8.88869e-08 0)
(0.000999962 -1.05922e-07 0)
(0.000999951 -1.28231e-07 0)
(0.00099994 -1.47839e-07 0)
(0.000999925 -1.77891e-07 0)
(0.000999912 -2.00521e-07 0)
(0.000999891 -2.46287e-07 0)
(0.000999878 -2.71139e-07 0)
(0.000999846 -3.46361e-07 0)
(0.000999839 -3.64179e-07 0)
(0.000999792 -4.92085e-07 0)
(0.001 -2.28341e-09 0)
(0.000999999 -6.52902e-09 0)
(0.000999997 -1.03859e-08 0)
(0.000999994 -1.42456e-08 0)
(0.000999991 -1.83173e-08 0)
(0.000999987 -2.36007e-08 0)
(0.000999982 -2.98998e-08 0)
(0.000999976 -3.85837e-08 0)
(0.000999969 -4.81583e-08 0)
(0.000999959 -6.09604e-08 0)
(0.000999949 -7.32265e-08 0)
(0.000999935 -9.04233e-08 0)
(0.000999921 -1.04801e-07 0)
(0.000999902 -1.29421e-07 0)
(0.000999885 -1.46859e-07 0)
(0.000999858 -1.87168e-07 0)
(0.000999841 -2.07371e-07 0)
(0.000999802 -2.77375e-07 0)
(0.000999789 -2.91773e-07 0)
(0.000999732 -4.15298e-07 0)
(0.001 -2.73103e-09 0)
(0.001 -8.65834e-09 0)
(0.000999998 -1.53434e-08 0)
(0.000999997 -2.29321e-08 0)
(0.000999994 -3.11542e-08 0)
(0.000999989 -4.05459e-08 0)
(0.000999984 -5.07637e-08 0)
(0.000999977 -6.2937e-08 0)
(0.000999969 -7.57429e-08 0)
(0.000999958 -9.15536e-08 0)
(0.000999946 -1.06754e-07 0)
(0.000999929 -1.26794e-07 0)
(0.000999914 -1.43863e-07 0)
(0.00099989 -1.70977e-07 0)
(0.000999871 -1.90286e-07 0)
(0.000999836 -2.32184e-07 0)
(0.000999817 -2.53159e-07 0)
(0.000999764 -3.24203e-07 0)
(0.000999753 -3.39307e-07 0)
(0.000999671 -4.64256e-07 0)
(0.001 1.16764e-10 0)
(0.000999997 7.97983e-10 0)
(0.000999994 1.98432e-09 0)
(0.00099999 3.26175e-09 0)
(0.000999985 4.4051e-09 0)
(0.00099998 4.55276e-09 0)
(0.000999974 3.89153e-09 0)
(0.000999965 1.38273e-09 0)
(0.000999956 -1.591e-09 0)
(0.000999943 -7.359e-09 0)
(0.00099993 -1.23127e-08 0)
(0.000999911 -2.1797e-08 0)
(0.000999893 -2.82046e-08 0)
(0.000999866 -4.42689e-08 0)
(0.000999844 -5.26096e-08 0)
(0.000999804 -8.29523e-08 0)
(0.000999779 -9.30867e-08 0)
(0.00099972 -1.52564e-07 0)
(0.000999699 -1.59051e-07 0)
(0.000999612 -2.75944e-07 0)
(0.001 -3.7504e-09 0)
(0.001 -1.24565e-08 0)
(0.001 -2.21364e-08 0)
(0.000999998 -3.23475e-08 0)
(0.000999995 -4.25247e-08 0)
(0.000999989 -5.32521e-08 0)
(0.000999983 -6.41699e-08 0)
(0.000999974 -7.6359e-08 0)
(0.000999964 -8.85753e-08 0)
(0.00099995 -1.03042e-07 0)
(0.000999935 -1.16361e-07 0)
(0.000999914 -1.33603e-07 0)
(0.000999895 -1.47371e-07 0)
(0.000999863 -1.70006e-07 0)
(0.00099984 -1.84392e-07 0)
(0.00099979 -2.19533e-07 0)
(0.000999767 -2.33847e-07 0)
(0.000999688 -2.95947e-07 0)
(0.000999673 -3.04798e-07 0)
(0.00099954 -4.22279e-07 0)
(0.001 4.06042e-09 0)
(0.000999995 1.21216e-08 0)
(0.000999991 2.01885e-08 0)
(0.000999986 2.79198e-08 0)
(0.000999981 3.52859e-08 0)
(0.000999976 4.18645e-08 0)
(0.000999969 4.82762e-08 0)
(0.00099996 5.34612e-08 0)
(0.000999949 5.87504e-08 0)
(0.000999934 6.25719e-08 0)
(0.000999919 6.69746e-08 0)
(0.000999897 6.84006e-08 0)
(0.000999876 7.24393e-08 0)
(0.000999843 6.97718e-08 0)
(0.000999818 7.40676e-08 0)
(0.000999766 6.19569e-08 0)
(0.000999737 6.76356e-08 0)
(0.000999654 3.22681e-08 0)
(0.00099963 4.04873e-08 0)
(0.000999497 -5.42785e-08 0)
(0.001 -8.59841e-09 0)
(0.001 -2.34248e-08 0)
(0.001 -3.53826e-08 0)
(0.000999997 -4.57612e-08 0)
(0.000999993 -5.56937e-08 0)
(0.000999986 -6.61704e-08 0)
(0.000999979 -7.67615e-08 0)
(0.000999968 -8.8591e-08 0)
(0.000999958 -9.99319e-08 0)
(0.000999942 -1.12336e-07 0)
(0.000999928 -1.23352e-07 0)
(0.000999902 -1.36853e-07 0)
(0.000999885 -1.46944e-07 0)
(0.000999845 -1.63222e-07 0)
(0.000999825 -1.71632e-07 0)
(0.000999759 -1.95345e-07 0)
(0.000999742 -1.99845e-07 0)
(0.000999623 -2.42272e-07 0)
(0.000999619 -2.38698e-07 0)
(0.000999395 -3.32268e-07 0)
)
;

boundaryField
{
    sides
    {
        type            slip;
    }
    inlet
    {
        type            fixedValue;
        value           uniform (0.001 0 0);
    }
    outlet
    {
        type            zeroGradient;
    }
    frontAndBack
    {
        type            empty;
    }
}


// ************************************************************************* //
