/*--------------------------------*- C++ -*----------------------------------*\
  =========                 |
  \\      /  F ield         | OpenFOAM: The Open Source CFD Toolbox
   \\    /   O peration     | Website:  https://openfoam.org
    \\  /    A nd           | Version:  7
     \\/     M anipulation  |
\*---------------------------------------------------------------------------*/
FoamFile
{
    version     2.0;
    format      ascii;
    class       volVectorField;
    location    "47";
    object      hU_0;
}
// * * * * * * * * * * * * * * * * * * * * * * * * * * * * * * * * * * * * * //

dimensions      [0 2 -1 0 0 0 0];

internalField   nonuniform List<vector> 
400
(
(0.001 -8.61728e-09 0)
(0.001 -2.33839e-08 0)
(0.001 -3.53337e-08 0)
(0.001 -4.57789e-08 0)
(0.00100001 -5.58102e-08 0)
(0.00100001 -6.62069e-08 0)
(0.00100002 -7.71926e-08 0)
(0.00100003 -8.87445e-08 0)
(0.00100004 -1.00014e-07 0)
(0.00100006 -1.12418e-07 0)
(0.00100007 -1.2333e-07 0)
(0.0010001 -1.36739e-07 0)
(0.00100012 -1.46779e-07 0)
(0.00100016 -1.63056e-07 0)
(0.00100017 -1.71483e-07 0)
(0.00100024 -1.95235e-07 0)
(0.00100026 -1.99793e-07 0)
(0.00100038 -2.42243e-07 0)
(0.00100038 -2.38722e-07 0)
(0.00100061 -3.32227e-07 0)
(0.001 4.05161e-09 0)
(0.001 1.2207e-08 0)
(0.00100001 2.02387e-08 0)
(0.00100001 2.79137e-08 0)
(0.00100002 3.51985e-08 0)
(0.00100002 4.19379e-08 0)
(0.00100003 4.80413e-08 0)
(0.00100004 5.34692e-08 0)
(0.00100005 5.87731e-08 0)
(0.00100007 6.25032e-08 0)
(0.00100008 6.69739e-08 0)
(0.0010001 6.84648e-08 0)
(0.00100012 7.25209e-08 0)
(0.00100016 6.98264e-08 0)
(0.00100018 7.41163e-08 0)
(0.00100023 6.19775e-08 0)
(0.00100026 6.7648e-08 0)
(0.00100035 3.22132e-08 0)
(0.00100037 4.0424e-08 0)
(0.0010005 -5.44482e-08 0)
(0.001 -3.74161e-09 0)
(0.001 -1.24158e-08 0)
(0.001 -2.2089e-08 0)
(0.001 -3.22582e-08 0)
(0.00100001 -4.24575e-08 0)
(0.00100001 -5.32263e-08 0)
(0.00100002 -6.40792e-08 0)
(0.00100003 -7.6374e-08 0)
(0.00100004 -8.86799e-08 0)
(0.00100005 -1.03129e-07 0)
(0.00100006 -1.16329e-07 0)
(0.00100009 -1.33473e-07 0)
(0.00100011 -1.47158e-07 0)
(0.00100014 -1.69784e-07 0)
(0.00100016 -1.84178e-07 0)
(0.00100021 -2.19391e-07 0)
(0.00100023 -2.338e-07 0)
(0.00100031 -2.96012e-07 0)
(0.00100033 -3.04944e-07 0)
(0.00100046 -4.2253e-07 0)
(0.001 1.34497e-10 0)
(0.001 8.16609e-10 0)
(0.00100001 2.06987e-09 0)
(0.00100001 3.41405e-09 0)
(0.00100001 4.56798e-09 0)
(0.00100002 4.59627e-09 0)
(0.00100003 3.95493e-09 0)
(0.00100003 1.33085e-09 0)
(0.00100004 -1.69255e-09 0)
(0.00100006 -7.38272e-09 0)
(0.00100007 -1.22488e-08 0)
(0.00100009 -2.16625e-08 0)
(0.00100011 -2.79768e-08 0)
(0.00100013 -4.39877e-08 0)
(0.00100016 -5.23367e-08 0)
(0.0010002 -8.27521e-08 0)
(0.00100022 -9.30415e-08 0)
(0.00100028 -1.52628e-07 0)
(0.0010003 -1.59255e-07 0)
(0.00100039 -2.7622e-07 0)
(0.001 -2.69035e-09 0)
(0.001 -8.60681e-09 0)
(0.001 -1.52509e-08 0)
(0.001 -2.28028e-08 0)
(0.00100001 -3.09946e-08 0)
(0.00100001 -4.04497e-08 0)
(0.00100002 -5.07062e-08 0)
(0.00100002 -6.29921e-08 0)
(0.00100003 -7.57975e-08 0)
(0.00100004 -9.15785e-08 0)
(0.00100005 -1.06721e-07 0)
(0.00100007 -1.2669e-07 0)
(0.00100009 -1.43641e-07 0)
(0.00100011 -1.70688e-07 0)
(0.00100013 -1.89998e-07 0)
(0.00100016 -2.31981e-07 0)
(0.00100018 -2.53119e-07 0)
(0.00100024 -3.24311e-07 0)
(0.00100025 -3.39553e-07 0)
(0.00100033 -4.64652e-07 0)
(0.001 -2.2303e-09 0)
(0.001 -6.45098e-09 0)
(0.001 -1.0263e-08 0)
(0.00100001 -1.41091e-08 0)
(0.00100001 -1.82048e-08 0)
(0.00100001 -2.35602e-08 0)
(0.00100002 -2.99752e-08 0)
(0.00100002 -3.8751e-08 0)
(0.00100003 -4.83467e-08 0)
(0.00100004 -6.1117e-08 0)
(0.00100005 -7.32562e-08 0)
(0.00100007 -9.02841e-08 0)
(0.00100008 -1.04467e-07 0)
(0.0010001 -1.28985e-07 0)
(0.00100011 -1.46452e-07 0)
(0.00100014 -1.86863e-07 0)
(0.00100016 -2.07308e-07 0)
(0.0010002 -2.77447e-07 0)
(0.00100021 -2.92062e-07 0)
(0.00100027 -4.15649e-07 0)
(0.001 -2.65239e-09 0)
(0.001 -7.98366e-09 0)
(0.001 -1.35634e-08 0)
(0.001 -1.98746e-08 0)
(0.00100001 -2.69277e-08 0)
(0.00100001 -3.55828e-08 0)
(0.00100001 -4.55572e-08 0)
(0.00100002 -5.81545e-08 0)
(0.00100002 -7.18535e-08 0)
(0.00100003 -8.90655e-08 0)
(0.00100004 -1.05993e-07 0)
(0.00100005 -1.28139e-07 0)
(0.00100006 -1.47552e-07 0)
(0.00100008 -1.77505e-07 0)
(0.00100009 -2.00166e-07 0)
(0.00100011 -2.46032e-07 0)
(0.00100012 -2.71111e-07 0)
(0.00100015 -3.4649e-07 0)
(0.00100016 -3.64521e-07 0)
(0.00100021 -4.9256e-07 0)
(0.001 -2.99288e-09 0)
(0.001 -8.8186e-09 0)
(0.001 -1.4714e-08 0)
(0.001 -2.11769e-08 0)
(0.001 -2.82348e-08 0)
(0.00100001 -3.68195e-08 0)
(0.00100001 -4.66953e-08 0)
(0.00100001 -5.92314e-08 0)
(0.00100002 -7.283e-08 0)
(0.00100002 -8.98794e-08 0)
(0.00100003 -1.06529e-07 0)
(0.00100004 -1.28264e-07 0)
(0.00100004 -1.47306e-07 0)
(0.00100006 -1.7684e-07 0)
(0.00100007 -1.99489e-07 0)
(0.00100008 -2.45253e-07 0)
(0.00100009 -2.70888e-07 0)
(0.00100011 -3.4621e-07 0)
(0.00100012 -3.64665e-07 0)
(0.00100015 -4.91478e-07 0)
(0.001 -3.19905e-09 0)
(0.001 -9.29467e-09 0)
(0.001 -1.5421e-08 0)
(0.001 -2.21566e-08 0)
(0.001 -2.95725e-08 0)
(0.001 -3.85745e-08 0)
(0.00100001 -4.8953e-08 0)
(0.00100001 -6.21265e-08 0)
(0.00100001 -7.65503e-08 0)
(0.00100001 -9.47097e-08 0)
(0.00100002 -1.12712e-07 0)
(0.00100002 -1.36081e-07 0)
(0.00100003 -1.56871e-07 0)
(0.00100003 -1.88315e-07 0)
(0.00100004 -2.12711e-07 0)
(0.00100005 -2.60406e-07 0)
(0.00100005 -2.87467e-07 0)
(0.00100007 -3.64692e-07 0)
(0.00100007 -3.84029e-07 0)
(0.00100009 -5.12998e-07 0)
(0.001 -3.3068e-09 0)
(0.001 -9.54366e-09 0)
(0.001 -1.58018e-08 0)
(0.001 -2.26838e-08 0)
(0.001 -3.02586e-08 0)
(0.001 -3.94695e-08 0)
(0.001 -5.01955e-08 0)
(0.001 -6.38474e-08 0)
(0.001 -7.88127e-08 0)
(0.001 -9.74573e-08 0)
(0.00100001 -1.15861e-07 0)
(0.00100001 -1.39529e-07 0)
(0.00100001 -1.60593e-07 0)
(0.00100001 -1.92237e-07 0)
(0.00100001 -2.16958e-07 0)
(0.00100002 -2.64881e-07 0)
(0.00100002 -2.9241e-07 0)
(0.00100002 -3.69788e-07 0)
(0.00100002 -3.89549e-07 0)
(0.00100003 -5.18081e-07 0)
(0.001 -3.31378e-09 0)
(0.001 -9.55323e-09 0)
(0.001 -1.58009e-08 0)
(0.000999999 -2.26817e-08 0)
(0.000999999 -3.02529e-08 0)
(0.000999999 -3.94681e-08 0)
(0.000999998 -5.01918e-08 0)
(0.000999997 -6.38423e-08 0)
(0.000999996 -7.88115e-08 0)
(0.000999995 -9.74499e-08 0)
(0.000999994 -1.15859e-07 0)
(0.000999993 -1.39529e-07 0)
(0.000999991 -1.60586e-07 0)
(0.000999989 -1.92231e-07 0)
(0.000999987 -2.16957e-07 0)
(0.000999984 -2.64879e-07 0)
(0.000999982 -2.92407e-07 0)
(0.000999978 -3.69781e-07 0)
(0.000999977 -3.8954e-07 0)
(0.000999971 -5.18073e-07 0)
(0.001 -3.21426e-09 0)
(0.001 -9.31527e-09 0)
(0.000999999 -1.54251e-08 0)
(0.000999998 -2.21518e-08 0)
(0.000999997 -2.95641e-08 0)
(0.000999996 -3.85667e-08 0)
(0.000999994 -4.89453e-08 0)
(0.000999992 -6.21096e-08 0)
(0.000999989 -7.6544e-08 0)
(0.000999986 -9.46936e-08 0)
(0.000999982 -1.12703e-07 0)
(0.000999978 -1.3608e-07 0)
(0.000999973 -1.56861e-07 0)
(0.000999967 -1.88298e-07 0)
(0.000999961 -2.12699e-07 0)
(0.000999952 -2.60386e-07 0)
(0.000999946 -2.87448e-07 0)
(0.000999934 -3.64652e-07 0)
(0.00099993 -3.83988e-07 0)
(0.000999911 -5.12934e-07 0)
(0.001 -3.00532e-09 0)
(0.000999999 -8.83701e-09 0)
(0.000999998 -1.47238e-08 0)
(0.000999997 -2.11738e-08 0)
(0.000999996 -2.82325e-08 0)
(0.000999993 -3.68045e-08 0)
(0.000999991 -4.6687e-08 0)
(0.000999987 -5.92113e-08 0)
(0.000999983 -7.28126e-08 0)
(0.000999977 -8.98646e-08 0)
(0.000999971 -1.06518e-07 0)
(0.000999963 -1.28267e-07 0)
(0.000999955 -1.47316e-07 0)
(0.000999944 -1.76845e-07 0)
(0.000999935 -1.99492e-07 0)
(0.00099992 -2.4525e-07 0)
(0.000999911 -2.70893e-07 0)
(0.00099989 -3.46201e-07 0)
(0.000999883 -3.64658e-07 0)
(0.000999852 -4.91462e-07 0)
(0.001 -2.65812e-09 0)
(0.000999999 -7.98762e-09 0)
(0.000999998 -1.35677e-08 0)
(0.000999996 -1.98761e-08 0)
(0.000999994 -2.69234e-08 0)
(0.000999991 -3.55769e-08 0)
(0.000999987 -4.55459e-08 0)
(0.000999982 -5.81482e-08 0)
(0.000999977 -7.18299e-08 0)
(0.000999969 -8.90354e-08 0)
(0.000999962 -1.05964e-07 0)
(0.000999951 -1.28115e-07 0)
(0.00099994 -1.47542e-07 0)
(0.000999925 -1.77486e-07 0)
(0.000999912 -2.00142e-07 0)
(0.000999891 -2.45983e-07 0)
(0.000999878 -2.71068e-07 0)
(0.000999846 -3.46403e-07 0)
(0.000999839 -3.64446e-07 0)
(0.000999792 -4.92421e-07 0)
(0.001 -2.23099e-09 0)
(0.000999999 -6.44005e-09 0)
(0.000999997 -1.02609e-08 0)
(0.000999994 -1.4112e-08 0)
(0.000999991 -1.82108e-08 0)
(0.000999987 -2.35873e-08 0)
(0.000999982 -2.99835e-08 0)
(0.000999976 -3.87757e-08 0)
(0.000999969 -4.8373e-08 0)
(0.000999959 -6.1122e-08 0)
(0.000999949 -7.32486e-08 0)
(0.000999935 -9.02775e-08 0)
(0.000999921 -1.04478e-07 0)
(0.000999902 -1.29e-07 0)
(0.000999885 -1.46472e-07 0)
(0.000999858 -1.86871e-07 0)
(0.000999841 -2.07323e-07 0)
(0.000999802 -2.77446e-07 0)
(0.000999789 -2.92076e-07 0)
(0.000999732 -4.15641e-07 0)
(0.001 -2.68978e-09 0)
(0.000999999 -8.58469e-09 0)
(0.000999998 -1.52431e-08 0)
(0.000999997 -2.27994e-08 0)
(0.000999994 -3.10153e-08 0)
(0.000999989 -4.0464e-08 0)
(0.000999984 -5.07218e-08 0)
(0.000999977 -6.29815e-08 0)
(0.000999969 -7.58326e-08 0)
(0.000999958 -9.16067e-08 0)
(0.000999946 -1.06718e-07 0)
(0.000999929 -1.26659e-07 0)
(0.000999914 -1.43618e-07 0)
(0.00099989 -1.70661e-07 0)
(0.000999871 -1.89987e-07 0)
(0.000999836 -2.3194e-07 0)
(0.000999817 -2.53093e-07 0)
(0.000999764 -3.24229e-07 0)
(0.000999753 -3.39497e-07 0)
(0.00099967 -4.64497e-07 0)
(0.001 1.32594e-10 0)
(0.000999997 8.41329e-10 0)
(0.000999994 2.06905e-09 0)
(0.00099999 3.38712e-09 0)
(0.000999986 4.5067e-09 0)
(0.00099998 4.60337e-09 0)
(0.000999974 3.87872e-09 0)
(0.000999965 1.342e-09 0)
(0.000999956 -1.7207e-09 0)
(0.000999943 -7.44725e-09 0)
(0.00099993 -1.22893e-08 0)
(0.000999911 -2.16637e-08 0)
(0.000999893 -2.79674e-08 0)
(0.000999866 -4.39737e-08 0)
(0.000999844 -5.23372e-08 0)
(0.000999804 -8.2739e-08 0)
(0.000999779 -9.30396e-08 0)
(0.00099972 -1.52599e-07 0)
(0.000999699 -1.59238e-07 0)
(0.000999612 -2.76166e-07 0)
(0.001 -3.73132e-09 0)
(0.001 -1.24259e-08 0)
(0.001 -2.20784e-08 0)
(0.000999998 -3.22642e-08 0)
(0.000999995 -4.2477e-08 0)
(0.000999989 -5.32259e-08 0)
(0.000999983 -6.42033e-08 0)
(0.000999974 -7.64095e-08 0)
(0.000999964 -8.86661e-08 0)
(0.00099995 -1.03129e-07 0)
(0.000999935 -1.16358e-07 0)
(0.000999914 -1.33492e-07 0)
(0.000999895 -1.47171e-07 0)
(0.000999862 -1.69774e-07 0)
(0.00099984 -1.84187e-07 0)
(0.00099979 -2.19377e-07 0)
(0.000999767 -2.33821e-07 0)
(0.000999688 -2.95982e-07 0)
(0.000999673 -3.04953e-07 0)
(0.00099954 -4.22454e-07 0)
(0.001 4.07822e-09 0)
(0.000999995 1.21476e-08 0)
(0.000999991 2.02131e-08 0)
(0.000999986 2.79427e-08 0)
(0.000999982 3.53318e-08 0)
(0.000999976 4.19498e-08 0)
(0.000999969 4.82948e-08 0)
(0.00099996 5.34575e-08 0)
(0.000999949 5.88526e-08 0)
(0.000999934 6.25936e-08 0)
(0.000999919 6.69707e-08 0)
(0.000999897 6.84375e-08 0)
(0.000999876 7.25114e-08 0)
(0.000999843 6.98541e-08 0)
(0.000999818 7.41413e-08 0)
(0.000999766 6.20266e-08 0)
(0.000999737 6.76737e-08 0)
(0.000999654 3.22861e-08 0)
(0.00099963 4.04749e-08 0)
(0.000999497 -5.4324e-08 0)
(0.001 -8.60105e-09 0)
(0.001 -2.34193e-08 0)
(0.001 -3.53735e-08 0)
(0.000999997 -4.57721e-08 0)
(0.000999993 -5.57075e-08 0)
(0.000999986 -6.6198e-08 0)
(0.000999979 -7.68929e-08 0)
(0.000999969 -8.87435e-08 0)
(0.000999958 -9.99827e-08 0)
(0.000999942 -1.12394e-07 0)
(0.000999928 -1.23375e-07 0)
(0.000999902 -1.36805e-07 0)
(0.000999884 -1.46837e-07 0)
(0.000999845 -1.63101e-07 0)
(0.000999825 -1.71533e-07 0)
(0.000999759 -1.95285e-07 0)
(0.000999742 -1.99855e-07 0)
(0.000999623 -2.42313e-07 0)
(0.000999619 -2.38802e-07 0)
(0.000999395 -3.32357e-07 0)
)
;

boundaryField
{
    sides
    {
        type            slip;
    }
    inlet
    {
        type            fixedValue;
        value           uniform (0.001 0 0);
    }
    outlet
    {
        type            zeroGradient;
    }
    frontAndBack
    {
        type            empty;
    }
}


// ************************************************************************* //
