/*--------------------------------*- C++ -*----------------------------------*\
  =========                 |
  \\      /  F ield         | OpenFOAM: The Open Source CFD Toolbox
   \\    /   O peration     | Website:  https://openfoam.org
    \\  /    A nd           | Version:  7
     \\/     M anipulation  |
\*---------------------------------------------------------------------------*/
FoamFile
{
    version     2.0;
    format      ascii;
    class       surfaceScalarField;
    location    "47";
    object      phi;
}
// * * * * * * * * * * * * * * * * * * * * * * * * * * * * * * * * * * * * * //

dimensions      [0 4 -1 0 0 0 0];

internalField   nonuniform List<scalar> 
760
(
4.99999e-06
1.07506e-11
5e-06
-3.09153e-12
5.00001e-06
-1.12156e-11
5.00003e-06
-1.7251e-11
5.00005e-06
-2.3421e-11
5.00009e-06
-3.04901e-11
5.00013e-06
-4.4928e-11
5.00018e-06
-5.41471e-11
5.00025e-06
-6.20995e-11
5.00032e-06
-7.86048e-11
5.00042e-06
-9.15454e-11
5.00053e-06
-1.15665e-10
5.00066e-06
-1.28112e-10
5.00083e-06
-1.67731e-10
5.00101e-06
-1.76821e-10
5.00126e-06
-2.54246e-10
5.00151e-06
-2.53051e-10
5.00194e-06
-4.28932e-10
5.00235e-06
-4.11558e-10
-8.91867e-10
5.00002e-06
-1.13661e-11
5.00004e-06
-1.64301e-11
5.00006e-06
-2.59146e-11
5.00008e-06
-3.72403e-11
5.0001e-06
-4.84934e-11
5.00014e-06
-6.25776e-11
5.00018e-06
-7.85566e-11
5.00023e-06
-1.00638e-10
5.00029e-06
-1.21893e-10
5.00037e-06
-1.54371e-10
5.00046e-06
-1.80436e-10
5.00057e-06
-2.25946e-10
5.00069e-06
-2.53259e-10
5.00085e-06
-3.24245e-10
5.00102e-06
-3.51563e-10
5.00125e-06
-4.80945e-10
5.0015e-06
-5.02851e-10
5.00183e-06
-7.62391e-10
5.00218e-06
-7.54608e-10
-1.26206e-09
4.99999e-06
-3.11591e-12
5e-06
-1.73911e-11
5.00001e-06
-3.26506e-11
5.00002e-06
-4.95647e-11
5.00004e-06
-6.76687e-11
5.00007e-06
-8.95202e-11
5.00011e-06
-1.1382e-10
5.00015e-06
-1.46005e-10
5.00021e-06
-1.79795e-10
5.00029e-06
-2.25339e-10
5.00037e-06
-2.66908e-10
5.00048e-06
-3.28727e-10
5.0006e-06
-3.76159e-10
5.00074e-06
-4.67519e-10
5.00091e-06
-5.21908e-10
5.00111e-06
-6.7842e-10
5.00135e-06
-7.37968e-10
5.00162e-06
-1.03244e-09
5.00194e-06
-1.0752e-09
-1.69034e-09
5.00001e-06
-1.16535e-11
5.00002e-06
-2.97123e-11
5.00004e-06
-4.81591e-11
5.00006e-06
-6.84197e-11
5.00009e-06
-9.01719e-11
5.00011e-06
-1.17613e-10
5.00015e-06
-1.48376e-10
5.0002e-06
-1.89481e-10
5.00025e-06
-2.32965e-10
5.00032e-06
-2.9102e-10
5.00039e-06
-3.44733e-10
5.00049e-06
-4.22854e-10
5.0006e-06
-4.84254e-10
5.00073e-06
-5.96636e-10
5.00087e-06
-6.67781e-10
5.00105e-06
-8.5423e-10
5.00124e-06
-9.33866e-10
5.00148e-06
-1.26877e-09
5.00173e-06
-1.3211e-09
-1.89855e-09
5e-06
-1.03248e-11
5e-06
-3.22567e-11
5.00001e-06
-5.48462e-11
5.00002e-06
-7.96406e-11
5.00004e-06
-1.06687e-10
5.00007e-06
-1.39979e-10
5.0001e-06
-1.77808e-10
5.00013e-06
-2.26694e-10
5.00018e-06
-2.79325e-10
5.00024e-06
-3.47472e-10
5.00031e-06
-4.1357e-10
5.00039e-06
-5.03915e-10
5.00049e-06
-5.80619e-10
5.0006e-06
-7.07231e-10
5.00073e-06
-7.97637e-10
5.00087e-06
-9.99982e-10
5.00104e-06
-1.10139e-09
5.00122e-06
-1.4485e-09
5.00142e-06
-1.52061e-09
-2.16366e-09
5e-06
-1.29439e-11
5.00001e-06
-3.90781e-11
5.00002e-06
-6.51112e-11
5.00004e-06
-9.31189e-11
5.00005e-06
-1.23459e-10
5.00008e-06
-1.60781e-10
5.0001e-06
-2.03921e-10
5.00014e-06
-2.59581e-10
5.00018e-06
-3.20051e-10
5.00023e-06
-3.97739e-10
5.00029e-06
-4.73221e-10
5.00036e-06
-5.74315e-10
5.00044e-06
-6.60876e-10
5.00053e-06
-7.99668e-10
5.00064e-06
-9.01156e-10
5.00076e-06
-1.11889e-09
5.00089e-06
-1.23279e-09
5.00104e-06
-1.60009e-09
5.0012e-06
-1.68286e-09
-2.29455e-09
5e-06
-1.47876e-11
5.00001e-06
-4.33769e-11
5.00001e-06
-7.17811e-11
5.00002e-06
-1.02412e-10
5.00004e-06
-1.35922e-10
5.00005e-06
-1.77001e-10
5.00008e-06
-2.24477e-10
5.0001e-06
-2.85049e-10
5.00013e-06
-3.51376e-10
5.00017e-06
-4.35509e-10
5.00022e-06
-5.18665e-10
5.00027e-06
-6.27886e-10
5.00033e-06
-7.23843e-10
5.00041e-06
-8.71825e-10
5.00049e-06
-9.84028e-10
5.00058e-06
-1.21146e-09
5.00069e-06
-1.33613e-09
5.0008e-06
-1.70979e-09
5.00091e-06
-1.7965e-09
-2.44291e-09
5e-06
-1.59853e-11
5.00001e-06
-4.64529e-11
5.00001e-06
-7.66057e-11
5.00002e-06
-1.09452e-10
5.00003e-06
-1.45286e-10
5.00004e-06
-1.88963e-10
5.00006e-06
-2.39473e-10
5.00007e-06
-3.04049e-10
5.0001e-06
-3.74983e-10
5.00013e-06
-4.64414e-10
5.00016e-06
-5.53103e-10
5.0002e-06
-6.68148e-10
5.00025e-06
-7.69922e-10
5.0003e-06
-9.24133e-10
5.00036e-06
-1.04247e-09
5.00043e-06
-1.27654e-09
5.0005e-06
-1.40725e-09
5.00058e-06
-1.78876e-09
5.00066e-06
-1.8834e-09
-2.51718e-09
5e-06
-1.67622e-11
5e-06
-4.83702e-11
5.00001e-06
-7.9568e-11
5.00001e-06
-1.13696e-10
5.00002e-06
-1.51077e-10
5.00002e-06
-1.96446e-10
5.00003e-06
-2.48928e-10
5.00005e-06
-3.15827e-10
5.00006e-06
-3.8933e-10
5.00008e-06
-4.81642e-10
5.0001e-06
-5.73404e-10
5.00012e-06
-6.91762e-10
5.00015e-06
-7.97156e-10
5.00018e-06
-9.55176e-10
5.00022e-06
-1.07749e-09
5.00026e-06
-1.31569e-09
5.0003e-06
-1.45042e-09
5.00035e-06
-1.83558e-09
5.00039e-06
-1.9305e-09
-2.5732e-09
5e-06
-1.70458e-11
5e-06
-4.90126e-11
5e-06
-8.05689e-11
5e-06
-1.15149e-10
5.00001e-06
-1.53121e-10
5.00001e-06
-1.99048e-10
5.00001e-06
-2.52095e-10
5.00002e-06
-3.19571e-10
5.00002e-06
-3.93882e-10
5.00003e-06
-4.87198e-10
5.00003e-06
-5.8017e-10
5.00004e-06
-6.99895e-10
5.00005e-06
-8.06676e-10
5.00006e-06
-9.65882e-10
5.00007e-06
-1.08947e-09
5.00009e-06
-1.32859e-09
5.0001e-06
-1.46439e-09
5.00011e-06
-1.85009e-09
5.00013e-06
-1.947e-09
-2.58944e-09
5e-06
-1.6786e-11
5e-06
-4.83893e-11
5e-06
-7.95983e-11
5e-06
-1.13668e-10
4.99999e-06
-1.51064e-10
4.99999e-06
-1.96417e-10
4.99999e-06
-2.48948e-10
4.99998e-06
-3.15786e-10
4.99998e-06
-3.89337e-10
4.99997e-06
-4.81625e-10
4.99997e-06
-5.73367e-10
4.99996e-06
-6.91811e-10
4.99995e-06
-7.97195e-10
4.99994e-06
-9.55123e-10
4.99993e-06
-1.07746e-09
4.99991e-06
-1.31566e-09
4.9999e-06
-1.45039e-09
4.99989e-06
-1.83549e-09
4.99987e-06
-1.93045e-09
-2.57307e-09
5e-06
-1.60277e-11
5e-06
-4.65064e-11
4.99999e-06
-7.66498e-11
4.99999e-06
-1.09405e-10
4.99998e-06
-1.45276e-10
4.99998e-06
-1.88884e-10
4.99997e-06
-2.39447e-10
4.99995e-06
-3.0396e-10
4.99994e-06
-3.74889e-10
4.99992e-06
-4.64344e-10
4.9999e-06
-5.53005e-10
4.99988e-06
-6.68127e-10
4.99985e-06
-7.69966e-10
4.99982e-06
-9.24118e-10
4.99978e-06
-1.04244e-09
4.99974e-06
-1.27647e-09
4.9997e-06
-1.40717e-09
4.99965e-06
-1.7886e-09
4.99961e-06
-1.88327e-09
-2.51697e-09
5e-06
-1.48465e-11
4.99999e-06
-4.34141e-11
4.99999e-06
-7.17778e-11
4.99998e-06
-1.02419e-10
4.99997e-06
-1.35881e-10
4.99996e-06
-1.76972e-10
4.99994e-06
-2.2439e-10
4.99993e-06
-2.85012e-10
4.9999e-06
-3.51252e-10
4.99987e-06
-4.35361e-10
4.99984e-06
-5.18531e-10
4.9998e-06
-6.27778e-10
4.99975e-06
-7.23833e-10
4.9997e-06
-8.71827e-10
4.99964e-06
-9.84023e-10
4.99957e-06
-1.21135e-09
4.9995e-06
-1.33604e-09
4.99942e-06
-1.70958e-09
4.99934e-06
-1.79634e-09
-2.44255e-09
5e-06
-1.2997e-11
4.99999e-06
-3.90504e-11
4.99999e-06
-6.51024e-11
4.99998e-06
-9.31219e-11
4.99996e-06
-1.23468e-10
4.99995e-06
-1.60886e-10
4.99992e-06
-2.03911e-10
4.9999e-06
-2.59612e-10
4.99987e-06
-3.20128e-10
4.99983e-06
-3.97683e-10
4.99978e-06
-4.73082e-10
4.99973e-06
-5.74137e-10
4.99967e-06
-6.60787e-10
4.99959e-06
-7.99621e-10
4.99951e-06
-9.01131e-10
4.99942e-06
-1.11876e-09
4.99931e-06
-1.23269e-09
4.9992e-06
-1.59984e-09
4.99909e-06
-1.68266e-09
-2.29415e-09
5e-06
-1.03312e-11
4.99999e-06
-3.22109e-11
4.99998e-06
-5.48265e-11
4.99996e-06
-7.9667e-11
4.99995e-06
-1.06885e-10
4.99992e-06
-1.40028e-10
4.9999e-06
-1.77963e-10
4.99986e-06
-2.26649e-10
4.99982e-06
-2.79473e-10
4.99977e-06
-3.47682e-10
4.99971e-06
-4.13649e-10
4.99964e-06
-5.03807e-10
4.99956e-06
-5.80506e-10
4.99947e-06
-7.07141e-10
4.99936e-06
-7.97626e-10
4.99924e-06
-9.99881e-10
4.99911e-06
-1.10135e-09
4.99896e-06
-1.44827e-09
4.9988e-06
-1.52048e-09
-2.16324e-09
5e-06
-1.16005e-11
5e-06
-2.97048e-11
4.99999e-06
-4.81807e-11
4.99998e-06
-6.85266e-11
4.99996e-06
-9.03426e-11
4.99993e-06
-1.17518e-10
4.9999e-06
-1.48663e-10
4.99987e-06
-1.89475e-10
4.99982e-06
-2.32876e-10
4.99976e-06
-2.91203e-10
4.99969e-06
-3.4498e-10
4.99961e-06
-4.22908e-10
4.99951e-06
-4.84185e-10
4.9994e-06
-5.96495e-10
4.99927e-06
-6.67733e-10
4.99913e-06
-8.54101e-10
4.99896e-06
-9.33826e-10
4.99878e-06
-1.26852e-09
4.99858e-06
-1.32094e-09
-1.89806e-09
4.99999e-06
-3.0278e-12
4.99998e-06
-1.74349e-11
4.99996e-06
-3.27136e-11
4.99994e-06
-4.96806e-11
4.99991e-06
-6.75792e-11
4.99989e-06
-8.95795e-11
4.99985e-06
-1.14091e-10
4.9998e-06
-1.46485e-10
4.99975e-06
-1.79712e-10
4.99968e-06
-2.2531e-10
4.99961e-06
-2.67125e-10
4.99951e-06
-3.28924e-10
4.9994e-06
-3.76245e-10
4.99927e-06
-4.67464e-10
4.99913e-06
-5.21914e-10
4.99895e-06
-6.78337e-10
4.99876e-06
-7.38002e-10
4.99852e-06
-1.03227e-09
4.99827e-06
-1.07515e-09
-1.68997e-09
5.00001e-06
-1.13567e-11
5e-06
-1.65564e-11
4.99999e-06
-2.5924e-11
4.99998e-06
-3.71333e-11
4.99996e-06
-4.80688e-11
4.99993e-06
-6.27557e-11
4.99989e-06
-7.7875e-11
4.99985e-06
-1.00241e-10
4.99979e-06
-1.219e-10
4.99971e-06
-1.54127e-10
4.99963e-06
-1.80362e-10
4.99952e-06
-2.26015e-10
4.9994e-06
-2.53375e-10
4.99926e-06
-3.24209e-10
4.99909e-06
-3.51569e-10
4.99889e-06
-4.80812e-10
4.99865e-06
-5.02876e-10
4.99838e-06
-7.62164e-10
4.99806e-06
-7.54527e-10
-1.26159e-09
4.99998e-06
1.07119e-11
4.99996e-06
-3.24903e-12
4.99994e-06
-1.11511e-11
4.99992e-06
-1.68468e-11
4.9999e-06
-2.31723e-11
4.99986e-06
-3.08675e-11
4.99982e-06
-3.40318e-11
4.99977e-06
-5.47826e-11
4.99971e-06
-6.23106e-11
4.99963e-06
-7.84409e-11
4.99954e-06
-9.14044e-11
4.99943e-06
-1.1571e-10
4.99931e-06
-1.28283e-10
4.99915e-06
-1.67844e-10
4.99898e-06
-1.76922e-10
4.99875e-06
-2.54276e-10
4.9985e-06
-2.53154e-10
4.99817e-06
-4.28951e-10
4.99783e-06
-4.11643e-10
-8.91877e-10
5.00001e-06
5e-06
4.99999e-06
4.99997e-06
4.99995e-06
4.99991e-06
4.99987e-06
4.99982e-06
4.99976e-06
4.99967e-06
4.99958e-06
4.99947e-06
4.99934e-06
4.99917e-06
4.99899e-06
4.99874e-06
4.99849e-06
4.99806e-06
4.99765e-06
)
;

boundaryField
{
    sides
    {
        type            calculated;
        value           uniform 0;
    }
    inlet
    {
        type            calculated;
        value           nonuniform List<scalar> 
20
(
-5e-06
-5e-06
-5e-06
-5e-06
-5e-06
-5e-06
-5e-06
-5e-06
-5e-06
-5e-06
-5e-06
-5e-06
-5e-06
-5e-06
-5e-06
-5e-06
-5e-06
-5e-06
-5e-06
-5e-06
)
;
    }
    outlet
    {
        type            calculated;
        value           nonuniform List<scalar> 
20
(
5.00325e-06
5.00255e-06
5.00237e-06
5.00193e-06
5.00169e-06
5.00133e-06
5.00106e-06
5.00074e-06
5.00045e-06
5.00015e-06
4.99985e-06
4.99955e-06
4.99926e-06
4.99894e-06
4.99867e-06
4.99831e-06
4.99807e-06
4.99763e-06
4.99746e-06
4.99675e-06
)
;
    }
    frontAndBack
    {
        type            empty;
        value           nonuniform 0();
    }
}


// ************************************************************************* //
