/*--------------------------------*- C++ -*----------------------------------*\
  =========                 |
  \\      /  F ield         | OpenFOAM: The Open Source CFD Toolbox
   \\    /   O peration     | Website:  https://openfoam.org
    \\  /    A nd           | Version:  7
     \\/     M anipulation  |
\*---------------------------------------------------------------------------*/
FoamFile
{
    version     2.0;
    format      ascii;
    class       volVectorField;
    location    "89";
    object      ddtCorrDdt0(hU);
}
// * * * * * * * * * * * * * * * * * * * * * * * * * * * * * * * * * * * * * //

dimensions      [0 2 -2 0 0 0 0];

internalField   nonuniform List<vector> 
400
(
(-3.9573e-11 3.3885e-11 0)
(1.35628e-10 -1.21281e-10 0)
(-2.44557e-11 -2.24576e-11 0)
(-1.17033e-11 2.81205e-10 0)
(3.54077e-10 1.21288e-10 0)
(-1.36997e-09 -5.53419e-10 0)
(-1.39939e-09 -6.82535e-10 0)
(-7.83155e-10 -4.08311e-11 0)
(4.42843e-10 6.55804e-10 0)
(6.33203e-10 3.96247e-11 0)
(4.38989e-11 -8.41447e-11 0)
(-1.57795e-11 -8.49631e-11 0)
(-1.72575e-10 -6.99302e-11 0)
(-2.51345e-10 -6.33248e-12 0)
(-8.40128e-11 5.60648e-11 0)
(1.23848e-10 6.39187e-11 0)
(1.50318e-10 3.5844e-11 0)
(5.01469e-11 -4.46288e-12 0)
(-3.08555e-11 -8.61107e-12 0)
(-6.15135e-11 4.59003e-12 0)
(-1.27404e-11 -9.71203e-12 0)
(3.68264e-11 -1.32433e-10 0)
(5.54473e-11 -4.40032e-12 0)
(1.36275e-10 4.12201e-10 0)
(-5.17283e-10 -8.01581e-11 0)
(1.66639e-09 1.10586e-10 0)
(1.64437e-09 -1.21146e-09 0)
(-8.39715e-10 1.9605e-10 0)
(3.52943e-10 7.66302e-10 0)
(-2.90121e-10 -2.42836e-11 0)
(-1.06278e-10 -9.44197e-11 0)
(9.65424e-12 -1.04495e-10 0)
(-4.42739e-11 -1.24078e-10 0)
(-5.64099e-11 -2.14806e-11 0)
(1.68256e-11 1.1065e-10 0)
(7.33035e-11 1.33626e-10 0)
(3.04861e-11 6.299e-11 0)
(-4.54087e-11 -2.245e-11 0)
(-5.72168e-11 -5.09615e-11 0)
(-3.01649e-11 -1.63111e-11 0)
(1.39733e-10 2.10648e-11 0)
(3.8406e-11 2.80142e-11 0)
(-3.12197e-12 -8.0453e-11 0)
(-4.39372e-11 8.74966e-12 0)
(-8.29745e-11 -2.32969e-10 0)
(9.60955e-12 7.27105e-10 0)
(-6.8752e-10 -1.51678e-10 0)
(1.66672e-09 4.80765e-10 0)
(-1.5308e-10 -1.27747e-11 0)
(-4.81646e-10 -1.07748e-10 0)
(-6.9408e-11 1.35869e-11 0)
(-7.98623e-11 -2.44234e-11 0)
(-4.11881e-11 -8.31974e-11 0)
(1.15661e-10 -3.29492e-11 0)
(1.61488e-10 5.13561e-11 0)
(6.81398e-11 5.68375e-11 0)
(-6.53685e-11 1.24505e-11 0)
(-1.32554e-10 -2.28674e-11 0)
(-8.92317e-11 3.16104e-12 0)
(-1.78979e-11 2.60341e-11 0)
(5.56036e-11 1.26277e-10 0)
(-6.48435e-11 5.16812e-11 0)
(-2.27866e-11 -1.49424e-10 0)
(-6.14137e-11 -2.35001e-10 0)
(1.47375e-10 4.4672e-12 0)
(-7.39252e-11 -1.34338e-10 0)
(1.78621e-10 5.87316e-10 0)
(5.37795e-10 2.33222e-10 0)
(-4.8936e-10 -3.71963e-10 0)
(-2.32194e-10 -4.53287e-11 0)
(4.48893e-11 6.15052e-11 0)
(-8.74051e-11 -1.49654e-11 0)
(-1.2218e-11 -2.91457e-12 0)
(1.54276e-10 2.53133e-11 0)
(1.34392e-10 -6.20597e-14 0)
(-2.26283e-11 -6.51831e-11 0)
(-1.29174e-10 -8.5717e-11 0)
(-1.2344e-10 -4.53612e-11 0)
(-5.12959e-11 4.95247e-11 0)
(5.42135e-12 6.77569e-11 0)
(-6.23578e-11 3.13706e-11 0)
(-1.63357e-10 -6.24427e-12 0)
(-7.85647e-12 -8.43907e-12 0)
(-4.0982e-11 -1.71787e-10 0)
(2.28254e-10 1.25675e-10 0)
(-1.42686e-10 -3.26766e-10 0)
(3.5537e-10 2.80565e-10 0)
(-2.23712e-10 -2.24969e-10 0)
(-4.82315e-10 -2.60118e-10 0)
(1.95546e-10 1.2606e-10 0)
(2.68133e-11 2.48633e-11 0)
(-8.16929e-11 -5.22621e-11 0)
(8.69938e-11 1.63363e-11 0)
(1.36269e-10 8.89758e-12 0)
(1.85594e-11 -9.54816e-11 0)
(-1.20003e-10 -1.7695e-10 0)
(-1.31459e-10 -1.38185e-10 0)
(-2.81971e-11 -3.71168e-11 0)
(5.04381e-11 8.07931e-11 0)
(1.97395e-11 8.80981e-11 0)
(-7.54841e-11 -7.7754e-11 0)
(-9.37828e-11 -4.43636e-11 0)
(1.42588e-11 9.0049e-11 0)
(3.27198e-11 -5.04012e-11 0)
(1.09216e-10 6.9969e-11 0)
(-4.24795e-11 -1.21055e-10 0)
(1.7582e-10 2.09291e-11 0)
(-3.89712e-10 -3.22546e-10 0)
(1.24507e-10 1.04091e-10 0)
(2.11429e-10 1.09694e-10 0)
(-1.60662e-10 -7.58063e-11 0)
(-5.90032e-12 -2.11363e-11 0)
(1.29469e-10 1.5556e-12 0)
(-1.32833e-12 -8.05453e-11 0)
(-1.29975e-10 -1.91477e-10 0)
(-1.24723e-10 -2.30054e-10 0)
(-1.4372e-11 -1.17516e-10 0)
(1.17635e-10 1.00051e-11 0)
(1.5823e-10 1.07629e-10 0)
(3.5361e-11 9.61346e-11 0)
(-5.11765e-11 -8.25428e-11 0)
(1.51287e-11 -3.0686e-11 0)
(1.5999e-11 9.77043e-12 0)
(8.71797e-11 7.3629e-11 0)
(-4.72279e-11 -7.75448e-11 0)
(4.84522e-11 6.72896e-11 0)
(-8.15658e-11 -9.24824e-11 0)
(-7.10586e-11 -4.84368e-11 0)
(2.24597e-10 1.83461e-10 0)
(-7.74852e-11 -7.15747e-11 0)
(-4.79574e-11 -4.19902e-11 0)
(1.42921e-10 6.24337e-11 0)
(4.27298e-11 -5.36934e-11 0)
(-1.579e-10 -1.47073e-10 0)
(-2.24572e-10 -1.50755e-10 0)
(-9.29072e-11 -1.28154e-10 0)
(1.04856e-10 -3.24129e-11 0)
(1.97241e-10 3.61198e-11 0)
(1.67416e-10 7.97274e-11 0)
(3.63879e-11 7.3029e-11 0)
(-6.91769e-12 -4.65756e-11 0)
(7.44962e-11 2.06334e-12 0)
(5.60361e-12 -8.61942e-11 0)
(6.84347e-11 3.83662e-11 0)
(-8.10517e-11 -7.9854e-11 0)
(4.59724e-11 7.30125e-11 0)
(-1.44823e-10 -3.4387e-11 0)
(9.3832e-11 1.49954e-10 0)
(1.03841e-11 8.44716e-11 0)
(-1.01145e-10 -1.9883e-11 0)
(1.6495e-10 5.92637e-11 0)
(4.55882e-11 4.91403e-13 0)
(-1.47455e-10 -1.4162e-10 0)
(-1.38452e-10 -1.47432e-10 0)
(-1.27143e-10 -3.43192e-11 0)
(-3.54852e-11 5.79495e-11 0)
(1.3456e-10 9.96204e-11 0)
(1.81969e-10 5.19718e-11 0)
(9.48646e-11 5.63716e-11 0)
(-1.23019e-11 6.54373e-11 0)
(3.82686e-11 2.07198e-11 0)
(4.90408e-11 -3.8571e-11 0)
(-5.39174e-12 -6.4675e-11 0)
(-3.29956e-12 -1.03129e-10 0)
(-2.713e-11 -2.92153e-11 0)
(3.39359e-12 -1.5027e-11 0)
(-5.1927e-11 3.72538e-11 0)
(6.49826e-11 1.51442e-10 0)
(-6.46966e-11 2.68007e-11 0)
(-6.96305e-12 1.06802e-10 0)
(8.58837e-11 2.16489e-11 0)
(-8.44762e-11 -1.23128e-10 0)
(-9.80927e-11 -9.3012e-11 0)
(4.06957e-11 -5.55322e-11 0)
(4.89572e-11 9.54494e-12 0)
(2.12314e-12 1.28177e-10 0)
(9.34724e-12 1.71846e-10 0)
(2.20184e-12 5.95633e-11 0)
(-4.36209e-11 2.89222e-11 0)
(-4.83449e-11 5.47566e-11 0)
(1.05136e-11 3.14148e-11 0)
(-3.70637e-11 -7.52794e-11 0)
(7.31478e-12 -3.08381e-11 0)
(-3.74198e-11 -1.06344e-10 0)
(2.90707e-11 -1.80774e-11 0)
(-2.9647e-11 -3.8946e-11 0)
(6.51423e-11 4.12735e-11 0)
(-1.88127e-11 9.33395e-11 0)
(-1.4125e-11 3.11246e-11 0)
(4.78982e-12 1.11643e-10 0)
(-1.14017e-10 -1.08226e-11 0)
(-1.83933e-12 -1.07946e-10 0)
(9.44696e-11 -3.81835e-11 0)
(6.57889e-11 -4.51562e-11 0)
(1.12667e-10 -6.0492e-11 0)
(1.14605e-10 2.24481e-11 0)
(-4.0028e-11 9.77235e-11 0)
(-1.78517e-10 4.69595e-11 0)
(-1.82724e-10 5.67656e-11 0)
(-7.3611e-11 7.51194e-11 0)
(-6.18545e-12 -5.22907e-11 0)
(-4.95858e-11 -1.7868e-11 0)
(2.25368e-11 -4.21808e-11 0)
(-4.36306e-11 1.17324e-12 0)
(4.33255e-11 -3.35399e-11 0)
(-4.5066e-11 1.40216e-11 0)
(9.73998e-11 3.04001e-12 0)
(-3.5288e-11 3.43447e-11 0)
(8.58492e-12 6.17225e-11 0)
(2.07738e-11 2.43189e-11 0)
(-1.68282e-10 5.51133e-11 0)
(1.56119e-11 3.12105e-11 0)
(1.32618e-10 -7.49508e-11 0)
(4.24869e-11 -1.18604e-10 0)
(1.0713e-10 -1.11323e-10 0)
(1.45326e-10 -1.25238e-10 0)
(-2.96577e-11 -8.73255e-11 0)
(-1.92337e-10 -2.16559e-11 0)
(-1.97541e-10 9.76479e-11 0)
(-7.88943e-11 1.12706e-10 0)
(2.48241e-11 -6.03905e-11 0)
(3.48778e-11 -1.57218e-11 0)
(1.65026e-11 -4.79898e-11 0)
(-3.07071e-11 4.0908e-11 0)
(3.54414e-12 -4.57441e-11 0)
(-3.00574e-11 2.90918e-11 0)
(1.4948e-11 -7.96646e-12 0)
(5.15233e-11 -4.21783e-11 0)
(-3.46693e-11 8.35731e-11 0)
(5.77305e-11 -4.8714e-11 0)
(9.48753e-13 3.21278e-11 0)
(-1.09082e-10 1.12577e-10 0)
(-5.11665e-11 -4.06878e-11 0)
(4.7857e-11 -1.21413e-10 0)
(7.16434e-11 -1.41591e-10 0)
(3.47838e-11 -2.22799e-10 0)
(1.92853e-12 -1.89095e-10 0)
(-8.01389e-12 -5.09488e-11 0)
(-3.64489e-11 1.07586e-10 0)
(-5.05367e-11 1.19393e-10 0)
(-5.62272e-12 1.77805e-11 0)
(7.60493e-11 -6.17873e-11 0)
(6.91938e-12 -1.69638e-11 0)
(3.9263e-11 -8.91234e-11 0)
(-6.07841e-11 -1.73084e-11 0)
(2.17691e-11 -4.68317e-11 0)
(-1.26736e-10 6.63725e-11 0)
(1.29196e-10 -8.18303e-11 0)
(-3.06981e-11 6.7002e-11 0)
(-2.57096e-11 2.82391e-11 0)
(2.13919e-10 -7.4189e-11 0)
(-1.20241e-11 -9.25508e-12 0)
(-1.75139e-10 1.76738e-11 0)
(-7.97095e-11 -2.9361e-11 0)
(-5.50993e-11 -1.15124e-10 0)
(-4.03738e-11 -1.88467e-10 0)
(7.96797e-11 -1.2821e-10 0)
(1.53151e-10 -2.30235e-11 0)
(9.16168e-11 8.24471e-11 0)
(-2.18228e-12 9.40067e-11 0)
(-4.66326e-11 6.02479e-11 0)
(2.93431e-11 -3.57405e-11 0)
(-1.0312e-11 -4.50082e-11 0)
(8.52775e-11 -1.85903e-10 0)
(-7.90848e-11 3.22287e-11 0)
(7.92023e-11 -1.3227e-10 0)
(-1.60204e-10 1.34264e-10 0)
(4.21151e-11 -2.27908e-11 0)
(1.51437e-10 -8.63894e-11 0)
(-1.4822e-10 1.27924e-10 0)
(6.83967e-11 -2.18817e-11 0)
(1.62203e-10 -1.30957e-10 0)
(-1.52727e-11 -3.07097e-11 0)
(-1.38099e-10 2.35504e-11 0)
(-1.66297e-10 -5.03842e-12 0)
(-7.3382e-11 -3.3356e-11 0)
(8.96589e-11 -1.95999e-11 0)
(1.7901e-10 -1.94402e-11 0)
(1.55745e-10 3.00671e-11 0)
(5.32297e-11 6.26908e-11 0)
(-5.91827e-11 4.95031e-11 0)
(-6.55719e-11 4.61864e-12 0)
(-2.15434e-11 -1.13357e-10 0)
(4.32103e-11 -7.24392e-11 0)
(-5.28794e-12 -1.79423e-11 0)
(2.39024e-11 -1.08008e-11 0)
(2.41937e-12 1.01843e-10 0)
(-3.13493e-10 2.8331e-10 0)
(2.92578e-10 -1.63164e-10 0)
(1.14389e-10 1.02846e-13 0)
(-1.11873e-10 6.52626e-11 0)
(1.06461e-10 -9.693e-11 0)
(1.4408e-10 -1.25067e-10 0)
(-2.85667e-11 -5.18808e-11 0)
(-1.34992e-10 3.46239e-11 0)
(-1.20714e-10 7.47102e-11 0)
(-3.17768e-11 6.17339e-11 0)
(7.51157e-11 -1.39953e-12 0)
(1.30617e-10 2.04964e-11 0)
(7.74815e-11 5.19918e-11 0)
(-3.39501e-11 -4.35531e-11 0)
(-1.36836e-10 7.44248e-12 0)
(-2.40792e-11 -5.13356e-11 0)
(-3.76587e-11 1.31429e-10 0)
(1.39234e-10 -1.49657e-10 0)
(-1.24201e-10 2.62596e-10 0)
(3.36823e-10 -2.23201e-10 0)
(-5.11392e-10 3.42708e-10 0)
(-2.26589e-10 1.11925e-10 0)
(3.25547e-10 -1.62932e-10 0)
(-6.84244e-12 -1.59606e-11 0)
(-1.55497e-11 -3.01071e-11 0)
(1.32843e-10 -1.30048e-10 0)
(1.02588e-10 -1.17633e-10 0)
(-4.82793e-12 -1.04933e-11 0)
(-1.03969e-10 6.61137e-11 0)
(-1.15751e-10 7.67836e-11 0)
(-3.07858e-11 1.61416e-11 0)
(4.55823e-11 -1.20928e-12 0)
(5.37075e-11 2.15674e-11 0)
(7.15813e-11 -1.16139e-10 0)
(-6.31782e-11 -4.98183e-11 0)
(-6.1347e-12 3.71204e-11 0)
(-1.36787e-10 2.36979e-10 0)
(1.78201e-10 -1.21732e-10 0)
(-2.4901e-10 2.49923e-10 0)
(3.567e-10 -7.9973e-10 0)
(2.81095e-10 2.0953e-10 0)
(-5.6186e-10 3.76434e-10 0)
(9.11477e-13 -4.48071e-11 0)
(1.41917e-10 -9.93388e-11 0)
(-1.02095e-11 -4.73419e-11 0)
(6.94143e-11 -1.02596e-10 0)
(1.59247e-10 -1.32613e-10 0)
(1.06949e-10 -8.71161e-11 0)
(-3.75101e-11 -1.24947e-11 0)
(-1.27678e-10 5.27984e-11 0)
(-1.15539e-10 3.64761e-11 0)
(-5.63111e-11 2.16445e-11 0)
(3.34074e-11 2.66763e-11 0)
(1.50765e-10 -5.40616e-12 0)
(-3.32564e-12 -4.37601e-11 0)
(2.56568e-11 4.66172e-11 0)
(-1.47483e-10 6.45963e-12 0)
(2.23788e-11 1.78332e-10 0)
(-3.20102e-10 -4.54018e-10 0)
(2.05251e-10 -1.32766e-09 0)
(9.11264e-10 1.56171e-10 0)
(-6.68698e-10 2.21929e-10 0)
(-3.28869e-10 5.96113e-11 0)
(6.2379e-11 -5.10823e-11 0)
(2.39622e-11 -2.70926e-12 0)
(5.25042e-11 7.98978e-12 0)
(1.41889e-10 -5.95145e-11 0)
(1.36644e-10 -1.20866e-10 0)
(3.17193e-11 -9.934e-11 0)
(-7.44138e-11 -9.45336e-12 0)
(-1.21824e-10 3.60165e-11 0)
(-8.77294e-11 5.76552e-11 0)
(3.71526e-11 4.47643e-11 0)
(-3.29988e-11 3.62731e-11 0)
(4.22124e-11 9.47729e-11 0)
(4.27189e-11 7.92206e-11 0)
(1.11444e-10 -4.29871e-10 0)
(-3.65841e-10 6.39757e-11 0)
(-1.05562e-10 -2.68126e-10 0)
(-8.72875e-11 2.83137e-09 0)
(6.86795e-09 -1.28283e-09 0)
(-6.34886e-10 -4.18611e-10 0)
(-3.73784e-10 3.24038e-10 0)
(9.0251e-11 2.11735e-10 0)
(1.08506e-10 1.35904e-10 0)
(2.38155e-11 9.22299e-11 0)
(3.18073e-12 -1.82202e-11 0)
(4.08034e-11 -1.277e-10 0)
(6.43399e-11 -1.36422e-10 0)
(2.60338e-11 -5.30756e-11 0)
(-3.4801e-11 2.84414e-11 0)
(-4.69496e-11 6.33275e-11 0)
(2.27648e-11 3.91967e-11 0)
(-5.84323e-11 -1.49245e-11 0)
(1.4557e-10 8.72623e-11 0)
(-8.73014e-11 5.61034e-11 0)
(-8.86985e-12 -3.16342e-10 0)
(1.19411e-11 -1.30825e-10 0)
(6.33969e-10 2.42751e-10 0)
(-6.93399e-10 3.61487e-09 0)
(-7.46014e-09 -1.30312e-09 0)
(1.75314e-09 -4.28531e-10 0)
(5.01902e-10 3.17359e-10 0)
(-1.58915e-10 2.09676e-10 0)
(-1.1108e-10 9.05485e-11 0)
(-1.51587e-10 2.2543e-11 0)
(-1.58153e-10 -3.93284e-11 0)
(-2.91674e-11 -8.2224e-11 0)
(1.13372e-10 -7.35268e-11 0)
(1.3273e-10 -2.03654e-11 0)
(5.46941e-11 2.70893e-11 0)
(-1.47057e-11 5.59979e-11 0)
(6.01061e-13 3.4465e-11 0)
)
;

boundaryField
{
    sides
    {
        type            calculated;
        value           nonuniform List<vector> 
40
(
(-5.84323e-11 0 0)
(1.4557e-10 0 0)
(-8.73014e-11 0 0)
(-8.86985e-12 0 0)
(1.19411e-11 0 0)
(6.33969e-10 0 0)
(-6.93399e-10 0 0)
(-7.46014e-09 0 0)
(1.75314e-09 0 0)
(5.01902e-10 0 0)
(-1.58915e-10 0 0)
(-1.1108e-10 0 0)
(-1.51587e-10 0 0)
(-1.58153e-10 0 0)
(-2.91674e-11 0 0)
(1.13372e-10 0 0)
(1.3273e-10 0 0)
(5.46941e-11 0 0)
(-1.47057e-11 0 0)
(6.01061e-13 0 0)
(-3.9573e-11 0 0)
(1.35628e-10 0 0)
(-2.44557e-11 0 0)
(-1.17033e-11 0 0)
(3.54077e-10 0 0)
(-1.36997e-09 0 0)
(-1.39939e-09 0 0)
(-7.83155e-10 0 0)
(4.42843e-10 0 0)
(6.33203e-10 0 0)
(4.38989e-11 0 0)
(-1.57795e-11 0 0)
(-1.72575e-10 0 0)
(-2.51345e-10 0 0)
(-8.40128e-11 0 0)
(1.23848e-10 0 0)
(1.50318e-10 0 0)
(5.01469e-11 0 0)
(-3.08555e-11 0 0)
(-6.15135e-11 0 0)
)
;
    }
    inlet
    {
        type            calculated;
        value           uniform (0 0 0);
    }
    outlet
    {
        type            calculated;
        value           nonuniform List<vector> 
20
(
(-6.15135e-11 4.59003e-12 0)
(-3.01649e-11 -1.63111e-11 0)
(-1.78979e-11 2.60341e-11 0)
(5.42135e-12 6.77569e-11 0)
(1.97395e-11 8.80981e-11 0)
(3.5361e-11 9.61346e-11 0)
(3.63879e-11 7.3029e-11 0)
(-1.23019e-11 6.54373e-11 0)
(-4.83449e-11 5.47566e-11 0)
(-7.3611e-11 7.51194e-11 0)
(-7.88943e-11 1.12706e-10 0)
(-5.05367e-11 1.19393e-10 0)
(-2.18228e-12 9.40067e-11 0)
(5.32297e-11 6.26908e-11 0)
(7.74815e-11 5.19918e-11 0)
(5.37075e-11 2.15674e-11 0)
(3.34074e-11 2.66763e-11 0)
(3.71526e-11 4.47643e-11 0)
(2.27648e-11 3.91967e-11 0)
(6.01061e-13 3.4465e-11 0)
)
;
    }
    frontAndBack
    {
        type            empty;
    }
}


// ************************************************************************* //
