/*--------------------------------*- C++ -*----------------------------------*\
  =========                 |
  \\      /  F ield         | OpenFOAM: The Open Source CFD Toolbox
   \\    /   O peration     | Website:  https://openfoam.org
    \\  /    A nd           | Version:  7
     \\/     M anipulation  |
\*---------------------------------------------------------------------------*/
FoamFile
{
    version     2.0;
    format      ascii;
    class       volVectorField;
    location    "89";
    object      hU;
}
// * * * * * * * * * * * * * * * * * * * * * * * * * * * * * * * * * * * * * //

dimensions      [0 2 -1 0 0 0 0];

internalField   nonuniform List<vector> 
400
(
(0.001 -8.71236e-09 0)
(0.000999999 -2.37684e-08 0)
(0.001 -3.60211e-08 0)
(0.001 -4.67021e-08 0)
(0.00100001 -5.68509e-08 0)
(0.00100001 -6.74221e-08 0)
(0.00100002 -7.80713e-08 0)
(0.00100003 -8.92251e-08 0)
(0.00100004 -9.99122e-08 0)
(0.00100006 -1.11935e-07 0)
(0.00100007 -1.22681e-07 0)
(0.0010001 -1.36184e-07 0)
(0.00100011 -1.46536e-07 0)
(0.00100015 -1.63338e-07 0)
(0.00100017 -1.72154e-07 0)
(0.00100024 -1.96282e-07 0)
(0.00100026 -2.00785e-07 0)
(0.00100038 -2.43026e-07 0)
(0.00100038 -2.39163e-07 0)
(0.00100061 -3.3185e-07 0)
(0.001 4.0079e-09 0)
(0.001 1.20856e-08 0)
(0.00100001 2.01925e-08 0)
(0.00100001 2.79571e-08 0)
(0.00100002 3.51831e-08 0)
(0.00100002 4.16778e-08 0)
(0.00100003 4.76816e-08 0)
(0.00100004 5.30855e-08 0)
(0.00100005 5.84648e-08 0)
(0.00100007 6.22966e-08 0)
(0.00100008 6.69405e-08 0)
(0.0010001 6.85536e-08 0)
(0.00100012 7.26702e-08 0)
(0.00100016 6.98733e-08 0)
(0.00100018 7.40373e-08 0)
(0.00100023 6.16883e-08 0)
(0.00100026 6.71732e-08 0)
(0.00100035 3.17694e-08 0)
(0.00100037 3.98664e-08 0)
(0.0010005 -5.45787e-08 0)
(0.001 -3.96173e-09 0)
(0.000999999 -1.30202e-08 0)
(0.001 -2.30611e-08 0)
(0.001 -3.36526e-08 0)
(0.00100001 -4.42019e-08 0)
(0.00100001 -5.49294e-08 0)
(0.00100002 -6.56208e-08 0)
(0.00100003 -7.72683e-08 0)
(0.00100004 -8.88612e-08 0)
(0.00100005 -1.02546e-07 0)
(0.00100006 -1.15285e-07 0)
(0.00100009 -1.32439e-07 0)
(0.0010001 -1.46527e-07 0)
(0.00100014 -1.70021e-07 0)
(0.00100016 -1.8511e-07 0)
(0.00100021 -2.21104e-07 0)
(0.00100023 -2.35653e-07 0)
(0.00100031 -2.97559e-07 0)
(0.00100033 -3.06186e-07 0)
(0.00100046 -4.22165e-07 0)
(0.001 -1.55301e-10 0)
(0.001 -3.01188e-11 0)
(0.00100001 6.27676e-10 0)
(0.00100001 1.33199e-09 0)
(0.00100001 2.03157e-09 0)
(0.00100002 1.94866e-09 0)
(0.00100003 1.60799e-09 0)
(0.00100004 -3.16519e-10 0)
(0.00100004 -2.40501e-09 0)
(0.00100006 -7.07866e-09 0)
(0.00100007 -1.12333e-08 0)
(0.00100009 -2.04939e-08 0)
(0.00100011 -2.71842e-08 0)
(0.00100013 -4.42657e-08 0)
(0.00100016 -5.35287e-08 0)
(0.00100019 -8.49473e-08 0)
(0.00100022 -9.54534e-08 0)
(0.00100028 -1.54636e-07 0)
(0.0010003 -1.60925e-07 0)
(0.00100039 -2.75844e-07 0)
(0.001 -2.91024e-09 0)
(0.001 -9.23127e-09 0)
(0.001 -1.62861e-08 0)
(0.001 -2.43425e-08 0)
(0.00100001 -3.3002e-08 0)
(0.00100001 -4.27276e-08 0)
(0.00100002 -5.28024e-08 0)
(0.00100002 -6.45265e-08 0)
(0.00100003 -7.64648e-08 0)
(0.00100004 -9.12306e-08 0)
(0.00100005 -1.05627e-07 0)
(0.00100007 -1.25422e-07 0)
(0.00100009 -1.42753e-07 0)
(0.00100011 -1.70937e-07 0)
(0.00100013 -1.91225e-07 0)
(0.00100016 -2.34307e-07 0)
(0.00100018 -2.55753e-07 0)
(0.00100024 -3.2651e-07 0)
(0.00100025 -3.41487e-07 0)
(0.00100033 -4.64383e-07 0)
(0.001 -2.5723e-09 0)
(0.001 -7.53017e-09 0)
(0.001 -1.2179e-08 0)
(0.00100001 -1.6899e-08 0)
(0.00100001 -2.16491e-08 0)
(0.00100001 -2.71907e-08 0)
(0.00100002 -3.31359e-08 0)
(0.00100002 -4.08126e-08 0)
(0.00100003 -4.88992e-08 0)
(0.00100004 -6.01529e-08 0)
(0.00100005 -7.1322e-08 0)
(0.00100006 -8.82842e-08 0)
(0.00100008 -1.03228e-07 0)
(0.0010001 -1.29477e-07 0)
(0.00100011 -1.48339e-07 0)
(0.00100014 -1.9025e-07 0)
(0.00100016 -2.10954e-07 0)
(0.0010002 -2.80454e-07 0)
(0.00100021 -2.94495e-07 0)
(0.00100027 -4.14981e-07 0)
(0.001 -2.90011e-09 0)
(0.001 -8.87356e-09 0)
(0.001 -1.51551e-08 0)
(0.001 -2.21727e-08 0)
(0.00100001 -2.9886e-08 0)
(0.00100001 -3.88596e-08 0)
(0.00100001 -4.86517e-08 0)
(0.00100002 -6.04192e-08 0)
(0.00100002 -7.28605e-08 0)
(0.00100003 -8.86778e-08 0)
(0.00100004 -1.04538e-07 0)
(0.00100005 -1.26426e-07 0)
(0.00100006 -1.46375e-07 0)
(0.00100007 -1.77873e-07 0)
(0.00100009 -2.01833e-07 0)
(0.00100011 -2.49169e-07 0)
(0.00100012 -2.74661e-07 0)
(0.00100015 -3.49498e-07 0)
(0.00100016 -3.67195e-07 0)
(0.00100021 -4.92185e-07 0)
(0.001 -3.19149e-09 0)
(0.001 -9.75211e-09 0)
(0.001 -1.65476e-08 0)
(0.001 -2.39057e-08 0)
(0.001 -3.17289e-08 0)
(0.00100001 -4.05955e-08 0)
(0.00100001 -5.00839e-08 0)
(0.00100001 -6.14383e-08 0)
(0.00100002 -7.34575e-08 0)
(0.00100002 -8.88448e-08 0)
(0.00100003 -1.04382e-07 0)
(0.00100004 -1.26047e-07 0)
(0.00100004 -1.45949e-07 0)
(0.00100005 -1.77461e-07 0)
(0.00100006 -2.01705e-07 0)
(0.00100008 -2.49192e-07 0)
(0.00100009 -2.7517e-07 0)
(0.00100011 -3.4976e-07 0)
(0.00100012 -3.67601e-07 0)
(0.00100015 -4.90834e-07 0)
(0.001 -3.36296e-09 0)
(0.001 -1.02504e-08 0)
(0.001 -1.7329e-08 0)
(0.001 -2.49766e-08 0)
(0.001 -3.30921e-08 0)
(0.001 -4.23774e-08 0)
(0.00100001 -5.24108e-08 0)
(0.00100001 -6.452e-08 0)
(0.00100001 -7.7466e-08 0)
(0.00100001 -9.39711e-08 0)
(0.00100002 -1.10799e-07 0)
(0.00100002 -1.33946e-07 0)
(0.00100003 -1.55398e-07 0)
(0.00100003 -1.88697e-07 0)
(0.00100004 -2.14663e-07 0)
(0.00100005 -2.64131e-07 0)
(0.00100005 -2.9169e-07 0)
(0.00100007 -3.68285e-07 0)
(0.00100007 -3.87154e-07 0)
(0.00100009 -5.1248e-07 0)
(0.001 -3.44782e-09 0)
(0.001 -1.04901e-08 0)
(0.001 -1.77162e-08 0)
(0.001 -2.55404e-08 0)
(0.001 -3.38766e-08 0)
(0.001 -4.34391e-08 0)
(0.001 -5.38046e-08 0)
(0.001 -6.62878e-08 0)
(0.001 -7.96249e-08 0)
(0.001 -9.65227e-08 0)
(0.00100001 -1.13754e-07 0)
(0.00100001 -1.37277e-07 0)
(0.00100001 -1.59136e-07 0)
(0.00100001 -1.92797e-07 0)
(0.00100001 -2.19188e-07 0)
(0.00100002 -2.68938e-07 0)
(0.00100002 -2.96891e-07 0)
(0.00100002 -3.73538e-07 0)
(0.00100002 -3.927e-07 0)
(0.00100003 -5.17458e-07 0)
(0.001 -3.45881e-09 0)
(0.001 -1.04879e-08 0)
(0.001 -1.77163e-08 0)
(0.000999999 -2.55285e-08 0)
(0.000999999 -3.38745e-08 0)
(0.000999999 -4.34326e-08 0)
(0.000999998 -5.38074e-08 0)
(0.000999997 -6.62901e-08 0)
(0.000999996 -7.96234e-08 0)
(0.000999995 -9.65272e-08 0)
(0.000999994 -1.13745e-07 0)
(0.000999993 -1.37269e-07 0)
(0.000999991 -1.59145e-07 0)
(0.000999989 -1.92809e-07 0)
(0.000999987 -2.192e-07 0)
(0.000999984 -2.68953e-07 0)
(0.000999982 -2.969e-07 0)
(0.000999978 -3.73525e-07 0)
(0.000999976 -3.92675e-07 0)
(0.00099997 -5.17442e-07 0)
(0.001 -3.38059e-09 0)
(0.001 -1.02529e-08 0)
(0.000999999 -1.73251e-08 0)
(0.000999998 -2.49545e-08 0)
(0.000999997 -3.3087e-08 0)
(0.000999996 -4.23686e-08 0)
(0.000999994 -5.24157e-08 0)
(0.000999992 -6.45305e-08 0)
(0.000999989 -7.74627e-08 0)
(0.000999986 -9.39789e-08 0)
(0.000999983 -1.10788e-07 0)
(0.000999978 -1.33926e-07 0)
(0.000999973 -1.55402e-07 0)
(0.000999967 -1.88709e-07 0)
(0.000999961 -2.14684e-07 0)
(0.000999952 -2.64151e-07 0)
(0.000999946 -2.91694e-07 0)
(0.000999934 -3.6823e-07 0)
(0.00099993 -3.87078e-07 0)
(0.000999911 -5.12398e-07 0)
(0.001 -3.19727e-09 0)
(0.001 -9.7607e-09 0)
(0.000999999 -1.65376e-08 0)
(0.000999997 -2.39042e-08 0)
(0.000999996 -3.1722e-08 0)
(0.000999993 -4.06021e-08 0)
(0.000999991 -5.00803e-08 0)
(0.000999987 -6.14568e-08 0)
(0.000999983 -7.3459e-08 0)
(0.000999977 -8.88438e-08 0)
(0.000999971 -1.04389e-07 0)
(0.000999964 -1.26042e-07 0)
(0.000999956 -1.45942e-07 0)
(0.000999945 -1.77465e-07 0)
(0.000999936 -2.0173e-07 0)
(0.000999921 -2.49222e-07 0)
(0.000999911 -2.75193e-07 0)
(0.000999889 -3.49743e-07 0)
(0.000999882 -3.67569e-07 0)
(0.000999852 -4.90804e-07 0)
(0.001 -2.88955e-09 0)
(0.000999999 -8.87481e-09 0)
(0.000999998 -1.51574e-08 0)
(0.000999996 -2.21956e-08 0)
(0.000999994 -2.98796e-08 0)
(0.000999991 -3.88762e-08 0)
(0.000999987 -4.86314e-08 0)
(0.000999982 -6.04182e-08 0)
(0.000999977 -7.28708e-08 0)
(0.000999969 -8.86535e-08 0)
(0.000999962 -1.04527e-07 0)
(0.000999951 -1.26414e-07 0)
(0.000999941 -1.46344e-07 0)
(0.000999925 -1.77823e-07 0)
(0.000999913 -2.01794e-07 0)
(0.000999891 -2.49119e-07 0)
(0.000999878 -2.74626e-07 0)
(0.000999847 -3.49422e-07 0)
(0.000999839 -3.6712e-07 0)
(0.000999792 -4.92042e-07 0)
(0.001 -2.55009e-09 0)
(0.000999999 -7.5249e-09 0)
(0.000999997 -1.22044e-08 0)
(0.000999995 -1.69232e-08 0)
(0.000999991 -2.16642e-08 0)
(0.000999987 -2.71977e-08 0)
(0.000999982 -3.31275e-08 0)
(0.000999975 -4.07831e-08 0)
(0.000999968 -4.89326e-08 0)
(0.000999959 -6.01688e-08 0)
(0.000999949 -7.13275e-08 0)
(0.000999935 -8.82974e-08 0)
(0.000999922 -1.03236e-07 0)
(0.000999903 -1.29465e-07 0)
(0.000999886 -1.48322e-07 0)
(0.000999859 -1.9023e-07 0)
(0.000999841 -2.10964e-07 0)
(0.000999802 -2.80472e-07 0)
(0.000999787 -2.94528e-07 0)
(0.000999731 -4.14978e-07 0)
(0.001 -2.895e-09 0)
(0.001 -9.22872e-09 0)
(0.000999999 -1.63057e-08 0)
(0.000999997 -2.43313e-08 0)
(0.000999994 -3.3017e-08 0)
(0.00099999 -4.26754e-08 0)
(0.000999984 -5.28174e-08 0)
(0.000999977 -6.44611e-08 0)
(0.000999969 -7.64403e-08 0)
(0.000999958 -9.12456e-08 0)
(0.000999946 -1.05628e-07 0)
(0.00099993 -1.25412e-07 0)
(0.000999915 -1.4275e-07 0)
(0.000999891 -1.70905e-07 0)
(0.000999872 -1.91185e-07 0)
(0.000999837 -2.34231e-07 0)
(0.000999817 -2.55708e-07 0)
(0.000999764 -3.26437e-07 0)
(0.000999752 -3.41454e-07 0)
(0.00099967 -4.64242e-07 0)
(0.001 -1.52719e-10 0)
(0.000999998 -4.7965e-11 0)
(0.000999995 6.08617e-10 0)
(0.000999991 1.36298e-09 0)
(0.000999986 2.03864e-09 0)
(0.00099998 1.99846e-09 0)
(0.000999973 1.51234e-09 0)
(0.000999965 -2.85777e-10 0)
(0.000999955 -2.35295e-09 0)
(0.000999943 -7.09385e-09 0)
(0.00099993 -1.12606e-08 0)
(0.000999912 -2.05082e-08 0)
(0.000999894 -2.72019e-08 0)
(0.000999867 -4.427e-08 0)
(0.000999845 -5.35271e-08 0)
(0.000999805 -8.49171e-08 0)
(0.000999779 -9.54305e-08 0)
(0.00099972 -1.546e-07 0)
(0.000999699 -1.60916e-07 0)
(0.000999611 -2.75795e-07 0)
(0.001 -3.97797e-09 0)
(0.001 -1.30237e-08 0)
(0.001 -2.30449e-08 0)
(0.000999998 -3.36391e-08 0)
(0.000999995 -4.41534e-08 0)
(0.000999989 -5.49913e-08 0)
(0.000999983 -6.57039e-08 0)
(0.000999974 -7.73714e-08 0)
(0.000999963 -8.88576e-08 0)
(0.000999949 -1.02534e-07 0)
(0.000999936 -1.1529e-07 0)
(0.000999914 -1.32435e-07 0)
(0.000999896 -1.46537e-07 0)
(0.000999864 -1.70031e-07 0)
(0.000999841 -1.85143e-07 0)
(0.000999791 -2.21097e-07 0)
(0.000999767 -2.3566e-07 0)
(0.000999687 -2.97509e-07 0)
(0.000999672 -3.06181e-07 0)
(0.000999539 -4.22086e-07 0)
(0.001 3.95524e-09 0)
(0.000999996 1.21123e-08 0)
(0.000999991 2.02695e-08 0)
(0.000999987 2.79214e-08 0)
(0.000999982 3.51333e-08 0)
(0.000999976 4.15899e-08 0)
(0.000999969 4.79081e-08 0)
(0.000999959 5.29969e-08 0)
(0.000999948 5.84157e-08 0)
(0.000999934 6.23587e-08 0)
(0.000999919 6.69853e-08 0)
(0.000999897 6.8583e-08 0)
(0.000999878 7.26736e-08 0)
(0.000999845 6.98695e-08 0)
(0.000999819 7.40175e-08 0)
(0.000999767 6.1712e-08 0)
(0.000999738 6.72038e-08 0)
(0.000999654 3.18648e-08 0)
(0.000999629 3.99414e-08 0)
(0.000999496 -5.44451e-08 0)
(0.001 -8.74736e-09 0)
(0.001 -2.37521e-08 0)
(0.001 -3.59729e-08 0)
(0.000999997 -4.67378e-08 0)
(0.000999993 -5.69433e-08 0)
(0.000999986 -6.74487e-08 0)
(0.000999979 -7.7851e-08 0)
(0.000999968 -8.92288e-08 0)
(0.000999958 -9.99698e-08 0)
(0.000999942 -1.11924e-07 0)
(0.000999928 -1.2269e-07 0)
(0.000999903 -1.36217e-07 0)
(0.000999886 -1.46591e-07 0)
(0.000999846 -1.63403e-07 0)
(0.000999826 -1.72227e-07 0)
(0.00099976 -1.96346e-07 0)
(0.000999742 -2.00847e-07 0)
(0.000999623 -2.43087e-07 0)
(0.000999618 -2.3923e-07 0)
(0.000999394 -3.31973e-07 0)
)
;

boundaryField
{
    sides
    {
        type            slip;
    }
    inlet
    {
        type            fixedValue;
        value           uniform (0.001 0 0);
    }
    outlet
    {
        type            zeroGradient;
    }
    frontAndBack
    {
        type            empty;
    }
}


// ************************************************************************* //
