/*--------------------------------*- C++ -*----------------------------------*\
  =========                 |
  \\      /  F ield         | OpenFOAM: The Open Source CFD Toolbox
   \\    /   O peration     | Website:  https://openfoam.org
    \\  /    A nd           | Version:  7
     \\/     M anipulation  |
\*---------------------------------------------------------------------------*/
FoamFile
{
    version     2.0;
    format      ascii;
    class       surfaceScalarField;
    location    "89";
    object      phi_0;
}
// * * * * * * * * * * * * * * * * * * * * * * * * * * * * * * * * * * * * * //

dimensions      [0 4 -1 0 0 0 0];

internalField   nonuniform List<scalar> 
760
(
4.99999e-06
1.01861e-11
4.99999e-06
-4.38724e-12
5.00001e-06
-1.30699e-11
5.00003e-06
-1.94459e-11
5.00005e-06
-2.64067e-11
5.00009e-06
-2.98707e-11
5.00013e-06
-3.76323e-11
5.00018e-06
-5.6423e-11
5.00025e-06
-6.26383e-11
5.00032e-06
-7.81878e-11
5.00041e-06
-9.01665e-11
5.00053e-06
-1.14036e-10
5.00066e-06
-1.26888e-10
5.00082e-06
-1.67764e-10
5.001e-06
-1.78001e-10
5.00126e-06
-2.56826e-10
5.00151e-06
-2.56174e-10
5.00195e-06
-4.31744e-10
5.00236e-06
-4.1412e-10
-8.91613e-10
5.00002e-06
-1.16556e-11
5.00004e-06
-1.89556e-11
5.00005e-06
-2.94042e-11
5.00008e-06
-4.17995e-11
5.0001e-06
-5.42234e-11
5.00014e-06
-6.87908e-11
5.00018e-06
-8.39492e-11
5.00023e-06
-1.03963e-10
5.00029e-06
-1.23806e-10
5.00037e-06
-1.53296e-10
5.00045e-06
-1.77136e-10
5.00056e-06
-2.22143e-10
5.00069e-06
-2.50314e-10
5.00084e-06
-3.24056e-10
5.00102e-06
-3.53838e-10
5.00125e-06
-4.86047e-10
5.0015e-06
-5.09196e-10
5.00184e-06
-7.6789e-10
5.00218e-06
-7.59868e-10
-1.26202e-09
4.99999e-06
-4.64822e-12
4.99999e-06
-2.03008e-11
5e-06
-3.75169e-11
5.00002e-06
-5.65804e-11
5.00004e-06
-7.63097e-11
5.00007e-06
-9.91747e-11
5.00011e-06
-1.22239e-10
5.00016e-06
-1.52586e-10
5.00021e-06
-1.82633e-10
5.00029e-06
-2.23889e-10
5.00037e-06
-2.62434e-10
5.00047e-06
-3.23363e-10
5.00059e-06
-3.71922e-10
5.00074e-06
-4.67423e-10
5.00091e-06
-5.25639e-10
5.00111e-06
-6.86651e-10
5.00135e-06
-7.47829e-10
5.00162e-06
-1.04106e-09
5.00194e-06
-1.08308e-09
-1.68956e-09
5.00001e-06
-1.2731e-11
5.00002e-06
-3.32725e-11
5.00004e-06
-5.41194e-11
5.00006e-06
-7.73765e-11
5.00008e-06
-1.01625e-10
5.00012e-06
-1.30356e-10
5.00015e-06
-1.60123e-10
5.0002e-06
-1.98044e-10
5.00025e-06
-2.36255e-10
5.00032e-06
-2.88832e-10
5.00039e-06
-3.38504e-10
5.00049e-06
-4.15362e-10
5.00059e-06
-4.78339e-10
5.00072e-06
-5.96337e-10
5.00087e-06
-6.72659e-10
5.00105e-06
-8.64888e-10
5.00124e-06
-9.46717e-10
5.00148e-06
-1.2798e-09
5.00173e-06
-1.33123e-09
-1.89803e-09
5e-06
-1.16898e-11
5e-06
-3.63883e-11
5.00001e-06
-6.18101e-11
5.00002e-06
-8.97865e-11
5.00004e-06
-1.19679e-10
5.00006e-06
-1.5414e-10
5.0001e-06
-1.91203e-10
5.00013e-06
-2.36358e-10
5.00018e-06
-2.83435e-10
5.00024e-06
-3.4557e-10
5.00031e-06
-4.06865e-10
5.00039e-06
-4.95664e-10
5.00048e-06
-5.74153e-10
5.00059e-06
-7.07152e-10
5.00072e-06
-8.03318e-10
5.00087e-06
-1.01229e-09
5.00104e-06
-1.11623e-09
5.00122e-06
-1.46133e-09
5.00142e-06
-1.5326e-09
-2.16286e-09
5e-06
-1.38781e-11
5.00001e-06
-4.30614e-11
5.00002e-06
-7.27191e-11
5.00003e-06
-1.04593e-10
5.00005e-06
-1.38591e-10
5.00008e-06
-1.77536e-10
5.00011e-06
-2.1963e-10
5.00014e-06
-2.70689e-10
5.00018e-06
-3.24558e-10
5.00023e-06
-3.94723e-10
5.00029e-06
-4.6436e-10
5.00036e-06
-5.63921e-10
5.00043e-06
-6.53088e-10
5.00053e-06
-7.99862e-10
5.00063e-06
-9.08411e-10
5.00075e-06
-1.13405e-09
5.00089e-06
-1.25079e-09
5.00104e-06
-1.61564e-09
5.00121e-06
-1.69709e-09
-2.2936e-09
5e-06
-1.56215e-11
5.00001e-06
-4.74742e-11
5.00001e-06
-8.00327e-11
5.00002e-06
-1.14715e-10
5.00004e-06
-1.51814e-10
5.00005e-06
-1.94639e-10
5.00008e-06
-2.40982e-10
5.0001e-06
-2.96983e-10
5.00013e-06
-3.56554e-10
5.00017e-06
-4.32837e-10
5.00022e-06
-5.09846e-10
5.00027e-06
-6.17324e-10
5.00033e-06
-7.15706e-10
5.00041e-06
-8.71858e-10
5.00049e-06
-9.91447e-10
5.00058e-06
-1.22729e-09
5.00069e-06
-1.35521e-09
5.0008e-06
-1.72636e-09
5.00091e-06
-1.81208e-09
-2.44224e-09
5e-06
-1.66709e-11
5e-06
-5.05207e-11
5.00001e-06
-8.50191e-11
5.00002e-06
-1.22283e-10
5.00003e-06
-1.61963e-10
5.00004e-06
-2.07725e-10
5.00006e-06
-2.57196e-10
5.00008e-06
-3.16897e-10
5.0001e-06
-3.80389e-10
5.00013e-06
-4.61265e-10
5.00016e-06
-5.43382e-10
5.0002e-06
-6.56572e-10
5.00025e-06
-7.60993e-10
5.0003e-06
-9.24129e-10
5.00036e-06
-1.05058e-09
5.00042e-06
-1.29396e-09
5.0005e-06
-1.42826e-09
5.00058e-06
-1.80713e-09
5.00067e-06
-1.90041e-09
-2.51637e-09
5e-06
-1.72797e-11
5e-06
-5.23813e-11
5.00001e-06
-8.81619e-11
5.00001e-06
-1.26965e-10
5.00002e-06
-1.68318e-10
5.00002e-06
-2.15775e-10
5.00003e-06
-2.67086e-10
5.00005e-06
-3.28906e-10
5.00006e-06
-3.94726e-10
5.00008e-06
-4.78347e-10
5.0001e-06
-5.635e-10
5.00012e-06
-6.80016e-10
5.00015e-06
-7.88161e-10
5.00018e-06
-9.55385e-10
5.00022e-06
-1.08602e-09
5.00026e-06
-1.33364e-09
5.0003e-06
-1.47199e-09
5.00035e-06
-1.85424e-09
5.00039e-06
-1.94776e-09
-2.57233e-09
5e-06
-1.7522e-11
5e-06
-5.30068e-11
5e-06
-8.92617e-11
5e-06
-1.28536e-10
5.00001e-06
-1.70451e-10
5.00001e-06
-2.18442e-10
5.00001e-06
-2.70396e-10
5.00002e-06
-3.32869e-10
5.00002e-06
-3.99517e-10
5.00003e-06
-4.84034e-10
5.00003e-06
-5.70191e-10
5.00004e-06
-6.87888e-10
5.00005e-06
-7.97347e-10
5.00006e-06
-9.65859e-10
5.00007e-06
-1.09794e-09
5.00009e-06
-1.34684e-09
5.0001e-06
-1.48648e-09
5.00012e-06
-1.86942e-09
5.00013e-06
-1.96477e-09
-2.58854e-09
5e-06
-1.73589e-11
5e-06
-5.23701e-11
5e-06
-8.8185e-11
5e-06
-1.26902e-10
4.99999e-06
-1.68304e-10
4.99999e-06
-2.15716e-10
4.99999e-06
-2.67116e-10
4.99998e-06
-3.28848e-10
4.99998e-06
-3.94747e-10
4.99997e-06
-4.78343e-10
4.99997e-06
-5.63415e-10
4.99996e-06
-6.80071e-10
4.99995e-06
-7.88303e-10
4.99994e-06
-9.55465e-10
4.99993e-06
-1.0861e-09
4.99991e-06
-1.33368e-09
4.9999e-06
-1.47192e-09
4.99988e-06
-1.85397e-09
4.99987e-06
-1.94745e-09
-2.57208e-09
5e-06
-1.67579e-11
5e-06
-5.05441e-11
4.99999e-06
-8.50221e-11
4.99999e-06
-1.22142e-10
4.99998e-06
-1.6195e-10
4.99998e-06
-2.07656e-10
4.99997e-06
-2.5724e-10
4.99995e-06
-3.16857e-10
4.99994e-06
-3.80366e-10
4.99992e-06
-4.61287e-10
4.9999e-06
-5.43288e-10
4.99988e-06
-6.56502e-10
4.99985e-06
-7.61061e-10
4.99982e-06
-9.24236e-10
4.99978e-06
-1.0507e-09
4.99974e-06
-1.29397e-09
4.9997e-06
-1.42815e-09
4.99965e-06
-1.80678e-09
4.99961e-06
-1.89999e-09
-2.51602e-09
5e-06
-1.56706e-11
5e-06
-4.75319e-11
4.99999e-06
-7.99461e-11
4.99998e-06
-1.1467e-10
4.99997e-06
-1.51821e-10
4.99996e-06
-1.94649e-10
4.99994e-06
-2.40984e-10
4.99992e-06
-2.97048e-10
4.9999e-06
-3.56464e-10
4.99987e-06
-4.32836e-10
4.99984e-06
-5.0988e-10
4.9998e-06
-6.17202e-10
4.99975e-06
-7.15591e-10
4.9997e-06
-8.7182e-10
4.99964e-06
-9.91475e-10
4.99958e-06
-1.22725e-09
4.9995e-06
-1.35517e-09
4.99942e-06
-1.72612e-09
4.99933e-06
-1.81179e-09
-2.44181e-09
5e-06
-1.38397e-11
4.99999e-06
-4.30559e-11
4.99999e-06
-7.27027e-11
4.99998e-06
-1.04766e-10
4.99996e-06
-1.38525e-10
4.99995e-06
-1.77681e-10
4.99992e-06
-2.19538e-10
4.9999e-06
-2.7086e-10
4.99987e-06
-3.24558e-10
4.99983e-06
-3.94602e-10
4.99978e-06
-4.644e-10
4.99973e-06
-5.63883e-10
4.99967e-06
-6.52944e-10
4.99959e-06
-7.99673e-10
4.99951e-06
-9.083e-10
4.99942e-06
-1.13395e-09
4.99931e-06
-1.2508e-09
4.9992e-06
-1.61552e-09
4.99909e-06
-1.69697e-09
-2.29322e-09
5e-06
-1.15457e-11
4.99999e-06
-3.63507e-11
4.99998e-06
-6.19597e-11
4.99997e-06
-8.99538e-11
4.99995e-06
-1.19672e-10
4.99992e-06
-1.54295e-10
4.99989e-06
-1.9102e-10
4.99986e-06
-2.36313e-10
4.99982e-06
-2.83707e-10
4.99977e-06
-3.45579e-10
4.99971e-06
-4.06863e-10
4.99964e-06
-4.95688e-10
4.99957e-06
-5.74115e-10
4.99947e-06
-7.06973e-10
4.99937e-06
-8.03182e-10
4.99925e-06
-1.01214e-09
4.99911e-06
-1.11624e-09
4.99896e-06
-1.46127e-09
4.99879e-06
-1.53265e-09
-2.16251e-09
5e-06
-1.25538e-11
5e-06
-3.32595e-11
4.99999e-06
-5.43243e-11
4.99998e-06
-7.73996e-11
4.99996e-06
-1.01688e-10
4.99994e-06
-1.30036e-10
4.9999e-06
-1.59933e-10
4.99987e-06
-1.97574e-10
4.99982e-06
-2.36298e-10
4.99976e-06
-2.88985e-10
4.99969e-06
-3.38529e-10
4.99961e-06
-4.15379e-10
4.99952e-06
-4.78365e-10
4.99941e-06
-5.96214e-10
4.99928e-06
-6.72534e-10
4.99913e-06
-8.64663e-10
4.99896e-06
-9.46628e-10
4.99878e-06
-1.27961e-09
4.99858e-06
-1.3312e-09
-1.8976e-09
4.99999e-06
-4.63454e-12
4.99998e-06
-2.03421e-11
4.99996e-06
-3.75498e-11
4.99994e-06
-5.64496e-11
4.99992e-06
-7.63097e-11
4.99988e-06
-9.86821e-11
4.99985e-06
-1.23031e-10
4.9998e-06
-1.52402e-10
4.99975e-06
-1.82481e-10
4.99968e-06
-2.23959e-10
4.99961e-06
-2.62524e-10
4.99952e-06
-3.23423e-10
4.99941e-06
-3.72025e-10
4.99928e-06
-4.67434e-10
4.99913e-06
-5.25642e-10
4.99895e-06
-6.86486e-10
4.99876e-06
-7.47749e-10
4.99852e-06
-1.04082e-09
4.99827e-06
-1.08302e-09
-1.6892e-09
5.00001e-06
-1.19362e-11
5.00001e-06
-1.8944e-11
5e-06
-2.90267e-11
4.99998e-06
-4.15321e-11
4.99996e-06
-5.41738e-11
4.99993e-06
-6.9438e-11
4.99989e-06
-8.51146e-11
4.99984e-06
-1.03716e-10
4.99979e-06
-1.23525e-10
4.99971e-06
-1.53182e-10
4.99963e-06
-1.77129e-10
4.99953e-06
-2.22108e-10
4.99941e-06
-2.50384e-10
4.99926e-06
-3.24091e-10
4.99909e-06
-3.53916e-10
4.99889e-06
-4.85898e-10
4.99865e-06
-5.09112e-10
4.99838e-06
-7.67518e-10
4.99806e-06
-7.59672e-10
-1.26151e-09
4.99998e-06
9.83754e-12
4.99996e-06
-4.30627e-12
4.99995e-06
-1.26148e-11
4.99992e-06
-1.94588e-11
4.9999e-06
-2.69035e-11
4.99986e-06
-3.71458e-11
4.99982e-06
-4.34188e-11
4.99977e-06
-6.37006e-11
4.99971e-06
-6.28702e-11
4.99963e-06
-7.80251e-11
4.99955e-06
-9.01267e-11
4.99944e-06
-1.14079e-10
4.99932e-06
-1.27046e-10
4.99916e-06
-1.67946e-10
4.99898e-06
-1.78189e-10
4.99875e-06
-2.56877e-10
4.9985e-06
-2.56212e-10
4.99817e-06
-4.31645e-10
4.99782e-06
-4.14092e-10
-8.91576e-10
5.00001e-06
5.00001e-06
4.99999e-06
4.99997e-06
4.99995e-06
4.99991e-06
4.99987e-06
4.99982e-06
4.99975e-06
4.99968e-06
4.99959e-06
4.99947e-06
4.99934e-06
4.99918e-06
4.999e-06
4.99874e-06
4.99848e-06
4.99805e-06
4.99764e-06
)
;

boundaryField
{
    sides
    {
        type            calculated;
        value           uniform 0;
    }
    inlet
    {
        type            calculated;
        value           nonuniform List<scalar> 
20
(
-5e-06
-5e-06
-5e-06
-5e-06
-5e-06
-5e-06
-5e-06
-5e-06
-5e-06
-5e-06
-5e-06
-5e-06
-5e-06
-5e-06
-5e-06
-5e-06
-5e-06
-5e-06
-5e-06
-5e-06
)
;
    }
    outlet
    {
        type            calculated;
        value           nonuniform List<scalar> 
20
(
5.00325e-06
5.00255e-06
5.00237e-06
5.00194e-06
5.00169e-06
5.00134e-06
5.00106e-06
5.00074e-06
5.00045e-06
5.00015e-06
4.99985e-06
4.99955e-06
4.99926e-06
4.99894e-06
4.99866e-06
4.99831e-06
4.99806e-06
4.99763e-06
4.99745e-06
4.99675e-06
)
;
    }
    frontAndBack
    {
        type            empty;
        value           nonuniform 0();
    }
}


// ************************************************************************* //
