/*--------------------------------*- C++ -*----------------------------------*\
  =========                 |
  \\      /  F ield         | OpenFOAM: The Open Source CFD Toolbox
   \\    /   O peration     | Website:  https://openfoam.org
    \\  /    A nd           | Version:  7
     \\/     M anipulation  |
\*---------------------------------------------------------------------------*/
FoamFile
{
    version     2.0;
    format      ascii;
    class       volVectorField;
    location    "88";
    object      ddt0(hU);
}
// * * * * * * * * * * * * * * * * * * * * * * * * * * * * * * * * * * * * * //

dimensions      [0 2 -2 0 0 0 0];

internalField   nonuniform List<vector> 
400
(
(2.22365e-10 1.38615e-10 0)
(1.59259e-10 -6.89414e-12 0)
(2.8921e-11 -2.3001e-10 0)
(-2.71282e-10 -7.32893e-11 0)
(-2.33414e-10 4.32339e-10 0)
(-1.18134e-09 8.39279e-10 0)
(4.28512e-10 4.0936e-10 0)
(-2.71864e-09 -6.30045e-10 0)
(2.30205e-11 8.1669e-11 0)
(4.23602e-10 -2.8199e-10 0)
(-5.19953e-10 -2.54914e-10 0)
(-5.65574e-10 1.2741e-11 0)
(-1.32884e-10 1.65006e-10 0)
(2.29512e-10 1.53765e-10 0)
(2.84257e-10 6.33331e-11 0)
(1.4413e-10 -5.75328e-12 0)
(-8.35181e-12 -2.03084e-11 0)
(-5.9716e-11 -9.36023e-12 0)
(-5.87965e-11 4.26624e-12 0)
(-4.56875e-11 -3.60306e-12 0)
(-1.34112e-11 2.49724e-10 0)
(-2.51959e-11 -4.45124e-11 0)
(-3.91773e-11 -4.16553e-10 0)
(2.0185e-10 -2.96781e-11 0)
(-9.02608e-12 2.1671e-10 0)
(1.35488e-09 9.38011e-10 0)
(4.8239e-10 -3.4066e-10 0)
(1.44685e-09 -5.57029e-10 0)
(6.16418e-10 3.76737e-10 0)
(-8.85902e-11 -4.51853e-10 0)
(-5.58621e-11 -4.12512e-10 0)
(5.27279e-11 -1.08332e-11 0)
(7.69617e-11 2.54522e-10 0)
(8.89722e-11 2.6225e-10 0)
(4.77328e-11 1.10745e-10 0)
(-6.10214e-12 -2.83087e-11 0)
(-4.20709e-11 -6.43267e-11 0)
(-3.84887e-11 -4.70843e-11 0)
(-1.86552e-11 -2.45552e-11 0)
(-3.77466e-12 -6.7712e-12 0)
(-2.18118e-10 2.74467e-11 0)
(-1.62389e-10 9.35628e-12 0)
(8.54866e-12 -7.50062e-11 0)
(2.216e-10 9.52688e-11 0)
(3.99961e-11 -3.01197e-10 0)
(2.3373e-10 1.43196e-10 0)
(-1.28078e-09 -6.78365e-10 0)
(1.08808e-09 6.40989e-10 0)
(2.39604e-12 1.17718e-10 0)
(-6.84253e-10 -1.93547e-10 0)
(1.58749e-10 -6.28673e-11 0)
(3.97218e-10 3.01695e-11 0)
(2.86916e-10 8.96205e-11 0)
(8.27616e-11 7.45481e-11 0)
(-9.27896e-11 6.21855e-12 0)
(-1.27447e-10 -3.19924e-11 0)
(-8.18598e-11 -1.73265e-11 0)
(-3.0575e-11 9.8815e-12 0)
(1.23497e-12 3.74974e-11 0)
(2.60496e-11 1.23304e-11 0)
(-9.51084e-11 -1.54846e-10 0)
(-5.70995e-11 6.84705e-11 0)
(4.19891e-11 1.76695e-10 0)
(2.57779e-11 1.80636e-11 0)
(1.95916e-10 -5.17659e-11 0)
(-1.92847e-10 -2.11487e-10 0)
(2.73786e-11 3.12576e-10 0)
(6.21131e-10 4.56371e-10 0)
(-7.7343e-10 -3.66743e-10 0)
(-1.69581e-10 1.0932e-10 0)
(3.08969e-10 2.60183e-10 0)
(2.55696e-10 1.35637e-10 0)
(1.18756e-10 3.86302e-12 0)
(-4.37962e-11 -9.94601e-11 0)
(-1.43072e-10 -1.19664e-10 0)
(-1.13731e-10 -5.19598e-11 0)
(-3.38373e-11 2.24288e-11 0)
(1.63609e-11 6.42384e-11 0)
(2.82097e-11 1.08786e-10 0)
(3.1982e-11 5.04205e-11 0)
(1.0354e-11 -9.68193e-11 0)
(2.90072e-11 -7.02214e-12 0)
(6.58429e-11 1.27596e-10 0)
(-6.80623e-11 -3.76825e-11 0)
(1.59212e-10 1.80588e-10 0)
(-2.2004e-10 -3.26331e-10 0)
(3.03745e-10 3.71531e-10 0)
(-2.96058e-10 -2.22851e-10 0)
(-3.00424e-10 -1.20528e-10 0)
(3.4904e-10 2.77252e-10 0)
(2.18399e-10 1.68011e-10 0)
(3.81244e-11 6.14053e-12 0)
(-7.04658e-11 -1.00875e-10 0)
(-1.69089e-10 -1.69661e-10 0)
(-1.26899e-10 -1.37498e-10 0)
(-1.75618e-11 -2.04855e-11 0)
(4.42244e-11 7.38821e-11 0)
(6.28586e-11 1.09671e-10 0)
(3.15524e-11 1.54047e-10 0)
(-1.29259e-11 7.5473e-11 0)
(4.54116e-11 -7.16872e-12 0)
(5.21521e-11 -5.84857e-11 0)
(5.22323e-11 7.78651e-11 0)
(-1.91934e-11 -3.04487e-12 0)
(3.63158e-11 1.41236e-10 0)
(-6.90296e-11 -1.9232e-11 0)
(1.65344e-10 1.46363e-10 0)
(-2.80515e-10 -1.41644e-10 0)
(1.89267e-10 2.19921e-10 0)
(2.63904e-10 1.53319e-10 0)
(-9.83665e-11 -7.54415e-11 0)
(-9.83476e-11 -1.31417e-10 0)
(-1.27053e-10 -1.81746e-10 0)
(-1.67389e-10 -1.65434e-10 0)
(-1.55603e-11 -7.04535e-11 0)
(1.3756e-10 4.31723e-11 0)
(1.37568e-10 1.20896e-10 0)
(8.19653e-11 1.46214e-10 0)
(-3.41523e-12 1.785e-10 0)
(-8.92364e-11 7.41874e-11 0)
(2.60511e-11 4.37697e-11 0)
(3.58265e-11 -2.40724e-11 0)
(-1.36973e-11 -4.69644e-11 0)
(3.12665e-11 5.21048e-11 0)
(-7.47264e-11 -4.23697e-11 0)
(7.11102e-11 1.45651e-10 0)
(-2.07136e-12 7.38229e-12 0)
(1.28766e-11 1.92726e-11 0)
(2.51404e-10 1.81251e-10 0)
(-9.97607e-11 -9.77774e-11 0)
(-1.48711e-10 -1.30578e-10 0)
(-6.05991e-11 -8.50995e-11 0)
(-1.39273e-10 -1.47557e-10 0)
(-1.02996e-10 -7.65659e-11 0)
(6.98355e-11 4.4483e-11 0)
(1.8804e-10 8.23844e-11 0)
(1.714e-10 8.61816e-11 0)
(8.17002e-11 8.80699e-11 0)
(-3.2306e-11 1.23403e-10 0)
(-1.23553e-10 5.25687e-11 0)
(-9.37121e-12 1.2514e-11 0)
(1.16836e-11 3.10332e-11 0)
(-4.97306e-11 -8.16683e-11 0)
(4.21779e-11 6.35702e-11 0)
(-6.94568e-11 -5.02033e-12 0)
(8.15617e-11 1.65797e-10 0)
(-9.37425e-11 3.01265e-11 0)
(1.29361e-10 1.23972e-10 0)
(9.18085e-12 6.24486e-12 0)
(-1.56659e-10 -1.14361e-10 0)
(5.67582e-11 -4.52427e-11 0)
(-7.15219e-11 -6.59568e-11 0)
(-1.53358e-10 -7.05021e-11 0)
(4.84992e-11 5.48307e-11 0)
(1.38587e-10 1.37289e-10 0)
(1.04499e-10 1.14359e-10 0)
(9.3643e-11 5.97705e-11 0)
(6.54037e-11 1.22565e-11 0)
(-4.32632e-11 4.17087e-11 0)
(-1.31239e-10 1.21568e-11 0)
(7.41242e-12 -1.49974e-11 0)
(9.94587e-12 -3.90987e-12 0)
(-2.25796e-11 2.57435e-11 0)
(8.58967e-12 1.72905e-11 0)
(-4.05807e-12 1.10081e-10 0)
(1.62407e-11 1.19911e-10 0)
(-6.22235e-11 1.15995e-10 0)
(4.93459e-11 1.41136e-10 0)
(-7.3439e-11 -3.70677e-11 0)
(-1.22119e-11 3.89822e-11 0)
(7.24694e-11 -2.42033e-11 0)
(-7.8564e-11 -9.58782e-11 0)
(-2.36184e-11 6.17478e-11 0)
(1.42682e-10 1.52012e-10 0)
(7.44121e-11 9.05466e-11 0)
(-7.23025e-11 6.26122e-11 0)
(-7.74423e-11 5.81991e-11 0)
(-1.41027e-11 -1.10091e-11 0)
(-3.90838e-12 -2.04669e-11 0)
(-2.5129e-11 -2.08578e-11 0)
(9.76173e-13 3.99019e-12 0)
(-1.13172e-11 -3.47558e-11 0)
(4.64041e-11 6.7176e-11 0)
(1.22352e-12 2.12433e-11 0)
(5.25235e-11 1.19243e-10 0)
(-3.91823e-11 8.67514e-11 0)
(1.00041e-11 1.25981e-10 0)
(-8.18505e-11 1.08336e-10 0)
(-2.53244e-11 -1.26178e-11 0)
(5.36357e-11 4.58043e-11 0)
(-3.70555e-11 -7.01411e-11 0)
(9.50609e-11 -1.14172e-10 0)
(1.71454e-10 3.84014e-11 0)
(1.6162e-11 6.77369e-11 0)
(-9.03395e-11 -1.46857e-11 0)
(-1.09164e-10 1.1138e-11 0)
(-1.36541e-10 8.01644e-11 0)
(-1.1646e-10 4.54651e-11 0)
(-1.06475e-11 2.42967e-11 0)
(9.07819e-11 -7.93506e-12 0)
(-7.09176e-12 6.31671e-12 0)
(-2.52899e-11 4.29323e-11 0)
(6.19365e-11 4.07246e-12 0)
(-7.11925e-12 4.62412e-11 0)
(7.23789e-11 1.47729e-11 0)
(-4.46506e-11 6.58249e-11 0)
(4.63018e-11 5.06229e-11 0)
(-1.15193e-10 6.08671e-11 0)
(-1.65797e-11 3.65977e-11 0)
(6.82489e-11 -5.59013e-11 0)
(-7.25935e-11 -5.42161e-11 0)
(1.46748e-10 -8.61955e-11 0)
(2.24926e-10 -1.76751e-10 0)
(-2.16427e-11 -1.55343e-10 0)
(-1.17877e-10 -6.72194e-11 0)
(-9.04139e-11 7.58877e-12 0)
(-1.37953e-10 7.15094e-11 0)
(-1.51691e-10 1.04692e-10 0)
(-8.65827e-12 1.49597e-10 0)
(1.49801e-10 6.1326e-11 0)
(1.00343e-11 1.3988e-11 0)
(-5.33222e-12 5.40201e-11 0)
(-6.65196e-12 -9.25384e-12 0)
(-3.27118e-11 6.11609e-11 0)
(3.48493e-11 -3.66199e-11 0)
(7.86239e-12 4.08296e-11 0)
(1.62584e-11 2.13129e-11 0)
(1.55031e-12 1.23986e-11 0)
(-9.06074e-11 1.18259e-10 0)
(3.51607e-11 -7.7339e-11 0)
(8.4377e-12 -4.02637e-11 0)
(-4.71134e-11 -1.51763e-11 0)
(6.01978e-11 -2.32678e-10 0)
(1.24236e-10 -2.73966e-10 0)
(5.2211e-11 -1.35534e-10 0)
(-4.71983e-11 -2.56197e-11 0)
(-8.4039e-11 6.80432e-11 0)
(-5.77491e-11 1.6445e-10 0)
(1.86023e-11 2.54257e-10 0)
(8.84661e-11 1.18219e-10 0)
(-1.72369e-12 -2.13497e-12 0)
(8.46432e-12 -1.37628e-11 0)
(-6.92787e-11 7.12279e-11 0)
(-1.55976e-11 7.45057e-12 0)
(-5.81654e-11 6.76242e-11 0)
(8.11127e-11 5.35898e-12 0)
(-6.22788e-11 1.14042e-10 0)
(1.57054e-10 -1.39172e-11 0)
(-7.13465e-11 1.45187e-10 0)
(-1.08414e-10 7.61275e-11 0)
(1.05531e-10 -4.11803e-11 0)
(-1.05699e-10 -2.35177e-12 0)
(-1.65571e-10 -6.52614e-11 0)
(6.36296e-11 -1.57312e-10 0)
(1.43319e-10 -1.53269e-10 0)
(9.50473e-11 -5.13435e-11 0)
(8.4545e-11 7.97048e-11 0)
(5.03184e-11 1.7053e-10 0)
(-8.8787e-12 2.43297e-10 0)
(-2.8451e-11 1.08595e-10 0)
(2.06692e-11 -4.28337e-11 0)
(2.90073e-11 -2.01586e-11 0)
(-6.90311e-11 5.73607e-11 0)
(2.92526e-12 -4.34906e-11 0)
(-1.26955e-10 1.7047e-10 0)
(1.05619e-10 -4.68332e-11 0)
(-7.09387e-11 1.60238e-10 0)
(1.30128e-10 1.70627e-11 0)
(1.87434e-10 -3.70546e-11 0)
(-1.99292e-10 1.86588e-10 0)
(-5.73241e-11 7.1604e-11 0)
(-2.73111e-11 1.02012e-11 0)
(-1.69432e-10 7.99296e-11 0)
(-1.02879e-10 3.88993e-11 0)
(7.30848e-11 -4.31528e-11 0)
(1.9556e-10 -2.01863e-11 0)
(2.01918e-10 3.75371e-11 0)
(8.99578e-11 5.96203e-11 0)
(-4.90275e-11 1.24229e-10 0)
(-1.10275e-10 6.47972e-11 0)
(3.98189e-11 -2.74887e-11 0)
(3.51328e-11 7.12768e-12 0)
(-1.71625e-11 -4.72349e-11 0)
(-3.03407e-11 3.77648e-11 0)
(-8.72816e-11 8.91118e-11 0)
(-1.87911e-11 6.43869e-11 0)
(6.8184e-11 1.06495e-10 0)
(-1.74172e-10 1.89402e-10 0)
(3.80493e-10 -2.07326e-10 0)
(1.71947e-10 -4.47066e-11 0)
(-1.34447e-10 6.39347e-11 0)
(-5.29733e-11 1.70851e-11 0)
(-1.21936e-10 8.33407e-11 0)
(-2.0823e-10 1.29375e-10 0)
(-7.59964e-11 9.00825e-11 0)
(9.75393e-11 4.89941e-11 0)
(1.4402e-10 1.0697e-11 0)
(8.22208e-11 -2.28045e-11 0)
(-6.17776e-12 2.85483e-11 0)
(-7.32879e-11 1.48498e-11 0)
(1.96708e-11 4.36383e-11 0)
(1.67302e-11 -2.50452e-11 0)
(3.96613e-11 -1.35404e-10 0)
(-7.00372e-11 1.01196e-10 0)
(5.67908e-11 -1.17488e-10 0)
(-2.09134e-10 3.65052e-10 0)
(2.35134e-10 -1.82788e-10 0)
(-4.29764e-10 4.07705e-10 0)
(-4.98062e-11 -1.35612e-11 0)
(4.04912e-10 -2.6525e-10 0)
(1.03669e-10 -1.23821e-10 0)
(9.24618e-12 -4.94809e-11 0)
(-4.24386e-11 1.91893e-11 0)
(-1.7188e-10 1.1986e-10 0)
(-1.61824e-10 1.41717e-10 0)
(-6.36207e-11 7.91352e-11 0)
(2.03282e-11 9.53452e-12 0)
(5.69981e-11 -3.61468e-11 0)
(3.57104e-11 -2.06053e-11 0)
(-6.8861e-12 -1.29079e-11 0)
(-6.85619e-11 8.9178e-11 0)
(-6.06442e-11 -7.58038e-11 0)
(4.68081e-11 -1.65449e-10 0)
(-5.29044e-11 1.17792e-10 0)
(2.18131e-10 1.20609e-11 0)
(-3.31471e-10 5.26423e-10 0)
(3.71951e-10 -4.53253e-10 0)
(-6.29056e-12 1.92674e-10 0)
(-6.79349e-10 3.90264e-10 0)
(1.41514e-10 -1.86835e-10 0)
(2.84676e-10 -2.45058e-10 0)
(1.77046e-10 -1.48721e-10 0)
(1.02152e-10 -7.11994e-11 0)
(-4.85163e-11 4.20042e-11 0)
(-1.74945e-10 1.04581e-10 0)
(-1.88116e-10 9.00701e-11 0)
(-9.10341e-11 5.99576e-11 0)
(8.96103e-12 2.71736e-11 0)
(5.76758e-11 2.01021e-11 0)
(7.15255e-11 -2.01031e-12 0)
(-1.6556e-10 -1.30276e-11 0)
(-1.35054e-10 -2.15699e-12 0)
(6.05054e-11 7.36522e-11 0)
(1.13265e-10 -8.29369e-11 0)
(2.26269e-10 2.23922e-10 0)
(-2.20561e-10 1.75169e-10 0)
(-3.8657e-10 -7.53216e-10 0)
(1.60891e-09 -2.06759e-09 0)
(-7.20013e-10 1.71566e-10 0)
(-4.50003e-10 1.43688e-10 0)
(2.45255e-10 -3.10379e-11 0)
(2.91469e-10 -7.79306e-11 0)
(2.12483e-10 -1.28558e-10 0)
(5.86165e-11 -1.09966e-10 0)
(-1.1905e-10 -3.51158e-11 0)
(-1.92848e-10 4.14424e-11 0)
(-1.22916e-10 8.49569e-11 0)
(-2.81323e-11 7.96532e-11 0)
(5.90507e-11 6.96722e-11 0)
(1.03516e-10 2.19824e-11 0)
(-1.75008e-11 -1.53836e-10 0)
(-2.79224e-11 5.70237e-11 0)
(-8.56035e-11 3.89321e-10 0)
(1.10434e-10 -1.239e-10 0)
(1.49318e-10 -8.5148e-11 0)
(-2.14279e-09 -1.21826e-09 0)
(-2.8652e-09 1.95852e-09 0)
(8.19019e-10 1.17289e-09 0)
(2.11846e-09 -2.65118e-10 0)
(-2.22514e-10 4.64481e-10 0)
(-5.62394e-12 2.91604e-10 0)
(6.93431e-11 -6.63443e-12 0)
(4.49759e-11 -2.16017e-10 0)
(4.80397e-11 -2.48971e-10 0)
(1.30371e-11 -1.36003e-10 0)
(-4.7059e-11 2.08402e-12 0)
(-6.5466e-11 7.53146e-11 0)
(-4.04924e-11 7.62703e-11 0)
(2.30921e-11 6.28071e-11 0)
(6.21828e-11 2.95426e-11 0)
(1.93724e-10 -9.59283e-11 0)
(1.22992e-10 1.65631e-11 0)
(-8.00977e-11 2.43418e-10 0)
(-1.92106e-10 3.2941e-11 0)
(-5.78873e-10 -1.82856e-10 0)
(2.71746e-09 -1.12877e-09 0)
(2.66832e-09 2.48241e-09 0)
(-1.96207e-09 3.1908e-09 0)
(-9.78015e-10 -1.40062e-10 0)
(2.79059e-10 2.66213e-10 0)
(-4.33251e-10 1.77247e-10 0)
(-4.25195e-10 -3.95942e-11 0)
(-1.52997e-10 -1.60375e-10 0)
(1.33182e-10 -1.50957e-10 0)
(2.21691e-10 -6.59747e-11 0)
(1.13045e-10 2.08706e-11 0)
(-1.62316e-11 5.87007e-11 0)
(-5.94858e-11 5.43715e-11 0)
(-1.13716e-11 4.67529e-11 0)
(2.59984e-11 1.41146e-11 0)
)
;

boundaryField
{
    sides
    {
        type            calculated;
        value           nonuniform List<vector> 
40
(
(1.93724e-10 0 0)
(1.22992e-10 0 0)
(-8.00977e-11 0 0)
(-1.92106e-10 0 0)
(-5.78873e-10 0 0)
(2.71746e-09 0 0)
(2.66832e-09 0 0)
(-1.96207e-09 0 0)
(-9.78015e-10 0 0)
(2.79059e-10 0 0)
(-4.33251e-10 0 0)
(-4.25195e-10 0 0)
(-1.52997e-10 0 0)
(1.33182e-10 0 0)
(2.21691e-10 0 0)
(1.13045e-10 0 0)
(-1.62316e-11 0 0)
(-5.94858e-11 0 0)
(-1.13716e-11 0 0)
(2.59984e-11 0 0)
(2.22365e-10 0 0)
(1.59259e-10 0 0)
(2.8921e-11 0 0)
(-2.71282e-10 0 0)
(-2.33414e-10 0 0)
(-1.18134e-09 0 0)
(4.28512e-10 0 0)
(-2.71864e-09 0 0)
(2.30205e-11 0 0)
(4.23602e-10 0 0)
(-5.19953e-10 0 0)
(-5.65574e-10 0 0)
(-1.32884e-10 0 0)
(2.29512e-10 0 0)
(2.84257e-10 0 0)
(1.4413e-10 0 0)
(-8.35181e-12 0 0)
(-5.9716e-11 0 0)
(-5.87965e-11 0 0)
(-4.56875e-11 0 0)
)
;
    }
    inlet
    {
        type            calculated;
        value           uniform (0 0 0);
    }
    outlet
    {
        type            calculated;
        value           nonuniform List<vector> 
20
(
(-4.56875e-11 -3.60306e-12 0)
(-3.77466e-12 -6.7712e-12 0)
(2.60496e-11 1.23304e-11 0)
(3.1982e-11 5.04205e-11 0)
(-1.29259e-11 7.5473e-11 0)
(-8.92364e-11 7.41874e-11 0)
(-1.23553e-10 5.25687e-11 0)
(-1.31239e-10 1.21568e-11 0)
(-2.5129e-11 -2.08578e-11 0)
(9.07819e-11 -7.93506e-12 0)
(1.49801e-10 6.1326e-11 0)
(8.84661e-11 1.18219e-10 0)
(-2.8451e-11 1.08595e-10 0)
(-1.10275e-10 6.47972e-11 0)
(-7.32879e-11 1.48498e-11 0)
(-6.8861e-12 -1.29079e-11 0)
(7.15255e-11 -2.01031e-12 0)
(1.03516e-10 2.19824e-11 0)
(6.21828e-11 2.95426e-11 0)
(2.59984e-11 1.41146e-11 0)
)
;
    }
    frontAndBack
    {
        type            empty;
    }
}


// ************************************************************************* //
