/*--------------------------------*- C++ -*----------------------------------*\
  =========                 |
  \\      /  F ield         | OpenFOAM: The Open Source CFD Toolbox
   \\    /   O peration     | Website:  https://openfoam.org
    \\  /    A nd           | Version:  7
     \\/     M anipulation  |
\*---------------------------------------------------------------------------*/
FoamFile
{
    version     2.0;
    format      ascii;
    class       surfaceScalarField;
    location    "88";
    object      ddtCorrDdt0(phi);
}
// * * * * * * * * * * * * * * * * * * * * * * * * * * * * * * * * * * * * * //

dimensions      [0 4 -2 0 0 0 0];

internalField   nonuniform List<scalar> 
760
(
9.70619e-13
1.11831e-12
2.07483e-12
-3.93533e-13
-1.49156e-12
-1.70977e-12
-1.76406e-12
1.98694e-13
-6.05275e-12
3.30623e-12
2.76056e-12
3.56429e-10
-6.95912e-12
2.73026e-10
-9.05993e-12
2.23534e-10
3.71958e-12
4.35492e-12
-8.94503e-13
-1.05576e-12
-3.26658e-12
-1.5757e-12
-1.93769e-12
-5.42996e-13
4.5963e-13
5.78493e-13
1.53338e-12
9.45103e-13
1.1376e-12
5.53838e-13
2.64226e-13
7.29154e-14
-2.63479e-13
-1.16515e-13
-2.97571e-13
-1.43079e-13
-2.4087e-13
-1.07858e-13
-5.45604e-14
-1.84094e-13
9.67078e-13
-2.80654e-14
5.52216e-14
-7.05435e-13
-1.50213e-12
2.91351e-12
-1.83479e-13
9.69489e-13
-1.37961e-12
7.51559e-12
6.63131e-12
8.81808e-13
-1.54006e-11
7.70329e-12
-8.36737e-12
9.14982e-13
2.63502e-12
-5.86848e-13
-1.51521e-12
6.98609e-14
-1.06642e-12
3.03006e-13
7.10848e-14
4.79497e-13
7.03546e-13
3.75941e-13
6.9032e-13
6.78337e-14
2.75352e-13
-1.4036e-13
-7.07077e-14
-2.21348e-13
-1.20355e-13
-1.62952e-13
-6.22588e-14
-4.23438e-14
-1.11685e-17
-1.97827e-14
-1.51698e-12
-3.81241e-13
-1.26643e-12
3.50503e-13
1.90784e-12
-8.21012e-14
-1.99566e-14
1.82855e-13
2.92631e-12
-1.39164e-12
-6.21416e-12
1.87809e-12
2.55562e-13
-1.82923e-12
5.62314e-12
1.01197e-11
-4.45778e-12
-1.458e-12
-9.08636e-13
-1.1604e-12
1.74908e-12
6.36784e-13
1.86817e-12
9.13233e-13
9.72784e-13
5.50246e-13
-1.47335e-13
-1.34915e-14
-6.85604e-13
-3.40704e-13
-4.9984e-13
-2.83222e-13
-2.47406e-13
-5.02508e-14
-1.32158e-13
1.47075e-13
7.38268e-14
3.30336e-13
1.41093e-13
-2.91069e-13
-6.96179e-13
-7.87163e-13
1.42097e-13
1.33005e-12
6.29578e-13
-1.27231e-12
1.76775e-13
3.53262e-12
3.81502e-13
-5.33026e-12
-2.34749e-12
6.03195e-12
3.37108e-12
-2.1839e-12
-8.33229e-13
-3.00026e-12
-1.89224e-12
9.54289e-13
1.04966e-12
1.53222e-12
1.33382e-12
1.03626e-12
5.22601e-13
1.63891e-13
-1.70736e-13
-6.08049e-13
-6.92096e-13
-7.31162e-13
-6.96855e-13
-3.18271e-13
-2.12144e-13
1.28941e-14
2.21903e-13
5.13249e-14
4.256e-13
1.41554e-13
6.92618e-13
3.43676e-13
6.65156e-13
-3.22959e-13
-3.25421e-13
-2.5255e-13
3.92845e-13
7.06017e-13
-3.51595e-13
-1.92255e-13
5.83907e-13
1.4363e-12
-6.23345e-13
-1.4752e-12
1.50204e-12
1.07478e-12
-3.26549e-12
-1.50319e-12
7.98326e-13
4.98715e-13
1.68315e-12
1.66937e-12
5.50873e-13
4.0854e-13
-7.48876e-15
-4.4069e-13
-7.31969e-13
-8.31829e-13
-8.48849e-13
-9.5326e-13
-3.32858e-13
-6.26231e-13
1.16276e-13
2.61318e-14
2.99563e-13
5.10737e-13
2.42584e-13
6.77892e-13
3.07925e-14
8.8855e-13
4.10162e-13
5.58743e-13
1.74179e-13
3.84403e-13
-3.15486e-13
-5.11983e-13
2.52585e-13
9.58847e-13
2.08131e-14
-1.37601e-12
7.32916e-14
1.49498e-12
6.79785e-13
-7.69769e-13
2.51987e-13
-7.94945e-13
-2.98556e-13
2.00757e-12
1.49843e-12
1.53883e-13
6.86914e-14
-5.59992e-13
-8.9014e-13
-4.70362e-13
-7.38484e-13
-9.29366e-13
-9.32556e-13
-5.12493e-13
-6.84868e-13
4.2885e-13
-1.09641e-13
7.20647e-13
3.02864e-13
5.47713e-13
5.63214e-13
2.80651e-13
6.81834e-13
-2.52283e-13
8.29754e-13
3.36394e-13
3.50075e-14
2.76869e-13
6.49568e-13
4.12294e-14
-7.63623e-13
-6.45115e-13
6.70842e-13
5.40476e-13
-8.89983e-13
-3.97764e-13
1.14792e-12
9.12995e-13
-9.25036e-13
-1.22082e-13
1.27472e-12
4.5707e-13
4.36731e-13
3.33411e-13
-9.45766e-13
-9.73543e-13
-3.04422e-13
-4.61041e-13
-5.74744e-13
-2.26657e-13
-7.83399e-13
-6.06044e-13
-1.97778e-14
-1.05669e-13
7.48847e-13
5.33069e-13
8.87483e-13
5.31891e-13
6.5481e-13
3.32074e-13
2.40176e-13
2.38838e-13
-4.31986e-13
4.47853e-13
1.87284e-13
-9.61903e-14
-1.2419e-13
-8.07871e-14
2.72547e-13
1.90395e-13
-2.22628e-13
-3.9074e-13
9.58018e-14
2.66026e-13
3.19208e-13
-3.29714e-14
7.19409e-13
-2.86731e-13
4.13959e-13
1.02614e-12
7.69135e-13
-9.27949e-13
-1.93342e-13
-8.75088e-14
-8.68119e-14
2.20787e-13
1.17725e-14
-9.37969e-13
-4.08143e-13
-2.88248e-13
-3.96878e-14
6.97001e-13
6.51466e-13
5.98246e-13
7.74705e-13
3.8978e-13
5.55134e-13
4.43038e-13
2.50059e-13
2.02286e-13
-1.2407e-13
-4.75001e-13
-4.43486e-14
-5.02502e-14
2.58622e-13
-3.56218e-14
-4.58815e-13
-2.90773e-13
4.12667e-13
4.74043e-13
-3.85282e-13
3.91842e-14
4.58296e-13
7.77496e-13
-4.42501e-13
4.86917e-13
4.39875e-14
7.67963e-13
8.38875e-14
6.6163e-13
-4.83645e-13
-1.30968e-13
4.06238e-13
4.28052e-13
-5.77472e-14
-3.09342e-13
-4.8864e-13
-5.67841e-13
4.45869e-13
6.05731e-13
7.13945e-13
8.24757e-13
-7.61696e-14
1.42174e-13
-5.03744e-13
1.16759e-13
-2.26938e-13
3.87538e-13
4.92689e-14
7.05079e-14
-6.32617e-14
-1.3422e-13
-1.67038e-13
-1.14264e-13
5.87645e-14
2.14053e-13
-5.52079e-14
-4.01193e-14
2.34683e-13
2.87736e-13
1.69415e-13
3.92666e-14
4.04372e-13
-1.57879e-13
3.65711e-13
-5.86574e-14
4.66008e-13
-5.53575e-13
4.08732e-13
4.21897e-13
1.87013e-14
-1.29252e-13
4.74905e-15
-9.47368e-14
-3.68632e-13
1.00535e-12
-5.46473e-13
5.69208e-13
-2.74925e-13
-3.72898e-13
-1.88919e-13
-5.11728e-13
-2.72822e-13
-5.59709e-13
1.71314e-15
-7.08274e-13
4.01066e-13
-4.31136e-13
3.83955e-13
2.51547e-13
3.83843e-13
9.33059e-14
-2.87965e-13
1.25308e-14
4.11156e-13
4.97574e-13
-1.934e-13
-1.99821e-13
4.46966e-13
3.07207e-13
-4.65905e-14
-2.52421e-13
-1.09427e-14
2.73223e-13
-1.1665e-14
1.34052e-14
-7.62485e-13
1.65135e-13
6.62475e-13
3.2757e-13
-2.99982e-13
-5.50405e-13
-1.05233e-13
-1.72053e-13
1.43115e-12
-2.999e-13
5.72913e-13
-1.44558e-12
-6.52549e-13
-1.34751e-12
-4.97534e-13
-4.31673e-13
-4.20212e-13
3.79669e-14
-8.16295e-13
3.00223e-13
-6.32048e-13
6.52716e-13
4.11392e-13
1.08866e-12
5.04478e-13
2.15182e-13
1.47192e-13
-3.02813e-13
3.76821e-14
1.43311e-13
9.42407e-14
-2.74468e-13
3.24947e-13
4.46337e-13
-1.18967e-13
-2.61511e-13
1.35181e-13
3.3098e-13
2.11193e-13
-4.36859e-13
-4.94991e-14
-1.15982e-13
7.99867e-13
2.67381e-13
-2.09631e-13
-2.88314e-13
-2.61188e-13
2.81043e-14
1.01551e-13
6.03059e-13
-8.30524e-13
4.40746e-13
-1.32824e-12
-3.7478e-14
-9.15057e-13
-2.92919e-13
-2.93646e-13
-3.67931e-13
3.80975e-13
-2.38433e-13
9.74552e-13
2.84471e-13
1.42161e-12
6.48216e-13
1.35083e-13
-1.81448e-13
-4.07836e-13
-1.88882e-13
2.31367e-13
6.66745e-13
-8.32445e-13
-2.58285e-13
6.20506e-13
7.741e-13
-2.64385e-13
-1.00351e-13
2.25294e-13
9.12298e-13
6.65462e-13
-8.89311e-14
-1.08448e-12
6.06134e-13
3.39388e-13
1.01741e-12
1.85492e-13
-3.11691e-14
-1.07716e-12
-6.01409e-14
-2.43202e-13
2.13479e-13
6.997e-13
-1.97982e-13
5.65128e-13
-5.82483e-13
4.5594e-13
-2.52645e-13
4.08024e-13
3.22115e-13
7.15097e-14
6.39876e-13
-1.39232e-13
9.72274e-13
4.55167e-13
1.99268e-14
-2.75646e-13
3.16655e-13
2.82748e-15
-6.73707e-13
-9.38225e-14
8.54392e-16
-1.05755e-13
-4.2715e-13
1.09552e-12
6.95428e-13
-3.06603e-13
-7.2137e-13
7.76188e-13
1.73858e-12
3.50773e-13
-4.51593e-13
-1.0645e-12
-8.1434e-13
6.96675e-13
1.60085e-13
6.98373e-13
-6.78115e-13
1.35157e-13
-8.59151e-13
5.23693e-13
-1.55701e-14
5.78524e-13
7.38115e-13
2.2045e-13
1.05104e-12
1.39276e-13
7.97035e-13
1.12779e-13
1.47777e-13
5.66749e-15
-4.5854e-13
3.25352e-13
1.94944e-13
2.63962e-13
4.37895e-14
3.35102e-13
1.48094e-14
-9.43561e-13
-6.61923e-13
9.73285e-13
5.18123e-13
-1.87951e-12
-4.65458e-13
1.6994e-12
1.06327e-12
-1.33828e-12
3.44153e-13
6.45066e-13
1.79349e-12
2.02427e-12
-9.35746e-13
-3.78583e-13
-1.33599e-12
-3.88121e-13
-1.54928e-13
-3.29815e-13
7.89199e-14
-1.02365e-12
3.75389e-13
-7.82231e-13
7.55317e-13
1.66702e-13
7.21877e-13
6.44911e-13
3.79715e-13
5.70198e-13
6.99806e-16
3.06493e-13
-2.64634e-13
-2.16314e-13
-1.01304e-13
-4.29618e-14
3.82918e-13
3.83454e-13
-1.79577e-13
-2.34019e-13
-5.29785e-14
-6.50316e-13
3.35171e-13
4.48594e-13
-1.15277e-12
-6.83064e-13
8.35837e-13
3.49511e-12
-3.10031e-13
-2.44775e-12
-2.43783e-12
2.88345e-12
1.82346e-12
1.11817e-12
1.2487e-12
-1.30906e-12
1.37939e-13
-1.22954e-12
5.7162e-14
-6.67805e-13
-6.47285e-13
-2.59205e-13
-9.32097e-13
3.56587e-13
-5.15078e-13
6.54174e-13
-1.17122e-13
4.68759e-13
1.77989e-13
2.02137e-13
3.40594e-13
-1.71708e-14
9.12292e-14
-5.94796e-14
-8.89544e-14
-2.91751e-13
2.46759e-13
-8.14794e-13
-3.17495e-13
1.30779e-12
1.01192e-13
-1.33906e-12
3.58736e-14
2.45563e-12
9.34482e-13
-3.61934e-12
-1.7629e-13
4.87508e-12
-1.43488e-12
-4.34735e-12
-3.15613e-12
-9.88057e-13
3.22394e-12
1.47556e-12
3.75355e-13
1.09804e-12
-8.68842e-13
7.99171e-13
-9.2749e-13
1.40579e-13
-7.54915e-13
-6.34981e-13
-2.34549e-13
-9.65954e-13
1.98312e-13
-7.41196e-13
3.66644e-13
-1.96067e-13
4.01616e-13
1.94378e-13
2.98228e-13
3.42453e-13
2.23209e-13
4.50484e-14
-1.12266e-12
-2.11468e-13
-1.3126e-12
2.73835e-14
2.43626e-12
1.40893e-12
-1.16412e-12
-3.41589e-13
4.24768e-12
1.40403e-12
-8.46848e-12
-3.39884e-12
8.6158e-12
8.49287e-13
1.1665e-12
-2.34575e-11
-4.4364e-12
-1.54222e-12
1.7887e-13
1.80896e-12
1.47793e-12
5.87013e-13
1.34104e-12
-2.85364e-13
7.52562e-13
-7.51286e-13
-2.03415e-13
-7.6242e-13
-8.93122e-13
-4.28741e-13
-8.356e-13
2.12895e-14
-3.53957e-13
3.59528e-13
5.55335e-14
4.19528e-13
4.20994e-13
4.11575e-13
1.74173e-13
-2.11002e-13
-8.15781e-13
-2.53702e-13
4.5953e-13
-6.29301e-13
1.62294e-12
1.57864e-12
-5.52297e-13
-1.59134e-12
-1.98654e-12
-1.78462e-11
7.6253e-11
-9.52346e-12
4.5954e-10
1.80631e-11
4.23801e-10
-5.98214e-14
1.32278e-11
-5.19285e-13
8.45392e-13
2.78454e-13
1.1128e-12
2.41929e-13
3.4036e-13
2.77151e-13
-5.24777e-13
1.89184e-13
-8.69807e-13
-1.13585e-13
-6.08143e-13
-3.06085e-13
-1.20457e-13
-2.65204e-13
2.33713e-13
-7.75148e-14
3.34861e-13
2.20032e-13
3.30504e-13
1.44832e-13
6.10422e-13
1.83168e-12
-2.34774e-12
-3.73278e-13
-3.13113e-12
2.71204e-11
-1.85941e-12
-1.41489e-11
3.19544e-12
-1.14409e-12
-2.39682e-12
-1.61031e-12
6.83572e-14
1.0796e-12
9.08159e-13
2.04019e-13
-2.44958e-13
-2.11264e-13
5.11216e-14
)
;

boundaryField
{
    sides
    {
        type            calculated;
        value           uniform 0;
    }
    inlet
    {
        type            calculated;
        value           uniform 0;
    }
    outlet
    {
        type            calculated;
        value           nonuniform List<scalar> 
20
(
-2.32718e-13
2.69476e-14
2.50291e-13
2.76214e-13
-7.2692e-14
-6.00372e-13
-8.33867e-13
-8.76835e-13
-2.15642e-13
6.50032e-13
1.08831e-12
6.53212e-13
-1.43509e-13
-7.08057e-13
-6.0166e-13
-1.90862e-13
3.76218e-13
6.19694e-13
3.817e-13
1.5322e-13
)
;
    }
    frontAndBack
    {
        type            empty;
        value           nonuniform 0();
    }
}


// ************************************************************************* //
