/*--------------------------------*- C++ -*----------------------------------*\
  =========                 |
  \\      /  F ield         | OpenFOAM: The Open Source CFD Toolbox
   \\    /   O peration     | Website:  https://openfoam.org
    \\  /    A nd           | Version:  7
     \\/     M anipulation  |
\*---------------------------------------------------------------------------*/
FoamFile
{
    version     2.0;
    format      ascii;
    class       surfaceScalarField;
    location    "88";
    object      phi;
}
// * * * * * * * * * * * * * * * * * * * * * * * * * * * * * * * * * * * * * //

dimensions      [0 4 -1 0 0 0 0];

internalField   nonuniform List<scalar> 
760
(
4.99999e-06
1.01059e-11
4.99999e-06
-4.2737e-12
5.00001e-06
-1.29732e-11
5.00003e-06
-1.95464e-11
5.00005e-06
-2.62546e-11
5.00009e-06
-3.24924e-11
5.00013e-06
-4.74177e-11
5.00018e-06
-5.66389e-11
5.00025e-06
-6.28987e-11
5.00032e-06
-7.82822e-11
5.00041e-06
-9.01831e-11
5.00053e-06
-1.13925e-10
5.00066e-06
-1.2674e-10
5.00082e-06
-1.6768e-10
5.001e-06
-1.77996e-10
5.00126e-06
-2.56857e-10
5.00151e-06
-2.5621e-10
5.00195e-06
-4.31756e-10
5.00236e-06
-4.14162e-10
-8.91654e-10
5.00002e-06
-1.17086e-11
5.00004e-06
-1.88484e-11
5.00005e-06
-2.92506e-11
5.00008e-06
-4.17563e-11
5.0001e-06
-5.44067e-11
5.00014e-06
-6.85936e-11
5.00018e-06
-8.49687e-11
5.00023e-06
-1.04623e-10
5.00029e-06
-1.23647e-10
5.00037e-06
-1.53367e-10
5.00045e-06
-1.77119e-10
5.00056e-06
-2.22001e-10
5.00069e-06
-2.50149e-10
5.00084e-06
-3.23961e-10
5.00102e-06
-3.53814e-10
5.00125e-06
-4.86056e-10
5.0015e-06
-5.09234e-10
5.00184e-06
-7.67917e-10
5.00218e-06
-7.59971e-10
-1.26211e-09
4.99999e-06
-4.68216e-12
4.99999e-06
-2.02532e-11
5e-06
-3.7439e-11
5.00002e-06
-5.64777e-11
5.00004e-06
-7.64545e-11
5.00007e-06
-9.90831e-11
5.00011e-06
-1.22864e-10
5.00016e-06
-1.51999e-10
5.00021e-06
-1.82703e-10
5.00029e-06
-2.23951e-10
5.00037e-06
-2.6233e-10
5.00047e-06
-3.23218e-10
5.00059e-06
-3.71803e-10
5.00074e-06
-4.67353e-10
5.00091e-06
-5.25587e-10
5.00111e-06
-6.86605e-10
5.00135e-06
-7.47859e-10
5.00162e-06
-1.04113e-09
5.00194e-06
-1.0833e-09
-1.68974e-09
5.00001e-06
-1.2689e-11
5.00002e-06
-3.32305e-11
5.00004e-06
-5.40987e-11
5.00006e-06
-7.73165e-11
5.00008e-06
-1.01676e-10
5.00011e-06
-1.30516e-10
5.00015e-06
-1.60056e-10
5.0002e-06
-1.98066e-10
5.00025e-06
-2.36459e-10
5.00032e-06
-2.88869e-10
5.00039e-06
-3.38401e-10
5.00049e-06
-4.15265e-10
5.00059e-06
-4.78236e-10
5.00072e-06
-5.96224e-10
5.00087e-06
-6.7253e-10
5.00105e-06
-8.64772e-10
5.00124e-06
-9.46739e-10
5.00148e-06
-1.27992e-09
5.00173e-06
-1.33155e-09
-1.89827e-09
5e-06
-1.16208e-11
5e-06
-3.63665e-11
5.00001e-06
-6.18168e-11
5.00002e-06
-8.98426e-11
5.00004e-06
-1.19643e-10
5.00006e-06
-1.54406e-10
5.0001e-06
-1.91254e-10
5.00013e-06
-2.36581e-10
5.00018e-06
-2.83662e-10
5.00024e-06
-3.45586e-10
5.00031e-06
-4.06847e-10
5.00039e-06
-4.95628e-10
5.00048e-06
-5.74014e-10
5.00059e-06
-7.06942e-10
5.00072e-06
-8.03099e-10
5.00087e-06
-1.01213e-09
5.00104e-06
-1.11627e-09
5.00122e-06
-1.46149e-09
5.00142e-06
-1.53299e-09
-2.16314e-09
5e-06
-1.38208e-11
5.00001e-06
-4.30262e-11
5.00002e-06
-7.26749e-11
5.00003e-06
-1.04659e-10
5.00005e-06
-1.38614e-10
5.00008e-06
-1.77708e-10
5.00011e-06
-2.19798e-10
5.00014e-06
-2.71019e-10
5.00018e-06
-3.24698e-10
5.00023e-06
-3.94805e-10
5.00029e-06
-4.64411e-10
5.00036e-06
-5.63806e-10
5.00043e-06
-6.52806e-10
5.00053e-06
-7.99525e-10
5.00063e-06
-9.08116e-10
5.00075e-06
-1.1339e-09
5.00089e-06
-1.25088e-09
5.00104e-06
-1.61583e-09
5.00121e-06
-1.6975e-09
-2.29391e-09
5e-06
-1.55941e-11
5.00001e-06
-4.74152e-11
5.00001e-06
-7.99669e-11
5.00002e-06
-1.14658e-10
5.00004e-06
-1.51899e-10
5.00005e-06
-1.94753e-10
5.00008e-06
-2.41223e-10
5.0001e-06
-2.97258e-10
5.00013e-06
-3.56727e-10
5.00017e-06
-4.32998e-10
5.00022e-06
-5.09821e-10
5.00027e-06
-6.17076e-10
5.00033e-06
-7.15346e-10
5.00041e-06
-8.71502e-10
5.00049e-06
-9.91165e-10
5.00058e-06
-1.22717e-09
5.00069e-06
-1.35533e-09
5.0008e-06
-1.72653e-09
5.00091e-06
-1.81245e-09
-2.44253e-09
5e-06
-1.667e-11
5e-06
-5.04196e-11
5.00001e-06
-8.49216e-11
5.00002e-06
-1.22166e-10
5.00003e-06
-1.6198e-10
5.00004e-06
-2.07818e-10
5.00006e-06
-2.57442e-10
5.00008e-06
-3.17132e-10
5.0001e-06
-3.80618e-10
5.00013e-06
-4.61352e-10
5.00016e-06
-5.43225e-10
5.0002e-06
-6.56286e-10
5.00025e-06
-7.60624e-10
5.0003e-06
-9.23773e-10
5.00036e-06
-1.05034e-09
5.00042e-06
-1.29389e-09
5.0005e-06
-1.42841e-09
5.00058e-06
-1.8073e-09
5.00067e-06
-1.90079e-09
-2.51668e-09
5e-06
-1.72492e-11
5e-06
-5.22891e-11
5.00001e-06
-8.80247e-11
5.00001e-06
-1.26857e-10
5.00002e-06
-1.68284e-10
5.00002e-06
-2.15867e-10
5.00003e-06
-2.67301e-10
5.00005e-06
-3.29127e-10
5.00006e-06
-3.94958e-10
5.00008e-06
-4.78376e-10
5.0001e-06
-5.63339e-10
5.00012e-06
-6.79775e-10
5.00015e-06
-7.87787e-10
5.00018e-06
-9.55014e-10
5.00022e-06
-1.08581e-09
5.00026e-06
-1.3336e-09
5.0003e-06
-1.47214e-09
5.00035e-06
-1.8544e-09
5.00039e-06
-1.94815e-09
-2.57266e-09
5e-06
-1.74427e-11
5e-06
-5.28937e-11
5e-06
-8.91389e-11
5e-06
-1.28447e-10
5.00001e-06
-1.70442e-10
5.00001e-06
-2.18548e-10
5.00001e-06
-2.70609e-10
5.00002e-06
-3.33112e-10
5.00002e-06
-3.99738e-10
5.00003e-06
-4.84118e-10
5.00003e-06
-5.70096e-10
5.00004e-06
-6.87659e-10
5.00005e-06
-7.96994e-10
5.00006e-06
-9.65502e-10
5.00007e-06
-1.09767e-09
5.00009e-06
-1.34672e-09
5.0001e-06
-1.4866e-09
5.00012e-06
-1.86961e-09
5.00013e-06
-1.96525e-09
-2.58891e-09
5e-06
-1.72587e-11
5e-06
-5.22334e-11
5e-06
-8.80873e-11
5e-06
-1.26834e-10
4.99999e-06
-1.68351e-10
4.99999e-06
-2.15861e-10
4.99999e-06
-2.6735e-10
4.99998e-06
-3.2913e-10
4.99998e-06
-3.94943e-10
4.99997e-06
-4.78494e-10
4.99997e-06
-5.63393e-10
4.99996e-06
-6.79843e-10
4.99995e-06
-7.87999e-10
4.99994e-06
-9.55165e-10
4.99993e-06
-1.0858e-09
4.99991e-06
-1.33348e-09
4.9999e-06
-1.47201e-09
4.99988e-06
-1.8542e-09
4.99987e-06
-1.94797e-09
-2.57246e-09
5e-06
-1.6664e-11
5e-06
-5.04522e-11
4.99999e-06
-8.49217e-11
4.99999e-06
-1.22122e-10
4.99998e-06
-1.62001e-10
4.99998e-06
-2.0783e-10
4.99997e-06
-2.57452e-10
4.99995e-06
-3.17144e-10
4.99994e-06
-3.8053e-10
4.99992e-06
-4.61404e-10
4.9999e-06
-5.43308e-10
4.99988e-06
-6.56325e-10
4.99985e-06
-7.6077e-10
4.99982e-06
-9.23951e-10
4.99978e-06
-1.05043e-09
4.99974e-06
-1.29377e-09
4.9997e-06
-1.4282e-09
4.99965e-06
-1.80698e-09
4.99961e-06
-1.90051e-09
-2.51641e-09
5e-06
-1.56332e-11
5e-06
-4.74514e-11
4.99999e-06
-7.98524e-11
4.99998e-06
-1.1469e-10
4.99997e-06
-1.51824e-10
4.99996e-06
-1.94831e-10
4.99994e-06
-2.41162e-10
4.99992e-06
-2.97287e-10
4.9999e-06
-3.56637e-10
4.99987e-06
-4.3283e-10
4.99984e-06
-5.09809e-10
4.9998e-06
-6.17063e-10
4.99975e-06
-7.15331e-10
4.9997e-06
-8.71556e-10
4.99964e-06
-9.91275e-10
4.99958e-06
-1.22711e-09
4.9995e-06
-1.35521e-09
4.99942e-06
-1.72627e-09
4.99933e-06
-1.81224e-09
-2.44216e-09
5e-06
-1.38577e-11
4.99999e-06
-4.29769e-11
4.99999e-06
-7.26419e-11
4.99998e-06
-1.04697e-10
4.99996e-06
-1.38553e-10
4.99995e-06
-1.77853e-10
4.99992e-06
-2.1979e-10
4.9999e-06
-2.71046e-10
4.99987e-06
-3.24835e-10
4.99983e-06
-3.94644e-10
4.99978e-06
-4.64225e-10
4.99973e-06
-5.63657e-10
4.99967e-06
-6.52656e-10
4.99959e-06
-7.99414e-10
4.99951e-06
-9.08139e-10
4.99942e-06
-1.13388e-09
4.99931e-06
-1.25089e-09
4.9992e-06
-1.61567e-09
4.99909e-06
-1.69735e-09
-2.29352e-09
5e-06
-1.15962e-11
4.99999e-06
-3.62927e-11
4.99998e-06
-6.18924e-11
4.99997e-06
-8.98462e-11
4.99995e-06
-1.19807e-10
4.99992e-06
-1.54322e-10
4.99989e-06
-1.91326e-10
4.99986e-06
-2.36427e-10
4.99982e-06
-2.83868e-10
4.99977e-06
-3.45745e-10
4.99971e-06
-4.06787e-10
4.99964e-06
-4.95462e-10
4.99957e-06
-5.73825e-10
4.99947e-06
-7.06717e-10
4.99937e-06
-8.03026e-10
4.99925e-06
-1.01211e-09
4.99911e-06
-1.11636e-09
4.99896e-06
-1.46138e-09
4.99879e-06
-1.53292e-09
-2.16273e-09
5e-06
-1.25886e-11
5e-06
-3.32196e-11
4.99999e-06
-5.42478e-11
4.99998e-06
-7.73535e-11
4.99996e-06
-1.01789e-10
4.99994e-06
-1.3e-10
4.9999e-06
-1.60381e-10
4.99987e-06
-1.97784e-10
4.99982e-06
-2.36354e-10
4.99976e-06
-2.891e-10
4.99969e-06
-3.38551e-10
4.99961e-06
-4.15224e-10
4.99952e-06
-4.781e-10
4.99941e-06
-5.95948e-10
4.99928e-06
-6.7235e-10
4.99913e-06
-8.64619e-10
4.99896e-06
-9.46747e-10
4.99878e-06
-1.27973e-09
4.99858e-06
-1.33143e-09
-1.89778e-09
4.99999e-06
-4.59473e-12
4.99998e-06
-2.03292e-11
4.99996e-06
-3.75267e-11
4.99994e-06
-5.65149e-11
4.99992e-06
-7.62692e-11
4.99988e-06
-9.89322e-11
4.99985e-06
-1.23028e-10
4.9998e-06
-1.5278e-10
4.99975e-06
-1.82455e-10
4.99968e-06
-2.23991e-10
4.99961e-06
-2.62559e-10
4.99952e-06
-3.23369e-10
4.99941e-06
-3.71875e-10
4.99928e-06
-4.67244e-10
4.99913e-06
-5.25481e-10
4.99895e-06
-6.86425e-10
4.99876e-06
-7.47833e-10
4.99852e-06
-1.04093e-09
4.99827e-06
-1.08323e-09
-1.68936e-09
5.00001e-06
-1.17983e-11
5.00001e-06
-1.89764e-11
5e-06
-2.90672e-11
4.99998e-06
-4.16412e-11
4.99996e-06
-5.40533e-11
4.99993e-06
-6.94326e-11
4.99989e-06
-8.37266e-11
4.99984e-06
-1.05256e-10
4.99978e-06
-1.23791e-10
4.99971e-06
-1.53159e-10
4.99963e-06
-1.77128e-10
4.99953e-06
-2.22121e-10
4.99941e-06
-2.50356e-10
4.99926e-06
-3.24014e-10
4.99909e-06
-3.53812e-10
4.99889e-06
-4.85823e-10
4.99865e-06
-5.09139e-10
4.99838e-06
-7.67604e-10
4.99805e-06
-7.59838e-10
-1.26163e-09
4.99998e-06
9.94641e-12
4.99996e-06
-4.35551e-12
4.99995e-06
-1.26471e-11
4.99993e-06
-1.93714e-11
4.9999e-06
-2.68073e-11
4.99986e-06
-3.74884e-11
4.99982e-06
-3.38125e-11
4.99977e-06
-4.58944e-11
4.99971e-06
-6.25089e-11
4.99963e-06
-7.80962e-11
4.99955e-06
-9.01431e-11
4.99944e-06
-1.14107e-10
4.99932e-06
-1.27068e-10
4.99916e-06
-1.67934e-10
4.99898e-06
-1.78139e-10
4.99875e-06
-2.56824e-10
4.9985e-06
-2.56213e-10
4.99817e-06
-4.31695e-10
4.99782e-06
-4.14195e-10
-8.91645e-10
5.00001e-06
5.00001e-06
4.99999e-06
4.99997e-06
4.99995e-06
4.99991e-06
4.99987e-06
4.99982e-06
4.99975e-06
4.99968e-06
4.99958e-06
4.99947e-06
4.99934e-06
4.99918e-06
4.999e-06
4.99874e-06
4.99848e-06
4.99805e-06
4.99764e-06
)
;

boundaryField
{
    sides
    {
        type            calculated;
        value           uniform 0;
    }
    inlet
    {
        type            calculated;
        value           nonuniform List<scalar> 
20
(
-5e-06
-5e-06
-5e-06
-5e-06
-5e-06
-5e-06
-5e-06
-5e-06
-5e-06
-5e-06
-5e-06
-5e-06
-5e-06
-5e-06
-5e-06
-5e-06
-5e-06
-5e-06
-5e-06
-5e-06
)
;
    }
    outlet
    {
        type            calculated;
        value           nonuniform List<scalar> 
20
(
5.00325e-06
5.00255e-06
5.00237e-06
5.00194e-06
5.00169e-06
5.00134e-06
5.00106e-06
5.00074e-06
5.00045e-06
5.00015e-06
4.99985e-06
4.99955e-06
4.99926e-06
4.99894e-06
4.99866e-06
4.99831e-06
4.99806e-06
4.99763e-06
4.99745e-06
4.99675e-06
)
;
    }
    frontAndBack
    {
        type            empty;
        value           nonuniform 0();
    }
}


// ************************************************************************* //
