/*--------------------------------*- C++ -*----------------------------------*\
  =========                 |
  \\      /  F ield         | OpenFOAM: The Open Source CFD Toolbox
   \\    /   O peration     | Website:  https://openfoam.org
    \\  /    A nd           | Version:  7
     \\/     M anipulation  |
\*---------------------------------------------------------------------------*/
FoamFile
{
    version     2.0;
    format      ascii;
    class       surfaceScalarField;
    location    "88";
    object      phi_0;
}
// * * * * * * * * * * * * * * * * * * * * * * * * * * * * * * * * * * * * * //

dimensions      [0 4 -1 0 0 0 0];

internalField   nonuniform List<scalar> 
760
(
4.99999e-06
9.9987e-12
4.99999e-06
-4.19908e-12
5.00001e-06
-1.28445e-11
5.00003e-06
-1.96165e-11
5.00005e-06
-2.657e-11
5.00009e-06
-3.33561e-11
5.00013e-06
-3.82902e-11
5.00018e-06
-4.83886e-11
5.00025e-06
-6.24576e-11
5.00032e-06
-7.82376e-11
5.00041e-06
-9.00388e-11
5.00053e-06
-1.13833e-10
5.00066e-06
-1.26752e-10
5.00082e-06
-1.67749e-10
5.001e-06
-1.78056e-10
5.00126e-06
-2.56884e-10
5.00151e-06
-2.56213e-10
5.00195e-06
-4.31747e-10
5.00236e-06
-4.1415e-10
-8.91647e-10
5.00002e-06
-1.18159e-11
5.00004e-06
-1.88057e-11
5.00005e-06
-2.912e-11
5.00008e-06
-4.1721e-11
5.0001e-06
-5.44303e-11
5.00014e-06
-6.91954e-11
5.00018e-06
-8.43534e-11
5.00023e-06
-1.04203e-10
5.00029e-06
-1.23859e-10
5.00037e-06
-1.53294e-10
5.00045e-06
-1.76998e-10
5.00056e-06
-2.21967e-10
5.00069e-06
-2.50188e-10
5.00084e-06
-3.24019e-10
5.00102e-06
-3.53853e-10
5.00125e-06
-4.86069e-10
5.0015e-06
-5.09233e-10
5.00184e-06
-7.67911e-10
5.00218e-06
-7.59969e-10
-1.26211e-09
4.99999e-06
-4.67086e-12
4.99999e-06
-2.02759e-11
5e-06
-3.7412e-11
5.00002e-06
-5.64787e-11
5.00004e-06
-7.63314e-11
5.00007e-06
-9.93792e-11
5.00011e-06
-1.2245e-10
5.00016e-06
-1.52502e-10
5.00021e-06
-1.82775e-10
5.00029e-06
-2.2382e-10
5.00037e-06
-2.62335e-10
5.00047e-06
-3.2329e-10
5.00059e-06
-3.71865e-10
5.00074e-06
-4.67374e-10
5.00091e-06
-5.25573e-10
5.00111e-06
-6.86586e-10
5.00135e-06
-7.47852e-10
5.00162e-06
-1.04113e-09
5.00194e-06
-1.08332e-09
-1.68975e-09
5.00001e-06
-1.26293e-11
5.00002e-06
-3.32591e-11
5.00004e-06
-5.41288e-11
5.00006e-06
-7.73507e-11
5.00008e-06
-1.01619e-10
5.00012e-06
-1.30471e-10
5.00015e-06
-1.60196e-10
5.0002e-06
-1.98242e-10
5.00025e-06
-2.36284e-10
5.00032e-06
-2.88876e-10
5.00039e-06
-3.38516e-10
5.00049e-06
-4.15339e-10
5.00059e-06
-4.78247e-10
5.00072e-06
-5.96188e-10
5.00087e-06
-6.72474e-10
5.00105e-06
-8.64737e-10
5.00124e-06
-9.46742e-10
5.00148e-06
-1.27995e-09
5.00173e-06
-1.33162e-09
-1.8983e-09
5e-06
-1.15793e-11
5e-06
-3.63677e-11
5.00001e-06
-6.18729e-11
5.00002e-06
-8.9846e-11
5.00004e-06
-1.1974e-10
5.00006e-06
-1.54248e-10
5.0001e-06
-1.9137e-10
5.00013e-06
-2.36483e-10
5.00018e-06
-2.83614e-10
5.00024e-06
-3.45717e-10
5.00031e-06
-4.06933e-10
5.00039e-06
-4.95618e-10
5.00048e-06
-5.73953e-10
5.00059e-06
-7.06864e-10
5.00072e-06
-8.03032e-10
5.00087e-06
-1.0121e-09
5.00104e-06
-1.11629e-09
5.00122e-06
-1.46155e-09
5.00142e-06
-1.53308e-09
-2.16319e-09
5e-06
-1.38222e-11
5.00001e-06
-4.3004e-11
5.00002e-06
-7.27193e-11
5.00003e-06
-1.04634e-10
5.00005e-06
-1.38678e-10
5.00008e-06
-1.77709e-10
5.00011e-06
-2.19854e-10
5.00014e-06
-2.70955e-10
5.00018e-06
-3.24799e-10
5.00023e-06
-3.94881e-10
5.00029e-06
-4.64362e-10
5.00036e-06
-5.63735e-10
5.00043e-06
-6.52721e-10
5.00053e-06
-7.99451e-10
5.00063e-06
-9.08085e-10
5.00075e-06
-1.13391e-09
5.00089e-06
-1.25092e-09
5.00104e-06
-1.61589e-09
5.00121e-06
-1.69759e-09
-2.29395e-09
5e-06
-1.56179e-11
5.00001e-06
-4.73903e-11
5.00001e-06
-7.99436e-11
5.00002e-06
-1.1469e-10
5.00004e-06
-1.51887e-10
5.00005e-06
-1.94825e-10
5.00008e-06
-2.41248e-10
5.0001e-06
-2.97276e-10
5.00013e-06
-3.56798e-10
5.00017e-06
-4.32945e-10
5.00022e-06
-5.09744e-10
5.00027e-06
-6.17042e-10
5.00033e-06
-7.15297e-10
5.00041e-06
-8.7147e-10
5.00049e-06
-9.91193e-10
5.00058e-06
-1.22722e-09
5.00069e-06
-1.35538e-09
5.0008e-06
-1.72656e-09
5.00091e-06
-1.8125e-09
-2.44255e-09
5e-06
-1.66674e-11
5e-06
-5.043e-11
5.00001e-06
-8.48843e-11
5.00002e-06
-1.22193e-10
5.00003e-06
-1.61999e-10
5.00004e-06
-2.07902e-10
5.00006e-06
-2.5748e-10
5.00008e-06
-3.17211e-10
5.0001e-06
-3.8063e-10
5.00013e-06
-4.61319e-10
5.00016e-06
-5.43206e-10
5.0002e-06
-6.56249e-10
5.00025e-06
-7.60603e-10
5.0003e-06
-9.23806e-10
5.00036e-06
-1.05041e-09
5.00042e-06
-1.29396e-09
5.0005e-06
-1.42846e-09
5.00058e-06
-1.80731e-09
5.00067e-06
-1.90079e-09
-2.51668e-09
5e-06
-1.72378e-11
5e-06
-5.22901e-11
5.00001e-06
-8.80381e-11
5.00001e-06
-1.26869e-10
5.00002e-06
-1.68331e-10
5.00002e-06
-2.1593e-10
5.00003e-06
-2.67353e-10
5.00005e-06
-3.29209e-10
5.00006e-06
-3.94949e-10
5.00008e-06
-4.78386e-10
5.0001e-06
-5.63321e-10
5.00012e-06
-6.79704e-10
5.00015e-06
-7.87797e-10
5.00018e-06
-9.55087e-10
5.00022e-06
-1.08585e-09
5.00026e-06
-1.33363e-09
5.0003e-06
-1.47219e-09
5.00035e-06
-1.85442e-09
5.00039e-06
-1.94815e-09
-2.57265e-09
5e-06
-1.74453e-11
5e-06
-5.28997e-11
5e-06
-8.91536e-11
5e-06
-1.28463e-10
5.00001e-06
-1.70466e-10
5.00001e-06
-2.18581e-10
5.00001e-06
-2.70641e-10
5.00002e-06
-3.33152e-10
5.00002e-06
-3.99741e-10
5.00003e-06
-4.84112e-10
5.00003e-06
-5.70067e-10
5.00004e-06
-6.87602e-10
5.00005e-06
-7.96951e-10
5.00006e-06
-9.6548e-10
5.00007e-06
-1.09765e-09
5.00009e-06
-1.34672e-09
5.0001e-06
-1.48664e-09
5.00012e-06
-1.86965e-09
5.00013e-06
-1.96529e-09
-2.58892e-09
5e-06
-1.72717e-11
5e-06
-5.22538e-11
5e-06
-8.80891e-11
5e-06
-1.26853e-10
4.99999e-06
-1.68341e-10
4.99999e-06
-2.15868e-10
4.99999e-06
-2.67366e-10
4.99998e-06
-3.29126e-10
4.99998e-06
-3.9498e-10
4.99997e-06
-4.78468e-10
4.99997e-06
-5.63364e-10
4.99996e-06
-6.79833e-10
4.99995e-06
-7.87898e-10
4.99994e-06
-9.55027e-10
4.99993e-06
-1.08572e-09
4.99991e-06
-1.33346e-09
4.9999e-06
-1.47203e-09
4.99988e-06
-1.85424e-09
4.99987e-06
-1.94806e-09
-2.57251e-09
5e-06
-1.66742e-11
5e-06
-5.04481e-11
4.99999e-06
-8.49562e-11
4.99999e-06
-1.22125e-10
4.99998e-06
-1.62014e-10
4.99998e-06
-2.07822e-10
4.99997e-06
-2.57493e-10
4.99995e-06
-3.17124e-10
4.99994e-06
-3.80587e-10
4.99992e-06
-4.61424e-10
4.9999e-06
-5.43284e-10
4.99988e-06
-6.56331e-10
4.99985e-06
-7.60722e-10
4.99982e-06
-9.23846e-10
4.99978e-06
-1.05033e-09
4.99974e-06
-1.29371e-09
4.9997e-06
-1.4282e-09
4.99965e-06
-1.80705e-09
4.99961e-06
-1.90064e-09
-2.51648e-09
5e-06
-1.56088e-11
5e-06
-4.74543e-11
4.99999e-06
-7.9889e-11
4.99998e-06
-1.14669e-10
4.99997e-06
-1.51902e-10
4.99996e-06
-1.94828e-10
4.99994e-06
-2.41235e-10
4.99992e-06
-2.973e-10
4.9999e-06
-3.56639e-10
4.99987e-06
-4.32916e-10
4.99984e-06
-5.09842e-10
4.9998e-06
-6.17053e-10
4.99975e-06
-7.15339e-10
4.9997e-06
-8.71559e-10
4.99964e-06
-9.91243e-10
4.99958e-06
-1.22708e-09
4.9995e-06
-1.35522e-09
4.99942e-06
-1.72633e-09
4.99933e-06
-1.81234e-09
-2.44221e-09
5e-06
-1.38368e-11
4.99999e-06
-4.29745e-11
4.99999e-06
-7.26013e-11
4.99998e-06
-1.0473e-10
4.99996e-06
-1.38602e-10
4.99995e-06
-1.77882e-10
4.99992e-06
-2.19831e-10
4.9999e-06
-2.71143e-10
4.99987e-06
-3.24743e-10
4.99983e-06
-3.94629e-10
4.99978e-06
-4.6428e-10
4.99973e-06
-5.63675e-10
4.99967e-06
-6.5269e-10
4.99959e-06
-7.99474e-10
4.99951e-06
-9.08182e-10
4.99942e-06
-1.13391e-09
4.99931e-06
-1.25091e-09
4.9992e-06
-1.61568e-09
4.99909e-06
-1.69739e-09
-2.29354e-09
5e-06
-1.16098e-11
4.99999e-06
-3.62748e-11
4.99998e-06
-6.18322e-11
4.99997e-06
-8.98942e-11
4.99995e-06
-1.19747e-10
4.99992e-06
-1.545e-10
4.99989e-06
-1.9132e-10
4.99986e-06
-2.36608e-10
4.99982e-06
-2.8389e-10
4.99977e-06
-3.45616e-10
4.99971e-06
-4.06725e-10
4.99964e-06
-4.95449e-10
4.99957e-06
-5.73842e-10
4.99947e-06
-7.06772e-10
4.99937e-06
-8.031e-10
4.99925e-06
-1.01217e-09
4.99911e-06
-1.11639e-09
4.99896e-06
-1.46137e-09
4.99879e-06
-1.53291e-09
-2.16273e-09
5e-06
-1.26266e-11
5e-06
-3.31841e-11
4.99999e-06
-5.42162e-11
4.99998e-06
-7.73671e-11
4.99996e-06
-1.01796e-10
4.99994e-06
-1.30217e-10
4.9999e-06
-1.60191e-10
4.99987e-06
-1.97884e-10
4.99982e-06
-2.36531e-10
4.99976e-06
-2.89052e-10
4.99969e-06
-3.38429e-10
4.99961e-06
-4.1514e-10
4.99952e-06
-4.78054e-10
4.99941e-06
-5.95953e-10
4.99928e-06
-6.72397e-10
4.99913e-06
-8.64676e-10
4.99896e-06
-9.46786e-10
4.99878e-06
-1.27974e-09
4.99858e-06
-1.33142e-09
-1.89777e-09
4.99999e-06
-4.60647e-12
4.99998e-06
-2.03068e-11
4.99996e-06
-3.7558e-11
4.99994e-06
-5.65102e-11
4.99992e-06
-7.63858e-11
4.99989e-06
-9.87571e-11
4.99985e-06
-1.23186e-10
4.9998e-06
-1.52107e-10
4.99975e-06
-1.82591e-10
4.99968e-06
-2.24093e-10
4.99961e-06
-2.62516e-10
4.99952e-06
-3.23286e-10
4.99941e-06
-3.71796e-10
4.99928e-06
-4.67199e-10
4.99913e-06
-5.25476e-10
4.99896e-06
-6.86449e-10
4.99876e-06
-7.47874e-10
4.99852e-06
-1.04097e-09
4.99827e-06
-1.08325e-09
-1.68936e-09
5.00001e-06
-1.17504e-11
5.00001e-06
-1.90177e-11
5e-06
-2.91882e-11
4.99998e-06
-4.16171e-11
4.99996e-06
-5.4114e-11
4.99993e-06
-6.90627e-11
4.99989e-06
-8.48333e-11
4.99984e-06
-1.05562e-10
4.99979e-06
-1.23552e-10
4.99971e-06
-1.53274e-10
4.99963e-06
-1.77213e-10
4.99953e-06
-2.22126e-10
4.99941e-06
-2.50305e-10
4.99926e-06
-3.23947e-10
4.99909e-06
-3.53757e-10
4.99889e-06
-4.85804e-10
4.99865e-06
-5.09161e-10
4.99838e-06
-7.67643e-10
4.99805e-06
-7.59878e-10
-1.26164e-09
4.99998e-06
1.00286e-11
4.99996e-06
-4.43112e-12
4.99995e-06
-1.27647e-11
4.99992e-06
-1.92872e-11
4.9999e-06
-2.6586e-11
4.99986e-06
-2.96739e-11
4.99982e-06
-4.37028e-11
4.99977e-06
-5.33859e-11
4.99971e-06
-6.24931e-11
4.99963e-06
-7.81534e-11
4.99955e-06
-9.02525e-11
4.99944e-06
-1.14169e-10
4.99932e-06
-1.27053e-10
4.99916e-06
-1.6787e-10
4.99898e-06
-1.78075e-10
4.99875e-06
-2.56792e-10
4.9985e-06
-2.56221e-10
4.99817e-06
-4.31724e-10
4.99782e-06
-4.14228e-10
-8.91661e-10
5.00001e-06
5.00001e-06
4.99999e-06
4.99997e-06
4.99995e-06
4.99991e-06
4.99987e-06
4.99982e-06
4.99975e-06
4.99968e-06
4.99959e-06
4.99947e-06
4.99934e-06
4.99918e-06
4.999e-06
4.99874e-06
4.99848e-06
4.99805e-06
4.99764e-06
)
;

boundaryField
{
    sides
    {
        type            calculated;
        value           uniform 0;
    }
    inlet
    {
        type            calculated;
        value           nonuniform List<scalar> 
20
(
-5e-06
-5e-06
-5e-06
-5e-06
-5e-06
-5e-06
-5e-06
-5e-06
-5e-06
-5e-06
-5e-06
-5e-06
-5e-06
-5e-06
-5e-06
-5e-06
-5e-06
-5e-06
-5e-06
-5e-06
)
;
    }
    outlet
    {
        type            calculated;
        value           nonuniform List<scalar> 
20
(
5.00325e-06
5.00255e-06
5.00237e-06
5.00194e-06
5.00169e-06
5.00134e-06
5.00106e-06
5.00074e-06
5.00045e-06
5.00015e-06
4.99985e-06
4.99955e-06
4.99926e-06
4.99894e-06
4.99866e-06
4.99831e-06
4.99806e-06
4.99763e-06
4.99745e-06
4.99675e-06
)
;
    }
    frontAndBack
    {
        type            empty;
        value           nonuniform 0();
    }
}


// ************************************************************************* //
