/*--------------------------------*- C++ -*----------------------------------*\
  =========                 |
  \\      /  F ield         | OpenFOAM: The Open Source CFD Toolbox
   \\    /   O peration     | Website:  https://openfoam.org
    \\  /    A nd           | Version:  7
     \\/     M anipulation  |
\*---------------------------------------------------------------------------*/
FoamFile
{
    version     2.0;
    format      ascii;
    class       volScalarField;
    location    "96";
    object      ddt0(h);
}
// * * * * * * * * * * * * * * * * * * * * * * * * * * * * * * * * * * * * * //

dimensions      [0 1 -1 0 0 0 0];

internalField   nonuniform List<scalar> 
400
(
-6.43128e-10
-1.91172e-10
1.78299e-09
-1.36018e-09
7.79779e-10
8.46288e-09
-7.47741e-09
2.83415e-08
-1.77588e-09
1.54925e-09
1.10566e-09
7.91268e-10
3.90816e-10
8.68236e-11
-9.5836e-11
-1.59013e-10
-8.39764e-11
7.28432e-11
1.36559e-10
5.62553e-11
7.87758e-11
-2.03169e-10
-3.57397e-10
7.81614e-10
-2.35053e-10
-1.0375e-08
1.12972e-08
-4.01906e-08
4.07968e-09
-3.35903e-10
-4.55633e-10
-1.96228e-10
-6.6164e-11
-2.10611e-11
-8.13873e-11
-6.44043e-11
7.98738e-11
1.25046e-10
3.09929e-11
-1.21525e-11
5.81816e-10
1.47923e-10
-1.53894e-09
1.16338e-09
-1.90575e-09
4.03431e-09
-7.32684e-09
1.2604e-08
5.6621e-10
-1.01347e-09
-2.36744e-10
-4.92267e-10
-4.8988e-10
-2.47227e-10
-1.11169e-10
9.12476e-11
2.89971e-10
1.14113e-10
-1.84937e-10
-1.35046e-10
9.78926e-11
2.07584e-10
-7.3037e-10
8.70089e-11
-2.52876e-10
-2.76414e-10
1.59615e-09
2.09406e-09
-2.34456e-09
-5.31442e-10
-5.93994e-11
-3.95647e-10
-3.34798e-10
-1.09559e-10
6.75572e-11
2.09633e-10
2.44172e-10
4.87958e-12
-2.89153e-10
-1.95822e-10
-3.20759e-10
-4.37712e-11
2.33868e-10
-8.91214e-10
1.49662e-09
-2.11387e-09
2.01755e-09
-1.45866e-09
-1.64162e-09
3.44471e-10
-2.72985e-10
-2.96096e-10
2.09779e-12
1.27906e-10
3.23425e-10
2.30747e-10
-5.71096e-11
-1.28015e-10
-9.95652e-11
-5.84327e-11
-2.05267e-10
-2.50611e-10
6.98687e-10
-6.59198e-10
9.13369e-10
-6.35794e-10
8.41372e-10
-1.86909e-09
3.91026e-10
3.59815e-10
-6.00472e-10
1.99874e-10
4.09012e-10
1.86063e-10
3.14367e-10
8.61229e-11
-3.85522e-10
-2.11577e-10
2.66757e-10
2.20412e-10
8.78414e-11
-2.24819e-10
1.83532e-10
5.21444e-10
-5.3281e-10
5.5037e-10
-4.01497e-10
-3.64515e-10
6.68913e-10
-6.23678e-10
7.40459e-11
8.2364e-10
3.97803e-10
7.3737e-11
7.59612e-11
-1.78289e-10
-4.85279e-10
-1.31805e-10
4.60417e-10
3.38932e-10
9.0736e-11
2.80117e-10
-6.51398e-10
6.45953e-10
-5.02813e-10
6.50723e-10
-6.83869e-10
6.251e-10
2.0521e-12
-1.89909e-10
1.05162e-09
3.91513e-10
-1.74264e-10
1.12692e-10
-4.64032e-11
-3.97401e-10
-3.13919e-10
9.871e-11
3.60583e-10
1.98155e-10
-1.30322e-10
2.68956e-10
-2.11867e-10
-3.67235e-11
-5.20697e-11
1.52133e-10
-1.58896e-10
5.05268e-10
-2.74287e-11
3.41948e-10
4.0746e-10
-4.01156e-10
-2.17857e-10
2.37331e-10
-7.15657e-11
-2.63345e-10
1.5963e-11
1.39792e-10
4.06899e-11
-9.4197e-12
-7.13591e-11
-1.89605e-10
3.39697e-10
-2.14274e-10
2.03536e-10
-3.31796e-10
2.63988e-10
-1.08136e-10
2.1902e-10
2.09843e-10
-6.92278e-10
-2.91523e-10
1.42758e-10
-2.70607e-10
-2.88092e-10
3.69055e-10
5.93028e-10
-2.21391e-11
-4.88007e-10
-2.64249e-10
8.60211e-11
-2.95869e-10
3.89724e-10
-3.33372e-10
2.37213e-10
-4.44003e-10
3.83223e-10
-2.75297e-10
2.49758e-10
1.81083e-10
-9.13525e-10
-1.79015e-10
2.61883e-10
-3.91386e-10
-2.83931e-10
5.65373e-10
7.11875e-10
-1.11608e-10
-6.87964e-10
-3.68e-10
1.2066e-10
1.09714e-10
4.30205e-13
-4.0377e-10
6.38039e-11
-1.7013e-10
8.22118e-11
1.65999e-10
-9.26658e-11
3.71529e-10
-6.03874e-11
-4.24929e-10
-5.24167e-11
1.61284e-10
-3.14973e-12
-2.55689e-12
1.70056e-10
1.02603e-11
-2.93176e-10
-1.99138e-10
1.08585e-10
4.51821e-10
-5.6029e-10
3.35443e-10
-3.94202e-10
3.57587e-10
-6.5482e-10
5.82572e-10
-3.92826e-10
-3.20703e-11
9.84179e-10
3.21562e-11
-3.84714e-10
1.00222e-10
2.95366e-12
-3.36393e-10
-1.69965e-10
1.57341e-10
1.59763e-10
3.22105e-11
-1.66703e-12
2.8198e-11
-8.8411e-11
9.27917e-10
-9.06129e-10
8.1772e-10
-9.83719e-10
1.93669e-10
1.70781e-10
-9.3747e-10
4.88023e-10
7.8342e-10
8.72995e-11
-1.01426e-10
-9.55358e-11
-2.57634e-10
-3.00956e-10
7.94069e-11
4.57133e-10
2.77012e-10
-2.85566e-10
-2.47652e-10
6.63e-10
-1.70473e-10
2.43478e-10
2.46451e-10
9.08245e-11
-1.5112e-09
9.69136e-10
-3.75401e-10
-6.75023e-10
4.68215e-10
4.82164e-10
5.87315e-11
6.39723e-11
-4.49872e-11
-3.07727e-10
-5.856e-11
4.27246e-10
3.05026e-10
-3.1117e-10
-2.03189e-10
4.62785e-10
-9.60546e-10
1.78715e-09
-1.91173e-09
1.78252e-09
-2.25613e-09
-5.61856e-10
4.77013e-10
-7.81576e-10
-2.64446e-10
2.9442e-10
2.44466e-10
2.26661e-10
6.49678e-11
-1.8272e-10
-9.63514e-11
1.17792e-10
8.80843e-11
3.14686e-10
1.17462e-10
-5.18689e-10
-4.91217e-10
1.07898e-09
-2.24525e-09
4.0362e-09
-4.25551e-10
-1.80477e-09
3.0733e-10
-3.1762e-10
-6.67062e-10
-2.01084e-10
1.51935e-10
1.90603e-10
9.31806e-11
1.56029e-11
-6.09619e-11
-1.48494e-10
-9.46056e-11
8.82928e-10
2.19125e-10
-1.48176e-09
7.36054e-10
-3.90996e-10
7.24673e-10
-6.4334e-11
8.25314e-09
-1.60761e-09
1.61708e-10
2.89687e-12
-7.7179e-10
-5.34609e-10
-3.05473e-11
8.48554e-11
6.64098e-11
1.01775e-10
-1.40817e-11
-1.77295e-10
-1.06016e-10
2.58016e-10
3.78757e-11
-5.3928e-10
1.29032e-09
-5.07123e-10
-2.01217e-09
-6.58618e-09
3.82905e-08
2.52966e-09
-6.65462e-10
-1.89673e-10
-1.82883e-10
-2.01268e-10
-8.87514e-11
-5.32605e-11
-2.34455e-11
4.61796e-11
2.01797e-11
-6.64289e-11
-4.78891e-11
-7.38322e-10
-1.87617e-11
1.92381e-09
-9.68074e-10
-1.12418e-09
4.51911e-09
1.94611e-09
-4.31968e-08
4.02534e-10
4.00503e-10
1.14106e-09
1.0727e-09
1.88681e-10
-2.80702e-10
-2.20109e-10
-4.93125e-11
1.86506e-11
1.24688e-11
-2.30003e-11
-2.53678e-11
)
;

boundaryField
{
    sides
    {
        type            calculated;
        value           nonuniform List<scalar> 
40
(
-7.38322e-10
-1.87617e-11
1.92381e-09
-9.68074e-10
-1.12418e-09
4.51911e-09
1.94611e-09
-4.31968e-08
4.02534e-10
4.00503e-10
1.14106e-09
1.0727e-09
1.88681e-10
-2.80702e-10
-2.20109e-10
-4.93125e-11
1.86506e-11
1.24688e-11
-2.30003e-11
-2.53678e-11
-6.43128e-10
-1.91172e-10
1.78299e-09
-1.36018e-09
7.79779e-10
8.46288e-09
-7.47741e-09
2.83415e-08
-1.77588e-09
1.54925e-09
1.10566e-09
7.91268e-10
3.90816e-10
8.68236e-11
-9.5836e-11
-1.59013e-10
-8.39764e-11
7.28432e-11
1.36559e-10
5.62553e-11
)
;
    }
    inlet
    {
        type            calculated;
        value           nonuniform List<scalar> 
20
(
-6.43128e-10
7.87758e-11
5.81816e-10
9.78926e-11
-3.20759e-10
-2.05267e-10
8.78414e-11
9.0736e-11
-1.30322e-10
-7.13591e-11
8.60211e-11
1.2066e-10
1.08585e-10
-1.66703e-12
-2.85566e-10
-3.1117e-10
3.14686e-10
8.82928e-10
2.58016e-10
-7.38322e-10
)
;
    }
    outlet
    {
        type            calculated;
        value           uniform 0;
    }
    frontAndBack
    {
        type            empty;
    }
}


// ************************************************************************* //
