/*--------------------------------*- C++ -*----------------------------------*\
  =========                 |
  \\      /  F ield         | OpenFOAM: The Open Source CFD Toolbox
   \\    /   O peration     | Website:  https://openfoam.org
    \\  /    A nd           | Version:  7
     \\/     M anipulation  |
\*---------------------------------------------------------------------------*/
FoamFile
{
    version     2.0;
    format      ascii;
    class       volVectorField;
    location    "96";
    object      ddt0(hU);
}
// * * * * * * * * * * * * * * * * * * * * * * * * * * * * * * * * * * * * * //

dimensions      [0 2 -2 0 0 0 0];

internalField   nonuniform List<vector> 
400
(
(5.58559e-12 2.47627e-11 0)
(1.12645e-11 -6.78087e-11 0)
(-1.40063e-11 5.80737e-11 0)
(8.86711e-11 1.43162e-10 0)
(1.41794e-10 -1.83714e-10 0)
(1.03474e-09 -1.10755e-10 0)
(3.60787e-10 -2.26675e-10 0)
(1.85472e-09 -2.10635e-09 0)
(-1.51439e-09 7.88673e-10 0)
(6.6379e-10 4.74535e-10 0)
(4.01099e-10 1.41091e-10 0)
(2.63132e-10 7.05637e-12 0)
(8.42279e-11 -7.29021e-11 0)
(-8.86149e-11 -8.49412e-11 0)
(-1.25472e-10 -4.78591e-11 0)
(-6.11341e-11 -7.85126e-12 0)
(5.43677e-12 7.96653e-12 0)
(3.25911e-11 -5.45128e-12 0)
(3.35667e-11 -1.17107e-11 0)
(4.54866e-12 2.08975e-12 0)
(-5.24326e-12 4.89389e-11 0)
(1.96513e-11 -5.38461e-11 0)
(-6.59019e-12 6.23538e-11 0)
(7.27558e-11 2.46896e-10 0)
(-2.40335e-10 -3.75725e-10 0)
(-8.70739e-10 2.7054e-10 0)
(2.74553e-10 -8.69824e-10 0)
(-4.12375e-09 -1.29528e-09 0)
(1.75291e-09 1.01879e-09 0)
(-1.86805e-10 4.31593e-10 0)
(-2.30754e-10 2.13802e-10 0)
(-4.12173e-11 5.85167e-11 0)
(-4.51187e-11 -1.01504e-10 0)
(-6.59652e-11 -1.30118e-10 0)
(-3.94766e-11 -5.63832e-11 0)
(5.5765e-12 1.20976e-11 0)
(1.90153e-11 2.51232e-11 0)
(8.09814e-12 -2.2409e-12 0)
(1.22635e-11 -2.36438e-11 0)
(1.22653e-11 -1.02727e-11 0)
(3.28544e-11 3.1289e-11 0)
(2.10828e-11 2.48115e-11 0)
(-3.23427e-11 -8.41444e-11 0)
(-7.87145e-11 4.67892e-11 0)
(-1.34503e-10 -1.92579e-10 0)
(1.45514e-10 3.9738e-10 0)
(-1.22113e-09 -4.95738e-10 0)
(2.11459e-09 1.40926e-09 0)
(5.21154e-10 3.0342e-12 0)
(-4.28248e-10 -1.74258e-10 0)
(-1.06678e-10 3.61724e-11 0)
(-1.7784e-10 4.64276e-12 0)
(-1.92847e-10 -7.2748e-11 0)
(-7.45238e-11 -6.21202e-11 0)
(1.94513e-11 -3.73482e-12 0)
(4.90854e-11 1.35915e-11 0)
(3.02665e-11 1.5591e-12 0)
(-1.19847e-11 -7.68113e-12 0)
(-1.35296e-11 -5.27269e-12 0)
(9.43758e-12 9.77333e-12 0)
(-3.28738e-12 3.7035e-12 0)
(-4.49054e-11 1.54169e-11 0)
(-1.39165e-11 -1.10291e-10 0)
(-9.4368e-11 -1.2674e-10 0)
(9.84316e-11 7.4519e-11 0)
(-1.52518e-10 -1.75894e-10 0)
(2.37624e-10 4.09229e-10 0)
(6.95515e-10 4.86961e-10 0)
(-5.40972e-10 -4.81437e-10 0)
(-1.80892e-10 -1.76332e-10 0)
(4.72536e-12 -8.4132e-11 0)
(-1.62224e-10 -1.34649e-10 0)
(-1.25477e-10 -6.94372e-11 0)
(9.84805e-12 1.50441e-11 0)
(6.55138e-11 3.84044e-11 0)
(4.25505e-11 2.63553e-12 0)
(7.6615e-12 -2.01842e-11 0)
(-2.43004e-11 -8.06661e-12 0)
(-3.30338e-11 1.2283e-11 0)
(-9.84699e-12 2.55546e-11 0)
(-3.08308e-11 -2.92405e-11 0)
(-7.30575e-11 -1.49353e-11 0)
(9.14915e-12 6.38593e-12 0)
(-9.23358e-11 -1.45569e-10 0)
(1.6273e-10 1.60062e-10 0)
(-1.6345e-10 -3.05725e-10 0)
(3.80639e-10 3.27879e-10 0)
(-1.93164e-10 -3.12011e-10 0)
(-4.11957e-10 -3.02431e-10 0)
(1.16603e-10 2.71959e-11 0)
(-6.54454e-11 -8.87165e-11 0)
(-1.34461e-10 -1.19593e-10 0)
(2.99487e-11 1.93608e-11 0)
(9.69381e-11 8.28762e-11 0)
(7.37617e-11 3.28128e-11 0)
(1.4208e-11 -3.51274e-11 0)
(-2.29379e-11 -4.15193e-11 0)
(-2.20305e-11 -1.49514e-11 0)
(-1.36216e-11 4.12862e-12 0)
(-1.78105e-11 2.29452e-11 0)
(-1.38581e-11 -6.04854e-11 0)
(-3.13782e-11 -5.57481e-11 0)
(1.11782e-11 5.64209e-11 0)
(-1.25619e-11 -7.3039e-11 0)
(7.18817e-11 8.53598e-11 0)
(-5.31243e-11 -7.02311e-11 0)
(1.728e-10 6.56011e-11 0)
(-3.74127e-10 -2.85799e-10 0)
(6.02183e-11 6.75356e-11 0)
(1.24722e-10 4.48923e-11 0)
(-2.03164e-10 -1.02225e-10 0)
(1.28255e-11 2.34571e-11 0)
(1.73032e-10 1.17101e-10 0)
(7.47989e-11 8.4337e-11 0)
(-7.79034e-12 -5.31227e-12 0)
(-3.24883e-11 -7.94998e-11 0)
(-3.64119e-11 -7.08385e-11 0)
(-1.13442e-11 -3.80685e-11 0)
(3.24812e-11 -2.17851e-11 0)
(1.94609e-11 1.55467e-11 0)
(7.84374e-12 -4.24771e-11 0)
(3.56849e-11 -3.62234e-11 0)
(1.05862e-11 -1.03423e-11 0)
(8.28765e-11 6.92723e-11 0)
(-3.3013e-11 -5.64154e-11 0)
(5.97056e-11 9.48279e-11 0)
(-9.28039e-11 -6.07116e-11 0)
(-1.24634e-10 -4.88662e-11 0)
(1.44048e-10 1.66725e-10 0)
(-1.62181e-10 -7.35015e-11 0)
(-5.24331e-11 1.41098e-11 0)
(2.20879e-10 1.74133e-10 0)
(1.64468e-10 7.84972e-11 0)
(1.96479e-12 -1.76121e-11 0)
(-8.54849e-11 -3.40551e-11 0)
(-8.06847e-11 -6.5505e-11 0)
(-3.50567e-11 -7.64384e-11 0)
(-5.71874e-13 -5.84981e-11 0)
(4.15463e-11 -3.01933e-11 0)
(4.79365e-11 1.43996e-11 0)
(1.44403e-11 1.50963e-11 0)
(6.53713e-11 3.85374e-11 0)
(2.83392e-12 -7.02585e-11 0)
(8.87331e-11 3.38069e-11 0)
(-5.13441e-11 -1.152e-10 0)
(6.45517e-11 9.03542e-12 0)
(-1.54647e-10 -1.18092e-10 0)
(7.55635e-11 6.97961e-11 0)
(-1.64408e-11 2.89377e-11 0)
(-1.05685e-10 -3.51191e-12 0)
(2.16346e-10 1.63246e-10 0)
(1.18857e-10 1.27767e-10 0)
(-4.99283e-11 -5.16628e-11 0)
(-1.25657e-11 -1.26235e-10 0)
(-5.80762e-11 -6.9962e-11 0)
(-1.06923e-10 -3.10616e-11 0)
(-2.96625e-11 -5.01732e-11 0)
(4.23913e-11 -6.70639e-11 0)
(5.52432e-11 -1.75641e-11 0)
(3.52135e-11 3.60437e-11 0)
(1.81558e-11 8.01051e-11 0)
(2.91078e-11 2.46566e-11 0)
(-1.35711e-11 -3.06929e-11 0)
(9.91658e-13 -1.205e-10 0)
(-1.71201e-11 -1.10333e-10 0)
(7.88155e-12 -1.38386e-10 0)
(-4.17822e-11 -1.00875e-10 0)
(8.73593e-11 2.92999e-11 0)
(-2.64716e-11 -5.6378e-11 0)
(5.35012e-11 1.08128e-10 0)
(1.21959e-10 9.67559e-11 0)
(-9.82675e-11 -4.18717e-11 0)
(-1.21737e-10 -6.35459e-11 0)
(3.61237e-11 -1.15184e-10 0)
(3.23089e-11 -1.19669e-10 0)
(-5.06738e-11 -2.91657e-11 0)
(-2.95019e-11 1.1056e-11 0)
(3.21854e-11 -2.78236e-11 0)
(3.16766e-11 -1.45423e-11 0)
(-4.87827e-12 3.28255e-11 0)
(-2.36108e-11 5.67144e-11 0)
(-6.02366e-11 -3.86028e-11 0)
(-1.6251e-11 -1.11461e-11 0)
(-6.66344e-11 -1.1683e-10 0)
(2.18782e-12 -7.07086e-11 0)
(-4.24394e-11 -1.25707e-10 0)
(7.94083e-11 -5.67575e-11 0)
(1.97391e-11 -3.19881e-12 0)
(5.26396e-11 -3.96694e-11 0)
(8.09429e-11 8.52046e-11 0)
(-1.04175e-10 1.10188e-11 0)
(-9.31385e-11 -6.26562e-11 0)
(-5.42668e-11 2.56129e-12 0)
(-6.96311e-11 -4.2344e-11 0)
(3.94423e-11 -1.05365e-10 0)
(1.21017e-10 -4.82771e-11 0)
(5.40739e-11 2.04655e-11 0)
(-2.48334e-11 6.51304e-13 0)
(-4.76196e-11 -1.16846e-11 0)
(-4.26186e-11 2.56106e-11 0)
(-2.42674e-11 -7.55417e-11 0)
(-7.27473e-11 -3.00807e-11 0)
(-3.13098e-12 -4.66088e-11 0)
(-7.89611e-11 1.52066e-11 0)
(5.16272e-12 -1.35686e-11 0)
(-5.77636e-11 2.26324e-11 0)
(1.07942e-10 -4.68958e-12 0)
(-4.42473e-12 1.06432e-11 0)
(6.06635e-11 2.46377e-11 0)
(8.03788e-11 -1.96153e-11 0)
(-1.56388e-10 2.49066e-11 0)
(-6.58495e-11 4.34773e-11 0)
(-1.36538e-11 1.40025e-11 0)
(-9.65773e-11 2.51786e-11 0)
(4.02709e-11 2.20765e-11 0)
(1.7826e-10 -3.71384e-11 0)
(8.15174e-11 -5.37368e-11 0)
(-5.48519e-11 -3.67401e-11 0)
(-9.38767e-11 -1.30997e-11 0)
(-6.18691e-11 2.78488e-11 0)
(3.57771e-11 -1.12507e-10 0)
(2.21891e-11 -4.71781e-11 0)
(1.37517e-11 -5.48267e-11 0)
(-3.60724e-11 6.48034e-11 0)
(-7.19064e-12 5.83454e-12 0)
(-3.27105e-11 8.55864e-11 0)
(1.89314e-11 2.56973e-11 0)
(4.54091e-11 -2.59364e-11 0)
(-3.38493e-11 6.9314e-11 0)
(8.2413e-11 -9.87748e-11 0)
(2.82858e-11 -2.57029e-11 0)
(-9.63066e-11 9.91613e-11 0)
(-5.73383e-11 5.69846e-11 0)
(2.19691e-11 7.74071e-11 0)
(4.38467e-11 6.92664e-11 0)
(2.52002e-11 -6.77161e-11 0)
(2.74482e-12 -1.14928e-10 0)
(-9.13917e-12 -5.53802e-11 0)
(-3.10522e-11 -1.0822e-11 0)
(-3.91603e-11 2.69922e-11 0)
(2.8389e-11 -2.15178e-11 0)
(8.67822e-11 -6.81362e-11 0)
(2.93241e-11 -2.71276e-12 0)
(6.70539e-11 -7.45882e-11 0)
(-4.21305e-11 1.41445e-11 0)
(2.93968e-11 -3.61408e-11 0)
(-1.3769e-10 5.42642e-11 0)
(9.22853e-11 -1.133e-10 0)
(-9.624e-11 4.2556e-11 0)
(-5.58433e-11 -2.44118e-11 0)
(2.38316e-10 -1.35992e-10 0)
(6.15227e-11 -3.28586e-11 0)
(-6.80187e-11 7.01509e-11 0)
(4.94448e-12 8.81813e-11 0)
(-3.78286e-11 1.09629e-11 0)
(-8.11209e-11 -1.02448e-10 0)
(-4.3097e-12 -1.01602e-10 0)
(4.99994e-11 -3.88672e-11 0)
(1.52696e-11 -8.95153e-12 0)
(-1.43098e-11 2.49745e-11 0)
(-8.69225e-12 6.55413e-11 0)
(6.42419e-11 -4.25097e-12 0)
(2.15752e-11 -1.2212e-11 0)
(1.23239e-10 -1.66947e-10 0)
(-6.26926e-11 3.46476e-11 0)
(8.7437e-11 -1.88009e-10 0)
(-1.86373e-10 6.88737e-11 0)
(-7.55968e-13 -8.44235e-11 0)
(6.46578e-11 -1.1271e-10 0)
(-2.41986e-10 1.15887e-10 0)
(7.42086e-11 -6.09979e-11 0)
(2.5253e-10 -1.70554e-10 0)
(1.12658e-10 -4.99464e-11 0)
(-2.6277e-11 1.3563e-11 0)
(-1.21645e-10 -1.23735e-11 0)
(-9.73152e-11 -4.30632e-11 0)
(1.16974e-11 -4.69445e-11 0)
(6.56538e-11 -4.24853e-11 0)
(5.38587e-11 -2.09348e-11 0)
(2.05815e-11 2.19379e-11 0)
(-4.42204e-11 8.3532e-11 0)
(-2.24089e-11 3.77654e-11 0)
(1.402e-11 -8.71907e-11 0)
(6.78474e-11 -5.22804e-11 0)
(9.79752e-12 -7.70365e-11 0)
(2.65124e-11 -1.09934e-10 0)
(2.80714e-11 1.45417e-11 0)
(-3.33342e-10 2.14776e-10 0)
(2.15946e-10 -1.41943e-10 0)
(-4.02913e-11 8.88964e-11 0)
(-2.17455e-10 1.39721e-10 0)
(1.30576e-10 -7.26673e-11 0)
(2.37689e-10 -1.3928e-10 0)
(7.3098e-11 -1.04412e-10 0)
(-5.715e-11 -3.11962e-11 0)
(-7.03253e-11 1.40229e-11 0)
(-2.47809e-11 -8.49233e-12 0)
(3.04397e-11 -5.14158e-11 0)
(5.18764e-11 -3.27763e-11 0)
(2.06264e-11 2.00814e-11 0)
(-5.12432e-11 2.27627e-11 0)
(-9.56007e-11 2.41147e-11 0)
(7.77151e-12 -5.08043e-11 0)
(-4.31729e-11 1.14223e-10 0)
(1.44684e-10 -2.57028e-10 0)
(-1.13471e-10 2.34861e-10 0)
(3.92098e-10 -2.90074e-10 0)
(-4.20555e-10 4.21051e-10 0)
(-1.71884e-10 1.11821e-10 0)
(1.82631e-10 -1.99661e-11 0)
(-2.05997e-10 1.78425e-10 0)
(-1.17303e-10 1.06503e-10 0)
(1.34138e-10 -7.60138e-11 0)
(1.51033e-10 -1.34309e-10 0)
(6.04462e-11 -5.70605e-11 0)
(-2.92595e-11 1.72511e-11 0)
(-5.42781e-11 1.36678e-11 0)
(-5.65934e-12 -3.33105e-11 0)
(2.69601e-11 -4.63703e-11 0)
(1.66157e-11 -4.60862e-12 0)
(1.48914e-11 -1.74926e-11 0)
(-6.82018e-11 -5.81513e-12 0)
(2.31451e-12 4.20232e-11 0)
(-1.49799e-10 1.24808e-10 0)
(1.95824e-10 -3.19384e-10 0)
(-2.40686e-10 3.37754e-10 0)
(5.65611e-10 -8.16403e-10 0)
(1.91567e-10 6.04451e-11 0)
(-5.33161e-10 3.84798e-10 0)
(8.22041e-11 5.58899e-11 0)
(-4.5963e-11 1.44025e-10 0)
(-2.30197e-10 1.80884e-10 0)
(-5.74688e-11 4.10626e-11 0)
(1.21754e-10 -7.3225e-11 0)
(1.30417e-10 -7.93832e-11 0)
(2.86083e-11 -3.14506e-11 0)
(-4.45507e-11 4.86685e-12 0)
(-4.29109e-11 -1.00676e-11 0)
(-2.06156e-11 -2.84902e-11 0)
(1.81216e-11 -1.39576e-12 0)
(5.84718e-11 -5.10976e-11 0)
(-2.44064e-11 -5.19741e-11 0)
(-3.20337e-11 6.58426e-11 0)
(-2.17704e-10 -4.04543e-11 0)
(1.16994e-10 7.00277e-11 0)
(-3.21611e-10 -4.0777e-10 0)
(-1.40746e-10 -1.21891e-09 0)
(1.84933e-09 -7.54623e-10 0)
(-2.932e-10 4.16572e-10 0)
(-1.14687e-10 1.33328e-10 0)
(7.14716e-12 -4.79688e-11 0)
(-2.54408e-10 5.02724e-11 0)
(-1.81832e-10 1.05471e-10 0)
(2.70745e-11 4.03252e-11 0)
(1.11725e-10 -4.7089e-11 0)
(6.60352e-11 -6.16376e-11 0)
(-1.21287e-11 -1.43172e-11 0)
(-5.19363e-11 1.12841e-11 0)
(-4.4285e-11 1.50834e-11 0)
(1.86008e-11 1.94288e-11 0)
(3.05049e-12 -8.85516e-11 0)
(5.39277e-11 6.29101e-12 0)
(2.48111e-11 -1.34809e-11 0)
(3.52221e-11 -3.09499e-10 0)
(-3.20154e-10 6.35761e-10 0)
(-1.53152e-09 -4.33733e-10 0)
(-8.82425e-10 2.76621e-09 0)
(5.71139e-09 -3.99155e-10 0)
(8.09407e-10 -9.53179e-10 0)
(-5.09844e-10 -3.62639e-10 0)
(-1.14033e-10 -3.3783e-10 0)
(-1.39312e-11 -5.97905e-11 0)
(-5.14253e-11 1.52642e-10 0)
(-4.20113e-11 1.29027e-10 0)
(1.48885e-11 7.66585e-12 0)
(5.4274e-11 -5.10374e-11 0)
(2.73276e-11 -2.43552e-11 0)
(-1.72011e-11 1.9666e-11 0)
(-3.06944e-11 3.67261e-11 0)
(-2.93251e-12 2.19158e-11 0)
(-1.41972e-11 -4.38e-11 0)
(8.36442e-11 4.40576e-11 0)
(-1.54303e-11 -4.37655e-11 0)
(2.43002e-10 -2.38913e-10 0)
(-4.09165e-11 4.0521e-10 0)
(2.12437e-09 8.54768e-11 0)
(2.39232e-10 3.44208e-09 0)
(-7.16262e-09 2.16468e-10 0)
(-4.2995e-11 -1.1227e-09 0)
(5.5942e-10 -4.12105e-10 0)
(4.10519e-10 -2.11229e-10 0)
(4.24946e-10 -1.43987e-11 0)
(8.30745e-11 9.37161e-11 0)
(-1.43295e-10 7.01426e-11 0)
(-9.90526e-11 3.53812e-12 0)
(2.51513e-11 -3.28025e-11 0)
(5.39452e-11 -2.25607e-11 0)
(1.54037e-11 2.83688e-12 0)
(-2.64298e-11 2.12056e-11 0)
(-2.99807e-11 1.91639e-11 0)
)
;

boundaryField
{
    sides
    {
        type            calculated;
        value           nonuniform List<vector> 
40
(
(-1.41972e-11 0 0)
(8.36442e-11 0 0)
(-1.54303e-11 0 0)
(2.43002e-10 0 0)
(-4.09165e-11 0 0)
(2.12437e-09 0 0)
(2.39232e-10 0 0)
(-7.16262e-09 0 0)
(-4.2995e-11 0 0)
(5.5942e-10 0 0)
(4.10519e-10 0 0)
(4.24946e-10 0 0)
(8.30745e-11 0 0)
(-1.43295e-10 0 0)
(-9.90526e-11 0 0)
(2.51513e-11 0 0)
(5.39452e-11 0 0)
(1.54037e-11 0 0)
(-2.64298e-11 0 0)
(-2.99807e-11 0 0)
(5.58559e-12 0 0)
(1.12645e-11 0 0)
(-1.40063e-11 0 0)
(8.86711e-11 0 0)
(1.41794e-10 0 0)
(1.03474e-09 0 0)
(3.60787e-10 0 0)
(1.85472e-09 0 0)
(-1.51439e-09 0 0)
(6.6379e-10 0 0)
(4.01099e-10 0 0)
(2.63132e-10 0 0)
(8.42279e-11 0 0)
(-8.86149e-11 0 0)
(-1.25472e-10 0 0)
(-6.11341e-11 0 0)
(5.43677e-12 0 0)
(3.25911e-11 0 0)
(3.35667e-11 0 0)
(4.54866e-12 0 0)
)
;
    }
    inlet
    {
        type            calculated;
        value           uniform (0 0 0);
    }
    outlet
    {
        type            calculated;
        value           nonuniform List<vector> 
20
(
(4.54866e-12 2.08975e-12 0)
(1.22653e-11 -1.02727e-11 0)
(9.43758e-12 9.77333e-12 0)
(-9.84699e-12 2.55546e-11 0)
(-1.78105e-11 2.29452e-11 0)
(1.94609e-11 1.55467e-11 0)
(4.79365e-11 1.43996e-11 0)
(3.52135e-11 3.60437e-11 0)
(-4.87827e-12 3.28255e-11 0)
(-4.26186e-11 2.56106e-11 0)
(-6.18691e-11 2.78488e-11 0)
(-3.91603e-11 2.69922e-11 0)
(-1.43098e-11 2.49745e-11 0)
(2.05815e-11 2.19379e-11 0)
(2.06264e-11 2.00814e-11 0)
(1.66157e-11 -4.60862e-12 0)
(1.81216e-11 -1.39576e-12 0)
(1.86008e-11 1.94288e-11 0)
(-2.93251e-12 2.19158e-11 0)
(-2.99807e-11 1.91639e-11 0)
)
;
    }
    frontAndBack
    {
        type            empty;
    }
}


// ************************************************************************* //
