/*--------------------------------*- C++ -*----------------------------------*\
  =========                 |
  \\      /  F ield         | OpenFOAM: The Open Source CFD Toolbox
   \\    /   O peration     | Website:  https://openfoam.org
    \\  /    A nd           | Version:  7
     \\/     M anipulation  |
\*---------------------------------------------------------------------------*/
FoamFile
{
    version     2.0;
    format      ascii;
    class       surfaceScalarField;
    location    "96";
    object      ddtCorrDdt0(phi);
}
// * * * * * * * * * * * * * * * * * * * * * * * * * * * * * * * * * * * * * //

dimensions      [0 4 -2 0 0 0 0];

internalField   nonuniform List<scalar> 
760
(
7.89454e-13
7.03078e-14
-4.106e-13
-2.5696e-13
-1.18436e-12
6.90885e-13
3.43748e-12
4.84382e-13
-2.78605e-13
-1.35344e-12
4.89818e-12
6.32436e-12
1.03473e-11
2.61017e-10
-7.73262e-12
-1.48309e-10
2.281e-12
3.16199e-12
2.23278e-12
1.96515e-12
1.76991e-12
1.17625e-12
9.96365e-13
4.34185e-13
-1.11802e-13
-2.30567e-13
-7.14205e-13
-4.3345e-13
-4.87291e-13
-2.33404e-13
-7.0735e-14
-1.37115e-14
1.27442e-13
3.81556e-14
1.6942e-13
-4.87002e-14
8.43123e-14
-9.76815e-14
-3.30514e-14
-3.00594e-13
3.54846e-13
5.99303e-13
-1.3706e-13
-2.56791e-13
-2.97998e-13
5.09088e-13
1.07673e-12
-5.56376e-12
-1.43686e-12
4.73615e-12
1.5707e-12
-1.97113e-11
-1.64634e-11
2.81078e-12
4.8784e-13
1.1928e-12
5.09824e-12
-1.43441e-12
1.75545e-13
-4.75195e-13
2.44318e-13
-1.34329e-13
1.51957e-13
-3.52544e-13
-3.6296e-13
-3.36568e-13
-4.23157e-13
-1.54641e-14
-1.0457e-13
1.24713e-13
5.75653e-14
1.22736e-14
1.11503e-14
2.70552e-14
-6.31397e-14
8.89678e-14
-7.43184e-14
-3.22234e-15
-3.67131e-13
2.14926e-13
3.82737e-13
5.10008e-14
4.83635e-13
-6.26516e-13
-2.77007e-12
2.55799e-13
3.62684e-12
-1.13194e-12
-6.69618e-12
2.72632e-12
3.06257e-12
-1.13685e-12
9.52455e-12
9.41852e-12
-2.18444e-12
-1.48483e-12
-8.28966e-13
-1.0177e-12
-6.32758e-13
-1.99177e-13
-1.11043e-12
-4.83648e-13
-7.20984e-13
-5.17773e-13
-6.39066e-14
-1.84667e-13
2.82582e-13
1.08442e-13
2.12257e-13
6.33422e-14
-5.19012e-14
-4.92487e-14
-8.69503e-14
-1.66058e-14
3.60235e-14
6.21047e-14
1.03493e-13
-2.31951e-13
-6.50223e-14
-4.6109e-13
7.90096e-14
8.64951e-13
-3.3574e-13
-2.17944e-12
-6.57895e-13
3.30558e-12
4.1187e-13
-4.40331e-12
-1.98383e-12
6.62705e-12
3.39111e-12
-1.38481e-12
-1.16566e-12
-2.20287e-12
-2.49166e-12
2.09108e-13
-4.2859e-13
-5.44579e-13
-2.82093e-13
-9.3168e-13
-7.1666e-13
-2.44629e-13
-2.22171e-13
3.283e-13
2.29809e-13
3.15502e-13
1.74013e-13
7.56252e-14
-9.10432e-14
-9.98088e-14
-1.44449e-13
-1.4256e-13
-1.88386e-14
-8.06197e-14
9.95644e-14
1.53094e-13
-1.03956e-13
-3.04724e-13
-6.57056e-13
-1.94587e-13
4.56059e-13
2.51889e-13
-5.2129e-13
-8.66498e-13
6.0744e-13
1.1667e-12
-2.10341e-13
-1.44176e-12
2.00917e-12
7.28024e-13
-3.23434e-12
-2.17795e-12
-3.74497e-14
-8.28107e-13
3.93216e-13
5.52735e-13
-9.41186e-13
-5.38656e-13
-2.49152e-13
-4.3627e-13
4.91595e-13
3.9851e-13
4.93449e-13
5.46133e-13
1.53664e-13
7.21718e-14
-6.85198e-14
-3.20696e-13
-8.68742e-14
-2.61606e-13
-8.10916e-14
-1.03123e-13
-8.36291e-14
-5.76952e-14
7.72157e-14
-2.25288e-14
-3.53331e-13
-4.29366e-14
-3.92734e-13
-4.35132e-13
3.29354e-13
1.09348e-12
-6.75235e-14
-1.22465e-12
4.18437e-15
1.49846e-12
4.72023e-13
-9.32369e-13
3.8921e-14
-1.44871e-12
-8.56741e-13
1.52445e-12
1.218e-12
-6.7729e-13
-1.6258e-13
-7.98581e-13
-5.52662e-13
7.80088e-13
5.44968e-13
7.99731e-13
6.97686e-13
6.18227e-14
2.88172e-13
-2.50792e-13
-1.09409e-13
-1.37272e-13
-4.28355e-13
-6.42804e-15
-3.81708e-13
-2.46114e-16
-2.2881e-13
8.84807e-14
-1.85468e-13
2.21128e-14
-2.94031e-14
-7.43825e-14
6.08464e-13
-3.51503e-14
-5.49087e-13
-3.9423e-13
1.03115e-12
7.19609e-13
-8.39345e-13
-5.63504e-13
9.26668e-13
5.27267e-13
-1.63925e-12
-6.04194e-13
7.53893e-13
3.18231e-13
-7.419e-15
4.70156e-13
-1.07386e-12
-4.96038e-13
6.20115e-13
6.67897e-13
1.19999e-12
1.13363e-12
4.78125e-13
8.12566e-14
-3.50416e-13
-4.64418e-13
-6.0087e-13
-2.47568e-13
-2.00582e-13
-2.30235e-13
8.61802e-14
-3.71129e-13
-2.05371e-14
-3.61927e-13
1.56876e-13
-1.20472e-13
1.38417e-13
1.42567e-13
2.34764e-13
2.15525e-13
4.16414e-13
4.24285e-13
-3.33252e-13
-1.91855e-13
-3.34018e-13
2.6e-13
-5.72094e-13
-2.5766e-13
-4.30055e-13
-5.91062e-13
-5.80786e-13
8.62311e-13
3.22443e-13
-9.80737e-13
-2.02288e-13
3.87947e-13
4.21272e-13
1.21735e-12
8.79492e-13
-4.20651e-14
1.37051e-13
-1.60042e-13
-5.3583e-13
-1.03101e-13
-7.55398e-13
-5.55767e-13
-4.28546e-13
-3.52656e-13
-4.31089e-14
1.72116e-13
-1.11478e-13
1.95778e-13
-3.23625e-13
1.75314e-13
-7.88298e-14
2.11953e-13
3.73455e-13
5.70003e-13
-3.54405e-13
-1.24318e-13
4.23392e-13
2.85625e-14
-4.72389e-13
-9.02089e-13
3.5725e-13
-5.355e-13
-4.22997e-13
-9.62212e-13
2.87829e-13
-4.28401e-13
2.52577e-13
-3.52117e-14
-2.96191e-13
-3.29038e-13
7.74126e-13
6.32643e-13
1.77157e-13
1.09955e-13
-8.67173e-13
-4.78466e-13
-2.55229e-13
-9.19265e-14
3.78661e-13
-4.13615e-13
-1.53393e-14
-7.47389e-13
-3.40685e-13
-2.40871e-13
-1.58578e-14
1.83673e-13
2.6203e-13
7.27694e-15
7.89253e-14
-5.15812e-14
1.49854e-13
-2.86167e-13
-7.92281e-15
-1.17595e-13
-2.57203e-13
-3.55586e-13
-1.19617e-13
-5.06921e-14
-2.88972e-13
-1.66079e-13
-1.82419e-13
4.21075e-14
-2.90785e-13
5.14665e-13
-1.38816e-13
-1.54937e-13
5.12001e-15
5.87233e-13
-6.02237e-14
-5.81814e-14
1.89724e-13
-5.76765e-13
3.58985e-14
-3.22636e-13
-9.72873e-14
-5.19681e-13
9.31552e-14
-4.29503e-14
-1.56941e-14
6.88373e-13
-2.52268e-13
3.64235e-13
-2.17763e-13
-1.27204e-13
-1.88367e-14
-5.79869e-14
-4.06043e-14
-1.62441e-13
-6.24399e-14
1.25056e-13
-4.6428e-13
-7.52985e-13
6.24011e-14
-6.68434e-14
-4.97528e-13
-3.66273e-13
5.76928e-14
4.61794e-13
-3.18505e-13
7.13671e-14
1.40438e-13
5.29099e-13
5.5817e-13
9.99606e-14
-3.14047e-13
9.74452e-14
7.67076e-13
3.0391e-13
-2.92548e-13
-3.78698e-13
-7.01856e-13
1.84566e-13
-1.19968e-14
5.094e-13
-5.11806e-13
6.96753e-14
-2.07585e-13
2.78781e-13
8.85561e-13
4.46239e-13
6.42803e-13
-1.67959e-13
-1.76497e-13
-4.97785e-13
-2.79421e-13
-3.0381e-13
-3.13628e-13
-7.0574e-14
1.4133e-13
3.24629e-13
-3.71908e-13
-1.70545e-13
-4.38924e-13
2.55118e-13
-1.98156e-13
-3.89476e-13
2.19723e-13
1.47315e-13
-1.28184e-14
-3.60714e-13
3.20718e-13
5.28431e-13
1.61498e-13
-1.90445e-13
-3.45831e-13
5.73769e-14
3.91574e-13
5.16239e-13
-5.45349e-13
-2.29116e-13
-4.67402e-13
-4.99404e-13
4.04451e-13
-1.29374e-13
5.0567e-13
2.3101e-13
5.00983e-13
2.77017e-13
1.89236e-13
1.87078e-14
-5.40209e-13
-1.19339e-13
-6.0724e-13
-1.47497e-14
-1.99444e-13
-1.35096e-13
-3.23957e-14
1.11601e-13
3.90934e-13
1.57207e-13
6.89719e-14
-2.36041e-13
7.56994e-13
2.06927e-13
-5.27556e-13
-9.91018e-13
4.95605e-13
1.35846e-13
-6.72511e-13
-6.88756e-13
-9.5224e-14
3.732e-13
4.35289e-13
-7.81244e-13
-1.0659e-12
-1.12096e-14
7.63915e-13
3.16068e-13
1.00755e-12
-8.68625e-13
-2.64231e-13
-7.8631e-13
-1.07234e-13
1.50075e-13
-3.22324e-14
3.95087e-13
-4.42324e-13
-4.50261e-14
-2.01784e-13
-4.56801e-13
2.20932e-13
-3.83445e-13
1.61088e-13
-1.64398e-13
-3.24991e-14
-7.49327e-14
9.62009e-14
1.68057e-14
5.05535e-13
5.89373e-13
2.59118e-13
-1.31511e-13
-3.75703e-13
6.40808e-13
-7.21002e-13
-3.45926e-13
2.24691e-13
3.15843e-13
-1.29015e-12
-1.43304e-12
3.04645e-13
1.19111e-12
1.53227e-14
-9.30597e-13
-1.11376e-12
-7.22206e-13
8.60823e-13
1.16225e-12
3.75436e-13
1.00513e-12
-8.51804e-13
2.98466e-13
-6.87322e-13
-4.95213e-13
-3.06144e-13
-7.97576e-13
-1.01865e-13
-1.27789e-13
-1.28792e-14
4.05007e-13
-1.23108e-13
2.32201e-13
-2.64028e-13
1.08211e-13
-1.08491e-13
1.41743e-13
-1.8403e-13
3.80859e-13
1.81948e-13
2.22626e-13
-5.6793e-13
-4.87607e-13
1.62057e-12
4.92793e-13
-1.6625e-12
-1.25035e-12
1.91805e-12
2.99341e-13
-2.09218e-12
-2.01457e-13
-3.42862e-14
2.34032e-12
1.15629e-12
-2.67523e-13
-1.36063e-12
-8.6203e-14
-3.08931e-13
1.05087e-12
1.25583e-12
2.0897e-13
9.52896e-13
-6.8638e-13
-8.89573e-14
-7.43968e-13
-5.3183e-13
-1.91042e-13
-2.1661e-13
1.79542e-13
1.68154e-13
3.60068e-14
1.97788e-13
-2.51761e-13
1.28076e-13
-2.10827e-13
4.8354e-14
-2.92809e-13
-1.98188e-14
-5.43469e-13
-3.88071e-14
1.00074e-13
1.30517e-14
5.30385e-13
7.41394e-13
-7.6185e-13
-1.56681e-12
1.61138e-12
2.43836e-12
1.93852e-13
-3.34648e-12
-2.92668e-12
2.09441e-12
1.25611e-12
1.74714e-12
-2.35681e-13
3.03926e-14
-1.29215e-12
7.41376e-13
1.90006e-13
9.21664e-13
9.2642e-13
-9.79262e-15
5.80092e-13
-5.81857e-13
-2.46002e-14
-3.71069e-13
-2.96648e-13
-1.8621e-14
-1.14535e-13
5.66111e-14
9.11575e-14
-1.26129e-13
1.02422e-13
-2.34411e-13
-4.44225e-14
-1.65999e-13
-3.08994e-13
-6.16378e-13
-1.21466e-13
8.91078e-13
5.05669e-13
-2.12394e-12
-2.6591e-13
2.94705e-12
2.26341e-13
-2.86869e-12
-1.15406e-12
5.79201e-12
-3.25266e-12
-3.45118e-12
-2.79946e-12
-5.61797e-13
2.24257e-12
5.9342e-13
1.784e-13
-1.09139e-12
1.96402e-13
-8.91023e-13
7.77775e-13
2.73547e-13
5.30148e-13
8.16795e-13
-5.43048e-14
4.31763e-13
-3.58547e-13
-1.45172e-13
-2.50185e-13
-2.81053e-13
2.94871e-15
-1.54349e-13
1.76591e-14
1.86928e-14
-5.72558e-14
2.6298e-14
-3.20854e-13
-3.36503e-14
-8.03424e-14
-1.09151e-13
8.96301e-13
4.58819e-13
-4.10831e-12
-1.36979e-12
5.89408e-12
1.62983e-12
-9.60324e-12
-4.72638e-12
1.1064e-11
-3.80547e-13
1.94316e-12
-1.11628e-11
-1.77363e-12
-1.5684e-12
5.16033e-13
3.62792e-14
-8.29157e-13
-6.21558e-13
-1.34915e-12
-3.84826e-14
-3.83718e-13
5.80881e-13
4.92248e-13
4.19747e-13
5.61516e-13
-1.10107e-13
1.09274e-13
-2.99416e-13
-2.62419e-13
-8.19396e-14
-2.83731e-13
9.69082e-14
-3.34571e-14
1.47097e-13
1.2503e-13
-1.53972e-13
-1.6524e-13
6.42201e-13
1.17323e-13
2.54026e-13
-6.44106e-13
-8.02803e-13
-7.33292e-13
-2.82002e-12
2.74303e-12
-1.3058e-11
3.26689e-10
1.80064e-11
4.719e-10
1.74356e-11
-3.4153e-10
-1.66564e-12
-1.155e-11
-1.38348e-12
-1.72068e-12
-1.05e-13
-1.43485e-12
-1.49467e-13
-5.12364e-13
-3.28556e-13
3.72686e-13
-1.21733e-13
4.90553e-13
2.65806e-13
8.25796e-14
2.82365e-13
-1.91597e-13
-3.51046e-14
-1.10491e-13
-1.65499e-13
6.8273e-14
-6.87178e-14
1.68645e-13
1.2929e-13
8.85918e-13
1.03532e-13
-1.82763e-12
5.21749e-12
-3.65913e-12
2.24662e-11
-3.24959e-11
-1.43371e-11
2.8851e-12
1.6811e-12
2.57293e-12
1.39596e-12
-3.9462e-13
-8.25066e-13
-1.39519e-13
3.28816e-13
1.85089e-13
-4.93936e-14
-1.56329e-13
)
;

boundaryField
{
    sides
    {
        type            calculated;
        value           uniform 0;
    }
    inlet
    {
        type            calculated;
        value           uniform 0;
    }
    outlet
    {
        type            calculated;
        value           nonuniform List<scalar> 
20
(
1.19385e-14
5.9906e-14
4.5451e-14
-5.87179e-14
-1.0194e-13
1.72425e-13
4.17907e-13
2.75341e-13
-1.18036e-13
-3.87538e-13
-4.75691e-13
-3.25054e-13
-7.09328e-14
1.97733e-13
1.40453e-13
7.93931e-14
1.28467e-13
1.64963e-13
1.33327e-14
-1.6958e-13
)
;
    }
    frontAndBack
    {
        type            empty;
        value           nonuniform 0();
    }
}


// ************************************************************************* //
