/*--------------------------------*- C++ -*----------------------------------*\
  =========                 |
  \\      /  F ield         | OpenFOAM: The Open Source CFD Toolbox
   \\    /   O peration     | Website:  https://openfoam.org
    \\  /    A nd           | Version:  7
     \\/     M anipulation  |
\*---------------------------------------------------------------------------*/
FoamFile
{
    version     2.0;
    format      ascii;
    class       surfaceScalarField;
    location    "96";
    object      phi;
}
// * * * * * * * * * * * * * * * * * * * * * * * * * * * * * * * * * * * * * //

dimensions      [0 4 -1 0 0 0 0];

internalField   nonuniform List<scalar> 
760
(
4.99999e-06
1.00423e-11
4.99999e-06
-4.40222e-12
5.00001e-06
-1.28556e-11
5.00003e-06
-1.94026e-11
5.00005e-06
-2.67352e-11
5.00009e-06
-3.03095e-11
5.00013e-06
-4.81051e-11
5.00018e-06
-5.11144e-11
5.00025e-06
-6.20353e-11
5.00032e-06
-7.79104e-11
5.00041e-06
-9.00443e-11
5.00053e-06
-1.14045e-10
5.00066e-06
-1.27015e-10
5.00082e-06
-1.67952e-10
5.001e-06
-1.78147e-10
5.00126e-06
-2.56899e-10
5.00151e-06
-2.56182e-10
5.00195e-06
-4.31735e-10
5.00236e-06
-4.14107e-10
-8.91569e-10
5.00002e-06
-1.17415e-11
5.00004e-06
-1.90175e-11
5.00005e-06
-2.93532e-11
5.00008e-06
-4.17386e-11
5.0001e-06
-5.43702e-11
5.00014e-06
-6.89174e-11
5.00018e-06
-8.49189e-11
5.00023e-06
-1.04423e-10
5.00029e-06
-1.23375e-10
5.00037e-06
-1.53223e-10
5.00045e-06
-1.77118e-10
5.00056e-06
-2.22167e-10
5.00069e-06
-2.50448e-10
5.00084e-06
-3.24261e-10
5.00102e-06
-3.54e-10
5.00125e-06
-4.86152e-10
5.0015e-06
-5.09248e-10
5.00184e-06
-7.67927e-10
5.00218e-06
-7.59884e-10
-1.26196e-09
4.99999e-06
-4.66028e-12
4.99999e-06
-2.03707e-11
5e-06
-3.76735e-11
5.00002e-06
-5.66607e-11
5.00004e-06
-7.65009e-11
5.00007e-06
-9.89563e-11
5.00011e-06
-1.22745e-10
5.00016e-06
-1.51911e-10
5.00021e-06
-1.82693e-10
5.00029e-06
-2.23988e-10
5.00037e-06
-2.62465e-10
5.00047e-06
-3.2342e-10
5.00059e-06
-3.72035e-10
5.00074e-06
-4.67563e-10
5.00091e-06
-5.25755e-10
5.00111e-06
-6.8679e-10
5.00135e-06
-7.47962e-10
5.00162e-06
-1.04119e-09
5.00194e-06
-1.08314e-09
-1.68946e-09
5.00001e-06
-1.26902e-11
5.00002e-06
-3.3337e-11
5.00004e-06
-5.43555e-11
5.00006e-06
-7.7613e-11
5.00008e-06
-1.01842e-10
5.00012e-06
-1.30505e-10
5.00015e-06
-1.60016e-10
5.0002e-06
-1.98059e-10
5.00025e-06
-2.36462e-10
5.00032e-06
-2.88902e-10
5.00039e-06
-3.38473e-10
5.00048e-06
-4.15376e-10
5.00059e-06
-4.78373e-10
5.00072e-06
-5.96391e-10
5.00087e-06
-6.72761e-10
5.00105e-06
-8.65109e-10
5.00124e-06
-9.46963e-10
5.00148e-06
-1.28002e-09
5.00173e-06
-1.33135e-09
-1.89792e-09
5e-06
-1.16775e-11
5e-06
-3.64782e-11
5.00001e-06
-6.20178e-11
5.00002e-06
-9.01089e-11
5.00004e-06
-1.19855e-10
5.00006e-06
-1.54493e-10
5.0001e-06
-1.91267e-10
5.00013e-06
-2.36546e-10
5.00018e-06
-2.83592e-10
5.00024e-06
-3.45466e-10
5.00031e-06
-4.06769e-10
5.00039e-06
-4.95608e-10
5.00048e-06
-5.74083e-10
5.00059e-06
-7.07146e-10
5.00072e-06
-8.03451e-10
5.00087e-06
-1.01261e-09
5.00104e-06
-1.11657e-09
5.00122e-06
-1.46161e-09
5.00142e-06
-1.53274e-09
-2.16272e-09
5e-06
-1.39159e-11
5.00001e-06
-4.32027e-11
5.00002e-06
-7.28989e-11
5.00003e-06
-1.04918e-10
5.00005e-06
-1.38834e-10
5.00008e-06
-1.77819e-10
5.00011e-06
-2.1976e-10
5.00014e-06
-2.70855e-10
5.00018e-06
-3.2442e-10
5.00023e-06
-3.9452e-10
5.00029e-06
-4.64223e-10
5.00036e-06
-5.63757e-10
5.00043e-06
-6.52972e-10
5.00053e-06
-7.99927e-10
5.00063e-06
-9.08658e-10
5.00075e-06
-1.13448e-09
5.00089e-06
-1.25117e-09
5.00104e-06
-1.61591e-09
5.00121e-06
-1.69718e-09
-2.29341e-09
5e-06
-1.56991e-11
5.00001e-06
-4.7644e-11
5.00001e-06
-8.02383e-11
5.00002e-06
-1.14931e-10
5.00004e-06
-1.52132e-10
5.00005e-06
-1.94871e-10
5.00008e-06
-2.41177e-10
5.0001e-06
-2.97028e-10
5.00013e-06
-3.564e-10
5.00017e-06
-4.32695e-10
5.00022e-06
-5.09658e-10
5.00027e-06
-6.17118e-10
5.00033e-06
-7.15674e-10
5.00041e-06
-8.72081e-10
5.00049e-06
-9.91795e-10
5.00058e-06
-1.22772e-09
5.00069e-06
-1.35554e-09
5.0008e-06
-1.72656e-09
5.00091e-06
-1.81209e-09
-2.44199e-09
5e-06
-1.67475e-11
5e-06
-5.06502e-11
5.00001e-06
-8.52492e-11
5.00002e-06
-1.22532e-10
5.00003e-06
-1.62312e-10
5.00004e-06
-2.08027e-10
5.00006e-06
-2.57452e-10
5.00008e-06
-3.16939e-10
5.0001e-06
-3.80337e-10
5.00013e-06
-4.61119e-10
5.00016e-06
-5.43174e-10
5.0002e-06
-6.56478e-10
5.00025e-06
-7.61119e-10
5.0003e-06
-9.24489e-10
5.00036e-06
-1.05102e-09
5.00042e-06
-1.29439e-09
5.0005e-06
-1.42853e-09
5.00058e-06
-1.80728e-09
5.00067e-06
-1.90037e-09
-2.51608e-09
5e-06
-1.73077e-11
5e-06
-5.25129e-11
5.00001e-06
-8.83882e-11
5.00001e-06
-1.27296e-10
5.00002e-06
-1.68695e-10
5.00002e-06
-2.16142e-10
5.00003e-06
-2.6737e-10
5.00005e-06
-3.28999e-10
5.00006e-06
-3.94746e-10
5.00008e-06
-4.78213e-10
5.0001e-06
-5.63351e-10
5.00012e-06
-6.80019e-10
5.00015e-06
-7.88307e-10
5.00018e-06
-9.55716e-10
5.00022e-06
-1.08645e-09
5.00026e-06
-1.33408e-09
5.0003e-06
-1.47227e-09
5.00035e-06
-1.85439e-09
5.00039e-06
-1.94774e-09
-2.57206e-09
5e-06
-1.75299e-11
5e-06
-5.31422e-11
5e-06
-8.95113e-11
5e-06
-1.28871e-10
5.00001e-06
-1.70818e-10
5.00001e-06
-2.18781e-10
5.00001e-06
-2.70652e-10
5.00002e-06
-3.32984e-10
5.00002e-06
-3.99519e-10
5.00003e-06
-4.83914e-10
5.00003e-06
-5.70034e-10
5.00004e-06
-6.87806e-10
5.00005e-06
-7.97387e-10
5.00006e-06
-9.66074e-10
5.00007e-06
-1.09827e-09
5.00009e-06
-1.34728e-09
5.0001e-06
-1.48684e-09
5.00012e-06
-1.86969e-09
5.00013e-06
-1.96487e-09
-2.58831e-09
5e-06
-1.73873e-11
5e-06
-5.25081e-11
5e-06
-8.84466e-11
5e-06
-1.27204e-10
4.99999e-06
-1.68642e-10
4.99999e-06
-2.16005e-10
4.99999e-06
-2.67326e-10
4.99998e-06
-3.28968e-10
4.99998e-06
-3.94699e-10
4.99997e-06
-4.78236e-10
4.99997e-06
-5.63253e-10
4.99996e-06
-6.79886e-10
4.99995e-06
-7.88247e-10
4.99994e-06
-9.55587e-10
4.99993e-06
-1.08633e-09
4.99991e-06
-1.3341e-09
4.9999e-06
-1.47236e-09
4.99988e-06
-1.85435e-09
4.99987e-06
-1.94764e-09
-2.57189e-09
5e-06
-1.67936e-11
5e-06
-5.07122e-11
4.99999e-06
-8.52537e-11
4.99999e-06
-1.22461e-10
4.99998e-06
-1.62263e-10
4.99998e-06
-2.07947e-10
4.99997e-06
-2.57424e-10
4.99995e-06
-3.17008e-10
4.99994e-06
-3.80333e-10
4.99992e-06
-4.61189e-10
4.9999e-06
-5.43191e-10
4.99988e-06
-6.56368e-10
4.99985e-06
-7.60984e-10
4.99982e-06
-9.24307e-10
4.99978e-06
-1.05091e-09
4.99974e-06
-1.29439e-09
4.9997e-06
-1.42858e-09
4.99965e-06
-1.80715e-09
4.99961e-06
-1.90018e-09
-2.51584e-09
5e-06
-1.57252e-11
5e-06
-4.76774e-11
4.99999e-06
-8.01626e-11
4.99998e-06
-1.15019e-10
4.99997e-06
-1.5208e-10
4.99996e-06
-1.94956e-10
4.99994e-06
-2.41145e-10
4.99992e-06
-2.97185e-10
4.9999e-06
-3.56503e-10
4.99987e-06
-4.32721e-10
4.99984e-06
-5.09811e-10
4.9998e-06
-6.17215e-10
4.99975e-06
-7.1563e-10
4.9997e-06
-8.71943e-10
4.99964e-06
-9.91707e-10
4.99958e-06
-1.22762e-09
4.9995e-06
-1.3555e-09
4.99942e-06
-1.72638e-09
4.99933e-06
-1.81191e-09
-2.44162e-09
5e-06
-1.39018e-11
4.99999e-06
-4.31776e-11
4.99999e-06
-7.29376e-11
4.99998e-06
-1.05e-10
4.99996e-06
-1.38787e-10
4.99995e-06
-1.77964e-10
4.99992e-06
-2.1971e-10
4.9999e-06
-2.70856e-10
4.99987e-06
-3.24625e-10
4.99983e-06
-3.945e-10
4.99978e-06
-4.64261e-10
4.99973e-06
-5.639e-10
4.99967e-06
-6.53083e-10
4.99959e-06
-7.99914e-10
4.99951e-06
-9.08585e-10
4.99942e-06
-1.13428e-09
4.99931e-06
-1.25104e-09
4.9992e-06
-1.61568e-09
4.99909e-06
-1.69699e-09
-2.29301e-09
5e-06
-1.16139e-11
4.99999e-06
-3.64637e-11
4.99998e-06
-6.21304e-11
4.99997e-06
-9.0069e-11
4.99995e-06
-1.20006e-10
4.99992e-06
-1.54419e-10
4.99989e-06
-1.91235e-10
4.99986e-06
-2.36146e-10
4.99982e-06
-2.83564e-10
4.99977e-06
-3.45499e-10
4.99971e-06
-4.06722e-10
4.99964e-06
-4.9564e-10
4.99957e-06
-5.74239e-10
4.99947e-06
-7.07241e-10
4.99937e-06
-8.03469e-10
4.99925e-06
-1.01242e-09
4.99911e-06
-1.11643e-09
4.99896e-06
-1.46137e-09
4.99879e-06
-1.53264e-09
-2.16231e-09
5e-06
-1.25918e-11
5e-06
-3.33359e-11
4.99999e-06
-5.43967e-11
4.99998e-06
-7.75177e-11
4.99996e-06
-1.02008e-10
4.99994e-06
-1.30174e-10
4.9999e-06
-1.6036e-10
4.99987e-06
-1.97545e-10
4.99982e-06
-2.35988e-10
4.99976e-06
-2.88755e-10
4.99969e-06
-3.38347e-10
4.99961e-06
-4.15252e-10
4.99952e-06
-4.78404e-10
4.99941e-06
-5.96437e-10
4.99928e-06
-6.72818e-10
4.99913e-06
-8.64957e-10
4.99896e-06
-9.46831e-10
4.99878e-06
-1.27973e-09
4.99858e-06
-1.3312e-09
-1.89743e-09
4.99999e-06
-4.65014e-12
4.99998e-06
-2.03842e-11
4.99996e-06
-3.75863e-11
4.99994e-06
-5.6652e-11
4.99992e-06
-7.64826e-11
4.99988e-06
-9.91559e-11
4.99985e-06
-1.23174e-10
4.9998e-06
-1.52531e-10
4.99975e-06
-1.82272e-10
4.99968e-06
-2.23756e-10
4.99961e-06
-2.62349e-10
4.99952e-06
-3.23283e-10
4.99941e-06
-3.71988e-10
4.99928e-06
-4.6755e-10
4.99913e-06
-5.25855e-10
4.99895e-06
-6.86751e-10
4.99876e-06
-7.47953e-10
4.99852e-06
-1.04096e-09
4.99827e-06
-1.08305e-09
-1.68909e-09
5.00001e-06
-1.18994e-11
5.00001e-06
-1.9e-11
5e-06
-2.91735e-11
4.99998e-06
-4.1843e-11
4.99996e-06
-5.42158e-11
4.99993e-06
-6.94766e-11
4.99989e-06
-8.38381e-11
4.99984e-06
-1.05949e-10
4.99978e-06
-1.23845e-10
4.99971e-06
-1.53186e-10
4.99963e-06
-1.77102e-10
4.99953e-06
-2.22044e-10
4.99941e-06
-2.503e-10
4.99926e-06
-3.24076e-10
4.99909e-06
-3.54003e-10
4.99889e-06
-4.8607e-10
4.99865e-06
-5.09279e-10
4.99838e-06
-7.67653e-10
4.99805e-06
-7.59738e-10
-1.26146e-09
4.99998e-06
9.90907e-12
4.99996e-06
-4.33791e-12
4.99995e-06
-1.28715e-11
4.99992e-06
-1.96498e-11
4.9999e-06
-2.64714e-11
4.99986e-06
-3.38702e-11
4.99982e-06
-3.35933e-11
4.99977e-06
-5.48739e-11
4.99971e-06
-6.30076e-11
4.99963e-06
-7.84418e-11
4.99955e-06
-9.03017e-11
4.99944e-06
-1.1406e-10
4.99932e-06
-1.26937e-10
4.99916e-06
-1.67864e-10
4.99898e-06
-1.78192e-10
4.99875e-06
-2.56959e-10
4.9985e-06
-2.56311e-10
4.99817e-06
-4.31736e-10
4.99782e-06
-4.14139e-10
-8.9155e-10
5.00001e-06
5.00001e-06
4.99999e-06
4.99997e-06
4.99995e-06
4.99991e-06
4.99987e-06
4.99982e-06
4.99975e-06
4.99968e-06
4.99959e-06
4.99947e-06
4.99934e-06
4.99918e-06
4.999e-06
4.99874e-06
4.99848e-06
4.99805e-06
4.99764e-06
)
;

boundaryField
{
    sides
    {
        type            calculated;
        value           uniform 0;
    }
    inlet
    {
        type            calculated;
        value           nonuniform List<scalar> 
20
(
-5e-06
-5e-06
-5e-06
-5e-06
-5e-06
-5e-06
-5e-06
-5e-06
-5e-06
-5e-06
-5e-06
-5e-06
-5e-06
-5e-06
-5e-06
-5e-06
-5e-06
-5e-06
-5e-06
-5e-06
)
;
    }
    outlet
    {
        type            calculated;
        value           nonuniform List<scalar> 
20
(
5.00325e-06
5.00255e-06
5.00237e-06
5.00194e-06
5.00169e-06
5.00134e-06
5.00106e-06
5.00074e-06
5.00045e-06
5.00015e-06
4.99985e-06
4.99955e-06
4.99926e-06
4.99894e-06
4.99866e-06
4.99831e-06
4.99806e-06
4.99763e-06
4.99745e-06
4.99675e-06
)
;
    }
    frontAndBack
    {
        type            empty;
        value           nonuniform 0();
    }
}


// ************************************************************************* //
