/*--------------------------------*- C++ -*----------------------------------*\
  =========                 |
  \\      /  F ield         | OpenFOAM: The Open Source CFD Toolbox
   \\    /   O peration     | Website:  https://openfoam.org
    \\  /    A nd           | Version:  7
     \\/     M anipulation  |
\*---------------------------------------------------------------------------*/
FoamFile
{
    version     2.0;
    format      ascii;
    class       surfaceScalarField;
    location    "96";
    object      phi_0;
}
// * * * * * * * * * * * * * * * * * * * * * * * * * * * * * * * * * * * * * //

dimensions      [0 4 -1 0 0 0 0];

internalField   nonuniform List<scalar> 
760
(
4.99999e-06
1.00612e-11
4.99999e-06
-4.39172e-12
5.00001e-06
-1.29501e-11
5.00003e-06
-1.93986e-11
5.00005e-06
-2.66547e-11
5.00009e-06
-3.68806e-11
5.00013e-06
-3.80897e-11
5.00018e-06
-6.27478e-11
5.00025e-06
-6.25623e-11
5.00032e-06
-7.80655e-11
5.00041e-06
-9.01723e-11
5.00053e-06
-1.14113e-10
5.00066e-06
-1.27017e-10
5.00082e-06
-1.67926e-10
5.001e-06
-1.78128e-10
5.00126e-06
-2.56891e-10
5.00151e-06
-2.56177e-10
5.00195e-06
-4.31729e-10
5.00236e-06
-4.14105e-10
-8.9157e-10
5.00002e-06
-1.1738e-11
5.00004e-06
-1.89965e-11
5.00005e-06
-2.93808e-11
5.00008e-06
-4.18032e-11
5.0001e-06
-5.43174e-11
5.00014e-06
-6.89378e-11
5.00018e-06
-8.42121e-11
5.00023e-06
-1.0311e-10
5.00029e-06
-1.23796e-10
5.00037e-06
-1.5333e-10
5.00045e-06
-1.77159e-10
5.00056e-06
-2.22191e-10
5.00069e-06
-2.50433e-10
5.00084e-06
-3.24233e-10
5.00102e-06
-3.53989e-10
5.00125e-06
-4.86149e-10
5.0015e-06
-5.0924e-10
5.00184e-06
-7.67922e-10
5.00218e-06
-7.59887e-10
-1.26196e-09
4.99999e-06
-4.68607e-12
4.99999e-06
-2.03677e-11
5e-06
-3.76264e-11
5.00002e-06
-5.66918e-11
5.00004e-06
-7.63918e-11
5.00007e-06
-9.92414e-11
5.00011e-06
-1.22306e-10
5.00016e-06
-1.52745e-10
5.00021e-06
-1.82802e-10
5.00029e-06
-2.2392e-10
5.00037e-06
-2.62441e-10
5.00047e-06
-3.23381e-10
5.00059e-06
-3.71989e-10
5.00074e-06
-4.6754e-10
5.00091e-06
-5.25752e-10
5.00111e-06
-6.86788e-10
5.00135e-06
-7.47959e-10
5.00162e-06
-1.04119e-09
5.00194e-06
-1.08315e-09
-1.68948e-09
5.00001e-06
-1.27001e-11
5.00002e-06
-3.33463e-11
5.00004e-06
-5.42942e-11
5.00006e-06
-7.75913e-11
5.00008e-06
-1.01799e-10
5.00012e-06
-1.30473e-10
5.00015e-06
-1.60184e-10
5.0002e-06
-1.9819e-10
5.00025e-06
-2.36289e-10
5.00032e-06
-2.88817e-10
5.00039e-06
-3.38442e-10
5.00048e-06
-4.15313e-10
5.00059e-06
-4.78338e-10
5.00072e-06
-5.96396e-10
5.00087e-06
-6.72763e-10
5.00105e-06
-8.651e-10
5.00124e-06
-9.46962e-10
5.00148e-06
-1.28002e-09
5.00173e-06
-1.33135e-09
-1.89793e-09
5e-06
-1.16512e-11
5e-06
-3.64698e-11
5.00001e-06
-6.20075e-11
5.00002e-06
-9.00459e-11
5.00004e-06
-1.19937e-10
5.00006e-06
-1.54349e-10
5.0001e-06
-1.9136e-10
5.00013e-06
-2.36431e-10
5.00018e-06
-2.83444e-10
5.00024e-06
-3.45477e-10
5.00031e-06
-4.06737e-10
5.00039e-06
-4.95556e-10
5.00048e-06
-5.74093e-10
5.00059e-06
-7.07184e-10
5.00072e-06
-8.03459e-10
5.00087e-06
-1.01259e-09
5.00104e-06
-1.11655e-09
5.00122e-06
-1.4616e-09
5.00142e-06
-1.53272e-09
-2.16272e-09
5e-06
-1.38756e-11
5.00001e-06
-4.31712e-11
5.00002e-06
-7.29339e-11
5.00003e-06
-1.04873e-10
5.00005e-06
-1.38887e-10
5.00008e-06
-1.77804e-10
5.00011e-06
-2.19804e-10
5.00014e-06
-2.70741e-10
5.00018e-06
-3.24469e-10
5.00023e-06
-3.94544e-10
5.00029e-06
-4.64166e-10
5.00036e-06
-5.63773e-10
5.00043e-06
-6.53025e-10
5.00053e-06
-7.99955e-10
5.00063e-06
-9.08659e-10
5.00075e-06
-1.13445e-09
5.00089e-06
-1.25114e-09
5.00104e-06
-1.61589e-09
5.00121e-06
-1.69715e-09
-2.29341e-09
5e-06
-1.56923e-11
5.00001e-06
-4.76217e-11
5.00001e-06
-8.02419e-11
5.00002e-06
-1.14971e-10
5.00004e-06
-1.52096e-10
5.00005e-06
-1.94894e-10
5.00008e-06
-2.41147e-10
5.0001e-06
-2.97005e-10
5.00013e-06
-3.56452e-10
5.00017e-06
-4.32658e-10
5.00022e-06
-5.09674e-10
5.00027e-06
-6.17217e-10
5.00033e-06
-7.1571e-10
5.00041e-06
-8.72048e-10
5.00049e-06
-9.91776e-10
5.00058e-06
-1.2277e-09
5.00069e-06
-1.3555e-09
5.0008e-06
-1.72652e-09
5.00091e-06
-1.81208e-09
-2.44201e-09
5e-06
-1.67778e-11
5e-06
-5.06802e-11
5.00001e-06
-8.52101e-11
5.00002e-06
-1.22524e-10
5.00003e-06
-1.62247e-10
5.00004e-06
-2.08001e-10
5.00006e-06
-2.57385e-10
5.00008e-06
-3.16955e-10
5.0001e-06
-3.8033e-10
5.00013e-06
-4.61134e-10
5.00016e-06
-5.43265e-10
5.0002e-06
-6.56529e-10
5.00025e-06
-7.61088e-10
5.0003e-06
-9.24424e-10
5.00036e-06
-1.05098e-09
5.00042e-06
-1.29437e-09
5.0005e-06
-1.4285e-09
5.00058e-06
-1.80725e-09
5.00067e-06
-1.90037e-09
-2.51611e-09
5e-06
-1.73486e-11
5e-06
-5.25257e-11
5.00001e-06
-8.83639e-11
5.00001e-06
-1.27232e-10
5.00002e-06
-1.68632e-10
5.00002e-06
-2.1608e-10
5.00003e-06
-2.67313e-10
5.00005e-06
-3.29012e-10
5.00006e-06
-3.94719e-10
5.00008e-06
-4.78262e-10
5.0001e-06
-5.63409e-10
5.00012e-06
-6.79993e-10
5.00015e-06
-7.88283e-10
5.00018e-06
-9.55694e-10
5.00022e-06
-1.0864e-09
5.00026e-06
-1.33404e-09
5.0003e-06
-1.47225e-09
5.00035e-06
-1.85439e-09
5.00039e-06
-1.94776e-09
-2.57208e-09
5e-06
-1.75217e-11
5e-06
-5.31252e-11
5e-06
-8.94954e-11
5e-06
-1.2885e-10
5.00001e-06
-1.70797e-10
5.00001e-06
-2.18759e-10
5.00001e-06
-2.70633e-10
5.00002e-06
-3.32988e-10
5.00002e-06
-3.99516e-10
5.00003e-06
-4.8393e-10
5.00003e-06
-5.70049e-10
5.00004e-06
-6.87799e-10
5.00005e-06
-7.97389e-10
5.00006e-06
-9.66075e-10
5.00007e-06
-1.09825e-09
5.00009e-06
-1.34725e-09
5.0001e-06
-1.48683e-09
5.00012e-06
-1.86969e-09
5.00013e-06
-1.96487e-09
-2.58832e-09
5e-06
-1.7329e-11
5e-06
-5.24763e-11
5e-06
-8.84321e-11
5e-06
-1.27235e-10
4.99999e-06
-1.68657e-10
4.99999e-06
-2.16031e-10
4.99999e-06
-2.67347e-10
4.99998e-06
-3.28961e-10
4.99998e-06
-3.94731e-10
4.99997e-06
-4.78208e-10
4.99997e-06
-5.63231e-10
4.99996e-06
-6.79926e-10
4.99995e-06
-7.88272e-10
4.99994e-06
-9.55595e-10
4.99993e-06
-1.08635e-09
4.99991e-06
-1.3341e-09
4.9999e-06
-1.47234e-09
4.99988e-06
-1.85431e-09
4.99987e-06
-1.94761e-09
-2.57189e-09
5e-06
-1.67623e-11
5e-06
-5.06633e-11
4.99999e-06
-8.52536e-11
4.99999e-06
-1.22446e-10
4.99998e-06
-1.62278e-10
4.99998e-06
-2.0795e-10
4.99997e-06
-2.57463e-10
4.99995e-06
-3.16973e-10
4.99994e-06
-3.80365e-10
4.99992e-06
-4.61169e-10
4.9999e-06
-5.43118e-10
4.99988e-06
-6.5637e-10
4.99985e-06
-7.61032e-10
4.99982e-06
-9.24352e-10
4.99978e-06
-1.05093e-09
4.99974e-06
-1.29436e-09
4.9997e-06
-1.42855e-09
4.99965e-06
-1.80712e-09
4.99961e-06
-1.90015e-09
-2.51584e-09
5e-06
-1.57423e-11
5e-06
-4.76776e-11
4.99999e-06
-8.01506e-11
4.99998e-06
-1.14926e-10
4.99997e-06
-1.52092e-10
4.99996e-06
-1.9489e-10
4.99994e-06
-2.41172e-10
4.99992e-06
-2.97152e-10
4.9999e-06
-3.56477e-10
4.99987e-06
-4.32769e-10
4.99984e-06
-5.09772e-10
4.9998e-06
-6.1713e-10
4.99975e-06
-7.15615e-10
4.9997e-06
-8.71975e-10
4.99964e-06
-9.91708e-10
4.99958e-06
-1.22758e-09
4.9995e-06
-1.35547e-09
4.99942e-06
-1.72636e-09
4.99933e-06
-1.81189e-09
-2.44162e-09
5e-06
-1.39542e-11
4.99999e-06
-4.32089e-11
4.99999e-06
-7.28834e-11
4.99998e-06
-1.04983e-10
4.99996e-06
-1.38741e-10
4.99995e-06
-1.77895e-10
4.99992e-06
-2.19682e-10
4.9999e-06
-2.70923e-10
4.99987e-06
-3.24538e-10
4.99983e-06
-3.94534e-10
4.99978e-06
-4.64331e-10
4.99973e-06
-5.63856e-10
4.99967e-06
-6.53014e-10
4.99959e-06
-7.99877e-10
4.99951e-06
-9.08566e-10
4.99942e-06
-1.13426e-09
4.99931e-06
-1.25102e-09
4.9992e-06
-1.61566e-09
4.99909e-06
-1.69698e-09
-2.29302e-09
5e-06
-1.16417e-11
4.99999e-06
-3.64782e-11
4.99998e-06
-6.21116e-11
4.99997e-06
-9.01202e-11
4.99995e-06
-1.19865e-10
4.99992e-06
-1.54514e-10
4.99989e-06
-1.91145e-10
4.99986e-06
-2.36316e-10
4.99982e-06
-2.83628e-10
4.99977e-06
-3.45481e-10
4.99971e-06
-4.06804e-10
4.99964e-06
-4.9569e-10
4.99957e-06
-5.74199e-10
4.99947e-06
-7.07173e-10
4.99937e-06
-8.03439e-10
4.99925e-06
-1.01242e-09
4.99911e-06
-1.11642e-09
4.99896e-06
-1.46135e-09
4.99879e-06
-1.53263e-09
-2.16232e-09
5e-06
-1.25697e-11
5e-06
-3.33235e-11
4.99999e-06
-5.44345e-11
4.99998e-06
-7.75455e-11
4.99996e-06
-1.01935e-10
4.99994e-06
-1.303e-10
4.9999e-06
-1.60057e-10
4.99987e-06
-1.97556e-10
4.99982e-06
-2.36151e-10
4.99976e-06
-2.88787e-10
4.99969e-06
-3.38396e-10
4.99961e-06
-4.15342e-10
4.99952e-06
-4.78429e-10
4.99941e-06
-5.96398e-10
4.99928e-06
-6.72786e-10
4.99913e-06
-8.64949e-10
4.99896e-06
-9.46824e-10
4.99878e-06
-1.27972e-09
4.99858e-06
-1.33119e-09
-1.89744e-09
4.99999e-06
-4.60961e-12
4.99998e-06
-2.03741e-11
4.99996e-06
-3.76286e-11
4.99994e-06
-5.65998e-11
4.99992e-06
-7.65511e-11
4.99989e-06
-9.89294e-11
4.99985e-06
-1.23211e-10
4.9998e-06
-1.51931e-10
4.99975e-06
-1.82329e-10
4.99968e-06
-2.23784e-10
4.99961e-06
-2.62353e-10
4.99952e-06
-3.23342e-10
4.99941e-06
-3.72044e-10
4.99928e-06
-4.67558e-10
4.99913e-06
-5.25833e-10
4.99895e-06
-6.86731e-10
4.99876e-06
-7.47947e-10
4.99852e-06
-1.04096e-09
4.99827e-06
-1.08305e-09
-1.68909e-09
5.00001e-06
-1.18547e-11
5.00001e-06
-1.89938e-11
5e-06
-2.9157e-11
4.99998e-06
-4.17312e-11
4.99996e-06
-5.43512e-11
4.99993e-06
-6.93074e-11
4.99989e-06
-8.50672e-11
4.99984e-06
-1.04908e-10
4.99978e-06
-1.23481e-10
4.99971e-06
-1.53143e-10
4.99963e-06
-1.77041e-10
4.99953e-06
-2.22019e-10
4.99941e-06
-2.50335e-10
4.99926e-06
-3.24113e-10
4.99909e-06
-3.54003e-10
4.99889e-06
-4.8605e-10
4.99865e-06
-5.09273e-10
4.99838e-06
-7.67658e-10
4.99805e-06
-7.59744e-10
-1.26147e-09
4.99998e-06
9.89459e-12
4.99996e-06
-4.33601e-12
4.99995e-06
-1.27704e-11
4.99992e-06
-1.9648e-11
4.9999e-06
-2.66669e-11
4.99986e-06
-3.33604e-11
4.99982e-06
-4.37763e-11
4.99977e-06
-6.10623e-11
4.99971e-06
-6.3332e-11
4.99963e-06
-7.83058e-11
4.99955e-06
-9.01622e-11
4.99944e-06
-1.13979e-10
4.99932e-06
-1.26944e-10
4.99916e-06
-1.67902e-10
4.99898e-06
-1.78205e-10
4.99875e-06
-2.56949e-10
4.9985e-06
-2.56304e-10
4.99817e-06
-4.3174e-10
4.99782e-06
-4.14149e-10
-8.91559e-10
5.00001e-06
5.00001e-06
4.99999e-06
4.99997e-06
4.99995e-06
4.99991e-06
4.99987e-06
4.99982e-06
4.99975e-06
4.99968e-06
4.99959e-06
4.99947e-06
4.99934e-06
4.99918e-06
4.999e-06
4.99874e-06
4.99848e-06
4.99805e-06
4.99764e-06
)
;

boundaryField
{
    sides
    {
        type            calculated;
        value           uniform 0;
    }
    inlet
    {
        type            calculated;
        value           nonuniform List<scalar> 
20
(
-5e-06
-5e-06
-5e-06
-5e-06
-5e-06
-5e-06
-5e-06
-5e-06
-5e-06
-5e-06
-5e-06
-5e-06
-5e-06
-5e-06
-5e-06
-5e-06
-5e-06
-5e-06
-5e-06
-5e-06
)
;
    }
    outlet
    {
        type            calculated;
        value           nonuniform List<scalar> 
20
(
5.00325e-06
5.00255e-06
5.00237e-06
5.00194e-06
5.00169e-06
5.00134e-06
5.00106e-06
5.00074e-06
5.00045e-06
5.00015e-06
4.99985e-06
4.99955e-06
4.99926e-06
4.99894e-06
4.99866e-06
4.99831e-06
4.99806e-06
4.99763e-06
4.99745e-06
4.99675e-06
)
;
    }
    frontAndBack
    {
        type            empty;
        value           nonuniform 0();
    }
}


// ************************************************************************* //
