/*--------------------------------*- C++ -*----------------------------------*\
  =========                 |
  \\      /  F ield         | OpenFOAM: The Open Source CFD Toolbox
   \\    /   O peration     | Website:  https://openfoam.org
    \\  /    A nd           | Version:  7
     \\/     M anipulation  |
\*---------------------------------------------------------------------------*/
FoamFile
{
    version     2.0;
    format      ascii;
    class       volVectorField;
    location    "96";
    object      U;
}
// * * * * * * * * * * * * * * * * * * * * * * * * * * * * * * * * * * * * * //

dimensions      [0 1 -1 0 0 0 0];

internalField   nonuniform List<vector> 
400
(
(0.0999931 -8.72261e-07 0)
(0.099993 -2.37681e-06 0)
(0.0999931 -3.60083e-06 0)
(0.0999934 -4.67072e-06 0)
(0.0999939 -5.6898e-06 0)
(0.0999947 -6.74611e-06 0)
(0.0999955 -7.80825e-06 0)
(0.0999966 -8.91713e-06 0)
(0.0999978 -9.98235e-06 0)
(0.0999996 -1.11876e-05 0)
(0.100001 -1.22656e-05 0)
(0.100004 -1.36181e-05 0)
(0.100006 -1.46548e-05 0)
(0.10001 -1.63361e-05 0)
(0.100013 -1.72177e-05 0)
(0.10002 -1.96297e-05 0)
(0.100022 -2.00788e-05 0)
(0.100035 -2.43022e-05 0)
(0.100036 -2.39154e-05 0)
(0.10006 -3.31833e-05 0)
(0.0999943 3.9907e-07 0)
(0.0999947 1.20916e-06 0)
(0.0999952 2.02177e-06 0)
(0.0999958 2.79557e-06 0)
(0.0999963 3.5133e-06 0)
(0.099997 4.16303e-06 0)
(0.0999978 4.76593e-06 0)
(0.0999988 5.30735e-06 0)
(0.1 5.8517e-06 0)
(0.100002 6.23327e-06 0)
(0.100003 6.69478e-06 0)
(0.100006 6.85389e-06 0)
(0.100008 7.26381e-06 0)
(0.100012 6.98316e-06 0)
(0.100014 7.40023e-06 0)
(0.10002 6.167e-06 0)
(0.100024 6.71687e-06 0)
(0.100033 3.17704e-06 0)
(0.100036 3.98645e-06 0)
(0.10005 -5.45759e-06 0)
(0.0999948 -3.97193e-07 0)
(0.0999947 -1.30298e-06 0)
(0.0999947 -2.30763e-06 0)
(0.099995 -3.36738e-06 0)
(0.0999953 -4.42198e-06 0)
(0.099996 -5.49504e-06 0)
(0.0999967 -6.5642e-06 0)
(0.0999977 -7.72982e-06 0)
(0.0999988 -8.88771e-06 0)
(0.1 -1.02538e-05 0)
(0.100002 -1.15267e-05 0)
(0.100004 -1.32429e-05 0)
(0.100006 -1.46534e-05 0)
(0.10001 -1.70047e-05 0)
(0.100013 -1.85139e-05 0)
(0.100018 -2.21131e-05 0)
(0.100021 -2.3567e-05 0)
(0.100029 -2.97569e-05 0)
(0.100032 -3.06189e-05 0)
(0.100046 -4.22146e-05 0)
(0.0999956 -1.63292e-08 0)
(0.0999958 -5.15426e-09 0)
(0.0999962 5.94188e-08 0)
(0.0999966 1.30286e-07 0)
(0.0999972 2.01099e-07 0)
(0.0999978 1.92322e-07 0)
(0.0999986 1.57685e-07 0)
(0.0999995 -3.18246e-08 0)
(0.100001 -2.42429e-07 0)
(0.100002 -7.08933e-07 0)
(0.100003 -1.12358e-06 0)
(0.100005 -2.04944e-06 0)
(0.100007 -2.71902e-06 0)
(0.10001 -4.42817e-06 0)
(0.100013 -5.35498e-06 0)
(0.100017 -8.49799e-06 0)
(0.10002 -9.5486e-06 0)
(0.100027 -1.54666e-05 0)
(0.100029 -1.60943e-05 0)
(0.100039 -2.75826e-05 0)
(0.0999962 -2.91245e-07 0)
(0.0999963 -9.24552e-07 0)
(0.0999964 -1.63128e-06 0)
(0.0999966 -2.43746e-06 0)
(0.0999969 -3.3033e-06 0)
(0.0999974 -4.27547e-06 0)
(0.099998 -5.28232e-06 0)
(0.0999988 -6.45461e-06 0)
(0.0999997 -7.64724e-06 0)
(0.100001 -9.12282e-06 0)
(0.100002 -1.05618e-05 0)
(0.100004 -1.25411e-05 0)
(0.100006 -1.42743e-05 0)
(0.100008 -1.70936e-05 0)
(0.100011 -1.91235e-05 0)
(0.100014 -2.34338e-05 0)
(0.100017 -2.55792e-05 0)
(0.100022 -3.26549e-05 0)
(0.100024 -3.41513e-05 0)
(0.100033 -4.64366e-05 0)
(0.099997 -2.57093e-07 0)
(0.099997 -7.55271e-07 0)
(0.0999972 -1.22251e-06 0)
(0.0999975 -1.69582e-06 0)
(0.0999979 -2.17078e-06 0)
(0.0999984 -2.72377e-06 0)
(0.099999 -3.31648e-06 0)
(0.0999997 -4.08201e-06 0)
(0.1 -4.88871e-06 0)
(0.100002 -6.01239e-06 0)
(0.100003 -7.12858e-06 0)
(0.100004 -8.8251e-06 0)
(0.100006 -1.03207e-05 0)
(0.100008 -1.29481e-05 0)
(0.10001 -1.48367e-05 0)
(0.100013 -1.90308e-05 0)
(0.100015 -2.11014e-05 0)
(0.100019 -2.80506e-05 0)
(0.100021 -2.9452e-05 0)
(0.100027 -4.14949e-05 0)
(0.0999976 -2.9039e-07 0)
(0.0999977 -8.89782e-07 0)
(0.0999978 -1.51956e-06 0)
(0.099998 -2.22234e-06 0)
(0.0999983 -2.99402e-06 0)
(0.0999986 -3.89091e-06 0)
(0.0999991 -4.8686e-06 0)
(0.0999996 -6.04325e-06 0)
(0.1 -7.28519e-06 0)
(0.100001 -8.86508e-06 0)
(0.100002 -1.04502e-05 0)
(0.100003 -1.26393e-05 0)
(0.100004 -1.46357e-05 0)
(0.100006 -1.77886e-05 0)
(0.100007 -2.01872e-05 0)
(0.10001 -2.49235e-05 0)
(0.100011 -2.74723e-05 0)
(0.100015 -3.49545e-05 0)
(0.100016 -3.67215e-05 0)
(0.100021 -4.92152e-05 0)
(0.0999983 -3.20085e-07 0)
(0.0999984 -9.77793e-07 0)
(0.0999985 -1.65868e-06 0)
(0.0999986 -2.39581e-06 0)
(0.0999988 -3.17902e-06 0)
(0.099999 -4.06541e-06 0)
(0.0999994 -5.0125e-06 0)
(0.0999998 -6.14516e-06 0)
(0.1 -7.34436e-06 0)
(0.100001 -8.88091e-06 0)
(0.100002 -1.0434e-05 0)
(0.100002 -1.26017e-05 0)
(0.100003 -1.45949e-05 0)
(0.100004 -1.77506e-05 0)
(0.100005 -2.01777e-05 0)
(0.100007 -2.49281e-05 0)
(0.100008 -2.75239e-05 0)
(0.100011 -3.49802e-05 0)
(0.100012 -3.67606e-05 0)
(0.100015 -4.90787e-05 0)
(0.099999 -3.37228e-07 0)
(0.099999 -1.02746e-06 0)
(0.0999991 -1.7367e-06 0)
(0.0999992 -2.50303e-06 0)
(0.0999993 -3.31584e-06 0)
(0.0999994 -4.24442e-06 0)
(0.0999996 -5.24635e-06 0)
(0.0999999 -6.45479e-06 0)
(0.1 -7.74682e-06 0)
(0.100001 -9.39505e-06 0)
(0.100001 -1.1077e-05 0)
(0.100001 -1.33928e-05 0)
(0.100002 -1.5541e-05 0)
(0.100003 -1.88752e-05 0)
(0.100003 -2.14741e-05 0)
(0.100004 -2.64222e-05 0)
(0.100005 -2.91757e-05 0)
(0.100006 -3.68325e-05 0)
(0.100007 -3.87162e-05 0)
(0.100009 -5.12435e-05 0)
(0.0999997 -3.45231e-07 0)
(0.0999997 -1.05133e-06 0)
(0.0999997 -1.77581e-06 0)
(0.0999997 -2.55992e-06 0)
(0.0999998 -3.39467e-06 0)
(0.0999998 -4.35087e-06 0)
(0.0999999 -5.38595e-06 0)
(0.1 -6.6318e-06 0)
(0.1 -7.96286e-06 0)
(0.1 -9.65038e-06 0)
(0.1 -1.13726e-05 0)
(0.1 -1.3726e-05 0)
(0.100001 -1.59146e-05 0)
(0.100001 -1.92846e-05 0)
(0.100001 -2.19259e-05 0)
(0.100001 -2.69026e-05 0)
(0.100002 -2.96962e-05 0)
(0.100002 -3.73586e-05 0)
(0.100002 -3.92716e-05 0)
(0.100003 -5.17416e-05 0)
(0.1 -3.46028e-07 0)
(0.1 -1.0512e-06 0)
(0.1 -1.77633e-06 0)
(0.1 -2.55902e-06 0)
(0.1 -3.39421e-06 0)
(0.1 -4.34958e-06 0)
(0.1 -5.38559e-06 0)
(0.1 -6.63155e-06 0)
(0.0999999 -7.96244e-06 0)
(0.0999998 -9.65068e-06 0)
(0.0999997 -1.13716e-05 0)
(0.0999995 -1.37246e-05 0)
(0.0999993 -1.5914e-05 0)
(0.0999991 -1.92834e-05 0)
(0.0999989 -2.19247e-05 0)
(0.0999986 -2.69029e-05 0)
(0.0999983 -2.96972e-05 0)
(0.0999979 -3.73585e-05 0)
(0.0999977 -3.92707e-05 0)
(0.0999971 -5.17408e-05 0)
(0.100001 -3.38492e-07 0)
(0.100001 -1.02787e-06 0)
(0.100001 -1.73725e-06 0)
(0.100001 -2.50146e-06 0)
(0.100001 -3.31493e-06 0)
(0.100001 -4.24242e-06 0)
(0.1 -5.24585e-06 0)
(0.1 -6.45536e-06 0)
(0.0999998 -7.74647e-06 0)
(0.0999995 -9.39615e-06 0)
(0.0999991 -1.10762e-05 0)
(0.0999985 -1.33903e-05 0)
(0.099998 -1.5539e-05 0)
(0.0999973 -1.88719e-05 0)
(0.0999967 -2.14716e-05 0)
(0.0999957 -2.64218e-05 0)
(0.099995 -2.91766e-05 0)
(0.0999936 -3.68296e-05 0)
(0.0999932 -3.87119e-05 0)
(0.0999912 -5.1237e-05 0)
(0.100002 -3.20814e-07 0)
(0.100002 -9.78742e-07 0)
(0.100002 -1.65803e-06 0)
(0.100001 -2.39597e-06 0)
(0.100001 -3.17805e-06 0)
(0.100001 -4.06561e-06 0)
(0.100001 -5.01216e-06 0)
(0.1 -6.14782e-06 0)
(0.0999997 -7.34578e-06 0)
(0.0999991 -8.88252e-06 0)
(0.0999985 -1.04365e-05 0)
(0.0999976 -1.26025e-05 0)
(0.0999968 -1.45941e-05 0)
(0.0999956 -1.77489e-05 0)
(0.0999945 -2.01774e-05 0)
(0.0999929 -2.49293e-05 0)
(0.0999917 -2.75262e-05 0)
(0.0999894 -3.49801e-05 0)
(0.0999885 -3.67599e-05 0)
(0.0999853 -4.90771e-05 0)
(0.100002 -2.90533e-07 0)
(0.100002 -8.90101e-07 0)
(0.100002 -1.51923e-06 0)
(0.100002 -2.22396e-06 0)
(0.100002 -2.99291e-06 0)
(0.100001 -3.89287e-06 0)
(0.100001 -4.86751e-06 0)
(0.1 -6.04461e-06 0)
(0.0999998 -7.28792e-06 0)
(0.099999 -8.86468e-06 0)
(0.0999981 -1.04517e-05 0)
(0.0999969 -1.2641e-05 0)
(0.0999957 -1.46354e-05 0)
(0.0999941 -1.77858e-05 0)
(0.0999926 -2.01843e-05 0)
(0.0999903 -2.49184e-05 0)
(0.0999887 -2.74683e-05 0)
(0.0999853 -3.49466e-05 0)
(0.0999843 -3.67141e-05 0)
(0.0999793 -4.92012e-05 0)
(0.100003 -2.56658e-07 0)
(0.100003 -7.5535e-07 0)
(0.100003 -1.22425e-06 0)
(0.100002 -1.6969e-06 0)
(0.100002 -2.17186e-06 0)
(0.100002 -2.72515e-06 0)
(0.100001 -3.31634e-06 0)
(0.1 -4.07935e-06 0)
(0.0999995 -4.89179e-06 0)
(0.0999985 -6.01386e-06 0)
(0.0999973 -7.13006e-06 0)
(0.0999959 -8.82875e-06 0)
(0.0999944 -1.03252e-05 0)
(0.0999923 -1.29512e-05 0)
(0.0999904 -1.48385e-05 0)
(0.0999874 -1.90303e-05 0)
(0.0999853 -2.11018e-05 0)
(0.0999811 -2.80507e-05 0)
(0.0999793 -2.94534e-05 0)
(0.0999733 -4.14939e-05 0)
(0.100004 -2.89682e-07 0)
(0.100004 -9.24087e-07 0)
(0.100004 -1.63258e-06 0)
(0.100003 -2.43623e-06 0)
(0.100003 -3.30651e-06 0)
(0.100003 -4.27188e-06 0)
(0.100002 -5.28483e-06 0)
(0.100001 -6.44627e-06 0)
(0.1 -7.64302e-06 0)
(0.0999991 -9.12183e-06 0)
(0.0999978 -1.056e-05 0)
(0.099996 -1.25399e-05 0)
(0.0999942 -1.4276e-05 0)
(0.0999916 -1.70943e-05 0)
(0.0999895 -1.91238e-05 0)
(0.0999856 -2.34291e-05 0)
(0.0999833 -2.55754e-05 0)
(0.0999776 -3.26467e-05 0)
(0.099976 -3.41463e-05 0)
(0.0999673 -4.64216e-05 0)
(0.100004 -1.43861e-08 0)
(0.100004 -5.22523e-09 0)
(0.100004 5.9009e-08 0)
(0.100003 1.31948e-07 0)
(0.100003 1.96767e-07 0)
(0.100002 1.95606e-07 0)
(0.100001 1.48926e-07 0)
(0.100001 -2.95536e-08 0)
(0.0999994 -2.32225e-07 0)
(0.0999981 -7.04498e-07 0)
(0.0999966 -1.12123e-06 0)
(0.0999946 -2.04798e-06 0)
(0.0999926 -2.72e-06 0)
(0.0999897 -4.42973e-06 0)
(0.0999871 -5.35718e-06 0)
(0.0999828 -8.49736e-06 0)
(0.0999798 -9.54764e-06 0)
(0.0999734 -1.54632e-05 0)
(0.0999707 -1.60925e-05 0)
(0.0999614 -2.75771e-05 0)
(0.100005 -3.9806e-07 0)
(0.100005 -1.30358e-06 0)
(0.100005 -2.30644e-06 0)
(0.100005 -3.36678e-06 0)
(0.100005 -4.4196e-06 0)
(0.100004 -5.50206e-06 0)
(0.100003 -6.57174e-06 0)
(0.100002 -7.74071e-06 0)
(0.100001 -8.88192e-06 0)
(0.0999996 -1.02516e-05 0)
(0.099998 -1.15281e-05 0)
(0.0999957 -1.32428e-05 0)
(0.0999936 -1.46536e-05 0)
(0.0999901 -1.70045e-05 0)
(0.0999875 -1.85171e-05 0)
(0.0999821 -2.21141e-05 0)
(0.0999791 -2.35703e-05 0)
(0.0999706 -2.97544e-05 0)
(0.0999684 -3.06197e-05 0)
(0.0999544 -4.22071e-05 0)
(0.100006 3.9537e-07 0)
(0.100005 1.21016e-06 0)
(0.100005 2.02434e-06 0)
(0.100004 2.79102e-06 0)
(0.100004 3.51974e-06 0)
(0.100003 4.16066e-06 0)
(0.100002 4.78863e-06 0)
(0.100001 5.29773e-06 0)
(0.1 5.8285e-06 0)
(0.0999984 6.22569e-06 0)
(0.0999967 6.69398e-06 0)
(0.0999943 6.85886e-06 0)
(0.0999921 7.27011e-06 0)
(0.0999885 6.98936e-06 0)
(0.0999855 7.40292e-06 0)
(0.0999799 6.1707e-06 0)
(0.0999764 6.71876e-06 0)
(0.0999674 3.18445e-06 0)
(0.0999642 3.99242e-06 0)
(0.09995 -5.44476e-06 0)
(0.100007 -8.74462e-07 0)
(0.100007 -2.37618e-06 0)
(0.100007 -3.6006e-06 0)
(0.100007 -4.67683e-06 0)
(0.100006 -5.69022e-06 0)
(0.100005 -6.74421e-06 0)
(0.100005 -7.78775e-06 0)
(0.100003 -8.9228e-06 0)
(0.100002 -1.00108e-05 0)
(0.1 -1.12004e-05 0)
(0.0999989 -1.22712e-05 0)
(0.0999961 -1.36207e-05 0)
(0.0999941 -1.46579e-05 0)
(0.0999898 -1.63406e-05 0)
(0.0999874 -1.72243e-05 0)
(0.0999803 -1.96372e-05 0)
(0.0999779 -2.00873e-05 0)
(0.0999653 -2.43109e-05 0)
(0.0999638 -2.39239e-05 0)
(0.0999402 -3.31965e-05 0)
)
;

boundaryField
{
    sides
    {
        type            calculated;
        value           nonuniform List<vector> 
40
(
(0.100007 0 0)
(0.100007 0 0)
(0.100007 0 0)
(0.100007 0 0)
(0.100006 0 0)
(0.100005 0 0)
(0.100005 0 0)
(0.100003 0 0)
(0.100002 0 0)
(0.1 0 0)
(0.0999989 0 0)
(0.0999961 0 0)
(0.0999941 0 0)
(0.0999898 0 0)
(0.0999874 0 0)
(0.0999803 0 0)
(0.0999779 0 0)
(0.0999653 0 0)
(0.0999638 0 0)
(0.0999402 0 0)
(0.0999931 0 0)
(0.099993 0 0)
(0.0999931 0 0)
(0.0999934 0 0)
(0.0999939 0 0)
(0.0999947 0 0)
(0.0999955 0 0)
(0.0999966 0 0)
(0.0999978 0 0)
(0.0999996 0 0)
(0.100001 0 0)
(0.100004 0 0)
(0.100006 0 0)
(0.10001 0 0)
(0.100013 0 0)
(0.10002 0 0)
(0.100022 0 0)
(0.100035 0 0)
(0.100036 0 0)
(0.10006 0 0)
)
;
    }
    inlet
    {
        type            calculated;
        value           nonuniform List<vector> 
20
(
(0.0999931 0 0)
(0.0999943 0 0)
(0.0999948 0 0)
(0.0999956 0 0)
(0.0999963 0 0)
(0.0999969 0 0)
(0.0999976 0 0)
(0.0999983 0 0)
(0.099999 0 0)
(0.0999997 0 0)
(0.1 0 0)
(0.100001 0 0)
(0.100002 0 0)
(0.100002 0 0)
(0.100003 0 0)
(0.100004 0 0)
(0.100004 0 0)
(0.100005 0 0)
(0.100006 0 0)
(0.100007 0 0)
)
;
    }
    outlet
    {
        type            calculated;
        value           nonuniform List<vector> 
20
(
(0.100061 -3.31836e-05 0)
(0.10005 -5.45762e-06 0)
(0.100046 -4.22148e-05 0)
(0.100039 -2.75827e-05 0)
(0.100033 -4.64368e-05 0)
(0.100027 -4.1495e-05 0)
(0.100021 -4.92153e-05 0)
(0.100015 -4.90788e-05 0)
(0.100009 -5.12435e-05 0)
(0.100003 -5.17416e-05 0)
(0.099997 -5.17408e-05 0)
(0.0999911 -5.1237e-05 0)
(0.0999852 -4.9077e-05 0)
(0.0999792 -4.92011e-05 0)
(0.0999731 -4.14938e-05 0)
(0.099967 -4.64215e-05 0)
(0.0999611 -2.75771e-05 0)
(0.0999539 -4.22069e-05 0)
(0.0999495 -5.44473e-06 0)
(0.0999394 -3.31962e-05 0)
)
;
    }
    frontAndBack
    {
        type            empty;
    }
}


// ************************************************************************* //
