/*--------------------------------*- C++ -*----------------------------------*\
  =========                 |
  \\      /  F ield         | OpenFOAM: The Open Source CFD Toolbox
   \\    /   O peration     | Website:  https://openfoam.org
    \\  /    A nd           | Version:  7
     \\/     M anipulation  |
\*---------------------------------------------------------------------------*/
FoamFile
{
    version     2.0;
    format      ascii;
    class       volVectorField;
    location    "99";
    object      ddt0(hU);
}
// * * * * * * * * * * * * * * * * * * * * * * * * * * * * * * * * * * * * * //

dimensions      [0 2 -2 0 0 0 0];

internalField   nonuniform List<vector> 
400
(
(1.49282e-11 9.47327e-11 0)
(2.14095e-10 -9.43985e-11 0)
(2.38972e-11 -5.07402e-11 0)
(-9.668e-11 1.49673e-10 0)
(-6.43113e-11 2.33955e-10 0)
(9.10071e-10 2.72444e-10 0)
(-3.80322e-10 -4.7058e-10 0)
(4.61639e-10 -1.03945e-09 0)
(-1.60714e-10 3.64023e-10 0)
(3.82927e-10 -4.1688e-11 0)
(-6.46354e-11 -5.77435e-11 0)
(-3.97237e-11 -9.91218e-12 0)
(-7.68767e-11 6.9049e-12 0)
(-9.47747e-11 3.62127e-11 0)
(-3.64037e-13 6.32774e-11 0)
(1.11073e-10 5.91514e-11 0)
(1.19992e-10 2.211e-11 0)
(4.84308e-11 -2.02136e-11 0)
(-2.59617e-11 -4.01504e-11 0)
(-3.24555e-11 -2.40309e-11 0)
(-1.69669e-11 1.07828e-10 0)
(3.04335e-11 -1.14122e-10 0)
(3.31626e-11 -7.90926e-11 0)
(1.55507e-10 2.22287e-10 0)
(-1.14716e-10 3.47723e-11 0)
(-7.02439e-10 5.02226e-10 0)
(6.85274e-10 -1.06252e-09 0)
(-2.12321e-09 -3.77192e-10 0)
(8.62284e-10 5.32205e-10 0)
(-1.42167e-10 -1.09729e-10 0)
(-9.92843e-12 -7.06673e-11 0)
(4.90609e-11 -2.71655e-11 0)
(-6.47658e-12 -2.84567e-11 0)
(-1.02477e-11 3.51582e-11 0)
(2.94172e-11 1.10184e-10 0)
(5.5617e-11 1.12149e-10 0)
(2.07848e-11 4.2484e-11 0)
(-3.35358e-11 -3.77832e-11 0)
(-4.34592e-11 -7.164e-11 0)
(8.70483e-12 -3.75173e-11 0)
(1.02129e-10 4.90832e-11 0)
(-5.76924e-11 3.31538e-11 0)
(-3.86669e-11 -6.31312e-11 0)
(-1.96789e-11 1.59756e-11 0)
(-1.32488e-10 -2.68731e-10 0)
(1.10635e-11 3.03624e-10 0)
(-7.6536e-10 -2.76394e-10 0)
(1.73383e-09 8.98089e-10 0)
(-1.71194e-10 1.24797e-11 0)
(-3.66434e-10 -8.94452e-11 0)
(6.4119e-11 1.58417e-11 0)
(1.08195e-11 -1.34451e-11 0)
(1.6374e-11 -2.97758e-11 0)
(1.05044e-10 2.85088e-11 0)
(1.05468e-10 8.93664e-11 0)
(2.50915e-11 8.31012e-11 0)
(-7.38514e-11 2.31211e-11 0)
(-1.24329e-10 -1.62686e-11 0)
(-8.22151e-11 -2.82852e-11 0)
(3.5456e-11 -2.39003e-11 0)
(2.58502e-11 6.25724e-11 0)
(-1.02466e-10 5.67829e-11 0)
(-3.60015e-11 -6.16575e-11 0)
(-7.75327e-11 -1.38743e-10 0)
(1.24159e-10 -2.89592e-11 0)
(-9.79309e-11 -1.14927e-10 0)
(1.64495e-10 5.70223e-10 0)
(4.24226e-10 2.38657e-10 0)
(-4.43918e-10 -3.19222e-10 0)
(-1.13745e-10 9.46617e-12 0)
(8.01462e-11 6.92219e-11 0)
(-4.05382e-11 -4.033e-12 0)
(2.76119e-11 2.91553e-11 0)
(1.28915e-10 6.41075e-11 0)
(8.9637e-11 4.38479e-11 0)
(-2.99798e-11 -1.50469e-12 0)
(-1.16116e-10 -2.86575e-11 0)
(-1.22564e-10 7.03313e-12 0)
(-6.27217e-11 4.87495e-11 0)
(3.58488e-11 1.98734e-11 0)
(-7.72852e-11 -2.39304e-11 0)
(-1.42694e-10 -1.01732e-11 0)
(-1.20813e-11 3.99343e-11 0)
(-6.53381e-11 -9.53988e-11 0)
(2.10657e-10 1.64139e-10 0)
(-1.294e-10 -2.96776e-10 0)
(3.34484e-10 3.07678e-10 0)
(-2.11757e-10 -2.10972e-10 0)
(-3.96798e-10 -2.13368e-10 0)
(1.93971e-10 1.05421e-10 0)
(1.39093e-11 4.12465e-12 0)
(-5.5968e-11 -3.52819e-11 0)
(8.92158e-11 5.61479e-11 0)
(9.18599e-11 5.81363e-11 0)
(6.02045e-12 -2.94697e-11 0)
(-7.76064e-11 -8.27941e-11 0)
(-9.41827e-11 -5.69759e-11 0)
(-3.17739e-11 3.11694e-11 0)
(2.0814e-11 9.59247e-11 0)
(1.98933e-11 4.57923e-11 0)
(-6.34581e-11 -1.03985e-10 0)
(-4.93283e-11 -3.41572e-11 0)
(2.12031e-11 1.25765e-10 0)
(1.56369e-11 3.20607e-11 0)
(9.16398e-11 1.53912e-10 0)
(-3.96515e-11 -5.1879e-11 0)
(1.51761e-10 3.89031e-11 0)
(-3.87057e-10 -3.04408e-10 0)
(1.12745e-10 6.21402e-11 0)
(1.89463e-10 4.89864e-11 0)
(-1.47059e-10 -9.95254e-11 0)
(4.10392e-11 3.95476e-12 0)
(1.39381e-10 5.87767e-11 0)
(-2.01679e-11 4.45585e-12 0)
(-1.01426e-10 -7.97594e-11 0)
(-6.80055e-11 -1.03116e-10 0)
(5.13589e-12 -4.59825e-11 0)
(9.46719e-11 4.27615e-11 0)
(1.16052e-10 7.55765e-11 0)
(1.07558e-11 1.99316e-11 0)
(-2.52002e-11 -6.49456e-11 0)
(5.30735e-11 -7.80344e-13 0)
(2.70961e-11 4.42151e-11 0)
(9.29472e-11 1.39281e-10 0)
(-3.22188e-11 9.66805e-12 0)
(5.44658e-11 1.31999e-10 0)
(-9.65972e-11 -5.92859e-11 0)
(-9.33713e-11 -5.86144e-11 0)
(2.0144e-10 1.4759e-10 0)
(-1.05627e-10 -1.03399e-10 0)
(-4.10838e-11 -3.95411e-11 0)
(1.70569e-10 9.30843e-11 0)
(4.15352e-11 -5.74473e-12 0)
(-1.46216e-10 -6.41816e-11 0)
(-1.63406e-10 -3.55855e-11 0)
(-3.95647e-11 -6.92548e-12 0)
(1.08244e-10 1.34301e-11 0)
(1.85605e-10 2.80133e-11 0)
(1.58885e-10 1.45575e-11 0)
(1.57692e-11 -1.85247e-11 0)
(1.02079e-11 1.49408e-11 0)
(8.88056e-11 6.87487e-11 0)
(8.54746e-12 -2.63187e-11 0)
(8.01021e-11 9.40736e-11 0)
(-6.76992e-11 -3.48799e-11 0)
(4.52929e-11 8.03799e-11 0)
(-1.62087e-10 -6.36194e-11 0)
(8.5616e-11 9.17917e-11 0)
(1.53702e-11 2.14685e-11 0)
(-9.68312e-11 -6.32544e-11 0)
(1.93112e-10 6.07809e-11 0)
(5.86384e-11 2.29809e-11 0)
(-1.49234e-10 -9.33767e-11 0)
(-9.65547e-11 -5.61962e-11 0)
(-6.41154e-11 7.58998e-11 0)
(-3.05525e-11 1.58411e-10 0)
(8.83125e-11 1.18101e-10 0)
(1.52641e-10 1.95777e-11 0)
(9.14987e-11 -4.1541e-11 0)
(-1.06441e-11 -5.09984e-11 0)
(3.4388e-11 8.61488e-11 0)
(4.5684e-11 4.66644e-11 0)
(-1.33357e-11 1.66978e-11 0)
(-1.07772e-11 -4.07631e-11 0)
(-3.9385e-11 -7.03746e-12 0)
(-3.61174e-12 -3.39107e-11 0)
(-5.14988e-11 -1.67769e-11 0)
(8.87221e-11 8.56477e-11 0)
(-4.23229e-11 -4.67397e-11 0)
(1.2529e-11 5.51435e-11 0)
(9.23502e-11 1.95987e-12 0)
(-1.11908e-10 -1.19832e-10 0)
(-1.07925e-10 -4.45342e-11 0)
(8.10282e-11 2.90954e-11 0)
(8.52909e-11 8.68859e-11 0)
(-1.02681e-11 1.90929e-10 0)
(-2.11199e-11 1.79996e-10 0)
(-4.05431e-12 4.66699e-11 0)
(-3.85131e-11 -4.764e-11 0)
(-4.17474e-11 -5.74292e-11 0)
(-3.25755e-12 6.94679e-11 0)
(-4.61561e-11 -8.18832e-12 0)
(-6.11377e-13 4.59873e-11 0)
(-6.36641e-11 -2.87146e-11 0)
(-7.20677e-12 3.99043e-11 0)
(-5.07465e-11 -2.0261e-11 0)
(7.86371e-11 1.94165e-11 0)
(9.26453e-12 4.06359e-11 0)
(1.17168e-11 -4.43408e-11 0)
(2.63637e-11 5.02104e-11 0)
(-1.19221e-10 -4.26699e-11 0)
(-2.40506e-11 -9.36314e-11 0)
(8.38173e-11 3.92087e-11 0)
(6.27646e-11 6.24087e-11 0)
(1.0023e-10 2.62328e-11 0)
(1.0111e-10 8.61223e-11 0)
(-3.44645e-11 1.12202e-10 0)
(-1.62986e-10 5.47889e-11 0)
(-1.87775e-10 -5.31389e-12 0)
(-7.33716e-11 -3.45567e-11 0)
(-1.73064e-11 -4.75279e-11 0)
(-6.47728e-11 1.48899e-11 0)
(2.28432e-11 1.09059e-11 0)
(-6.03101e-11 8.71478e-11 0)
(1.11485e-11 6.74243e-11 0)
(-7.34164e-11 1.00353e-10 0)
(1.0477e-10 3.8936e-11 0)
(-2.24709e-11 1.91027e-11 0)
(3.04115e-11 8.31584e-12 0)
(4.78369e-11 -3.71904e-11 0)
(-1.64399e-10 2.63867e-11 0)
(1.20292e-11 4.88149e-11 0)
(1.21772e-10 -9.53559e-13 0)
(6.6247e-12 3.04538e-12 0)
(5.77017e-11 1.40433e-11 0)
(1.22602e-10 -2.04956e-11 0)
(-9.35369e-12 -4.27045e-11 0)
(-1.5816e-10 9.09103e-12 0)
(-1.78343e-10 5.02171e-11 0)
(-6.81646e-11 8.86824e-12 0)
(2.53847e-11 -8.50592e-11 0)
(1.78921e-11 3.59957e-12 0)
(2.35858e-11 5.87241e-12 0)
(-1.53654e-11 1.24567e-10 0)
(5.91805e-12 5.44722e-11 0)
(-4.60611e-11 1.27323e-10 0)
(3.73522e-13 4.63849e-11 0)
(4.0376e-11 -4.05135e-11 0)
(-4.16272e-11 5.28965e-11 0)
(8.04645e-11 -1.06577e-10 0)
(1.10414e-11 3.70495e-12 0)
(-1.14177e-10 1.25611e-10 0)
(-4.04461e-11 1.02052e-11 0)
(5.31986e-11 -1.90744e-11 0)
(4.49093e-11 -8.51884e-12 0)
(1.02618e-13 -8.73495e-11 0)
(-6.82695e-12 -1.09863e-10 0)
(6.23211e-12 2.97685e-12 0)
(-1.14696e-11 7.87691e-11 0)
(-3.42489e-11 2.63816e-11 0)
(1.74998e-11 -1.11701e-11 0)
(7.55292e-11 -2.47254e-11 0)
(1.22208e-11 5.74313e-11 0)
(7.18577e-11 -2.36915e-11 0)
(-2.91409e-11 4.48328e-11 0)
(3.43399e-11 -1.10235e-12 0)
(-1.51301e-10 9.4932e-11 0)
(1.10714e-10 -9.62717e-11 0)
(-5.93687e-11 4.02469e-11 0)
(-2.60381e-11 -1.97132e-11 0)
(2.25664e-10 -1.05265e-10 0)
(-3.57568e-11 1.48937e-11 0)
(-1.82731e-10 8.171e-11 0)
(-4.40488e-11 5.78138e-11 0)
(-2.94295e-11 -1.16452e-11 0)
(-5.01609e-11 -6.46083e-11 0)
(6.12952e-11 -4.23986e-11 0)
(1.53821e-10 3.11282e-11 0)
(1.2185e-10 4.8538e-11 0)
(2.19586e-12 1.14985e-12 0)
(-1.04967e-11 6.84765e-11 0)
(5.62527e-11 2.08274e-11 0)
(-1.50941e-11 2.22202e-11 0)
(1.02391e-10 -1.44428e-10 0)
(-4.56325e-11 5.86408e-11 0)
(1.09753e-10 -1.21567e-10 0)
(-1.71712e-10 1.43934e-10 0)
(1.61449e-11 -1.44169e-11 0)
(1.19117e-10 -8.86238e-11 0)
(-1.8083e-10 1.17942e-10 0)
(7.79148e-11 -3.95509e-11 0)
(1.55152e-10 -1.07119e-10 0)
(-4.43682e-11 3.91333e-11 0)
(-1.26816e-10 9.52414e-11 0)
(-1.20877e-10 5.20328e-11 0)
(-4.80386e-11 4.38743e-11 0)
(7.77626e-11 4.3295e-11 0)
(1.5224e-10 1.75329e-11 0)
(1.45774e-10 -1.1054e-11 0)
(3.21354e-11 -2.59545e-11 0)
(-4.47707e-11 9.90495e-11 0)
(-3.14619e-11 5.34158e-11 0)
(-3.52134e-11 -6.86862e-11 0)
(3.62798e-11 -3.03907e-11 0)
(3.01288e-11 -9.51097e-12 0)
(6.96124e-11 -2.19017e-11 0)
(5.49173e-11 5.93714e-11 0)
(-3.09727e-10 2.49563e-10 0)
(2.50792e-10 -1.7628e-10 0)
(4.3145e-11 -8.75108e-12 0)
(-1.51624e-10 6.03977e-11 0)
(8.43003e-11 -6.89188e-11 0)
(8.44366e-11 -4.09509e-11 0)
(-7.35481e-11 4.24697e-11 0)
(-1.12463e-10 9.73364e-11 0)
(-5.95965e-11 1.28399e-10 0)
(2.59516e-12 8.27089e-11 0)
(6.32333e-11 -6.4334e-12 0)
(1.08856e-10 -5.69656e-11 0)
(4.30418e-11 -5.06723e-11 0)
(-6.1629e-11 2.41408e-11 0)
(-1.14497e-10 -1.87799e-12 0)
(-3.24572e-11 -5.06469e-11 0)
(-5.94094e-11 1.76867e-10 0)
(1.49959e-10 -1.17411e-10 0)
(-9.46466e-11 2.68046e-10 0)
(3.71342e-10 -2.49117e-10 0)
(-4.17546e-10 2.76014e-10 0)
(-2.25884e-10 8.17508e-11 0)
(2.48078e-10 -1.48727e-10 0)
(-4.86736e-11 -2.10232e-12 0)
(-1.57858e-11 -7.94105e-12 0)
(8.96977e-11 -6.51759e-11 0)
(2.35705e-11 -2.79712e-11 0)
(-3.82279e-11 5.83603e-11 0)
(-7.27466e-11 1.09529e-10 0)
(-8.33321e-11 7.61275e-11 0)
(-4.25733e-11 -2.84782e-12 0)
(1.86347e-11 -5.74809e-11 0)
(3.30886e-11 -5.08803e-11 0)
(-8.58967e-13 -4.40529e-11 0)
(-9.83205e-11 -8.79601e-11 0)
(1.08737e-11 3.44375e-11 0)
(-1.17143e-10 2.77542e-10 0)
(1.63644e-10 -7.75733e-11 0)
(-2.23068e-10 3.28537e-10 0)
(3.85541e-10 -8.15156e-10 0)
(2.92755e-10 1.39972e-10 0)
(-4.4037e-10 2.75657e-10 0)
(-2.33409e-11 -8.40745e-11 0)
(6.48454e-11 -9.34236e-11 0)
(-2.33759e-11 -2.6571e-11 0)
(4.40429e-11 -4.90024e-11 0)
(7.61377e-11 -4.42068e-11 0)
(3.10184e-11 1.54589e-12 0)
(-4.79071e-11 5.17384e-11 0)
(-1.00019e-10 6.15324e-11 0)
(-1.02081e-10 2.82932e-11 0)
(-5.14007e-11 -1.28793e-11 0)
(3.24871e-11 -2.83441e-11 0)
(2.96487e-11 -5.23678e-11 0)
(-7.19479e-11 -1.92964e-11 0)
(6.28685e-11 8.31252e-11 0)
(-1.09051e-10 6.42952e-12 0)
(3.74161e-11 1.57441e-10 0)
(-3.76027e-10 -3.68838e-10 0)
(5.45422e-11 -1.29646e-09 0)
(1.02836e-09 5.80612e-11 0)
(-6.11114e-10 2.14289e-10 0)
(-2.75163e-10 1.90987e-11 0)
(4.38216e-11 -3.68369e-11 0)
(2.27138e-11 2.32021e-11 0)
(5.12255e-11 2.67914e-11 0)
(8.79268e-11 -1.57803e-11 0)
(5.89517e-11 -4.75702e-11 0)
(-3.17221e-12 -2.49834e-11 0)
(-6.06961e-11 2.22384e-11 0)
(-9.677e-11 4.85717e-11 0)
(-6.23098e-11 4.55108e-11 0)
(2.65669e-11 1.07876e-11 0)
(-4.21285e-13 -1.1487e-10 0)
(2.16258e-11 1.51646e-10 0)
(1.09908e-11 1.39348e-10 0)
(1.06281e-10 -3.86735e-10 0)
(-3.3335e-10 1.78852e-10 0)
(-1.61683e-09 -3.98753e-10 0)
(-3.10738e-10 2.87807e-09 0)
(7.02251e-09 -1.08563e-09 0)
(-4.57576e-10 -4.28052e-10 0)
(-3.7873e-10 2.67689e-10 0)
(6.35512e-11 1.79036e-10 0)
(4.8481e-11 9.6622e-11 0)
(-1.77347e-11 3.0117e-11 0)
(-1.67335e-11 -4.23065e-11 0)
(1.11595e-11 -9.12323e-11 0)
(3.24161e-11 -7.70015e-11 0)
(1.63975e-11 -1.17479e-11 0)
(-2.43589e-11 5.42416e-11 0)
(-3.04263e-11 8.02236e-11 0)
(1.09361e-12 3.75956e-11 0)
(6.16039e-11 -8.34981e-11 0)
(1.75947e-10 1.09415e-10 0)
(-7.38542e-11 9.51521e-11 0)
(3.38939e-11 -2.51764e-10 0)
(4.14168e-11 1.81212e-11 0)
(2.21917e-09 8.39714e-11 0)
(-2.96561e-10 3.59369e-09 0)
(-7.74912e-09 -1.06679e-09 0)
(1.44693e-09 -5.28712e-10 0)
(4.84064e-10 2.26588e-10 0)
(-1.83927e-10 1.49424e-10 0)
(-1.916e-10 4.35815e-11 0)
(-1.63404e-10 -1.23696e-11 0)
(-8.80131e-11 -3.77938e-11 0)
(1.04473e-11 -4.62126e-11 0)
(8.95845e-11 -3.16629e-11 0)
(9.94203e-11 -8.79718e-13 0)
(4.63261e-11 3.30817e-11 0)
(-7.7343e-12 4.1994e-11 0)
(-3.63859e-11 1.34805e-11 0)
)
;

boundaryField
{
    sides
    {
        type            calculated;
        value           nonuniform List<vector> 
40
(
(6.16039e-11 0 0)
(1.75947e-10 0 0)
(-7.38542e-11 0 0)
(3.38939e-11 0 0)
(4.14168e-11 0 0)
(2.21917e-09 0 0)
(-2.96561e-10 0 0)
(-7.74912e-09 0 0)
(1.44693e-09 0 0)
(4.84064e-10 0 0)
(-1.83927e-10 0 0)
(-1.916e-10 0 0)
(-1.63404e-10 0 0)
(-8.80131e-11 0 0)
(1.04473e-11 0 0)
(8.95845e-11 0 0)
(9.94203e-11 0 0)
(4.63261e-11 0 0)
(-7.7343e-12 0 0)
(-3.63859e-11 0 0)
(1.49282e-11 0 0)
(2.14095e-10 0 0)
(2.38972e-11 0 0)
(-9.668e-11 0 0)
(-6.43113e-11 0 0)
(9.10071e-10 0 0)
(-3.80322e-10 0 0)
(4.61639e-10 0 0)
(-1.60714e-10 0 0)
(3.82927e-10 0 0)
(-6.46354e-11 0 0)
(-3.97237e-11 0 0)
(-7.68767e-11 0 0)
(-9.47747e-11 0 0)
(-3.64037e-13 0 0)
(1.11073e-10 0 0)
(1.19992e-10 0 0)
(4.84308e-11 0 0)
(-2.59617e-11 0 0)
(-3.24555e-11 0 0)
)
;
    }
    inlet
    {
        type            calculated;
        value           uniform (0 0 0);
    }
    outlet
    {
        type            calculated;
        value           nonuniform List<vector> 
20
(
(-3.24555e-11 -2.40309e-11 0)
(8.70483e-12 -3.75173e-11 0)
(3.5456e-11 -2.39003e-11 0)
(3.58488e-11 1.98734e-11 0)
(1.98933e-11 4.57923e-11 0)
(1.07558e-11 1.99316e-11 0)
(1.57692e-11 -1.85247e-11 0)
(-1.06441e-11 -5.09984e-11 0)
(-4.17474e-11 -5.74292e-11 0)
(-7.33716e-11 -3.45567e-11 0)
(-6.81646e-11 8.86824e-12 0)
(-3.42489e-11 2.63816e-11 0)
(2.19586e-12 1.14985e-12 0)
(3.21354e-11 -2.59545e-11 0)
(4.30418e-11 -5.06723e-11 0)
(3.30886e-11 -5.08803e-11 0)
(3.24871e-11 -2.83441e-11 0)
(2.65669e-11 1.07876e-11 0)
(1.09361e-12 3.75956e-11 0)
(-3.63859e-11 1.34805e-11 0)
)
;
    }
    frontAndBack
    {
        type            empty;
    }
}


// ************************************************************************* //
