/*--------------------------------*- C++ -*----------------------------------*\
  =========                 |
  \\      /  F ield         | OpenFOAM: The Open Source CFD Toolbox
   \\    /   O peration     | Website:  https://openfoam.org
    \\  /    A nd           | Version:  7
     \\/     M anipulation  |
\*---------------------------------------------------------------------------*/
FoamFile
{
    version     2.0;
    format      ascii;
    class       volScalarField;
    location    "99";
    object      ddt0(h);
}
// * * * * * * * * * * * * * * * * * * * * * * * * * * * * * * * * * * * * * //

dimensions      [0 1 -1 0 0 0 0];

internalField   nonuniform List<scalar> 
400
(
-1.3806e-09
-1.64924e-10
2.10447e-09
4.66218e-10
1.40814e-09
3.36107e-09
-1.08454e-08
1.28752e-08
1.62601e-09
5.2953e-10
-1.9526e-10
-1.60431e-10
-3.24047e-10
-3.24557e-10
-7.20915e-11
2.03388e-10
3.42666e-10
2.80055e-10
6.11445e-11
-3.71516e-11
1.2489e-10
1.0248e-10
-3.35851e-10
4.74907e-11
-2.15125e-10
-5.94461e-09
1.28093e-08
-2.08521e-08
1.4148e-09
-3.6256e-10
5.84283e-11
1.03414e-10
-1.75967e-11
5.08682e-12
3.14101e-11
6.51958e-11
1.14386e-10
3.61622e-11
-1.51267e-10
-1.18223e-10
1.67525e-09
1.13721e-10
-1.99902e-09
7.09233e-12
-1.84316e-09
4.96272e-09
-5.43407e-09
9.46208e-09
-1.41943e-09
-7.22623e-10
1.90731e-10
-7.63362e-11
3.14619e-11
3.11711e-10
2.27435e-10
3.25075e-11
-8.95633e-11
-2.98524e-10
-4.5397e-10
-2.28214e-10
6.78761e-10
1.75023e-10
-7.67551e-10
-2.17187e-10
-6.06302e-10
-8.55228e-11
2.04671e-09
9.76003e-10
-1.53002e-09
-1.35859e-10
1.64389e-10
-2.19148e-10
5.02469e-11
3.15476e-10
1.65356e-10
-1.09527e-10
-3.09231e-10
-4.34116e-10
-4.4024e-10
-2.045e-10
-3.09206e-10
4.29195e-12
4.02672e-10
-6.89986e-10
1.28781e-09
-2.38443e-09
1.63591e-09
-1.13451e-09
-1.33697e-09
7.7874e-10
-1.27828e-10
-1.92076e-10
2.442e-10
1.97586e-10
4.04952e-11
-1.99032e-10
-4.28967e-10
-2.7623e-10
4.53791e-11
7.87031e-11
-4.40741e-10
-2.43312e-10
8.1038e-10
-3.62666e-10
9.5371e-10
-7.51174e-10
6.60397e-10
-1.85225e-09
7.21496e-10
5.35078e-10
-6.23301e-10
1.80831e-10
3.55887e-10
-1.60881e-10
-1.74194e-10
-1.30322e-10
-2.63105e-10
1.11522e-10
7.63279e-10
5.13245e-10
-2.46423e-10
-2.47043e-10
2.87715e-10
7.53203e-10
-3.80083e-10
5.68153e-10
-4.2692e-10
-2.46988e-10
7.78459e-10
-6.46525e-10
-1.04208e-10
6.23324e-10
1.05282e-11
-5.41199e-10
-3.63248e-10
-8.22929e-11
3.23284e-11
4.8733e-10
1.09103e-09
6.6363e-10
-4.47012e-11
3.03527e-10
-5.51596e-10
6.90477e-10
-4.86876e-10
6.17891e-10
-6.8607e-10
5.79367e-10
-9.09365e-11
-4.42219e-10
8.21083e-10
1.30332e-10
-6.64147e-10
-3.65144e-10
-1.71834e-10
-1.51228e-10
1.4414e-10
5.25052e-10
6.28505e-10
2.93139e-10
2.71006e-11
3.87571e-10
-2.08815e-10
-1.41581e-10
-2.28227e-10
1.08802e-10
-2.2212e-10
4.07169e-10
-2.88543e-10
7.00248e-11
3.56302e-10
-4.74915e-10
-3.76954e-10
3.0459e-10
1.86784e-10
-1.22835e-10
5.14875e-11
3.58355e-11
-3.7485e-10
-3.05706e-10
1.75141e-10
-7.15168e-11
3.24776e-10
-3.64044e-10
5.39289e-11
-3.40828e-10
3.11157e-10
-1.83088e-10
2.18199e-11
1.40899e-10
-4.89767e-10
-4.10982e-12
4.43455e-10
1.97123e-10
1.03312e-10
3.11759e-10
2.60377e-10
-5.09559e-10
-1.30697e-09
-7.74008e-10
1.68805e-10
-2.68301e-10
4.57504e-10
-4.09957e-10
1.80298e-10
-4.67468e-10
4.92267e-10
-3.40102e-10
1.57181e-10
2.46695e-10
-6.86749e-10
1.5821e-10
6.1578e-10
-1.11327e-11
-5.52525e-11
4.31615e-10
3.79432e-10
-5.02062e-10
-1.24263e-09
-7.02911e-10
-3.43846e-11
3.56169e-11
6.07367e-11
-3.4602e-10
8.9717e-11
-1.41099e-10
1.37192e-10
1.67473e-10
-1.76492e-10
4.13521e-10
-1.80255e-11
-4.46975e-10
-2.24184e-11
2.37106e-10
2.3177e-11
-1.67589e-11
1.62385e-10
5.8771e-11
-1.73735e-10
-1.25937e-10
-1.66578e-10
2.27512e-10
-6.08187e-10
5.00022e-10
-1.92912e-10
5.41881e-10
-5.84586e-10
6.9348e-10
-3.55462e-10
-3.18133e-11
9.04654e-10
-2.37784e-10
-6.42271e-10
-4.99872e-11
-2.29327e-11
-1.56348e-10
1.11345e-10
5.28948e-10
7.73538e-10
4.12164e-10
-2.47017e-10
-1.9286e-10
-1.79064e-10
1.10989e-09
-6.67941e-10
8.45584e-10
-8.89064e-10
3.09429e-10
3.82665e-10
-8.24507e-10
3.85052e-10
5.12529e-10
-2.22838e-10
-3.50732e-10
-1.67772e-10
-7.80723e-11
-2.90668e-11
4.26941e-10
1.0645e-09
6.6331e-10
-4.02984e-10
-2.34338e-10
6.76381e-10
-4.31702e-11
8.89711e-11
5.71512e-11
1.0285e-10
-1.33976e-09
1.25554e-09
-2.13054e-11
-5.12342e-10
3.58311e-10
2.15991e-10
-2.26075e-10
-1.05854e-10
-7.09848e-11
-2.92774e-10
1.7956e-11
6.78341e-10
4.82207e-10
-3.25174e-10
5.12857e-11
6.12543e-10
-1.03805e-09
1.19518e-09
-1.96876e-09
1.62274e-09
-1.99284e-09
-4.93804e-10
9.28954e-10
-2.37761e-10
4.74896e-11
2.57532e-10
5.00855e-12
-1.52222e-12
-1.20939e-10
-3.9273e-10
-2.92176e-10
-1.33827e-11
3.7521e-11
4.24997e-10
3.03442e-10
-5.37546e-10
-9.48892e-10
6.85984e-10
-1.79417e-09
3.47117e-09
9.82039e-10
-1.45174e-09
1.51616e-10
1.80553e-10
1.08929e-11
1.89833e-10
1.89785e-10
8.29911e-11
-6.47109e-11
-2.21264e-10
-3.63118e-10
-4.84374e-10
-2.68822e-10
1.26986e-09
3.91342e-10
-2.00782e-09
-4.85735e-10
-2.87251e-10
2.2412e-09
7.23023e-10
9.92935e-10
-2.22486e-09
-5.37486e-10
1.12407e-10
7.9363e-11
2.52979e-10
3.31778e-10
1.62427e-10
3.10566e-11
-1.59612e-12
-2.12155e-10
-4.76624e-10
-2.75342e-10
1.57699e-10
4.68909e-11
-7.03104e-10
6.2386e-10
-6.72086e-10
-1.02569e-09
-7.4864e-09
5.23268e-08
-1.19973e-09
-7.36019e-10
1.43353e-10
1.68508e-10
9.03011e-11
1.24283e-10
6.45646e-11
5.19265e-11
1.44128e-10
8.78785e-11
-1.21771e-10
-1.11491e-10
-1.10526e-09
-7.20713e-10
2.16086e-09
8.48718e-10
-3.64037e-10
1.59909e-09
2.562e-09
-5.18303e-08
4.21005e-09
6.65921e-10
-3.2163e-10
-5.6138e-10
-4.87934e-10
-1.89827e-10
4.67333e-11
1.75558e-10
2.85589e-10
2.91447e-10
1.34107e-10
8.44029e-12
)
;

boundaryField
{
    sides
    {
        type            calculated;
        value           nonuniform List<scalar> 
40
(
-1.10526e-09
-7.20713e-10
2.16086e-09
8.48718e-10
-3.64037e-10
1.59909e-09
2.562e-09
-5.18303e-08
4.21005e-09
6.65921e-10
-3.2163e-10
-5.6138e-10
-4.87934e-10
-1.89827e-10
4.67333e-11
1.75558e-10
2.85589e-10
2.91447e-10
1.34107e-10
8.44029e-12
-1.3806e-09
-1.64924e-10
2.10447e-09
4.66218e-10
1.40814e-09
3.36107e-09
-1.08454e-08
1.28752e-08
1.62601e-09
5.2953e-10
-1.9526e-10
-1.60431e-10
-3.24047e-10
-3.24557e-10
-7.20915e-11
2.03388e-10
3.42666e-10
2.80055e-10
6.11445e-11
-3.71516e-11
)
;
    }
    inlet
    {
        type            calculated;
        value           nonuniform List<scalar> 
20
(
-1.3806e-09
1.2489e-10
1.67525e-09
6.78761e-10
-3.09206e-10
-4.40741e-10
-2.46423e-10
-4.47012e-11
2.71006e-11
1.75141e-10
1.68805e-10
-3.43846e-11
-1.66578e-10
-2.47017e-10
-4.02984e-10
-3.25174e-10
4.24997e-10
1.26986e-09
1.57699e-10
-1.10526e-09
)
;
    }
    outlet
    {
        type            calculated;
        value           uniform 0;
    }
    frontAndBack
    {
        type            empty;
    }
}


// ************************************************************************* //
