/*--------------------------------*- C++ -*----------------------------------*\
  =========                 |
  \\      /  F ield         | OpenFOAM: The Open Source CFD Toolbox
   \\    /   O peration     | Website:  https://openfoam.org
    \\  /    A nd           | Version:  7
     \\/     M anipulation  |
\*---------------------------------------------------------------------------*/
FoamFile
{
    version     2.0;
    format      ascii;
    class       surfaceScalarField;
    location    "99";
    object      ddtCorrDdt0(phi);
}
// * * * * * * * * * * * * * * * * * * * * * * * * * * * * * * * * * * * * * //

dimensions      [0 4 -2 0 0 0 0];

internalField   nonuniform List<scalar> 
760
(
1.88257e-12
3.29491e-13
3.60659e-13
-5.87154e-13
-1.27147e-12
8.0109e-14
5.94698e-13
1.03015e-12
-7.80806e-13
8.75391e-13
6.69955e-12
1.36545e-10
-2.0975e-12
2.46561e-10
-1.74938e-12
9.83288e-11
3.26044e-12
9.44676e-12
-3.18359e-14
-3.96529e-14
-2.01971e-13
-2.37312e-13
-2.18665e-13
-1.67094e-13
-5.19178e-13
-1.41521e-13
-3.4508e-13
4.78505e-14
3.40613e-13
3.3805e-13
7.04949e-13
4.42249e-13
4.25333e-13
2.30726e-13
1.09969e-14
-8.67399e-14
-1.75435e-13
-2.60169e-13
-1.77089e-13
-2.36543e-13
-1.48185e-13
4.09675e-13
-3.14949e-13
6.57272e-14
-7.15342e-13
1.64236e-12
5.75488e-13
-4.33785e-12
-5.19347e-13
2.92586e-12
1.50782e-12
-8.66699e-12
-1.45198e-11
1.88079e-12
3.89622e-12
-1.40826e-13
1.74514e-12
-3.76608e-13
-6.27231e-13
2.58326e-13
-9.80437e-14
1.00371e-13
3.31242e-14
-1.08004e-13
-1.24862e-13
7.94147e-15
7.14565e-14
2.81034e-13
4.38744e-13
2.686e-13
4.93544e-13
-1.05889e-13
1.98577e-13
-2.65937e-13
-8.93466e-14
-5.47176e-14
-2.32896e-13
-1.70516e-13
-7.43357e-13
5.88639e-13
1.71067e-13
1.12572e-13
6.67889e-13
-6.38811e-13
-1.74059e-12
-1.16515e-13
2.49897e-12
-1.34923e-12
-7.07045e-12
3.36387e-12
6.37738e-12
7.6846e-13
4.00665e-12
3.6003e-12
-2.91316e-12
-1.23398e-12
-1.84491e-13
-3.13904e-13
2.74675e-13
2.26462e-13
-7.46021e-14
4.37166e-14
3.10405e-13
6.92823e-14
6.09714e-13
3.02221e-13
4.00914e-13
4.15428e-13
-1.28196e-13
2.38762e-13
-6.28304e-13
-2.29296e-14
-6.06132e-13
-2.30034e-14
-5.5902e-14
6.24302e-14
-8.21735e-15
-4.69702e-13
9.44787e-14
-5.95428e-13
1.45287e-13
6.78955e-13
-1.10394e-13
-1.7405e-12
-5.00049e-13
3.32847e-12
1.29374e-13
-4.02244e-12
-1.93298e-12
4.97737e-12
3.20617e-12
-1.39939e-12
1.57577e-13
-1.81196e-12
-1.60091e-12
4.83684e-13
1.37894e-13
-5.16532e-15
3.17946e-13
-1.77039e-13
-1.5389e-13
4.56621e-13
1.82794e-13
6.76956e-13
3.72556e-13
1.70948e-13
9.59267e-14
-4.43192e-13
-1.97567e-13
-6.76368e-13
-2.20556e-13
-5.13493e-13
1.12616e-13
-2.5624e-14
4.17651e-13
1.99582e-13
-5.86374e-13
-4.82495e-13
-8.19027e-13
-1.05002e-13
3.18562e-13
6.01813e-13
-2.16506e-13
-3.63717e-13
9.16538e-13
1.35633e-12
-1.89018e-13
-1.54969e-12
1.71713e-12
5.67453e-13
-3.28272e-12
-2.21293e-12
1.8929e-13
-6.35528e-13
8.08782e-13
8.43778e-13
-4.82443e-13
-2.49579e-13
1.41493e-13
-2.42546e-13
5.79267e-13
3.15883e-13
2.86791e-13
2.04426e-13
-2.51465e-13
-3.70531e-13
-5.16125e-13
-6.064e-13
-2.77799e-13
-3.25618e-13
3.70355e-15
2.0239e-13
9.3627e-14
4.80162e-13
1.89796e-13
-2.54004e-13
-5.46502e-13
-2.85449e-14
-2.04048e-13
-3.97964e-13
6.68256e-13
1.21081e-12
4.0169e-13
-1.09045e-12
3.34582e-13
1.55121e-12
5.93099e-13
-1.1148e-12
-1.64644e-13
-1.3548e-12
-1.01768e-12
1.81658e-12
1.05464e-12
-3.34503e-13
-2.74326e-13
-5.11701e-13
-6.8005e-13
7.5194e-13
2.4979e-13
3.85207e-13
2.55429e-13
-4.29126e-13
-1.37995e-13
-5.64458e-13
-4.18063e-13
-1.67832e-13
-4.48502e-13
4.18251e-13
-1.64762e-13
5.97033e-13
1.86222e-13
2.4628e-13
2.07258e-13
-2.84673e-14
1.93726e-14
-1.12343e-13
6.56378e-13
1.45645e-13
-4.7952e-13
-1.66391e-13
1.00323e-12
9.77199e-13
-7.95887e-13
-2.15434e-13
8.74933e-13
7.63471e-13
-1.57229e-12
-4.45849e-13
9.49879e-13
3.1771e-13
3.29899e-13
3.91344e-13
-8.42604e-13
-7.22127e-13
5.40208e-13
2.30866e-13
7.15224e-13
6.08744e-13
-2.83424e-13
-2.89607e-13
-9.32227e-13
-4.4531e-13
-6.797e-13
9.61463e-14
2.35263e-13
4.04506e-13
9.86257e-13
3.09729e-13
8.93404e-13
7.81088e-14
3.24503e-13
-9.98538e-14
-1.81052e-13
3.08865e-13
2.68936e-13
2.32305e-13
4.98958e-13
4.02023e-13
-1.46535e-13
-2.49518e-13
-9.53324e-15
1.62598e-13
-1.1943e-13
-3.25696e-13
5.85539e-14
-6.1993e-13
-1.69416e-13
9.91416e-13
5.9158e-13
-8.07845e-13
-1.29395e-13
3.63862e-13
1.21758e-13
9.80088e-13
3.40299e-13
-4.81243e-13
-3.66092e-13
-6.40046e-13
-5.84906e-13
-3.49438e-13
-1.15174e-13
-3.70164e-13
6.07142e-13
1.55574e-13
1.13565e-12
7.72245e-13
8.53342e-13
6.46964e-13
1.04484e-13
1.30061e-13
-2.81096e-13
-2.64331e-13
4.7236e-13
5.94642e-13
-3.25199e-13
-2.15521e-14
3.87384e-13
2.99002e-13
-5.35077e-13
-4.28881e-13
2.67108e-13
5.96618e-14
-4.9125e-13
-3.86273e-13
2.38344e-13
1.10099e-14
2.85018e-13
2.56492e-13
-4.26268e-13
-3.17659e-13
5.66512e-13
3.86335e-13
-3.06325e-15
-3.16048e-13
-8.49742e-13
-7.62237e-13
-2.59582e-14
1.46102e-13
5.89967e-13
3.73841e-13
2.00911e-13
2.51825e-13
-1.5583e-13
7.57984e-13
-1.33921e-13
9.0119e-13
-3.10173e-14
3.30511e-13
-1.63677e-13
-1.58362e-13
-2.44371e-13
-2.50239e-13
9.51018e-14
-2.23579e-14
-4.8992e-14
-2.92907e-13
1.8511e-13
-3.57093e-14
1.18962e-13
-2.23996e-13
3.2326e-13
-1.9237e-14
1.7939e-13
4.98494e-13
1.77597e-13
-2.38715e-13
1.52059e-13
3.55616e-13
-1.08107e-13
-3.29255e-13
9.03092e-14
-5.26641e-13
-7.41045e-14
3.03473e-13
-1.28991e-13
2.95132e-13
1.95376e-13
3.8402e-13
2.06368e-13
7.42299e-13
3.2565e-14
1.60374e-13
1.08493e-13
-7.79513e-13
1.78639e-13
-8.40579e-13
1.86142e-13
-5.37302e-13
1.2653e-13
-6.38673e-14
-4.51792e-13
-5.72401e-13
1.53096e-13
2.06511e-13
-3.75892e-13
-8.20433e-14
1.70701e-13
7.70074e-13
-3.61394e-13
3.62247e-13
3.94467e-14
8.20373e-13
5.33015e-13
2.09213e-13
-4.21995e-13
3.23031e-14
6.46385e-13
1.91642e-13
-5.04986e-13
-4.51624e-13
-5.98805e-13
3.11427e-13
6.43673e-13
5.97563e-13
1.99005e-13
-1.82937e-13
5.19384e-14
-1.63695e-13
7.31029e-13
9.52295e-14
2.99796e-13
-3.10403e-13
-7.04292e-13
-5.74406e-13
-8.06458e-13
-7.16563e-14
-5.08374e-13
3.54388e-13
1.11649e-13
3.31954e-13
-2.76899e-13
-2.00636e-13
-1.78779e-13
3.454e-13
1.42259e-13
-2.8283e-13
5.18319e-13
1.78094e-13
1.85741e-13
-5.27289e-13
4.43359e-13
4.83722e-13
2.49962e-13
-2.00238e-13
-4.4479e-13
5.56575e-14
3.04445e-13
4.57227e-13
-5.80893e-13
-3.68779e-13
-3.15889e-13
-4.93786e-13
5.86922e-13
4.12758e-14
3.24479e-13
3.3936e-13
3.10128e-14
1.74136e-13
-1.78135e-13
-1.11791e-13
-5.48982e-13
-6.59166e-14
-4.69882e-13
9.03776e-14
1.347e-13
-8.93966e-14
3.77955e-13
6.96335e-14
4.45704e-13
1.61776e-13
-5.09662e-14
-5.27963e-14
7.16617e-13
4.79986e-13
-4.98843e-13
-7.80199e-13
5.70042e-13
2.24549e-13
-7.15787e-13
-4.71789e-13
-1.40867e-13
7.07476e-13
6.313e-13
-4.77604e-13
-8.97261e-13
8.82183e-14
8.72729e-13
4.35413e-13
7.40494e-13
-6.74541e-13
-9.04624e-13
-4.68466e-13
-5.71249e-13
4.45427e-13
-4.55564e-14
5.41336e-13
-3.19479e-13
6.71034e-14
-4.05271e-14
-1.04593e-13
7.15386e-13
4.80526e-14
7.57441e-13
1.88242e-13
2.30097e-13
9.67471e-14
-8.28753e-14
1.2204e-13
5.25522e-13
4.49641e-13
3.03787e-13
-3.1077e-13
-2.99897e-13
5.281e-13
-6.78325e-13
-1.49956e-13
4.22466e-13
4.30931e-13
-7.76247e-13
-1.39516e-12
7.45835e-13
1.33387e-12
3.74086e-13
-5.97424e-13
-1.04341e-12
-4.89259e-13
6.72699e-13
9.83977e-13
3.26696e-13
2.50269e-13
-5.69478e-13
-4.81932e-13
-9.18012e-14
-6.74744e-13
3.92151e-13
-5.86474e-13
4.74e-13
1.10059e-13
5.62735e-13
8.29245e-13
3.95919e-13
7.35501e-13
1.42772e-14
3.30819e-13
-1.79724e-13
-1.75956e-13
-1.49894e-13
4.35717e-13
3.26728e-14
1.42559e-13
-8.70604e-13
-5.53108e-13
1.50301e-12
6.21587e-13
-1.27247e-12
-6.47258e-13
2.02276e-12
7.83199e-13
-1.93914e-12
-1.63325e-13
1.61114e-14
2.4929e-12
1.42188e-12
-5.945e-13
-8.73679e-13
-8.46621e-13
-1.59225e-13
2.82437e-13
6.84825e-13
-5.74912e-14
5.18315e-14
-3.12649e-13
-5.93661e-13
-1.08142e-15
-5.57605e-13
4.73949e-13
-1.07914e-13
7.01235e-13
3.23298e-13
4.22588e-13
4.17229e-13
-6.60128e-14
3.18343e-13
-3.11765e-13
-2.51113e-13
-4.20008e-13
-5.47896e-14
-6.98193e-13
-2.41902e-13
-1.92489e-13
-1.25637e-14
6.19342e-13
1.23099e-12
-5.09374e-13
-5.52619e-13
1.35288e-12
2.40616e-12
3.81954e-13
-2.811e-12
-3.24448e-12
-6.66013e-14
1.1795e-12
1.57029e-12
4.17998e-13
-7.06443e-13
-4.79163e-13
-4.1558e-13
3.51462e-13
-9.00936e-15
3.74788e-13
-2.93181e-13
-6.18652e-14
-2.64355e-13
-3.47167e-13
1.2411e-13
-4.20891e-13
4.10388e-13
-2.87718e-13
3.33396e-13
-7.06274e-14
4.52459e-14
1.38359e-13
-2.07269e-13
-2.21592e-13
-5.35613e-13
-4.89524e-13
-6.13831e-13
-1.74868e-13
9.77675e-13
6.969e-13
-1.67573e-12
3.94251e-13
2.3138e-12
6.09927e-13
-2.59666e-12
-6.56137e-13
4.4702e-12
-4.39116e-12
-1.80619e-12
2.1591e-12
-1.2395e-12
7.9281e-13
5.81904e-13
2.01621e-13
-9.44507e-14
-2.63863e-13
1.00108e-14
-1.2322e-13
3.73444e-13
-1.77453e-13
3.47601e-13
-2.53527e-13
-4.16943e-14
-1.91109e-13
-4.3133e-13
4.19925e-14
-5.73368e-13
2.14103e-13
-4.26475e-13
1.92193e-13
-1.27634e-15
6.82506e-14
-4.94896e-14
-1.12133e-12
-1.5071e-12
1.23054e-13
4.06665e-13
1.765e-12
1.05262e-12
-3.20175e-12
-1.15732e-12
4.08678e-12
9.14648e-13
-9.13724e-12
-7.03446e-12
1.07107e-11
4.97566e-13
-2.01308e-12
-1.04083e-11
-2.59988e-12
1.70893e-12
-1.25808e-13
8.50641e-13
1.70452e-13
1.40179e-13
1.18535e-13
1.08462e-13
3.74637e-13
1.39112e-13
4.27628e-13
-5.60132e-14
1.89376e-13
-3.01822e-13
-1.77892e-13
-2.46525e-13
-5.05997e-13
3.06389e-14
-4.61724e-13
2.25597e-13
-3.07348e-14
2.77821e-13
1.24515e-13
-2.20657e-13
-3.24715e-13
2.73838e-13
8.02403e-13
4.25188e-13
2.99857e-14
1.99893e-13
-1.51326e-12
-3.75606e-12
3.66554e-13
-1.41347e-11
3.04242e-10
2.89648e-11
4.60192e-10
1.15057e-11
-2.38801e-10
-2.50257e-12
-5.49286e-12
-4.46797e-13
3.24962e-13
4.53416e-13
6.97929e-13
3.41256e-14
5.14283e-13
-1.47307e-13
2.21676e-13
-4.34743e-14
-6.22842e-14
1.75542e-13
-2.90467e-13
1.8491e-13
-2.99381e-13
-9.3051e-14
-8.03859e-14
-1.93094e-13
1.6445e-13
-3.92886e-14
2.68589e-13
1.49816e-13
1.85658e-12
4.91835e-13
-2.55893e-12
2.70443e-12
-1.04427e-12
2.33317e-11
-4.18064e-11
-5.89053e-12
4.68119e-12
-1.32242e-14
-9.70584e-13
-9.06153e-13
-6.64901e-13
-2.4702e-13
3.11226e-13
5.81903e-13
3.62099e-13
6.29645e-14
-1.30179e-13
)
;

boundaryField
{
    sides
    {
        type            calculated;
        value           uniform 0;
    }
    inlet
    {
        type            calculated;
        value           uniform 0;
    }
    outlet
    {
        type            calculated;
        value           nonuniform List<scalar> 
20
(
-1.56038e-13
9.72335e-14
3.01112e-13
2.92635e-13
1.18446e-13
2.57483e-15
5.21535e-14
-1.02927e-13
-3.2352e-13
-4.73716e-13
-4.44579e-13
-2.98323e-13
-3.98519e-14
2.08036e-13
2.61737e-13
2.0715e-13
2.4659e-13
2.15859e-13
3.46877e-14
-1.99039e-13
)
;
    }
    frontAndBack
    {
        type            empty;
        value           nonuniform 0();
    }
}


// ************************************************************************* //
