/*--------------------------------*- C++ -*----------------------------------*\
  =========                 |
  \\      /  F ield         | OpenFOAM: The Open Source CFD Toolbox
   \\    /   O peration     | Website:  https://openfoam.org
    \\  /    A nd           | Version:  7
     \\/     M anipulation  |
\*---------------------------------------------------------------------------*/
FoamFile
{
    version     2.0;
    format      ascii;
    class       volVectorField;
    location    "99";
    object      hU_0;
}
// * * * * * * * * * * * * * * * * * * * * * * * * * * * * * * * * * * * * * //

dimensions      [0 2 -1 0 0 0 0];

internalField   nonuniform List<vector> 
400
(
(0.001 -8.70983e-09 0)
(0.000999999 -2.37598e-08 0)
(0.001 -3.60343e-08 0)
(0.001 -4.67519e-08 0)
(0.00100001 -5.69034e-08 0)
(0.00100001 -6.73369e-08 0)
(0.00100002 -7.80994e-08 0)
(0.00100003 -8.91331e-08 0)
(0.00100004 -9.99249e-08 0)
(0.00100006 -1.11919e-07 0)
(0.00100007 -1.22646e-07 0)
(0.0010001 -1.36154e-07 0)
(0.00100011 -1.46518e-07 0)
(0.00100015 -1.63341e-07 0)
(0.00100017 -1.72172e-07 0)
(0.00100024 -1.9631e-07 0)
(0.00100026 -2.00814e-07 0)
(0.00100038 -2.43049e-07 0)
(0.00100038 -2.39183e-07 0)
(0.00100061 -3.31848e-07 0)
(0.001 4.02303e-09 0)
(0.001 1.21045e-08 0)
(0.00100001 2.01869e-08 0)
(0.00100001 2.79161e-08 0)
(0.00100002 3.51611e-08 0)
(0.00100002 4.17317e-08 0)
(0.00100003 4.77098e-08 0)
(0.00100004 5.31556e-08 0)
(0.00100005 5.84099e-08 0)
(0.00100007 6.22944e-08 0)
(0.00100008 6.69584e-08 0)
(0.0010001 6.85707e-08 0)
(0.00100012 7.26829e-08 0)
(0.00100016 6.98718e-08 0)
(0.00100018 7.40222e-08 0)
(0.00100023 6.16685e-08 0)
(0.00100026 6.71544e-08 0)
(0.00100035 3.17564e-08 0)
(0.00100037 3.98504e-08 0)
(0.0010005 -5.45863e-08 0)
(0.001 -3.96282e-09 0)
(0.000999999 -1.30274e-08 0)
(0.001 -2.30718e-08 0)
(0.001 -3.36812e-08 0)
(0.00100001 -4.42273e-08 0)
(0.00100001 -5.50539e-08 0)
(0.00100002 -6.5628e-08 0)
(0.00100003 -7.73643e-08 0)
(0.00100004 -8.89029e-08 0)
(0.00100005 -1.02538e-07 0)
(0.00100006 -1.15268e-07 0)
(0.00100009 -1.32415e-07 0)
(0.0010001 -1.46501e-07 0)
(0.00100014 -1.70016e-07 0)
(0.00100016 -1.85127e-07 0)
(0.00100021 -2.21141e-07 0)
(0.00100023 -2.357e-07 0)
(0.00100031 -2.97603e-07 0)
(0.00100033 -3.06235e-07 0)
(0.00100046 -4.22173e-07 0)
(0.001 -1.80266e-10 0)
(0.001 -4.79256e-11 0)
(0.00100001 6.26306e-10 0)
(0.00100001 1.31817e-09 0)
(0.00100001 1.99603e-09 0)
(0.00100002 1.86819e-09 0)
(0.00100003 1.5307e-09 0)
(0.00100004 -4.10384e-10 0)
(0.00100004 -2.40441e-09 0)
(0.00100006 -7.06931e-09 0)
(0.00100007 -1.12226e-08 0)
(0.00100009 -2.04702e-08 0)
(0.00100011 -2.7161e-08 0)
(0.00100013 -4.42624e-08 0)
(0.00100016 -5.35399e-08 0)
(0.00100019 -8.49795e-08 0)
(0.00100022 -9.55038e-08 0)
(0.00100028 -1.54689e-07 0)
(0.0010003 -1.60992e-07 0)
(0.00100039 -2.7586e-07 0)
(0.001 -2.91997e-09 0)
(0.001 -9.23945e-09 0)
(0.001 -1.62949e-08 0)
(0.001 -2.43554e-08 0)
(0.00100001 -3.30431e-08 0)
(0.00100001 -4.27623e-08 0)
(0.00100002 -5.28778e-08 0)
(0.00100002 -6.45689e-08 0)
(0.00100003 -7.64631e-08 0)
(0.00100004 -9.12362e-08 0)
(0.00100005 -1.05612e-07 0)
(0.00100007 -1.25388e-07 0)
(0.00100009 -1.42722e-07 0)
(0.00100011 -1.70925e-07 0)
(0.00100013 -1.91224e-07 0)
(0.00100016 -2.34328e-07 0)
(0.00100018 -2.55799e-07 0)
(0.00100024 -3.26564e-07 0)
(0.00100025 -3.41558e-07 0)
(0.00100033 -4.64402e-07 0)
(0.001 -2.56615e-09 0)
(0.001 -7.54142e-09 0)
(0.001 -1.22227e-08 0)
(0.00100001 -1.69527e-08 0)
(0.00100001 -2.17395e-08 0)
(0.00100001 -2.7264e-08 0)
(0.00100002 -3.32285e-08 0)
(0.00100002 -4.08495e-08 0)
(0.00100003 -4.89239e-08 0)
(0.00100004 -6.01556e-08 0)
(0.00100005 -7.12778e-08 0)
(0.00100006 -8.82271e-08 0)
(0.00100008 -1.03179e-07 0)
(0.0010001 -1.29454e-07 0)
(0.00100011 -1.48337e-07 0)
(0.00100014 -1.90286e-07 0)
(0.00100016 -2.11024e-07 0)
(0.0010002 -2.80532e-07 0)
(0.00100021 -2.9459e-07 0)
(0.00100027 -4.14999e-07 0)
(0.001 -2.89186e-09 0)
(0.001 -8.88007e-09 0)
(0.001 -1.51886e-08 0)
(0.001 -2.22218e-08 0)
(0.00100001 -2.99524e-08 0)
(0.00100001 -3.89362e-08 0)
(0.00100001 -4.87262e-08 0)
(0.00100002 -6.04649e-08 0)
(0.00100002 -7.29048e-08 0)
(0.00100003 -8.8675e-08 0)
(0.00100004 -1.04497e-07 0)
(0.00100005 -1.26383e-07 0)
(0.00100006 -1.46327e-07 0)
(0.00100007 -1.77841e-07 0)
(0.00100009 -2.0183e-07 0)
(0.00100011 -2.49209e-07 0)
(0.00100012 -2.74735e-07 0)
(0.00100015 -3.49577e-07 0)
(0.00100016 -3.67297e-07 0)
(0.00100021 -4.92212e-07 0)
(0.001 -3.18737e-09 0)
(0.001 -9.76162e-09 0)
(0.001 -1.65737e-08 0)
(0.001 -2.39657e-08 0)
(0.001 -3.18033e-08 0)
(0.00100001 -4.06943e-08 0)
(0.00100001 -5.01688e-08 0)
(0.00100001 -6.15078e-08 0)
(0.00100002 -7.34933e-08 0)
(0.00100002 -8.88254e-08 0)
(0.00100003 -1.04334e-07 0)
(0.00100004 -1.25988e-07 0)
(0.00100004 -1.45884e-07 0)
(0.00100005 -1.77427e-07 0)
(0.00100006 -2.01718e-07 0)
(0.00100008 -2.49262e-07 0)
(0.00100009 -2.75272e-07 0)
(0.00100011 -3.49859e-07 0)
(0.00100012 -3.67719e-07 0)
(0.00100015 -4.90861e-07 0)
(0.001 -3.36412e-09 0)
(0.001 -1.02617e-08 0)
(0.001 -1.7351e-08 0)
(0.001 -2.50269e-08 0)
(0.001 -3.31666e-08 0)
(0.001 -4.24728e-08 0)
(0.00100001 -5.24998e-08 0)
(0.00100001 -6.46011e-08 0)
(0.00100001 -7.75023e-08 0)
(0.00100001 -9.39687e-08 0)
(0.00100002 -1.10763e-07 0)
(0.00100002 -1.33881e-07 0)
(0.00100003 -1.55332e-07 0)
(0.00100003 -1.8867e-07 0)
(0.00100004 -2.14678e-07 0)
(0.00100005 -2.64201e-07 0)
(0.00100005 -2.91794e-07 0)
(0.00100007 -3.68387e-07 0)
(0.00100007 -3.87278e-07 0)
(0.00100009 -5.12512e-07 0)
(0.001 -3.44785e-09 0)
(0.001 -1.04995e-08 0)
(0.001 -1.77423e-08 0)
(0.001 -2.55894e-08 0)
(0.001 -3.39541e-08 0)
(0.001 -4.35356e-08 0)
(0.001 -5.38998e-08 0)
(0.001 -6.63686e-08 0)
(0.001 -7.96593e-08 0)
(0.001 -9.65178e-08 0)
(0.00100001 -1.13709e-07 0)
(0.00100001 -1.37205e-07 0)
(0.00100001 -1.59072e-07 0)
(0.00100001 -1.92776e-07 0)
(0.00100001 -2.19203e-07 0)
(0.00100002 -2.69005e-07 0)
(0.00100002 -2.96996e-07 0)
(0.00100002 -3.73642e-07 0)
(0.00100002 -3.92821e-07 0)
(0.00100003 -5.17485e-07 0)
(0.001 -3.45245e-09 0)
(0.001 -1.04971e-08 0)
(0.001 -1.77481e-08 0)
(0.000999999 -2.55861e-08 0)
(0.000999999 -3.39538e-08 0)
(0.000999999 -4.35294e-08 0)
(0.000999998 -5.39035e-08 0)
(0.000999997 -6.63624e-08 0)
(0.000999996 -7.96609e-08 0)
(0.000999995 -9.65161e-08 0)
(0.000999994 -1.13699e-07 0)
(0.000999993 -1.3721e-07 0)
(0.000999991 -1.59084e-07 0)
(0.000999989 -1.92779e-07 0)
(0.000999987 -2.19205e-07 0)
(0.000999984 -2.6901e-07 0)
(0.000999982 -2.96994e-07 0)
(0.000999978 -3.7362e-07 0)
(0.000999977 -3.9279e-07 0)
(0.00099997 -5.17467e-07 0)
(0.001 -3.3752e-09 0)
(0.001 -1.02614e-08 0)
(0.000999999 -1.736e-08 0)
(0.000999998 -2.50112e-08 0)
(0.000999997 -3.31644e-08 0)
(0.000999996 -4.24587e-08 0)
(0.000999994 -5.25095e-08 0)
(0.000999992 -6.45929e-08 0)
(0.000999989 -7.75033e-08 0)
(0.000999986 -9.39704e-08 0)
(0.000999983 -1.10743e-07 0)
(0.000999978 -1.33878e-07 0)
(0.000999973 -1.55349e-07 0)
(0.000999967 -1.88676e-07 0)
(0.000999961 -2.1468e-07 0)
(0.000999952 -2.64194e-07 0)
(0.000999946 -2.91775e-07 0)
(0.000999934 -3.68318e-07 0)
(0.00099993 -3.87189e-07 0)
(0.000999911 -5.12424e-07 0)
(0.001 -3.20058e-09 0)
(0.001 -9.76901e-09 0)
(0.000999999 -1.65671e-08 0)
(0.000999997 -2.39465e-08 0)
(0.000999996 -3.17996e-08 0)
(0.000999993 -4.06873e-08 0)
(0.000999991 -5.01776e-08 0)
(0.000999987 -6.15177e-08 0)
(0.000999983 -7.34895e-08 0)
(0.000999977 -8.88375e-08 0)
(0.000999971 -1.04336e-07 0)
(0.000999964 -1.25978e-07 0)
(0.000999956 -1.4589e-07 0)
(0.000999945 -1.77445e-07 0)
(0.000999936 -2.01736e-07 0)
(0.000999921 -2.49271e-07 0)
(0.000999911 -2.7528e-07 0)
(0.000999889 -3.49836e-07 0)
(0.000999882 -3.67679e-07 0)
(0.000999852 -4.90826e-07 0)
(0.001 -2.89945e-09 0)
(0.000999999 -8.8845e-09 0)
(0.000999998 -1.51721e-08 0)
(0.000999996 -2.22266e-08 0)
(0.000999994 -2.99425e-08 0)
(0.000999991 -3.89475e-08 0)
(0.000999987 -4.87156e-08 0)
(0.000999982 -6.04874e-08 0)
(0.000999977 -7.28941e-08 0)
(0.000999969 -8.86621e-08 0)
(0.000999962 -1.04503e-07 0)
(0.000999951 -1.2636e-07 0)
(0.000999941 -1.46296e-07 0)
(0.000999925 -1.7781e-07 0)
(0.000999913 -2.01806e-07 0)
(0.000999891 -2.49166e-07 0)
(0.000999878 -2.74705e-07 0)
(0.000999847 -3.49505e-07 0)
(0.000999839 -3.67222e-07 0)
(0.000999792 -4.92069e-07 0)
(0.001 -2.55944e-09 0)
(0.000999999 -7.53726e-09 0)
(0.000999997 -1.22246e-08 0)
(0.000999995 -1.69818e-08 0)
(0.000999991 -2.1737e-08 0)
(0.000999987 -2.72979e-08 0)
(0.000999982 -3.32096e-08 0)
(0.000999975 -4.08696e-08 0)
(0.000999968 -4.89527e-08 0)
(0.000999959 -6.01509e-08 0)
(0.000999949 -7.12932e-08 0)
(0.000999935 -8.82408e-08 0)
(0.000999922 -1.0318e-07 0)
(0.000999903 -1.29447e-07 0)
(0.000999886 -1.48343e-07 0)
(0.000999859 -1.90295e-07 0)
(0.000999841 -2.11053e-07 0)
(0.000999802 -2.80557e-07 0)
(0.000999787 -2.94628e-07 0)
(0.000999731 -4.14998e-07 0)
(0.001 -2.88641e-09 0)
(0.001 -9.22901e-09 0)
(0.000999999 -1.632e-08 0)
(0.000999997 -2.4373e-08 0)
(0.000999994 -3.30519e-08 0)
(0.00099999 -4.27509e-08 0)
(0.000999984 -5.2844e-08 0)
(0.000999977 -6.45124e-08 0)
(0.000999969 -7.64765e-08 0)
(0.000999958 -9.12303e-08 0)
(0.000999946 -1.05599e-07 0)
(0.00099993 -1.25375e-07 0)
(0.000999915 -1.42706e-07 0)
(0.000999891 -1.70883e-07 0)
(0.000999872 -1.91195e-07 0)
(0.000999837 -2.34276e-07 0)
(0.000999817 -2.55772e-07 0)
(0.000999764 -3.26497e-07 0)
(0.000999752 -3.41528e-07 0)
(0.00099967 -4.64261e-07 0)
(0.001 -1.31075e-10 0)
(0.000999998 -4.47183e-11 0)
(0.000999995 5.72893e-10 0)
(0.000999991 1.30036e-09 0)
(0.000999986 1.97749e-09 0)
(0.00099998 1.93527e-09 0)
(0.000999973 1.49773e-09 0)
(0.000999965 -3.20598e-10 0)
(0.000999955 -2.40729e-09 0)
(0.000999943 -7.09447e-09 0)
(0.00099993 -1.12282e-08 0)
(0.000999912 -2.04707e-08 0)
(0.000999894 -2.71628e-08 0)
(0.000999867 -4.42484e-08 0)
(0.000999845 -5.35314e-08 0)
(0.000999805 -8.49549e-08 0)
(0.000999779 -9.54882e-08 0)
(0.00099972 -1.54656e-07 0)
(0.000999699 -1.60981e-07 0)
(0.000999611 -2.75809e-07 0)
(0.001 -3.97965e-09 0)
(0.001 -1.3029e-08 0)
(0.001 -2.30642e-08 0)
(0.000999998 -3.36616e-08 0)
(0.000999995 -4.42102e-08 0)
(0.000999989 -5.49745e-08 0)
(0.000999983 -6.57451e-08 0)
(0.000999973 -7.73126e-08 0)
(0.000999963 -8.88708e-08 0)
(0.00099995 -1.02532e-07 0)
(0.000999936 -1.15266e-07 0)
(0.000999914 -1.3241e-07 0)
(0.000999896 -1.46515e-07 0)
(0.000999864 -1.70018e-07 0)
(0.000999841 -1.85141e-07 0)
(0.000999791 -2.21118e-07 0)
(0.000999767 -2.35701e-07 0)
(0.000999687 -2.97552e-07 0)
(0.000999671 -3.06229e-07 0)
(0.000999539 -4.22093e-07 0)
(0.001 3.93853e-09 0)
(0.000999996 1.20922e-08 0)
(0.000999991 2.02791e-08 0)
(0.000999987 2.79695e-08 0)
(0.000999982 3.51511e-08 0)
(0.000999976 4.15707e-08 0)
(0.000999969 4.77732e-08 0)
(0.000999959 5.29264e-08 0)
(0.000999948 5.84325e-08 0)
(0.000999934 6.23183e-08 0)
(0.000999919 6.69504e-08 0)
(0.000999897 6.85611e-08 0)
(0.000999878 7.26644e-08 0)
(0.000999845 6.98743e-08 0)
(0.000999819 7.40311e-08 0)
(0.000999767 6.17204e-08 0)
(0.000999738 6.7198e-08 0)
(0.000999654 3.18517e-08 0)
(0.000999629 3.99211e-08 0)
(0.000999495 -5.44546e-08 0)
(0.001 -8.75274e-09 0)
(0.001 -2.37708e-08 0)
(0.001 -3.59827e-08 0)
(0.000999997 -4.67324e-08 0)
(0.000999993 -5.69444e-08 0)
(0.000999986 -6.75444e-08 0)
(0.000999978 -7.79821e-08 0)
(0.000999968 -8.9392e-08 0)
(0.000999958 -9.99661e-08 0)
(0.000999942 -1.11952e-07 0)
(0.000999928 -1.22707e-07 0)
(0.000999903 -1.36217e-07 0)
(0.000999886 -1.46584e-07 0)
(0.000999846 -1.63398e-07 0)
(0.000999826 -1.72227e-07 0)
(0.00099976 -1.96358e-07 0)
(0.000999742 -2.00869e-07 0)
(0.000999623 -2.43112e-07 0)
(0.000999618 -2.39254e-07 0)
(0.000999394 -3.31973e-07 0)
)
;

boundaryField
{
    sides
    {
        type            slip;
    }
    inlet
    {
        type            fixedValue;
        value           uniform (0.001 0 0);
    }
    outlet
    {
        type            zeroGradient;
    }
    frontAndBack
    {
        type            empty;
    }
}


// ************************************************************************* //
