/*--------------------------------*- C++ -*----------------------------------*\
  =========                 |
  \\      /  F ield         | OpenFOAM: The Open Source CFD Toolbox
   \\    /   O peration     | Website:  https://openfoam.org
    \\  /    A nd           | Version:  7
     \\/     M anipulation  |
\*---------------------------------------------------------------------------*/
FoamFile
{
    version     2.0;
    format      ascii;
    class       surfaceScalarField;
    location    "99";
    object      phi;
}
// * * * * * * * * * * * * * * * * * * * * * * * * * * * * * * * * * * * * * //

dimensions      [0 4 -1 0 0 0 0];

internalField   nonuniform List<scalar> 
760
(
4.99999e-06
1.01572e-11
4.99999e-06
-4.40609e-12
5.00001e-06
-1.29832e-11
5.00003e-06
-1.94627e-11
5.00005e-06
-2.64453e-11
5.00009e-06
-2.91144e-11
5.00013e-06
-4.8154e-11
5.00018e-06
-4.71143e-11
5.00025e-06
-6.23178e-11
5.00032e-06
-7.81292e-11
5.00041e-06
-9.01016e-11
5.00053e-06
-1.13973e-10
5.00066e-06
-1.26871e-10
5.00082e-06
-1.67795e-10
5.001e-06
-1.78034e-10
5.00126e-06
-2.5686e-10
5.00151e-06
-2.56226e-10
5.00195e-06
-4.31815e-10
5.00236e-06
-4.14217e-10
-8.91636e-10
5.00002e-06
-1.16686e-11
5.00004e-06
-1.89827e-11
5.00005e-06
-2.94067e-11
5.00008e-06
-4.18462e-11
5.0001e-06
-5.43973e-11
5.00014e-06
-6.87669e-11
5.00018e-06
-8.48167e-11
5.00023e-06
-1.0399e-10
5.00029e-06
-1.23574e-10
5.00037e-06
-1.5326e-10
5.00045e-06
-1.77074e-10
5.00056e-06
-2.22061e-10
5.00069e-06
-2.50274e-10
5.00084e-06
-3.24078e-10
5.00102e-06
-3.53871e-10
5.00125e-06
-4.86116e-10
5.0015e-06
-5.09322e-10
5.00184e-06
-7.68039e-10
5.00218e-06
-7.60055e-10
-1.26207e-09
4.99999e-06
-4.62816e-12
4.99999e-06
-2.03318e-11
5e-06
-3.76359e-11
5.00002e-06
-5.66965e-11
5.00004e-06
-7.66153e-11
5.00007e-06
-9.909e-11
5.00011e-06
-1.22773e-10
5.00016e-06
-1.52267e-10
5.00021e-06
-1.82697e-10
5.00029e-06
-2.2391e-10
5.00037e-06
-2.62357e-10
5.00047e-06
-3.23268e-10
5.00059e-06
-3.71847e-10
5.00074e-06
-4.67403e-10
5.00091e-06
-5.25661e-10
5.00111e-06
-6.86777e-10
5.00135e-06
-7.48052e-10
5.00162e-06
-1.0413e-09
5.00194e-06
-1.08335e-09
-1.68961e-09
5.00001e-06
-1.27109e-11
5.00002e-06
-3.32995e-11
5.00004e-06
-5.42748e-11
5.00006e-06
-7.75661e-11
5.00008e-06
-1.0193e-10
5.00012e-06
-1.30682e-10
5.00015e-06
-1.60219e-10
5.0002e-06
-1.98124e-10
5.00025e-06
-2.36473e-10
5.00032e-06
-2.88883e-10
5.00039e-06
-3.38384e-10
5.00049e-06
-4.15227e-10
5.00059e-06
-4.78195e-10
5.00072e-06
-5.96255e-10
5.00087e-06
-6.7268e-10
5.00105e-06
-8.65084e-10
5.00124e-06
-9.47034e-10
5.00148e-06
-1.28011e-09
5.00173e-06
-1.33156e-09
-1.89809e-09
5e-06
-1.17155e-11
5e-06
-3.64457e-11
5.00001e-06
-6.19423e-11
5.00002e-06
-9.0042e-11
5.00004e-06
-1.19885e-10
5.00006e-06
-1.54639e-10
5.0001e-06
-1.91476e-10
5.00013e-06
-2.36727e-10
5.00018e-06
-2.83726e-10
5.00024e-06
-3.45533e-10
5.00031e-06
-4.0674e-10
5.00039e-06
-4.95506e-10
5.00048e-06
-5.73948e-10
5.00059e-06
-7.07034e-10
5.00072e-06
-8.03363e-10
5.00087e-06
-1.01255e-09
5.00104e-06
-1.11661e-09
5.00122e-06
-1.46168e-09
5.00142e-06
-1.53298e-09
-2.16292e-09
5e-06
-1.3917e-11
5.00001e-06
-4.31372e-11
5.00002e-06
-7.28191e-11
5.00003e-06
-1.04868e-10
5.00005e-06
-1.38868e-10
5.00008e-06
-1.77962e-10
5.00011e-06
-2.19995e-10
5.00014e-06
-2.7111e-10
5.00018e-06
-3.24641e-10
5.00023e-06
-3.94647e-10
5.00029e-06
-4.64219e-10
5.00036e-06
-5.63658e-10
5.00043e-06
-6.52805e-10
5.00053e-06
-7.99745e-10
5.00063e-06
-9.08491e-10
5.00075e-06
-1.13437e-09
5.00089e-06
-1.25123e-09
5.00104e-06
-1.61604e-09
5.00121e-06
-1.69754e-09
-2.29368e-09
5e-06
-1.56431e-11
5.00001e-06
-4.75532e-11
5.00001e-06
-8.01696e-11
5.00002e-06
-1.14921e-10
5.00004e-06
-1.52194e-10
5.00005e-06
-1.95023e-10
5.00008e-06
-2.41401e-10
5.0001e-06
-2.97284e-10
5.00013e-06
-3.5662e-10
5.00017e-06
-4.32821e-10
5.00022e-06
-5.09651e-10
5.00027e-06
-6.16996e-10
5.00033e-06
-7.1544e-10
5.00041e-06
-8.71792e-10
5.00049e-06
-9.91525e-10
5.00058e-06
-1.22756e-09
5.00069e-06
-1.35561e-09
5.0008e-06
-1.72676e-09
5.00091e-06
-1.81256e-09
-2.44233e-09
5e-06
-1.66671e-11
5e-06
-5.05548e-11
5.00001e-06
-8.51814e-11
5.00002e-06
-1.22518e-10
5.00003e-06
-1.62372e-10
5.00004e-06
-2.08169e-10
5.00006e-06
-2.57664e-10
5.00008e-06
-3.17174e-10
5.0001e-06
-3.80529e-10
5.00013e-06
-4.61213e-10
5.00016e-06
-5.43121e-10
5.0002e-06
-6.56286e-10
5.00025e-06
-7.60777e-10
5.0003e-06
-9.2408e-10
5.00036e-06
-1.05066e-09
5.00042e-06
-1.2942e-09
5.0005e-06
-1.42863e-09
5.00058e-06
-1.80755e-09
5.00067e-06
-1.90094e-09
-2.51647e-09
5e-06
-1.72475e-11
5e-06
-5.24248e-11
5.00001e-06
-8.83075e-11
5.00001e-06
-1.27255e-10
5.00002e-06
-1.68729e-10
5.00002e-06
-2.16268e-10
5.00003e-06
-2.67568e-10
5.00005e-06
-3.29214e-10
5.00006e-06
-3.94912e-10
5.00008e-06
-4.78271e-10
5.0001e-06
-5.63262e-10
5.00012e-06
-6.79784e-10
5.00015e-06
-7.87926e-10
5.00018e-06
-9.55297e-10
5.00022e-06
-1.08611e-09
5.00026e-06
-1.33392e-09
5.0003e-06
-1.47239e-09
5.00035e-06
-1.85465e-09
5.00039e-06
-1.94828e-09
-2.57243e-09
5e-06
-1.74986e-11
5e-06
-5.30626e-11
5e-06
-8.94213e-11
5e-06
-1.28816e-10
5.00001e-06
-1.70841e-10
5.00001e-06
-2.18904e-10
5.00001e-06
-2.70853e-10
5.00002e-06
-3.33202e-10
5.00002e-06
-3.99687e-10
5.00003e-06
-4.83973e-10
5.00003e-06
-5.69948e-10
5.00004e-06
-6.87588e-10
5.00005e-06
-7.97059e-10
5.00006e-06
-9.65745e-10
5.00007e-06
-1.09801e-09
5.00009e-06
-1.34716e-09
5.0001e-06
-1.48696e-09
5.00011e-06
-1.8699e-09
5.00013e-06
-1.96533e-09
-2.58864e-09
5e-06
-1.73681e-11
5e-06
-5.24332e-11
5e-06
-8.83574e-11
5e-06
-1.27148e-10
4.99999e-06
-1.68674e-10
4.99999e-06
-2.1614e-10
4.99999e-06
-2.67545e-10
4.99998e-06
-3.29204e-10
4.99998e-06
-3.9488e-10
4.99997e-06
-4.78311e-10
4.99997e-06
-5.63181e-10
4.99996e-06
-6.79704e-10
4.99995e-06
-7.87999e-10
4.99994e-06
-9.55361e-10
4.99993e-06
-1.08616e-09
4.99991e-06
-1.33402e-09
4.9999e-06
-1.47247e-09
4.99988e-06
-1.85449e-09
4.99987e-06
-1.94801e-09
-2.57217e-09
5e-06
-1.67688e-11
5e-06
-5.06344e-11
4.99999e-06
-8.51656e-11
4.99999e-06
-1.22413e-10
4.99998e-06
-1.62307e-10
4.99998e-06
-2.08097e-10
4.99997e-06
-2.57646e-10
4.99995e-06
-3.17242e-10
4.99994e-06
-3.80509e-10
4.99992e-06
-4.61264e-10
4.9999e-06
-5.43124e-10
4.99988e-06
-6.56189e-10
4.99985e-06
-7.60744e-10
4.99982e-06
-9.24095e-10
4.99978e-06
-1.05074e-09
4.99974e-06
-1.29431e-09
4.9997e-06
-1.42868e-09
4.99965e-06
-1.80729e-09
4.99961e-06
-1.90055e-09
-2.51613e-09
5e-06
-1.56754e-11
5e-06
-4.75828e-11
4.99999e-06
-8.00809e-11
4.99998e-06
-1.15003e-10
4.99997e-06
-1.52166e-10
4.99996e-06
-1.95122e-10
4.99994e-06
-2.4135e-10
4.99992e-06
-2.97381e-10
4.9999e-06
-3.56647e-10
4.99987e-06
-4.32766e-10
4.99984e-06
-5.09725e-10
4.9998e-06
-6.17014e-10
4.99975e-06
-7.15352e-10
4.9997e-06
-8.71687e-10
4.99964e-06
-9.91517e-10
4.99958e-06
-1.22753e-09
4.9995e-06
-1.3556e-09
4.99942e-06
-1.72655e-09
4.99933e-06
-1.81232e-09
-2.44192e-09
5e-06
-1.38261e-11
4.99999e-06
-4.30719e-11
4.99999e-06
-7.28698e-11
4.99998e-06
-1.05019e-10
4.99996e-06
-1.38892e-10
4.99995e-06
-1.78119e-10
4.99992e-06
-2.19915e-10
4.9999e-06
-2.71056e-10
4.99987e-06
-3.24781e-10
4.99983e-06
-3.94563e-10
4.99978e-06
-4.64176e-10
4.99973e-06
-5.63679e-10
4.99967e-06
-6.52762e-10
4.99959e-06
-7.99601e-10
4.99951e-06
-9.08359e-10
4.99942e-06
-1.13419e-09
4.99931e-06
-1.25116e-09
4.9992e-06
-1.61591e-09
4.99909e-06
-1.69746e-09
-2.29332e-09
5e-06
-1.1545e-11
4.99999e-06
-3.63852e-11
4.99998e-06
-6.20974e-11
4.99997e-06
-9.00972e-11
4.99995e-06
-1.2006e-10
4.99992e-06
-1.54523e-10
4.99989e-06
-1.91427e-10
4.99986e-06
-2.36363e-10
4.99982e-06
-2.83763e-10
4.99977e-06
-3.45632e-10
4.99971e-06
-4.06721e-10
4.99964e-06
-4.95491e-10
4.99957e-06
-5.73966e-10
4.99947e-06
-7.06947e-10
4.99937e-06
-8.03247e-10
4.99925e-06
-1.01233e-09
4.99911e-06
-1.11654e-09
4.99896e-06
-1.46158e-09
4.99879e-06
-1.53304e-09
-2.16259e-09
5e-06
-1.25613e-11
5e-06
-3.33038e-11
4.99999e-06
-5.43835e-11
4.99998e-06
-7.75046e-11
4.99996e-06
-1.01975e-10
4.99994e-06
-1.30249e-10
4.9999e-06
-1.60513e-10
4.99987e-06
-1.97912e-10
4.99982e-06
-2.36231e-10
4.99976e-06
-2.88936e-10
4.99969e-06
-3.38426e-10
4.99961e-06
-4.15195e-10
4.99952e-06
-4.7821e-10
4.99941e-06
-5.96191e-10
4.99928e-06
-6.72608e-10
4.99913e-06
-8.64854e-10
4.99896e-06
-9.469e-10
4.99878e-06
-1.27988e-09
4.99858e-06
-1.33152e-09
-1.89766e-09
4.99999e-06
-4.66182e-12
4.99998e-06
-2.03859e-11
4.99996e-06
-3.75707e-11
4.99994e-06
-5.65951e-11
4.99992e-06
-7.64437e-11
4.99988e-06
-9.92064e-11
4.99985e-06
-1.23368e-10
4.9998e-06
-1.52471e-10
4.99975e-06
-1.82517e-10
4.99968e-06
-2.23894e-10
4.99961e-06
-2.62435e-10
4.99952e-06
-3.233e-10
4.99941e-06
-3.71908e-10
4.99928e-06
-4.67409e-10
4.99913e-06
-5.25708e-10
4.99895e-06
-6.86658e-10
4.99876e-06
-7.47975e-10
4.99852e-06
-1.04104e-09
4.99827e-06
-1.08326e-09
-1.68924e-09
5.00001e-06
-1.19602e-11
5.00001e-06
-1.89673e-11
5e-06
-2.90594e-11
4.99998e-06
-4.17405e-11
4.99996e-06
-5.4262e-11
4.99993e-06
-6.97688e-11
4.99989e-06
-8.39356e-11
4.99984e-06
-1.05666e-10
4.99978e-06
-1.23681e-10
4.99971e-06
-1.5315e-10
4.99963e-06
-1.7706e-10
4.99953e-06
-2.22026e-10
4.99941e-06
-2.50293e-10
4.99926e-06
-3.24051e-10
4.99909e-06
-3.53952e-10
4.99889e-06
-4.86018e-10
4.99865e-06
-5.09272e-10
4.99838e-06
-7.67663e-10
4.99805e-06
-7.59826e-10
-1.26153e-09
4.99998e-06
9.8405e-12
4.99996e-06
-4.29839e-12
4.99995e-06
-1.27215e-11
4.99993e-06
-1.9608e-11
4.9999e-06
-2.67762e-11
4.99986e-06
-3.51367e-11
4.99982e-06
-3.41895e-11
4.99977e-06
-5.29546e-11
4.99971e-06
-6.26322e-11
4.99963e-06
-7.814e-11
4.99955e-06
-9.01129e-11
4.99944e-06
-1.1403e-10
4.99932e-06
-1.26997e-10
4.99916e-06
-1.67922e-10
4.99898e-06
-1.78206e-10
4.99875e-06
-2.56946e-10
4.9985e-06
-2.56302e-10
4.99817e-06
-4.31725e-10
4.99782e-06
-4.14169e-10
-8.91581e-10
5.00001e-06
5.00001e-06
4.99999e-06
4.99997e-06
4.99995e-06
4.99991e-06
4.99987e-06
4.99982e-06
4.99975e-06
4.99968e-06
4.99959e-06
4.99947e-06
4.99934e-06
4.99918e-06
4.999e-06
4.99874e-06
4.99848e-06
4.99805e-06
4.99764e-06
)
;

boundaryField
{
    sides
    {
        type            calculated;
        value           uniform 0;
    }
    inlet
    {
        type            calculated;
        value           nonuniform List<scalar> 
20
(
-5e-06
-5e-06
-5e-06
-5e-06
-5e-06
-5e-06
-5e-06
-5e-06
-5e-06
-5e-06
-5e-06
-5e-06
-5e-06
-5e-06
-5e-06
-5e-06
-5e-06
-5e-06
-5e-06
-5e-06
)
;
    }
    outlet
    {
        type            calculated;
        value           nonuniform List<scalar> 
20
(
5.00325e-06
5.00255e-06
5.00237e-06
5.00194e-06
5.00169e-06
5.00134e-06
5.00106e-06
5.00074e-06
5.00045e-06
5.00015e-06
4.99985e-06
4.99955e-06
4.99926e-06
4.99894e-06
4.99866e-06
4.99831e-06
4.99806e-06
4.99763e-06
4.99745e-06
4.99675e-06
)
;
    }
    frontAndBack
    {
        type            empty;
        value           nonuniform 0();
    }
}


// ************************************************************************* //
