/*--------------------------------*- C++ -*----------------------------------*\
  =========                 |
  \\      /  F ield         | OpenFOAM: The Open Source CFD Toolbox
   \\    /   O peration     | Website:  https://openfoam.org
    \\  /    A nd           | Version:  7
     \\/     M anipulation  |
\*---------------------------------------------------------------------------*/
FoamFile
{
    version     2.0;
    format      ascii;
    class       surfaceScalarField;
    location    "25";
    object      ddtCorrDdt0(phi);
}
// * * * * * * * * * * * * * * * * * * * * * * * * * * * * * * * * * * * * * //

dimensions      [0 4 -2 0 0 0 0];

internalField   nonuniform List<scalar> 
760
(
-9.73253e-12
-8.56187e-12
-1.57485e-11
-1.33462e-11
-2.23618e-11
-1.70222e-11
-2.79563e-11
6.4522e-11
-2.63685e-11
-5.47922e-11
-1.77923e-11
4.64693e-11
-7.71826e-12
-4.98754e-11
6.94994e-12
9.07238e-11
1.94804e-11
-8.98126e-12
1.64573e-11
-9.61163e-12
7.83083e-13
3.97932e-12
-1.90402e-11
1.2648e-11
-3.6683e-11
1.58518e-11
-4.2017e-11
8.99936e-12
-3.44634e-11
-4.25405e-13
-1.50588e-11
-1.16684e-11
1.39365e-11
-2.12666e-11
3.93193e-11
-1.80254e-11
6.96654e-11
-2.50092e-11
-1.11147e-11
-9.41974e-12
-1.46091e-11
-2.148e-11
-2.04278e-11
-3.88046e-11
-1.9957e-11
-4.29444e-11
-3.00119e-11
-3.52681e-11
-4.66275e-11
-2.29066e-11
-6.48485e-11
5.09493e-12
-6.73694e-11
2.86382e-11
-6.27808e-11
4.02615e-11
-4.03928e-11
3.64666e-11
-1.2412e-11
1.5817e-11
1.78408e-11
-1.18886e-11
3.74052e-11
-3.786e-11
4.37447e-11
-4.85475e-11
2.52589e-11
-4.31414e-11
1.3723e-12
-2.27737e-11
-2.50221e-11
9.7241e-12
-4.74921e-11
3.71193e-11
-4.02364e-11
6.98007e-11
-5.41515e-11
-2.27477e-11
-1.36751e-11
-4.04654e-11
-2.27045e-11
-3.28147e-11
-2.14284e-11
-3.45092e-11
-2.17366e-11
-4.66409e-11
-2.15113e-11
-6.44557e-11
-1.12739e-11
-8.00487e-11
-1.82667e-12
-8.99827e-11
2.89454e-12
-8.26418e-11
1.36226e-12
-5.79458e-11
-1.8986e-12
-1.94323e-11
-8.42683e-12
2.2701e-11
-1.82039e-11
4.9746e-11
-2.7765e-11
5.77151e-11
-2.98972e-11
3.25709e-11
-2.32156e-11
7.36244e-13
-7.09904e-12
-3.50704e-11
1.57134e-11
-6.60976e-11
3.49467e-11
-5.7447e-11
5.88045e-11
-7.69352e-11
-3.25716e-11
-1.1102e-11
-1.68779e-11
-2.55717e-11
-2.91509e-11
-3.51997e-11
-3.13076e-11
-4.10772e-11
-4.79476e-11
-3.74557e-11
-7.87231e-11
-1.7698e-11
-1.00807e-10
7.68249e-12
-1.16478e-10
2.65779e-11
-1.13939e-10
3.53931e-11
-8.02594e-11
3.30268e-11
-1.87334e-11
1.65058e-11
4.58642e-11
-9.60225e-12
8.37482e-11
-3.60653e-11
9.11338e-11
-4.85195e-11
5.09538e-11
-4.47372e-11
2.45047e-12
-2.47424e-11
-4.98275e-11
6.54046e-12
-9.37026e-11
3.23678e-11
-8.20001e-11
6.28068e-11
-1.07863e-10
-4.55237e-11
-1.29215e-11
-1.34597e-11
-1.79241e-11
-2.55754e-11
-1.6186e-11
-3.1763e-11
-1.81268e-11
-4.93199e-11
-1.38067e-11
-7.89749e-11
-1.33031e-11
-1.07716e-10
-1.26144e-11
-1.21335e-10
-9.32002e-12
-1.14238e-10
-5.75269e-12
-7.9445e-11
-9.76277e-13
-1.79363e-11
6.85919e-13
5.06208e-11
-4.25046e-12
9.31003e-11
-1.30305e-11
1.03652e-10
-1.74966e-11
6.04058e-11
-1.56796e-11
5.79433e-12
-6.45436e-12
-5.43499e-11
1.00244e-11
-1.05937e-10
2.39273e-11
-9.33878e-11
4.14605e-11
-1.25403e-10
-5.38142e-11
-1.36499e-11
-5.04088e-12
-2.2475e-11
-1.17723e-11
-2.75445e-11
-2.12095e-11
-3.57516e-11
-5.00189e-11
-2.73671e-11
-7.78721e-11
-1.32229e-11
-1.16399e-10
1.30652e-12
-1.44169e-10
2.3196e-11
-1.29969e-10
3.66943e-11
-7.8872e-11
3.14666e-11
-2.74597e-12
1.19054e-11
7.47322e-11
-1.25736e-11
1.18249e-10
-3.38417e-11
1.24329e-10
-4.17813e-11
6.95799e-11
-3.66222e-11
3.77013e-12
-1.93293e-11
-6.7719e-11
6.00297e-12
-1.27085e-10
2.78332e-11
-1.11295e-10
5.23986e-11
-1.46337e-10
-6.18804e-11
-7.77399e-12
4.90734e-12
-1.26079e-11
-5.8596e-12
-1.86481e-11
-2.48347e-11
-8.82814e-12
-4.03905e-11
-1.36502e-11
-7.84689e-11
-1.42935e-11
-1.12769e-10
-7.14597e-12
-1.33399e-10
-1.47277e-12
-1.23479e-10
3.74708e-12
-7.90168e-11
7.52266e-12
-4.44434e-12
5.96476e-12
7.73018e-11
-3.62837e-14
1.25236e-10
-8.03196e-12
1.32851e-10
-1.33491e-11
7.47511e-11
-1.40454e-11
4.85499e-12
-8.49518e-12
-7.13635e-11
3.098e-12
-1.3559e-10
1.36345e-11
-1.17818e-10
2.87636e-11
-1.56738e-10
-6.65116e-11
-4.16769e-12
1.07342e-11
-1.24096e-11
2.00357e-12
-1.41692e-11
-1.63634e-11
-2.04313e-11
-4.63294e-11
-1.47743e-11
-7.64398e-11
-8.41573e-12
-1.19212e-10
3.56482e-12
-1.44937e-10
1.30946e-11
-1.32318e-10
1.68887e-11
-8.10856e-11
1.32512e-11
1.13238e-12
2.73108e-12
8.87868e-11
-8.50018e-12
1.39411e-10
-1.64531e-11
1.46124e-10
-1.97331e-11
8.11331e-11
-1.91577e-11
3.98233e-12
-1.21781e-11
-7.85412e-11
9.74775e-13
-1.46469e-10
1.42431e-11
-1.26863e-10
3.06947e-11
-1.68693e-10
-7.15191e-11
-2.18334e-12
1.52025e-11
-5.60447e-12
4.88516e-12
-1.24905e-11
-2.31236e-11
-5.36322e-12
-4.38091e-11
-7.54654e-12
-7.9125e-11
-2.79234e-12
-1.18662e-10
2.13953e-12
-1.46883e-10
1.38579e-12
-1.36617e-10
2.69356e-12
-8.39253e-11
3.03802e-12
1.20972e-12
-1.38107e-12
9.18318e-11
-5.73855e-12
1.4494e-10
-6.39559e-12
1.53104e-10
-4.89751e-12
8.6006e-11
-3.82339e-12
4.55882e-12
-2.11026e-12
-8.21259e-11
2.37858e-12
-1.52246e-10
7.20525e-12
-1.29697e-10
1.41336e-11
-1.71168e-10
-7.28047e-11
-6.98539e-13
1.43672e-11
-2.74349e-12
5.24316e-12
-2.41579e-12
-2.00251e-11
-2.56225e-12
-4.55474e-11
-3.21052e-12
-7.97154e-11
-2.42654e-12
-1.2139e-10
1.50311e-12
-1.48902e-10
1.66626e-12
-1.40615e-10
2.40993e-12
-8.6613e-11
2.67192e-12
1.01687e-13
2.8133e-13
9.16076e-11
-1.7508e-12
1.47231e-10
-2.32879e-12
1.57807e-10
-2.89651e-12
9.01192e-11
-4.05874e-12
7.02083e-12
-3.93825e-12
-8.18182e-11
-2.13005e-12
-1.53703e-10
1.01492e-12
-1.32569e-10
6.351e-12
-1.76413e-10
-7.4401e-11
6.96564e-13
1.51984e-11
2.80679e-12
4.90028e-12
2.46724e-12
-2.31315e-11
2.61802e-12
-4.38087e-11
3.24327e-12
-7.91284e-11
2.43672e-12
-1.18672e-10
-1.48789e-12
-1.46891e-10
-1.64797e-12
-1.36622e-10
-2.39293e-12
-8.3921e-11
-2.65298e-12
1.22488e-12
-2.565e-13
9.18448e-11
1.7779e-12
1.44947e-10
2.36503e-12
1.53098e-10
2.9444e-12
8.60008e-11
4.11092e-12
4.5683e-12
3.99887e-12
-8.21207e-11
2.16762e-12
-1.52222e-10
-9.91964e-13
-1.29692e-10
-6.35743e-12
-1.71152e-10
-7.27697e-11
2.20517e-12
1.07609e-11
5.64037e-12
2.00582e-12
1.25372e-11
-1.63692e-11
5.41004e-12
-4.63278e-11
7.57935e-12
-7.64478e-11
2.81462e-12
-1.19211e-10
-2.11587e-12
-1.44939e-10
-1.36623e-12
-1.3233e-10
-2.68373e-12
-8.10928e-11
-3.03149e-12
1.14199e-12
1.39421e-12
8.8794e-11
5.7601e-12
1.39415e-10
6.4355e-12
1.46115e-10
4.95641e-12
8.11313e-11
3.88372e-12
4.00631e-12
2.16894e-12
-7.85324e-11
-2.35206e-12
-1.46424e-10
-7.19809e-12
-1.26854e-10
-1.41484e-11
-1.68662e-10
-7.14437e-11
4.18107e-12
4.89183e-12
1.2439e-11
-5.86978e-12
1.42021e-11
-2.48684e-11
2.04579e-11
-4.03811e-11
1.48468e-11
-7.84301e-11
8.46886e-12
-1.1279e-10
-3.53613e-12
-1.33459e-10
-1.30687e-11
-1.23541e-10
-1.6866e-11
-7.90626e-11
-1.32373e-11
-4.45591e-12
-2.71953e-12
7.73012e-11
8.5142e-12
1.2524e-10
1.6483e-11
1.32841e-10
1.97793e-11
7.47506e-11
1.92028e-11
4.88133e-12
1.22176e-11
-7.1364e-11
-9.54509e-13
-1.35541e-10
-1.42249e-11
-1.17814e-10
-3.06894e-11
-1.56695e-10
-6.6414e-11
7.80165e-12
-5.04626e-12
1.26001e-11
-1.18285e-11
1.87132e-11
-2.122e-11
8.88451e-12
-5.00387e-11
1.36622e-11
-7.78908e-11
1.43224e-11
-1.1641e-10
7.18969e-12
-1.44236e-10
1.50534e-12
-1.3007e-10
-3.72845e-12
-7.89684e-11
-7.52191e-12
-2.80552e-12
-5.96549e-12
7.46931e-11
5.35042e-14
1.18228e-10
8.07306e-12
1.243e-10
1.34019e-11
6.95618e-11
1.40918e-11
3.78475e-12
8.53838e-12
-6.77339e-11
-3.06899e-12
-1.27031e-10
-1.36138e-11
-1.11285e-10
-2.87598e-11
-1.46277e-10
-6.17546e-11
1.36489e-11
-1.34723e-11
2.25086e-11
-2.55894e-11
2.75483e-11
-3.17929e-11
3.57774e-11
-4.93222e-11
2.74163e-11
-7.89626e-11
1.32356e-11
-1.07761e-10
-1.28179e-12
-1.21432e-10
-2.31582e-11
-1.1434e-10
-3.6634e-11
-7.95486e-11
-3.14011e-11
-1.80316e-11
-1.18504e-11
5.05425e-11
1.26232e-11
9.30579e-11
3.38846e-11
1.03609e-10
4.18093e-11
6.0376e-11
3.66338e-11
5.80091e-12
1.93318e-11
-5.43698e-11
-6.00423e-12
-1.05882e-10
-2.78299e-11
-9.33814e-11
-5.23895e-11
-1.25347e-10
-5.36898e-11
1.29365e-11
-1.68731e-11
1.7944e-11
-2.91746e-11
1.62075e-11
-3.13284e-11
1.81648e-11
-4.79318e-11
1.38238e-11
-7.87242e-11
1.32974e-11
-1.00889e-10
1.26453e-11
-1.1655e-10
9.33776e-12
-1.13951e-10
5.77903e-12
-8.02786e-11
1.02996e-12
-1.87747e-11
-6.31284e-13
4.57957e-11
4.29244e-12
8.36885e-11
1.30643e-11
9.10623e-11
1.75258e-11
5.08992e-11
1.57129e-11
2.4368e-12
6.50044e-12
-4.98665e-11
-9.96947e-12
-9.36574e-11
-2.38646e-11
-8.20011e-11
-4.14106e-11
-1.07798e-10
-4.53909e-11
1.11004e-11
-4.06325e-11
2.55735e-11
-3.28341e-11
3.52039e-11
-3.45104e-11
4.10776e-11
-4.66336e-11
3.7445e-11
-6.44929e-11
1.77476e-11
-8.00849e-11
-7.6227e-12
-8.99477e-11
-2.65982e-11
-8.27458e-11
-3.54223e-11
-5.78899e-11
-3.29826e-11
-1.93897e-11
-1.64186e-11
2.26894e-11
9.68204e-12
4.97097e-11
3.61112e-11
5.76585e-11
4.85404e-11
3.25257e-11
4.47515e-11
7.26088e-13
2.47503e-11
-3.51033e-11
-6.52276e-12
-6.60659e-11
-3.23521e-11
-5.745e-11
-6.27796e-11
-7.68874e-11
-3.24625e-11
1.36796e-11
-1.45904e-11
2.27253e-11
-2.04373e-11
2.14493e-11
-1.99732e-11
2.17019e-11
-3.00444e-11
2.14597e-11
-4.66747e-11
1.14184e-11
-6.4866e-11
1.82657e-12
-6.71889e-11
-2.69325e-12
-6.3616e-11
-1.47678e-12
-4.05223e-11
1.82746e-12
-1.2356e-11
8.45559e-12
1.7882e-11
1.82724e-11
3.74163e-11
2.78295e-11
4.37163e-11
2.99458e-11
2.52327e-11
2.32617e-11
1.36762e-12
7.1404e-12
-2.50489e-11
-1.56698e-11
-4.74658e-11
-3.48991e-11
-4.0245e-11
-5.87563e-11
-5.41038e-11
-2.26677e-11
9.42516e-12
-8.55633e-12
2.14859e-11
-1.33596e-11
3.88639e-11
-1.70433e-11
4.29502e-11
6.1183e-11
3.52105e-11
-5.04251e-11
2.31192e-11
4.78427e-11
-5.73011e-12
-5.18498e-11
-2.77938e-11
1.0427e-10
-4.02471e-11
-8.67767e-12
-3.65109e-11
-9.65612e-12
-1.58063e-11
4.03052e-12
1.19119e-11
1.27056e-11
3.78638e-11
1.58673e-11
4.85459e-11
8.98674e-12
4.31508e-11
-4.36808e-13
2.27987e-11
-1.17045e-11
-9.65904e-12
-2.12731e-11
-3.70451e-11
-1.80361e-11
-6.96886e-11
-2.49922e-11
-1.10574e-11
9.73505e-12
1.57015e-11
2.22693e-11
2.79936e-11
2.65623e-11
1.75733e-11
8.43955e-12
-7.8163e-12
-1.91965e-11
-1.62341e-11
-7.49841e-13
1.90255e-11
3.66801e-11
4.20217e-11
3.44754e-11
1.50543e-11
-1.39252e-11
-3.93001e-11
-6.96171e-11
)
;

boundaryField
{
    sides
    {
        type            calculated;
        value           uniform 0;
    }
    inlet
    {
        type            calculated;
        value           uniform 0;
    }
    outlet
    {
        type            calculated;
        value           nonuniform List<scalar> 
20
(
8.25724e-11
8.27486e-11
6.91508e-11
7.5158e-11
4.90639e-11
6.22256e-11
3.58577e-11
3.77607e-11
1.79192e-11
7.94817e-12
-7.99569e-12
-1.79767e-11
-3.77764e-11
-3.58813e-11
-6.22145e-11
-4.90259e-11
-7.51113e-11
-6.90735e-11
-8.26106e-11
-8.24617e-11
)
;
    }
    frontAndBack
    {
        type            empty;
        value           nonuniform 0();
    }
}


// ************************************************************************* //
