/*--------------------------------*- C++ -*----------------------------------*\
  =========                 |
  \\      /  F ield         | OpenFOAM: The Open Source CFD Toolbox
   \\    /   O peration     | Website:  https://openfoam.org
    \\  /    A nd           | Version:  7
     \\/     M anipulation  |
\*---------------------------------------------------------------------------*/
FoamFile
{
    version     2.0;
    format      ascii;
    class       volVectorField;
    location    "25";
    object      ddtCorrDdt0(hU);
}
// * * * * * * * * * * * * * * * * * * * * * * * * * * * * * * * * * * * * * //

dimensions      [0 2 -2 0 0 0 0];

internalField   nonuniform List<vector> 
400
(
(2.65915e-10 -1.65025e-09 0)
(-1.41281e-09 -2.60263e-09 0)
(-4.14126e-09 -3.58182e-09 0)
(-6.86856e-09 -6.34358e-09 0)
(-5.22662e-09 -9.63876e-09 0)
(-3.38367e-09 -1.20893e-08 0)
(-2.76004e-09 -1.36401e-08 0)
(-1.2288e-09 -1.24563e-08 0)
(3.7648e-09 -7.89046e-09 0)
(4.98936e-09 -1.94073e-09 0)
(2.22371e-09 2.21624e-09 0)
(-1.93818e-09 3.63692e-09 0)
(-5.70853e-09 3.1542e-09 0)
(-8.46914e-09 7.9451e-10 0)
(-7.85872e-09 -1.44172e-09 0)
(-6.38384e-09 -3.80261e-09 0)
(3.25791e-10 -5.2693e-09 0)
(4.74877e-09 -4.34613e-09 0)
(1.11697e-08 -4.95923e-09 0)
(1.62339e-08 -1.38507e-09 0)
(6.05481e-10 -1.07415e-09 0)
(-1.57604e-09 -1.62632e-09 0)
(-6.52634e-09 -1.65526e-09 0)
(-9.55946e-09 -2.99418e-09 0)
(-7.88259e-09 -4.91715e-09 0)
(-5.2542e-09 -5.88261e-09 0)
(-2.89876e-09 -5.51886e-09 0)
(3.57409e-09 -5.1072e-09 0)
(7.71226e-09 -4.73273e-09 0)
(9.38001e-09 -3.16265e-09 0)
(5.74031e-09 -2.99543e-10 0)
(3.4381e-10 2.42916e-09 0)
(-5.07965e-09 4.21577e-09 0)
(-9.49957e-09 3.052e-09 0)
(-9.63322e-09 8.45487e-10 0)
(-8.10067e-09 -1.97725e-09 0)
(-8.79039e-10 -4.9125e-09 0)
(4.17772e-09 -4.19154e-09 0)
(1.11413e-08 -6.42413e-09 0)
(1.63317e-08 -3.38893e-09 0)
(5.24879e-11 -3.37884e-09 0)
(-3.18929e-09 -5.33103e-09 0)
(-5.01364e-09 -5.96912e-09 0)
(-5.01684e-09 -7.98744e-09 0)
(-4.22031e-09 -1.13352e-08 0)
(-2.60658e-09 -1.49395e-08 0)
(-1.15492e-09 -1.64087e-08 0)
(-5.3146e-10 -1.423e-08 0)
(6.613e-10 -8.99908e-09 0)
(9.55403e-10 -1.93754e-09 0)
(-6.13776e-10 5.60676e-09 0)
(-2.72756e-09 1.02633e-08 0)
(-4.61922e-09 1.12814e-08 0)
(-6.1632e-09 6.29198e-09 0)
(-5.38922e-09 1.67443e-10 0)
(-4.22225e-09 -6.53986e-09 0)
(1.24743e-09 -1.2029e-08 0)
(4.50549e-09 -1.04426e-08 0)
(9.50032e-09 -1.36564e-08 0)
(1.3672e-08 -5.38524e-09 0)
(7.17078e-10 -5.18273e-09 0)
(-1.91897e-09 -7.85928e-09 0)
(-6.75976e-09 -8.18245e-09 0)
(-9.04967e-09 -1.11272e-08 0)
(-7.92294e-09 -1.60834e-08 0)
(-5.35199e-09 -2.0367e-08 0)
(-1.654e-09 -2.34104e-08 0)
(3.411e-09 -2.25713e-08 0)
(7.2587e-09 -1.62147e-08 0)
(8.19153e-09 -5.50115e-09 0)
(5.54165e-09 5.68334e-09 0)
(7.65209e-10 1.24096e-08 0)
(-4.80297e-09 1.40755e-08 0)
(-9.36603e-09 7.62183e-09 0)
(-9.77365e-09 -2.77985e-10 0)
(-8.41732e-09 -8.94922e-09 0)
(-1.3388e-09 -1.63783e-08 0)
(3.35617e-09 -1.41735e-08 0)
(1.00034e-08 -1.87802e-08 0)
(1.48781e-08 -8.02884e-09 0)
(3.21611e-10 -2.5374e-09 0)
(-2.39967e-09 -4.56018e-09 0)
(-4.09267e-09 -5.02488e-09 0)
(-4.35457e-09 -8.19928e-09 0)
(-2.90652e-09 -1.38041e-08 0)
(-1.614e-09 -1.82785e-08 0)
(-2.61753e-09 -2.07616e-08 0)
(-3.03955e-09 -2.00091e-08 0)
(-1.63429e-09 -1.41162e-08 0)
(2.55584e-11 -3.0457e-09 0)
(3.71332e-10 9.43894e-09 0)
(-2.425e-10 1.73044e-08 0)
(-1.57416e-09 1.93412e-08 0)
(-3.30907e-09 1.13822e-08 0)
(-3.37346e-09 1.29095e-09 0)
(-3.12673e-09 -9.82971e-09 0)
(5.54393e-10 -1.93892e-08 0)
(3.06721e-09 -1.713e-08 0)
(6.46727e-09 -2.29739e-08 0)
(9.76683e-09 -9.97e-09 0)
(6.50047e-10 -1.91949e-09 0)
(-2.45125e-09 -4.33871e-09 0)
(-5.71113e-09 -6.5208e-09 0)
(-7.1289e-09 -1.17731e-08 0)
(-6.5733e-09 -1.81938e-08 0)
(-3.86365e-09 -2.55734e-08 0)
(-1.80644e-09 -3.01636e-08 0)
(2.34757e-09 -2.75303e-08 0)
(7.03552e-09 -1.74321e-08 0)
(8.06691e-09 -1.95766e-09 0)
(4.7128e-09 1.37685e-08 0)
(-2.28839e-10 2.25945e-08 0)
(-4.97352e-09 2.38556e-08 0)
(-8.26962e-09 1.32753e-08 0)
(-8.17011e-09 5.94078e-10 0)
(-6.68689e-09 -1.30939e-08 0)
(-8.86549e-10 -2.4383e-08 0)
(2.93089e-09 -2.13747e-08 0)
(8.59569e-09 -2.79973e-08 0)
(1.21722e-08 -1.15616e-08 0)
(7.84321e-10 -1.1222e-10 0)
(-1.45839e-09 -1.65921e-09 0)
(-3.91727e-09 -4.02061e-09 0)
(-3.4135e-09 -7.7882e-09 0)
(-1.71304e-09 -1.37868e-08 0)
(-2.34202e-09 -2.05159e-08 0)
(-2.23935e-09 -2.49949e-08 0)
(-1.39445e-09 -2.31649e-08 0)
(2.32014e-10 -1.5135e-08 0)
(1.72172e-09 -1.69617e-09 0)
(1.62694e-09 1.32861e-08 0)
(5.97281e-10 2.24138e-08 0)
(-7.27209e-10 2.43983e-08 0)
(-2.3234e-09 1.40136e-08 0)
(-2.8144e-09 1.14372e-09 0)
(-2.90459e-09 -1.30872e-08 0)
(-3.80449e-10 -2.53543e-08 0)
(1.49714e-09 -2.21295e-08 0)
(4.15734e-09 -2.98172e-08 0)
(6.97283e-09 -1.31152e-08 0)
(7.53406e-10 1.61586e-09 0)
(-1.04745e-09 -1.6277e-10 0)
(-3.13213e-09 -4.14188e-09 0)
(-3.95181e-09 -9.22752e-09 0)
(-3.46752e-09 -1.66771e-08 0)
(-2.27166e-09 -2.49157e-08 0)
(-7.5579e-10 -2.97872e-08 0)
(1.67198e-09 -2.68995e-08 0)
(3.4629e-09 -1.59802e-08 0)
(3.64063e-09 1.01731e-09 0)
(1.75749e-09 1.86493e-08 0)
(-7.26044e-10 2.84224e-08 0)
(-2.63768e-09 2.92019e-08 0)
(-3.9029e-09 1.58944e-08 0)
(-3.99026e-09 3.74475e-10 0)
(-3.78681e-09 -1.61487e-08 0)
(-8.73931e-10 -2.94923e-08 0)
(1.22574e-09 -2.5513e-08 0)
(4.7172e-09 -3.3218e-08 0)
(7.32092e-09 -1.35647e-08 0)
(5.34097e-10 2.63137e-09 0)
(-4.78663e-10 6.93726e-10 0)
(-2.19136e-09 -4.15141e-09 0)
(-2.14261e-09 -9.03931e-09 0)
(-1.09084e-09 -1.51762e-08 0)
(-9.42284e-10 -2.30799e-08 0)
(4.4051e-12 -2.84098e-08 0)
(2.29441e-10 -2.65519e-08 0)
(4.69235e-10 -1.68928e-08 0)
(8.86196e-10 -7.31259e-10 0)
(2.63731e-10 1.69309e-08 0)
(-8.58943e-10 2.75136e-08 0)
(-1.31916e-09 2.94887e-08 0)
(-1.20614e-09 1.68476e-08 0)
(-8.53988e-10 1.3946e-09 0)
(-8.17434e-10 -1.52878e-08 0)
(1.00648e-10 -2.92333e-08 0)
(9.43711e-10 -2.52168e-08 0)
(2.20108e-09 -3.40151e-08 0)
(3.31745e-09 -1.48581e-08 0)
(1.05908e-10 2.98052e-09 0)
(-1.54512e-10 1.13397e-09 0)
(-7.12369e-10 -4.27618e-09 0)
(-5.66214e-10 -8.92225e-09 0)
(-4.46013e-10 -1.60403e-08 0)
(-6.39518e-10 -2.4327e-08 0)
(-1.18252e-10 -3.00079e-08 0)
(3.28574e-10 -2.80836e-08 0)
(4.23725e-10 -1.71279e-08 0)
(6.25288e-10 4.02025e-10 0)
(3.29588e-10 1.88558e-08 0)
(-1.73654e-10 2.97752e-08 0)
(-3.88339e-10 3.15117e-08 0)
(-5.33454e-10 1.77236e-08 0)
(-6.67236e-10 9.73552e-10 0)
(-9.89723e-10 -1.68344e-08 0)
(-5.45715e-10 -3.11108e-08 0)
(-2.92756e-10 -2.66279e-08 0)
(6.55525e-10 -3.50282e-08 0)
(1.68903e-09 -1.46722e-08 0)
(-1.09872e-10 2.98032e-09 0)
(1.57775e-10 1.13552e-09 0)
(7.25511e-10 -4.27768e-09 0)
(5.77621e-10 -8.92259e-09 0)
(4.53871e-10 -1.60402e-08 0)
(6.41924e-10 -2.43275e-08 0)
(1.20329e-10 -3.00084e-08 0)
(-3.24597e-10 -2.8084e-08 0)
(-4.19819e-10 -1.71279e-08 0)
(-6.20866e-10 4.02494e-10 0)
(-3.23551e-10 1.88557e-08 0)
(1.79332e-10 2.97746e-08 0)
(3.95391e-10 3.1511e-08 0)
(5.4054e-10 1.77244e-08 0)
(6.77025e-10 9.76736e-10 0)
(1.00047e-09 -1.68312e-08 0)
(5.53552e-10 -3.11075e-08 0)
(3.00551e-10 -2.6627e-08 0)
(-6.54821e-10 -3.50288e-08 0)
(-1.6946e-09 -1.46724e-08 0)
(-5.33594e-10 2.63353e-09 0)
(4.80853e-10 6.95612e-10 0)
(2.20033e-09 -4.15266e-09 0)
(2.15349e-09 -9.0395e-09 0)
(1.09766e-09 -1.51779e-08 0)
(9.45975e-10 -2.30809e-08 0)
(-6.24821e-15 -2.84107e-08 0)
(-2.24371e-10 -2.65535e-08 0)
(-4.66118e-10 -1.68926e-08 0)
(-8.84119e-10 -7.27987e-10 0)
(-2.60413e-10 1.69337e-08 0)
(8.6278e-10 2.7515e-08 0)
(1.32624e-09 2.94866e-08 0)
(1.21493e-09 1.68461e-08 0)
(8.66275e-10 1.39758e-09 0)
(8.28885e-10 -1.52863e-08 0)
(-9.4001e-11 -2.9225e-08 0)
(-9.38776e-10 -2.5215e-08 0)
(-2.20423e-09 -3.4009e-08 0)
(-3.32417e-09 -1.4845e-08 0)
(-7.55146e-10 1.61693e-09 0)
(1.049e-09 -1.63621e-10 0)
(3.14027e-09 -4.14553e-09 0)
(3.95689e-09 -9.22551e-09 0)
(3.47677e-09 -1.66732e-08 0)
(2.28402e-09 -2.49176e-08 0)
(7.63234e-10 -2.97938e-08 0)
(-1.66645e-09 -2.69071e-08 0)
(-3.45755e-09 -1.59854e-08 0)
(-3.63621e-09 1.01755e-09 0)
(-1.75354e-09 1.86506e-08 0)
(7.28791e-10 2.84237e-08 0)
(2.64271e-09 2.92006e-08 0)
(3.90933e-09 1.58933e-08 0)
(3.99973e-09 3.77495e-10 0)
(3.79478e-09 -1.61517e-08 0)
(8.77431e-10 -2.9487e-08 0)
(-1.2202e-09 -2.55137e-08 0)
(-4.716e-09 -3.32121e-08 0)
(-7.32145e-09 -1.35463e-08 0)
(-7.84216e-10 -1.14172e-10 0)
(1.457e-09 -1.66626e-09 0)
(3.92268e-09 -4.02562e-09 0)
(3.42957e-09 -7.78962e-09 0)
(1.71762e-09 -1.3785e-08 0)
(2.34389e-09 -2.05195e-08 0)
(2.24725e-09 -2.50076e-08 0)
(1.40296e-09 -2.31815e-08 0)
(-2.26751e-10 -1.51503e-08 0)
(-1.71973e-09 -1.70504e-09 0)
(-1.62639e-09 1.32799e-08 0)
(-5.95584e-10 2.241e-08 0)
(7.34353e-10 2.43925e-08 0)
(2.33195e-09 1.4013e-08 0)
(2.82491e-09 1.15145e-09 0)
(2.91312e-09 -1.30818e-08 0)
(3.85651e-10 -2.53363e-08 0)
(-1.48992e-09 -2.21236e-08 0)
(-4.15726e-09 -2.98032e-08 0)
(-6.97458e-09 -1.30946e-08 0)
(-6.52942e-10 -1.92098e-09 0)
(2.45266e-09 -4.34495e-09 0)
(5.716e-09 -6.52424e-09 0)
(7.13073e-09 -1.17752e-08 0)
(6.58088e-09 -1.81944e-08 0)
(3.86943e-09 -2.55791e-08 0)
(1.80963e-09 -3.01809e-08 0)
(-2.34128e-09 -2.75509e-08 0)
(-7.02581e-09 -1.74509e-08 0)
(-8.05361e-09 -1.97037e-09 0)
(-4.69942e-09 1.37598e-08 0)
(2.3956e-10 2.25904e-08 0)
(4.9842e-09 2.38495e-08 0)
(8.27537e-09 1.32679e-08 0)
(8.1748e-09 5.91482e-10 0)
(6.68752e-09 -1.31062e-08 0)
(8.84389e-10 -2.43808e-08 0)
(-2.92858e-09 -2.13782e-08 0)
(-8.59864e-09 -2.79898e-08 0)
(-1.21675e-08 -1.15328e-08 0)
(-3.23193e-10 -2.53864e-09 0)
(2.40178e-09 -4.56486e-09 0)
(4.09639e-09 -5.03011e-09 0)
(4.36179e-09 -8.19781e-09 0)
(2.91118e-09 -1.38028e-08 0)
(1.61488e-09 -1.82883e-08 0)
(2.6199e-09 -2.07749e-08 0)
(3.04483e-09 -2.00228e-08 0)
(1.63813e-09 -1.41329e-08 0)
(-1.75174e-11 -3.06403e-09 0)
(-3.594e-10 9.42127e-09 0)
(2.52175e-10 1.72933e-08 0)
(1.58254e-09 1.93302e-08 0)
(3.31434e-09 1.13779e-08 0)
(3.3801e-09 1.29635e-09 0)
(3.13453e-09 -9.82566e-09 0)
(-5.45791e-10 -1.93696e-08 0)
(-3.05308e-09 -1.7124e-08 0)
(-6.45766e-09 -2.29577e-08 0)
(-9.75803e-09 -9.94816e-09 0)
(-7.20057e-10 -5.18331e-09 0)
(1.91784e-09 -7.86364e-09 0)
(6.75983e-09 -8.18527e-09 0)
(9.04968e-09 -1.11265e-08 0)
(7.92158e-09 -1.60898e-08 0)
(5.35879e-09 -2.03864e-08 0)
(1.66307e-09 -2.34186e-08 0)
(-3.40642e-09 -2.25838e-08 0)
(-7.2661e-09 -1.62055e-08 0)
(-8.19097e-09 -5.49718e-09 0)
(-5.52631e-09 5.67527e-09 0)
(-7.47448e-10 1.23971e-08 0)
(4.81752e-09 1.40582e-08 0)
(9.37074e-09 7.60519e-09 0)
(9.77853e-09 -2.87187e-10 0)
(8.41912e-09 -8.96616e-09 0)
(1.33912e-09 -1.63779e-08 0)
(-3.3496e-09 -1.41777e-08 0)
(-1.00056e-08 -1.87702e-08 0)
(-1.48671e-08 -7.99825e-09 0)
(-5.33706e-11 -3.37901e-09 0)
(3.18828e-09 -5.3322e-09 0)
(5.01723e-09 -5.96847e-09 0)
(5.01698e-09 -7.98306e-09 0)
(4.21487e-09 -1.13331e-08 0)
(2.61724e-09 -1.49467e-08 0)
(1.15397e-09 -1.63988e-08 0)
(5.70078e-10 -1.42983e-08 0)
(-6.57473e-10 -9.00286e-09 0)
(-9.79357e-10 -1.94157e-09 0)
(6.10225e-10 5.60068e-09 0)
(2.73875e-09 1.02605e-08 0)
(4.6341e-09 1.12785e-08 0)
(6.17358e-09 6.29286e-09 0)
(5.39989e-09 1.73383e-10 0)
(4.23122e-09 -6.53793e-09 0)
(-1.24021e-09 -1.20189e-08 0)
(-4.4938e-09 -1.04424e-08 0)
(-9.49515e-09 -1.36485e-08 0)
(-1.36574e-08 -5.37197e-09 0)
(-6.05843e-10 -1.07273e-09 0)
(1.57495e-09 -1.62739e-09 0)
(6.52673e-09 -1.66437e-09 0)
(9.57663e-09 -3.00733e-09 0)
(7.87044e-09 -4.91617e-09 0)
(5.28591e-09 -5.85566e-09 0)
(2.82266e-09 -5.54046e-09 0)
(-3.52883e-09 -5.05225e-09 0)
(-7.62169e-09 -4.76306e-09 0)
(-9.39397e-09 -3.15355e-09 0)
(-5.74295e-09 -2.7757e-10 0)
(-3.39534e-10 2.44056e-09 0)
(5.08403e-09 4.21051e-09 0)
(9.49801e-09 3.04094e-09 0)
(9.63559e-09 8.37054e-10 0)
(8.10363e-09 -1.98893e-09 0)
(8.87347e-10 -4.91173e-09 0)
(-4.16207e-09 -4.19322e-09 0)
(-1.11269e-08 -6.41267e-09 0)
(-1.63039e-08 -3.37012e-09 0)
(-2.67487e-10 -1.64921e-09 0)
(1.40645e-09 -2.60219e-09 0)
(4.13354e-09 -3.58695e-09 0)
(6.85604e-09 -6.35428e-09 0)
(5.25407e-09 -9.63788e-09 0)
(3.35778e-09 -1.20591e-08 0)
(2.86112e-09 -1.36685e-08 0)
(1.17358e-09 -1.23472e-08 0)
(-3.82196e-09 -7.92052e-09 0)
(-4.92542e-09 -1.93674e-09 0)
(-2.2002e-09 2.23578e-09 0)
(1.93751e-09 3.65113e-09 0)
(5.7085e-09 3.16055e-09 0)
(8.46813e-09 7.95742e-10 0)
(7.8623e-09 -1.44088e-09 0)
(6.3858e-09 -3.80868e-09 0)
(-3.27374e-10 -5.27354e-09 0)
(-4.74297e-09 -4.34958e-09 0)
(-1.11697e-08 -4.96334e-09 0)
(-1.62136e-08 -1.38037e-09 0)
)
;

boundaryField
{
    sides
    {
        type            calculated;
        value           nonuniform List<vector> 
40
(
(-2.67487e-10 0 0)
(1.40645e-09 0 0)
(4.13354e-09 0 0)
(6.85604e-09 0 0)
(5.25407e-09 0 0)
(3.35778e-09 0 0)
(2.86112e-09 0 0)
(1.17358e-09 0 0)
(-3.82196e-09 0 0)
(-4.92542e-09 0 0)
(-2.2002e-09 0 0)
(1.93751e-09 0 0)
(5.7085e-09 0 0)
(8.46813e-09 0 0)
(7.8623e-09 0 0)
(6.3858e-09 0 0)
(-3.27374e-10 0 0)
(-4.74297e-09 0 0)
(-1.11697e-08 0 0)
(-1.62136e-08 0 0)
(2.65915e-10 0 0)
(-1.41281e-09 0 0)
(-4.14126e-09 0 0)
(-6.86856e-09 0 0)
(-5.22662e-09 0 0)
(-3.38367e-09 0 0)
(-2.76004e-09 0 0)
(-1.2288e-09 0 0)
(3.7648e-09 0 0)
(4.98936e-09 0 0)
(2.22371e-09 0 0)
(-1.93818e-09 0 0)
(-5.70853e-09 0 0)
(-8.46914e-09 0 0)
(-7.85872e-09 0 0)
(-6.38384e-09 0 0)
(3.25791e-10 0 0)
(4.74877e-09 0 0)
(1.11697e-08 0 0)
(1.62339e-08 0 0)
)
;
    }
    inlet
    {
        type            calculated;
        value           uniform (0 0 0);
    }
    outlet
    {
        type            calculated;
        value           nonuniform List<vector> 
20
(
(1.62339e-08 -1.38507e-09 0)
(1.63317e-08 -3.38893e-09 0)
(1.3672e-08 -5.38524e-09 0)
(1.48781e-08 -8.02884e-09 0)
(9.76683e-09 -9.97e-09 0)
(1.21722e-08 -1.15616e-08 0)
(6.97283e-09 -1.31152e-08 0)
(7.32092e-09 -1.35647e-08 0)
(3.31745e-09 -1.48581e-08 0)
(1.68903e-09 -1.46722e-08 0)
(-1.6946e-09 -1.46724e-08 0)
(-3.32417e-09 -1.4845e-08 0)
(-7.32145e-09 -1.35463e-08 0)
(-6.97458e-09 -1.30946e-08 0)
(-1.21675e-08 -1.15328e-08 0)
(-9.75803e-09 -9.94816e-09 0)
(-1.48671e-08 -7.99825e-09 0)
(-1.36574e-08 -5.37197e-09 0)
(-1.63039e-08 -3.37012e-09 0)
(-1.62136e-08 -1.38037e-09 0)
)
;
    }
    frontAndBack
    {
        type            empty;
    }
}


// ************************************************************************* //
