/*--------------------------------*- C++ -*----------------------------------*\
  =========                 |
  \\      /  F ield         | OpenFOAM: The Open Source CFD Toolbox
   \\    /   O peration     | Website:  https://openfoam.org
    \\  /    A nd           | Version:  7
     \\/     M anipulation  |
\*---------------------------------------------------------------------------*/
FoamFile
{
    version     2.0;
    format      ascii;
    class       volVectorField;
    location    "25";
    object      hU;
}
// * * * * * * * * * * * * * * * * * * * * * * * * * * * * * * * * * * * * * //

dimensions      [0 2 -1 0 0 0 0];

internalField   nonuniform List<vector> 
400
(
(0.000999999 -9.38011e-09 0)
(0.000999999 -2.51459e-08 0)
(0.001 -3.818e-08 0)
(0.00100001 -4.96664e-08 0)
(0.00100001 -5.98356e-08 0)
(0.00100002 -6.91127e-08 0)
(0.00100003 -7.71082e-08 0)
(0.00100004 -8.50521e-08 0)
(0.00100004 -9.36546e-08 0)
(0.00100005 -1.0589e-07 0)
(0.00100006 -1.19197e-07 0)
(0.00100009 -1.36023e-07 0)
(0.0010001 -1.49573e-07 0)
(0.00100014 -1.68501e-07 0)
(0.00100017 -1.77461e-07 0)
(0.00100024 -2.00961e-07 0)
(0.00100026 -2.02413e-07 0)
(0.00100038 -2.42806e-07 0)
(0.00100038 -2.35926e-07 0)
(0.0010006 -3.26786e-07 0)
(0.001 3.35848e-09 0)
(0.001 1.08332e-08 0)
(0.00100001 1.7767e-08 0)
(0.00100002 2.37968e-08 0)
(0.00100003 2.97693e-08 0)
(0.00100003 3.59031e-08 0)
(0.00100004 4.23362e-08 0)
(0.00100005 4.82882e-08 0)
(0.00100006 5.49117e-08 0)
(0.00100006 6.02706e-08 0)
(0.00100007 6.51924e-08 0)
(0.00100009 6.57911e-08 0)
(0.00100011 6.77014e-08 0)
(0.00100014 6.23735e-08 0)
(0.00100017 6.58425e-08 0)
(0.00100023 5.31265e-08 0)
(0.00100027 6.16066e-08 0)
(0.00100035 2.84573e-08 0)
(0.00100038 3.98603e-08 0)
(0.0010005 -5.04563e-08 0)
(0.000999999 -5.90574e-09 0)
(0.000999999 -1.71706e-08 0)
(0.001 -2.96494e-08 0)
(0.00100001 -4.20513e-08 0)
(0.00100001 -5.2613e-08 0)
(0.00100001 -6.13686e-08 0)
(0.00100002 -6.79516e-08 0)
(0.00100003 -7.48448e-08 0)
(0.00100004 -8.29208e-08 0)
(0.00100005 -9.54448e-08 0)
(0.00100006 -1.10837e-07 0)
(0.00100008 -1.33344e-07 0)
(0.00100009 -1.54209e-07 0)
(0.00100013 -1.83528e-07 0)
(0.00100015 -1.99843e-07 0)
(0.0010002 -2.35703e-07 0)
(0.00100023 -2.43214e-07 0)
(0.00100031 -3.00379e-07 0)
(0.00100033 -3.0133e-07 0)
(0.00100045 -4.10497e-07 0)
(0.001 -3.09859e-09 0)
(0.001 -6.49011e-09 0)
(0.00100001 -9.40729e-09 0)
(0.00100001 -1.1592e-08 0)
(0.00100002 -1.16255e-08 0)
(0.00100003 -9.62372e-09 0)
(0.00100004 -5.45307e-09 0)
(0.00100004 -1.19495e-09 0)
(0.00100005 1.91692e-09 0)
(0.00100005 -5.7086e-10 0)
(0.00100006 -7.70233e-09 0)
(0.00100008 -2.35212e-08 0)
(0.00100009 -3.8773e-08 0)
(0.00100012 -6.33693e-08 0)
(0.00100015 -7.41666e-08 0)
(0.00100019 -1.05515e-07 0)
(0.00100022 -1.06847e-07 0)
(0.00100028 -1.59837e-07 0)
(0.00100031 -1.56307e-07 0)
(0.00100039 -2.61589e-07 0)
(0.001 -5.6664e-09 0)
(0.001 -1.59869e-08 0)
(0.001 -2.69729e-08 0)
(0.00100001 -3.83128e-08 0)
(0.00100001 -4.79145e-08 0)
(0.00100001 -5.52751e-08 0)
(0.00100002 -6.03248e-08 0)
(0.00100003 -6.5562e-08 0)
(0.00100003 -7.18965e-08 0)
(0.00100004 -8.37586e-08 0)
(0.00100005 -1.00973e-07 0)
(0.00100007 -1.28049e-07 0)
(0.00100008 -1.55496e-07 0)
(0.0010001 -1.9299e-07 0)
(0.00100012 -2.15553e-07 0)
(0.00100016 -2.58946e-07 0)
(0.00100018 -2.69524e-07 0)
(0.00100023 -3.32842e-07 0)
(0.00100025 -3.35943e-07 0)
(0.00100033 -4.47025e-07 0)
(0.001 -6.1845e-09 0)
(0.001 -1.68666e-08 0)
(0.001 -2.62826e-08 0)
(0.00100001 -3.43211e-08 0)
(0.00100001 -3.93106e-08 0)
(0.00100002 -4.10023e-08 0)
(0.00100003 -3.90604e-08 0)
(0.00100003 -3.68961e-08 0)
(0.00100003 -3.73947e-08 0)
(0.00100004 -4.58614e-08 0)
(0.00100004 -6.21323e-08 0)
(0.00100005 -8.96334e-08 0)
(0.00100007 -1.18002e-07 0)
(0.00100009 -1.55933e-07 0)
(0.00100011 -1.77463e-07 0)
(0.00100014 -2.19388e-07 0)
(0.00100016 -2.26487e-07 0)
(0.0010002 -2.86889e-07 0)
(0.00100022 -2.86266e-07 0)
(0.00100027 -3.93014e-07 0)
(0.001 -6.65185e-09 0)
(0.001 -1.91713e-08 0)
(0.001 -3.07172e-08 0)
(0.00100001 -4.16154e-08 0)
(0.00100001 -5.04957e-08 0)
(0.00100001 -5.66326e-08 0)
(0.00100001 -5.95617e-08 0)
(0.00100002 -6.22888e-08 0)
(0.00100002 -6.69367e-08 0)
(0.00100003 -7.87275e-08 0)
(0.00100004 -9.82122e-08 0)
(0.00100005 -1.29565e-07 0)
(0.00100005 -1.62644e-07 0)
(0.00100007 -2.06258e-07 0)
(0.00100008 -2.33216e-07 0)
(0.00100011 -2.81083e-07 0)
(0.00100012 -2.92554e-07 0)
(0.00100015 -3.57868e-07 0)
(0.00100016 -3.60346e-07 0)
(0.00100021 -4.69835e-07 0)
(0.001 -7.06824e-09 0)
(0.001 -2.12415e-08 0)
(0.001 -3.3701e-08 0)
(0.001 -4.45222e-08 0)
(0.00100001 -5.24729e-08 0)
(0.00100001 -5.67472e-08 0)
(0.00100001 -5.67378e-08 0)
(0.00100002 -5.64312e-08 0)
(0.00100002 -5.94391e-08 0)
(0.00100002 -7.14266e-08 0)
(0.00100002 -9.29083e-08 0)
(0.00100003 -1.27107e-07 0)
(0.00100004 -1.63191e-07 0)
(0.00100005 -2.08871e-07 0)
(0.00100006 -2.36417e-07 0)
(0.00100008 -2.83884e-07 0)
(0.00100009 -2.93332e-07 0)
(0.00100011 -3.56913e-07 0)
(0.00100012 -3.57058e-07 0)
(0.00100015 -4.63986e-07 0)
(0.001 -7.28468e-09 0)
(0.001 -2.24109e-08 0)
(0.001 -3.52789e-08 0)
(0.001 -4.63864e-08 0)
(0.001 -5.51406e-08 0)
(0.00100001 -6.07076e-08 0)
(0.00100001 -6.23266e-08 0)
(0.00100001 -6.35032e-08 0)
(0.00100001 -6.73158e-08 0)
(0.00100001 -7.94911e-08 0)
(0.00100002 -1.01029e-07 0)
(0.00100002 -1.35704e-07 0)
(0.00100002 -1.72911e-07 0)
(0.00100003 -2.20669e-07 0)
(0.00100004 -2.50454e-07 0)
(0.00100005 -3.00732e-07 0)
(0.00100005 -3.12153e-07 0)
(0.00100007 -3.77791e-07 0)
(0.00100007 -3.79033e-07 0)
(0.00100009 -4.86545e-07 0)
(0.001 -7.37325e-09 0)
(0.001 -2.30423e-08 0)
(0.001 -3.63778e-08 0)
(0.001 -4.7828e-08 0)
(0.001 -5.67714e-08 0)
(0.001 -6.20858e-08 0)
(0.001 -6.30504e-08 0)
(0.001 -6.35494e-08 0)
(0.001 -6.71374e-08 0)
(0.001 -7.97715e-08 0)
(0.00100001 -1.02453e-07 0)
(0.00100001 -1.38543e-07 0)
(0.00100001 -1.77172e-07 0)
(0.00100001 -2.25881e-07 0)
(0.00100001 -2.56016e-07 0)
(0.00100002 -3.06131e-07 0)
(0.00100002 -3.16835e-07 0)
(0.00100002 -3.81913e-07 0)
(0.00100002 -3.82493e-07 0)
(0.00100003 -4.89505e-07 0)
(0.001 -7.37319e-09 0)
(0.001 -2.30422e-08 0)
(0.001 -3.63771e-08 0)
(0.000999999 -4.78268e-08 0)
(0.000999999 -5.67708e-08 0)
(0.000999998 -6.20862e-08 0)
(0.000999997 -6.30513e-08 0)
(0.000999997 -6.35503e-08 0)
(0.000999996 -6.7138e-08 0)
(0.000999995 -7.97717e-08 0)
(0.000999995 -1.02453e-07 0)
(0.000999994 -1.38542e-07 0)
(0.000999992 -1.7717e-07 0)
(0.00099999 -2.25877e-07 0)
(0.000999988 -2.56014e-07 0)
(0.000999984 -3.06129e-07 0)
(0.000999982 -3.16834e-07 0)
(0.000999977 -3.81912e-07 0)
(0.000999975 -3.82493e-07 0)
(0.00099997 -4.89504e-07 0)
(0.001 -7.28454e-09 0)
(0.001 -2.24102e-08 0)
(0.000999999 -3.52774e-08 0)
(0.000999997 -4.63846e-08 0)
(0.000999996 -5.51403e-08 0)
(0.000999994 -6.07086e-08 0)
(0.000999993 -6.23279e-08 0)
(0.000999991 -6.35036e-08 0)
(0.000999989 -6.73151e-08 0)
(0.000999987 -7.94894e-08 0)
(0.000999984 -1.01028e-07 0)
(0.00099998 -1.35701e-07 0)
(0.000999976 -1.72907e-07 0)
(0.000999969 -2.20656e-07 0)
(0.000999963 -2.50442e-07 0)
(0.000999953 -3.00707e-07 0)
(0.000999946 -3.12129e-07 0)
(0.000999934 -3.77755e-07 0)
(0.00099993 -3.78994e-07 0)
(0.000999912 -4.86491e-07 0)
(0.001 -7.06829e-09 0)
(0.001 -2.12405e-08 0)
(0.000999999 -3.36987e-08 0)
(0.000999996 -4.45202e-08 0)
(0.000999993 -5.24739e-08 0)
(0.00099999 -5.67516e-08 0)
(0.000999987 -5.67434e-08 0)
(0.000999984 -5.64359e-08 0)
(0.000999981 -5.94425e-08 0)
(0.000999979 -7.14296e-08 0)
(0.000999976 -9.29136e-08 0)
(0.000999969 -1.27111e-07 0)
(0.000999961 -1.63198e-07 0)
(0.000999949 -2.08871e-07 0)
(0.000999938 -2.36421e-07 0)
(0.000999921 -2.83879e-07 0)
(0.000999909 -2.93328e-07 0)
(0.000999888 -3.56904e-07 0)
(0.00099988 -3.57044e-07 0)
(0.000999853 -4.63975e-07 0)
(0.001 -6.65213e-09 0)
(0.001 -1.91703e-08 0)
(0.000999998 -3.07136e-08 0)
(0.000999994 -4.16111e-08 0)
(0.000999992 -5.0494e-08 0)
(0.000999989 -5.66338e-08 0)
(0.000999986 -5.95647e-08 0)
(0.000999981 -6.229e-08 0)
(0.000999975 -6.69352e-08 0)
(0.00099997 -7.87218e-08 0)
(0.000999964 -9.82054e-08 0)
(0.000999955 -1.2955e-07 0)
(0.000999945 -1.62628e-07 0)
(0.00099993 -2.0622e-07 0)
(0.000999917 -2.33183e-07 0)
(0.000999893 -2.81022e-07 0)
(0.000999879 -2.92504e-07 0)
(0.000999847 -3.57785e-07 0)
(0.000999838 -3.60266e-07 0)
(0.000999794 -4.69712e-07 0)
(0.001 -6.1846e-09 0)
(0.001 -1.68662e-08 0)
(0.000999997 -2.6281e-08 0)
(0.000999991 -3.43202e-08 0)
(0.000999986 -3.93138e-08 0)
(0.00099998 -4.10102e-08 0)
(0.000999975 -3.90704e-08 0)
(0.00099997 -3.69049e-08 0)
(0.000999966 -3.74029e-08 0)
(0.000999963 -4.58702e-08 0)
(0.000999957 -6.21454e-08 0)
(0.000999946 -8.96447e-08 0)
(0.000999933 -1.18019e-07 0)
(0.000999911 -1.55938e-07 0)
(0.000999891 -1.77474e-07 0)
(0.000999859 -2.19383e-07 0)
(0.000999838 -2.26482e-07 0)
(0.000999799 -2.86875e-07 0)
(0.000999784 -2.86242e-07 0)
(0.000999734 -3.92995e-07 0)
(0.001 -5.66628e-09 0)
(0.001 -1.59845e-08 0)
(0.000999998 -2.69678e-08 0)
(0.000999994 -3.83069e-08 0)
(0.00099999 -4.79122e-08 0)
(0.000999987 -5.52772e-08 0)
(0.000999982 -6.033e-08 0)
(0.000999975 -6.55652e-08 0)
(0.000999967 -7.18974e-08 0)
(0.000999958 -8.37536e-08 0)
(0.000999949 -1.00967e-07 0)
(0.000999935 -1.28032e-07 0)
(0.000999921 -1.55482e-07 0)
(0.000999897 -1.92951e-07 0)
(0.000999877 -2.15528e-07 0)
(0.00099984 -2.58886e-07 0)
(0.000999818 -2.69486e-07 0)
(0.000999766 -3.32757e-07 0)
(0.000999752 -3.35873e-07 0)
(0.000999674 -4.46887e-07 0)
(0.001 -3.09937e-09 0)
(0.000999999 -6.49102e-09 0)
(0.000999994 -9.40746e-09 0)
(0.000999986 -1.15924e-08 0)
(0.000999978 -1.16302e-08 0)
(0.000999971 -9.6331e-09 0)
(0.000999964 -5.4619e-09 0)
(0.000999957 -1.20111e-09 0)
(0.000999952 1.9118e-09 0)
(0.000999947 -5.78731e-10 0)
(0.00099994 -7.71699e-09 0)
(0.000999925 -2.35318e-08 0)
(0.000999908 -3.87877e-08 0)
(0.000999878 -6.3365e-08 0)
(0.000999851 -7.4168e-08 0)
(0.000999806 -1.05489e-07 0)
(0.000999775 -1.06822e-07 0)
(0.000999716 -1.59789e-07 0)
(0.000999693 -1.56251e-07 0)
(0.000999613 -2.61526e-07 0)
(0.001 -5.90532e-09 0)
(0.001 -1.71686e-08 0)
(0.000999999 -2.96464e-08 0)
(0.000999995 -4.2048e-08 0)
(0.00099999 -5.26134e-08 0)
(0.000999986 -6.13737e-08 0)
(0.00099998 -6.79603e-08 0)
(0.000999971 -7.48558e-08 0)
(0.000999963 -8.29289e-08 0)
(0.000999953 -9.54465e-08 0)
(0.000999943 -1.10841e-07 0)
(0.000999924 -1.33339e-07 0)
(0.000999906 -1.54215e-07 0)
(0.000999873 -1.83518e-07 0)
(0.000999848 -1.99857e-07 0)
(0.000999796 -2.35687e-07 0)
(0.000999768 -2.43233e-07 0)
(0.000999689 -3.00352e-07 0)
(0.000999672 -3.01334e-07 0)
(0.000999546 -4.10437e-07 0)
(0.001 3.35792e-09 0)
(0.000999997 1.0832e-08 0)
(0.000999991 1.77652e-08 0)
(0.000999982 2.37939e-08 0)
(0.000999974 2.97662e-08 0)
(0.000999967 3.59051e-08 0)
(0.00099996 4.23392e-08 0)
(0.000999951 4.82974e-08 0)
(0.000999944 5.49163e-08 0)
(0.000999937 6.02771e-08 0)
(0.000999928 6.51934e-08 0)
(0.00099991 6.57973e-08 0)
(0.000999891 6.77025e-08 0)
(0.000999856 6.23973e-08 0)
(0.000999826 6.58578e-08 0)
(0.000999769 5.31776e-08 0)
(0.000999735 6.16433e-08 0)
(0.000999651 2.85397e-08 0)
(0.000999624 3.99287e-08 0)
(0.000999498 -5.03362e-08 0)
(0.001 -9.38062e-09 0)
(0.001 -2.51483e-08 0)
(0.000999999 -3.81867e-08 0)
(0.000999993 -4.96798e-08 0)
(0.000999986 -5.98551e-08 0)
(0.00099998 -6.91327e-08 0)
(0.000999973 -7.71325e-08 0)
(0.000999963 -8.50723e-08 0)
(0.000999956 -9.36832e-08 0)
(0.000999946 -1.05919e-07 0)
(0.000999937 -1.19233e-07 0)
(0.000999915 -1.36061e-07 0)
(0.000999898 -1.49622e-07 0)
(0.000999857 -1.6855e-07 0)
(0.000999834 -1.77521e-07 0)
(0.000999763 -2.01021e-07 0)
(0.000999741 -2.02478e-07 0)
(0.000999623 -2.42879e-07 0)
(0.000999616 -2.35998e-07 0)
(0.000999399 -3.26909e-07 0)
)
;

boundaryField
{
    sides
    {
        type            slip;
    }
    inlet
    {
        type            fixedValue;
        value           uniform (0.001 0 0);
    }
    outlet
    {
        type            zeroGradient;
    }
    frontAndBack
    {
        type            empty;
    }
}


// ************************************************************************* //
