/*--------------------------------*- C++ -*----------------------------------*\
  =========                 |
  \\      /  F ield         | OpenFOAM: The Open Source CFD Toolbox
   \\    /   O peration     | Website:  https://openfoam.org
    \\  /    A nd           | Version:  7
     \\/     M anipulation  |
\*---------------------------------------------------------------------------*/
FoamFile
{
    version     2.0;
    format      ascii;
    class       volVectorField;
    location    "25";
    object      hU_0;
}
// * * * * * * * * * * * * * * * * * * * * * * * * * * * * * * * * * * * * * //

dimensions      [0 2 -1 0 0 0 0];

internalField   nonuniform List<vector> 
400
(
(0.000999999 -9.21512e-09 0)
(0.000999999 -2.48634e-08 0)
(0.001 -3.77951e-08 0)
(0.00100001 -4.90146e-08 0)
(0.00100001 -5.88827e-08 0)
(0.00100002 -6.79017e-08 0)
(0.00100003 -7.57507e-08 0)
(0.00100004 -8.38086e-08 0)
(0.00100004 -9.28421e-08 0)
(0.00100005 -1.05675e-07 0)
(0.00100006 -1.19416e-07 0)
(0.00100009 -1.36403e-07 0)
(0.0010001 -1.49923e-07 0)
(0.00100014 -1.68624e-07 0)
(0.00100017 -1.77357e-07 0)
(0.00100024 -2.00616e-07 0)
(0.00100026 -2.01905e-07 0)
(0.00100038 -2.42379e-07 0)
(0.00100038 -2.35427e-07 0)
(0.0010006 -3.26629e-07 0)
(0.001 3.4596e-09 0)
(0.001 1.09936e-08 0)
(0.00100001 1.79194e-08 0)
(0.00100002 2.40856e-08 0)
(0.00100003 3.02223e-08 0)
(0.00100003 3.64534e-08 0)
(0.00100004 4.28694e-08 0)
(0.00100005 4.87478e-08 0)
(0.00100006 5.53174e-08 0)
(0.00100006 6.05092e-08 0)
(0.00100007 6.51598e-08 0)
(0.00100009 6.55022e-08 0)
(0.00100011 6.72296e-08 0)
(0.00100015 6.20044e-08 0)
(0.00100017 6.56964e-08 0)
(0.00100023 5.3266e-08 0)
(0.00100027 6.20607e-08 0)
(0.00100035 2.88571e-08 0)
(0.00100037 4.04926e-08 0)
(0.0010005 -5.01012e-08 0)
(0.000999999 -5.59324e-09 0)
(0.000999999 -1.66431e-08 0)
(0.001 -2.90876e-08 0)
(0.00100001 -4.13112e-08 0)
(0.00100001 -5.15569e-08 0)
(0.00100001 -5.99739e-08 0)
(0.00100002 -6.63693e-08 0)
(0.00100003 -7.34497e-08 0)
(0.00100004 -8.20516e-08 0)
(0.00100005 -9.5287e-08 0)
(0.00100006 -1.11432e-07 0)
(0.00100008 -1.34418e-07 0)
(0.00100009 -1.5542e-07 0)
(0.00100013 -1.84275e-07 0)
(0.00100015 -1.99976e-07 0)
(0.0010002 -2.35156e-07 0)
(0.00100023 -2.42069e-07 0)
(0.00100031 -2.99357e-07 0)
(0.00100033 -2.99962e-07 0)
(0.00100045 -4.09912e-07 0)
(0.001 -2.60584e-09 0)
(0.001 -5.69226e-09 0)
(0.00100001 -8.59535e-09 0)
(0.00100001 -1.05491e-08 0)
(0.00100002 -1.01089e-08 0)
(0.00100003 -7.67003e-09 0)
(0.00100004 -3.21915e-09 0)
(0.00100004 9.84428e-10 0)
(0.00100005 3.51201e-09 0)
(0.00100005 -5.17615e-12 0)
(0.00100006 -8.26385e-09 0)
(0.00100008 -2.48012e-08 0)
(0.00100009 -4.02818e-08 0)
(0.00100012 -6.42847e-08 0)
(0.00100015 -7.42925e-08 0)
(0.00100019 -1.04762e-07 0)
(0.00100022 -1.05289e-07 0)
(0.00100028 -1.58451e-07 0)
(0.00100031 -1.54428e-07 0)
(0.00100039 -2.60726e-07 0)
(0.001 -5.43096e-09 0)
(0.001 -1.55584e-08 0)
(0.001 -2.65141e-08 0)
(0.00100001 -3.75771e-08 0)
(0.00100001 -4.6655e-08 0)
(0.00100001 -5.35391e-08 0)
(0.00100002 -5.83406e-08 0)
(0.00100003 -6.36444e-08 0)
(0.00100003 -7.05018e-08 0)
(0.00100004 -8.34092e-08 0)
(0.00100005 -1.01882e-07 0)
(0.00100007 -1.29807e-07 0)
(0.00100008 -1.57537e-07 0)
(0.0010001 -1.94303e-07 0)
(0.00100012 -2.15864e-07 0)
(0.00100016 -2.58133e-07 0)
(0.00100018 -2.67679e-07 0)
(0.00100023 -3.31166e-07 0)
(0.00100025 -3.33645e-07 0)
(0.00100032 -4.45955e-07 0)
(0.001 -6.02287e-09 0)
(0.001 -1.6471e-08 0)
(0.001 -2.56783e-08 0)
(0.00100001 -3.32422e-08 0)
(0.00100002 -3.75881e-08 0)
(0.00100002 -3.8574e-08 0)
(0.00100003 -3.61278e-08 0)
(0.00100003 -3.41361e-08 0)
(0.00100003 -3.55709e-08 0)
(0.00100004 -4.55555e-08 0)
(0.00100004 -6.34429e-08 0)
(0.00100005 -9.19147e-08 0)
(0.00100007 -1.20502e-07 0)
(0.00100009 -1.57449e-07 0)
(0.00100011 -1.77718e-07 0)
(0.00100014 -2.18263e-07 0)
(0.00100016 -2.24144e-07 0)
(0.0010002 -2.84785e-07 0)
(0.00100022 -2.8346e-07 0)
(0.00100026 -3.91769e-07 0)
(0.001 -6.66869e-09 0)
(0.001 -1.90497e-08 0)
(0.001 -3.03822e-08 0)
(0.00100001 -4.09328e-08 0)
(0.00100001 -4.92182e-08 0)
(0.00100001 -5.46895e-08 0)
(0.00100001 -5.71282e-08 0)
(0.00100002 -5.99566e-08 0)
(0.00100002 -6.5357e-08 0)
(0.00100003 -7.84741e-08 0)
(0.00100004 -9.94915e-08 0)
(0.00100005 -1.31834e-07 0)
(0.00100005 -1.65201e-07 0)
(0.00100007 -2.07845e-07 0)
(0.00100008 -2.33517e-07 0)
(0.00100011 -2.79954e-07 0)
(0.00100012 -2.9011e-07 0)
(0.00100015 -3.55686e-07 0)
(0.00100016 -3.5736e-07 0)
(0.00100021 -4.6843e-07 0)
(0.001 -7.24796e-09 0)
(0.001 -2.12873e-08 0)
(0.001 -3.33685e-08 0)
(0.001 -4.36977e-08 0)
(0.00100001 -5.09328e-08 0)
(0.00100001 -5.4369e-08 0)
(0.00100001 -5.38076e-08 0)
(0.00100002 -5.37181e-08 0)
(0.00100002 -5.77599e-08 0)
(0.00100002 -7.14129e-08 0)
(0.00100002 -9.46897e-08 0)
(0.00100003 -1.29958e-07 0)
(0.00100004 -1.66236e-07 0)
(0.00100005 -2.10672e-07 0)
(0.00100006 -2.36665e-07 0)
(0.00100008 -2.82465e-07 0)
(0.00100009 -2.90476e-07 0)
(0.00100011 -3.5439e-07 0)
(0.00100012 -3.53721e-07 0)
(0.00100015 -4.62519e-07 0)
(0.001 -7.55668e-09 0)
(0.001 -2.25443e-08 0)
(0.001 -3.49531e-08 0)
(0.001 -4.55821e-08 0)
(0.001 -5.37338e-08 0)
(0.00100001 -5.85265e-08 0)
(0.00100001 -5.95672e-08 0)
(0.00100001 -6.08494e-08 0)
(0.00100001 -6.55535e-08 0)
(0.00100001 -7.9295e-08 0)
(0.00100002 -1.02615e-07 0)
(0.00100002 -1.3843e-07 0)
(0.00100002 -1.75952e-07 0)
(0.00100003 -2.22556e-07 0)
(0.00100004 -2.50814e-07 0)
(0.00100005 -2.99414e-07 0)
(0.00100005 -3.09332e-07 0)
(0.00100007 -3.75301e-07 0)
(0.00100007 -3.75622e-07 0)
(0.00100009 -4.8495e-07 0)
(0.001 -7.67162e-09 0)
(0.001 -2.32258e-08 0)
(0.001 -3.6051e-08 0)
(0.001 -4.70338e-08 0)
(0.001 -5.53083e-08 0)
(0.001 -5.97818e-08 0)
(0.001 -6.01471e-08 0)
(0.001 -6.07582e-08 0)
(0.001 -6.53392e-08 0)
(0.001 -7.96699e-08 0)
(0.00100001 -1.04213e-07 0)
(0.00100001 -1.41467e-07 0)
(0.00100001 -1.80392e-07 0)
(0.00100001 -2.27854e-07 0)
(0.00100001 -2.56352e-07 0)
(0.00100002 -3.04681e-07 0)
(0.00100002 -3.1384e-07 0)
(0.00100002 -3.79284e-07 0)
(0.00100002 -3.78973e-07 0)
(0.00100003 -4.87919e-07 0)
(0.001 -7.6715e-09 0)
(0.001 -2.32257e-08 0)
(0.001 -3.60502e-08 0)
(0.000999999 -4.70326e-08 0)
(0.000999999 -5.53077e-08 0)
(0.000999998 -5.97822e-08 0)
(0.000999997 -6.01479e-08 0)
(0.000999997 -6.0759e-08 0)
(0.000999996 -6.53398e-08 0)
(0.000999995 -7.96702e-08 0)
(0.000999995 -1.04213e-07 0)
(0.000999994 -1.41466e-07 0)
(0.000999992 -1.8039e-07 0)
(0.00099999 -2.27851e-07 0)
(0.000999988 -2.56351e-07 0)
(0.000999984 -3.04679e-07 0)
(0.000999982 -3.1384e-07 0)
(0.000999977 -3.79283e-07 0)
(0.000999975 -3.78972e-07 0)
(0.00099997 -4.87918e-07 0)
(0.001 -7.55669e-09 0)
(0.001 -2.25437e-08 0)
(0.000999999 -3.49515e-08 0)
(0.000999997 -4.55804e-08 0)
(0.000999996 -5.37333e-08 0)
(0.000999994 -5.85273e-08 0)
(0.000999993 -5.95684e-08 0)
(0.000999991 -6.08496e-08 0)
(0.000999989 -6.55528e-08 0)
(0.000999987 -7.92937e-08 0)
(0.000999984 -1.02615e-07 0)
(0.00099998 -1.38426e-07 0)
(0.000999975 -1.75948e-07 0)
(0.000999968 -2.22542e-07 0)
(0.000999962 -2.50802e-07 0)
(0.000999953 -2.99389e-07 0)
(0.000999946 -3.0931e-07 0)
(0.000999934 -3.75265e-07 0)
(0.00099993 -3.75584e-07 0)
(0.000999913 -4.84897e-07 0)
(0.001 -7.24814e-09 0)
(0.001 -2.12862e-08 0)
(0.000999998 -3.33658e-08 0)
(0.000999995 -4.36956e-08 0)
(0.000999992 -5.09342e-08 0)
(0.00099999 -5.43733e-08 0)
(0.000999987 -5.38126e-08 0)
(0.000999984 -5.3722e-08 0)
(0.000999982 -5.77627e-08 0)
(0.000999979 -7.14158e-08 0)
(0.000999976 -9.46952e-08 0)
(0.000999969 -1.29963e-07 0)
(0.000999961 -1.66243e-07 0)
(0.000999949 -2.10672e-07 0)
(0.000999938 -2.36669e-07 0)
(0.00099992 -2.82459e-07 0)
(0.000999909 -2.90473e-07 0)
(0.000999888 -3.54381e-07 0)
(0.00099988 -3.53707e-07 0)
(0.000999854 -4.6251e-07 0)
(0.001 -6.6688e-09 0)
(0.001 -1.9048e-08 0)
(0.000999998 -3.03781e-08 0)
(0.000999994 -4.09284e-08 0)
(0.000999992 -4.92166e-08 0)
(0.000999989 -5.46904e-08 0)
(0.000999986 -5.71301e-08 0)
(0.00099998 -5.99561e-08 0)
(0.000999975 -6.53539e-08 0)
(0.00099997 -7.84673e-08 0)
(0.000999964 -9.94841e-08 0)
(0.000999955 -1.31818e-07 0)
(0.000999945 -1.65183e-07 0)
(0.00099993 -2.07807e-07 0)
(0.000999917 -2.33485e-07 0)
(0.000999893 -2.79894e-07 0)
(0.000999879 -2.90062e-07 0)
(0.000999848 -3.55604e-07 0)
(0.000999838 -3.57281e-07 0)
(0.000999795 -4.68308e-07 0)
(0.001 -6.0228e-09 0)
(0.001 -1.64699e-08 0)
(0.000999997 -2.56763e-08 0)
(0.000999991 -3.32411e-08 0)
(0.000999985 -3.75913e-08 0)
(0.00099998 -3.85812e-08 0)
(0.000999974 -3.61362e-08 0)
(0.00099997 -3.4143e-08 0)
(0.000999967 -3.55775e-08 0)
(0.000999963 -4.55632e-08 0)
(0.000999958 -6.34551e-08 0)
(0.000999946 -9.19255e-08 0)
(0.000999932 -1.20518e-07 0)
(0.00099991 -1.57454e-07 0)
(0.00099989 -1.77729e-07 0)
(0.000999859 -2.18257e-07 0)
(0.000999838 -2.24139e-07 0)
(0.0009998 -2.8477e-07 0)
(0.000999785 -2.83437e-07 0)
(0.000999735 -3.91753e-07 0)
(0.001 -5.4307e-09 0)
(0.001 -1.55556e-08 0)
(0.000999998 -2.65085e-08 0)
(0.000999994 -3.75712e-08 0)
(0.00099999 -4.66528e-08 0)
(0.000999987 -5.35403e-08 0)
(0.000999982 -5.83447e-08 0)
(0.000999975 -6.36463e-08 0)
(0.000999967 -7.05015e-08 0)
(0.000999958 -8.34029e-08 0)
(0.000999949 -1.01875e-07 0)
(0.000999935 -1.29789e-07 0)
(0.000999921 -1.57522e-07 0)
(0.000999897 -1.94264e-07 0)
(0.000999877 -2.1584e-07 0)
(0.00099984 -2.58073e-07 0)
(0.000999818 -2.67643e-07 0)
(0.000999766 -3.31082e-07 0)
(0.000999752 -3.33576e-07 0)
(0.000999675 -4.45819e-07 0)
(0.001 -2.60659e-09 0)
(0.000999999 -5.69284e-09 0)
(0.000999994 -8.59512e-09 0)
(0.000999985 -1.05493e-08 0)
(0.000999977 -1.01128e-08 0)
(0.000999971 -7.67774e-09 0)
(0.000999964 -3.22756e-09 0)
(0.000999957 9.80134e-10 0)
(0.000999953 3.50631e-09 0)
(0.000999947 -1.40288e-11 0)
(0.00099994 -8.27833e-09 0)
(0.000999925 -2.48108e-08 0)
(0.000999907 -4.02949e-08 0)
(0.000999877 -6.42787e-08 0)
(0.00099985 -7.42929e-08 0)
(0.000999805 -1.04735e-07 0)
(0.000999775 -1.05264e-07 0)
(0.000999717 -1.58403e-07 0)
(0.000999694 -1.54373e-07 0)
(0.000999615 -2.60666e-07 0)
(0.001 -5.59279e-09 0)
(0.001 -1.6641e-08 0)
(0.000999999 -2.90845e-08 0)
(0.000999994 -4.13083e-08 0)
(0.00099999 -5.15578e-08 0)
(0.000999985 -5.99788e-08 0)
(0.000999979 -6.63785e-08 0)
(0.000999971 -7.34575e-08 0)
(0.000999963 -8.20584e-08 0)
(0.000999953 -9.52883e-08 0)
(0.000999943 -1.11436e-07 0)
(0.000999924 -1.34414e-07 0)
(0.000999906 -1.55426e-07 0)
(0.000999873 -1.84264e-07 0)
(0.000999848 -1.9999e-07 0)
(0.000999795 -2.3514e-07 0)
(0.000999768 -2.42089e-07 0)
(0.00099969 -2.9933e-07 0)
(0.000999673 -2.99966e-07 0)
(0.000999548 -4.09854e-07 0)
(0.001 3.45897e-09 0)
(0.000999997 1.09926e-08 0)
(0.00099999 1.79187e-08 0)
(0.000999981 2.40839e-08 0)
(0.000999973 3.02189e-08 0)
(0.000999967 3.64532e-08 0)
(0.000999959 4.28751e-08 0)
(0.000999951 4.87538e-08 0)
(0.000999945 5.53243e-08 0)
(0.000999938 6.05163e-08 0)
(0.000999929 6.51594e-08 0)
(0.00099991 6.55073e-08 0)
(0.000999891 6.7231e-08 0)
(0.000999855 6.20291e-08 0)
(0.000999825 6.57124e-08 0)
(0.000999768 5.33182e-08 0)
(0.000999734 6.20973e-08 0)
(0.000999651 2.89396e-08 0)
(0.000999625 4.056e-08 0)
(0.0009995 -4.9983e-08 0)
(0.001 -9.21571e-09 0)
(0.001 -2.48659e-08 0)
(0.000999999 -3.78011e-08 0)
(0.000999992 -4.9027e-08 0)
(0.000999985 -5.89023e-08 0)
(0.000999979 -6.7924e-08 0)
(0.000999973 -7.57723e-08 0)
(0.000999963 -8.38334e-08 0)
(0.000999957 -9.2869e-08 0)
(0.000999946 -1.05703e-07 0)
(0.000999937 -1.19454e-07 0)
(0.000999915 -1.36443e-07 0)
(0.000999898 -1.49972e-07 0)
(0.000999856 -1.68673e-07 0)
(0.000999833 -1.77417e-07 0)
(0.000999763 -2.00676e-07 0)
(0.000999741 -2.01969e-07 0)
(0.000999624 -2.42452e-07 0)
(0.000999617 -2.35498e-07 0)
(0.000999401 -3.26753e-07 0)
)
;

boundaryField
{
    sides
    {
        type            slip;
    }
    inlet
    {
        type            fixedValue;
        value           uniform (0.001 0 0);
    }
    outlet
    {
        type            zeroGradient;
    }
    frontAndBack
    {
        type            empty;
    }
}


// ************************************************************************* //
