/*--------------------------------*- C++ -*----------------------------------*\
  =========                 |
  \\      /  F ield         | OpenFOAM: The Open Source CFD Toolbox
   \\    /   O peration     | Website:  https://openfoam.org
    \\  /    A nd           | Version:  7
     \\/     M anipulation  |
\*---------------------------------------------------------------------------*/
FoamFile
{
    version     2.0;
    format      ascii;
    class       surfaceScalarField;
    location    "25";
    object      phi;
}
// * * * * * * * * * * * * * * * * * * * * * * * * * * * * * * * * * * * * * //

dimensions      [0 4 -1 0 0 0 0];

internalField   nonuniform List<scalar> 
760
(
4.99999e-06
5.79685e-12
5e-06
-1.22787e-11
5.00002e-06
-2.60727e-11
5.00005e-06
-3.63273e-11
5.00008e-06
-4.27804e-11
5.00012e-06
-4.69731e-11
5.00016e-06
-5.20543e-11
5.0002e-06
-5.91483e-11
5.00024e-06
-5.89008e-11
5.00029e-06
-7.18033e-11
5.00036e-06
-8.77532e-11
5.00047e-06
-1.20003e-10
5.0006e-06
-1.43776e-10
5.00078e-06
-1.94837e-10
5.00097e-06
-2.06883e-10
5.00125e-06
-2.85932e-10
5.00151e-06
-2.72218e-10
5.00195e-06
-4.39097e-10
5.00235e-06
-4.07356e-10
-8.69893e-10
5.00002e-06
-1.98474e-11
5.00004e-06
-3.64177e-11
5.00007e-06
-5.78004e-11
5.0001e-06
-7.96612e-11
5.00014e-06
-9.41986e-11
5.00018e-06
-1.02119e-10
5.00022e-06
-1.02461e-10
5.00026e-06
-1.05319e-10
5.00029e-06
-1.09794e-10
5.00034e-06
-1.32521e-10
5.0004e-06
-1.65349e-10
5.0005e-06
-2.30285e-10
5.00062e-06
-2.84937e-10
5.0008e-06
-3.81633e-10
5.001e-06
-4.16655e-10
5.00125e-06
-5.48286e-10
5.00152e-06
-5.43632e-10
5.00185e-06
-7.82846e-10
5.00219e-06
-7.45076e-10
-1.22043e-09
4.99999e-06
-1.60689e-11
5e-06
-4.48488e-11
5.00001e-06
-7.59414e-11
5.00003e-06
-1.06179e-10
5.00006e-06
-1.28745e-10
5.00009e-06
-1.43598e-10
5.00013e-06
-1.49053e-10
5.00016e-06
-1.552e-10
5.00021e-06
-1.66331e-10
5.00026e-06
-1.99291e-10
5.00033e-06
-2.48858e-10
5.00042e-06
-3.35631e-10
5.00054e-06
-4.18642e-10
5.0007e-06
-5.45213e-10
5.00088e-06
-6.09797e-10
5.00109e-06
-7.7117e-10
5.00134e-06
-7.9439e-10
5.00161e-06
-1.06207e-09
5.00193e-06
-1.06273e-09
-1.62724e-09
5.00001e-06
-2.64899e-11
5.00003e-06
-6.66413e-11
5.00005e-06
-1.07628e-10
5.00008e-06
-1.47198e-10
5.00012e-06
-1.7501e-10
5.00016e-06
-1.9017e-10
5.0002e-06
-1.92827e-10
5.00022e-06
-1.95198e-10
5.00025e-06
-2.03927e-10
5.00029e-06
-2.44068e-10
5.00034e-06
-3.1169e-10
5.00042e-06
-4.2741e-10
5.00053e-06
-5.41018e-10
5.00068e-06
-7.03196e-10
5.00085e-06
-7.89382e-10
5.00105e-06
-9.8118e-10
5.00126e-06
-1.01029e-09
5.00151e-06
-1.30748e-09
5.00174e-06
-1.30204e-09
-1.81643e-09
5e-06
-2.85372e-11
5.00001e-06
-7.7461e-11
5.00002e-06
-1.24096e-10
5.00003e-06
-1.68006e-10
5.00006e-06
-2.01302e-10
5.00008e-06
-2.2166e-10
5.00011e-06
-2.28352e-10
5.00014e-06
-2.3609e-10
5.00018e-06
-2.52366e-10
5.00023e-06
-2.99232e-10
5.00029e-06
-3.77038e-10
5.00036e-06
-5.068e-10
5.00045e-06
-6.4099e-10
5.00056e-06
-8.24877e-10
5.0007e-06
-9.33373e-10
5.00086e-06
-1.14426e-09
5.00103e-06
-1.18923e-09
5.00122e-06
-1.49457e-09
5.00142e-06
-1.5018e-09
-2.06682e-09
5e-06
-3.2167e-11
5.00001e-06
-9.19065e-11
5.00003e-06
-1.46758e-10
5.00005e-06
-1.9734e-10
5.00008e-06
-2.34309e-10
5.00011e-06
-2.56217e-10
5.00014e-06
-2.5984e-10
5.00016e-06
-2.61199e-10
5.00018e-06
-2.75071e-10
5.0002e-06
-3.2938e-10
5.00024e-06
-4.23659e-10
5.0003e-06
-5.75808e-10
5.00039e-06
-7.33296e-10
5.0005e-06
-9.40311e-10
5.00062e-06
-1.06275e-09
5.00076e-06
-1.28866e-09
5.0009e-06
-1.33449e-09
5.00106e-06
-1.65143e-09
5.00121e-06
-1.65631e-09
-2.18102e-09
5e-06
-3.51797e-11
5.00001e-06
-1.02047e-10
5.00002e-06
-1.60858e-10
5.00003e-06
-2.13038e-10
5.00005e-06
-2.53642e-10
5.00006e-06
-2.77444e-10
5.00008e-06
-2.83411e-10
5.00011e-06
-2.89072e-10
5.00014e-06
-3.07328e-10
5.00017e-06
-3.64732e-10
5.0002e-06
-4.64876e-10
5.00025e-06
-6.26651e-10
5.00031e-06
-7.97875e-10
5.00038e-06
-1.01973e-09
5.00047e-06
-1.15536e-09
5.00057e-06
-1.39317e-09
5.00068e-06
-1.44561e-09
5.0008e-06
-1.76609e-09
5.00091e-06
-1.77042e-09
-2.32019e-09
5e-06
-3.63466e-11
5e-06
-1.09354e-10
5.00001e-06
-1.72916e-10
5.00003e-06
-2.2887e-10
5.00004e-06
-2.71195e-10
5.00006e-06
-2.97158e-10
5.00007e-06
-3.02264e-10
5.00009e-06
-3.04987e-10
5.0001e-06
-3.22608e-10
5.00011e-06
-3.83668e-10
5.00014e-06
-4.91759e-10
5.00017e-06
-6.64569e-10
5.00022e-06
-8.48566e-10
5.00028e-06
-1.08313e-09
5.00035e-06
-1.2273e-09
5.00043e-06
-1.47259e-09
5.00051e-06
-1.52514e-09
5.00059e-06
-1.84921e-09
5.00067e-06
-1.85378e-09
-2.38432e-09
5e-06
-3.70557e-11
5e-06
-1.14616e-10
5.00001e-06
-1.80791e-10
5.00002e-06
-2.36794e-10
5.00002e-06
-2.81021e-10
5.00003e-06
-3.07199e-10
5.00004e-06
-3.12541e-10
5.00005e-06
-3.16556e-10
5.00006e-06
-3.3522e-10
5.00007e-06
-3.97968e-10
5.00009e-06
-5.09579e-10
5.00011e-06
-6.87515e-10
5.00014e-06
-8.7764e-10
5.00017e-06
-1.11857e-09
5.00021e-06
-1.26751e-09
5.00025e-06
-1.5171e-09
5.0003e-06
-1.57112e-09
5.00034e-06
-1.89651e-09
5.00039e-06
-1.89976e-09
-2.43677e-09
5e-06
-3.74826e-11
5e-06
-1.16318e-10
5e-06
-1.82684e-10
5.00001e-06
-2.39743e-10
5.00001e-06
-2.84611e-10
5.00001e-06
-3.11446e-10
5.00002e-06
-3.17232e-10
5.00002e-06
-3.20702e-10
5.00002e-06
-3.391e-10
5.00002e-06
-4.01995e-10
5.00003e-06
-5.14467e-10
5.00003e-06
-6.93811e-10
5.00004e-06
-8.86349e-10
5.00006e-06
-1.13025e-09
5.00007e-06
-1.28192e-09
5.00009e-06
-1.53391e-09
5.0001e-06
-1.58844e-09
5.00012e-06
-1.91439e-09
5.00014e-06
-1.91664e-09
-2.44985e-09
5e-06
-3.7055e-11
5e-06
-1.14613e-10
5e-06
-1.80786e-10
4.99999e-06
-2.36789e-10
4.99999e-06
-2.81022e-10
4.99999e-06
-3.07205e-10
4.99998e-06
-3.12549e-10
4.99998e-06
-3.1656e-10
4.99998e-06
-3.3522e-10
4.99998e-06
-3.97965e-10
4.99997e-06
-5.0958e-10
4.99997e-06
-6.8751e-10
4.99996e-06
-8.77639e-10
4.99994e-06
-1.11855e-09
4.99993e-06
-1.26749e-09
4.99991e-06
-1.51705e-09
4.9999e-06
-1.57107e-09
4.99988e-06
-1.89643e-09
4.99986e-06
-1.89968e-09
-2.43664e-09
5e-06
-3.63462e-11
5e-06
-1.09348e-10
4.99999e-06
-1.72905e-10
4.99998e-06
-2.28857e-10
4.99998e-06
-2.71194e-10
4.99997e-06
-2.97168e-10
4.99996e-06
-3.02278e-10
4.99995e-06
-3.04997e-10
4.99994e-06
-3.22612e-10
4.99993e-06
-3.83667e-10
4.99991e-06
-4.91763e-10
4.99989e-06
-6.64558e-10
4.99986e-06
-8.48559e-10
4.99983e-06
-1.08308e-09
4.99979e-06
-1.22726e-09
4.99975e-06
-1.47249e-09
4.9997e-06
-1.52505e-09
4.99966e-06
-1.84907e-09
4.99961e-06
-1.85362e-09
-2.38414e-09
5e-06
-3.5181e-11
5e-06
-1.02042e-10
4.99999e-06
-1.60847e-10
4.99997e-06
-2.13026e-10
4.99996e-06
-2.53643e-10
4.99994e-06
-2.77463e-10
4.99993e-06
-2.83438e-10
4.99991e-06
-2.89091e-10
4.9999e-06
-3.07336e-10
4.99989e-06
-3.6473e-10
4.99986e-06
-4.64881e-10
4.99983e-06
-6.26637e-10
4.99978e-06
-7.97872e-10
4.99972e-06
-1.01966e-09
4.99965e-06
-1.15531e-09
4.99957e-06
-1.39303e-09
4.99949e-06
-1.4455e-09
4.99941e-06
-1.76589e-09
4.99933e-06
-1.77021e-09
-2.31987e-09
5e-06
-3.21669e-11
4.99999e-06
-9.19018e-11
4.99998e-06
-1.46741e-10
4.99997e-06
-1.97324e-10
4.99995e-06
-2.34311e-10
4.99994e-06
-2.56236e-10
4.99992e-06
-2.59868e-10
4.99989e-06
-2.61221e-10
4.99986e-06
-2.75084e-10
4.99983e-06
-3.29384e-10
4.9998e-06
-4.23669e-10
4.99975e-06
-5.75789e-10
4.99969e-06
-7.33287e-10
4.99962e-06
-9.40217e-10
4.99953e-06
-1.06269e-09
4.99943e-06
-1.28848e-09
4.99932e-06
-1.33434e-09
4.9992e-06
-1.65117e-09
4.99909e-06
-1.65603e-09
-2.18066e-09
5e-06
-2.85387e-11
4.99999e-06
-7.74565e-11
4.99997e-06
-1.24085e-10
4.99995e-06
-1.67994e-10
4.99992e-06
-2.01308e-10
4.99989e-06
-2.21689e-10
4.99986e-06
-2.28396e-10
4.99984e-06
-2.36128e-10
4.99982e-06
-2.52397e-10
4.9998e-06
-2.9925e-10
4.99976e-06
-3.77063e-10
4.9997e-06
-5.0679e-10
4.99961e-06
-6.40999e-10
4.9995e-06
-8.24794e-10
4.99938e-06
-9.33338e-10
4.99924e-06
-1.1441e-09
4.9991e-06
-1.18911e-09
4.99894e-06
-1.49432e-09
4.99879e-06
-1.50155e-09
-2.06642e-09
5e-06
-2.64894e-11
4.99999e-06
-6.66341e-11
4.99998e-06
-1.0761e-10
4.99997e-06
-1.47178e-10
4.99995e-06
-1.7501e-10
4.99992e-06
-1.90194e-10
4.99989e-06
-1.92858e-10
4.99986e-06
-1.95213e-10
4.99982e-06
-2.03936e-10
4.99977e-06
-2.4407e-10
4.99971e-06
-3.1171e-10
4.99964e-06
-4.27392e-10
4.99955e-06
-5.41023e-10
4.99944e-06
-7.03094e-10
4.9993e-06
-7.89337e-10
4.99914e-06
-9.80982e-10
4.99897e-06
-1.01016e-09
4.99878e-06
-1.30717e-09
4.99858e-06
-1.30174e-09
-1.81595e-09
4.99999e-06
-1.60753e-11
4.99997e-06
-4.48491e-11
4.99995e-06
-7.59378e-11
4.99992e-06
-1.06178e-10
4.99988e-06
-1.28766e-10
4.99984e-06
-1.43639e-10
4.9998e-06
-1.49093e-10
4.99978e-06
-1.55245e-10
4.99975e-06
-1.66362e-10
4.99972e-06
-1.99314e-10
4.99966e-06
-2.48904e-10
4.99958e-06
-3.35647e-10
4.99947e-06
-4.18691e-10
4.99932e-06
-5.45169e-10
4.99915e-06
-6.09819e-10
4.99895e-06
-7.71048e-10
4.99874e-06
-7.94347e-10
4.9985e-06
-1.06185e-09
4.99826e-06
-1.06257e-09
-1.6269e-09
5.00001e-06
-1.98456e-11
5e-06
-3.6412e-11
4.99999e-06
-5.77901e-11
4.99997e-06
-7.96504e-11
4.99994e-06
-9.4202e-11
4.99991e-06
-1.02129e-10
4.99987e-06
-1.02467e-10
4.99984e-06
-1.05343e-10
4.99979e-06
-1.09797e-10
4.99974e-06
-1.325e-10
4.99967e-06
-1.65357e-10
4.99958e-06
-2.30254e-10
4.99946e-06
-2.84953e-10
4.9993e-06
-3.81542e-10
4.99912e-06
-4.16659e-10
4.99891e-06
-5.4812e-10
4.99866e-06
-5.436e-10
4.99839e-06
-7.82577e-10
4.99807e-06
-7.44922e-10
-1.22e-09
4.99998e-06
5.79228e-12
4.99996e-06
-1.2291e-11
4.99993e-06
-2.60992e-11
4.9999e-06
-3.63052e-11
4.99986e-06
-4.27977e-11
4.99982e-06
-4.69619e-11
4.99978e-06
-5.21938e-11
4.99974e-06
-5.88576e-11
4.99971e-06
-5.89201e-11
4.99966e-06
-7.18549e-11
4.9996e-06
-8.78257e-11
4.99951e-06
-1.20069e-10
4.99938e-06
-1.43876e-10
4.9992e-06
-1.94893e-10
4.999e-06
-2.06982e-10
4.99875e-06
-2.85956e-10
4.99849e-06
-2.72284e-10
4.99815e-06
-4.39084e-10
4.99781e-06
-4.07372e-10
-8.69896e-10
5.00001e-06
5e-06
4.99998e-06
4.99995e-06
4.99992e-06
4.99988e-06
4.99984e-06
4.9998e-06
4.99976e-06
4.99971e-06
4.99964e-06
4.99953e-06
4.9994e-06
4.99922e-06
4.99903e-06
4.99875e-06
4.99848e-06
4.99805e-06
4.99765e-06
)
;

boundaryField
{
    sides
    {
        type            calculated;
        value           uniform 0;
    }
    inlet
    {
        type            calculated;
        value           nonuniform List<scalar> 
20
(
-5e-06
-5e-06
-5e-06
-5e-06
-5e-06
-5e-06
-5e-06
-5e-06
-5e-06
-5e-06
-5e-06
-5e-06
-5e-06
-5e-06
-5e-06
-5e-06
-5e-06
-5e-06
-5e-06
-5e-06
)
;
    }
    outlet
    {
        type            calculated;
        value           nonuniform List<scalar> 
20
(
5.00322e-06
5.00254e-06
5.00234e-06
5.00193e-06
5.00167e-06
5.00133e-06
5.00105e-06
5.00073e-06
5.00044e-06
5.00015e-06
4.99985e-06
4.99956e-06
4.99927e-06
4.99895e-06
4.99868e-06
4.99833e-06
4.99807e-06
4.99766e-06
4.99746e-06
4.99678e-06
)
;
    }
    frontAndBack
    {
        type            empty;
        value           nonuniform 0();
    }
}


// ************************************************************************* //
