/*--------------------------------*- C++ -*----------------------------------*\
  =========                 |
  \\      /  F ield         | OpenFOAM: The Open Source CFD Toolbox
   \\    /   O peration     | Website:  https://openfoam.org
    \\  /    A nd           | Version:  7
     \\/     M anipulation  |
\*---------------------------------------------------------------------------*/
FoamFile
{
    version     2.0;
    format      ascii;
    class       surfaceScalarField;
    location    "25";
    object      phi_0;
}
// * * * * * * * * * * * * * * * * * * * * * * * * * * * * * * * * * * * * * //

dimensions      [0 4 -1 0 0 0 0];

internalField   nonuniform List<scalar> 
760
(
4.99999e-06
6.61782e-12
5e-06
-1.09346e-11
5.00003e-06
-2.43811e-11
5.00005e-06
-3.26489e-11
5.00009e-06
-4.07662e-11
5.00012e-06
-4.64469e-11
5.00016e-06
-4.81518e-11
5.0002e-06
-4.78287e-11
5.00024e-06
-5.65826e-11
5.00029e-06
-7.0998e-11
5.00036e-06
-8.82991e-11
5.00047e-06
-1.21415e-10
5.0006e-06
-1.45552e-10
5.00078e-06
-1.95978e-10
5.00098e-06
-2.07062e-10
5.00125e-06
-2.84969e-10
5.00151e-06
-2.70207e-10
5.00195e-06
-4.37346e-10
5.00235e-06
-4.04861e-10
-8.68697e-10
5.00002e-06
-1.84202e-11
5.00005e-06
-3.43639e-11
5.00007e-06
-5.59475e-11
5.00011e-06
-7.68047e-11
5.00015e-06
-8.97637e-11
5.00019e-06
-9.62454e-11
5.00022e-06
-9.58729e-11
5.00026e-06
-9.93758e-11
5.00029e-06
-1.05879e-10
5.00034e-06
-1.31491e-10
5.0004e-06
-1.67367e-10
5.0005e-06
-2.3428e-10
5.00063e-06
-2.89673e-10
5.0008e-06
-3.8464e-10
5.001e-06
-4.17267e-10
5.00125e-06
-5.46221e-10
5.00151e-06
-5.39124e-10
5.00185e-06
-7.78911e-10
5.00218e-06
-7.39663e-10
-1.21799e-09
5e-06
-1.39157e-11
5e-06
-4.16514e-11
5.00002e-06
-7.25493e-11
5.00003e-06
-1.01901e-10
5.00006e-06
-1.22727e-10
5.00009e-06
-1.3599e-10
5.00013e-06
-1.40528e-10
5.00016e-06
-1.47149e-10
5.00021e-06
-1.60733e-10
5.00026e-06
-1.97483e-10
5.00033e-06
-2.51272e-10
5.00042e-06
-3.40865e-10
5.00055e-06
-4.24877e-10
5.0007e-06
-5.49122e-10
5.00088e-06
-6.10515e-10
5.0011e-06
-7.68265e-10
5.00134e-06
-7.88117e-10
5.00161e-06
-1.05646e-09
5.00192e-06
-1.05504e-09
-1.62373e-09
5.00001e-06
-2.48196e-11
5.00003e-06
-6.37563e-11
5.00005e-06
-1.04641e-10
5.00009e-06
-1.42898e-10
5.00013e-06
-1.67763e-10
5.00016e-06
-1.80496e-10
5.0002e-06
-1.81735e-10
5.00022e-06
-1.84359e-10
5.00025e-06
-1.96062e-10
5.00028e-06
-2.41996e-10
5.00034e-06
-3.1611e-10
5.00042e-06
-4.3592e-10
5.00053e-06
-5.50666e-10
5.00068e-06
-7.09158e-10
5.00085e-06
-7.90509e-10
5.00106e-06
-9.77007e-10
5.00126e-06
-1.00137e-09
5.0015e-06
-1.29946e-09
5.00174e-06
-1.29122e-09
-1.81153e-09
5e-06
-2.73036e-11
5.00001e-06
-7.5097e-11
5.00002e-06
-1.2118e-10
5.00004e-06
-1.63352e-10
5.00006e-06
-1.94e-10
5.00008e-06
-2.11401e-10
5.00011e-06
-2.16522e-10
5.00014e-06
-2.2486e-10
5.00018e-06
-2.44335e-10
5.00023e-06
-2.97092e-10
5.00029e-06
-3.81843e-10
5.00036e-06
-5.162e-10
5.00045e-06
-6.51862e-10
5.00057e-06
-8.31792e-10
5.0007e-06
-9.34882e-10
5.00086e-06
-1.13971e-09
5.00103e-06
-1.17911e-09
5.00122e-06
-1.48543e-09
5.00141e-06
-1.48927e-09
-2.06105e-09
5e-06
-3.18462e-11
5.00001e-06
-9.09219e-11
5.00003e-06
-1.44818e-10
5.00006e-06
-1.92996e-10
5.00009e-06
-2.26851e-10
5.00011e-06
-2.4531e-10
5.00014e-06
-2.4595e-10
5.00016e-06
-2.48043e-10
5.00017e-06
-2.66649e-10
5.0002e-06
-3.28531e-10
5.00024e-06
-4.30832e-10
5.0003e-06
-5.87779e-10
5.00039e-06
-7.46325e-10
5.0005e-06
-9.48209e-10
5.00062e-06
-1.06409e-09
5.00076e-06
-1.28281e-09
5.0009e-06
-1.32224e-09
5.00106e-06
-1.64045e-09
5.00121e-06
-1.64164e-09
-2.17438e-09
5e-06
-3.57679e-11
5.00001e-06
-1.01725e-10
5.00002e-06
-1.58885e-10
5.00003e-06
-2.09356e-10
5.00005e-06
-2.46501e-10
5.00007e-06
-2.66551e-10
5.00009e-06
-2.70211e-10
5.00011e-06
-2.76638e-10
5.00014e-06
-2.99124e-10
5.00017e-06
-3.6384e-10
5.0002e-06
-4.723e-10
5.00025e-06
-6.39284e-10
5.00031e-06
-8.11773e-10
5.00039e-06
-1.02819e-09
5.00047e-06
-1.15681e-09
5.00057e-06
-1.38695e-09
5.00068e-06
-1.43251e-09
5.00079e-06
-1.75445e-09
5.00091e-06
-1.75469e-09
-2.31302e-09
5e-06
-3.75114e-11
5.00001e-06
-1.09903e-10
5.00002e-06
-1.71553e-10
5.00003e-06
-2.24807e-10
5.00004e-06
-2.64058e-10
5.00006e-06
-2.85942e-10
5.00007e-06
-2.88119e-10
5.00009e-06
-2.91684e-10
5.0001e-06
-3.14114e-10
5.00011e-06
-3.83191e-10
5.00014e-06
-5.00165e-10
5.00017e-06
-6.78473e-10
5.00022e-06
-8.63741e-10
5.00028e-06
-1.0923e-09
5.00035e-06
-1.22877e-09
5.00043e-06
-1.46573e-09
5.00051e-06
-1.51097e-09
5.00059e-06
-1.83668e-09
5.00067e-06
-1.83687e-09
-2.37663e-09
5e-06
-3.85781e-11
5e-06
-1.15382e-10
5.00001e-06
-1.79088e-10
5.00002e-06
-2.32858e-10
5.00002e-06
-2.73744e-10
5.00003e-06
-2.95909e-10
5.00004e-06
-2.98299e-10
5.00005e-06
-3.0292e-10
5.00006e-06
-3.26405e-10
5.00007e-06
-3.97398e-10
5.00009e-06
-5.18161e-10
5.00011e-06
-7.01807e-10
5.00014e-06
-8.93357e-10
5.00017e-06
-1.12819e-09
5.00021e-06
-1.26913e-09
5.00025e-06
-1.51003e-09
5.0003e-06
-1.55645e-09
5.00034e-06
-1.88368e-09
5.00039e-06
-1.88254e-09
-2.4289e-09
5e-06
-3.89262e-11
5e-06
-1.17262e-10
5e-06
-1.81076e-10
5.00001e-06
-2.35718e-10
5.00001e-06
-2.77395e-10
5.00001e-06
-3.00006e-10
5.00002e-06
-3.02866e-10
5.00002e-06
-3.06797e-10
5.00002e-06
-3.30038e-10
5.00002e-06
-4.0131e-10
5.00003e-06
-5.22989e-10
5.00004e-06
-7.08197e-10
5.00004e-06
-9.02402e-10
5.00006e-06
-1.14023e-09
5.00007e-06
-1.28381e-09
5.00009e-06
-1.52691e-09
5.0001e-06
-1.57368e-09
5.00012e-06
-1.90134e-09
5.00014e-06
-1.89894e-09
-2.44183e-09
5e-06
-3.85766e-11
5e-06
-1.15381e-10
5e-06
-1.79083e-10
4.99999e-06
-2.32853e-10
4.99999e-06
-2.73745e-10
4.99999e-06
-2.95914e-10
4.99999e-06
-2.98305e-10
4.99998e-06
-3.02923e-10
4.99998e-06
-3.26406e-10
4.99998e-06
-3.97397e-10
4.99997e-06
-5.18164e-10
4.99996e-06
-7.01803e-10
4.99996e-06
-8.93355e-10
4.99994e-06
-1.12816e-09
4.99993e-06
-1.26911e-09
4.99991e-06
-1.50997e-09
4.9999e-06
-1.5564e-09
4.99988e-06
-1.88361e-09
4.99986e-06
-1.88247e-09
-2.42878e-09
5e-06
-3.75134e-11
5e-06
-1.09897e-10
4.99999e-06
-1.71541e-10
4.99998e-06
-2.24795e-10
4.99998e-06
-2.64056e-10
4.99997e-06
-2.85951e-10
4.99996e-06
-2.88131e-10
4.99995e-06
-2.91692e-10
4.99994e-06
-3.14117e-10
4.99993e-06
-3.83192e-10
4.99991e-06
-5.0017e-10
4.99989e-06
-6.78463e-10
4.99986e-06
-8.63732e-10
4.99983e-06
-1.09224e-09
4.99979e-06
-1.22873e-09
4.99975e-06
-1.46562e-09
4.9997e-06
-1.51088e-09
4.99966e-06
-1.83654e-09
4.99961e-06
-1.83671e-09
-2.37645e-09
5e-06
-3.57683e-11
4.99999e-06
-1.0172e-10
4.99998e-06
-1.58872e-10
4.99997e-06
-2.09342e-10
4.99996e-06
-2.46505e-10
4.99994e-06
-2.6657e-10
4.99993e-06
-2.70232e-10
4.99991e-06
-2.76649e-10
4.9999e-06
-2.99126e-10
4.99989e-06
-3.63836e-10
4.99986e-06
-4.72305e-10
4.99983e-06
-6.39271e-10
4.99978e-06
-8.11769e-10
4.99972e-06
-1.02812e-09
4.99965e-06
-1.15677e-09
4.99957e-06
-1.38681e-09
4.99949e-06
-1.4324e-09
4.99941e-06
-1.75426e-09
4.99933e-06
-1.75448e-09
-2.31271e-09
5e-06
-3.18453e-11
4.99999e-06
-9.09117e-11
4.99998e-06
-1.44798e-10
4.99997e-06
-1.9298e-10
4.99995e-06
-2.2685e-10
4.99993e-06
-2.45327e-10
4.99991e-06
-2.45973e-10
4.99989e-06
-2.48056e-10
4.99986e-06
-2.66653e-10
4.99983e-06
-3.28528e-10
4.9998e-06
-4.30838e-10
4.99975e-06
-5.87757e-10
4.99969e-06
-7.46312e-10
4.99961e-06
-9.48112e-10
4.99953e-06
-1.06402e-09
4.99943e-06
-1.28263e-09
4.99932e-06
-1.32209e-09
4.99921e-06
-1.6402e-09
4.99909e-06
-1.64137e-09
-2.17402e-09
5e-06
-2.7304e-11
4.99999e-06
-7.50902e-11
4.99997e-06
-1.21166e-10
4.99994e-06
-1.63338e-10
4.99991e-06
-1.94006e-10
4.99989e-06
-2.11425e-10
4.99986e-06
-2.16557e-10
4.99984e-06
-2.24889e-10
4.99983e-06
-2.44358e-10
4.9998e-06
-2.97102e-10
4.99976e-06
-3.81861e-10
4.9997e-06
-5.16186e-10
4.99961e-06
-6.51867e-10
4.9995e-06
-8.31707e-10
4.99938e-06
-9.34848e-10
4.99924e-06
-1.13954e-09
4.9991e-06
-1.179e-09
4.99894e-06
-1.48517e-09
4.99879e-06
-1.48903e-09
-2.06067e-09
5e-06
-2.48192e-11
4.99999e-06
-6.37473e-11
4.99998e-06
-1.04621e-10
4.99996e-06
-1.42879e-10
4.99994e-06
-1.67762e-10
4.99992e-06
-1.80512e-10
4.99989e-06
-1.81762e-10
4.99986e-06
-1.84371e-10
4.99982e-06
-1.96072e-10
4.99977e-06
-2.41997e-10
4.99971e-06
-3.16125e-10
4.99964e-06
-4.35897e-10
4.99955e-06
-5.50664e-10
4.99943e-06
-7.0905e-10
4.9993e-06
-7.90462e-10
4.99914e-06
-9.76804e-10
4.99897e-06
-1.00124e-09
4.99878e-06
-1.29915e-09
4.99859e-06
-1.29093e-09
-1.81106e-09
4.99999e-06
-1.39137e-11
4.99997e-06
-4.1651e-11
4.99995e-06
-7.25443e-11
4.99991e-06
-1.01897e-10
4.99987e-06
-1.22744e-10
4.99984e-06
-1.36028e-10
4.99981e-06
-1.40572e-10
4.99978e-06
-1.47173e-10
4.99975e-06
-1.60762e-10
4.99972e-06
-1.9751e-10
4.99966e-06
-2.5132e-10
4.99958e-06
-3.4088e-10
4.99947e-06
-4.24921e-10
4.99932e-06
-5.49073e-10
4.99915e-06
-6.10535e-10
4.99895e-06
-7.68139e-10
4.99874e-06
-7.88077e-10
4.9985e-06
-1.05624e-09
4.99826e-06
-1.05488e-09
-1.6234e-09
5e-06
-1.84187e-11
5e-06
-3.43567e-11
4.99998e-06
-5.59347e-11
4.99997e-06
-7.67918e-11
4.99994e-06
-8.97682e-11
4.99991e-06
-9.62606e-11
4.99987e-06
-9.5878e-11
4.99984e-06
-9.93989e-11
4.99979e-06
-1.05865e-10
4.99974e-06
-1.31471e-10
4.99967e-06
-1.67377e-10
4.99958e-06
-2.34251e-10
4.99945e-06
-2.89687e-10
4.9993e-06
-3.84547e-10
4.99912e-06
-4.17271e-10
4.9989e-06
-5.46052e-10
4.99866e-06
-5.39094e-10
4.99839e-06
-7.78641e-10
4.99808e-06
-7.39513e-10
-1.21757e-09
4.99998e-06
6.61279e-12
4.99995e-06
-1.09455e-11
4.99993e-06
-2.44028e-11
4.99989e-06
-3.27125e-11
4.99985e-06
-4.07883e-11
4.99981e-06
-4.65109e-11
4.99978e-06
-4.81092e-11
4.99974e-06
-4.79952e-11
4.99971e-06
-5.66559e-11
4.99966e-06
-7.10438e-11
4.9996e-06
-8.83732e-11
4.9995e-06
-1.21485e-10
4.99937e-06
-1.45654e-10
4.9992e-06
-1.96033e-10
4.999e-06
-2.0716e-10
4.99875e-06
-2.8499e-10
4.99849e-06
-2.70273e-10
4.99815e-06
-4.37333e-10
4.99782e-06
-4.04879e-10
-8.68706e-10
5.00001e-06
5e-06
4.99997e-06
4.99995e-06
4.99991e-06
4.99988e-06
4.99984e-06
4.9998e-06
4.99976e-06
4.99971e-06
4.99964e-06
4.99953e-06
4.9994e-06
4.99922e-06
4.99902e-06
4.99875e-06
4.99849e-06
4.99805e-06
4.99765e-06
)
;

boundaryField
{
    sides
    {
        type            calculated;
        value           uniform 0;
    }
    inlet
    {
        type            calculated;
        value           nonuniform List<scalar> 
20
(
-5e-06
-5e-06
-5e-06
-5e-06
-5e-06
-5e-06
-5e-06
-5e-06
-5e-06
-5e-06
-5e-06
-5e-06
-5e-06
-5e-06
-5e-06
-5e-06
-5e-06
-5e-06
-5e-06
-5e-06
)
;
    }
    outlet
    {
        type            calculated;
        value           nonuniform List<scalar> 
20
(
5.00321e-06
5.00253e-06
5.00233e-06
5.00192e-06
5.00166e-06
5.00132e-06
5.00104e-06
5.00073e-06
5.00044e-06
5.00015e-06
4.99985e-06
4.99956e-06
4.99927e-06
4.99896e-06
4.99868e-06
4.99834e-06
4.99808e-06
4.99767e-06
4.99747e-06
4.99678e-06
)
;
    }
    frontAndBack
    {
        type            empty;
        value           nonuniform 0();
    }
}


// ************************************************************************* //
